Title
81377
    1CHL1    C3    1   3.329   0.114  10.308 -0.3713 -0.3651 -0.4063
    1CHL1    H3    2   3.257   0.031  10.291 -0.0884 -1.2388  2.1054
    1CHL1    O3    3   3.355   0.125  10.448 -0.2245  0.2296 -0.0589
    1CHL1   H3'    4   3.421   0.056  10.461 -0.2251  0.4929  1.5787
    1CHL1    C4    5   3.454   0.078  10.232 -0.2618 -0.6432 -0.0385
    1CHL1   H4A    6   3.541   0.140  10.263  0.2707 -1.0519 -0.6739
    1CHL1   H4B    7   3.488  -0.022  10.265  0.8025  0.1491  1.4077
    1CHL1    C5    8   3.438   0.080  10.082 -0.2120 -0.2403 -0.2261
    1CHL1    C6    9   3.484  -0.017  10.004  0.0321 -0.0927 -0.0426
    1CHL1    H6   10   3.533  -0.098  10.060  1.4365 -1.2743 -2.7888
    1CHL1    C7   11   3.472  -0.012   9.853 -1.0026  0.0001 -0.3884
    1CHL1   H7A   12   3.569  -0.040   9.807 -1.5199 -0.7755 -1.0278
    1CHL1   H7B   13   3.399  -0.092   9.828 -1.8385  0.5122  0.3506
    1CHL1    C8   14   3.433   0.128   9.787 -0.1842 -0.2674 -0.8226
    1CHL1    H8   15   3.528   0.184   9.773 -2.3745  3.5718 -2.0246
    1CHL1   C14   16   3.375   0.109   9.656  0.4042  0.1983  0.3424
    1CHL1   H14   17   3.270   0.074   9.668  0.4340  0.0679  0.2264
    1CHL1   C15   18   3.450   0.015   9.559 -0.1652  0.5151  0.2002
    1CHL1  H15A   19   3.553   0.051   9.544 -0.0346 -0.7382 -2.6256
    1CHL1  H15B   20   3.449  -0.087   9.603 -0.8685  1.8275  3.4727
    1CHL1   C16   21   3.381   0.043   9.425  0.1690 -0.2744 -0.1444
    1CHL1  H16A   22   3.453   0.062   9.343  0.5602  3.6395  0.9390
    1CHL1  H16B   23   3.314  -0.041   9.396 -0.4004  0.0823  0.1205
    1CHL1   C17   24   3.303   0.179   9.443  0.4671 -0.3932  0.2489
    1CHL1   H17   25   3.195   0.153   9.456 -0.3782  2.5585 -0.0986
    1CHL1   C13   26   3.354   0.238   9.576  0.8657  0.1315 -0.1010
    1CHL1   C18   27   3.476   0.323   9.555  0.2814  0.8308 -0.4445
    1CHL1  H18A   28   3.556   0.269   9.501  0.2438  0.8631 -0.5346
    1CHL1  H18B   29   3.446   0.417   9.504 -0.4703  0.8999  0.0991
    1CHL1  H18C   30   3.516   0.356   9.653 -1.7762 -0.9370  1.0675
    1CHL1   C12   31   3.247   0.322   9.665  0.3747  0.6563  0.4070
    1CHL1  H12A   32   3.228   0.420   9.616  1.0264  1.0797  0.9970
    1CHL1  H12B   33   3.147   0.274   9.671  0.1294  1.1537  0.3735
    1CHL1   C11   34   3.286   0.335   9.817 -0.1362  0.2502  0.2939
    1CHL1  H11A   35   3.363   0.414   9.820 -0.4566  0.5667  0.3386
    1CHL1  H11B   36   3.197   0.369   9.874 -0.4705 -3.5440  2.3962
    1CHL1    C9   37   3.335   0.205   9.877 -0.0293 -0.4276 -0.3271
    1CHL1    H9   38   3.243   0.144   9.886 -0.7646  0.5842 -0.8106
    1CHL1   C10   39   3.370   0.214  10.025 -0.1590 -0.3908  0.2548
    1CHL1   C19   40   3.472   0.334  10.047  0.2669  0.7813  0.2014
    1CHL1  H19A   41   3.507   0.342  10.153 -0.5178  0.3398  0.5018
    1CHL1  H19B   42   3.560   0.325   9.981  1.0085  0.3336  1.2305
    1CHL1  H19C   43   3.415   0.427  10.024 -0.0513  0.4980 -0.1712
    1CHL1    C1   44   3.238   0.244  10.110  0.6090 -0.0056  0.4320
    1CHL1   H1A   45   3.210   0.351  10.096  2.1953  0.6878  2.1375
    1CHL1   H1B   46   3.152   0.184  10.074 -0.2036  0.6955  1.1315
    1CHL1    C2   47   3.250   0.236  10.262 -0.3677  0.0984  0.6068
    1CHL1   H2A   48   3.147   0.230  10.302  0.3489 -1.1586  2.4059
    1CHL1   H2B   49   3.301   0.326  10.302 -0.1318 -0.1677  0.9098
    1CHL1   C20   50   3.303   0.279   9.315  0.5013 -0.0063 -0.3292
    1CHL1   H20   51   3.406   0.320   9.305 -0.2598  2.4056  0.9069
    1CHL1   C21   52   3.217   0.407   9.336 -0.1560 -0.1377  0.7866
    1CHL1  H21A   53   3.258   0.480   9.410  0.8994  1.8451 -1.6256
    1CHL1  H21B   54   3.115   0.382   9.372  0.4866 -0.9620  2.0912
    1CHL1  H21C   55   3.208   0.459   9.238 -1.2061  0.3338  1.1123
    1CHL1   C22   56   3.259   0.195   9.189  0.2520 -0.7858 -0.0725
    1CHL1  H22A   57   3.319   0.102   9.185 -0.9163 -1.7055  2.0964
    1CHL1  H22B   58   3.151   0.171   9.206  0.0689  0.3566  0.4665
    1CHL1   C23   59   3.268   0.272   9.055 -0.0222 -0.5060 -0.2593
    1CHL1  H23A   60   3.204   0.363   9.060 -1.1498 -1.3005  0.1230
    1CHL1  H23B   61   3.376   0.297   9.054 -0.3812  1.2810  0.9465
    1CHL1   C24   62   3.226   0.190   8.924  0.6150 -0.2080 -0.2340
    1CHL1  H24A   63   3.292   0.101   8.909  0.4033 -0.4854  0.4521
    1CHL1  H24B   64   3.118   0.164   8.927 -0.3009  3.2063 -0.1871
    1CHL1   C25   65   3.244   0.277   8.797 -0.1011 -0.1090  0.0793
    1CHL1   H25   66   3.354   0.289   8.785 -0.4462  1.5920 -1.9698
    1CHL1   C26   67   3.185   0.217   8.669  0.3144 -0.0112 -0.0045
    1CHL1  H26A   68   3.235   0.119   8.655  1.6118  0.3267  1.8050
    1CHL1  H26B   69   3.075   0.206   8.664  0.2076  1.1324 -0.6113
    1CHL1  H26C   70   3.210   0.279   8.580  0.1842  1.1663  0.7580
    1CHL1   C27   71   3.180   0.419   8.805 -0.4938 -0.7033 -0.8789
    1CHL1  H27A   72   3.070   0.412   8.813 -0.4426 -1.2758 -0.6556
    1CHL1  H27B   73   3.209   0.480   8.894 -0.1107  0.6265 -1.8724
    1CHL1  H27C   74   3.207   0.480   8.716  0.1776 -0.5304 -0.5672
    2CHL1    C3   75   5.186   3.158  10.352 -0.2689  0.3975 -0.3288
    2CHL1    H3   76   5.075   3.154  10.356 -0.1905 -2.2166  2.3066
    2CHL1    O3   77   5.235   3.113  10.478  0.1645 -0.0809 -0.1373
    2CHL1   H3'   78   5.232   3.190  10.535 -1.9239 -0.8449  0.8625
    2CHL1    C4   79   5.242   3.060  10.252 -0.0505 -0.3962 -0.2888
    2CHL1   H4A   80   5.346   3.052  10.290  0.6259  4.9150 -0.2398
    2CHL1   H4B   81   5.195   2.963  10.278 -0.4783  0.1644  1.1382
    2CHL1    C5   82   5.225   3.090  10.106 -1.2444 -0.2155  0.2007
    2CHL1    C6   83   5.175   3.002  10.020 -0.3504 -0.6755 -0.5810
    2CHL1    H6   84   5.159   2.909  10.076 -1.3087 -0.0347  0.2441
    2CHL1    C7   85   5.168   3.020   9.871 -0.1908 -0.0841 -0.6056
    2CHL1   H7A   86   5.202   2.929   9.818  0.2453 -0.8747  0.9746
    2CHL1   H7B   87   5.061   3.038   9.847 -0.2279  1.1470  0.3780
    2CHL1    C8   88   5.238   3.147   9.828  0.4988 -0.0654  0.3026
    2CHL1    H8   89   5.349   3.143   9.831  0.5176 -1.1411 -0.9760
    2CHL1   C14   90   5.189   3.185   9.692 -0.0916 -0.8648  0.7743
    2CHL1   H14   91   5.080   3.204   9.695  0.0920  0.9642 -1.4299
    2CHL1   C15   92   5.186   3.089   9.573  0.0139 -0.0640 -0.5712
    2CHL1  H15A   93   5.278   3.027   9.568  1.6245  2.1731 -0.4782
    2CHL1  H15B   94   5.100   3.023   9.595  0.2153  0.3565  1.7292
    2CHL1   C16   95   5.172   3.176   9.442  0.6101  0.1353 -0.2749
    2CHL1  H16A   96   5.253   3.153   9.369  1.0928 -1.4611  0.7334
    2CHL1  H16B   97   5.077   3.156   9.389  1.2316 -2.5427 -0.5053
    2CHL1   C17   98   5.182   3.325   9.489 -0.4576 -0.6184  0.1534
    2CHL1   H17   99   5.079   3.360   9.509 -0.2623 -0.2107  0.4711
    2CHL1   C13  100   5.247   3.316   9.626 -0.0092 -0.1111  0.3692
    2CHL1   C18  101   5.403   3.309   9.605 -0.4440  0.1161 -0.6964
    2CHL1  H18A  102   5.436   3.229   9.535  3.2648  1.5610 -0.8488
    2CHL1  H18B  103   5.459   3.396   9.563  2.9898 -2.8267 -2.8154
    2CHL1  H18C  104   5.456   3.276   9.697  1.6307  1.0600 -1.4688
    2CHL1   C12  105   5.209   3.431   9.721 -0.1577  0.1613  0.0293
    2CHL1  H12A  106   5.255   3.524   9.682  0.0043 -0.2479 -0.7854
    2CHL1  H12B  107   5.098   3.440   9.730 -0.3414 -2.3257  1.3586
    2CHL1   C11  108   5.252   3.401   9.867  0.1364  0.0256  0.3248
    2CHL1  H11A  109   5.363   3.394   9.867  0.0957 -1.9521  2.3528
    2CHL1  H11B  110   5.232   3.492   9.926  5.1230  0.8174  1.2385
    2CHL1    C9  111   5.206   3.265   9.925  0.5052 -0.2079  0.6625
    2CHL1    H9  112   5.096   3.280   9.936  0.4500 -0.4992  0.5242
    2CHL1   C10  113   5.258   3.233  10.068 -0.3883  0.3423 -0.1437
    2CHL1   C19  114   5.409   3.257  10.080  0.1668  0.1033  0.2474
    2CHL1  H19A  115   5.463   3.212   9.993 -3.2698  0.5063 -2.3006
    2CHL1  H19B  116   5.429   3.366  10.072 -0.3990  0.0848 -2.5304
    2CHL1  H19C  117   5.458   3.225  10.174  2.5675 -1.4284 -1.3945
    2CHL1    C1  118   5.189   3.330  10.174  0.7224 -0.5829  0.4098
    2CHL1   H1A  119   5.227   3.435  10.171  1.0411 -0.7085 -1.8714
    2CHL1   H1B  120   5.078   3.330  10.167  0.6857 -3.4150  0.2178
    2CHL1    C2  121   5.229   3.300  10.320  0.0404  0.5550 -0.1143
    2CHL1   H2A  122   5.172   3.379  10.374 -3.1618 -0.2323 -2.0770
    2CHL1   H2B  123   5.338   3.311  10.336  0.1025  0.2114 -0.2945
    2CHL1   C20  124   5.231   3.406   9.365  0.1853 -0.1424  0.2453
    2CHL1   H20  125   5.331   3.371   9.332 -0.0882 -2.5164  1.7103
    2CHL1   C21  126   5.243   3.552   9.414  0.5350 -0.2887  0.1541
    2CHL1  H21A  127   5.247   3.628   9.333 -2.7621 -0.0286  0.1235
    2CHL1  H21B  128   5.332   3.558   9.480 -0.5114 -0.2602  1.6070
    2CHL1  H21C  129   5.161   3.591   9.477 -0.1837  1.2768 -1.6487
    2CHL1   C22  130   5.137   3.394   9.245 -0.1109 -0.3245 -0.5777
    2CHL1  H22A  131   5.138   3.292   9.201  0.0419 -0.9726  0.8676
    2CHL1  H22B  132   5.034   3.423   9.274 -0.4292 -0.7134 -1.2991
    2CHL1   C23  133   5.172   3.484   9.126 -0.5170 -0.3743  0.8579
    2CHL1  H23A  134   5.147   3.591   9.135  0.3142 -0.0696 -0.1887
    2CHL1  H23B  135   5.282   3.481   9.109 -0.9613  0.3417 -3.1525
    2CHL1   C24  136   5.109   3.436   8.998  0.1541  0.1198 -0.0975
    2CHL1  H24A  137   5.136   3.328   8.996  0.3798  0.1425  1.0003
    2CHL1  H24B  138   4.998   3.438   9.010  0.1963  0.5700  0.2271
    2CHL1   C25  139   5.172   3.506   8.868 -0.5264  1.0823 -0.8495
    2CHL1   H25  140   5.280   3.503   8.895 -1.2075 -0.7340  2.1900
    2CHL1   C26  141   5.141   3.414   8.746 -0.3826 -0.0103 -0.0884
    2CHL1  H26A  142   5.178   3.310   8.764 -1.8199 -0.9420 -2.1245
    2CHL1  H26B  143   5.033   3.388   8.742 -0.4604  0.2343  0.3777
    2CHL1  H26C  144   5.178   3.447   8.647 -0.6546 -3.2778 -1.3917
    2CHL1   C27  145   5.119   3.649   8.846  0.8195  0.2534  0.1864
    2CHL1  H27A  146   5.162   3.698   8.757  1.1866  1.8312  1.1966
    2CHL1  H27B  147   5.010   3.641   8.825  0.7903 -2.2991  0.9154
    2CHL1  H27C  148   5.142   3.703   8.940 -0.3673 -1.6705  1.6704
    3CHL1    C3  149   5.187   3.713  10.321 -0.7129  0.0078  0.0940
    3CHL1    H3  150   5.192   3.609  10.284  0.8057  0.5945 -1.4663
    3CHL1    O3  151   5.187   3.728  10.464  0.2452 -0.4949 -0.3434
    3CHL1   H3'  152   5.185   3.824  10.471 -0.8690 -0.5878  1.2732
    3CHL1    C4  153   5.325   3.770  10.273  1.0047 -0.2369 -0.5551
    3CHL1   H4A  154   5.343   3.868  10.323  2.5044 -0.3660 -0.7984
    3CHL1   H4B  155   5.403   3.710  10.323  0.7183  0.7110  1.0763
    3CHL1    C5  156   5.337   3.791  10.121 -0.3870 -0.6146  0.2091
    3CHL1    C6  157   5.447   3.755  10.063 -1.3898  0.3253 -0.0669
    3CHL1    H6  158   5.524   3.702  10.122 -0.0031  0.9191 -1.2663
    3CHL1    C7  159   5.474   3.767   9.915 -0.8548  0.0271 -0.3646
    3CHL1   H7A  160   5.564   3.831   9.903 -2.1222  2.0635  0.4835
    3CHL1   H7B  161   5.495   3.675   9.856  0.4450 -1.9848  2.9664
    3CHL1    C8  162   5.368   3.857   9.848 -0.3904  0.0062 -0.1637
    3CHL1    H8  163   5.401   3.959   9.878 -1.5813 -0.1538  1.8474
    3CHL1   C14  164   5.368   3.841   9.696  0.4235 -0.6354 -0.2579
    3CHL1   H14  165   5.330   3.738   9.681  1.1437 -0.9114 -0.1947
    3CHL1   C15  166   5.509   3.852   9.624  0.2600  0.0272 -0.2930
    3CHL1  H15A  167   5.550   3.952   9.648 -2.2789  1.3124 -1.0240
    3CHL1  H15B  168   5.572   3.765   9.654 -0.2093 -1.0854 -2.3459
    3CHL1   C16  169   5.467   3.845   9.476  0.4579 -0.1030  0.0000
    3CHL1  H16A  170   5.531   3.915   9.417 -0.2094  0.8781  0.4111
    3CHL1  H16B  171   5.480   3.741   9.440  0.0428 -0.0507 -0.3055
    3CHL1   C17  172   5.315   3.892   9.476 -0.4296  0.4812 -0.7582
    3CHL1   H17  173   5.244   3.807   9.467 -0.8466  0.8400 -0.9063
    3CHL1   C13  174   5.281   3.937   9.614  0.3400 -0.2002 -0.6363
    3CHL1   C18  175   5.315   4.089   9.626  0.1308  0.6173  0.0908
    3CHL1  H18A  176   5.414   4.107   9.581  0.4416 -2.6162 -0.8083
    3CHL1  H18B  177   5.235   4.159   9.593 -0.0555  1.3161  1.8911
    3CHL1  H18C  178   5.326   4.107   9.735  1.8442  1.7341 -0.2463
    3CHL1   C12  179   5.133   3.913   9.673 -0.4353 -0.0338  0.7170
    3CHL1  H12A  180   5.063   3.984   9.624 -0.9497 -0.5427  0.7059
    3CHL1  H12B  181   5.109   3.808   9.647 -0.8906  0.3119 -0.3066
    3CHL1   C11  182   5.131   3.939   9.824  0.7186 -0.2273 -0.2875
    3CHL1  H11A  183   5.155   4.042   9.861 -2.2251 -0.0625  1.4700
    3CHL1  H11B  184   5.029   3.917   9.860  1.1748  0.1042  1.2847
    3CHL1    C9  185   5.226   3.842   9.898  0.4763  0.3088 -0.4855
    3CHL1    H9  186   5.201   3.735   9.877 -0.2357  0.5068 -0.6944
    3CHL1   C10  187   5.211   3.854  10.055  0.0802 -0.7847 -0.0192
    3CHL1   C19  188   5.197   4.008  10.103  0.8377  0.3714  0.6703
    3CHL1  H19A  189   5.279   4.074  10.066 -0.2860  2.1063  1.1379
    3CHL1  H19B  190   5.103   4.055  10.068  0.2818 -0.3749  1.1607
    3CHL1  H19C  191   5.204   4.019  10.213 -0.7267 -1.1267  0.9485
    3CHL1    C1  192   5.092   3.772  10.104  0.4087  0.0332 -0.7807
    3CHL1   H1A  193   5.003   3.808  10.048 -0.5487  0.3134  0.8721
    3CHL1   H1B  194   5.107   3.664  10.079  1.0059 -0.1405  0.2819
    3CHL1    C2  195   5.062   3.784  10.254  0.5007  0.5914  0.1464
    3CHL1   H2A  196   4.980   3.714  10.281 -0.4722 -0.0114 -3.6888
    3CHL1   H2B  197   5.041   3.886  10.291 -0.6645 -0.3001  2.1368
    3CHL1   C20  198   5.285   3.971   9.350 -0.1111  0.1378 -0.1196
    3CHL1   H20  199   5.340   4.067   9.349  2.6005 -1.2846 -1.0976
    3CHL1   C21  200   5.138   4.015   9.340  0.2341  0.3594 -0.3120
    3CHL1  H21A  201   5.077   3.926   9.315  0.6143 -0.0625  0.2269
    3CHL1  H21B  202   5.112   4.086   9.259 -0.5464 -0.6072 -0.9401
    3CHL1  H21C  203   5.098   4.056   9.435  2.4389 -1.2918  1.4471
    3CHL1   C22  204   5.327   3.899   9.223 -0.5370 -0.2652  0.1089
    3CHL1  H22A  205   5.437   3.912   9.224 -0.2909 -2.1129 -0.2226
    3CHL1  H22B  206   5.298   3.792   9.236  0.0116 -0.2544  1.6721
    3CHL1   C23  207   5.275   3.963   9.096  0.8703  0.0789 -0.8227
    3CHL1  H23A  208   5.164   3.957   9.088  0.7242  0.9753  0.1915
    3CHL1  H23B  209   5.290   4.072   9.114  0.2750  0.1054 -0.4454
    3CHL1   C24  210   5.351   3.924   8.967  0.2457 -0.3055 -0.4241
    3CHL1  H24A  211   5.443   3.981   8.991 -2.4888  3.8125  1.6290
    3CHL1  H24B  212   5.387   3.819   8.965  0.6794 -0.2108  0.9455
    3CHL1   C25  213   5.280   3.965   8.836 -0.3825 -0.2080 -0.7123
    3CHL1   H25  214   5.176   3.928   8.836 -1.2623  2.1149 -0.1350
    3CHL1   C26  215   5.270   4.116   8.819 -0.5390 -0.2421 -0.1787
    3CHL1  H26A  216   5.217   4.152   8.728  0.5735  2.4143  0.1259
    3CHL1  H26B  217   5.213   4.158   8.905 -0.4458 -0.9611  0.2416
    3CHL1  H26C  218   5.370   4.164   8.809 -1.7674  2.3163 -1.0966
    3CHL1   C27  219   5.356   3.894   8.724 -0.4271  0.6920  0.6575
    3CHL1  H27A  220   5.465   3.913   8.726  0.1876 -1.9378 -1.7164
    3CHL1  H27B  221   5.343   3.785   8.739 -1.1126  0.6023 -0.4361
    3CHL1  H27C  222   5.319   3.925   8.624  2.9979  1.5352 -0.4793
    4CHL1    C3  223   3.455   1.163  10.539 -0.8698  0.3011  0.4944
    4CHL1    H3  224   3.444   1.053  10.528  0.0959  0.1523  0.9528
    4CHL1    O3  225   3.426   1.201  10.673 -0.3416  0.3136  0.4773
    4CHL1   H3'  226   3.354   1.145  10.700 -1.4108  1.5734  0.3444
    4CHL1    C4  227   3.592   1.214  10.498 -0.0525 -0.3936  0.2664
    4CHL1   H4A  228   3.604   1.323  10.513 -0.4179  0.1046 -2.5418
    4CHL1   H4B  229   3.665   1.168  10.568  0.8047  0.9075  0.2484
    4CHL1    C5  230   3.621   1.183  10.356  0.1358 -0.4932  0.2932
    4CHL1    C6  231   3.720   1.097  10.324 -0.6481 -0.0746  0.2072
    4CHL1    H6  232   3.775   1.045  10.404 -1.4965 -0.0558  0.8229
    4CHL1    C7  233   3.765   1.081  10.180 -0.0710 -0.1666  0.8124
    4CHL1   H7A  234   3.875   1.091  10.183 -0.1473  0.4676  2.2904
    4CHL1   H7B  235   3.752   0.977  10.143  3.0405 -0.6663  0.8333
    4CHL1    C8  236   3.694   1.177  10.071 -0.2403  0.0707  0.1755
    4CHL1    H8  237   3.739   1.278  10.078  0.5327 -0.3633  3.2865
    4CHL1   C14  238   3.707   1.126   9.929  0.1320  0.3307  0.0264
    4CHL1   H14  239   3.648   1.032   9.928 -1.4255  1.2452  0.8083
    4CHL1   C15  240   3.848   1.103   9.873  0.0074 -0.1739  0.3501
    4CHL1  H15A  241   3.910   1.190   9.904 -1.1349  0.1661  1.7621
    4CHL1  H15B  242   3.904   1.012   9.903  0.0347  0.4102  2.1436
    4CHL1   C16  243   3.832   1.102   9.715  0.3777 -0.4516 -0.2326
    4CHL1  H16A  244   3.896   1.186   9.680  0.3697  0.3219  1.5089
    4CHL1  H16B  245   3.861   1.014   9.654 -0.5095 -0.1880 -1.0648
    4CHL1   C17  246   3.684   1.134   9.689 -0.4374  0.1290  0.2147
    4CHL1   H17  247   3.626   1.039   9.699  2.2811 -1.6623 -0.0753
    4CHL1   C13  248   3.628   1.196   9.821 -0.6587 -0.8887  0.2568
    4CHL1   C18  249   3.670   1.350   9.819 -0.5420  0.0725 -0.0170
    4CHL1  H18A  250   3.602   1.402   9.747  2.2909  0.6874 -2.4364
    4CHL1  H18B  251   3.661   1.398   9.919  1.3749  1.1891 -0.3199
    4CHL1  H18C  252   3.775   1.365   9.786 -0.5233  0.7681  0.3390
    4CHL1   C12  253   3.478   1.192   9.849 -0.2376 -0.0594 -1.2245
    4CHL1  H12A  254   3.428   1.255   9.772 -1.5652 -0.9890 -1.1614
    4CHL1  H12B  255   3.426   1.093   9.849 -2.4731  0.9396  2.2257
    4CHL1   C11  256   3.457   1.242   9.991  0.3184 -0.5704  0.5466
    4CHL1  H11A  257   3.469   1.352   9.983  1.1991 -0.6917  0.0481
    4CHL1  H11B  258   3.350   1.232  10.018  0.2166  0.0504  0.3992
    4CHL1    C9  259   3.541   1.183  10.106  0.7164  0.7584 -0.1210
    4CHL1    H9  260   3.523   1.074  10.114 -0.4934  0.8090 -1.6394
    4CHL1   C10  261   3.523   1.240  10.245  0.3174 -0.1242 -0.0276
    4CHL1   C19  262   3.536   1.399  10.239 -0.2094  0.6877  0.8168
    4CHL1  H19A  263   3.524   1.445  10.339 -1.5718  0.1171  0.9423
    4CHL1  H19B  264   3.639   1.424  10.206 -0.1480  0.6004  0.9418
    4CHL1  H19C  265   3.473   1.458  10.170  2.1290  1.3830 -0.8301
    4CHL1    C1  266   3.387   1.185  10.296 -0.4698 -0.5592 -0.1696
    4CHL1   H1A  267   3.308   1.232  10.234 -0.3269 -0.7437 -0.4978
    4CHL1   H1B  268   3.382   1.076  10.272 -0.1060 -0.5310 -0.3845
    4CHL1    C2  269   3.347   1.218  10.439 -0.2797  0.1508 -0.1801
    4CHL1   H2A  270   3.251   1.170  10.468  0.5921  0.0228  2.8438
    4CHL1   H2B  271   3.344   1.328  10.453  0.0199  0.4288 -2.0489
    4CHL1   C20  272   3.646   1.188   9.548  0.7225 -0.3313  0.0999
    4CHL1   H20  273   3.624   1.296   9.545  2.3860  0.0583  0.7655
    4CHL1   C21  274   3.512   1.115   9.512  0.4022  0.1348 -0.0923
    4CHL1  H21A  275   3.422   1.124   9.577 -0.8969 -0.7174 -1.6940
    4CHL1  H21B  276   3.537   1.009   9.491  1.1145  0.3146 -0.1548
    4CHL1  H21C  277   3.469   1.161   9.420  1.0498  0.9569  0.0035
    4CHL1   C22  278   3.757   1.168   9.442 -0.6274 -0.5990  0.8337
    4CHL1  H22A  279   3.858   1.199   9.475  0.6938 -1.7247 -1.8575
    4CHL1  H22B  280   3.760   1.057   9.435 -1.7705 -0.6132  0.4197
    4CHL1   C23  281   3.720   1.213   9.298  0.3022 -0.4593 -0.1534
    4CHL1  H23A  282   3.613   1.184   9.287 -0.3203  1.2637  0.9361
    4CHL1  H23B  283   3.729   1.322   9.316  2.6538 -0.4929 -0.8207
    4CHL1   C24  284   3.803   1.177   9.171 -0.4702  0.2081 -0.8106
    4CHL1  H24A  285   3.904   1.219   9.188 -0.3059 -0.3962 -0.2489
    4CHL1  H24B  286   3.810   1.066   9.167  0.1220  0.2252 -0.3914
    4CHL1   C25  287   3.736   1.210   9.041  0.4430 -0.0612  0.4535
    4CHL1   H25  288   3.706   1.317   9.038 -1.2734 -0.5173 -0.8353
    4CHL1   C26  289   3.838   1.178   8.931 -0.2628  0.2011 -0.6273
    4CHL1  H26A  290   3.884   1.077   8.943 -1.7287 -0.1866  2.3994
    4CHL1  H26B  291   3.793   1.185   8.829  0.5669  1.8381 -0.9193
    4CHL1  H26C  292   3.923   1.249   8.928 -0.1621  0.2046  1.2117
    4CHL1   C27  293   3.611   1.130   9.013 -0.0677  0.8395 -0.1946
    4CHL1  H27A  294   3.533   1.127   9.092  0.7082 -1.9456  0.5807
    4CHL1  H27B  295   3.562   1.170   8.921 -1.6913  3.7120  1.7535
    4CHL1  H27C  296   3.642   1.024   9.004  0.6768  1.1269 -1.3235
    5CHL1    C3  297   6.565   4.212  10.283 -0.0948 -0.2614 -0.1242
    5CHL1    H3  298   6.473   4.157  10.255  1.4566 -4.3276  1.9371
    5CHL1    O3  299   6.568   4.215  10.426  0.1419 -0.1906  0.0229
    5CHL1   H3'  300   6.558   4.308  10.448 -0.2523 -0.0541 -0.6978
    5CHL1    C4  301   6.687   4.128  10.243 -1.0502 -0.0674  0.0547
    5CHL1   H4A  302   6.784   4.170  10.279  0.2485 -0.4221 -2.8027
    5CHL1   H4B  303   6.681   4.025  10.286 -0.8353 -0.8423 -1.7068
    5CHL1    C5  304   6.701   4.119  10.088 -1.0976 -0.2112  0.3341
    5CHL1    C6  305   6.709   4.010  10.017 -0.6198  0.0461  0.0616
    5CHL1    H6  306   6.709   3.909  10.061  2.6200  0.6114  1.6212
    5CHL1    C7  307   6.720   3.998   9.865  0.1144  0.3648 -1.0643
    5CHL1   H7A  308   6.804   3.927   9.848 -0.6666 -0.6317 -0.8265
    5CHL1   H7B  309   6.631   3.951   9.820 -1.5183  2.6566 -0.4228
    5CHL1    C8  310   6.757   4.135   9.803 -0.3148  0.8370 -0.2760
    5CHL1    H8  311   6.868   4.146   9.807 -0.2726  0.4302 -0.2334
    5CHL1   C14  312   6.720   4.121   9.658 -0.2355  0.5477  0.4871
    5CHL1   H14  313   6.610   4.111   9.667 -0.6082  3.7132  0.5705
    5CHL1   C15  314   6.771   4.003   9.580 -0.5260  0.7572  0.0716
    5CHL1  H15A  315   6.872   3.963   9.599 -0.0481  1.6743 -0.4384
    5CHL1  H15B  316   6.700   3.917   9.584 -2.5099  2.3508  1.7527
    5CHL1   C16  317   6.755   4.049   9.433  0.2969 -0.0843  0.2414
    5CHL1  H16A  318   6.851   4.055   9.377  0.2173  2.5535  0.2921
    5CHL1  H16B  319   6.685   3.982   9.378  0.3662 -0.6696  0.8487
    5CHL1   C17  320   6.687   4.197   9.440 -0.2442 -0.1904  0.1653
    5CHL1   H17  321   6.578   4.179   9.450 -0.2223 -0.3716  0.0850
    5CHL1   C13  322   6.746   4.251   9.579 -0.1445 -0.0735 -0.3170
    5CHL1   C18  323   6.889   4.282   9.548  0.0183 -0.4501 -0.5206
    5CHL1  H18A  324   6.955   4.289   9.637 -0.7564  0.7797 -0.0037
    5CHL1  H18B  325   6.930   4.211   9.474 -0.0485 -2.8754  1.6127
    5CHL1  H18C  326   6.894   4.383   9.502  1.7808 -0.7716 -1.0945
    5CHL1   C12  327   6.676   4.377   9.643 -0.4384 -0.4180  0.1312
    5CHL1  H12A  328   6.705   4.470   9.589 -0.5433 -0.8910 -0.7611
    5CHL1  H12B  329   6.566   4.360   9.638 -0.4463 -0.1045 -1.1440
    5CHL1   C11  330   6.721   4.388   9.792  0.9106 -0.0868  0.2168
    5CHL1  H11A  331   6.830   4.412   9.790  0.7264  0.6936 -0.7374
    5CHL1  H11B  332   6.678   4.477   9.842 -3.2263 -0.3720 -2.3956
    5CHL1    C9  333   6.699   4.252   9.871  0.0110 -0.6528 -0.5082
    5CHL1    H9  334   6.589   4.241   9.861 -0.2794  0.2793  1.2250
    5CHL1   C10  335   6.708   4.263  10.027 -0.3783  0.0414 -0.0141
    5CHL1   C19  336   6.846   4.329  10.060 -0.9239  0.1423 -0.4163
    5CHL1  H19A  337   6.922   4.297   9.985  0.7729 -0.7748  1.6209
    5CHL1  H19B  338   6.836   4.439  10.048  1.1605  0.4159  0.1323
    5CHL1  H19C  339   6.871   4.295  10.162 -0.8348  0.1193 -0.4461
    5CHL1    C1  340   6.594   4.357  10.078 -0.2316  0.4329 -0.5962
    5CHL1   H1A  341   6.606   4.459  10.036  1.3915  1.1031  1.3369
    5CHL1   H1B  342   6.500   4.315  10.035 -0.9206  0.3839  0.8881
    5CHL1    C2  343   6.587   4.355  10.234 -0.1455  0.2858  0.0100
    5CHL1   H2A  344   6.508   4.430  10.255  0.0733  0.6883 -0.5623
    5CHL1   H2B  345   6.682   4.393  10.277 -0.5499 -2.8717  4.2367
    5CHL1   C20  346   6.693   4.285   9.314 -0.5846  0.2453 -0.5432
    5CHL1   H20  347   6.791   4.334   9.295 -0.3701  0.3194  0.6757
    5CHL1   C21  348   6.586   4.398   9.321  0.3087  0.2308  0.8292
    5CHL1  H21A  349   6.595   4.452   9.418 -0.8631 -0.2884  1.2417
    5CHL1  H21B  350   6.481   4.365   9.311  0.3676  0.0660  0.7505
    5CHL1  H21C  351   6.609   4.473   9.242 -1.5230 -0.0505 -0.0075
    5CHL1   C22  352   6.685   4.190   9.187 -0.1239  0.9147  0.4577
    5CHL1  H22A  353   6.789   4.153   9.178 -0.3330  0.0765  1.3008
    5CHL1  H22B  354   6.629   4.096   9.207  1.7443 -0.8546 -2.1687
    5CHL1   C23  355   6.639   4.257   9.064  0.1191 -0.0979  0.2503
    5CHL1  H23A  356   6.538   4.302   9.077  0.7739  1.6636 -0.5249
    5CHL1  H23B  357   6.712   4.337   9.040  2.4691 -1.0512  3.4680
    5CHL1   C24  358   6.628   4.155   8.947  0.1064 -0.2370  0.0135
    5CHL1  H24A  359   6.621   4.209   8.850 -0.1126 -1.2524 -0.5516
    5CHL1  H24B  360   6.727   4.105   8.952 -1.6674 -4.0497  0.5019
    5CHL1   C25  361   6.519   4.050   8.954  0.5050 -0.7995 -0.3120
    5CHL1   H25  362   6.547   3.991   9.044  0.2303 -1.2489 -0.5206
    5CHL1   C26  363   6.372   4.117   8.971 -0.0654  0.0083  0.2185
    5CHL1  H26A  364   6.354   4.186   8.886  1.1438  0.5219  0.3555
    5CHL1  H26B  365   6.302   4.030   8.966  0.2489 -0.2697  0.5855
    5CHL1  H26C  366   6.370   4.170   9.068  2.0196  1.2649 -0.3506
    5CHL1   C27  367   6.519   3.950   8.843 -0.2089 -0.0259  0.2952
    5CHL1  H27A  368   6.431   3.883   8.833  1.5200 -2.1897 -1.5281
    5CHL1  H27B  369   6.519   3.993   8.741  0.1251 -0.2732  0.1917
    5CHL1  H27C  370   6.608   3.885   8.852 -1.6222 -1.9660  0.8133
    6CHL1    C3  371   3.174   1.853  10.386  0.1979 -0.1212 -0.4155
    6CHL1    H3  372   3.260   1.902  10.336  1.9772 -2.0461  0.5844
    6CHL1    O3  373   3.172   1.884  10.525  0.2006  0.4439  0.0671
    6CHL1   H3'  374   3.085   1.861  10.559  0.0379  0.3531 -0.3943
    6CHL1    C4  375   3.043   1.892  10.317 -0.3036 -0.4661 -0.2418
    6CHL1   H4A  376   2.956   1.859  10.377 -1.2857  1.3684 -0.5909
    6CHL1   H4B  377   3.035   2.003  10.312  0.9413 -0.3714 -0.6723
    6CHL1    C5  378   3.030   1.837  10.176 -0.0190  0.0561  0.4049
    6CHL1    C6  379   3.021   1.918  10.066  0.6407 -0.0294 -0.4646
    6CHL1    H6  380   3.010   2.026  10.082  0.1110 -0.1182 -0.2077
    6CHL1    C7  381   3.023   1.884   9.922  0.2903 -0.0150 -0.5101
    6CHL1   H7A  382   2.965   1.955   9.859  0.2527 -0.5508 -1.0949
    6CHL1   H7B  383   3.125   1.902   9.883  0.1040  0.3762 -0.8259
    6CHL1    C8  384   3.002   1.734   9.898  0.5442 -0.7929  0.8190
    6CHL1    H8  385   2.893   1.716   9.905  0.0309  2.0067  1.3467
    6CHL1   C14  386   3.048   1.692   9.753 -0.6360 -0.3991 -0.5498
    6CHL1   H14  387   3.158   1.695   9.771 -0.7707 -0.4552  0.3239
    6CHL1   C15  388   3.015   1.792   9.640  0.1192 -0.0523 -0.2509
    6CHL1  H15A  389   2.913   1.835   9.646 -0.4026 -1.2246 -0.5422
    6CHL1  H15B  390   3.092   1.873   9.646  1.2300 -1.0015 -1.1350
    6CHL1   C16  391   3.028   1.703   9.516  0.5435  0.1021 -0.3865
    6CHL1  H16A  392   2.929   1.688   9.468  0.8882 -0.7554 -0.8521
    6CHL1  H16B  393   3.091   1.752   9.439  0.0049  1.7935  0.2247
    6CHL1   C17  394   3.065   1.561   9.562  0.3007  0.2152  0.3956
    6CHL1   H17  395   3.175   1.573   9.565  0.0326  3.5699  0.0615
    6CHL1   C13  396   3.019   1.551   9.707 -0.3456 -0.4076 -0.3823
    6CHL1   C18  397   2.865   1.525   9.719 -0.9562  0.7614  0.1930
    6CHL1  H18A  398   2.843   1.511   9.827  0.1281 -1.6926  0.1637
    6CHL1  H18B  399   2.809   1.613   9.680 -2.1855 -0.1856 -0.2418
    6CHL1  H18C  400   2.826   1.436   9.665 -0.7996 -0.2262  1.6730
    6CHL1   C12  401   3.104   1.460   9.808  0.1270 -0.3853 -0.7105
    6CHL1  H12A  402   3.075   1.353   9.797  1.9732 -1.2713  2.0917
    6CHL1  H12B  403   3.215   1.467   9.798  0.4738  0.2109  2.5820
    6CHL1   C11  404   3.078   1.496   9.961 -0.7602 -0.7501  0.3770
    6CHL1  H11A  405   2.986   1.441   9.990 -0.6758 -0.9916  0.1866
    6CHL1  H11B  406   3.159   1.446  10.019 -0.9911 -2.4024 -0.6627
    6CHL1    C9  407   3.083   1.647  10.005 -0.1899  0.6086  0.0126
    6CHL1    H9  408   3.187   1.685   9.997 -0.0883  0.5849  1.1735
    6CHL1   C10  409   3.050   1.688  10.152 -0.2674  0.4878 -0.0433
    6CHL1   C19  410   2.928   1.620  10.210 -0.3777  0.7731 -0.2085
    6CHL1  H19A  411   2.943   1.512  10.229 -4.1342  0.1354  0.0049
    6CHL1  H19B  412   2.882   1.664  10.301 -1.1695  3.4688 -1.7772
    6CHL1  H19C  413   2.847   1.622  10.134 -0.7647 -2.0272  0.0341
    6CHL1    C1  414   3.173   1.646  10.238 -0.2155 -0.3034 -0.0492
    6CHL1   H1A  415   3.187   1.535  10.239  1.4046 -0.1387  1.6322
    6CHL1   H1B  416   3.265   1.683  10.188 -0.1319 -1.5928 -0.9018
    6CHL1    C2  417   3.194   1.707  10.386  0.7186 -0.2613 -0.0616
    6CHL1   H2A  418   3.288   1.678  10.437  1.5992 -0.6172 -1.8009
    6CHL1   H2B  419   3.107   1.658  10.434  0.6571 -0.6885 -0.6023
    6CHL1   C20  420   3.022   1.450   9.468 -0.3927 -0.0026 -0.4144
    6CHL1   H20  421   2.914   1.429   9.458 -0.1956 -0.3131 -2.1337
    6CHL1   C21  422   3.072   1.312   9.511 -0.2911  0.1339 -0.4630
    6CHL1  H21A  423   3.031   1.293   9.613  0.4368  0.2364 -0.1427
    6CHL1  H21B  424   3.182   1.311   9.524 -0.1411 -1.2913 -1.6037
    6CHL1  H21C  425   3.044   1.231   9.441 -1.9711 -0.5437  0.8873
    6CHL1   C22  426   3.048   1.474   9.317 -0.4479  0.8749  0.7821
    6CHL1  H22A  427   3.021   1.581   9.300  1.4000  1.3924  0.8823
    6CHL1  H22B  428   3.153   1.450   9.290 -0.7736 -0.4539  0.6271
    6CHL1   C23  429   2.955   1.386   9.225 -0.1413 -0.1554  0.1584
    6CHL1  H23A  430   2.978   1.279   9.247 -0.0905 -0.4187 -1.0657
    6CHL1  H23B  431   2.849   1.417   9.233 -0.2510 -0.3378 -0.5201
    6CHL1   C24  432   2.988   1.411   9.074 -0.4285 -0.1431 -0.0326
    6CHL1  H24A  433   2.953   1.510   9.038 -1.0822 -0.3797 -0.0640
    6CHL1  H24B  434   3.097   1.392   9.062 -0.8904 -2.0302 -1.8550
    6CHL1   C25  435   2.923   1.309   8.976 -0.1994 -0.0890 -0.6802
    6CHL1   H25  436   2.953   1.204   8.996  0.5342  0.1325 -0.5918
    6CHL1   C26  437   2.775   1.312   8.969 -0.5236  0.4176 -0.6454
    6CHL1  H26A  438   2.728   1.274   9.062 -0.0800 -0.4578 -0.7657
    6CHL1  H26B  439   2.739   1.417   8.961  1.3012  1.0825 -0.6392
    6CHL1  H26C  440   2.743   1.245   8.886  0.0694 -0.4993 -0.1490
    6CHL1   C27  441   2.967   1.343   8.834  0.1806  0.4603  0.0073
    6CHL1  H27A  442   2.931   1.268   8.760  0.9993 -0.0013  0.0595
    6CHL1  H27B  443   2.928   1.444   8.812  1.2659  0.8074 -0.3868
    6CHL1  H27C  444   3.076   1.360   8.826  0.0174  0.6218 -2.2477
    7CHL1    C3  445   4.886   6.247  10.483  0.0418  0.5033  0.3509
    7CHL1    H3  446   4.800   6.314  10.461 -1.8074 -0.5591  3.5242
    7CHL1    O3  447   4.888   6.261  10.625  0.7759  0.0149 -0.2878
    7CHL1   H3'  448   4.964   6.213  10.657  0.1391 -0.1667  1.0072
    7CHL1    C4  449   4.854   6.101  10.440  0.2586  0.6186  0.3921
    7CHL1   H4A  450   4.910   6.018  10.488 -1.7528 -2.2066 -1.7967
    7CHL1   H4B  451   4.751   6.077  10.474  0.1535  1.7166  0.9150
    7CHL1    C5  452   4.847   6.085  10.284  0.8039  0.2282 -0.5320
    7CHL1    C6  453   4.739   6.029  10.229 -0.9107  0.0203  0.2404
    7CHL1    H6  454   4.661   5.980  10.289  0.1545  0.0857  1.7108
    7CHL1    C7  455   4.724   6.015  10.083 -0.2473  0.0103  0.4006
    7CHL1   H7A  456   4.690   5.910  10.071  2.4362 -1.1924  2.2327
    7CHL1   H7B  457   4.655   6.090  10.039  1.2321 -1.2238 -4.7490
    7CHL1    C8  458   4.855   6.042  10.007  0.0213 -0.5502  0.4392
    7CHL1    H8  459   4.920   5.952  10.010  2.5859  1.0789 -1.5565
    7CHL1   C14  460   4.827   6.072   9.862 -0.3063 -0.5461 -0.3050
    7CHL1   H14  461   4.772   6.169   9.865 -0.6915 -0.7875  1.0775
    7CHL1   C15  462   4.735   5.975   9.780 -0.3094 -0.2186 -0.4993
    7CHL1  H15A  463   4.768   5.869   9.772 -2.3004 -0.9642  0.3347
    7CHL1  H15B  464   4.630   5.994   9.810 -0.8133  0.9065 -2.7830
    7CHL1   C16  465   4.754   6.029   9.640  0.2296 -0.2149 -0.1715
    7CHL1  H16A  466   4.787   5.941   9.580  0.9092  0.4501 -0.7943
    7CHL1  H16B  467   4.673   6.071   9.576 -0.1173  0.2315  0.5540
    7CHL1   C17  468   4.875   6.121   9.643 -0.0790  0.9494  0.0275
    7CHL1   H17  469   4.834   6.224   9.651  0.6227  1.2687 -0.4089
    7CHL1   C13  470   4.951   6.102   9.774 -0.3223 -0.2278  0.0858
    7CHL1   C18  471   5.048   5.981   9.766 -0.7957 -0.9318 -0.1455
    7CHL1  H18A  472   5.132   5.992   9.694 -1.2844 -0.2122 -0.6151
    7CHL1  H18B  473   5.095   5.965   9.865  1.5803 -0.7515 -1.1632
    7CHL1  H18C  474   5.001   5.885   9.736  0.2394 -0.9868 -1.7784
    7CHL1   C12  475   5.018   6.227   9.836 -0.6374 -0.8957  0.3441
    7CHL1  H12A  476   5.116   6.247   9.788 -0.2723 -1.4127  0.8504
    7CHL1  H12B  477   4.943   6.309   9.832  1.3293  0.9379 -2.7267
    7CHL1   C11  478   5.048   6.205   9.980  0.2147  0.2509 -0.6142
    7CHL1  H11A  479   5.132   6.135  10.002 -0.8012 -0.4824  1.1023
    7CHL1  H11B  480   5.083   6.299  10.029  2.9588 -1.0452  0.1557
    7CHL1    C9  481   4.929   6.164  10.067  0.6098  0.0156  0.3378
    7CHL1    H9  482   4.856   6.248  10.071  1.1505  0.4664  3.5949
    7CHL1   C10  483   4.966   6.152  10.214 -0.2376 -0.1568  0.3561
    7CHL1   C19  484   5.079   6.043  10.239  0.1225  0.0605 -0.1685
    7CHL1  H19A  485   5.178   6.083  10.208 -1.3036  0.6027 -4.6267
    7CHL1  H19B  486   5.096   6.004  10.342 -2.7361 -0.1889  0.3049
    7CHL1  H19C  487   5.067   5.953  10.174 -1.6984  0.5415 -0.5601
    7CHL1    C1  488   5.001   6.293  10.273 -0.3777 -0.3845 -0.0012
    7CHL1   H1A  489   5.099   6.321  10.230  0.0402 -2.2291 -0.3726
    7CHL1   H1B  490   4.915   6.357  10.242 -0.5711  1.3711  3.6349
    7CHL1    C2  491   5.019   6.289  10.425  0.0498  0.2243 -0.6779
    7CHL1   H2A  492   5.043   6.390  10.464  0.8533 -0.2416  0.0568
    7CHL1   H2B  493   5.104   6.222  10.446 -0.9694 -0.9330 -0.1135
    7CHL1   C20  494   4.952   6.111   9.509  0.2450  0.0498  0.5597
    7CHL1   H20  495   4.993   6.010   9.491  0.1318  0.0120  0.5172
    7CHL1   C21  496   5.076   6.207   9.505 -0.4568  0.4201  0.0264
    7CHL1  H21A  497   5.143   6.197   9.417 -2.7137  1.3923 -1.9133
    7CHL1  H21B  498   5.145   6.193   9.591 -1.2232  1.2626  0.8056
    7CHL1  H21C  499   5.050   6.314   9.521 -1.3698  0.3756 -1.0457
    7CHL1   C22  500   4.849   6.150   9.393  0.4013 -0.0252 -0.4007
    7CHL1  H22A  501   4.771   6.071   9.379  0.3152 -0.1126  0.5035
    7CHL1  H22B  502   4.787   6.238   9.419  2.1924  1.7020 -1.7664
    7CHL1   C23  503   4.905   6.176   9.252  0.1277 -0.4441  0.0742
    7CHL1  H23A  504   4.829   6.211   9.179  3.2993  3.3829 -1.8257
    7CHL1  H23B  505   4.984   6.254   9.245 -0.5105  0.1514 -0.8410
    7CHL1   C24  506   4.957   6.045   9.192  0.4293  0.0975  0.3730
    7CHL1  H24A  507   5.021   5.996   9.269  0.6226 -1.5748 -0.8043
    7CHL1  H24B  508   4.863   5.986   9.185 -0.2223  0.9316  1.5124
    7CHL1   C25  509   5.028   6.063   9.056 -0.9621  0.2744  0.8162
    7CHL1   H25  510   5.120   6.120   9.081  0.2764 -1.2973  0.0541
    7CHL1   C26  511   5.070   5.926   9.010 -0.5190 -0.0369 -0.0917
    7CHL1  H26A  512   4.976   5.867   9.006 -0.3499 -0.4962  1.7077
    7CHL1  H26B  513   5.128   5.921   8.915  0.9215  1.4131  0.6606
    7CHL1  H26C  514   5.134   5.887   9.093 -0.3276  0.4523 -0.0073
    7CHL1   C27  515   4.954   6.144   8.960  0.3160  0.2953 -1.1601
    7CHL1  H27A  516   5.010   6.167   8.867 -0.2502  3.4102 -0.8505
    7CHL1  H27B  517   4.856   6.101   8.932 -0.2650  0.7655  0.0668
    7CHL1  H27C  518   4.920   6.237   9.011  0.4380 -0.7801  0.9868
    8CHL1    C3  519   4.845   5.676  10.480  0.3201 -0.3887  0.4077
    8CHL1    H3  520   4.804   5.778  10.467 -4.2447 -1.6897  2.6018
    8CHL1    O3  521   4.807   5.644  10.622 -0.1342 -0.6429 -0.3952
    8CHL1   H3'  522   4.888   5.656  10.673 -0.3095 -1.3219  0.0608
    8CHL1    C4  523   4.750   5.588  10.395 -0.5434  0.1597 -0.3141
    8CHL1   H4A  524   4.760   5.480  10.420 -0.5385  0.2349  0.0151
    8CHL1   H4B  525   4.647   5.629  10.407 -1.0459 -1.4071  0.9905
    8CHL1    C5  526   4.791   5.608  10.249  0.0737 -0.3206  0.1602
    8CHL1    C6  527   4.705   5.638  10.153 -0.3719  0.4989 -0.3353
    8CHL1    H6  528   4.600   5.647  10.184 -1.5561 -1.1083 -3.3903
    8CHL1    C7  529   4.741   5.643  10.009 -0.0936  0.0199 -0.1641
    8CHL1   H7A  530   4.667   5.592   9.943  0.1519  0.4538 -0.7766
    8CHL1   H7B  531   4.752   5.745   9.968 -0.0297  0.8134  1.7273
    8CHL1    C8  532   4.862   5.554   9.980 -0.8282  0.2915  0.8739
    8CHL1    H8  533   4.834   5.449  10.003 -1.5018  0.3338  0.2888
    8CHL1   C14  534   4.909   5.575   9.836 -0.4462  0.3797 -1.0429
    8CHL1   H14  535   4.929   5.682   9.816 -1.7170  1.0306  0.9396
    8CHL1   C15  536   4.791   5.552   9.734 -0.5033  0.1356 -0.8038
    8CHL1  H15A  537   4.739   5.457   9.758  1.8368 -1.5594 -2.0765
    8CHL1  H15B  538   4.721   5.638   9.729 -2.0495 -1.0461 -0.3980
    8CHL1   C16  539   4.873   5.512   9.606  0.5374 -0.4145 -0.2426
    8CHL1  H16A  540   4.860   5.405   9.580  0.2724 -0.1389 -1.2842
    8CHL1  H16B  541   4.847   5.565   9.512  0.3304 -2.4190 -1.3847
    8CHL1   C17  542   5.027   5.536   9.637 -0.3973  0.3658 -0.6281
    8CHL1   H17  543   5.055   5.643   9.632  0.7084  0.2386  1.6788
    8CHL1   C13  544   5.036   5.501   9.788  0.1193 -0.2576  0.1849
    8CHL1   C18  545   5.014   5.351   9.801  0.4877 -0.0616  0.1744
    8CHL1  H18A  546   4.938   5.296   9.741  0.7519  1.4375 -1.6027
    8CHL1  H18B  547   5.107   5.300   9.768 -0.1781 -0.8021 -0.6162
    8CHL1  H18C  548   5.007   5.318   9.907  0.1635 -0.4691  0.0324
    8CHL1   C12  549   5.160   5.544   9.870 -0.0006  0.2030 -0.2388
    8CHL1  H12A  550   5.239   5.466   9.861 -1.2560 -1.4952  2.4026
    8CHL1  H12B  551   5.201   5.647   9.860  1.2648  0.1057  2.8761
    8CHL1   C11  552   5.122   5.541  10.027 -0.2615  0.2928 -0.1605
    8CHL1  H11A  553   5.136   5.436  10.061  4.6728  0.6838 -0.2531
    8CHL1  H11B  554   5.204   5.598  10.075 -0.1746  1.9311 -2.1554
    8CHL1    C9  555   4.986   5.599  10.066 -0.2934 -0.0835 -0.2611
    8CHL1    H9  556   4.996   5.709  10.051 -2.3476  0.0514 -0.9227
    8CHL1   C10  557   4.943   5.582  10.211  0.1146 -0.1618  0.0876
    8CHL1   C19  558   4.981   5.432  10.255  0.1316  0.2031 -0.6309
    8CHL1  H19A  559   4.944   5.411  10.357  0.1174  0.9770 -0.4715
    8CHL1  H19B  560   4.925   5.365  10.186  0.4861  0.8522 -1.5794
    8CHL1  H19C  561   5.090   5.412  10.250  0.4841 -0.0209  3.8104
    8CHL1    C1  562   5.023   5.682  10.292  0.1067  0.3809 -0.1754
    8CHL1   H1A  563   5.130   5.675  10.262 -0.1413 -2.7042 -0.7439
    8CHL1   H1B  564   4.989   5.782  10.258 -0.9433 -0.3158 -1.2508
    8CHL1    C2  565   4.999   5.671  10.450  1.0310  0.1475  0.9456
    8CHL1   H2A  566   5.046   5.754  10.507  2.0464  1.3208 -1.4846
    8CHL1   H2B  567   5.021   5.571  10.494  0.5546 -0.5026 -0.2617
    8CHL1   C20  568   5.135   5.469   9.552  0.1253 -0.0856  0.2430
    8CHL1   H20  569   5.134   5.360   9.571 -0.0746 -0.4212 -1.5144
    8CHL1   C21  570   5.276   5.530   9.570 -0.0275 -0.4565 -0.0038
    8CHL1  H21A  571   5.343   5.492   9.491  0.2160  0.8211 -0.4307
    8CHL1  H21B  572   5.314   5.512   9.673  2.7719 -1.7065 -1.1504
    8CHL1  H21C  573   5.279   5.641   9.557  0.4360 -0.5082 -0.3456
    8CHL1   C22  574   5.086   5.465   9.403  0.4051 -0.3538  0.6032
    8CHL1  H22A  575   5.162   5.412   9.342  0.2344 -1.0242  0.9699
    8CHL1  H22B  576   4.990   5.410   9.394 -0.4409  1.1617 -0.0948
    8CHL1   C23  577   5.066   5.600   9.339 -0.0477 -0.4145 -0.0469
    8CHL1  H23A  578   4.998   5.659   9.404 -1.7537  1.4096 -3.2097
    8CHL1  H23B  579   5.165   5.649   9.341 -0.1887  0.2044 -3.0429
    8CHL1   C24  580   5.018   5.603   9.193 -0.1825  0.6876  0.2838
    8CHL1  H24A  581   5.002   5.708   9.160  1.9389  0.5095 -1.5637
    8CHL1  H24B  582   5.104   5.556   9.140 -2.2895 -2.7602 -0.4394
    8CHL1   C25  583   4.878   5.536   9.166 -0.1708 -0.1101  0.1208
    8CHL1   H25  584   4.881   5.433   9.208  0.4909 -0.2781 -0.3246
    8CHL1   C26  585   4.769   5.624   9.237  0.2293  0.5111 -0.0400
    8CHL1  H26A  586   4.791   5.644   9.344 -1.8759  0.2522  0.4864
    8CHL1  H26B  587   4.762   5.725   9.190  0.8992  1.0016  0.8607
    8CHL1  H26C  588   4.675   5.565   9.232  1.0631 -0.7949 -1.0513
    8CHL1   C27  589   4.843   5.528   9.012 -1.3640  0.4022  0.1167
    8CHL1  H27A  590   4.804   5.623   8.970 -1.8051  0.5412  0.8253
    8CHL1  H27B  591   4.931   5.504   8.949  0.0941 -0.6387  2.4037
    8CHL1  H27C  592   4.755   5.464   8.991 -0.3662 -0.3994 -1.8204
    9CHL1    C3  593   2.335   1.448  10.420 -0.3258  0.5128 -0.2672
    9CHL1    H3  594   2.298   1.549  10.391 -0.7863  0.4854  0.2209
    9CHL1    O3  595   2.338   1.444  10.557  0.2278 -0.2058 -0.2260
    9CHL1   H3'  596   2.403   1.512  10.576  1.7019 -1.5299 -0.4031
    9CHL1    C4  597   2.241   1.339  10.371 -0.1047 -0.3964 -0.1100
    9CHL1   H4A  598   2.273   1.239  10.406 -0.7711 -0.3872  0.5455
    9CHL1   H4B  599   2.139   1.361  10.408 -0.4648  0.6582 -1.6079
    9CHL1    C5  600   2.227   1.344  10.214 -0.2737 -0.1560 -0.5233
    9CHL1    C6  601   2.103   1.370  10.159 -0.5454  0.3235 -0.1055
    9CHL1    H6  602   2.009   1.373  10.218 -0.6093  1.8659 -0.2261
    9CHL1    C7  603   2.071   1.385  10.013 -0.5527  0.8327 -0.2242
    9CHL1   H7A  604   1.988   1.323   9.973  0.4889 -0.6193 -0.1876
    9CHL1   H7B  605   2.033   1.489  10.003 -0.8785  0.8809  1.2620
    9CHL1    C8  606   2.202   1.354   9.927  0.0212 -0.6457 -0.2807
    9CHL1    H8  607   2.208   1.245   9.911 -0.0932 -0.4984 -1.4280
    9CHL1   C14  608   2.183   1.410   9.785 -0.0165  0.5143  0.0581
    9CHL1   H14  609   2.166   1.520   9.790 -2.6841  0.2823 -1.7750
    9CHL1   C15  610   2.058   1.360   9.714  0.4695 -0.0843 -1.0831
    9CHL1  H15A  611   2.029   1.255   9.732 -0.3191  0.4656  1.3381
    9CHL1  H15B  612   1.968   1.415   9.751 -0.2676 -1.5267 -0.6743
    9CHL1   C16  613   2.084   1.395   9.567 -0.2432 -0.4903  0.1546
    9CHL1  H16A  614   2.059   1.312   9.497 -1.1302 -1.2847  1.3777
    9CHL1  H16B  615   2.029   1.488   9.541  1.6689 -0.1194 -3.1457
    9CHL1   C17  616   2.240   1.442   9.563 -0.4078 -0.4312  0.6635
    9CHL1   H17  617   2.244   1.553   9.562 -1.6222 -0.3750 -0.2133
    9CHL1   C13  618   2.299   1.389   9.695 -0.0419 -0.2602  0.1784
    9CHL1   C18  619   2.324   1.240   9.676  0.8796  0.2210  0.0523
    9CHL1  H18A  620   2.342   1.193   9.775 -0.9885 -0.3374  0.1680
    9CHL1  H18B  621   2.247   1.180   9.624  1.4665 -0.6637  0.1829
    9CHL1  H18C  622   2.423   1.225   9.629  0.9258  0.7561 -0.0355
    9CHL1   C12  623   2.429   1.454   9.758  0.5849 -0.7657  0.1397
    9CHL1  H12A  624   2.522   1.433   9.701 -0.2262 -1.4459 -0.9793
    9CHL1  H12B  625   2.407   1.563   9.762  1.7662 -0.5032 -0.2299
    9CHL1   C11  626   2.451   1.395   9.896  0.4118  0.5045  0.4142
    9CHL1  H11A  627   2.485   1.293   9.869  2.1350  1.0243  0.4681
    9CHL1  H11B  628   2.541   1.439   9.944  0.7585  1.2255 -0.8552
    9CHL1    C9  629   2.329   1.408   9.992 -0.5048  0.1527  0.2312
    9CHL1    H9  630   2.321   1.518  10.003 -0.2761 -0.0628  3.2888
    9CHL1   C10  631   2.353   1.347  10.135  0.0017 -0.1466 -0.1278
    9CHL1   C19  632   2.415   1.198  10.127 -0.3344 -0.5090  0.6887
    9CHL1  H19A  633   2.485   1.188  10.042 -1.2895 -0.3687 -0.1287
    9CHL1  H19B  634   2.467   1.159  10.217  1.1783  0.6064  0.3385
    9CHL1  H19C  635   2.327   1.134  10.105 -2.9438  2.2803  2.1455
    9CHL1    C1  636   2.460   1.443  10.198  0.3750  0.2224 -0.4883
    9CHL1   H1A  637   2.563   1.428  10.159  0.0843  0.0092 -1.1738
    9CHL1   H1B  638   2.429   1.545  10.170 -2.1426 -0.6434 -1.0816
    9CHL1    C2  639   2.469   1.437  10.354  0.0843  0.0506  1.0256
    9CHL1   H2A  640   2.543   1.512  10.389  0.9183 -0.5627  0.6000
    9CHL1   H2B  641   2.507   1.340  10.391  0.0031  0.4683  2.2202
    9CHL1   C20  642   2.308   1.408   9.430  0.3519  0.4137 -0.3015
    9CHL1   H20  643   2.310   1.299   9.410 -2.6174  0.3080 -0.3829
    9CHL1   C21  644   2.462   1.443   9.449  1.4095 -0.0561 -0.5564
    9CHL1  H21A  645   2.507   1.440   9.348  1.0096 -1.9355 -0.7092
    9CHL1  H21B  646   2.510   1.361   9.506  0.9334 -0.1388 -0.2657
    9CHL1  H21C  647   2.482   1.541   9.499 -0.4718 -0.0495  0.2964
    9CHL1   C22  648   2.258   1.476   9.300 -1.0340  0.0320 -0.4511
    9CHL1  H22A  649   2.147   1.468   9.301 -1.0619 -1.0344  3.1726
    9CHL1  H22B  650   2.296   1.579   9.311 -0.4346 -0.1864 -0.4621
    9CHL1   C23  651   2.299   1.411   9.164 -0.1238 -0.0714 -0.0600
    9CHL1  H23A  652   2.381   1.343   9.197 -1.2961 -2.6325 -2.0522
    9CHL1  H23B  653   2.219   1.353   9.113 -0.0593  0.1737 -0.4494
    9CHL1   C24  654   2.341   1.512   9.047 -0.4478 -0.0232 -0.5782
    9CHL1  H24A  655   2.259   1.579   9.013  0.1364  1.2845  0.5197
    9CHL1  H24B  656   2.417   1.577   9.094  1.2436 -1.4893 -1.1982
    9CHL1   C25  657   2.405   1.447   8.926 -0.1341 -0.3917 -0.1034
    9CHL1   H25  658   2.482   1.385   8.975 -2.0863 -2.4374  0.5572
    9CHL1   C26  659   2.300   1.374   8.835 -0.0604  0.2406 -0.3807
    9CHL1  H26A  660   2.352   1.341   8.742  0.6003 -0.8910  0.3717
    9CHL1  H26B  661   2.258   1.283   8.882  0.3194 -1.2098 -2.7069
    9CHL1  H26C  662   2.213   1.435   8.801 -0.8029 -0.6966 -0.1844
    9CHL1   C27  663   2.485   1.550   8.849 -0.3756 -0.8553 -0.0955
    9CHL1  H27A  664   2.422   1.636   8.819  0.1652  0.7727  2.9918
    9CHL1  H27B  665   2.566   1.595   8.912 -1.0822  2.1354 -1.1464
    9CHL1  H27C  666   2.534   1.509   8.758 -0.5673  0.3195 -0.7598
   10CHL1    C3  667   1.722   5.106  10.214 -0.2612  0.3601  0.2244
   10CHL1    H3  668   1.630   5.045  10.216  1.0095 -1.6477  2.4197
   10CHL1    O3  669   1.772   5.104  10.347  0.3889  0.1331 -0.3779
   10CHL1   H3'  670   1.701   5.145  10.398  1.4882  1.5356  0.0821
   10CHL1    C4  671   1.826   5.045  10.119  0.5916  0.2967 -0.8446
   10CHL1   H4A  672   1.929   5.084  10.127  1.8248 -2.7027 -0.5658
   10CHL1   H4B  673   1.845   4.947  10.169 -0.8263  1.7351  2.8734
   10CHL1    C5  674   1.776   5.037   9.977  1.2939  0.7850 -0.2339
   10CHL1    C6  675   1.758   4.916   9.913 -0.4895  0.1461  0.6605
   10CHL1    H6  676   1.775   4.818   9.959 -3.1963 -0.8688 -0.2451
   10CHL1    C7  677   1.709   4.918   9.774 -0.6263 -0.0435  0.9293
   10CHL1   H7A  678   1.760   4.841   9.712 -0.6307 -0.1284  1.0307
   10CHL1   H7B  679   1.602   4.887   9.774 -0.4178 -0.8020  0.3912
   10CHL1    C8  680   1.702   5.052   9.705 -0.0545  0.5012  0.0257
   10CHL1    H8  681   1.807   5.082   9.682  1.4968 -2.1973  2.7864
   10CHL1   C14  682   1.616   5.039   9.573 -0.1754 -0.2426  0.3639
   10CHL1   H14  683   1.514   5.019   9.610  0.2935  0.5965  2.2382
   10CHL1   C15  684   1.639   4.926   9.467  0.6603 -0.3844 -0.6208
   10CHL1  H15A  685   1.744   4.910   9.438  0.3814 -1.3932 -1.1114
   10CHL1  H15B  686   1.604   4.827   9.503 -3.7639  1.4556  0.8797
   10CHL1   C16  687   1.573   4.975   9.338 -0.2423  0.3140 -0.0981
   10CHL1  H16A  688   1.652   4.984   9.260  0.7735 -0.5608  0.7976
   10CHL1  H16B  689   1.495   4.910   9.296 -0.9793  0.6070  0.7776
   10CHL1   C17  690   1.520   5.119   9.366 -0.6483  0.2784 -0.3193
   10CHL1   H17  691   1.423   5.095   9.415 -0.9319  2.9686  0.6067
   10CHL1   C13  692   1.610   5.162   9.485  0.7118 -0.1199  0.0156
   10CHL1   C18  693   1.750   5.210   9.437 -0.3141 -0.5196 -0.0413
   10CHL1  H18A  694   1.742   5.299   9.371  2.2393  1.1007  1.6544
   10CHL1  H18B  695   1.820   5.226   9.522  2.5842 -1.5536 -2.1148
   10CHL1  H18C  696   1.800   5.128   9.383  0.3916  0.6313 -1.1803
   10CHL1   C12  697   1.542   5.269   9.581  0.3726 -0.0732  1.0662
   10CHL1  H12A  698   1.522   5.363   9.526  0.9332 -0.7188 -0.2761
   10CHL1  H12B  699   1.446   5.228   9.619  0.7525 -0.5368  1.5599
   10CHL1   C11  700   1.622   5.291   9.709  0.5175 -0.3688 -0.8936
   10CHL1  H11A  701   1.718   5.339   9.680 -0.6850  2.7459 -0.1191
   10CHL1  H11B  702   1.565   5.360   9.774  2.3278 -1.1834  1.7376
   10CHL1    C9  703   1.650   5.158   9.791  0.3581  0.1314 -0.3225
   10CHL1    H9  704   1.550   5.128   9.830  0.5118  1.8815  1.5400
   10CHL1   C10  705   1.736   5.182   9.921 -0.1391  0.0941 -0.5290
   10CHL1   C19  706   1.863   5.263   9.894  0.3384 -0.5839 -0.3208
   10CHL1  H19A  707   1.920   5.282   9.987 -0.2827  3.0389 -0.5436
   10CHL1  H19B  708   1.923   5.198   9.827 -1.5224 -1.3415 -1.3237
   10CHL1  H19C  709   1.848   5.360   9.842  0.7597  0.8514  2.0396
   10CHL1    C1  710   1.646   5.262  10.024  0.0939 -0.3571 -0.1572
   10CHL1   H1A  711   1.658   5.370   9.999  0.4485 -0.1288  0.9387
   10CHL1   H1B  712   1.539   5.233  10.015 -0.0440  0.5129 -1.9147
   10CHL1    C2  713   1.698   5.248  10.165  0.3583  0.6261 -0.1996
   10CHL1   H2A  714   1.620   5.290  10.231 -1.6182 -0.5879 -1.6644
   10CHL1   H2B  715   1.793   5.306  10.165 -0.2163  1.7332  2.7835
   10CHL1   C20  716   1.503   5.213   9.244 -0.0147  0.0662  0.8939
   10CHL1   H20  717   1.605   5.240   9.208  0.2451 -1.2197  0.6229
   10CHL1   C21  718   1.418   5.334   9.287 -0.2495  0.1329  0.2125
   10CHL1  H21A  719   1.486   5.413   9.325 -2.0527  1.0718  1.6527
   10CHL1  H21B  720   1.346   5.306   9.366  0.7388 -2.6400  0.2369
   10CHL1  H21C  721   1.358   5.370   9.200 -1.8601  0.4330  1.3912
   10CHL1   C22  722   1.436   5.136   9.127  0.7444 -0.1607  1.1361
   10CHL1  H22A  723   1.499   5.046   9.107 -0.9757 -1.1950  0.1801
   10CHL1  H22B  724   1.332   5.106   9.154 -0.6077  1.2351 -2.0937
   10CHL1   C23  725   1.416   5.214   8.993  0.2972  0.4142 -0.3179
   10CHL1  H23A  726   1.338   5.290   9.016  1.2728  1.0614  1.0340
   10CHL1  H23B  727   1.518   5.250   8.967  1.7863 -0.8383  3.1252
   10CHL1   C24  728   1.373   5.112   8.881 -0.3464  0.0524  0.2613
   10CHL1  H24A  729   1.451   5.033   8.882 -0.9360 -0.5746  2.6792
   10CHL1  H24B  730   1.283   5.061   8.922  0.5566  0.8479  3.5302
   10CHL1   C25  731   1.361   5.168   8.740 -0.0716 -0.5021  0.0316
   10CHL1   H25  732   1.284   5.248   8.748 -0.5891 -0.7585 -1.7740
   10CHL1   C26  733   1.483   5.241   8.684  0.0114  0.0041  0.2672
   10CHL1  H26A  734   1.573   5.177   8.699  0.5620  0.3433 -1.3797
   10CHL1  H26B  735   1.478   5.259   8.575  0.0915  2.2834  0.5907
   10CHL1  H26C  736   1.505   5.338   8.733  2.5575 -0.5284  0.3030
   10CHL1   C27  737   1.316   5.076   8.633 -0.2289  0.1191 -0.7164
   10CHL1  H27A  738   1.216   5.035   8.657 -0.0879  0.3660  0.3352
   10CHL1  H27B  739   1.330   5.110   8.528  0.3100  1.3751 -0.2611
   10CHL1  H27C  740   1.385   4.989   8.643 -0.1680  0.4374  2.8785
   11CHL1    C3  741   4.588   3.351  10.391  0.2441  0.5343  0.2951
   11CHL1    H3  742   4.511   3.274  10.369  0.9447  0.0186 -0.4197
   11CHL1    O3  743   4.614   3.367  10.529  0.4298  0.1094  0.0449
   11CHL1   H3'  744   4.669   3.445  10.536 -2.0675  2.1612 -1.4764
   11CHL1    C4  745   4.718   3.321  10.321 -0.1200  0.6892  0.1590
   11CHL1   H4A  746   4.797   3.394  10.347  0.1247  0.4653  0.0572
   11CHL1   H4B  747   4.755   3.222  10.355 -0.2431  0.0549 -1.4322
   11CHL1    C5  748   4.708   3.312  10.168 -0.2344  0.2104 -0.2654
   11CHL1    C6  749   4.744   3.204  10.096  1.1412 -0.7749 -0.0751
   11CHL1    H6  750   4.777   3.116  10.154  0.4194 -1.3364 -0.4966
   11CHL1    C7  751   4.738   3.196   9.945  0.4903 -0.1435 -0.0588
   11CHL1   H7A  752   4.824   3.155   9.887 -0.8690  0.9166 -3.0161
   11CHL1   H7B  753   4.649   3.141   9.909 -0.7682  1.3103  0.6854
   11CHL1    C8  754   4.719   3.338   9.877 -0.7442  0.7110 -0.0141
   11CHL1    H8  755   4.816   3.393   9.882 -0.9813  1.2396 -0.9735
   11CHL1   C14  756   4.680   3.319   9.735  0.1435 -0.4724  0.4753
   11CHL1   H14  757   4.589   3.256   9.733  0.1060 -0.4053 -0.4793
   11CHL1   C15  758   4.783   3.248   9.641  0.1625 -0.3216 -1.3818
   11CHL1  H15A  759   4.886   3.289   9.651  1.7136 -3.8690 -1.1134
   11CHL1  H15B  760   4.793   3.138   9.658  2.8072  0.2605  1.7172
   11CHL1   C16  761   4.737   3.287   9.501 -0.4304 -0.5244  0.6039
   11CHL1  H16A  762   4.814   3.330   9.434 -1.2732 -0.4440 -0.3456
   11CHL1  H16B  763   4.703   3.194   9.451 -3.1591  0.8307 -0.2575
   11CHL1   C17  764   4.618   3.376   9.520  0.2989 -0.5833  0.0584
   11CHL1   H17  765   4.527   3.312   9.526  0.3230 -0.6191  0.0369
   11CHL1   C13  766   4.637   3.442   9.661 -0.4382 -0.9549 -0.0557
   11CHL1   C18  767   4.752   3.542   9.645  0.0320  0.1954 -0.0164
   11CHL1  H18A  768   4.848   3.511   9.599 -0.8528  1.6348 -3.1305
   11CHL1  H18B  769   4.721   3.629   9.583 -1.5462 -2.1983 -2.8211
   11CHL1  H18C  770   4.793   3.576   9.743 -0.9800  0.0151  0.4813
   11CHL1   C12  771   4.517   3.504   9.727  0.1625  0.9114 -0.3297
   11CHL1  H12A  772   4.494   3.597   9.671 -0.8593  0.7114 -0.2636
   11CHL1  H12B  773   4.436   3.428   9.717  0.4745  0.2923  1.4766
   11CHL1   C11  774   4.551   3.535   9.872 -0.1047 -0.0800 -0.8055
   11CHL1  H11A  775   4.627   3.616   9.876  0.6587 -0.7840 -0.7752
   11CHL1  H11B  776   4.462   3.577   9.925  0.6758  0.2962  0.2313
   11CHL1    C9  777   4.607   3.408   9.947  0.0704 -0.4270  0.5734
   11CHL1    H9  778   4.523   3.337   9.952 -0.8702  0.7396  2.8695
   11CHL1   C10  779   4.642   3.433  10.096  0.5147  0.2820 -0.3523
   11CHL1   C19  780   4.757   3.548  10.113  0.8030  0.2492 -0.2705
   11CHL1  H19A  781   4.767   3.574  10.220 -0.8192  1.3990 -0.3557
   11CHL1  H19B  782   4.846   3.532  10.049  1.8192  2.1825  0.5713
   11CHL1  H19C  783   4.712   3.643  10.076  1.3932  0.0973 -1.4307
   11CHL1    C1  784   4.514   3.487  10.182 -0.3878  0.3794  1.1776
   11CHL1   H1A  785   4.494   3.591  10.146  1.0661  0.2205 -0.1664
   11CHL1   H1B  786   4.430   3.423  10.145  1.6147 -0.3001 -2.6994
   11CHL1    C2  787   4.534   3.488  10.333 -0.5149 -0.0461 -0.5266
   11CHL1   H2A  788   4.444   3.521  10.388  0.7062  1.2976  0.7505
   11CHL1   H2B  789   4.617   3.555  10.363 -1.8261 -0.0745  3.6803
   11CHL1   C20  790   4.601   3.470   9.396 -0.4288 -0.5528  0.8808
   11CHL1   H20  791   4.691   3.536   9.395 -1.0019  0.2712 -1.7616
   11CHL1   C21  792   4.486   3.573   9.399 -0.4911 -0.5859 -0.0607
   11CHL1  H21A  793   4.523   3.657   9.462  0.5949 -1.8852  1.0969
   11CHL1  H21B  794   4.393   3.537   9.448 -0.6524  1.0002  0.8907
   11CHL1  H21C  795   4.459   3.617   9.301 -1.5701  1.5547  1.1217
   11CHL1   C22  796   4.597   3.398   9.261 -0.5261  0.6578  0.0688
   11CHL1  H22A  797   4.605   3.472   9.178  1.6974  0.1806 -0.1958
   11CHL1  H22B  798   4.683   3.335   9.232  0.1472  1.1733  0.9127
   11CHL1   C23  799   4.469   3.314   9.233 -0.2963 -0.1242 -0.6849
   11CHL1  H23A  800   4.456   3.243   9.318 -0.8838  1.3444  0.4913
   11CHL1  H23B  801   4.382   3.383   9.232  0.2967  0.6874  0.8090
   11CHL1   C24  802   4.475   3.219   9.110 -0.1281 -0.2126 -0.7549
   11CHL1  H24A  803   4.541   3.134   9.137  1.6215  0.6785 -2.0006
   11CHL1  H24B  804   4.377   3.176   9.082  0.9364 -3.1260 -0.3236
   11CHL1   C25  805   4.523   3.278   8.973 -0.0568  0.0442 -0.3665
   11CHL1   H25  806   4.623   3.324   8.989  0.2923 -0.6267 -0.5772
   11CHL1   C26  807   4.541   3.172   8.863 -0.0559  0.3609  0.0031
   11CHL1  H26A  808   4.445   3.132   8.823 -0.8587  0.2023  1.9782
   11CHL1  H26B  809   4.612   3.214   8.789  1.1575 -0.9072  0.4056
   11CHL1  H26C  810   4.586   3.084   8.914 -0.4503  0.3091  0.2676
   11CHL1   C27  811   4.436   3.390   8.914 -0.3144  0.2580 -0.2394
   11CHL1  H27A  812   4.483   3.416   8.816  1.1764  2.6752  1.0198
   11CHL1  H27B  813   4.335   3.348   8.898 -0.2161  0.0847 -0.4118
   11CHL1  H27C  814   4.440   3.471   8.990 -0.5703 -1.0934  1.2780
   12CHL1    C3  815   1.375   6.066  10.569  0.1223 -0.2028 -0.3074
   12CHL1    H3  816   1.303   6.150  10.578 -0.1113 -0.5380  1.4236
   12CHL1    O3  817   1.406   6.043  10.702 -0.0086  0.0918 -0.2492
   12CHL1   H3'  818   1.488   5.993  10.709  0.4402  0.4458 -2.2906
   12CHL1    C4  819   1.327   5.944  10.488  0.5533 -0.3277  0.0420
   12CHL1   H4A  820   1.403   5.864  10.499  0.1537 -1.0664 -2.2195
   12CHL1   H4B  821   1.235   5.907  10.539 -0.0676  2.0164  0.7322
   12CHL1    C5  822   1.285   5.975  10.346  0.4121  0.6805 -0.2455
   12CHL1    C6  823   1.165   5.949  10.298 -0.0382 -0.0583 -0.1870
   12CHL1    H6  824   1.088   5.899  10.359  1.7104 -1.8427  0.6831
   12CHL1    C7  825   1.123   5.977  10.152  0.0243 -0.2921 -0.4277
   12CHL1   H7A  826   1.061   5.893  10.115 -1.2043  0.4541 -0.1318
   12CHL1   H7B  827   1.053   6.063  10.153 -1.0286 -1.1285  0.1978
   12CHL1    C8  828   1.249   6.003  10.062  0.8406 -0.0417 -0.5144
   12CHL1    H8  829   1.296   5.904  10.045  0.7049 -0.5182  1.5860
   12CHL1   C14  830   1.214   6.074   9.934 -0.2517 -0.2980 -0.5290
   12CHL1   H14  831   1.156   6.165   9.958  0.8247  0.3979 -0.4691
   12CHL1   C15  832   1.096   6.011   9.851 -0.2910  0.7917 -0.3016
   12CHL1  H15A  833   1.112   5.901   9.841  0.1804  1.0291 -2.7367
   12CHL1  H15B  834   0.996   6.036   9.893 -0.3819 -1.1842  0.8101
   12CHL1   C16  835   1.105   6.072   9.719  0.1432 -1.4590 -0.5196
   12CHL1  H16A  836   1.097   5.993   9.641 -1.0577 -2.7962  0.9144
   12CHL1  H16B  837   1.021   6.144   9.709  1.3199  0.0006 -0.2090
   12CHL1   C17  838   1.239   6.155   9.710  0.5432 -0.6383  0.1998
   12CHL1   H17  839   1.202   6.257   9.734  2.0207  0.1592 -0.7696
   12CHL1   C13  840   1.321   6.107   9.829  0.0021 -0.0239 -0.1400
   12CHL1   C18  841   1.392   5.981   9.790 -0.3394  0.2220  0.0819
   12CHL1  H18A  842   1.468   5.997   9.710 -1.6764  0.5750 -1.1731
   12CHL1  H18B  843   1.441   5.929   9.875  0.1984 -1.2395 -1.0635
   12CHL1  H18C  844   1.329   5.907   9.737  0.5355 -0.3153 -0.2404
   12CHL1   C12  845   1.416   6.209   9.903  0.2823 -0.4759  0.6619
   12CHL1  H12A  846   1.498   6.236   9.833 -0.1523 -2.2054 -0.5947
   12CHL1  H12B  847   1.357   6.300   9.927  1.7795  0.6248  0.3181
   12CHL1   C11  848   1.459   6.151  10.034 -0.3937 -0.3778  0.1235
   12CHL1  H11A  849   1.525   6.064  10.015  0.2273  0.6837 -3.3211
   12CHL1  H11B  850   1.508   6.227  10.098 -0.5042 -0.1121 -0.1067
   12CHL1    C9  851   1.353   6.098  10.133  0.1000 -0.0653 -0.0019
   12CHL1    H9  852   1.296   6.186  10.169  1.8288  1.0498  0.1194
   12CHL1   C10  853   1.405   6.037  10.267 -0.1446  0.1531 -0.4645
   12CHL1   C19  854   1.507   5.925  10.233 -0.2631 -0.1418  0.5325
   12CHL1  H19A  855   1.468   5.857  10.154 -1.8811  0.9094  0.3778
   12CHL1  H19B  856   1.597   5.966  10.181 -2.0332  0.6064 -2.1816
   12CHL1  H19C  857   1.527   5.863  10.323  0.9802  1.4896  1.4513
   12CHL1    C1  858   1.489   6.147  10.352 -0.2948 -0.2062  0.0716
   12CHL1   H1A  859   1.579   6.171  10.291 -0.3335  1.3753  0.5732
   12CHL1   H1B  860   1.426   6.239  10.346 -1.3782 -0.9982 -1.0961
   12CHL1    C2  861   1.507   6.115  10.501  0.3505  0.1206 -0.0726
   12CHL1   H2A  862   1.532   6.205  10.561  1.2080 -0.9841  1.3008
   12CHL1   H2B  863   1.584   6.037  10.523  1.8595  1.6535  0.2842
   12CHL1   C20  864   1.299   6.165   9.566  0.4938 -0.4189  0.3146
   12CHL1   H20  865   1.340   6.066   9.534  0.5191 -0.3310  0.0737
   12CHL1   C21  866   1.430   6.247   9.572 -0.0108  0.4882 -0.4599
   12CHL1  H21A  867   1.456   6.284   9.470 -0.1940 -2.6305 -1.7508
   12CHL1  H21B  868   1.518   6.189   9.609 -0.0185 -0.5738 -2.0210
   12CHL1  H21C  869   1.421   6.336   9.638  1.2948  1.0251 -0.9590
   12CHL1   C22  870   1.201   6.217   9.456  0.5104 -0.5364 -0.4010
   12CHL1  H22A  871   1.095   6.190   9.476 -0.2082  2.3197  0.1918
   12CHL1  H22B  872   1.203   6.328   9.455  3.0885 -0.4097  2.7360
   12CHL1   C23  873   1.244   6.156   9.320  0.1597  0.0518 -0.4257
   12CHL1  H23A  874   1.344   6.202   9.303  0.6572 -1.0078 -0.4877
   12CHL1  H23B  875   1.262   6.047   9.335 -0.4237  0.4480  4.6631
   12CHL1   C24  876   1.160   6.191   9.192  0.5738 -0.1784 -1.0297
   12CHL1  H24A  877   1.059   6.148   9.211 -0.8579  3.3140  0.0540
   12CHL1  H24B  878   1.122   6.295   9.196 -2.6595 -1.2647  0.4722
   12CHL1   C25  879   1.220   6.147   9.055  0.5390 -0.1454 -0.1280
   12CHL1   H25  880   1.229   6.037   9.064 -0.7006 -0.2163  0.5435
   12CHL1   C26  881   1.139   6.182   8.933  0.3100 -0.7989 -0.2686
   12CHL1  H26A  882   1.185   6.138   8.842  0.8240  3.2370 -2.1611
   12CHL1  H26B  883   1.036   6.142   8.942 -0.0922  0.0122 -1.1116
   12CHL1  H26C  884   1.125   6.292   8.930 -0.5497 -0.7785  2.1990
   12CHL1   C27  885   1.359   6.199   9.045 -0.5760 -0.4210 -0.0493
   12CHL1  H27A  886   1.410   6.155   8.957 -2.1910 -0.5017 -0.9842
   12CHL1  H27B  887   1.337   6.306   9.027 -1.8882 -0.7614 -0.6531
   12CHL1  H27C  888   1.425   6.182   9.133 -0.2292 -0.3380 -0.2940
   13CHL1    C3  889   0.294   0.560  10.257 -0.7480  0.6510  0.3897
   13CHL1    H3  890   0.358   0.469  10.260  0.0142  1.1029 -1.3618
   13CHL1    O3  891   0.322   0.648  10.365  0.2495  0.6339 -0.1903
   13CHL1   H3'  892   0.274   0.617  10.442  0.8308  2.3237  0.9073
   13CHL1    C4  893   0.337   0.635  10.128 -0.0830  0.1874  0.2784
   13CHL1   H4A  894   0.278   0.726  10.104 -0.1526 -0.1260 -0.7705
   13CHL1   H4B  895   0.442   0.669  10.140 -0.2174  0.9392 -0.5466
   13CHL1    C5  896   0.321   0.557  10.000 -0.3937 -0.0283 -0.5889
   13CHL1    C6  897   0.423   0.530   9.915 -0.3465 -0.0873  0.9585
   13CHL1    H6  898   0.520   0.577   9.940 -0.8427  0.5060  1.8284
   13CHL1    C7  899   0.408   0.456   9.779  0.9115 -0.0033  0.2328
   13CHL1   H7A  900   0.450   0.512   9.693  0.2386 -1.6726 -1.2475
   13CHL1   H7B  901   0.457   0.357   9.793  1.9068  0.5429  0.6763
   13CHL1    C8  902   0.258   0.430   9.749  0.3217  0.1017 -0.3113
   13CHL1    H8  903   0.208   0.524   9.718 -0.1775  1.0923  3.0879
   13CHL1   C14  904   0.239   0.322   9.644  0.0567 -0.0555  0.0969
   13CHL1   H14  905   0.280   0.228   9.686  0.9912  1.6094  3.2790
   13CHL1   C15  906   0.309   0.342   9.515  0.5436 -0.6826 -0.6055
   13CHL1  H15A  907   0.304   0.448   9.483  1.6881  0.9326  3.8047
   13CHL1  H15B  908   0.415   0.312   9.534 -0.1114 -2.0099  1.2965
   13CHL1   C16  909   0.235   0.255   9.409  0.2040 -0.1742  0.0674
   13CHL1  H16A  910   0.192   0.323   9.332  0.6723  2.0895  1.6892
   13CHL1  H16B  911   0.303   0.178   9.365  0.6890 -0.7660  1.7837
   13CHL1   C17  912   0.127   0.180   9.489 -0.2864 -0.3257  0.5389
   13CHL1   H17  913   0.177   0.094   9.538  2.5101  0.9249  0.0593
   13CHL1   C13  914   0.096   0.280   9.602  1.0230 -0.7459  0.4758
   13CHL1   C18  915   0.016   0.405   9.550 -0.2314 -0.1502 -0.4838
   13CHL1  H18A  916   0.003   0.473   9.637 -0.6921 -0.5048 -0.2725
   13CHL1  H18B  917   0.062   0.452   9.461 -0.8646 -0.0356 -0.7570
   13CHL1  H18C  918  -0.089   0.378   9.523 -1.0820  0.7361  1.6722
   13CHL1   C12  919   0.032   0.222   9.722 -0.0330 -1.1003 -0.0281
   13CHL1  H12A  920  -0.075   0.200   9.703 -0.6947  2.8675 -1.9623
   13CHL1  H12B  921   0.075   0.124   9.750 -1.3465 -2.3429 -2.1143
   13CHL1   C11  922   0.040   0.328   9.840  0.3167  0.3486 -0.5803
   13CHL1  H11A  923  -0.031   0.413   9.835  0.9490  1.0084  0.9625
   13CHL1  H11B  924  -0.004   0.278   9.929 -2.6407  0.5479 -1.8412
   13CHL1    C9  925   0.184   0.383   9.871  0.9532 -0.1080  0.1888
   13CHL1    H9  926   0.234   0.292   9.910 -0.2478 -1.3669 -1.0979
   13CHL1   C10  927   0.187   0.494   9.981  0.7340  0.1838 -0.5260
   13CHL1   C19  928   0.083   0.607   9.940 -0.2656  0.4658  0.6418
   13CHL1  H19A  929   0.095   0.706   9.989  0.4099  2.1157 -2.5871
   13CHL1  H19B  930   0.088   0.625   9.830  2.4636 -0.3091  0.5672
   13CHL1  H19C  931  -0.016   0.568   9.971  0.0492  0.0796  1.1886
   13CHL1    C1  932   0.153   0.422  10.119  0.2270 -0.0675  0.0835
   13CHL1   H1A  933   0.049   0.383  10.115 -0.4181  1.3749  1.7741
   13CHL1   H1B  934   0.228   0.341  10.138 -0.5533 -1.3455 -1.9332
   13CHL1    C2  935   0.154   0.509  10.249 -0.3549  0.4246 -0.1350
   13CHL1   H2A  936   0.147   0.444  10.339  2.1598  0.7602  0.3567
   13CHL1   H2B  937   0.076   0.588  10.257 -2.5429 -1.8123  3.7881
   13CHL1   C20  938   0.013   0.126   9.402 -0.8458  0.1424 -0.2146
   13CHL1   H20  939  -0.063   0.205   9.386 -1.3985 -0.2852  0.2860
   13CHL1   C21  940  -0.040  -0.007   9.471 -0.0872 -0.1737  0.0222
   13CHL1  H21A  941  -0.076   0.021   9.573 -0.0200  0.8893 -0.2331
   13CHL1  H21B  942   0.030  -0.091   9.459  1.6216  1.3567 -1.2686
   13CHL1  H21C  943  -0.132  -0.035   9.416 -1.6248  0.6615  2.0119
   13CHL1   C22  944   0.048   0.108   9.254  0.6257  0.4485 -0.2473
   13CHL1  H22A  945   0.071   0.202   9.200 -1.3100  0.5695 -0.9379
   13CHL1  H22B  946   0.131   0.035   9.253 -0.7105 -1.2728  2.1824
   13CHL1   C23  947  -0.047   0.025   9.165  0.1845 -0.1774 -0.1694
   13CHL1  H23A  948  -0.074  -0.064   9.225  2.9020  0.3852  2.1596
   13CHL1  H23B  949  -0.147   0.075   9.166 -0.6375 -1.7490 -0.6450
   13CHL1   C24  950   0.000   0.002   9.025  0.5084 -0.0803  0.3319
   13CHL1  H24A  951  -0.021   0.095   8.969  1.3571  0.4053  0.8066
   13CHL1  H24B  952   0.110  -0.015   9.032  0.5247 -0.3084 -0.3983
   13CHL1   C25  953  -0.072  -0.116   8.942  0.9738 -0.3507 -0.0206
   13CHL1   H25  954  -0.029  -0.100   8.841  1.0365  2.4566  0.3675
   13CHL1   C26  955  -0.055  -0.258   9.005 -0.0518 -0.2086  0.2722
   13CHL1  H26A  956  -0.107  -0.330   8.939  1.2891 -0.2574 -0.7594
   13CHL1  H26B  957   0.050  -0.294   9.003 -0.0001 -0.1793 -3.1996
   13CHL1  H26C  958  -0.103  -0.258   9.106 -3.1282  0.0230 -1.0780
   13CHL1   C27  959  -0.228  -0.086   8.920 -0.8086 -0.3775  0.0781
   13CHL1  H27A  960  -0.237   0.014   8.873  0.1369  0.0343  0.7384
   13CHL1  H27B  961  -0.272  -0.169   8.862  0.1781 -1.0717  0.2844
   13CHL1  H27C  962  -0.277  -0.088   9.020 -1.5537  0.7003 -0.2506
   14CHL1    C3  963   6.381   2.316  10.556  0.8663 -0.4073  0.3882
   14CHL1    H3  964   6.277   2.340  10.525  0.6269 -1.8460 -0.0017
   14CHL1    O3  965   6.386   2.307  10.695 -0.4705  0.2749 -0.5716
   14CHL1   H3'  966   6.475   2.276  10.709 -0.0958 -0.0853 -3.3685
   14CHL1    C4  967   6.408   2.172  10.504 -0.6431  0.1029 -0.2059
   14CHL1   H4A  968   6.499   2.126  10.549 -0.7995 -2.3006 -2.1415
   14CHL1   H4B  969   6.330   2.101  10.539  1.3108 -3.5943 -2.6841
   14CHL1    C5  970   6.416   2.175  10.354  0.1098 -1.2482 -0.5303
   14CHL1    C6  971   6.333   2.092  10.287  0.0378  0.5626  0.2489
   14CHL1    H6  972   6.268   2.021  10.341  1.6979 -2.1355 -1.1221
   14CHL1    C7  973   6.326   2.077  10.139 -0.1885  0.4319 -0.1992
   14CHL1   H7A  974   6.343   1.972  10.106  0.4204  0.0958  1.1359
   14CHL1   H7B  975   6.227   2.103  10.097  0.0798  0.7815 -0.6272
   14CHL1    C8  976   6.446   2.160  10.071  0.9300  0.2317 -0.0204
   14CHL1    H8  977   6.537   2.099  10.087  0.0621 -1.0388  0.1954
   14CHL1   C14  978   6.419   2.181   9.922  0.8431 -0.0134 -0.2062
   14CHL1   H14  979   6.334   2.252   9.923  0.9780  0.1580  1.3376
   14CHL1   C15  980   6.378   2.053   9.841  0.2472  0.0180  0.4775
   14CHL1  H15A  981   6.450   1.969   9.848  0.2885 -0.1652 -1.5130
   14CHL1  H15B  982   6.272   2.026   9.861 -0.3138  0.5502 -1.4976
   14CHL1   C16  983   6.374   2.107   9.694 -0.0675  0.2003  0.0660
   14CHL1  H16A  984   6.427   2.028   9.636 -1.2490 -0.5937  0.0275
   14CHL1  H16B  985   6.267   2.117   9.667 -0.7961  0.9422  2.9282
   14CHL1   C17  986   6.454   2.244   9.696  0.2079 -0.8047 -0.5416
   14CHL1   H17  987   6.370   2.317   9.691  0.2662 -0.7999 -2.1536
   14CHL1   C13  988   6.523   2.259   9.837  0.3496 -0.2878  0.1688
   14CHL1   C18  989   6.653   2.174   9.833  0.0217 -0.1261  0.1640
   14CHL1  H18A  990   6.642   2.087   9.764 -1.1730  0.5946 -0.5929
   14CHL1  H18B  991   6.744   2.232   9.808 -0.1403 -0.1722 -0.5391
   14CHL1  H18C  992   6.674   2.129   9.932 -0.9747  2.6900  1.7615
   14CHL1   C12  993   6.547   2.391   9.905 -0.3262 -0.3010  0.5771
   14CHL1  H12A  994   6.632   2.443   9.856  0.1252  0.8582  2.4680
   14CHL1  H12B  995   6.458   2.455   9.888 -1.0542 -1.6669 -0.9299
   14CHL1   C11  996   6.568   2.386  10.057 -0.2697  0.7514 -0.0960
   14CHL1  H11A  997   6.668   2.340  10.074 -0.0981 -1.0215 -4.5428
   14CHL1  H11B  998   6.571   2.484  10.109  2.1315  0.8587 -0.3154
   14CHL1    C9  999   6.472   2.296  10.136 -0.1892 -0.7810  0.2998
   14CHL1    H9 1000   6.369   2.338  10.127  0.2423  0.0369 -1.3084
   14CHL1   C10 1001   6.504   2.281  10.287  0.3648  0.7804  0.0267
   14CHL1   C19 1002   6.650   2.243  10.304 -1.1421  0.1732 -0.6151
   14CHL1  H19A 1003   6.723   2.324  10.285 -2.3079  1.3382 -0.2293
   14CHL1  H19B 1004   6.673   2.225  10.411  2.9036  0.4292 -1.2776
   14CHL1  H19C 1005   6.682   2.156  10.243  1.7600  1.2536 -0.7713
   14CHL1    C1 1006   6.476   2.420  10.352  0.5216 -0.0879  0.1215
   14CHL1   H1A 1007   6.551   2.495  10.317  1.0510  0.3848  2.0829
   14CHL1   H1B 1008   6.376   2.463  10.329 -0.1665 -1.3199  0.7016
   14CHL1    C2 1009   6.482   2.422  10.499 -1.1089 -0.4242 -0.7564
   14CHL1   H2A 1010   6.449   2.523  10.529 -0.8598 -0.6793  0.4551
   14CHL1   H2B 1011   6.585   2.403  10.537 -0.9369 -0.8842 -1.4277
   14CHL1   C20 1012   6.547   2.257   9.582 -0.1363 -0.2163  0.6318
   14CHL1   H20 1013   6.600   2.161   9.559  1.4401  0.7980 -0.1363
   14CHL1   C21 1014   6.642   2.379   9.593 -0.1810 -0.0309 -0.2036
   14CHL1  H21A 1015   6.584   2.474   9.589 -1.4799 -0.6766  1.7215
   14CHL1  H21B 1016   6.702   2.374   9.500 -1.0851 -1.0420 -0.7624
   14CHL1  H21C 1017   6.715   2.379   9.676  1.9963  1.3871 -2.0061
   14CHL1   C22 1018   6.470   2.282   9.447  0.8077 -0.3109 -0.0557
   14CHL1  H22A 1019   6.373   2.227   9.444 -0.0576  1.0512  1.5007
   14CHL1  H22B 1020   6.435   2.387   9.453  3.1547  0.4902  0.5994
   14CHL1   C23 1021   6.536   2.251   9.310  0.6457  0.0005  0.5914
   14CHL1  H23A 1022   6.615   2.320   9.273  0.8637 -0.7871 -0.4731
   14CHL1  H23B 1023   6.580   2.149   9.314  0.1238 -0.3178 -1.1730
   14CHL1   C24 1024   6.436   2.241   9.194  0.3777  0.1111 -0.8735
   14CHL1  H24A 1025   6.356   2.167   9.218  0.0515  1.3041  2.2019
   14CHL1  H24B 1026   6.388   2.342   9.194  0.0340  0.0846  2.7140
   14CHL1   C25 1027   6.494   2.219   9.055  0.0630  0.4452 -0.1500
   14CHL1   H25 1028   6.557   2.308   9.035 -0.3519  0.7148 -0.2515
   14CHL1   C26 1029   6.574   2.085   9.049 -0.2453 -0.0576 -0.3219
   14CHL1  H26A 1030   6.505   2.002   9.076 -0.3203  0.8281  2.5762
   14CHL1  H26B 1031   6.618   2.075   8.948  1.1390 -0.0423  0.2525
   14CHL1  H26C 1032   6.659   2.078   9.121  2.4932 -1.3761 -3.3954
   14CHL1   C27 1033   6.380   2.207   8.947 -0.2319 -0.2209 -0.1826
   14CHL1  H27A 1034   6.436   2.182   8.854  1.4783  1.0921  0.4671
   14CHL1  H27B 1035   6.295   2.141   8.976 -1.1873  0.4983 -1.2796
   14CHL1  H27C 1036   6.343   2.311   8.935 -0.4068 -0.3561 -0.8575
   15CHL1    C3 1037   1.118   2.803  10.494 -0.4253 -0.5425 -0.2049
   15CHL1    H3 1038   1.024   2.861  10.504  0.8174  1.8198 -1.4294
   15CHL1    O3 1039   1.185   2.825  10.616  0.6093  0.1843 -0.1920
   15CHL1   H3' 1040   1.268   2.866  10.594  0.6634  0.9680  1.3031
   15CHL1    C4 1041   1.082   2.660  10.463 -0.1281  0.2344  0.3262
   15CHL1   H4A 1042   1.171   2.598  10.486 -0.3712  0.4835  2.0314
   15CHL1   H4B 1043   1.011   2.626  10.540 -1.1105 -1.7445 -1.3632
   15CHL1    C5 1044   1.027   2.637  10.320  0.1038  0.0524  0.0048
   15CHL1    C6 1045   0.906   2.580  10.305 -0.0619  0.8145  0.6976
   15CHL1    H6 1046   0.855   2.547  10.397  1.2492  2.2948  1.9998
   15CHL1    C7 1047   0.843   2.549  10.171 -0.4051  0.2604 -0.0173
   15CHL1   H7A 1048   0.809   2.444  10.154  0.5877  0.1300 -1.3603
   15CHL1   H7B 1049   0.754   2.615  10.166 -0.4964  0.2942  1.4166
   15CHL1    C8 1050   0.939   2.571  10.051 -0.7096  0.5561 -0.5424
   15CHL1    H8 1051   1.009   2.486  10.039 -0.4045  0.4758  1.4625
   15CHL1   C14 1052   0.863   2.580   9.923  0.4857 -0.7065  1.1204
   15CHL1   H14 1053   0.816   2.681   9.934  1.2805 -0.3204  0.9923
   15CHL1   C15 1054   0.748   2.484   9.897 -0.0025 -0.0107 -0.4745
   15CHL1  H15A 1055   0.791   2.382   9.903  0.6503  0.3040  0.2637
   15CHL1  H15B 1056   0.658   2.481   9.963  1.2265 -2.0452  1.2512
   15CHL1   C16 1057   0.715   2.522   9.753  0.0098  0.4749  0.4488
   15CHL1  H16A 1058   0.696   2.434   9.688  1.9546  1.2886 -1.3504
   15CHL1  H16B 1059   0.630   2.592   9.760 -0.2412  0.1670  0.4661
   15CHL1   C17 1060   0.832   2.610   9.696 -0.6613  0.3753  0.4134
   15CHL1   H17 1061   0.808   2.719   9.696  0.3156  0.6133 -0.9426
   15CHL1   C13 1062   0.945   2.592   9.796  0.3371 -0.5233  0.0734
   15CHL1   C18 1063   1.030   2.459   9.773 -0.0552 -0.4255 -0.2863
   15CHL1  H18A 1064   0.957   2.381   9.742  0.6660 -0.2564 -2.5698
   15CHL1  H18B 1065   1.104   2.465   9.690 -3.0474 -2.2436 -3.3508
   15CHL1  H18C 1066   1.092   2.433   9.861  0.5956  1.2789 -0.1972
   15CHL1   C12 1067   1.045   2.715   9.816 -0.7837 -1.0021  0.3853
   15CHL1  H12A 1068   1.111   2.732   9.727 -0.1416  0.6333  1.1288
   15CHL1  H12B 1069   0.990   2.811   9.818 -0.6785 -0.9565  1.0766
   15CHL1   C11 1070   1.127   2.716   9.946  0.9462 -0.0209  0.7277
   15CHL1  H11A 1071   1.200   2.633   9.934  0.4877 -0.7112  2.4420
   15CHL1  H11B 1072   1.179   2.815   9.941  0.9555 -0.0835 -0.8792
   15CHL1    C9 1073   1.033   2.691  10.068  0.1132  0.8091 -0.1779
   15CHL1    H9 1074   0.968   2.780  10.084  1.3121  1.2765  2.7082
   15CHL1   C10 1075   1.110   2.699  10.210  0.1016  0.6995 -0.6359
   15CHL1   C19 1076   1.229   2.607  10.192 -0.5600  0.6846  0.2830
   15CHL1  H19A 1077   1.283   2.578  10.285  0.3799 -4.7332 -1.6092
   15CHL1  H19B 1078   1.195   2.505  10.164  0.0639  0.9456 -1.5297
   15CHL1  H19C 1079   1.308   2.634  10.119 -0.5581 -2.2304 -0.9082
   15CHL1    C1 1080   1.154   2.840  10.249  0.4144  0.3757  0.2650
   15CHL1   H1A 1081   1.233   2.878  10.181  0.7157  0.1607  0.4901
   15CHL1   H1B 1082   1.067   2.908  10.237  0.0133  0.4091  2.7566
   15CHL1    C2 1083   1.205   2.857  10.390 -1.1719 -0.0528 -0.0432
   15CHL1   H2A 1084   1.225   2.965  10.410 -1.1555 -0.3952  2.1001
   15CHL1   H2B 1085   1.308   2.816  10.398 -1.4936 -1.4270 -2.2534
   15CHL1   C20 1086   0.856   2.570   9.546 -0.2946  0.9912  0.2481
   15CHL1   H20 1087   0.869   2.460   9.536  1.6151  1.2461 -0.4646
   15CHL1   C21 1088   0.987   2.640   9.512 -0.1028  0.0607 -0.1161
   15CHL1  H21A 1089   1.074   2.584   9.554 -0.6555  0.2754  1.3776
   15CHL1  H21B 1090   0.992   2.742   9.556  0.6599  0.3571 -0.8670
   15CHL1  H21C 1091   0.991   2.654   9.402 -2.0013 -1.7969 -0.4819
   15CHL1   C22 1092   0.740   2.621   9.454  0.2700 -0.6000 -0.1876
   15CHL1  H22A 1093   0.643   2.584   9.494  0.2931 -1.5271 -0.9355
   15CHL1  H22B 1094   0.735   2.731   9.456 -0.6358 -0.4840 -3.4427
   15CHL1   C23 1095   0.746   2.566   9.308  0.4806  0.1897 -0.1546
   15CHL1  H23A 1096   0.837   2.605   9.258  0.7948 -0.3568 -0.0227
   15CHL1  H23B 1097   0.757   2.455   9.304 -0.9162  0.0556 -1.2192
   15CHL1   C24 1098   0.617   2.605   9.233 -0.5861 -0.3039  0.0668
   15CHL1  H24A 1099   0.545   2.532   9.276 -0.0191 -0.2313  1.1940
   15CHL1  H24B 1100   0.584   2.709   9.256 -1.6819 -0.6843  0.3119
   15CHL1   C25 1101   0.633   2.585   9.076  0.7181 -0.1024  0.2751
   15CHL1   H25 1102   0.722   2.641   9.041  0.5762  0.9854  1.5836
   15CHL1   C26 1103   0.619   2.434   9.041 -0.3525 -0.7757 -0.3241
   15CHL1  H26A 1104   0.713   2.378   9.058  0.4838  0.6595 -0.1277
   15CHL1  H26B 1105   0.542   2.380   9.101  0.1100 -0.8044  0.2445
   15CHL1  H26C 1106   0.613   2.433   8.930 -0.5327 -0.2095 -0.3202
   15CHL1   C27 1107   0.517   2.654   9.002 -0.4752 -0.7050 -0.9074
   15CHL1  H27A 1108   0.518   2.763   9.026  0.4158 -0.5682 -1.5315
   15CHL1  H27B 1109   0.519   2.645   8.891 -0.3785  0.8804 -1.0556
   15CHL1  H27C 1110   0.420   2.610   9.034 -0.8138 -0.8404 -2.0556
   16CHL1    C3 1111   1.878   3.309  10.406 -0.8133  0.2078  0.0511
   16CHL1    H3 1112   1.792   3.363  10.360  1.7028  2.7574 -1.9705
   16CHL1    O3 1113   1.870   3.292  10.542  0.3836 -0.0620 -0.2214
   16CHL1   H3' 1114   1.950   3.249  10.572 -0.1419 -0.3737  0.7847
   16CHL1    C4 1115   1.901   3.170  10.350  0.4327  0.2188 -0.3395
   16CHL1   H4A 1116   1.982   3.117  10.405  0.8857  1.6947  0.4678
   16CHL1   H4B 1117   1.809   3.108  10.360  0.1153  0.6064 -0.8694
   16CHL1    C5 1118   1.937   3.174  10.201  0.2028 -0.6004 -0.7167
   16CHL1    C6 1119   1.851   3.114  10.114  0.0814 -0.5163 -0.4019
   16CHL1    H6 1120   1.760   3.064  10.149  0.5163 -0.4427  0.8611
   16CHL1    C7 1121   1.867   3.124   9.966 -0.4687 -0.1530 -0.7282
   16CHL1   H7A 1122   1.843   3.028   9.917 -0.2706  0.6322 -2.4186
   16CHL1   H7B 1123   1.810   3.211   9.926  0.4759  0.3630 -0.9941
   16CHL1    C8 1124   2.015   3.167   9.929  0.1256  0.0762  0.5546
   16CHL1    H8 1125   2.086   3.082   9.946  0.4037  0.2446  0.2473
   16CHL1   C14 1126   2.023   3.198   9.783  0.2511  0.0413  0.1141
   16CHL1   H14 1127   1.945   3.274   9.761 -0.4362 -0.3148  1.2683
   16CHL1   C15 1128   1.978   3.082   9.678  0.7896  0.9575  0.7553
   16CHL1  H15A 1129   2.009   2.980   9.707  0.1465  0.1358 -1.2859
   16CHL1  H15B 1130   1.867   3.070   9.671  0.9645  0.0285 -0.5707
   16CHL1   C16 1131   2.056   3.120   9.552  0.3182 -0.2268 -0.3299
   16CHL1  H16A 1132   2.131   3.040   9.539  0.2234 -0.7215  1.7986
   16CHL1  H16B 1133   1.988   3.139   9.467 -1.0725 -0.9549  0.5754
   16CHL1   C17 1134   2.125   3.255   9.584 -0.0859 -0.9249  0.4256
   16CHL1   H17 1135   2.049   3.337   9.575 -1.4613 -2.2117 -0.1338
   16CHL1   C13 1136   2.160   3.251   9.732 -0.4077 -0.5562  0.7050
   16CHL1   C18 1137   2.278   3.143   9.751  0.4862  0.4820 -0.2726
   16CHL1  H18A 1138   2.245   3.040   9.726  0.0501  1.0577 -2.2041
   16CHL1  H18B 1139   2.366   3.174   9.692 -0.2596  1.5101 -0.8805
   16CHL1  H18C 1140   2.284   3.144   9.862 -2.4292  3.3793  0.0241
   16CHL1   C12 1141   2.193   3.384   9.801  0.2887  0.7499 -0.0825
   16CHL1  H12A 1142   2.289   3.429   9.767  0.7657 -0.5042 -0.4739
   16CHL1  H12B 1143   2.109   3.454   9.782  0.8292  1.0798 -1.3549
   16CHL1   C11 1144   2.197   3.362   9.956  0.6594 -0.2893  0.2030
   16CHL1  H11A 1145   2.280   3.292   9.979  1.4210 -1.4028 -4.7623
   16CHL1  H11B 1146   2.202   3.452  10.020  1.7509 -1.0438  1.2182
   16CHL1    C9 1147   2.057   3.289  10.005  0.5357 -0.0148 -0.1582
   16CHL1    H9 1148   1.970   3.353   9.981  0.5964 -0.5297 -1.9609
   16CHL1   C10 1149   2.056   3.267  10.161 -0.1018  0.1944 -0.5170
   16CHL1   C19 1150   2.192   3.207  10.203 -0.3370 -0.0672 -0.3596
   16CHL1  H19A 1151   2.175   3.169  10.306  1.6778 -0.1478 -0.0213
   16CHL1  H19B 1152   2.227   3.118  10.146  3.0915  1.1431 -0.3601
   16CHL1  H19C 1153   2.273   3.282  10.213  0.2925 -0.6898 -0.7197
   16CHL1    C1 1154   2.039   3.408  10.232  0.2759  0.4245 -0.1616
   16CHL1   H1A 1155   2.139   3.457  10.232  0.3024  0.3725  0.0745
   16CHL1   H1B 1156   1.958   3.472  10.192  0.2439  0.2489 -0.3800
   16CHL1    C2 1157   2.010   3.390  10.375 -0.1914 -0.2058 -0.8275
   16CHL1   H2A 1158   2.000   3.482  10.437 -0.2479 -1.0698  0.5060
   16CHL1   H2B 1159   2.090   3.326  10.417  1.8417  1.2606 -2.2636
   16CHL1   C20 1160   2.249   3.301   9.496  0.7118 -0.3128 -0.0112
   16CHL1   H20 1161   2.350   3.275   9.533  0.2785 -0.7779  0.8797
   16CHL1   C21 1162   2.240   3.457   9.480 -0.3760 -0.1921 -0.5825
   16CHL1  H21A 1163   2.250   3.501   9.581  1.0610  1.4667 -1.4022
   16CHL1  H21B 1164   2.150   3.484   9.420 -1.0009  0.8448  0.7843
   16CHL1  H21C 1165   2.323   3.497   9.419 -0.0579  1.0648  0.6262
   16CHL1   C22 1166   2.252   3.233   9.357 -0.1045 -0.1724 -0.5666
   16CHL1  H22A 1167   2.270   3.126   9.383 -0.5742 -0.4604 -1.3933
   16CHL1  H22B 1168   2.161   3.236   9.294  0.5008 -1.7490 -1.5701
   16CHL1   C23 1169   2.374   3.275   9.280 -0.9632  0.6321  0.4029
   16CHL1  H23A 1170   2.351   3.378   9.246  0.1807  0.5862 -0.5466
   16CHL1  H23B 1171   2.466   3.268   9.341 -0.5687 -1.2543 -0.3380
   16CHL1   C24 1172   2.384   3.193   9.149  0.1740 -0.3020 -0.5735
   16CHL1  H24A 1173   2.390   3.084   9.166 -1.5405  0.0056  2.6177
   16CHL1  H24B 1174   2.290   3.213   9.093 -0.7316 -1.2888  0.5573
   16CHL1   C25 1175   2.515   3.216   9.069  0.3724  0.3618  0.1600
   16CHL1   H25 1176   2.524   3.322   9.036  3.3799 -0.0186 -0.5098
   16CHL1   C26 1177   2.640   3.162   9.131 -0.6034 -0.6491  0.8352
   16CHL1  H26A 1178   2.648   3.151   9.242  2.4509 -0.3223  0.7336
   16CHL1  H26B 1179   2.655   3.057   9.098 -2.3490 -0.3595 -1.0657
   16CHL1  H26C 1180   2.727   3.220   9.092 -1.3535 -0.2882 -0.3459
   16CHL1   C27 1181   2.501   3.147   8.927  0.5509  0.5008  0.0452
   16CHL1  H27A 1182   2.601   3.150   8.879 -0.1990  0.7102 -1.5560
   16CHL1  H27B 1183   2.475   3.041   8.951  0.9921  0.7386  1.7434
   16CHL1  H27C 1184   2.422   3.201   8.870 -0.1842 -1.9781 -1.4373
   17CHL1    C3 1185   1.187   0.165  10.420  0.5986  0.5612 -0.1487
   17CHL1    H3 1186   1.259   0.080  10.414 -1.7339 -1.6359  1.1656
   17CHL1    O3 1187   1.147   0.168  10.556 -0.1052 -0.0548  0.3924
   17CHL1   H3' 1188   1.128   0.262  10.560  1.7632  0.3339  1.4497
   17CHL1    C4 1189   1.242   0.301  10.374 -0.1418 -0.3331  0.1628
   17CHL1   H4A 1190   1.167   0.383  10.387 -0.3294 -0.0258 -2.3374
   17CHL1   H4B 1191   1.331   0.330  10.435 -0.1200  1.5864 -0.6931
   17CHL1    C5 1192   1.277   0.285  10.231  0.3310 -0.3279  0.5156
   17CHL1    C6 1193   1.402   0.299  10.186 -0.2220 -0.4334  0.5927
   17CHL1    H6 1194   1.481   0.324  10.259 -0.6177  2.5416  0.1049
   17CHL1    C7 1195   1.446   0.288  10.041 -0.0564  0.2015  0.5716
   17CHL1   H7A 1196   1.528   0.360  10.019  1.1100 -1.2172  0.0670
   17CHL1   H7B 1197   1.487   0.187  10.021 -1.9586 -0.5033  0.0430
   17CHL1    C8 1198   1.329   0.319   9.944 -0.6689 -0.4384 -0.0526
   17CHL1    H8 1199   1.313   0.429   9.943 -0.4435 -0.3216 -3.6856
   17CHL1   C14 1200   1.371   0.285   9.799 -0.3416  0.3526 -0.8384
   17CHL1   H14 1201   1.385   0.175   9.801 -1.3174  0.1828  2.3418
   17CHL1   C15 1202   1.498   0.349   9.749  0.8939  0.1707  0.5979
   17CHL1  H15A 1203   1.503   0.456   9.780 -0.6395  0.5079 -0.2178
   17CHL1  H15B 1204   1.589   0.293   9.780  0.6236 -1.9230 -1.9972
   17CHL1   C16 1205   1.485   0.340   9.591 -0.0463  0.6233 -0.3488
   17CHL1  H16A 1206   1.479   0.441   9.546  0.9069 -0.0854 -2.1390
   17CHL1  H16B 1207   1.563   0.286   9.533 -1.8603  0.4558 -2.7874
   17CHL1   C17 1208   1.347   0.282   9.563 -0.3144  0.0663  0.1773
   17CHL1   H17 1209   1.349   0.171   9.549 -1.6997 -0.0359  0.5669
   17CHL1   C13 1210   1.270   0.307   9.692  0.8654 -0.4154 -0.7186
   17CHL1   C18 1211   1.224   0.454   9.695  0.4103  0.0523 -0.0108
   17CHL1  H18A 1212   1.187   0.499   9.790  0.0926  2.3561 -1.1502
   17CHL1  H18B 1213   1.306   0.525   9.671  2.0186 -2.5687 -2.8282
   17CHL1  H18C 1214   1.149   0.456   9.613 -0.5010  0.0986  0.8062
   17CHL1   C12 1215   1.153   0.206   9.725 -0.5043 -0.0316 -0.3411
   17CHL1  H12A 1216   1.076   0.213   9.646  0.1949  1.1585 -0.9442
   17CHL1  H12B 1217   1.185   0.100   9.723 -0.6543 -0.0895  0.1322
   17CHL1   C11 1218   1.094   0.239   9.868  0.6604  0.0482 -0.0206
   17CHL1  H11A 1219   1.045   0.338   9.862  0.5074  0.1276  1.8761
   17CHL1  H11B 1220   1.019   0.159   9.887  0.4848  0.2401  0.1033
   17CHL1    C9 1221   1.205   0.234   9.979  0.3544  0.1524  0.4820
   17CHL1    H9 1222   1.231   0.126   9.973 -0.4136 -0.0316  0.4638
   17CHL1   C10 1223   1.158   0.255  10.132  0.0099  0.8910  0.2042
   17CHL1   C19 1224   1.057   0.367  10.142 -0.7336 -0.8151 -0.0241
   17CHL1  H19A 1225   0.961   0.337  10.095  0.5502 -3.5422 -1.1031
   17CHL1  H19B 1226   1.034   0.397  10.247 -0.2798  0.1808 -0.1955
   17CHL1  H19C 1227   1.096   0.454  10.085 -0.4024 -1.4197 -0.7279
   17CHL1    C1 1228   1.093   0.127  10.191 -0.1731 -0.1498 -0.0540
   17CHL1   H1A 1229   1.001   0.096  10.136 -1.0866 -0.5826  1.6292
   17CHL1   H1B 1230   1.160   0.041  10.168  0.9538  0.5966  0.3794
   17CHL1    C2 1231   1.059   0.129  10.343  0.5550 -0.1087  0.6487
   17CHL1   H2A 1232   0.995   0.043  10.371 -2.4731  1.8770  0.2645
   17CHL1   H2B 1233   0.995   0.215  10.372 -1.9876 -2.0404  1.1278
   17CHL1   C20 1234   1.287   0.332   9.427 -0.3241  1.3036  0.1679
   17CHL1   H20 1235   1.267   0.441   9.437 -0.0264  1.3142  0.7426
   17CHL1   C21 1236   1.154   0.262   9.405  0.2839  0.3797 -0.3904
   17CHL1  H21A 1237   1.144   0.157   9.441  1.2548  0.7799  1.1444
   17CHL1  H21B 1238   1.131   0.268   9.296 -1.5165  1.6572  0.0152
   17CHL1  H21C 1239   1.078   0.321   9.460  0.0318 -1.0086  0.8045
   17CHL1   C22 1240   1.385   0.324   9.305  0.3196  0.2724  0.2940
   17CHL1  H22A 1241   1.492   0.309   9.331  0.4765  1.3729  0.3191
   17CHL1  H22B 1242   1.343   0.236   9.252 -0.7317 -0.3133  1.9952
   17CHL1   C23 1243   1.377   0.443   9.206  0.4290 -0.2048  0.6516
   17CHL1  H23A 1244   1.270   0.458   9.183  0.5621 -0.1427  0.0578
   17CHL1  H23B 1245   1.416   0.537   9.249 -2.7737  0.2711  2.8527
   17CHL1   C24 1246   1.457   0.415   9.075 -0.6207 -0.1205 -0.0791
   17CHL1  H24A 1247   1.454   0.508   9.015  2.6689 -0.2031 -0.5335
   17CHL1  H24B 1248   1.563   0.405   9.107 -1.3138  0.9905  2.9638
   17CHL1   C25 1249   1.416   0.296   8.994 -0.2817 -0.0528 -0.1638
   17CHL1   H25 1250   1.421   0.198   9.046  2.0291 -0.6524 -1.4010
   17CHL1   C26 1251   1.273   0.301   8.931 -0.5805  1.3076 -0.1771
   17CHL1  H26A 1252   1.273   0.228   8.847 -0.3021 -0.0697  0.9729
   17CHL1  H26B 1253   1.204   0.262   9.008  0.0359  0.6407  0.0525
   17CHL1  H26C 1254   1.245   0.405   8.907 -1.1788  1.4554  1.0922
   17CHL1   C27 1255   1.525   0.298   8.873  0.0860  0.3312  0.0012
   17CHL1  H27A 1256   1.491   0.210   8.815 -1.8109  1.1650 -0.2181
   17CHL1  H27B 1257   1.515   0.392   8.813  1.4884  1.1704  1.0197
   17CHL1  H27C 1258   1.625   0.287   8.920 -0.3335 -0.1625  0.7921
   18CHL1    C3 1259   2.789   6.004  10.376 -0.4884 -0.5730  1.0124
   18CHL1    H3 1260   2.768   5.901  10.339  1.9135 -0.5132 -0.7680
   18CHL1    O3 1261   2.784   5.983  10.515 -0.1327  0.4457  0.3726
   18CHL1   H3' 1262   2.842   6.055  10.542 -0.2689  0.8353 -0.3406
   18CHL1    C4 1263   2.926   6.038  10.317 -0.0465  0.1375 -0.2566
   18CHL1   H4A 1264   2.942   6.143  10.349  0.2987  1.1537 -3.3994
   18CHL1   H4B 1265   2.993   5.963  10.364 -0.3765  0.1650  0.2650
   18CHL1    C5 1266   2.918   6.030  10.166 -0.3737  0.4297  0.1788
   18CHL1    C6 1267   2.996   5.945  10.096  0.5366  0.3140  0.3524
   18CHL1    H6 1268   3.069   5.885  10.151 -0.2527  0.0612  1.1455
   18CHL1    C7 1269   2.988   5.932   9.946 -0.1487 -0.2548  0.2500
   18CHL1   H7A 1270   3.091   5.938   9.904 -0.7082 -0.5070 -1.2154
   18CHL1   H7B 1271   2.948   5.833   9.914  1.5900 -1.8181  2.5190
   18CHL1    C8 1272   2.905   6.042   9.868 -0.0686 -0.3362  0.1145
   18CHL1    H8 1273   2.966   6.135   9.863  0.8043 -0.8241  1.1898
   18CHL1   C14 1274   2.863   5.992   9.736 -0.4100  0.2037 -0.3474
   18CHL1   H14 1275   2.794   5.908   9.759 -0.2437 -0.4241 -2.0498
   18CHL1   C15 1276   2.968   5.940   9.634 -0.7670 -0.4551 -0.6753
   18CHL1  H15A 1277   3.056   6.006   9.636  0.5812 -2.1579 -1.0868
   18CHL1  H15B 1278   3.022   5.843   9.644 -0.7435 -0.3163  0.6495
   18CHL1   C16 1279   2.896   5.939   9.500  0.4006  0.5188 -0.3514
   18CHL1  H16A 1280   2.955   5.997   9.426 -0.9097 -1.0970 -2.8200
   18CHL1  H16B 1281   2.885   5.832   9.473  3.2098  0.1460 -0.2578
   18CHL1   C17 1282   2.765   6.005   9.518  0.2758 -0.2214  0.3210
   18CHL1   H17 1283   2.690   5.927   9.543  0.6658 -0.0954  2.0130
   18CHL1   C13 1284   2.780   6.091   9.649 -0.0912 -1.0712  0.4187
   18CHL1   C18 1285   2.859   6.216   9.620  0.0369 -0.0795  0.2263
   18CHL1  H18A 1286   2.895   6.262   9.715 -0.9506 -0.3095  0.7216
   18CHL1  H18B 1287   2.943   6.206   9.548  0.3739  0.4033  0.5455
   18CHL1  H18C 1288   2.787   6.289   9.577  0.0767 -1.2214 -1.8800
   18CHL1   C12 1289   2.656   6.117   9.730 -0.1431  0.6292  0.5130
   18CHL1  H12A 1290   2.595   6.198   9.686 -0.7024  0.3943  0.8459
   18CHL1  H12B 1291   2.590   6.028   9.741  0.5235 -0.0527 -0.8014
   18CHL1   C11 1292   2.674   6.157   9.875  0.7474 -0.7472  0.0394
   18CHL1  H11A 1293   2.718   6.259   9.873 -2.8562  0.9551 -0.3954
   18CHL1  H11B 1294   2.578   6.164   9.932  1.0036 -0.6844  0.4643
   18CHL1    C9 1295   2.775   6.064   9.950 -0.2401 -0.1322  0.7845
   18CHL1    H9 1296   2.723   5.967   9.951 -1.6133  0.4538 -2.2841
   18CHL1   C10 1297   2.806   6.109  10.092 -0.1792  0.6353 -0.6018
   18CHL1   C19 1298   2.842   6.258  10.105 -0.1862  0.1435 -0.5158
   18CHL1  H19A 1299   2.749   6.319  10.101  0.4156  1.2582  1.4283
   18CHL1  H19B 1300   2.886   6.287  10.202 -0.5238  1.1509 -0.6505
   18CHL1  H19C 1301   2.918   6.290  10.030  2.3458 -0.1680  1.7883
   18CHL1    C1 1302   2.670   6.095  10.179  0.2330 -0.0680 -0.5580
   18CHL1   H1A 1303   2.595   6.171  10.148 -0.3576 -0.3260  0.1833
   18CHL1   H1B 1304   2.628   5.996  10.151 -1.1095 -0.1985  1.6763
   18CHL1    C2 1305   2.686   6.107  10.331  0.0762 -0.3043 -0.4787
   18CHL1   H2A 1306   2.587   6.098  10.381  1.1779  0.5186  2.0329
   18CHL1   H2B 1307   2.732   6.206  10.353 -0.3210  0.0671 -1.2778
   18CHL1   C20 1308   2.715   6.094   9.398  0.0021 -0.0110  0.3244
   18CHL1   H20 1309   2.788   6.174   9.373  0.7266 -0.1063  1.9982
   18CHL1   C21 1310   2.577   6.160   9.419  0.2353 -0.9839 -0.3416
   18CHL1  H21A 1311   2.506   6.078   9.447 -0.2158 -0.3093  0.5526
   18CHL1  H21B 1312   2.533   6.215   9.334  2.3332  0.7939 -0.3667
   18CHL1  H21C 1313   2.572   6.229   9.506 -1.3234  0.5539 -1.5956
   18CHL1   C22 1314   2.707   6.006   9.266  0.3629  0.4140 -0.6003
   18CHL1  H22A 1315   2.805   5.955   9.251  1.3499  1.5484  1.5757
   18CHL1  H22B 1316   2.628   5.930   9.286 -1.2119  2.3138  0.7606
   18CHL1   C23 1317   2.652   6.086   9.144 -0.0397 -0.3966 -0.5045
   18CHL1  H23A 1318   2.548   6.125   9.149  0.7333  1.7678  0.1555
   18CHL1  H23B 1319   2.714   6.179   9.140  0.2397 -0.5182  0.4856
   18CHL1   C24 1320   2.659   6.003   9.021  0.3709 -0.1754 -0.3555
   18CHL1  H24A 1321   2.744   5.932   9.030 -0.9348 -1.8489 -0.8354
   18CHL1  H24B 1322   2.574   5.932   9.028  0.5933 -0.4855 -0.7391
   18CHL1   C25 1323   2.656   6.075   8.885 -0.2777  0.1002 -0.3742
   18CHL1   H25 1324   2.729   6.158   8.887  0.5207 -0.4438  3.9585
   18CHL1   C26 1325   2.681   5.972   8.776  0.5445 -0.2346  0.4345
   18CHL1  H26A 1326   2.609   5.887   8.766  1.6351 -0.9518 -2.3863
   18CHL1  H26B 1327   2.675   6.017   8.674  1.0011  0.3066  0.6403
   18CHL1  H26C 1328   2.783   5.934   8.798  0.5801 -0.4066 -0.0068
   18CHL1   C27 1329   2.527   6.144   8.850 -0.3960 -0.3604 -0.2578
   18CHL1  H27A 1330   2.494   6.212   8.931  3.4545  1.4642 -0.0170
   18CHL1  H27B 1331   2.526   6.185   8.746 -0.6287 -0.8034 -0.4325
   18CHL1  H27C 1332   2.452   6.064   8.831  1.1997 -1.4957 -2.3258
   19CHL1    C3 1333   5.603   1.954  10.193  0.0894 -0.0415  0.8673
   19CHL1    H3 1334   5.638   1.862  10.143  0.4793  0.1018  0.8682
   19CHL1    O3 1335   5.565   1.913  10.322 -0.2264 -0.1573 -0.3177
   19CHL1   H3' 1336   5.511   1.986  10.351  0.2003 -0.5771  1.6838
   19CHL1    C4 1337   5.731   2.043  10.185  0.3408 -1.0529  0.3907
   19CHL1   H4A 1338   5.701   2.127  10.252 -0.2820 -1.9136  1.2133
   19CHL1   H4B 1339   5.819   1.984  10.219 -0.7152 -3.2839 -0.6009
   19CHL1    C5 1340   5.760   2.089  10.048 -0.7581  0.7992 -0.5328
   19CHL1    C6 1341   5.884   2.058  10.000  0.7386  0.3578  0.1039
   19CHL1    H6 1342   5.955   2.000  10.061  1.1947  1.7455  0.9261
   19CHL1    C7 1343   5.910   2.076   9.852  0.4322  0.2349  0.0685
   19CHL1   H7A 1344   6.018   2.093   9.835  0.5709 -1.1051 -0.5405
   19CHL1   H7B 1345   5.888   1.979   9.802  0.3527 -0.4366  1.3841
   19CHL1    C8 1346   5.823   2.181   9.784 -0.2253 -0.1486  0.3263
   19CHL1    H8 1347   5.836   2.280   9.835 -1.4493 -0.8230  2.0580
   19CHL1   C14 1348   5.846   2.190   9.637  0.6271  0.6502  0.0853
   19CHL1   H14 1349   5.817   2.091   9.597  0.8134  0.9407 -0.7912
   19CHL1   C15 1350   5.995   2.206   9.590 -0.2415 -0.0492  0.6626
   19CHL1  H15A 1351   6.045   2.290   9.644 -0.2605  1.0793 -0.9968
   19CHL1  H15B 1352   6.053   2.111   9.600  0.3751  0.3005  0.5056
   19CHL1   C16 1353   5.971   2.239   9.443  0.0508 -0.1561  1.1582
   19CHL1  H16A 1354   6.031   2.326   9.410 -0.8166 -0.1914 -0.6743
   19CHL1  H16B 1355   6.010   2.161   9.374 -1.7639  0.4750 -0.6925
   19CHL1   C17 1356   5.818   2.273   9.417 -0.2640  0.0396  0.7398
   19CHL1   H17 1357   5.773   2.184   9.369 -1.3414  0.6576  0.5678
   19CHL1   C13 1358   5.762   2.291   9.561 -0.2765 -0.1368  0.0339
   19CHL1   C18 1359   5.798   2.435   9.610  0.3803 -0.1312 -0.6298
   19CHL1  H18A 1360   5.740   2.513   9.557  1.4961  1.7007  0.6981
   19CHL1  H18B 1361   5.785   2.448   9.720  0.3210 -0.1661 -0.6327
   19CHL1  H18C 1362   5.904   2.457   9.583 -0.1250  0.5603 -2.1709
   19CHL1   C12 1363   5.611   2.253   9.577 -0.0730 -0.0812  0.0474
   19CHL1  H12A 1364   5.550   2.336   9.534  0.9931 -0.4917 -2.4415
   19CHL1  H12B 1365   5.604   2.163   9.512 -0.8190  0.0047 -0.0009
   19CHL1   C11 1366   5.572   2.229   9.723  0.4125 -0.0720 -0.1403
   19CHL1  H11A 1367   5.559   2.329   9.771  0.5704 -0.0808 -0.0775
   19CHL1  H11B 1368   5.474   2.179   9.716  0.1313  0.5991 -1.3050
   19CHL1    C9 1369   5.670   2.147   9.813 -0.0285 -0.2539  0.6919
   19CHL1    H9 1370   5.657   2.041   9.782 -1.8537 -0.6114  2.4587
   19CHL1   C10 1371   5.635   2.140   9.966 -0.1813 -0.3016 -0.3220
   19CHL1   C19 1372   5.603   2.288  10.016  0.0640  0.5575  0.2644
   19CHL1  H19A 1373   5.576   2.286  10.123 -0.4847 -0.5701  0.1188
   19CHL1  H19B 1374   5.697   2.347  10.013  0.6313 -0.2164  1.9675
   19CHL1  H19C 1375   5.515   2.330   9.962  0.1814 -1.1992 -1.4292
   19CHL1    C1 1376   5.503   2.061   9.987  0.2060 -0.1144  0.4721
   19CHL1   H1A 1377   5.408   2.111   9.960  0.4898  0.9947  1.4687
   19CHL1   H1B 1378   5.517   1.966   9.931  1.7527 -1.4865  3.0054
   19CHL1    C2 1379   5.481   2.019  10.135  0.6914  0.5842  0.0077
   19CHL1   H2A 1380   5.388   1.958  10.145  0.4156  1.2756  2.5968
   19CHL1   H2B 1381   5.460   2.114  10.190  0.4590  0.1256  0.7326
   19CHL1   C20 1382   5.797   2.390   9.316  0.5234  0.0592  0.1313
   19CHL1   H20 1383   5.821   2.488   9.363 -0.0679 -0.2898  1.1959
   19CHL1   C21 1384   5.643   2.394   9.279 -0.3016 -0.5093  0.1372
   19CHL1  H21A 1385   5.586   2.446   9.358 -1.9541 -2.2505  0.1486
   19CHL1  H21B 1386   5.601   2.292   9.266  1.4737 -1.4732  1.4732
   19CHL1  H21C 1387   5.612   2.453   9.190 -4.2709 -0.0468  1.6482
   19CHL1   C22 1388   5.881   2.368   9.186  0.1572 -0.2910 -0.0368
   19CHL1  H22A 1389   5.991   2.354   9.197 -0.1674 -2.4825  0.8624
   19CHL1  H22B 1390   5.851   2.275   9.134  0.8997 -0.7418  0.3325
   19CHL1   C23 1391   5.858   2.480   9.082 -0.4568 -0.1164  0.3105
   19CHL1  H23A 1392   5.764   2.472   9.024  0.0918 -0.8216 -0.5001
   19CHL1  H23B 1393   5.860   2.570   9.147 -1.7999 -0.8234  1.3762
   19CHL1   C24 1394   5.974   2.489   8.979 -0.0893 -0.5638 -0.4403
   19CHL1  H24A 1395   5.953   2.583   8.924  0.5091 -1.4871 -2.3179
   19CHL1  H24B 1396   6.068   2.505   9.036  0.2415 -4.0943  0.2520
   19CHL1   C25 1397   5.978   2.373   8.877  0.3013 -0.3331 -0.3095
   19CHL1   H25 1398   5.992   2.278   8.935 -1.7904 -0.7148 -0.3675
   19CHL1   C26 1399   5.846   2.358   8.802  0.0417 -0.5831  0.7187
   19CHL1  H26A 1400   5.873   2.302   8.709  0.9633  0.2117  0.4919
   19CHL1  H26B 1401   5.759   2.316   8.858 -2.0092  2.7358  0.2975
   19CHL1  H26C 1402   5.823   2.461   8.767  0.9359 -0.8749 -0.8189
   19CHL1   C27 1403   6.094   2.388   8.782  0.1965  0.4795  0.7085
   19CHL1  H27A 1404   6.082   2.482   8.724 -1.4136  0.9690  1.7777
   19CHL1  H27B 1405   6.192   2.403   8.833  0.4592 -0.5163  0.5123
   19CHL1  H27C 1406   6.099   2.308   8.706 -1.4288  0.5481  0.4963
   20CHL1    C3 1407   2.473   3.363  10.556 -0.5535  0.0130  0.7605
   20CHL1    H3 1408   2.372   3.324  10.530  0.5352 -1.7240 -1.1411
   20CHL1    O3 1409   2.506   3.370  10.693 -0.4500  0.5734 -0.9007
   20CHL1   H3' 1410   2.602   3.376  10.696 -0.2980 -1.3023  2.2532
   20CHL1    C4 1411   2.584   3.281  10.489  0.5026 -0.0574 -0.2358
   20CHL1   H4A 1412   2.681   3.327  10.520  0.4562  1.1874 -1.8088
   20CHL1   H4B 1413   2.578   3.177  10.527  0.3427  0.2135  0.5129
   20CHL1    C5 1414   2.577   3.296  10.343  0.8699  0.0937 -0.2126
   20CHL1    C6 1415   2.560   3.190  10.263  0.3073  0.3401 -0.3231
   20CHL1    H6 1416   2.562   3.086  10.300 -1.4401  0.3936 -0.0174
   20CHL1    C7 1417   2.574   3.199  10.113  0.1054 -0.1358 -0.0139
   20CHL1   H7A 1418   2.622   3.111  10.066  2.8330  1.0366  0.4017
   20CHL1   H7B 1419   2.475   3.214  10.065  0.1147 -0.1647 -0.0420
   20CHL1    C8 1420   2.642   3.332  10.054 -0.0302 -0.1663  0.5946
   20CHL1    H8 1421   2.753   3.331  10.064  0.0899  0.8604 -0.3873
   20CHL1   C14 1422   2.612   3.351   9.905 -0.1512 -0.1106 -0.1496
   20CHL1   H14 1423   2.501   3.351   9.892 -0.3841 -0.8291  1.6105
   20CHL1   C15 1424   2.654   3.239   9.804  0.6943  0.1751 -0.9365
   20CHL1  H15A 1425   2.759   3.211   9.828  0.8229  0.5290 -1.0934
   20CHL1  H15B 1426   2.599   3.142   9.808  0.4307  0.3165 -1.1793
   20CHL1   C16 1427   2.652   3.303   9.662 -0.3478  0.4323 -0.2311
   20CHL1  H16A 1428   2.749   3.278   9.614  1.4738 -1.5040  3.9776
   20CHL1  H16B 1429   2.560   3.267   9.610  0.3950 -2.2174  0.1140
   20CHL1   C17 1430   2.638   3.460   9.692  0.1761  0.7018  0.5376
   20CHL1   H17 1431   2.529   3.472   9.674  0.3707 -0.8194 -2.0171
   20CHL1   C13 1432   2.666   3.475   9.844 -0.6500 -0.3774 -0.4549
   20CHL1   C18 1433   2.819   3.490   9.863  1.3422  0.3417  0.3212
   20CHL1  H18A 1434   2.857   3.590   9.831  3.6603 -0.7350 -0.5119
   20CHL1  H18B 1435   2.839   3.487   9.972  1.6348 -3.2025  0.2866
   20CHL1  H18C 1436   2.872   3.408   9.810 -0.6725 -0.4403 -0.5826
   20CHL1   C12 1437   2.593   3.591   9.920  0.3167  0.3712  0.2294
   20CHL1  H12A 1438   2.616   3.689   9.874 -1.7724  3.3959  4.8292
   20CHL1  H12B 1439   2.483   3.585   9.909  0.1370 -0.9645  2.2066
   20CHL1   C11 1440   2.621   3.580  10.073 -0.4392 -0.5972 -0.2043
   20CHL1  H11A 1441   2.725   3.612  10.096  0.3490 -4.0631  1.7582
   20CHL1  H11B 1442   2.550   3.651  10.121 -0.5507 -1.9860  1.7845
   20CHL1    C9 1443   2.578   3.446  10.136 -0.3896  0.2240  1.0527
   20CHL1    H9 1444   2.471   3.440  10.108 -0.1332  3.8818 -1.4256
   20CHL1   C10 1445   2.587   3.440  10.292  0.2036  0.6628  0.2747
   20CHL1   C19 1446   2.725   3.504  10.331 -1.4800  0.5715  0.0470
   20CHL1  H19A 1447   2.753   3.495  10.438 -1.0820 -1.9643 -0.2021
   20CHL1  H19B 1448   2.807   3.471  10.263 -0.1738  1.7446  0.9940
   20CHL1  H19C 1449   2.721   3.610  10.299 -1.9040  0.0085 -1.8987
   20CHL1    C1 1450   2.475   3.521  10.348  0.4840 -0.6270 -0.7918
   20CHL1   H1A 1451   2.486   3.628  10.320 -2.3208  0.6394  2.3617
   20CHL1   H1B 1452   2.381   3.487  10.301  0.9286 -0.2059 -2.0261
   20CHL1    C2 1453   2.468   3.511  10.503  0.2928 -0.1651 -0.9310
   20CHL1   H2A 1454   2.374   3.558  10.539  0.4180 -0.1542 -0.6078
   20CHL1   H2B 1455   2.557   3.568  10.538  0.4386 -2.2006  2.5388
   20CHL1   C20 1456   2.713   3.545   9.590  0.2109 -0.1908  0.4887
   20CHL1   H20 1457   2.821   3.546   9.615  0.5355  0.2923 -0.8228
   20CHL1   C21 1458   2.660   3.685   9.619  0.0258 -0.2107 -0.4562
   20CHL1  H21A 1459   2.654   3.752   9.530 -0.1875  0.4666  0.0569
   20CHL1  H21B 1460   2.739   3.731   9.681 -0.9281  1.2482 -0.2705
   20CHL1  H21C 1461   2.562   3.680   9.671  0.1455  0.1484 -0.1907
   20CHL1   C22 1462   2.703   3.494   9.442 -0.0022 -0.2037  0.3510
   20CHL1  H22A 1463   2.738   3.390   9.430 -2.5832 -1.2115  0.7708
   20CHL1  H22B 1464   2.593   3.487   9.428  0.2057 -0.1746 -1.5419
   20CHL1   C23 1465   2.781   3.577   9.340 -0.4591  0.0901  0.0435
   20CHL1  H23A 1466   2.737   3.678   9.331  1.3797  1.0488  1.1038
   20CHL1  H23B 1467   2.887   3.572   9.373 -0.4318  1.3465  0.1701
   20CHL1   C24 1468   2.762   3.505   9.202  0.5715  0.0815 -0.3823
   20CHL1  H24A 1469   2.793   3.400   9.224  1.6062  0.3548 -0.5418
   20CHL1  H24B 1470   2.655   3.490   9.174  0.6155 -1.0156 -0.0101
   20CHL1   C25 1471   2.842   3.554   9.080  0.0147 -0.2041  0.3014
   20CHL1   H25 1472   2.819   3.662   9.069  0.3778 -0.3042 -1.9478
   20CHL1   C26 1473   2.989   3.534   9.094  0.0357 -0.1864  0.3374
   20CHL1  H26A 1474   3.031   3.594   9.178 -0.2206 -0.9660  1.0277
   20CHL1  H26B 1475   3.008   3.428   9.119 -1.8494 -1.4851 -3.1432
   20CHL1  H26C 1476   3.039   3.564   8.999  0.2387 -1.4405  0.0366
   20CHL1   C27 1477   2.784   3.499   8.943  0.4984 -0.7985 -0.0665
   20CHL1  H27A 1478   2.674   3.514   8.955  0.6809  1.4161 -0.5937
   20CHL1  H27B 1479   2.822   3.566   8.862 -0.4781  0.7870  0.7210
   20CHL1  H27C 1480   2.806   3.393   8.918  2.3580 -0.2456 -1.0102
   21CHL1    C3 1481   5.227   6.698  10.255 -0.1023 -0.3061 -0.2122
   21CHL1    H3 1482   5.297   6.622  10.215  0.3660 -0.3780  0.7042
   21CHL1    O3 1483   5.260   6.730  10.388  0.1795  0.3882 -0.2758
   21CHL1   H3' 1484   5.196   6.797  10.413  0.6055 -0.0446  2.2583
   21CHL1    C4 1485   5.244   6.828  10.166  0.4390  0.4977  0.7789
   21CHL1   H4A 1486   5.185   6.909  10.215  0.9123  1.1576  0.2713
   21CHL1   H4B 1487   5.352   6.855  10.169  0.2331  1.4193  0.3204
   21CHL1    C5 1488   5.199   6.804  10.024  0.2474  0.4385  0.0267
   21CHL1    C6 1489   5.278   6.843   9.923 -0.4824 -0.4743  0.3209
   21CHL1    H6 1490   5.368   6.904   9.942 -0.4451 -0.6686  0.7749
   21CHL1    C7 1491   5.250   6.829   9.780  0.3358 -0.1449 -0.3757
   21CHL1   H7A 1492   5.256   6.926   9.725 -1.6354 -0.5386 -1.3993
   21CHL1   H7B 1493   5.314   6.748   9.740 -0.4364  0.2196 -2.4958
   21CHL1    C8 1494   5.100   6.784   9.749 -0.3395 -0.1933 -0.4642
   21CHL1    H8 1495   5.041   6.878   9.756  1.6213  0.9703  1.6678
   21CHL1   C14 1496   5.078   6.724   9.604  0.1705 -0.4221 -0.1113
   21CHL1   H14 1497   5.129   6.625   9.600  1.0382  0.0367 -0.6839
   21CHL1   C15 1498   5.140   6.797   9.482 -0.1151 -0.1236  0.4480
   21CHL1  H15A 1499   5.112   6.904   9.495  2.2300  0.7067 -0.6813
   21CHL1  H15B 1500   5.249   6.776   9.483  0.2419  1.3906  3.1272
   21CHL1   C16 1501   5.060   6.729   9.368  0.2452 -0.0571 -0.1007
   21CHL1  H16A 1502   5.004   6.806   9.311  1.1080  0.3773 -0.3763
   21CHL1  H16B 1503   5.133   6.676   9.304  1.1967  1.0016  0.0683
   21CHL1   C17 1504   4.950   6.643   9.428  0.1494 -0.2146 -0.1155
   21CHL1   H17 1505   4.980   6.538   9.446 -2.1338 -0.6270  1.8061
   21CHL1   C13 1506   4.931   6.701   9.570 -0.0796  0.9937 -0.4816
   21CHL1   C18 1507   4.850   6.833   9.571  0.0182 -0.2399  0.0398
   21CHL1  H18A 1508   4.865   6.911   9.493  0.9258  0.1380  0.5840
   21CHL1  H18B 1509   4.741   6.813   9.563  0.0126 -0.2235  0.0805
   21CHL1  H18C 1510   4.866   6.886   9.667  1.4343 -0.2343 -0.1677
   21CHL1   C12 1511   4.878   6.599   9.679  0.5966  0.4774 -0.6747
   21CHL1  H12A 1512   4.767   6.588   9.673  0.4918  0.0120  1.3624
   21CHL1  H12B 1513   4.931   6.502   9.670  0.5675  0.6187 -2.5756
   21CHL1   C11 1514   4.903   6.651   9.824  0.4791  0.4796 -0.9232
   21CHL1  H11A 1515   4.834   6.738   9.830  0.1669  0.2216 -0.8209
   21CHL1  H11B 1516   4.878   6.573   9.898  1.2168  0.1949 -0.9590
   21CHL1    C9 1517   5.046   6.685   9.859  0.7090 -0.3120 -0.5053
   21CHL1    H9 1518   5.110   6.594   9.852  0.6300 -0.2855 -1.6785
   21CHL1   C10 1519   5.069   6.727  10.007  0.0631  0.1063 -0.6050
   21CHL1   C19 1520   4.943   6.827  10.043  0.1473  0.1476  0.2380
   21CHL1  H19A 1521   4.970   6.897  10.124  3.2144  0.5303 -0.9710
   21CHL1  H19B 1522   4.921   6.895   9.957  1.4089 -1.2133 -1.2334
   21CHL1  H19C 1523   4.845   6.776  10.042 -1.3238  2.7475 -1.4261
   21CHL1    C1 1524   5.060   6.606  10.102 -0.2191  0.3357  0.2673
   21CHL1   H1A 1525   4.960   6.558  10.093 -0.2254  0.6119 -1.6074
   21CHL1   H1B 1526   5.124   6.526  10.057 -0.2236  1.1186 -1.1938
   21CHL1    C2 1527   5.088   6.642  10.249  0.0167 -0.0888  0.5216
   21CHL1   H2A 1528   5.088   6.545  10.305 -1.5164  0.5494  1.6879
   21CHL1   H2B 1529   5.017   6.715  10.294 -0.4795 -0.2023 -0.0631
   21CHL1   C20 1530   4.825   6.644   9.337  0.7337  0.7235 -1.2996
   21CHL1   H20 1531   4.794   6.750   9.331  1.3026  0.9563 -0.3342
   21CHL1   C21 1532   4.711   6.554   9.405  0.4909 -0.0464  0.1330
   21CHL1  H21A 1533   4.745   6.455   9.444 -0.4935  0.2705  1.9078
   21CHL1  H21B 1534   4.630   6.525   9.335  2.0271 -1.5569 -1.1233
   21CHL1  H21C 1535   4.667   6.620   9.483 -1.2884 -1.6104  0.5237
   21CHL1   C22 1536   4.854   6.581   9.200  0.3314  0.2292 -0.2772
   21CHL1  H22A 1537   4.919   6.645   9.136  0.3100  0.2572 -0.2707
   21CHL1  H22B 1538   4.897   6.479   9.213 -0.6174 -0.4439 -2.0347
   21CHL1   C23 1539   4.728   6.577   9.112  0.5923 -0.1260 -0.6322
   21CHL1  H23A 1540   4.652   6.502   9.142 -1.8992  2.1547 -0.8180
   21CHL1  H23B 1541   4.674   6.673   9.096  0.0192 -0.3614 -0.1555
   21CHL1   C24 1542   4.761   6.524   8.969  0.1219  0.4133 -0.1945
   21CHL1  H24A 1543   4.850   6.575   8.926  1.2602 -0.6522  0.8156
   21CHL1  H24B 1544   4.785   6.416   8.978 -1.0914  0.1720  0.2822
   21CHL1   C25 1545   4.645   6.534   8.867 -0.2222  0.0715 -0.0768
   21CHL1   H25 1546   4.640   6.640   8.835  0.6085  0.0153 -0.4060
   21CHL1   C26 1547   4.675   6.454   8.739  0.3649 -0.0632 -0.3905
   21CHL1  H26A 1548   4.668   6.345   8.762  1.2761  0.1974  1.3141
   21CHL1  H26B 1549   4.586   6.466   8.675 -1.4804 -4.2717  0.9854
   21CHL1  H26C 1550   4.777   6.475   8.700  0.1239  0.4655 -0.7313
   21CHL1   C27 1551   4.511   6.483   8.918 -0.4680 -1.2916 -0.6475
   21CHL1  H27A 1552   4.486   6.548   9.005  0.2969  0.3506 -1.6077
   21CHL1  H27B 1553   4.426   6.501   8.848 -2.0019  1.1309  1.6156
   21CHL1  H27C 1554   4.525   6.378   8.951  0.5362 -1.1545 -0.6189
   22CHL1    C3 1555   0.989   0.907  10.271 -0.5561  0.1407 -0.1331
   22CHL1    H3 1556   0.889   0.881  10.312 -0.7044 -2.4998 -1.9217
   22CHL1    O3 1557   1.073   0.932  10.382 -0.5933  0.2908  0.5385
   22CHL1   H3' 1558   1.029   0.995  10.440  0.0950 -0.4060  1.8757
   22CHL1    C4 1559   1.039   0.778  10.207  0.1884 -0.2440  0.5972
   22CHL1   H4A 1560   1.145   0.792  10.176 -0.7028  0.0954 -2.5980
   22CHL1   H4B 1561   1.026   0.697  10.282 -2.0282  0.4399  1.0253
   22CHL1    C5 1562   0.958   0.748  10.083  0.4830 -0.4192  0.2644
   22CHL1    C6 1563   0.889   0.635  10.064 -0.8556 -0.4510  0.2222
   22CHL1    H6 1564   0.887   0.552  10.137  1.9981 -1.3401 -0.6097
   22CHL1    C7 1565   0.820   0.599   9.936  0.3152 -0.1088 -0.4128
   22CHL1   H7A 1566   0.825   0.490   9.916 -0.8229 -0.5139  1.2652
   22CHL1   H7B 1567   0.710   0.618   9.945  0.3794  0.5267 -0.8651
   22CHL1    C8 1568   0.872   0.684   9.819  0.2899  0.2285  0.0976
   22CHL1    H8 1569   0.978   0.652   9.810  0.4005 -0.1585  2.2662
   22CHL1   C14 1570   0.785   0.656   9.696 -0.2350  0.3673 -0.2614
   22CHL1   H14 1571   0.685   0.692   9.728  0.4263  2.5028 -0.4240
   22CHL1   C15 1572   0.775   0.506   9.650  0.3700  0.5842 -0.4309
   22CHL1  H15A 1573   0.877   0.461   9.642  0.0887 -0.1182 -0.1913
   22CHL1  H15B 1574   0.707   0.450   9.717  0.1456  1.8560  0.4297
   22CHL1   C16 1575   0.708   0.516   9.512  0.6810  0.1708 -0.4481
   22CHL1  H16A 1576   0.766   0.460   9.436 -2.0743 -2.2758 -0.9626
   22CHL1  H16B 1577   0.607   0.468   9.513  1.3135 -1.2630  1.3337
   22CHL1   C17 1578   0.712   0.675   9.474 -0.7864 -0.4387 -0.4511
   22CHL1   H17 1579   0.621   0.731   9.504  1.2427  4.7186 -2.6821
   22CHL1   C13 1580   0.819   0.730   9.571  0.2613 -0.4018 -0.4635
   22CHL1   C18 1581   0.962   0.702   9.514 -0.4903 -0.2630  0.6189
   22CHL1  H18A 1582   0.992   0.774   9.434 -0.2508  0.0180  0.9620
   22CHL1  H18B 1583   1.037   0.689   9.594  0.0495 -0.6246  0.0622
   22CHL1  H18C 1584   0.960   0.603   9.464 -1.5017  0.5412 -1.0197
   22CHL1   C12 1585   0.801   0.885   9.611 -0.4063 -0.9656 -0.5417
   22CHL1  H12A 1586   0.829   0.946   9.523 -1.6124  1.2394  0.5110
   22CHL1  H12B 1587   0.693   0.897   9.633 -0.3675 -1.3481 -0.1188
   22CHL1   C11 1588   0.885   0.929   9.734  0.0081  1.4067  0.0105
   22CHL1  H11A 1589   0.990   0.907   9.705  0.3501  0.3990  1.8770
   22CHL1  H11B 1590   0.870   1.038   9.753  0.5632  1.7860 -1.6075
   22CHL1    C9 1591   0.862   0.828   9.859 -1.1167 -0.5473  0.3647
   22CHL1    H9 1592   0.761   0.852   9.898 -1.5227  1.2971 -1.6520
   22CHL1   C10 1593   0.966   0.857   9.978  0.5189  0.2945  0.8443
   22CHL1   C19 1594   1.110   0.883   9.923  0.5661 -0.2615 -0.6133
   22CHL1  H19A 1595   1.150   0.799   9.862 -0.1881 -2.8565  2.2267
   22CHL1  H19B 1596   1.115   0.980   9.869  2.5287  1.1661  1.8951
   22CHL1  H19C 1597   1.183   0.899  10.006 -0.9918  1.0383  0.5600
   22CHL1    C1 1598   0.925   0.992  10.045 -0.8852 -0.0070 -0.0301
   22CHL1   H1A 1599   0.942   1.078   9.976  2.0215 -0.7863 -0.4216
   22CHL1   H1B 1600   0.819   0.982  10.075 -0.7742  2.2887  1.3705
   22CHL1    C2 1601   1.001   1.023  10.176 -0.1421  0.8509  0.6366
   22CHL1   H2A 1602   0.947   1.106  10.226 -0.0812  0.1374  1.9081
   22CHL1   H2B 1603   1.107   1.051  10.157 -0.4056  0.1795 -2.4846
   22CHL1   C20 1604   0.733   0.703   9.325 -0.4886  0.4000 -1.0922
   22CHL1   H20 1605   0.841   0.692   9.300  0.0601  2.4372  0.1333
   22CHL1   C21 1606   0.688   0.850   9.301  0.3127  0.4697  0.1829
   22CHL1  H21A 1607   0.582   0.840   9.271  0.7083 -3.2001 -0.4747
   22CHL1  H21B 1608   0.750   0.892   9.218  0.7033  1.5148  0.9959
   22CHL1  H21C 1609   0.704   0.932   9.373  2.7451  1.5261 -1.3881
   22CHL1   C22 1610   0.672   0.593   9.231  0.2919  0.1131  0.5397
   22CHL1  H22A 1611   0.723   0.495   9.236  0.3649  0.1265  0.1291
   22CHL1  H22B 1612   0.568   0.571   9.262  0.5467 -5.0655 -1.3910
   22CHL1   C23 1613   0.665   0.630   9.079 -0.0990  0.1817  0.0387
   22CHL1  H23A 1614   0.621   0.541   9.029  0.2456 -0.7166  1.2875
   22CHL1  H23B 1615   0.590   0.711   9.083  0.6662  0.8820  0.4709
   22CHL1   C24 1616   0.804   0.677   9.018  0.6153  0.2590 -0.0815
   22CHL1  H24A 1617   0.857   0.755   9.076  0.7323  0.5570 -0.5738
   22CHL1  H24B 1618   0.877   0.594   9.025  2.2749  1.7356  0.9782
   22CHL1   C25 1619   0.786   0.718   8.873 -0.0020 -0.0711  0.2428
   22CHL1   H25 1620   0.746   0.637   8.808 -0.7534 -0.1406  0.7836
   22CHL1   C26 1621   0.690   0.842   8.866  0.7581  1.0954  0.3731
   22CHL1  H26A 1622   0.736   0.930   8.917  1.7831  0.9950 -0.3372
   22CHL1  H26B 1623   0.672   0.852   8.757 -2.2056 -0.6088  0.6158
   22CHL1  H26C 1624   0.601   0.818   8.927  0.9267 -1.3557 -0.2491
   22CHL1   C27 1625   0.923   0.756   8.815  0.3988 -0.5116 -0.5562
   22CHL1  H27A 1626   1.005   0.682   8.814  1.5337  0.6878  0.1684
   22CHL1  H27B 1627   0.901   0.790   8.711 -0.3689 -1.8646 -0.8567
   22CHL1  H27C 1628   0.966   0.829   8.886  0.2177 -2.1415  1.2975
   23CHL1    C3 1629   3.069   3.322  10.433  0.2720  0.3548  0.6054
   23CHL1    H3 1630   2.967   3.359  10.410 -0.3685 -1.3415  0.6158
   23CHL1    O3 1631   3.064   3.320  10.568 -0.2305 -0.3783  0.0302
   23CHL1   H3' 1632   3.057   3.411  10.596 -2.9305 -0.9161  1.5262
   23CHL1    C4 1633   3.089   3.177  10.384  0.1804 -0.3490  0.1999
   23CHL1   H4A 1634   3.189   3.143  10.419 -0.4130 -0.9408  1.3803
   23CHL1   H4B 1635   3.028   3.114  10.452  1.0352 -0.5874  0.7560
   23CHL1    C5 1636   3.075   3.161  10.235 -0.6274  0.6797  0.0864
   23CHL1    C6 1637   2.995   3.075  10.180  0.0705 -0.0326  0.5076
   23CHL1    H6 1638   2.929   3.020  10.249 -1.4644  0.8677 -0.1947
   23CHL1    C7 1639   2.989   3.055  10.035  0.3272  0.3809  0.2631
   23CHL1   H7A 1640   2.994   2.944  10.025  0.7665  0.2569  1.5791
   23CHL1   H7B 1641   2.888   3.079   9.994  0.1131  0.5785  0.8880
   23CHL1    C8 1642   3.104   3.111   9.950  0.1815 -0.3950  0.2711
   23CHL1    H8 1643   3.190   3.040   9.956  0.9942  0.2401 -2.4913
   23CHL1   C14 1644   3.066   3.124   9.806 -0.1124  0.3074  1.0419
   23CHL1   H14 1645   2.989   3.204   9.795  0.1553  0.3688 -0.7421
   23CHL1   C15 1646   3.009   3.002   9.723 -0.0908  0.6464  0.3546
   23CHL1  H15A 1647   3.068   2.913   9.755 -2.2248 -0.6663  0.8512
   23CHL1  H15B 1648   2.903   2.973   9.736 -0.0209  0.3880  0.3657
   23CHL1   C16 1649   3.024   3.045   9.577 -0.2590 -0.0701 -0.3099
   23CHL1  H16A 1650   3.067   2.960   9.520  1.8071  0.3090  0.6110
   23CHL1  H16B 1651   2.926   3.078   9.537  0.4660  1.9581 -0.5101
   23CHL1   C17 1652   3.113   3.176   9.576  0.2085 -0.3738 -0.4634
   23CHL1   H17 1653   3.039   3.257   9.561  1.0530  0.0896 -2.6442
   23CHL1   C13 1654   3.175   3.182   9.713 -1.1455  0.6811  0.0172
   23CHL1   C18 1655   3.309   3.099   9.715  0.5062  0.7528 -0.3500
   23CHL1  H18A 1656   3.389   3.157   9.664  1.4598 -0.6442 -0.4971
   23CHL1  H18B 1657   3.343   3.071   9.817  0.9066 -0.4074 -0.7886
   23CHL1  H18C 1658   3.287   3.009   9.655 -0.2198  0.2205  0.6969
   23CHL1   C12 1659   3.203   3.326   9.766 -0.1565  0.3086  0.6236
   23CHL1  H12A 1660   3.279   3.381   9.706 -1.3054  1.3886  0.1139
   23CHL1  H12B 1661   3.119   3.394   9.743  1.0779  1.7090  0.0969
   23CHL1   C11 1662   3.242   3.328   9.907 -0.2332 -0.4754  0.1630
   23CHL1  H11A 1663   3.339   3.275   9.919 -0.7379 -1.9554 -1.9097
   23CHL1  H11B 1664   3.250   3.435   9.937 -2.9734 -0.2656  0.3858
   23CHL1    C9 1665   3.143   3.251  10.000  1.0590  0.4218  0.1671
   23CHL1    H9 1666   3.049   3.311   9.998  0.7912  0.0575  1.0597
   23CHL1   C10 1667   3.175   3.250  10.155 -0.2526  0.1523 -0.2185
   23CHL1   C19 1668   3.315   3.188  10.175  0.1249 -0.5480 -0.3974
   23CHL1  H19A 1669   3.331   3.185  10.285 -2.4071  3.2699  0.2733
   23CHL1  H19B 1670   3.329   3.088  10.128 -0.1193  0.0524 -1.8067
   23CHL1  H19C 1671   3.393   3.254  10.132 -0.5774  2.1928  2.2214
   23CHL1    C1 1672   3.168   3.394  10.215 -0.0011 -1.2756  0.0127
   23CHL1   H1A 1673   3.260   3.441  10.176 -0.8961  0.2289 -0.3745
   23CHL1   H1B 1674   3.081   3.452  10.177  0.1689 -0.5549  0.7144
   23CHL1    C2 1675   3.163   3.421  10.365  0.5530  0.5629 -0.4933
   23CHL1   H2A 1676   3.143   3.527  10.390  0.9338  0.9168 -1.6022
   23CHL1   H2B 1677   3.262   3.396  10.410  0.5188 -0.7993 -1.1426
   23CHL1   C20 1678   3.201   3.184   9.450  0.1278  0.0324 -0.7201
   23CHL1   H20 1679   3.280   3.108   9.470 -0.9818 -0.8878  0.3642
   23CHL1   C21 1680   3.258   3.327   9.423  0.0045 -0.6035  1.0992
   23CHL1  H21A 1681   3.328   3.313   9.338 -0.8744  1.0914  0.0373
   23CHL1  H21B 1682   3.313   3.367   9.512  0.2987  2.1368 -0.2029
   23CHL1  H21C 1683   3.184   3.401   9.387  2.3946  0.2621 -2.5693
   23CHL1   C22 1684   3.119   3.141   9.323  0.4808  0.0143 -0.1973
   23CHL1  H22A 1685   3.090   3.035   9.338  3.0121 -1.0694 -2.0750
   23CHL1  H22B 1686   3.030   3.206   9.318  0.7970  0.4159 -0.6306
   23CHL1   C23 1687   3.204   3.146   9.194 -0.3876  0.3997 -0.0254
   23CHL1  H23A 1688   3.224   3.251   9.162 -0.2532 -0.2133 -2.1075
   23CHL1  H23B 1689   3.299   3.090   9.208 -0.7847 -0.2286  0.1748
   23CHL1   C24 1690   3.124   3.087   9.080  0.9286  0.2721 -0.7173
   23CHL1  H24A 1691   3.120   2.977   9.094  3.3236  0.3233  0.7323
   23CHL1  H24B 1692   3.019   3.124   9.088  0.2695 -1.4323 -0.9150
   23CHL1   C25 1693   3.162   3.119   8.935  0.2950 -0.2746 -0.3432
   23CHL1   H25 1694   3.179   3.228   8.925 -0.9161 -0.1866 -1.6944
   23CHL1   C26 1695   3.285   3.024   8.913 -0.0706  0.2471  0.0500
   23CHL1  H26A 1696   3.304   3.004   8.805 -0.5969 -3.7401  0.5705
   23CHL1  H26B 1697   3.372   3.071   8.964  0.2860 -0.9208  0.5378
   23CHL1  H26C 1698   3.268   2.924   8.958 -0.1877  0.3757  0.2926
   23CHL1   C27 1699   3.050   3.083   8.836 -0.4148 -0.6813 -0.4230
   23CHL1  H27A 1700   2.971   3.157   8.859  0.3575  0.3844 -1.1094
   23CHL1  H27B 1701   3.077   3.100   8.729  1.4218 -0.5462  0.0260
   23CHL1  H27C 1702   3.012   2.982   8.862 -2.5635 -0.3398 -1.9666
   24CHL1    C3 1703   4.398   2.328  10.406  0.1447 -0.0023 -0.1669
   24CHL1    H3 1704   4.408   2.217  10.409 -0.1919 -0.0371 -0.2235
   24CHL1    O3 1705   4.409   2.364  10.544 -0.3522 -0.0665  0.0814
   24CHL1   H3' 1706   4.323   2.371  10.585  0.7488  1.4521  2.3717
   24CHL1    C4 1707   4.505   2.397  10.323  0.0191 -0.3239  1.0059
   24CHL1   H4A 1708   4.514   2.508  10.334 -0.0676  0.6529 -5.1935
   24CHL1   H4B 1709   4.601   2.354  10.358 -0.3616 -3.4301 -1.3135
   24CHL1    C5 1710   4.492   2.368  10.173  0.2443 -0.5426  0.0628
   24CHL1    C6 1711   4.590   2.305  10.101  0.5820 -0.2955 -0.4903
   24CHL1    H6 1712   4.682   2.278  10.154  0.0145 -1.8277 -0.2283
   24CHL1    C7 1713   4.587   2.285   9.956  0.3337  0.5161  0.6912
   24CHL1   H7A 1714   4.689   2.304   9.917 -0.3403  2.3618 -0.2574
   24CHL1   H7B 1715   4.578   2.174   9.946  2.8049  0.0274  2.7899
   24CHL1    C8 1716   4.473   2.355   9.888 -0.2621 -0.8507 -0.2439
   24CHL1    H8 1717   4.514   2.457   9.872  0.6303 -1.3896 -1.5116
   24CHL1   C14 1718   4.440   2.306   9.741  0.1886 -0.1072 -0.0634
   24CHL1   H14 1719   4.401   2.203   9.755 -1.9483  0.2674 -2.4866
   24CHL1   C15 1720   4.561   2.306   9.649 -0.4525  0.0478  0.6450
   24CHL1  H15A 1721   4.631   2.391   9.664  2.5742 -1.7646 -2.0802
   24CHL1  H15B 1722   4.626   2.220   9.676  2.0704  2.5176  2.9935
   24CHL1   C16 1723   4.495   2.305   9.510  0.0850  0.2670 -0.5241
   24CHL1  H16A 1724   4.529   2.397   9.458  2.6089 -1.3870 -2.0415
   24CHL1  H16B 1725   4.533   2.222   9.446  1.0498 -0.7411  1.2740
   24CHL1   C17 1726   4.341   2.318   9.530  0.1710  0.4578  0.3516
   24CHL1   H17 1727   4.306   2.213   9.528  1.5876 -0.1152 -3.5229
   24CHL1   C13 1728   4.333   2.387   9.663  0.7772  0.2943  0.0697
   24CHL1   C18 1729   4.366   2.544   9.654 -0.6669  0.4844  0.2116
   24CHL1  H18A 1730   4.472   2.561   9.628 -0.3996 -1.3123 -0.0399
   24CHL1  H18B 1731   4.299   2.595   9.582  0.8013 -0.2936 -1.8088
   24CHL1  H18C 1732   4.348   2.591   9.753  0.8781  1.1590  0.1924
   24CHL1   C12 1733   4.207   2.362   9.745  0.1618 -0.0995  0.1049
   24CHL1  H12A 1734   4.127   2.416   9.688  0.5665  0.1606 -0.2272
   24CHL1  H12B 1735   4.176   2.256   9.741  1.4296 -0.4466 -2.1728
   24CHL1   C11 1736   4.214   2.403   9.887 -0.3310  0.4508 -0.2966
   24CHL1  H11A 1737   4.210   2.514   9.887 -0.5860  0.4579  0.7575
   24CHL1  H11B 1738   4.125   2.366   9.943 -1.0176 -0.2959 -1.8167
   24CHL1    C9 1739   4.338   2.353   9.971 -0.0069  0.3613  0.3429
   24CHL1    H9 1740   4.326   2.242   9.974  1.6924  0.1407  0.2662
   24CHL1   C10 1741   4.352   2.403  10.113  0.2658 -0.8701 -0.1648
   24CHL1   C19 1742   4.327   2.556  10.117 -0.1427  0.0402 -0.0093
   24CHL1  H19A 1743   4.225   2.578  10.079 -0.4431  0.1150  0.8188
   24CHL1  H19B 1744   4.325   2.589  10.223 -2.0977 -0.0870  0.0171
   24CHL1  H19C 1745   4.413   2.601  10.063 -0.8080  0.0095 -1.1175
   24CHL1    C1 1746   4.257   2.333  10.207  0.6266 -0.2980 -0.4088
   24CHL1   H1A 1747   4.156   2.362  10.171 -0.5922 -0.9581  2.2103
   24CHL1   H1B 1748   4.264   2.223  10.198 -1.5110 -0.5346  0.1822
   24CHL1    C2 1749   4.262   2.366  10.358 -0.1862 -0.4381 -0.0820
   24CHL1   H2A 1750   4.174   2.312  10.399 -0.8358 -1.8164 -3.0855
   24CHL1   H2B 1751   4.247   2.474  10.380 -1.1466 -0.2031 -1.7004
   24CHL1   C20 1752   4.275   2.380   9.407 -0.1473  0.0578  0.0536
   24CHL1   H20 1753   4.325   2.478   9.391  1.4333 -0.8129 -0.5522
   24CHL1   C21 1754   4.123   2.396   9.427 -0.8162 -0.5039 -0.5074
   24CHL1  H21A 1755   4.081   2.314   9.490 -4.9089  1.7544  0.0758
   24CHL1  H21B 1756   4.060   2.408   9.336 -1.2763  1.9485  0.0632
   24CHL1  H21C 1757   4.091   2.485   9.486  0.8852 -0.2163  0.0253
   24CHL1   C22 1758   4.291   2.291   9.278 -0.0781 -0.9617 -0.1177
   24CHL1  H22A 1759   4.390   2.241   9.275  0.7860  0.5151  1.8943
   24CHL1  H22B 1760   4.216   2.212   9.297  0.2547 -1.3841 -0.5404
   24CHL1   C23 1761   4.258   2.369   9.151 -0.1703 -0.5372 -0.8583
   24CHL1  H23A 1762   4.155   2.408   9.165  0.0678  0.7597 -2.2950
   24CHL1  H23B 1763   4.331   2.453   9.149  1.1080 -1.5544  0.7682
   24CHL1   C24 1764   4.279   2.297   9.017 -0.5211  0.4438  0.0514
   24CHL1  H24A 1765   4.258   2.188   9.018  0.1065  0.2225 -2.7021
   24CHL1  H24B 1766   4.203   2.337   8.947  0.1626  0.0254 -0.9516
   24CHL1   C25 1767   4.416   2.324   8.955 -0.3081  0.0678 -1.0671
   24CHL1   H25 1768   4.416   2.435   8.946 -0.5492 -0.0635 -3.2046
   24CHL1   C26 1769   4.529   2.263   9.033 -0.1562  0.1313 -0.1229
   24CHL1  H26A 1770   4.518   2.153   9.043  0.9016  0.1858  2.8969
   24CHL1  H26B 1771   4.632   2.277   8.995 -0.6381  0.5786 -1.3021
   24CHL1  H26C 1772   4.512   2.306   9.134 -1.8200  2.0863 -1.1599
   24CHL1   C27 1773   4.410   2.269   8.806 -0.2052  0.6261  0.3393
   24CHL1  H27A 1774   4.319   2.310   8.757  0.3900  1.6289  0.0538
   24CHL1  H27B 1775   4.499   2.292   8.744 -1.0491  0.3739 -1.0122
   24CHL1  H27C 1776   4.408   2.158   8.815 -0.3366  0.4012 -1.8509
   25CHL1    C3 1777   6.104   4.323  10.403 -0.0470 -0.2860  0.3415
   25CHL1    H3 1778   6.034   4.237  10.394  1.1687 -1.3493  0.7811
   25CHL1    O3 1779   6.143   4.340  10.540  0.1392 -0.0067 -0.3295
   25CHL1   H3' 1780   6.184   4.426  10.556 -1.7463  0.6266  1.6812
   25CHL1    C4 1781   6.222   4.292  10.314  0.4625 -0.5826  0.2356
   25CHL1   H4A 1782   6.298   4.373  10.320 -1.0471  0.8251  1.1742
   25CHL1   H4B 1783   6.265   4.207  10.371  1.2129 -0.1964  0.2557
   25CHL1    C5 1784   6.198   4.278  10.166  0.5412 -0.3130 -0.2086
   25CHL1    C6 1785   6.240   4.171  10.099 -0.1784  0.2884  0.0527
   25CHL1    H6 1786   6.302   4.094  10.147  1.4656 -0.1461 -2.5161
   25CHL1    C7 1787   6.234   4.163   9.952 -0.1411 -0.2894 -0.4191
   25CHL1   H7A 1788   6.335   4.134   9.916 -0.4000  0.5762 -1.9067
   25CHL1   H7B 1789   6.165   4.083   9.919  1.0699 -1.6840  0.3161
   25CHL1    C8 1790   6.207   4.298   9.889  0.0107  0.1065  0.8833
   25CHL1    H8 1791   6.296   4.364   9.900  0.3730 -0.4171  1.1174
   25CHL1   C14 1792   6.170   4.277   9.743  0.0024 -0.3585  0.2989
   25CHL1   H14 1793   6.075   4.221   9.754 -1.3034  2.0540  2.6065
   25CHL1   C15 1794   6.274   4.199   9.652  0.0759 -0.4237  0.6718
   25CHL1  H15A 1795   6.382   4.219   9.671  0.7632 -3.3083  0.2365
   25CHL1  H15B 1796   6.242   4.096   9.680 -2.3275 -0.0559 -0.4649
   25CHL1   C16 1797   6.221   4.230   9.517  0.3408 -0.5480 -0.1284
   25CHL1  H16A 1798   6.297   4.282   9.455 -0.1044  1.2043  0.7497
   25CHL1  H16B 1799   6.188   4.138   9.465  1.1666 -1.3157  0.6587
   25CHL1   C17 1800   6.107   4.332   9.524  0.4781 -0.0279  0.0226
   25CHL1   H17 1801   6.018   4.267   9.533 -0.5685  1.3275 -0.1567
   25CHL1   C13 1802   6.118   4.401   9.660  0.9318 -0.2836 -0.2537
   25CHL1   C18 1803   6.232   4.502   9.649 -0.2177 -0.1142 -0.7689
   25CHL1  H18A 1804   6.188   4.598   9.613  0.6444 -0.0250 -1.6523
   25CHL1  H18B 1805   6.274   4.519   9.750 -1.0908  2.3894 -0.7443
   25CHL1  H18C 1806   6.325   4.478   9.593  0.5631  1.3943 -0.1664
   25CHL1   C12 1807   5.993   4.462   9.727  0.1166  0.4779 -0.0954
   25CHL1  H12A 1808   5.979   4.563   9.684  1.2329  0.5852 -0.2257
   25CHL1  H12B 1809   5.899   4.403   9.730 -0.3113  1.1834  1.3761
   25CHL1   C11 1810   6.018   4.480   9.879  0.8282  0.3188  0.2621
   25CHL1  H11A 1811   6.066   4.580   9.885 -1.2186  1.4281 -0.7955
   25CHL1  H11B 1812   5.915   4.490   9.921  0.5360  0.1290 -0.3842
   25CHL1    C9 1813   6.083   4.369   9.961 -0.4630 -0.1549  0.1381
   25CHL1    H9 1814   6.006   4.290   9.963  0.7338 -1.3630  0.3556
   25CHL1   C10 1815   6.124   4.403  10.108  0.1160 -0.9937  0.1568
   25CHL1   C19 1816   6.228   4.527  10.107  0.6234  0.4812 -0.3574
   25CHL1  H19A 1817   6.319   4.496  10.052 -0.4246 -1.4917 -1.0808
   25CHL1  H19B 1818   6.188   4.614  10.049 -1.0804 -0.1920 -0.2601
   25CHL1  H19C 1819   6.243   4.566  10.210 -1.7109  2.3509 -0.6340
   25CHL1    C1 1820   6.000   4.442  10.197  0.3927 -0.1182 -0.4645
   25CHL1   H1A 1821   5.979   4.546  10.165  3.2391  1.0047  0.9712
   25CHL1   H1B 1822   5.917   4.370  10.182  0.3794 -0.3235  0.5575
   25CHL1    C2 1823   6.026   4.443  10.350  0.8463  0.0188  0.0625
   25CHL1   H2A 1824   5.923   4.441  10.394  0.0670 -0.0616 -1.6943
   25CHL1   H2B 1825   6.076   4.539  10.372  0.6554 -0.1420  1.2893
   25CHL1   C20 1826   6.091   4.420   9.400 -0.0133 -0.1306  0.9208
   25CHL1   H20 1827   6.183   4.481   9.384  2.1490 -3.0728  1.3593
   25CHL1   C21 1828   5.974   4.523   9.408 -0.5610  0.1724 -0.7162
   25CHL1  H21A 1829   5.997   4.605   9.479 -0.5137  0.7842 -1.4302
   25CHL1  H21B 1830   5.882   4.472   9.446 -0.2630 -0.2099 -0.4944
   25CHL1  H21C 1831   5.954   4.565   9.307  1.3532  1.4674 -0.5977
   25CHL1   C22 1832   6.075   4.343   9.266 -0.0882  0.7068  0.1351
   25CHL1  H22A 1833   6.141   4.254   9.257 -0.5644  0.4078 -0.4714
   25CHL1  H22B 1834   5.969   4.311   9.260  0.2686 -0.5910  0.3572
   25CHL1   C23 1835   6.099   4.418   9.130  0.4202  0.3806  0.0606
   25CHL1  H23A 1836   6.081   4.339   9.055  3.2323 -0.1007 -0.1999
   25CHL1  H23B 1837   6.024   4.499   9.117 -0.2682 -0.3043 -0.2874
   25CHL1   C24 1838   6.240   4.465   9.108  0.2100  0.5042  0.9228
   25CHL1  H24A 1839   6.286   4.520   9.194  0.0579 -0.3347  1.5571
   25CHL1  H24B 1840   6.304   4.377   9.085  0.5509  0.3799  2.2308
   25CHL1   C25 1841   6.264   4.558   8.988  0.7509  0.0824 -0.6674
   25CHL1   H25 1842   6.191   4.642   8.995  0.7818  0.0441  0.2044
   25CHL1   C26 1843   6.411   4.621   8.997  0.1204  0.2345  0.6674
   25CHL1  H26A 1844   6.417   4.710   8.932 -0.1837  0.4276  0.9006
   25CHL1  H26B 1845   6.426   4.659   9.100  0.5675  1.8144  0.0392
   25CHL1  H26C 1846   6.490   4.546   8.977 -0.6020 -0.0630 -1.3609
   25CHL1   C27 1847   6.249   4.488   8.848  0.0952 -0.2990  0.1855
   25CHL1  H27A 1848   6.146   4.447   8.840  0.0574 -0.0466 -0.7158
   25CHL1  H27B 1849   6.275   4.562   8.769  1.0244 -0.3019  0.4784
   25CHL1  H27C 1850   6.312   4.397   8.850 -1.5587 -1.5033  1.7845
   26CHL1    C3 1851   2.152   1.979  10.386 -0.5096 -0.3840  0.4849
   26CHL1    H3 1852   2.201   2.066  10.338  2.9636 -2.9990 -1.1251
   26CHL1    O3 1853   2.158   1.978  10.534  0.2988 -0.2895  0.1064
   26CHL1   H3' 1854   2.129   1.891  10.562  1.4807 -0.1588  1.9271
   26CHL1    C4 1855   2.004   1.979  10.349  0.1864  0.1372 -0.4827
   26CHL1   H4A 1856   1.951   1.891  10.392  1.3039 -0.9022 -1.1286
   26CHL1   H4B 1857   1.962   2.071  10.393  0.3714 -0.5978  1.3058
   26CHL1    C5 1858   1.996   1.984  10.197  0.1852  0.7756  0.1320
   26CHL1    C6 1859   1.933   2.085  10.144 -0.2710 -0.0934  0.3416
   26CHL1    H6 1860   1.881   2.159  10.206  0.1826  1.1871 -0.7526
   26CHL1    C7 1861   1.903   2.093   9.994 -0.9305 -0.5950 -0.1764
   26CHL1   H7A 1862   1.795   2.119   9.983 -0.7966  1.1787  1.9081
   26CHL1   H7B 1863   1.960   2.177   9.949 -1.0581 -1.0103 -1.1464
   26CHL1    C8 1864   1.933   1.962   9.915  0.2853  0.8992 -0.3130
   26CHL1    H8 1865   1.855   1.889   9.947  0.9144  0.2274 -0.2954
   26CHL1   C14 1866   1.925   1.979   9.762 -0.2916 -0.2423 -0.7090
   26CHL1   H14 1867   1.987   2.065   9.727 -0.4359  0.0528 -0.2449
   26CHL1   C15 1868   1.784   2.015   9.722  0.0899 -0.1164  0.6839
   26CHL1  H15A 1869   1.712   1.948   9.774  0.2450  0.9888  2.4023
   26CHL1  H15B 1870   1.744   2.116   9.743 -1.3104 -0.5089  0.0696
   26CHL1   C16 1871   1.796   2.001   9.566  0.1763  0.4601  0.7112
   26CHL1  H16A 1872   1.718   1.925   9.544  1.4787 -1.1886  1.5582
   26CHL1  H16B 1873   1.785   2.097   9.512 -0.8964  1.0796  1.9765
   26CHL1   C17 1874   1.940   1.921   9.536  0.9653 -0.5728  0.4635
   26CHL1   H17 1875   2.013   2.001   9.512  1.1060 -1.2200 -1.4002
   26CHL1   C13 1876   1.967   1.859   9.675  0.1982 -0.3218  0.7615
   26CHL1   C18 1877   1.879   1.735   9.694  1.0328 -0.2100 -0.3315
   26CHL1  H18A 1878   1.854   1.715   9.800 -0.1738 -0.9069 -0.7204
   26CHL1  H18B 1879   1.777   1.741   9.648  0.3028 -2.2843  0.8867
   26CHL1  H18C 1880   1.931   1.642   9.664 -2.1028 -1.7526 -1.5299
   26CHL1   C12 1881   2.110   1.832   9.714  0.1401  0.1039 -0.4462
   26CHL1  H12A 1882   2.148   1.743   9.660  0.8328 -1.4016  2.3340
   26CHL1  H12B 1883   2.182   1.916   9.711  1.3393 -0.7965  1.3196
   26CHL1   C11 1884   2.109   1.789   9.871 -0.2124 -0.3766 -0.2232
   26CHL1  H11A 1885   2.044   1.701   9.887  1.1043 -1.6120 -1.3312
   26CHL1  H11B 1886   2.215   1.765   9.896  0.4031  2.6012  0.4804
   26CHL1    C9 1887   2.066   1.903   9.966 -0.8947 -0.0656  0.2539
   26CHL1    H9 1888   2.153   1.971   9.952  2.1278 -3.6266  0.1828
   26CHL1   C10 1889   2.059   1.866  10.115 -0.1816 -0.2654 -0.1058
   26CHL1   C19 1890   1.973   1.741  10.140 -0.1212 -0.0042 -0.0673
   26CHL1  H19A 1891   2.037   1.657  10.105  1.0879  0.8623 -0.0067
   26CHL1  H19B 1892   1.957   1.723  10.248 -2.8957 -1.9237 -0.6977
   26CHL1  H19C 1893   1.871   1.747  10.098 -0.9103 -0.6904  1.6924
   26CHL1    C1 1894   2.204   1.859  10.175  0.2762  0.4856 -0.0999
   26CHL1   H1A 1895   2.265   1.776  10.133  0.6689  1.4330 -1.4918
   26CHL1   H1B 1896   2.262   1.946  10.137 -0.2747  1.0980  0.4399
   26CHL1    C2 1897   2.218   1.854  10.328  0.4213 -0.4772  0.0556
   26CHL1   H2A 1898   2.327   1.853  10.352  0.0648  0.0753  1.8948
   26CHL1   H2B 1899   2.173   1.760  10.365  3.5417 -2.8263 -1.6240
   26CHL1   C20 1900   1.947   1.822   9.419 -0.7700 -0.2963  0.6340
   26CHL1   H20 1901   1.901   1.724   9.441  2.3443 -2.3921 -1.3979
   26CHL1   C21 1902   2.096   1.802   9.372 -0.3955  0.3360 -1.1307
   26CHL1  H21A 1903   2.142   1.902   9.360  1.7292 -0.4878 -0.3361
   26CHL1  H21B 1904   2.105   1.745   9.277 -0.7672  2.0277 -2.2292
   26CHL1  H21C 1905   2.145   1.744   9.453 -1.2402 -0.3405 -1.0835
   26CHL1   C22 1906   1.859   1.866   9.298 -0.3576  0.7824 -0.0872
   26CHL1  H22A 1907   1.874   1.782   9.226 -1.4997  0.9086 -0.4861
   26CHL1  H22B 1908   1.753   1.862   9.331 -1.5582 -1.4107 -3.6759
   26CHL1   C23 1909   1.896   2.007   9.232 -0.3698  0.2914  0.0194
   26CHL1  H23A 1910   1.874   2.097   9.293  0.8454  1.0489 -0.6125
   26CHL1  H23B 1911   2.005   2.004   9.210  0.2458  1.8986  2.3857
   26CHL1   C24 1912   1.824   2.041   9.103  0.1314 -0.0995  0.1945
   26CHL1  H24A 1913   1.865   2.130   9.052 -1.7481  1.1304  0.7390
   26CHL1  H24B 1914   1.832   1.955   9.032  0.1514 -0.3356  0.4815
   26CHL1   C25 1915   1.669   2.066   9.115 -0.4341  0.3727 -0.0285
   26CHL1   H25 1916   1.617   1.976   9.155  0.3289  0.2745  0.7548
   26CHL1   C26 1917   1.634   2.182   9.215  0.4058  0.6898 -0.0299
   26CHL1  H26A 1918   1.706   2.265   9.200  0.0817  0.8068 -0.9699
   26CHL1  H26B 1919   1.527   2.212   9.206  0.4846  1.2353  0.7315
   26CHL1  H26C 1920   1.649   2.138   9.316  3.7697 -0.6009 -0.9594
   26CHL1   C27 1921   1.611   2.093   8.979 -0.1666 -0.4530  0.5026
   26CHL1  H27A 1922   1.509   2.134   8.995  0.6472  2.7317 -1.4906
   26CHL1  H27B 1923   1.672   2.178   8.942  1.8354 -1.7369  0.7142
   26CHL1  H27C 1924   1.619   2.006   8.910  0.1137  1.1725 -1.6341
   27CHL1    C3 1925   6.744   3.212  10.532  0.4244  0.2297 -0.4710
   27CHL1    H3 1926   6.836   3.159  10.500  0.9090  0.2329  0.8587
   27CHL1    O3 1927   6.714   3.167  10.668  0.1486  0.1121  0.3015
   27CHL1   H3' 1928   6.634   3.215  10.691 -1.1905 -1.2465 -1.2866
   27CHL1    C4 1929   6.773   3.362  10.521  0.1205 -0.1405  0.3252
   27CHL1   H4A 1930   6.687   3.418  10.564  0.0599  1.3677 -1.6147
   27CHL1   H4B 1931   6.855   3.404  10.584  0.1351  0.2328  0.0632
   27CHL1    C5 1932   6.787   3.407  10.379 -0.1925  0.2657  0.9382
   27CHL1    C6 1933   6.893   3.477  10.341  0.1610 -0.2599  0.0676
   27CHL1    H6 1934   6.962   3.514  10.418 -0.9963 -1.3640  1.6957
   27CHL1    C7 1935   6.933   3.531  10.210 -0.0041  0.2923  0.5654
   27CHL1   H7A 1936   6.966   3.638  10.213  1.5421 -0.1593  0.6949
   27CHL1   H7B 1937   7.031   3.485  10.183  0.0346  0.5170  0.3178
   27CHL1    C8 1938   6.816   3.515  10.112 -0.2146  0.1927  0.3543
   27CHL1    H8 1939   6.735   3.588  10.129 -0.3821  0.6229 -1.9965
   27CHL1   C14 1940   6.869   3.521   9.970  0.9082 -0.6098  0.9935
   27CHL1   H14 1941   6.938   3.434   9.966  2.3108  0.4895 -0.2713
   27CHL1   C15 1942   6.961   3.639   9.924 -0.8090  0.0859 -0.8267
   27CHL1  H15A 1943   6.921   3.733   9.967  1.2703 -0.0458  1.6094
   27CHL1  H15B 1944   7.061   3.624   9.970 -1.8472  0.3458  1.6998
   27CHL1   C16 1945   6.961   3.638   9.771 -0.0966  0.0701  0.0607
   27CHL1  H16A 1946   6.930   3.741   9.741  1.7564  0.8893  0.7915
   27CHL1  H16B 1947   7.062   3.619   9.728 -0.0759 -0.1262  0.1980
   27CHL1   C17 1948   6.858   3.524   9.731 -0.0517  0.3818  0.0213
   27CHL1   H17 1949   6.912   3.428   9.719 -1.5945 -0.4389 -0.6450
   27CHL1   C13 1950   6.764   3.510   9.857 -0.1804  0.1973  0.5318
   27CHL1   C18 1951   6.667   3.629   9.867  0.3590  0.7795 -0.5078
   27CHL1  H18A 1952   6.579   3.606   9.804 -0.8709  0.6498  1.2005
   27CHL1  H18B 1953   6.640   3.641   9.974  2.1479 -4.1842  0.7879
   27CHL1  H18C 1954   6.718   3.724   9.840  1.2645  0.0261 -1.5410
   27CHL1   C12 1955   6.697   3.368   9.873 -0.0077  0.3300 -0.2592
   27CHL1  H12A 1956   6.616   3.346   9.800 -0.9766  0.3653  0.7863
   27CHL1  H12B 1957   6.781   3.295   9.867  1.3066  1.5659  1.8634
   27CHL1   C11 1958   6.636   3.363  10.016 -0.2406 -0.3937  0.2391
   27CHL1  H11A 1959   6.561   3.444  10.023  0.7964  0.9458 -2.5720
   27CHL1  H11B 1960   6.582   3.266  10.022 -0.9881 -0.0896 -1.1613
   27CHL1    C9 1961   6.740   3.380  10.129 -0.9370  0.0141 -0.0321
   27CHL1    H9 1962   6.817   3.304  10.104 -1.8951 -0.8188 -0.5457
   27CHL1   C10 1963   6.688   3.363  10.277  0.4747 -0.0610  0.1499
   27CHL1   C19 1964   6.558   3.435  10.286 -0.0037 -0.1009  0.1380
   27CHL1  H19A 1965   6.571   3.533  10.236  1.1442  0.0816  0.7591
   27CHL1  H19B 1966   6.479   3.380  10.230  1.3207 -0.6919 -1.1877
   27CHL1  H19C 1967   6.519   3.438  10.390  1.3058 -0.8574  0.6789
   27CHL1    C1 1968   6.654   3.212  10.296 -0.7733 -0.1032  0.7460
   27CHL1   H1A 1969   6.572   3.169  10.235 -0.0609 -1.2002  0.5283
   27CHL1   H1B 1970   6.748   3.160  10.269 -1.4709 -1.0873  0.1582
   27CHL1    C2 1971   6.625   3.171  10.447  0.2982 -0.2222 -0.3662
   27CHL1   H2A 1972   6.597   3.064  10.455  1.8824 -0.6648 -0.4372
   27CHL1   H2B 1973   6.540   3.234  10.482 -0.3697 -0.3189 -1.7312
   27CHL1   C20 1974   6.788   3.551   9.597 -0.4350  0.6526  0.1683
   27CHL1   H20 1975   6.738   3.650   9.596 -2.1414 -0.1746 -0.0879
   27CHL1   C21 1976   6.682   3.445   9.560 -0.4229  0.0144  0.4983
   27CHL1  H21A 1977   6.649   3.469   9.456  0.6958  3.2229  0.7595
   27CHL1  H21B 1978   6.593   3.458   9.626 -0.7832 -0.8733  0.1974
   27CHL1  H21C 1979   6.715   3.340   9.548 -1.0923 -0.2257  0.6821
   27CHL1   C22 1980   6.898   3.562   9.480 -0.4361  0.0273 -0.4860
   27CHL1  H22A 1981   6.983   3.624   9.517  0.3991 -2.4258  2.0076
   27CHL1  H22B 1982   6.941   3.463   9.454 -1.5487 -0.6416  0.1816
   27CHL1   C23 1983   6.836   3.623   9.352 -0.6125 -0.1212  0.5713
   27CHL1  H23A 1984   6.747   3.571   9.310 -1.7907 -0.7098  3.5679
   27CHL1  H23B 1985   6.794   3.722   9.381 -4.5945 -1.3745 -0.2162
   27CHL1   C24 1986   6.947   3.634   9.241  0.5547  0.7156  0.2904
   27CHL1  H24A 1987   7.025   3.694   9.292  1.2933  2.2124 -2.3814
   27CHL1  H24B 1988   6.979   3.530   9.216  2.5127  1.4271 -0.3811
   27CHL1   C25 1989   6.896   3.705   9.112  0.5480  0.3502 -0.9475
   27CHL1   H25 1990   6.806   3.648   9.079 -0.6539  1.4218  0.3568
   27CHL1   C26 1991   6.859   3.846   9.153 -0.7137 -0.2046  0.1862
   27CHL1  H26A 1992   6.948   3.894   9.197 -0.5912 -0.9400  0.7545
   27CHL1  H26B 1993   6.832   3.914   9.069  1.1563  0.9381  0.4412
   27CHL1  H26C 1994   6.784   3.859   9.235 -0.8630 -2.3104  0.4357
   27CHL1   C27 1995   7.003   3.710   9.003 -0.2242 -0.1431 -0.6669
   27CHL1  H27A 1996   7.093   3.771   9.026  0.0006  0.1164 -2.1060
   27CHL1  H27B 1997   7.039   3.606   8.996 -1.5296 -0.6137 -0.7646
   27CHL1  H27C 1998   6.961   3.740   8.904  0.7670  0.1491 -1.0133
   28CHL1    C3 1999   0.692   3.020  10.407  0.7220  0.0899 -0.4940
   28CHL1    H3 2000   0.734   3.117  10.374  3.1343 -0.5251  0.5483
   28CHL1    O3 2001   0.740   2.996  10.540  0.1569 -0.7015 -0.1021
   28CHL1   H3' 2002   0.657   2.968  10.578 -0.8476 -0.3167 -1.9231
   28CHL1    C4 2003   0.542   3.014  10.395  0.0701 -0.1433  0.1478
   28CHL1   H4A 2004   0.508   2.910  10.416  2.0772 -0.6764  0.9150
   28CHL1   H4B 2005   0.499   3.084  10.470  1.0726  0.2975  0.3149
   28CHL1    C5 2006   0.511   3.040  10.246  0.0067 -0.0331  0.4676
   28CHL1    C6 2007   0.433   3.147  10.221 -0.0443  0.9583  0.2273
   28CHL1    H6 2008   0.382   3.203  10.301 -2.1213  1.0930 -1.1030
   28CHL1    C7 2009   0.397   3.180  10.075 -0.3538 -0.0969  0.0148
   28CHL1   H7A 2010   0.291   3.214  10.065 -0.2154 -0.0575 -1.7735
   28CHL1   H7B 2011   0.459   3.266  10.041 -0.8485 -0.3381 -1.6075
   28CHL1    C8 2012   0.421   3.074   9.964 -0.4042 -0.4101  0.1694
   28CHL1    H8 2013   0.339   2.999   9.976 -1.2781  0.1483 -1.8885
   28CHL1   C14 2014   0.432   3.120   9.817  0.3057  0.0788  0.8756
   28CHL1   H14 2015   0.529   3.161   9.785 -0.8055  0.1708 -2.7905
   28CHL1   C15 2016   0.315   3.208   9.781 -0.4402 -0.5782 -0.5863
   28CHL1  H15A 2017   0.222   3.183   9.837  1.4670 -1.9216  2.1657
   28CHL1  H15B 2018   0.338   3.313   9.807 -0.0987 -0.6163 -0.7267
   28CHL1   C16 2019   0.296   3.187   9.624 -0.0163 -0.3497  0.4953
   28CHL1  H16A 2020   0.188   3.170   9.605  0.5749 -1.0027 -3.0113
   28CHL1  H16B 2021   0.320   3.280   9.568 -0.8918  0.3775  1.3115
   28CHL1   C17 2022   0.393   3.077   9.589  0.4359 -0.3374 -0.5575
   28CHL1   H17 2023   0.489   3.124   9.558 -0.2074  0.2885 -1.6643
   28CHL1   C13 2024   0.432   3.005   9.718  0.2298  0.1389  0.4814
   28CHL1   C18 2025   0.308   2.912   9.744  0.0759  0.1112 -0.2463
   28CHL1  H18A 2026   0.302   2.825   9.676 -3.6640  0.2913 -0.3528
   28CHL1  H18B 2027   0.312   2.858   9.841 -3.6051  2.1333  1.2813
   28CHL1  H18C 2028   0.206   2.957   9.750 -0.1499 -0.5584  1.8855
   28CHL1   C12 2029   0.564   2.932   9.737  0.0962  0.1643 -0.1627
   28CHL1  H12A 2030   0.582   2.847   9.668  1.8495 -2.1907  2.8889
   28CHL1  H12B 2031   0.651   2.998   9.714 -0.9071  1.4079 -0.5144
   28CHL1   C11 2032   0.577   2.894   9.887  0.5630 -0.0385 -0.1452
   28CHL1  H11A 2033   0.503   2.811   9.897 -0.4237  0.6565 -1.3446
   28CHL1  H11B 2034   0.678   2.851   9.901  1.2193  0.7587 -2.0458
   28CHL1    C9 2035   0.551   3.005   9.992  0.1220  0.0691  0.0049
   28CHL1    H9 2036   0.631   3.078   9.971  2.3965 -2.6999 -1.6384
   28CHL1   C10 2037   0.568   2.956  10.138 -0.8306 -0.2067  0.5126
   28CHL1   C19 2038   0.507   2.810  10.154 -0.2518  0.6901  0.7136
   28CHL1  H19A 2039   0.562   2.730  10.100 -1.8533  1.2296 -1.8626
   28CHL1  H19B 2040   0.496   2.778  10.260 -1.1324 -0.8065  0.1990
   28CHL1  H19C 2041   0.406   2.800  10.109  0.7817 -2.0140 -1.3502
   28CHL1    C1 2042   0.716   2.936  10.163  0.6151 -0.0398 -0.4334
   28CHL1   H1A 2043   0.764   2.856  10.103 -2.2650  0.0634 -3.1625
   28CHL1   H1B 2044   0.767   3.030  10.136  0.9515 -0.3151 -0.7700
   28CHL1    C2 2045   0.750   2.906  10.315  0.3680  0.3919  0.4534
   28CHL1   H2A 2046   0.859   2.884  10.321  0.5396  0.4139 -1.7259
   28CHL1   H2B 2047   0.692   2.813  10.337  0.0669  0.5194  0.2010
   28CHL1   C20 2048   0.346   2.998   9.462 -0.1187 -0.0823 -0.3124
   28CHL1   H20 2049   0.241   2.965   9.476  0.2446 -1.6243 -1.0844
   28CHL1   C21 2050   0.430   2.876   9.431  0.5102 -0.8778 -0.8552
   28CHL1  H21A 2051   0.423   2.848   9.323  0.3748 -0.1353 -1.0406
   28CHL1  H21B 2052   0.396   2.792   9.495 -0.5274  0.2407  0.1060
   28CHL1  H21C 2053   0.537   2.900   9.452  0.2375 -0.6303  0.3027
   28CHL1   C22 2054   0.346   3.096   9.341  0.0856  0.2753 -0.5704
   28CHL1  H22A 2055   0.313   3.200   9.362 -1.1770  0.0273 -1.2509
   28CHL1  H22B 2056   0.452   3.117   9.312 -0.1627  2.6362  0.0809
   28CHL1   C23 2057   0.265   3.052   9.214 -0.0366 -0.9066  0.3717
   28CHL1  H23A 2058   0.323   2.966   9.174  0.1177  0.7320 -3.3272
   28CHL1  H23B 2059   0.163   3.016   9.239 -0.4060 -1.6364 -1.9918
   28CHL1   C24 2060   0.264   3.162   9.104 -0.0675 -0.4558 -0.5198
   28CHL1  H24A 2061   0.214   3.253   9.142  0.9747  0.0113 -0.2449
   28CHL1  H24B 2062   0.369   3.186   9.076  0.8487 -1.0331  2.1696
   28CHL1   C25 2063   0.207   3.112   8.971  0.8752 -0.4017  0.5885
   28CHL1   H25 2064   0.098   3.095   8.990  0.7437  1.8971  2.3678
   28CHL1   C26 2065   0.214   3.219   8.861 -0.8740  0.0544  0.0318
   28CHL1  H26A 2066   0.182   3.315   8.908 -0.9869 -0.9251  2.0794
   28CHL1  H26B 2067   0.316   3.227   8.818 -0.3075  3.0618  1.6233
   28CHL1  H26C 2068   0.145   3.189   8.779  0.1428 -1.4112 -0.3146
   28CHL1   C27 2069   0.278   2.982   8.922  0.7087 -0.0824 -0.7290
   28CHL1  H27A 2070   0.240   2.951   8.822 -0.2115  2.6976 -1.3368
   28CHL1  H27B 2071   0.387   3.000   8.915  0.8768 -0.0891  1.2863
   28CHL1  H27C 2072   0.261   2.897   8.991  0.7447  0.1591 -0.4214
   29CHL1    C3 2073   4.761   4.366   7.014 -0.6484  0.5429  0.7895
   29CHL1    H3 2074   4.723   4.262   7.002 -1.7336  0.9820  0.2549
   29CHL1    O3 2075   4.747   4.434   6.892 -0.2262 -0.4169 -0.0701
   29CHL1   H3' 2076   4.659   4.424   6.856 -0.4118  1.9716 -0.4593
   29CHL1    C4 2077   4.669   4.444   7.114  0.5375  0.1949  0.2204
   29CHL1   H4A 2078   4.692   4.552   7.105 -1.5786  0.8155  1.6510
   29CHL1   H4B 2079   4.564   4.440   7.078  0.3093 -1.4300  0.9896
   29CHL1    C5 2080   4.681   4.397   7.257  0.3505 -0.0975  0.5979
   29CHL1    C6 2081   4.571   4.353   7.324  0.0867 -0.3192  0.9378
   29CHL1    H6 2082   4.472   4.372   7.279  0.6662 -2.2205 -1.3242
   29CHL1    C7 2083   4.583   4.315   7.471  0.6968 -0.9043 -0.0420
   29CHL1   H7A 2084   4.502   4.365   7.527  0.3296 -1.9233  0.3482
   29CHL1   H7B 2085   4.560   4.210   7.497 -2.2186 -0.1997  0.5786
   29CHL1    C8 2086   4.720   4.346   7.534  0.3353  0.3743  0.3573
   29CHL1    H8 2087   4.730   4.456   7.548  2.8936  0.3610 -0.8804
   29CHL1   C14 2088   4.731   4.277   7.664 -0.3938 -0.1820 -0.4098
   29CHL1   H14 2089   4.723   4.171   7.634  0.8662 -0.1955 -0.7507
   29CHL1   C15 2090   4.616   4.301   7.771 -0.7458 -0.0651  0.5006
   29CHL1  H15A 2091   4.601   4.411   7.776  1.6214  0.2452  2.4804
   29CHL1  H15B 2092   4.520   4.256   7.737  0.3111 -1.0323 -1.3532
   29CHL1   C16 2093   4.674   4.246   7.899  0.4435 -0.0280 -0.0531
   29CHL1  H16A 2094   4.687   4.321   7.979 -0.7957 -0.5835  0.7037
   29CHL1  H16B 2095   4.604   4.171   7.943  0.8841 -0.4098 -0.0013
   29CHL1   C17 2096   4.817   4.191   7.864 -0.0416 -0.3007  0.3652
   29CHL1   H17 2097   4.802   4.089   7.824 -0.7305  1.2788 -3.8966
   29CHL1   C13 2098   4.868   4.277   7.736 -0.0598  0.3433  0.4991
   29CHL1   C18 2099   4.896   4.422   7.789  0.2040 -0.6743  0.6250
   29CHL1  H18A 2100   4.900   4.502   7.711  1.3176  1.1674  2.4519
   29CHL1  H18B 2101   4.826   4.455   7.869  1.0850 -0.4761  1.3180
   29CHL1  H18C 2102   4.992   4.426   7.844 -0.2506 -0.1465  1.4026
   29CHL1   C12 2103   4.969   4.220   7.637 -0.2931 -0.4031 -0.7228
   29CHL1  H12A 2104   5.068   4.223   7.687  0.2152  2.3971 -1.7185
   29CHL1  H12B 2105   4.945   4.112   7.628  2.3246 -1.0180 -1.2951
   29CHL1   C11 2106   4.970   4.293   7.498 -0.0445  0.1622 -0.7109
   29CHL1  H11A 2107   5.005   4.395   7.525 -2.5365  0.5872  1.3164
   29CHL1  H11B 2108   5.044   4.247   7.428  1.5049  0.5101  0.6313
   29CHL1    C9 2109   4.831   4.297   7.432  0.9597 -0.6735  0.1735
   29CHL1    H9 2110   4.809   4.191   7.408 -0.2362 -0.5153  0.5038
   29CHL1   C10 2111   4.828   4.375   7.301  0.4782 -0.4325  0.1349
   29CHL1   C19 2112   4.896   4.513   7.336 -0.1115 -0.1660 -0.0812
   29CHL1  H19A 2113   5.006   4.506   7.355 -0.4214  1.7578  3.3130
   29CHL1  H19B 2114   4.893   4.579   7.247  1.3530  0.8436  0.5612
   29CHL1  H19C 2115   4.848   4.557   7.426  0.5033 -0.0402  0.1921
   29CHL1    C1 2116   4.915   4.311   7.183 -0.4082 -0.2364 -1.1714
   29CHL1   H1A 2117   5.022   4.323   7.213 -1.0070  0.1251  0.9349
   29CHL1   H1B 2118   4.890   4.203   7.173  1.4174 -0.6035 -2.4602
   29CHL1    C2 2119   4.908   4.381   7.057 -0.7210  0.6622 -0.3450
   29CHL1   H2A 2120   4.977   4.326   6.989 -0.6343  0.5128 -0.1387
   29CHL1   H2B 2121   4.946   4.484   7.072  2.5370 -0.4189 -0.2410
   29CHL1   C20 2122   4.908   4.173   7.990  0.3861 -0.1438 -0.0947
   29CHL1   H20 2123   4.933   4.275   8.026 -1.4071 -0.6439  2.9304
   29CHL1   C21 2124   5.026   4.091   7.949 -1.1806  0.3715 -0.1900
   29CHL1  H21A 2125   4.994   3.989   7.917 -0.3836 -0.4216  1.4248
   29CHL1  H21B 2126   5.086   4.068   8.040  0.3107  1.7617 -0.7737
   29CHL1  H21C 2127   5.094   4.133   7.872 -0.9161 -0.4799 -0.4317
   29CHL1   C22 2128   4.836   4.103   8.110  0.3046  0.2104  0.8950
   29CHL1  H22A 2129   4.739   4.153   8.130 -0.4666 -1.1549  0.6992
   29CHL1  H22B 2130   4.814   3.998   8.080 -2.5524  1.5444 -2.4566
   29CHL1   C23 2131   4.909   4.107   8.244 -0.8699 -0.1893 -0.3182
   29CHL1  H23A 2132   5.008   4.057   8.234 -0.2336  1.3805 -2.9988
   29CHL1  H23B 2133   4.948   4.210   8.264  0.7916 -0.5995 -1.2355
   29CHL1   C24 2134   4.839   4.048   8.370  0.3216 -0.6806 -0.1022
   29CHL1  H24A 2135   4.738   4.093   8.380  1.1986  1.8324 -1.5501
   29CHL1  H24B 2136   4.821   3.940   8.352  1.7629 -0.7294 -1.4977
   29CHL1   C25 2137   4.929   4.062   8.498 -0.6852  0.3361  0.5412
   29CHL1   H25 2138   4.958   4.168   8.517  2.5969 -0.5152  0.8959
   29CHL1   C26 2139   4.865   4.009   8.619  0.3550 -0.2313 -0.1755
   29CHL1  H26A 2140   4.857   3.898   8.612 -0.2967 -0.2397  0.5203
   29CHL1  H26B 2141   4.924   4.043   8.707 -2.4820  0.5882  1.5471
   29CHL1  H26C 2142   4.763   4.052   8.626 -0.6854 -2.5145 -0.2613
   29CHL1   C27 2143   5.074   3.994   8.474 -0.0071 -0.4817 -0.0807
   29CHL1  H27A 2144   5.132   3.993   8.569 -0.9748 -3.1380  0.5670
   29CHL1  H27B 2145   5.065   3.885   8.459  2.3770 -0.5576 -1.6350
   29CHL1  H27C 2146   5.138   4.032   8.391  2.2727  0.2755  1.8891
   30CHL1    C3 2147   0.959   3.475   7.102 -0.0952 -0.6909 -0.0747
   30CHL1    H3 2148   1.016   3.566   7.131  1.2809 -1.7894  0.7640
   30CHL1    O3 2149   0.977   3.463   6.965  0.1344  0.5358 -0.0080
   30CHL1   H3' 2150   0.945   3.544   6.924 -1.2084 -0.3497 -0.8027
   30CHL1    C4 2151   1.027   3.358   7.175  0.2448  0.1686 -0.1416
   30CHL1   H4A 2152   0.976   3.268   7.136  1.0701 -1.0762  1.5383
   30CHL1   H4B 2153   1.129   3.341   7.137  0.5982 -0.5347  1.0595
   30CHL1    C5 2154   1.021   3.375   7.327 -0.4218 -0.0365  0.4434
   30CHL1    C6 2155   1.130   3.391   7.405 -0.9084  1.4811 -0.1275
   30CHL1    H6 2156   1.230   3.383   7.360 -0.5758 -3.6885  0.9119
   30CHL1    C7 2157   1.116   3.388   7.553 -0.5350 -0.5420  0.0155
   30CHL1   H7A 2158   1.198   3.327   7.595 -1.0049 -1.6819 -0.6593
   30CHL1   H7B 2159   1.121   3.494   7.588  1.4314 -0.3780 -0.6647
   30CHL1    C8 2160   0.981   3.342   7.604 -0.3730 -0.5665 -0.0403
   30CHL1    H8 2161   0.972   3.231   7.596  0.4675 -0.7832  1.5156
   30CHL1   C14 2162   0.960   3.363   7.758 -0.5033  0.3155 -0.3817
   30CHL1   H14 2163   0.968   3.473   7.775  3.1199  0.0619  0.2206
   30CHL1   C15 2164   1.064   3.297   7.850  0.6874 -0.0792 -0.4097
   30CHL1  H15A 2165   1.090   3.190   7.835 -1.0785 -0.4326 -1.2283
   30CHL1  H15B 2166   1.150   3.368   7.848  0.7230 -0.1035  0.1404
   30CHL1   C16 2167   0.990   3.288   7.987 -0.6689 -0.7443  0.3348
   30CHL1  H16A 2168   0.983   3.180   8.011 -1.5722 -0.6275  0.6120
   30CHL1  H16B 2169   1.044   3.338   8.071 -0.6610  0.0032 -0.0984
   30CHL1   C17 2170   0.843   3.328   7.961  0.4539 -0.3266  0.6105
   30CHL1   H17 2171   0.841   3.438   7.977  0.4289 -0.1993 -0.1860
   30CHL1   C13 2172   0.824   3.313   7.803 -0.3619 -0.0333 -0.6383
   30CHL1   C18 2173   0.807   3.161   7.763 -0.0353  0.2571  0.1321
   30CHL1  H18A 2174   0.712   3.131   7.813 -2.9018  2.0675 -3.7148
   30CHL1  H18B 2175   0.798   3.155   7.652 -1.1310 -0.0046  0.2227
   30CHL1  H18C 2176   0.892   3.101   7.801 -0.1677  1.9165  3.3384
   30CHL1   C12 2177   0.719   3.403   7.746  0.2166 -0.3027  0.2688
   30CHL1  H12A 2178   0.619   3.362   7.772  0.1020 -1.5529 -1.8630
   30CHL1  H12B 2179   0.709   3.507   7.782  2.0124 -1.2395  4.0264
   30CHL1   C11 2180   0.723   3.398   7.592  0.0337  0.0347  0.2623
   30CHL1  H11A 2181   0.676   3.304   7.555 -0.8484  0.8304 -0.6769
   30CHL1  H11B 2182   0.665   3.483   7.552 -0.1365 -0.4575 -0.5616
   30CHL1    C9 2183   0.865   3.412   7.525  0.0493 -0.5612  0.3319
   30CHL1    H9 2184   0.891   3.520   7.536  0.7187 -0.5317 -1.2811
   30CHL1   C10 2185   0.872   3.375   7.370 -0.4895 -0.3157 -0.6235
   30CHL1   C19 2186   0.824   3.224   7.351  0.1013 -0.8787 -0.5650
   30CHL1  H19A 2187   0.898   3.148   7.383  1.4182 -0.9282 -3.4432
   30CHL1  H19B 2188   0.727   3.203   7.402  0.9200  0.8933  1.9207
   30CHL1  H19C 2189   0.804   3.204   7.244 -4.2435  1.3112 -0.3791
   30CHL1    C1 2190   0.785   3.476   7.294  0.4978 -0.1671  0.3472
   30CHL1   H1A 2191   0.675   3.464   7.307 -0.4371  2.3567 -3.4246
   30CHL1   H1B 2192   0.813   3.576   7.335 -0.2247  0.7582 -1.2833
   30CHL1    C2 2193   0.811   3.476   7.134 -0.7686  0.4085 -0.6639
   30CHL1   H2A 2194   0.764   3.569   7.094 -1.8979 -0.8985 -2.5564
   30CHL1   H2B 2195   0.762   3.386   7.092 -0.7302  1.2748 -2.6864
   30CHL1   C20 2196   0.745   3.268   8.061  0.4654 -0.6494 -0.1987
   30CHL1   H20 2197   0.729   3.159   8.046 -0.2492 -0.4269 -1.1019
   30CHL1   C21 2198   0.598   3.333   8.041  0.6078  0.3740 -0.3019
   30CHL1  H21A 2199   0.523   3.295   8.112 -0.3031  1.0821 -0.8582
   30CHL1  H21B 2200   0.567   3.306   7.938  1.9678  2.4545 -1.3493
   30CHL1  H21C 2201   0.613   3.443   8.047  0.8445  0.4993 -2.2993
   30CHL1   C22 2202   0.790   3.283   8.209  0.1100 -0.2086  0.5593
   30CHL1  H22A 2203   0.727   3.223   8.278 -0.2034 -0.1226  0.3468
   30CHL1  H22B 2204   0.887   3.231   8.227  0.9257  1.1046  0.1347
   30CHL1   C23 2205   0.787   3.431   8.265 -0.2402 -0.9004  0.1032
   30CHL1  H23A 2206   0.853   3.499   8.207  0.3882 -1.6009 -0.0174
   30CHL1  H23B 2207   0.684   3.473   8.260  0.4476  1.0659  1.5911
   30CHL1   C24 2208   0.825   3.439   8.413  0.3132  0.3303  0.4736
   30CHL1  H24A 2209   0.761   3.359   8.454 -1.5467  1.7172  0.3983
   30CHL1  H24B 2210   0.933   3.413   8.419  1.1419  2.5104 -2.4888
   30CHL1   C25 2211   0.786   3.574   8.481 -0.3912  0.1404 -0.3541
   30CHL1   H25 2212   0.678   3.590   8.458 -0.4576  1.3090  0.6478
   30CHL1   C26 2213   0.779   3.557   8.628  0.8646  0.7925 -0.2519
   30CHL1  H26A 2214   0.779   3.654   8.681  0.2090 -0.5093  2.2783
   30CHL1  H26B 2215   0.692   3.502   8.670  2.3203 -0.2897  1.5351
   30CHL1  H26C 2216   0.874   3.512   8.663  0.3355 -0.2084 -0.0549
   30CHL1   C27 2217   0.871   3.702   8.443  0.0140 -0.2748  0.1148
   30CHL1  H27A 2218   0.859   3.736   8.338  2.2036  0.4569  0.0619
   30CHL1  H27B 2219   0.826   3.772   8.517 -2.4926 -1.5642 -0.0845
   30CHL1  H27C 2220   0.972   3.679   8.484  0.0751  1.8128  1.2587
   31CHL1    C3 2221   1.714   5.910   6.709  0.1154 -0.3666 -0.5794
   31CHL1    H3 2222   1.825   5.913   6.720 -0.0651  1.9991  1.4914
   31CHL1    O3 2223   1.683   5.926   6.573  0.0852 -0.3435 -0.1450
   31CHL1   H3' 2224   1.589   5.907   6.571  0.4776 -2.7920  0.9596
   31CHL1    C4 2225   1.656   5.786   6.767 -0.0207 -0.3170  0.1399
   31CHL1   H4A 2226   1.547   5.798   6.747 -0.7148  0.0554  3.4774
   31CHL1   H4B 2227   1.690   5.699   6.707  0.0160 -0.5037  0.4292
   31CHL1    C5 2228   1.681   5.768   6.909 -0.0453 -0.1058 -0.9348
   31CHL1    C6 2229   1.731   5.654   6.967 -0.1166 -0.2766  0.0144
   31CHL1    H6 2230   1.759   5.571   6.901 -1.7063 -1.0154  0.2164
   31CHL1    C7 2231   1.751   5.632   7.116 -0.1450  0.1584  0.4791
   31CHL1   H7A 2232   1.711   5.530   7.132 -0.7010 -0.5935 -4.3606
   31CHL1   H7B 2233   1.860   5.625   7.135 -0.0794 -0.0797  0.0270
   31CHL1    C8 2234   1.679   5.732   7.201  0.0748  0.4725 -0.2193
   31CHL1    H8 2235   1.571   5.708   7.201 -0.2081  1.3198  2.6650
   31CHL1   C14 2236   1.725   5.722   7.345 -0.1606  0.2476 -0.0821
   31CHL1   H14 2237   1.833   5.745   7.363 -0.6072  1.0023  1.8350
   31CHL1   C15 2238   1.704   5.583   7.411 -0.2927 -0.5412 -0.1181
   31CHL1  H15A 2239   1.601   5.548   7.391  0.3665 -1.0097 -3.1371
   31CHL1  H15B 2240   1.785   5.517   7.373  1.7420  1.3584  0.6977
   31CHL1   C16 2241   1.721   5.613   7.562  0.4638 -0.4671 -0.5177
   31CHL1  H16A 2242   1.637   5.569   7.619  0.9392  0.8091  1.2661
   31CHL1  H16B 2243   1.820   5.579   7.601  1.3444  0.1668 -2.0836
   31CHL1   C17 2244   1.724   5.765   7.576  0.2134 -0.2399 -1.0715
   31CHL1   H17 2245   1.828   5.803   7.578 -0.0348  0.4376 -0.3050
   31CHL1   C13 2246   1.666   5.821   7.445  0.1438 -0.2974 -0.2159
   31CHL1   C18 2247   1.505   5.807   7.443 -0.1213 -0.0657  0.2461
   31CHL1  H18A 2248   1.489   5.708   7.491  3.1197 -0.3101  1.0629
   31CHL1  H18B 2249   1.455   5.889   7.498 -0.3753  0.4520 -0.7430
   31CHL1  H18C 2250   1.471   5.806   7.338  3.6360 -0.2085 -1.1315
   31CHL1   C12 2251   1.717   5.957   7.402  0.4872  0.4552 -0.8857
   31CHL1  H12A 2252   1.665   6.041   7.453 -3.0053 -1.0267 -1.6970
   31CHL1  H12B 2253   1.828   5.951   7.406  0.4431 -0.0301 -0.2480
   31CHL1   C11 2254   1.673   5.978   7.248  0.6177  0.4412  0.0059
   31CHL1  H11A 2255   1.569   6.014   7.239  0.6053  0.4800  0.3050
   31CHL1  H11B 2256   1.727   6.069   7.214 -1.2806  1.1026 -1.3782
   31CHL1    C9 2257   1.704   5.865   7.141 -0.1511  0.4032  0.0590
   31CHL1    H9 2258   1.814   5.870   7.133  0.2369  0.5235  3.8059
   31CHL1   C10 2259   1.643   5.883   6.999 -1.4922  0.1972 -0.2662
   31CHL1   C19 2260   1.490   5.895   7.017 -0.0705  0.0639 -0.7393
   31CHL1  H19A 2261   1.444   5.893   6.915  2.2628 -0.9247 -1.8386
   31CHL1  H19B 2262   1.455   5.814   7.084  3.8167 -1.6094 -0.5015
   31CHL1  H19C 2263   1.454   5.995   7.049  0.3742  0.8095 -2.4616
   31CHL1    C1 2264   1.698   6.016   6.937  0.5466  0.4086 -0.1455
   31CHL1   H1A 2265   1.673   6.093   7.013 -0.0600 -0.5511  0.6390
   31CHL1   H1B 2266   1.809   6.018   6.943  0.7375 -2.3955 -1.4225
   31CHL1    C2 2267   1.662   6.031   6.789 -0.2204 -0.0058 -0.2847
   31CHL1   H2A 2268   1.691   6.131   6.750 -0.2386  0.9853  2.0720
   31CHL1   H2B 2269   1.551   6.030   6.789 -0.2339  0.4635  0.4332
   31CHL1   C20 2270   1.658   5.818   7.707  0.2204 -0.0353  0.0436
   31CHL1   H20 2271   1.553   5.783   7.704  0.3719 -0.4335 -0.6693
   31CHL1   C21 2272   1.646   5.978   7.705 -0.1569  0.1989  0.7166
   31CHL1  H21A 2273   1.618   6.023   7.803  1.4800  3.2734 -0.0917
   31CHL1  H21B 2274   1.567   5.994   7.628 -0.1799 -3.5629 -0.2185
   31CHL1  H21C 2275   1.745   6.025   7.686 -0.2646 -0.1554 -0.7796
   31CHL1   C22 2276   1.735   5.770   7.830  0.1664  0.5024  0.0953
   31CHL1  H22A 2277   1.755   5.662   7.812 -0.7975  0.5691 -1.6377
   31CHL1  H22B 2278   1.828   5.831   7.825  0.5294  0.0028  0.6084
   31CHL1   C23 2279   1.667   5.794   7.967 -0.2556  0.5241  0.1943
   31CHL1  H23A 2280   1.636   5.900   7.980  0.8889  0.8980 -0.0421
   31CHL1  H23B 2281   1.577   5.729   7.962  0.4784 -0.7024  1.7434
   31CHL1   C24 2282   1.750   5.738   8.088  0.6584  0.2001  0.3669
   31CHL1  H24A 2283   1.776   5.633   8.063  1.7404  0.5461  0.0005
   31CHL1  H24B 2284   1.848   5.790   8.093  0.1397  1.2452 -0.0662
   31CHL1   C25 2285   1.671   5.744   8.225 -0.2394 -0.4597  0.5503
   31CHL1   H25 2286   1.573   5.694   8.209  0.5497 -1.7922 -0.3025
   31CHL1   C26 2287   1.758   5.688   8.337  0.8392  0.4213 -0.2313
   31CHL1  H26A 2288   1.713   5.707   8.437 -1.0525  1.5887 -1.2444
   31CHL1  H26B 2289   1.780   5.580   8.323  2.5740  0.9102 -1.5178
   31CHL1  H26C 2290   1.853   5.746   8.331  1.9564 -1.1907  1.0039
   31CHL1   C27 2291   1.646   5.892   8.262  0.2163  0.9330 -0.1519
   31CHL1  H27A 2292   1.583   5.940   8.185 -0.2956  0.9552  0.2805
   31CHL1  H27B 2293   1.740   5.952   8.265  0.5935  0.3247  0.7381
   31CHL1  H27C 2294   1.598   5.895   8.363  1.8872  0.4578  0.6984
   32CHL1    C3 2295   1.536   4.824   7.068  0.3560  0.1156 -0.1598
   32CHL1    H3 2296   1.603   4.910   7.089  0.4658  0.1633 -0.6929
   32CHL1    O3 2297   1.548   4.777   6.936  0.1673 -0.2408  0.4025
   32CHL1   H3' 2298   1.642   4.758   6.938  0.1424 -0.6164 -1.1262
   32CHL1    C4 2299   1.578   4.713   7.165  0.5541 -0.3489  0.1553
   32CHL1   H4A 2300   1.516   4.622   7.150 -0.2802  0.3118 -0.4603
   32CHL1   H4B 2301   1.683   4.678   7.149  0.6667 -0.3579  0.8678
   32CHL1    C5 2302   1.557   4.748   7.316 -0.4074  0.1275  0.5397
   32CHL1    C6 2303   1.654   4.748   7.406 -0.1307  0.6471 -0.1704
   32CHL1    H6 2304   1.750   4.701   7.380 -1.4902 -2.5939  0.0968
   32CHL1    C7 2305   1.637   4.778   7.551  0.7426  0.0159  0.3475
   32CHL1   H7A 2306   1.677   4.697   7.616  0.6437  1.5206  2.3704
   32CHL1   H7B 2307   1.689   4.871   7.581  0.4778  1.1440 -2.4048
   32CHL1    C8 2308   1.486   4.785   7.589 -0.4085  0.0381 -0.0502
   32CHL1    H8 2309   1.449   4.681   7.580 -0.3500  0.0322 -0.2241
   32CHL1   C14 2310   1.480   4.830   7.739  0.0742 -0.7591  0.7530
   32CHL1   H14 2311   1.532   4.928   7.745  0.2596 -0.9496  3.2708
   32CHL1   C15 2312   1.539   4.748   7.851  0.4769 -0.5275  1.0633
   32CHL1  H15A 2313   1.526   4.640   7.829 -4.3869  0.2741 -1.2545
   32CHL1  H15B 2314   1.650   4.759   7.856  0.6892 -1.3992 -0.9888
   32CHL1   C16 2315   1.475   4.805   7.972  0.7877 -0.9599 -0.0551
   32CHL1  H16A 2316   1.443   4.712   8.025  1.8254 -2.4864 -1.9733
   32CHL1  H16B 2317   1.548   4.859   8.035 -0.9610 -0.4595  1.6644
   32CHL1   C17 2318   1.366   4.900   7.921  0.0057 -0.0266  0.9352
   32CHL1   H17 2319   1.411   5.001   7.927 -2.0721  1.0198 -0.0220
   32CHL1   C13 2320   1.334   4.853   7.784 -0.3303 -0.4915 -0.2636
   32CHL1   C18 2321   1.256   4.713   7.788 -0.6058  0.0053 -0.6357
   32CHL1  H18A 2322   1.150   4.724   7.817 -0.1510 -0.0065  1.1069
   32CHL1  H18B 2323   1.258   4.672   7.684  3.0363  2.5741 -1.8003
   32CHL1  H18C 2324   1.307   4.639   7.854  0.2976  1.6280  0.5422
   32CHL1   C12 2325   1.261   4.945   7.686 -0.2587  0.7011  0.1098
   32CHL1  H12A 2326   1.155   4.945   7.718 -1.3945  2.6052 -3.1287
   32CHL1  H12B 2327   1.291   5.051   7.694  2.8183 -0.0502 -0.3324
   32CHL1   C11 2328   1.269   4.891   7.535 -0.5373 -0.2494 -0.6290
   32CHL1  H11A 2329   1.210   4.797   7.531 -0.9413 -0.0061 -0.3956
   32CHL1  H11B 2330   1.216   4.956   7.463 -0.0524 -0.1641 -0.9160
   32CHL1    C9 2331   1.414   4.867   7.484 -0.7472  0.8693  0.3227
   32CHL1    H9 2332   1.466   4.964   7.471  3.1369 -1.1152 -0.2731
   32CHL1   C10 2333   1.413   4.794   7.347  0.0758  0.4442 -0.4440
   32CHL1   C19 2334   1.333   4.661   7.341 -1.0713 -0.0061  0.3517
   32CHL1  H19A 2335   1.390   4.594   7.409 -0.0460  0.0666 -0.4019
   32CHL1  H19B 2336   1.229   4.654   7.378 -0.9099 -3.3780  0.4875
   32CHL1  H19C 2337   1.329   4.620   7.238 -1.4781 -0.3532  0.5002
   32CHL1    C1 2338   1.375   4.905   7.237  0.1185  0.3247 -0.2320
   32CHL1   H1A 2339   1.267   4.931   7.246  0.3215  2.6465 -3.0560
   32CHL1   H1B 2340   1.429   4.999   7.260 -0.7094  0.5647  0.8010
   32CHL1    C2 2341   1.390   4.857   7.093 -0.4647  0.7458  0.4615
   32CHL1   H2A 2342   1.353   4.927   7.015  0.9047 -0.5142 -1.3738
   32CHL1   H2B 2343   1.328   4.766   7.081  0.6126 -0.2242  1.9513
   32CHL1   C20 2344   1.233   4.910   8.010 -0.5620 -0.1834  0.3396
   32CHL1   H20 2345   1.142   4.901   7.946 -0.0941 -1.1231 -0.2080
   32CHL1   C21 2346   1.229   5.056   8.057  0.3885  0.4526 -0.4096
   32CHL1  H21A 2347   1.300   5.067   8.141  0.6188  0.3153 -0.5861
   32CHL1  H21B 2348   1.132   5.079   8.106  1.7188  0.5781  2.3347
   32CHL1  H21C 2349   1.239   5.134   7.978 -0.7917 -0.2142 -1.2578
   32CHL1   C22 2350   1.213   4.806   8.126  0.9636 -0.0207 -0.2516
   32CHL1  H22A 2351   1.206   4.709   8.071  2.3738 -0.0119 -0.4683
   32CHL1  H22B 2352   1.302   4.807   8.191 -0.0203 -0.7664  1.1718
   32CHL1   C23 2353   1.088   4.836   8.201  0.6264 -0.7610  0.1935
   32CHL1  H23A 2354   1.090   4.919   8.275  2.9172 -0.9831  0.4609
   32CHL1  H23B 2355   1.015   4.857   8.120 -0.0587 -2.0663  0.4579
   32CHL1   C24 2356   1.024   4.713   8.265 -0.1675  0.5383  0.0568
   32CHL1  H24A 2357   0.927   4.742   8.310 -0.1084  0.5882  0.1545
   32CHL1  H24B 2358   1.004   4.638   8.186  0.0435  0.4149  0.1211
   32CHL1   C25 2359   1.122   4.648   8.368 -0.4452 -0.5151  0.2980
   32CHL1   H25 2360   1.210   4.614   8.309 -0.9488  1.7195 -1.9302
   32CHL1   C26 2361   1.163   4.756   8.478 -0.1068  0.0188 -0.1872
   32CHL1  H26A 2362   1.209   4.698   8.561 -0.0114  1.4427  0.8013
   32CHL1  H26B 2363   1.224   4.833   8.426  0.3816 -0.6694 -0.6435
   32CHL1  H26C 2364   1.075   4.813   8.515 -0.0135  1.3623 -1.9007
   32CHL1   C27 2365   1.077   4.521   8.437 -1.1021 -0.3134  0.4752
   32CHL1  H27A 2366   1.074   4.434   8.367 -1.0927 -0.5099  0.7155
   32CHL1  H27B 2367   1.138   4.491   8.524  1.9614 -1.7413 -1.9400
   32CHL1  H27C 2368   0.980   4.537   8.488 -1.0520 -0.0229  0.4764
   33CHL1    C3 2369   3.378   6.533   6.703 -0.7104  1.1290  0.4061
   33CHL1    H3 2370   3.474   6.586   6.722  0.2703  0.3004 -1.9311
   33CHL1    O3 2371   3.352   6.521   6.557  0.4929 -0.3601  0.0050
   33CHL1   H3' 2372   3.267   6.478   6.554  0.2234  0.1705 -0.0691
   33CHL1    C4 2373   3.384   6.393   6.773 -0.1707 -0.5940  0.4955
   33CHL1   H4A 2374   3.304   6.324   6.737  1.7893 -2.1187 -1.2263
   33CHL1   H4B 2375   3.482   6.355   6.735 -0.0773 -2.5644  2.5281
   33CHL1    C5 2376   3.389   6.402   6.923  0.0402 -0.3373 -0.4042
   33CHL1    C6 2377   3.499   6.351   6.990  0.3949  0.3916 -0.6956
   33CHL1    H6 2378   3.587   6.307   6.940  1.6030 -0.4454  2.0076
   33CHL1    C7 2379   3.499   6.344   7.141  0.3409  0.0020  0.3595
   33CHL1   H7A 2380   3.533   6.248   7.186  2.9674  0.8195  0.2557
   33CHL1   H7B 2381   3.568   6.422   7.180 -1.3415  1.3651  0.7925
   33CHL1    C8 2382   3.356   6.366   7.199 -1.1214  0.4204 -0.0433
   33CHL1    H8 2383   3.295   6.274   7.186  1.7427 -1.8807  1.4536
   33CHL1   C14 2384   3.382   6.394   7.349  0.0778  0.0109 -0.2394
   33CHL1   H14 2385   3.448   6.483   7.352 -0.0998  0.3053 -2.7416
   33CHL1   C15 2386   3.452   6.277   7.434  0.3922  0.6014 -0.4821
   33CHL1  H15A 2387   3.406   6.182   7.402  2.2228 -0.2818 -0.5872
   33CHL1  H15B 2388   3.562   6.274   7.419  0.2492 -1.8686 -1.3939
   33CHL1   C16 2389   3.407   6.313   7.580  0.3696 -0.8168  0.4820
   33CHL1  H16A 2390   3.357   6.224   7.624 -0.6734 -0.2853  0.3887
   33CHL1  H16B 2391   3.491   6.355   7.639  0.6292 -2.4783  1.3739
   33CHL1   C17 2392   3.297   6.426   7.568 -0.3995 -0.0259  0.2137
   33CHL1   H17 2393   3.352   6.522   7.564  0.3774 -0.3901  1.4624
   33CHL1   C13 2394   3.250   6.422   7.424  0.3407 -0.4370 -0.4410
   33CHL1   C18 2395   3.147   6.306   7.415  0.1452  0.5622 -0.1362
   33CHL1  H18A 2396   3.120   6.268   7.314  1.2913 -4.2423  1.0791
   33CHL1  H18B 2397   3.173   6.218   7.478 -4.7729 -1.0960  0.0470
   33CHL1  H18C 2398   3.050   6.338   7.460 -0.7438 -0.6741 -1.0663
   33CHL1   C12 2399   3.185   6.549   7.367 -0.4647  0.2339 -0.5814
   33CHL1  H12A 2400   3.092   6.580   7.420 -0.6716  0.8137 -1.2555
   33CHL1  H12B 2401   3.259   6.631   7.376  0.5586 -0.7288 -0.0394
   33CHL1   C11 2402   3.155   6.536   7.221 -0.3708 -0.1623  0.2710
   33CHL1  H11A 2403   3.071   6.466   7.205  0.0896 -0.9726  1.2554
   33CHL1  H11B 2404   3.134   6.640   7.189 -0.8787 -0.0405  0.9738
   33CHL1    C9 2405   3.286   6.490   7.144 -0.1605  0.2592  0.3517
   33CHL1    H9 2406   3.366   6.567   7.141  2.1890 -2.0017  0.9385
   33CHL1   C10 2407   3.264   6.477   6.988 -0.2050  0.3765 -0.1285
   33CHL1   C19 2408   3.144   6.379   6.968  0.6538  0.1492  0.3377
   33CHL1  H19A 2409   3.048   6.430   6.993 -0.4707 -1.3231 -0.8153
   33CHL1  H19B 2410   3.129   6.362   6.860 -0.4528  0.5122  0.4206
   33CHL1  H19C 2411   3.158   6.282   7.021  2.4428  0.4985  0.5691
   33CHL1    C1 2412   3.253   6.609   6.915  0.1934  0.0896 -0.7266
   33CHL1   H1A 2413   3.160   6.658   6.949 -0.1302  0.6016 -2.2723
   33CHL1   H1B 2414   3.338   6.669   6.953  0.5333 -1.3683  0.9420
   33CHL1    C2 2415   3.259   6.616   6.760  0.3593 -0.1270 -0.4570
   33CHL1   H2A 2416   3.269   6.724   6.736 -1.9410  0.4852  1.0092
   33CHL1   H2B 2417   3.160   6.585   6.720  1.9091 -1.7464 -3.3916
   33CHL1   C20 2418   3.201   6.425   7.690 -0.2004  1.1770 -0.4996
   33CHL1   H20 2419   3.154   6.325   7.695 -0.6959  1.2499 -2.6274
   33CHL1   C21 2420   3.079   6.523   7.674  0.2018  0.0273 -0.2665
   33CHL1  H21A 2421   3.123   6.617   7.633 -1.4111  1.0283  0.1990
   33CHL1  H21B 2422   3.038   6.555   7.772 -0.7020  0.0293 -0.6436
   33CHL1  H21C 2423   2.999   6.491   7.604 -1.7019  0.6883  1.5234
   33CHL1   C22 2424   3.276   6.453   7.829 -0.5503 -0.1529  0.5068
   33CHL1  H22A 2425   3.365   6.387   7.823 -1.0898 -0.7762 -2.8308
   33CHL1  H22B 2426   3.325   6.551   7.814 -1.4813  0.0212 -1.7433
   33CHL1   C23 2427   3.211   6.444   7.968  0.0657  0.0435  0.4349
   33CHL1  H23A 2428   3.284   6.473   8.047 -0.2886  0.2308  0.6938
   33CHL1  H23B 2429   3.121   6.508   7.977  0.4260  1.1300 -2.6405
   33CHL1   C24 2430   3.170   6.302   8.000 -0.2532 -0.1809  0.2798
   33CHL1  H24A 2431   3.086   6.286   7.930 -0.8436 -0.5652  1.0557
   33CHL1  H24B 2432   3.245   6.220   7.997 -1.3667 -1.2147  0.1289
   33CHL1   C25 2433   3.113   6.291   8.147 -0.3222 -0.4648  0.4106
   33CHL1   H25 2434   3.037   6.371   8.155 -1.6819 -1.4247 -1.9253
   33CHL1   C26 2435   3.043   6.158   8.163  0.1874  1.0279 -0.0167
   33CHL1  H26A 2436   2.987   6.157   8.259  0.1467  0.7171 -0.0407
   33CHL1  H26B 2437   2.978   6.136   8.075 -0.9041 -2.6099  1.5208
   33CHL1  H26C 2438   3.116   6.074   8.155 -0.0009  1.0098 -2.7281
   33CHL1   C27 2439   3.213   6.310   8.260 -0.6526 -0.3068 -0.1699
   33CHL1  H27A 2440   3.288   6.230   8.276 -0.7786 -0.1234  1.5786
   33CHL1  H27B 2441   3.268   6.406   8.244 -1.3552  0.1072 -0.1331
   33CHL1  H27C 2442   3.152   6.315   8.353 -0.4313  0.5759 -0.0632
   34CHL1    C3 2443   3.687   4.936   7.327 -0.1899  0.3782 -0.5314
   34CHL1    H3 2444   3.678   4.829   7.356  0.2183 -0.0028 -1.7458
   34CHL1    O3 2445   3.652   4.950   7.191  0.2353 -0.1787  0.3706
   34CHL1   H3' 2446   3.666   5.043   7.173 -1.0578  0.0647  0.4908
   34CHL1    C4 2447   3.607   5.017   7.429 -0.3868 -0.8552  0.1535
   34CHL1   H4A 2448   3.613   5.124   7.401 -1.4037 -0.3518  1.7345
   34CHL1   H4B 2449   3.502   4.982   7.423 -0.3970 -0.8982  0.5217
   34CHL1    C5 2450   3.659   5.003   7.570  0.0329 -0.3082  0.3791
   34CHL1    C6 2451   3.579   4.950   7.663 -0.4942  0.3407 -0.8535
   34CHL1    H6 2452   3.476   4.917   7.643  0.1787 -3.4148  0.9340
   34CHL1    C7 2453   3.607   4.942   7.806 -0.3299 -0.0447  0.5898
   34CHL1   H7A 2454   3.525   5.000   7.854 -0.9081 -0.4231  0.0698
   34CHL1   H7B 2455   3.609   4.837   7.840 -0.5446  0.0554  0.9205
   34CHL1    C8 2456   3.753   5.001   7.836 -0.2915 -0.0702 -0.3349
   34CHL1    H8 2457   3.738   5.111   7.844 -0.2643 -0.1653  1.2361
   34CHL1   C14 2458   3.804   4.958   7.972  0.6288  0.2065  0.5672
   34CHL1   H14 2459   3.823   4.849   7.963 -1.6087 -0.3750  2.0954
   34CHL1   C15 2460   3.701   4.963   8.087  0.2216 -0.2693  0.3965
   34CHL1  H15A 2461   3.648   5.060   8.096 -0.5984 -0.7155  0.5000
   34CHL1  H15B 2462   3.628   4.880   8.080  0.6095 -0.4851 -4.6032
   34CHL1   C16 2463   3.788   4.952   8.208  0.5226 -0.5707 -0.6025
   34CHL1  H16A 2464   3.759   5.028   8.284 -1.6028 -2.9656  1.1552
   34CHL1  H16B 2465   3.770   4.861   8.270  2.3573  1.5779  3.5749
   34CHL1   C17 2466   3.936   4.949   8.159  0.4319 -0.8427  0.9425
   34CHL1   H17 2467   3.966   4.846   8.130  3.3722  0.1697  0.0550
   34CHL1   C13 2468   3.934   5.018   8.018 -0.5260 -0.3611 -0.6391
   34CHL1   C18 2469   3.922   5.178   8.032 -0.1685  0.3295  0.2063
   34CHL1  H18A 2470   3.900   5.224   7.934  0.8943 -0.0362 -0.2174
   34CHL1  H18B 2471   3.849   5.210   8.109 -1.2443 -0.5557 -0.4252
   34CHL1  H18C 2472   4.018   5.225   8.065 -0.8994  1.5616  0.6343
   34CHL1   C12 2473   4.038   4.966   7.912  0.2943 -0.1994  0.4997
   34CHL1  H12A 2474   4.138   5.010   7.931 -0.2749  0.9919  0.8277
   34CHL1  H12B 2475   4.042   4.855   7.905 -0.1848 -0.2250  0.6391
   34CHL1   C11 2476   4.004   5.018   7.770 -0.0745  0.6831 -0.0128
   34CHL1  H11A 2477   4.021   5.128   7.776 -1.1316  0.8049  1.5238
   34CHL1  H11B 2478   4.075   4.988   7.690  0.1717  2.2567 -0.4285
   34CHL1    C9 2479   3.856   4.980   7.727  0.2786  0.4057 -0.2475
   34CHL1    H9 2480   3.861   4.869   7.722  1.1836  0.4202  0.1082
   34CHL1   C10 2481   3.812   5.025   7.590  1.0121 -0.0671 -0.6209
   34CHL1   C19 2482   3.839   5.182   7.578  0.1334  0.1495  0.2958
   34CHL1  H19A 2483   3.943   5.181   7.539  0.1504 -1.5669  0.2960
   34CHL1  H19B 2484   3.773   5.230   7.504  0.7967 -0.8088 -0.9563
   34CHL1  H19C 2485   3.833   5.227   7.680 -0.5614  2.8220 -0.8596
   34CHL1    C1 2486   3.889   4.948   7.479  0.0641 -0.5100  0.7018
   34CHL1   H1A 2487   3.996   4.978   7.473 -0.1484  0.0450 -0.5413
   34CHL1   H1B 2488   3.880   4.838   7.493  0.1127 -0.7235 -0.7590
   34CHL1    C2 2489   3.832   4.968   7.340 -0.3041 -0.1219 -0.5308
   34CHL1   H2A 2490   3.890   4.913   7.264  0.3434 -0.0147 -0.1217
   34CHL1   H2B 2491   3.848   5.075   7.315  0.3272 -0.3796 -1.2486
   34CHL1   C20 2492   4.029   5.012   8.256 -0.4552  1.1303 -0.2898
   34CHL1   H20 2493   4.018   5.122   8.253  2.6509  1.4995 -1.9739
   34CHL1   C21 2494   4.184   4.995   8.221 -0.1467 -0.5822  0.2494
   34CHL1  H21A 2495   4.251   5.045   8.294  0.3706 -0.2774 -0.4203
   34CHL1  H21B 2496   4.189   5.045   8.122 -1.6527 -1.6775 -0.4226
   34CHL1  H21C 2497   4.209   4.888   8.208 -0.3105 -0.6503  0.5002
   34CHL1   C22 2498   4.006   4.966   8.399  0.7467  0.0970 -0.3413
   34CHL1  H22A 2499   4.086   5.012   8.460 -0.1401  0.5506  0.5142
   34CHL1  H22B 2500   3.911   5.000   8.445 -0.5163 -1.2419 -1.8273
   34CHL1   C23 2501   4.023   4.815   8.417 -0.4159 -0.2793 -1.0413
   34CHL1  H23A 2502   3.932   4.769   8.372 -0.7227 -0.5715 -0.1435
   34CHL1  H23B 2503   4.103   4.762   8.361  1.0879  1.1486 -0.3296
   34CHL1   C24 2504   4.027   4.756   8.558 -0.1398  0.0148  0.4052
   34CHL1  H24A 2505   3.942   4.806   8.610 -1.1277 -0.3396 -0.8303
   34CHL1  H24B 2506   4.006   4.647   8.554 -2.2737  0.3704  0.4565
   34CHL1   C25 2507   4.162   4.776   8.632  0.0038 -1.1523 -0.3982
   34CHL1   H25 2508   4.157   4.886   8.649  0.1776 -1.3765  1.1681
   34CHL1   C26 2509   4.143   4.699   8.757  0.1674  0.1066  0.2195
   34CHL1  H26A 2510   4.137   4.590   8.735 -0.0923  0.1821 -0.1083
   34CHL1  H26B 2511   4.230   4.713   8.823 -0.1821 -1.8836  1.1715
   34CHL1  H26C 2512   4.046   4.724   8.806  0.4560  0.3504  0.6608
   34CHL1   C27 2513   4.296   4.744   8.558  0.1788 -0.8257  0.1708
   34CHL1  H27A 2514   4.383   4.799   8.599  1.4611 -1.0013 -2.1874
   34CHL1  H27B 2515   4.310   4.637   8.582  1.3836 -0.2935  2.0906
   34CHL1  H27C 2516   4.286   4.757   8.448 -1.3714 -0.9108  0.2757
   35CHL1    C3 2517   1.076   4.174   7.205 -0.4782  0.6024 -0.5182
   35CHL1    H3 2518   1.024   4.078   7.224 -1.0248  1.4315  2.9251
   35CHL1    O3 2519   1.104   4.206   7.068  0.5905 -0.1071  0.2099
   35CHL1   H3' 2520   1.046   4.159   7.008  2.6008  1.6251 -3.4302
   35CHL1    C4 2521   0.984   4.283   7.259  0.4769  0.0077  0.1142
   35CHL1   H4A 2522   1.030   4.381   7.235 -1.3802  0.9322  0.1947
   35CHL1   H4B 2523   0.889   4.279   7.203  0.7612  2.0265 -0.5875
   35CHL1    C5 2524   0.969   4.272   7.411 -0.4495  0.5281  0.4851
   35CHL1    C6 2525   0.847   4.262   7.463  0.0660  0.8783  0.2551
   35CHL1    H6 2526   0.758   4.263   7.398 -0.0804  1.8657  0.4451
   35CHL1    C7 2527   0.809   4.260   7.603  0.0873  0.4739 -0.4712
   35CHL1   H7A 2528   0.739   4.343   7.626 -0.0516  0.0252  0.7718
   35CHL1   H7B 2529   0.748   4.169   7.623 -1.7169  1.5069 -1.0404
   35CHL1    C8 2530   0.932   4.271   7.702 -0.1880  0.3236 -0.1630
   35CHL1    H8 2531   0.958   4.379   7.705  0.5318  0.2761 -2.8075
   35CHL1   C14 2532   0.902   4.215   7.836  0.2518 -0.0967  0.0457
   35CHL1   H14 2533   0.885   4.106   7.824 -1.4126  0.3948 -2.9223
   35CHL1   C15 2534   0.771   4.261   7.906 -1.1350 -0.6822 -0.0128
   35CHL1  H15A 2535   0.765   4.368   7.879 -1.8701 -1.0812 -1.5227
   35CHL1  H15B 2536   0.687   4.212   7.853 -0.9654  1.2479 -2.2093
   35CHL1   C16 2537   0.788   4.219   8.054  0.0954  0.4008  0.2282
   35CHL1  H16A 2538   0.775   4.310   8.118 -0.6120  0.3829  0.1205
   35CHL1  H16B 2539   0.714   4.147   8.094  0.0817  1.4449  2.2254
   35CHL1   C17 2540   0.940   4.178   8.070 -0.3338  0.6657 -0.3437
   35CHL1   H17 2541   0.953   4.068   8.055  0.5723  0.4811  1.5589
   35CHL1   C13 2542   1.010   4.243   7.945  0.2818  0.1934 -0.8060
   35CHL1   C18 2543   1.029   4.394   7.967  0.3928  0.2511  0.3954
   35CHL1  H18A 2544   1.124   4.410   8.021  0.4155 -1.1954  0.8345
   35CHL1  H18B 2545   1.028   4.447   7.870  2.2808 -0.0062  0.1990
   35CHL1  H18C 2546   0.946   4.443   8.023  0.9730  0.2339  1.2975
   35CHL1   C12 2547   1.135   4.175   7.893 -0.6741 -0.3014 -0.1624
   35CHL1  H12A 2548   1.227   4.218   7.938 -0.1708 -0.9405 -0.5674
   35CHL1  H12B 2549   1.137   4.066   7.916 -0.0112 -0.1937  0.3375
   35CHL1   C11 2550   1.172   4.204   7.750 -0.2462 -0.3271  0.1497
   35CHL1  H11A 2551   1.186   4.314   7.755 -3.0018  0.2651 -2.3831
   35CHL1  H11B 2552   1.262   4.156   7.708  0.4710  0.4331  0.7920
   35CHL1    C9 2553   1.058   4.205   7.643  0.3018  0.4205 -0.1483
   35CHL1    H9 2554   1.039   4.096   7.636 -2.0968  0.8220 -0.7419
   35CHL1   C10 2555   1.097   4.253   7.498 -0.4661 -0.8299 -0.4071
   35CHL1   C19 2556   1.174   4.385   7.516 -0.6645 -0.2959 -0.2218
   35CHL1  H19A 2557   1.212   4.418   7.417  0.1402  0.0668  0.1979
   35CHL1  H19B 2558   1.106   4.460   7.563  0.8560  1.5275 -0.7926
   35CHL1  H19C 2559   1.264   4.380   7.581 -1.5672  2.9996  1.5281
   35CHL1    C1 2560   1.187   4.149   7.436 -0.4437  0.4217 -0.0600
   35CHL1   H1A 2561   1.287   4.146   7.485 -0.0089 -2.2880 -0.9931
   35CHL1   H1B 2562   1.137   4.051   7.451  0.8712  0.0620  2.6114
   35CHL1    C2 2563   1.213   4.163   7.286  0.6494  0.0168  0.6150
   35CHL1   H2A 2564   1.276   4.079   7.248 -2.5935 -1.1779 -2.7580
   35CHL1   H2B 2565   1.266   4.258   7.261 -1.0894  0.7770 -0.3784
   35CHL1   C20 2566   0.984   4.204   8.216  0.0655 -0.5382  0.0320
   35CHL1   H20 2567   0.958   4.307   8.249 -1.1027 -1.1883  1.2295
   35CHL1   C21 2568   1.139   4.178   8.226  0.4956 -0.7143 -0.2394
   35CHL1  H21A 2569   1.163   4.075   8.192  0.4026 -0.9485  0.3914
   35CHL1  H21B 2570   1.177   4.186   8.329 -1.9472 -0.6644  0.7317
   35CHL1  H21C 2571   1.197   4.257   8.173  0.9369  0.1186  1.4250
   35CHL1   C22 2572   0.918   4.118   8.318  0.1601 -0.5407  0.1513
   35CHL1  H22A 2573   0.810   4.097   8.301 -0.1255  1.4760 -0.8533
   35CHL1  H22B 2574   0.973   4.021   8.319  1.7534  0.2782 -1.9482
   35CHL1   C23 2575   0.927   4.168   8.459 -0.2238 -0.3476  0.5164
   35CHL1  H23A 2576   1.028   4.200   8.491  0.1245  0.9604 -1.7110
   35CHL1  H23B 2577   0.873   4.264   8.475  0.2090 -0.2697  1.5633
   35CHL1   C24 2578   0.856   4.074   8.558 -0.1640 -0.1026  0.1983
   35CHL1  H24A 2579   0.760   4.051   8.508 -0.2067  1.4560 -0.4758
   35CHL1  H24B 2580   0.906   3.975   8.563 -0.4878 -0.4979 -2.5464
   35CHL1   C25 2581   0.841   4.137   8.703 -0.4614 -0.1053 -0.6177
   35CHL1   H25 2582   0.836   4.044   8.763 -0.5373  0.6775  0.6294
   35CHL1   C26 2583   0.972   4.207   8.756 -0.4382  0.1088 -0.4381
   35CHL1  H26A 2584   0.965   4.210   8.866 -2.7489  0.3907 -0.5391
   35CHL1  H26B 2585   1.067   4.161   8.723 -0.3441  0.0834 -0.1322
   35CHL1  H26C 2586   0.972   4.312   8.720 -0.2681 -0.5754 -2.5767
   35CHL1   C27 2587   0.708   4.217   8.723 -0.4442 -0.7894 -0.6146
   35CHL1  H27A 2588   0.617   4.175   8.676  0.5282 -1.6552 -1.7869
   35CHL1  H27B 2589   0.720   4.307   8.658  1.8900 -0.3595  0.3201
   35CHL1  H27C 2590   0.695   4.256   8.826 -2.6628  1.6164 -1.6661
   36CHL1    C3 2591   0.731   3.987   7.150 -0.8522  0.1491  0.2054
   36CHL1    H3 2592   0.794   4.078   7.153  2.9875 -2.2753  0.3963
   36CHL1    O3 2593   0.727   3.948   7.012 -0.2600  0.2610 -0.8787
   36CHL1   H3' 2594   0.660   3.880   7.002 -0.7241  0.2372  1.7060
   36CHL1    C4 2595   0.798   3.872   7.232 -0.0339 -0.0312  0.3803
   36CHL1   H4A 2596   0.757   3.778   7.188 -1.0873  0.5268  0.1246
   36CHL1   H4B 2597   0.906   3.872   7.206 -0.5154  2.1345 -2.0263
   36CHL1    C5 2598   0.769   3.869   7.376  0.2898  0.2484 -0.5855
   36CHL1    C6 2599   0.869   3.877   7.465  0.6163  0.2357  0.5182
   36CHL1    H6 2600   0.975   3.871   7.435  1.3350  2.2056  2.4045
   36CHL1    C7 2601   0.848   3.877   7.612 -0.2024  0.5355  0.6333
   36CHL1   H7A 2602   0.926   3.809   7.654  1.4103  0.7662 -1.7680
   36CHL1   H7B 2603   0.870   3.977   7.655 -0.9449  0.6123  0.8437
   36CHL1    C8 2604   0.716   3.828   7.651  0.0367  0.2842  0.5171
   36CHL1    H8 2605   0.709   3.721   7.622 -0.0637  0.5215 -0.3615
   36CHL1   C14 2606   0.704   3.855   7.799  0.9265  0.4192 -0.5829
   36CHL1   H14 2607   0.721   3.963   7.814 -0.9932  1.1469 -2.9565
   36CHL1   C15 2608   0.805   3.782   7.891  0.7178  0.5624 -0.7488
   36CHL1  H15A 2609   0.827   3.676   7.865 -3.0224 -0.0602 -1.8945
   36CHL1  H15B 2610   0.899   3.841   7.878  0.5220  0.6336 -1.9128
   36CHL1   C16 2611   0.738   3.795   8.032 -0.6265  0.7637  0.6432
   36CHL1  H16A 2612   0.733   3.693   8.076 -0.8176  0.2136 -0.6093
   36CHL1  H16B 2613   0.808   3.857   8.092  0.0290  0.7619 -0.1098
   36CHL1   C17 2614   0.597   3.861   8.002 -0.0424  0.5672 -0.3289
   36CHL1   H17 2615   0.630   3.967   8.007 -2.2225  1.3319 -1.1178
   36CHL1   C13 2616   0.568   3.830   7.853 -0.1452  0.4466 -0.1339
   36CHL1   C18 2617   0.513   3.694   7.840  0.0850  0.5466  0.1724
   36CHL1  H18A 2618   0.409   3.698   7.880 -0.7265  0.6953 -1.8751
   36CHL1  H18B 2619   0.507   3.668   7.733  0.7754  3.0009 -0.5214
   36CHL1  H18C 2620   0.568   3.617   7.899  0.7079  0.9681  0.1464
   36CHL1   C12 2621   0.471   3.928   7.784 -0.2147  0.0310 -0.6064
   36CHL1  H12A 2622   0.371   3.912   7.829  0.8233 -0.3246  1.7872
   36CHL1  H12B 2623   0.511   4.027   7.815  0.3430 -0.7974  1.5535
   36CHL1   C11 2624   0.466   3.907   7.631  0.4386  0.0676 -0.3899
   36CHL1  H11A 2625   0.410   3.815   7.603 -0.7869  0.7800 -0.3894
   36CHL1  H11B 2626   0.401   3.984   7.583  0.7842 -0.2472 -1.3917
   36CHL1    C9 2627   0.609   3.912   7.571 -0.3316  0.2383  0.2304
   36CHL1    H9 2628   0.641   4.018   7.575  1.5389 -0.2042 -1.4478
   36CHL1   C10 2629   0.626   3.881   7.417 -0.5066 -1.0762 -0.0672
   36CHL1   C19 2630   0.550   3.754   7.375 -0.5084 -0.5964 -0.4481
   36CHL1  H19A 2631   0.443   3.765   7.400 -0.2983  2.3379 -0.5681
   36CHL1  H19B 2632   0.551   3.751   7.264 -0.6042 -0.1456 -0.4627
   36CHL1  H19C 2633   0.594   3.665   7.425  0.8128  0.2309 -0.1122
   36CHL1    C1 2634   0.575   4.012   7.352  0.0293 -0.2789 -0.2808
   36CHL1   H1A 2635   0.466   4.025   7.372  0.3864  0.8320  1.1153
   36CHL1   H1B 2636   0.635   4.100   7.385 -0.9045  1.0591 -1.9860
   36CHL1    C2 2637   0.587   4.004   7.197  0.6398  0.7182 -0.6488
   36CHL1   H2A 2638   0.544   4.088   7.138  0.6006  0.0606 -1.5705
   36CHL1   H2B 2639   0.527   3.924   7.148 -1.0974  2.5480 -1.6757
   36CHL1   C20 2640   0.489   3.853   8.107 -0.6493  0.2312  0.3129
   36CHL1   H20 2641   0.390   3.871   8.060  0.1314 -0.5791 -1.7174
   36CHL1   C21 2642   0.520   3.972   8.205  0.0723  0.1015  0.1390
   36CHL1  H21A 2643   0.627   3.969   8.231  0.1258  1.2859  0.1117
   36CHL1  H21B 2644   0.459   3.971   8.298  1.1948 -1.3338  0.8901
   36CHL1  H21C 2645   0.495   4.072   8.163 -1.2893  1.1005  3.0559
   36CHL1   C22 2646   0.488   3.718   8.179 -0.6708 -0.1450 -0.3153
   36CHL1  H22A 2647   0.517   3.637   8.109 -0.7289  0.5095 -1.1054
   36CHL1  H22B 2648   0.563   3.719   8.261 -0.0573 -1.0430 -0.8577
   36CHL1   C23 2649   0.354   3.667   8.245  0.4451 -0.2077  0.4922
   36CHL1  H23A 2650   0.336   3.739   8.328  1.0931 -1.2610  1.5876
   36CHL1  H23B 2651   0.272   3.687   8.173  2.5857  0.6237 -1.8643
   36CHL1   C24 2652   0.364   3.520   8.298  1.0455  0.4693 -0.1041
   36CHL1  H24A 2653   0.383   3.448   8.216  3.3780  0.2711  0.5395
   36CHL1  H24B 2654   0.458   3.510   8.356 -0.3373 -2.0013  1.9547
   36CHL1   C25 2655   0.244   3.456   8.383 -0.2662 -0.3822  0.5533
   36CHL1   H25 2656   0.218   3.527   8.465 -0.0239  0.9047 -0.4425
   36CHL1   C26 2657   0.125   3.432   8.287 -0.0831 -0.3357  0.2473
   36CHL1  H26A 2658   0.160   3.375   8.199 -1.9552 -0.8067 -0.2477
   36CHL1  H26B 2659   0.035   3.387   8.334  0.1692  1.2737  2.3996
   36CHL1  H26C 2660   0.083   3.531   8.257 -0.9563 -0.3587  1.3152
   36CHL1   C27 2661   0.284   3.318   8.443 -0.2482 -0.5023 -0.7344
   36CHL1  H27A 2662   0.360   3.324   8.524  1.4051 -3.0041 -1.9435
   36CHL1  H27B 2663   0.202   3.264   8.494 -0.6451 -0.3267 -1.1757
   36CHL1  H27C 2664   0.329   3.259   8.359  1.8254  1.9190 -1.4459
   37CHL1    C3 2665   5.001   0.282   7.101  0.3822  0.3220  0.3125
   37CHL1    H3 2666   4.910   0.228   7.069 -0.9279  3.8161 -2.4335
   37CHL1    O3 2667   5.038   0.353   6.984 -0.2287 -0.5124 -0.2830
   37CHL1   H3' 2668   4.956   0.395   6.957 -0.9889 -1.7223  0.1039
   37CHL1    C4 2669   4.955   0.383   7.208 -0.1047 -0.0630 -0.0106
   37CHL1   H4A 2670   5.033   0.462   7.217 -1.2385  1.0938 -0.0774
   37CHL1   H4B 2671   4.863   0.433   7.172 -0.2053 -1.7840 -2.3734
   37CHL1    C5 2672   4.931   0.315   7.340 -0.1946 -0.0325 -0.3951
   37CHL1    C6 2673   4.823   0.340   7.407  0.0889  0.4138 -0.1154
   37CHL1    H6 2674   4.747   0.405   7.361 -0.9167  0.8581  2.0338
   37CHL1    C7 2675   4.792   0.272   7.535  0.4635 -0.0956  0.0163
   37CHL1   H7A 2676   4.721   0.334   7.594 -1.4991  0.2843 -2.5814
   37CHL1   H7B 2677   4.738   0.179   7.510 -0.2689  0.1198  0.7592
   37CHL1    C8 2678   4.917   0.242   7.613 -0.7727 -0.7313  0.4308
   37CHL1    H8 2679   4.970   0.336   7.637 -0.8466 -0.4691 -0.4086
   37CHL1   C14 2680   4.895   0.172   7.744 -0.8237 -0.2109 -0.4259
   37CHL1   H14 2681   4.838   0.079   7.720 -1.3497  0.4614 -1.9101
   37CHL1   C15 2682   4.810   0.244   7.847 -0.1270 -0.5987 -0.9297
   37CHL1  H15A 2683   4.842   0.350   7.836  1.1094 -0.9134 -0.5012
   37CHL1  H15B 2684   4.700   0.236   7.830 -0.3970  0.5616  0.1545
   37CHL1   C16 2685   4.849   0.181   7.979 -0.1040 -0.4791  0.1588
   37CHL1  H16A 2686   4.895   0.261   8.040  1.4418 -0.0216 -1.4997
   37CHL1  H16B 2687   4.755   0.140   8.022 -1.0435  1.1412 -0.2714
   37CHL1   C17 2688   4.956   0.074   7.950 -0.1539 -0.0857  0.5567
   37CHL1   H17 2689   4.909  -0.024   7.930 -1.5173  0.7038 -0.2544
   37CHL1   C13 2690   5.020   0.117   7.813  0.3652 -0.9607  0.3669
   37CHL1   C18 2691   5.119   0.225   7.855  0.3278 -0.0037 -0.3024
   37CHL1  H18A 2692   5.068   0.304   7.915  1.4069 -0.2940  1.0585
   37CHL1  H18B 2693   5.212   0.187   7.902 -0.0796  1.6723  2.0645
   37CHL1  H18C 2694   5.157   0.279   7.765 -1.1699 -0.8546 -1.4980
   37CHL1   C12 2695   5.089   0.015   7.721  0.5004 -0.7577  0.2226
   37CHL1  H12A 2696   5.192  -0.007   7.757  0.8952 -0.7658 -0.8641
   37CHL1  H12B 2697   5.025  -0.075   7.714  0.7139 -1.1680  2.6790
   37CHL1   C11 2698   5.119   0.083   7.590  0.5129 -0.5958  0.4968
   37CHL1  H11A 2699   5.202   0.155   7.609  1.1430 -1.3911  0.8280
   37CHL1  H11B 2700   5.152   0.002   7.522  1.0297  0.7216 -0.8884
   37CHL1    C9 2701   5.003   0.158   7.519 -0.3361 -0.0321 -0.7254
   37CHL1    H9 2702   4.935   0.074   7.491 -1.0160  0.6540 -1.1660
   37CHL1   C10 2703   5.052   0.225   7.388 -0.3261 -0.7208 -0.8123
   37CHL1   C19 2704   5.175   0.319   7.410 -0.5540 -0.5524  0.6200
   37CHL1  H19A 2705   5.195   0.371   7.314  0.3354 -2.5186 -0.3291
   37CHL1  H19B 2706   5.165   0.388   7.497  1.7293 -1.0517  1.3564
   37CHL1  H19C 2707   5.260   0.248   7.423 -0.0115 -0.1486 -0.6426
   37CHL1    C1 2708   5.075   0.119   7.277 -0.0753 -0.5411 -0.7188
   37CHL1   H1A 2709   5.158   0.050   7.304 -0.4831 -1.4227 -1.6779
   37CHL1   H1B 2710   4.988   0.055   7.250  0.1859 -0.9254 -0.6582
   37CHL1    C2 2711   5.118   0.190   7.141  0.4767 -0.2023  0.1093
   37CHL1   H2A 2712   5.132   0.116   7.060 -0.7125  1.0672 -1.3198
   37CHL1   H2B 2713   5.214   0.245   7.140  1.8768 -2.4925 -2.3477
   37CHL1   C20 2714   5.041   0.043   8.079 -0.6399 -0.4511 -0.0665
   37CHL1   H20 2715   5.107   0.127   8.111 -0.1954 -1.1556  0.9196
   37CHL1   C21 2716   5.132  -0.076   8.043  0.3095 -0.2118 -0.0690
   37CHL1  H21A 2717   5.194  -0.100   8.132  1.5689  1.6843 -0.4031
   37CHL1  H21B 2718   5.188  -0.067   7.948 -1.1951  1.5534 -0.8558
   37CHL1  H21C 2719   5.054  -0.156   8.036 -1.6338  1.6083 -0.3399
   37CHL1   C22 2720   4.958   0.013   8.198  0.1094 -0.1733 -0.2341
   37CHL1  H22A 2721   4.889   0.098   8.217  0.4164 -0.3029  1.6674
   37CHL1  H22B 2722   4.901  -0.080   8.180 -0.2916  0.1190 -0.5116
   37CHL1   C23 2723   5.027  -0.002   8.333 -0.4880  0.2030 -0.1973
   37CHL1  H23A 2724   5.080  -0.099   8.328 -1.0290 -0.1187  0.1150
   37CHL1  H23B 2725   5.106   0.075   8.343 -0.9972  0.6670  0.3821
   37CHL1   C24 2726   4.936  -0.018   8.457 -0.6224  0.5157 -0.5028
   37CHL1  H24A 2727   4.852  -0.086   8.431  0.9371 -0.6082 -2.9530
   37CHL1  H24B 2728   4.997  -0.061   8.539  1.8720  0.6914 -2.1644
   37CHL1   C25 2729   4.886   0.110   8.524  0.3164 -0.1107  0.3632
   37CHL1   H25 2730   4.961   0.167   8.582  0.5548  1.9368 -1.8175
   37CHL1   C26 2731   4.818   0.218   8.428 -0.2671  0.6536 -0.2881
   37CHL1  H26A 2732   4.897   0.275   8.375  1.0995 -0.5023  0.4281
   37CHL1  H26B 2733   4.748   0.167   8.358 -1.7956  0.9916  0.9297
   37CHL1  H26C 2734   4.759   0.293   8.485  2.5127  3.0012 -0.3031
   37CHL1   C27 2735   4.781   0.069   8.629  0.5218 -0.5468 -0.3085
   37CHL1  H27A 2736   4.687   0.039   8.578  1.3939 -2.3369 -0.9371
   37CHL1  H27B 2737   4.812  -0.021   8.686  1.3596  0.3977  0.8018
   37CHL1  H27C 2738   4.761   0.150   8.703  0.9045 -1.0742  0.3955
   38CHL1    C3 2739   2.163   1.536   6.874 -0.2182  0.4555  0.1771
   38CHL1    H3 2740   2.250   1.601   6.850 -1.3208  1.4120 -1.4627
   38CHL1    O3 2741   2.107   1.480   6.752 -0.0536  0.6607  0.0184
   38CHL1   H3' 2742   2.060   1.405   6.788  0.9928 -0.2445 -0.4451
   38CHL1    C4 2743   2.215   1.422   6.968  0.5789  0.1431  0.0304
   38CHL1   H4A 2744   2.128   1.353   6.969 -0.4589  1.3391 -1.5848
   38CHL1   H4B 2745   2.295   1.371   6.911  1.0867  1.2197 -0.2396
   38CHL1    C5 2746   2.255   1.469   7.109 -0.2596 -0.3109  0.4286
   38CHL1    C6 2747   2.382   1.460   7.156  0.0920 -0.0256 -0.4249
   38CHL1    H6 2748   2.452   1.394   7.102  0.0471 -1.2275  0.9106
   38CHL1    C7 2749   2.422   1.498   7.296  0.4365  0.6814  0.8839
   38CHL1   H7A 2750   2.464   1.412   7.352 -0.3941  0.5598  1.3326
   38CHL1   H7B 2751   2.496   1.579   7.279 -0.0967  0.9967 -0.0352
   38CHL1    C8 2752   2.292   1.534   7.381  0.4538 -0.3674  0.1042
   38CHL1    H8 2753   2.248   1.437   7.413  0.6197  0.1907  2.1859
   38CHL1   C14 2754   2.327   1.594   7.511  0.2057 -0.1766 -0.8101
   38CHL1   H14 2755   2.368   1.696   7.498 -1.9174  0.6786 -1.1753
   38CHL1   C15 2756   2.426   1.521   7.600  0.4722  0.7163 -0.3533
   38CHL1  H15A 2757   2.396   1.414   7.611  4.3952 -0.4835  0.4418
   38CHL1  H15B 2758   2.531   1.522   7.563  0.2975 -2.6265 -1.2485
   38CHL1   C16 2759   2.414   1.586   7.738 -0.1158  0.1931 -0.2287
   38CHL1  H16A 2760   2.408   1.509   7.817 -4.1532 -0.2076 -0.7174
   38CHL1  H16B 2761   2.497   1.658   7.754  0.1674  0.4498 -2.4380
   38CHL1   C17 2762   2.282   1.666   7.737  0.1938  0.4143 -0.2284
   38CHL1   H17 2763   2.302   1.774   7.722  0.3484  0.5229  0.7250
   38CHL1   C13 2764   2.208   1.629   7.607  0.2375  0.5528 -1.0997
   38CHL1   C18 2765   2.126   1.497   7.634 -0.1281 -0.5134  0.2683
   38CHL1  H18A 2766   2.188   1.420   7.685 -0.9353 -0.3685  1.5220
   38CHL1  H18B 2767   2.036   1.506   7.699 -0.8859  2.3742 -1.0478
   38CHL1  H18C 2768   2.086   1.452   7.540 -0.5845  0.9157 -0.2337
   38CHL1   C12 2769   2.116   1.724   7.536  0.0743  0.5940  0.0273
   38CHL1  H12A 2770   2.031   1.736   7.606 -1.1684  0.3847 -1.3816
   38CHL1  H12B 2771   2.174   1.818   7.519 -0.9048  1.0976 -0.7278
   38CHL1   C11 2772   2.071   1.674   7.396  0.0430 -0.1406 -0.4060
   38CHL1  H11A 2773   1.988   1.602   7.411 -1.6589  1.3379 -2.0718
   38CHL1  H11B 2774   2.023   1.759   7.342 -0.8977 -1.0981 -1.1185
   38CHL1    C9 2775   2.191   1.620   7.311 -0.5199 -0.6344  0.7303
   38CHL1    H9 2776   2.256   1.708   7.291  0.0587 -0.2588  3.7989
   38CHL1   C10 2777   2.146   1.550   7.178 -0.0286 -1.0941  0.9885
   38CHL1   C19 2778   2.025   1.450   7.209 -0.1429 -0.5298  0.1775
   38CHL1  H19A 2779   2.047   1.394   7.302 -2.2751  2.3315  2.5884
   38CHL1  H19B 2780   1.944   1.517   7.243 -0.5521 -0.9682  0.0809
   38CHL1  H19C 2781   1.996   1.381   7.126 -1.1428  1.8732 -1.5867
   38CHL1    C1 2782   2.111   1.664   7.084  0.9142 -0.8324  0.0439
   38CHL1   H1A 2783   2.033   1.719   7.141  1.3825  0.0037 -0.1045
   38CHL1   H1B 2784   2.204   1.725   7.080  0.6525 -0.3799  0.6821
   38CHL1    C2 2785   2.061   1.623   6.944 -0.2932 -0.1822 -0.2086
   38CHL1   H2A 2786   2.044   1.715   6.884 -0.6278 -1.1595 -1.6557
   38CHL1   H2B 2787   1.964   1.569   6.949  0.5528 -1.9978 -1.9771
   38CHL1   C20 2788   2.207   1.661   7.870 -0.2818 -0.2463 -0.5313
   38CHL1   H20 2789   2.171   1.556   7.877  2.9691 -1.3882  2.0746
   38CHL1   C21 2790   2.084   1.751   7.874 -0.0211 -0.2739  0.5264
   38CHL1  H21A 2791   2.004   1.721   7.803  1.0413 -1.9395 -0.0202
   38CHL1  H21B 2792   2.111   1.854   7.842  0.0046 -0.1058  1.0671
   38CHL1  H21C 2793   2.037   1.772   7.973 -1.5015 -1.4360  0.0969
   38CHL1   C22 2794   2.297   1.687   7.993  0.2109 -0.2196  0.1739
   38CHL1  H22A 2795   2.401   1.650   7.987  0.3152  0.2735 -1.7678
   38CHL1  H22B 2796   2.303   1.793   8.025 -0.0939 -0.1075 -0.1290
   38CHL1   C23 2797   2.240   1.612   8.121  0.0089  0.2635 -0.3797
   38CHL1  H23A 2798   2.132   1.635   8.126  0.1867  1.0783 -0.2017
   38CHL1  H23B 2799   2.249   1.503   8.099 -0.0520  0.4842 -1.5792
   38CHL1   C24 2800   2.301   1.645   8.252  0.9479 -0.8018 -0.4498
   38CHL1  H24A 2801   2.408   1.625   8.273  0.9925 -0.6773 -0.5555
   38CHL1  H24B 2802   2.290   1.753   8.275 -1.2907 -0.9465 -0.6821
   38CHL1   C25 2803   2.215   1.580   8.375  0.0720 -0.2726  0.2911
   38CHL1   H25 2804   2.195   1.475   8.344 -1.6804  0.3670 -0.8598
   38CHL1   C26 2805   2.298   1.578   8.505  0.2989 -0.1990  0.1545
   38CHL1  H26A 2806   2.251   1.567   8.605 -1.3214  3.8794  0.0756
   38CHL1  H26B 2807   2.390   1.519   8.485  1.3054  1.9517 -2.3292
   38CHL1  H26C 2808   2.335   1.683   8.514  0.6920 -0.2097 -1.0921
   38CHL1   C27 2809   2.079   1.643   8.406  0.5776  0.0067 -0.4596
   38CHL1  H27A 2810   2.024   1.656   8.311  0.5547 -0.4676 -0.5144
   38CHL1  H27B 2811   2.024   1.589   8.487 -1.4261 -0.1419 -1.8628
   38CHL1  H27C 2812   2.101   1.745   8.444 -0.4229  0.3743 -0.8534
   39CHL1    C3 2813   2.164   6.151   6.883 -0.3609  0.6363  0.0249
   39CHL1    H3 2814   2.073   6.213   6.871 -0.6241  0.0245 -1.3218
   39CHL1    O3 2815   2.197   6.112   6.753 -0.3753  0.1505  0.7936
   39CHL1   H3' 2816   2.273   6.057   6.770  1.0522  2.2373  1.5122
   39CHL1    C4 2817   2.281   6.225   6.958  0.2339 -0.1021 -0.3921
   39CHL1   H4A 2818   2.375   6.166   6.947  0.4756 -0.5629  3.1855
   39CHL1   H4B 2819   2.301   6.319   6.902  0.2707  0.5908  0.7527
   39CHL1    C5 2820   2.253   6.233   7.106  0.7748  0.2601  0.1137
   39CHL1    C6 2821   2.266   6.344   7.170 -0.2466  0.3435 -0.3007
   39CHL1    H6 2822   2.287   6.439   7.119 -0.5327  0.5909  0.0385
   39CHL1    C7 2823   2.261   6.365   7.318  0.3699 -0.0190  0.0631
   39CHL1   H7A 2824   2.347   6.421   7.361  0.4687  0.2110 -0.4265
   39CHL1   H7B 2825   2.162   6.411   7.341 -0.3817  0.2902 -3.2651
   39CHL1    C8 2826   2.265   6.223   7.396 -0.2645  0.5520  0.4188
   39CHL1    H8 2827   2.370   6.186   7.398 -1.3678 -2.9009  1.8091
   39CHL1   C14 2828   2.224   6.236   7.539 -0.7342  0.0079  0.1047
   39CHL1   H14 2829   2.125   6.286   7.537 -0.0370  1.4146 -1.2189
   39CHL1   C15 2830   2.306   6.337   7.625  0.3391 -0.1795  0.4911
   39CHL1  H15A 2831   2.411   6.344   7.589 -0.2250  1.6271 -0.9474
   39CHL1  H15B 2832   2.262   6.438   7.616  0.6031 -0.1738 -1.0865
   39CHL1   C16 2833   2.267   6.294   7.771 -0.0154 -0.2978  0.0655
   39CHL1  H16A 2834   2.362   6.256   7.815  2.3438  2.6527 -2.0280
   39CHL1  H16B 2835   2.247   6.373   7.846  3.8965  0.5784  0.4229
   39CHL1   C17 2836   2.177   6.171   7.761 -0.0528 -0.0134 -0.1133
   39CHL1   H17 2837   2.076   6.217   7.761 -0.6679 -1.1021 -3.1648
   39CHL1   C13 2838   2.204   6.106   7.620 -0.3233 -0.6216  0.4626
   39CHL1   C18 2839   2.338   6.035   7.631 -0.6603 -0.3863  0.7668
   39CHL1  H18A 2840   2.372   6.003   7.530 -1.9573  0.0911  0.1564
   39CHL1  H18B 2841   2.408   6.104   7.682 -0.5582 -0.8642  1.2965
   39CHL1  H18C 2842   2.322   5.942   7.691 -0.8828 -0.3721  0.7329
   39CHL1   C12 2843   2.100   6.014   7.553 -0.4480 -0.0074 -0.1087
   39CHL1  H12A 2844   2.108   5.915   7.603  1.3150 -0.3815 -1.0306
   39CHL1  H12B 2845   2.003   6.066   7.545  0.6436  2.3721  1.1264
   39CHL1   C11 2846   2.144   5.999   7.405  0.4391  0.0420 -0.0376
   39CHL1  H11A 2847   2.234   5.933   7.399 -1.0287 -2.1204  0.6637
   39CHL1  H11B 2848   2.069   5.941   7.347  0.5217  0.7954 -0.9182
   39CHL1    C9 2849   2.172   6.127   7.319 -0.4160  0.0081  0.8919
   39CHL1    H9 2850   2.077   6.185   7.325  0.5358  1.7411 -0.0349
   39CHL1   C10 2851   2.207   6.101   7.170  0.7290  0.1439  0.7594
   39CHL1   C19 2852   2.328   6.007   7.162  0.4446  0.1326 -0.4376
   39CHL1  H19A 2853   2.412   6.033   7.229 -0.4239 -2.3605  1.8058
   39CHL1  H19B 2854   2.293   5.908   7.198  2.6153  0.0397  1.7020
   39CHL1  H19C 2855   2.366   6.004   7.057  3.3987  0.9251  0.5128
   39CHL1    C1 2856   2.087   6.042   7.096  0.0809 -0.1800 -0.7115
   39CHL1   H1A 2857   2.075   5.943   7.144 -1.3879  0.4792  0.3590
   39CHL1   H1B 2858   1.987   6.089   7.109 -0.4034 -1.1416 -0.8450
   39CHL1    C2 2859   2.119   6.021   6.950  0.4765  0.0413  0.2602
   39CHL1   H2A 2860   2.035   5.979   6.893  3.5890 -3.7492 -2.0056
   39CHL1   H2B 2861   2.188   5.936   6.933 -2.2323 -2.4189  0.8001
   39CHL1   C20 2862   2.190   6.087   7.883  0.2312 -0.3017 -0.2211
   39CHL1   H20 2863   2.293   6.047   7.893 -0.2356 -1.3939  0.3635
   39CHL1   C21 2864   2.094   5.966   7.880  0.0057  0.0698  0.3211
   39CHL1  H21A 2865   2.101   5.901   7.970  0.1001  1.2871  1.2290
   39CHL1  H21B 2866   2.114   5.896   7.796 -1.3332 -0.8660  0.7406
   39CHL1  H21C 2867   1.988   5.998   7.878 -0.1440 -0.4535 -1.1011
   39CHL1   C22 2868   2.160   6.160   8.011 -0.3010 -0.6227 -0.2866
   39CHL1  H22A 2869   2.226   6.246   8.035  0.6698 -1.8176  1.5269
   39CHL1  H22B 2870   2.055   6.194   7.995 -1.7821 -1.7644  5.0689
   39CHL1   C23 2871   2.168   6.084   8.143 -0.1362 -0.3181  0.0289
   39CHL1  H23A 2872   2.101   5.997   8.130 -0.5430 -0.2813  1.5855
   39CHL1  H23B 2873   2.271   6.044   8.154  0.3338  0.0232 -2.6168
   39CHL1   C24 2874   2.120   6.150   8.265  0.5227 -1.2131  0.2968
   39CHL1  H24A 2875   2.173   6.244   8.293  2.2844 -0.7797 -3.8340
   39CHL1  H24B 2876   2.012   6.175   8.253  0.6761  0.0483  1.3339
   39CHL1   C25 2877   2.095   6.058   8.380  0.7521  0.7678  0.0542
   39CHL1   H25 2878   2.062   5.961   8.336 -0.4909  1.5366 -0.7618
   39CHL1   C26 2879   2.218   6.031   8.466  0.4419  0.5163 -0.2364
   39CHL1  H26A 2880   2.300   6.005   8.396  0.7652 -2.4948  1.1286
   39CHL1  H26B 2881   2.245   6.130   8.509 -0.4576  0.4805  0.4581
   39CHL1  H26C 2882   2.205   5.954   8.545 -0.5429  1.2680  0.3618
   39CHL1   C27 2883   1.966   6.095   8.462 -0.0390 -0.5704  0.2268
   39CHL1  H27A 2884   1.977   6.201   8.493  0.1977 -0.5933  0.2228
   39CHL1  H27B 2885   1.868   6.094   8.410  0.1785  2.7592 -0.4578
   39CHL1  H27C 2886   1.972   6.024   8.547 -2.0908 -0.6390  0.3722
   40CHL1    C3 2887   4.226   4.481   6.966  0.6475  0.3106  0.3433
   40CHL1    H3 2888   4.327   4.484   7.012  0.7295 -0.8892  0.2686
   40CHL1    O3 2889   4.239   4.492   6.827 -0.0816 -0.1397  0.1900
   40CHL1   H3' 2890   4.181   4.566   6.807  0.8146  0.5780  0.1530
   40CHL1    C4 2891   4.146   4.356   7.004 -0.5991 -0.6042  0.6281
   40CHL1   H4A 2892   4.042   4.367   6.966 -1.2182  2.6519  2.8584
   40CHL1   H4B 2893   4.203   4.277   6.950 -0.7104  0.6625 -1.4526
   40CHL1    C5 2894   4.123   4.332   7.154 -0.0289 -0.0511  0.2704
   40CHL1    C6 2895   4.152   4.213   7.207 -0.0447 -0.3343 -0.3658
   40CHL1    H6 2896   4.182   4.133   7.138 -0.5658  0.2289 -1.2660
   40CHL1    C7 2897   4.133   4.179   7.348  0.3531  0.0055 -0.0447
   40CHL1   H7A 2898   4.080   4.082   7.358  1.8311 -0.6928  1.6824
   40CHL1   H7B 2899   4.228   4.149   7.398  0.6669 -2.2824 -1.8547
   40CHL1    C8 2900   4.062   4.290   7.438 -0.1716 -0.3692  0.7651
   40CHL1    H8 2901   3.953   4.275   7.425 -0.1699  0.9042 -1.2454
   40CHL1   C14 2902   4.108   4.283   7.583 -0.4578  0.0672  0.2606
   40CHL1   H14 2903   4.216   4.308   7.587 -0.2593 -0.3138 -1.5940
   40CHL1   C15 2904   4.087   4.150   7.658  0.1495 -0.2693  0.3759
   40CHL1  H15A 2905   3.985   4.121   7.626 -0.3201 -0.4548  1.9700
   40CHL1  H15B 2906   4.154   4.072   7.616  1.2710  0.0316  1.5512
   40CHL1   C16 2907   4.106   4.185   7.803 -0.0120  0.6744 -0.4393
   40CHL1  H16A 2908   4.014   4.137   7.844  1.0926 -0.3032  0.9660
   40CHL1  H16B 2909   4.203   4.159   7.850 -0.5618  1.4207  1.1717
   40CHL1   C17 2910   4.093   4.344   7.814  0.0278 -0.1497 -0.1673
   40CHL1   H17 2911   4.194   4.388   7.825  0.0120 -0.2363  0.3124
   40CHL1   C13 2912   4.043   4.387   7.678 -0.4858  0.1419 -0.2609
   40CHL1   C18 2913   3.889   4.370   7.668 -0.4185  0.0058 -0.1794
   40CHL1  H18A 2914   3.853   4.360   7.564 -1.6956  0.1250  0.2344
   40CHL1  H18B 2915   3.864   4.278   7.726  2.7713 -0.9416 -0.1230
   40CHL1  H18C 2916   3.848   4.458   7.723  0.2929 -0.4294  1.1080
   40CHL1   C12 2917   4.094   4.526   7.632 -0.1796  0.1119  0.1671
   40CHL1  H12A 2918   4.075   4.615   7.695  0.3353 -0.1309  0.6748
   40CHL1  H12B 2919   4.203   4.512   7.621 -0.5762 -2.9407 -1.0842
   40CHL1   C11 2920   4.053   4.554   7.481 -0.4588 -0.2824  0.5717
   40CHL1  H11A 2921   3.944   4.567   7.466 -0.2241  1.1970  0.0525
   40CHL1  H11B 2922   4.100   4.652   7.464 -0.0863 -0.3226  1.3142
   40CHL1    C9 2923   4.103   4.436   7.388  0.0724  0.5475  0.0854
   40CHL1    H9 2924   4.213   4.444   7.399  0.2149 -0.7352 -0.2991
   40CHL1   C10 2925   4.080   4.453   7.239  0.0572 -0.6179 -0.7065
   40CHL1   C19 2926   3.919   4.464   7.224 -0.1039 -0.0123  0.7522
   40CHL1  H19A 2927   3.898   4.490   7.119 -1.3649 -2.1842  0.4078
   40CHL1  H19B 2928   3.864   4.371   7.251  0.4134 -1.0995 -1.6498
   40CHL1  H19C 2929   3.884   4.550   7.284  0.4172  1.2458 -0.6957
   40CHL1    C1 2930   4.141   4.587   7.186  0.7264  0.2132  0.1671
   40CHL1   H1A 2931   4.080   4.674   7.220  1.6557  0.6040  0.8810
   40CHL1   H1B 2932   4.246   4.590   7.222  0.9854 -1.0432 -0.4516
   40CHL1    C2 2933   4.149   4.601   7.033 -0.1581 -1.0660  0.0960
   40CHL1   H2A 2934   4.175   4.703   6.998  1.4794 -2.2709 -2.6016
   40CHL1   H2B 2935   4.042   4.590   7.002 -1.6541  3.2029  2.9134
   40CHL1   C20 2936   4.010   4.372   7.943 -0.6937 -0.4191  0.3989
   40CHL1   H20 2937   3.905   4.341   7.923 -0.2124 -1.8014 -0.1126
   40CHL1   C21 2938   3.998   4.525   7.970 -0.8635 -0.5008  0.0717
   40CHL1  H21A 2939   4.098   4.572   7.978 -0.9976 -0.0475 -0.7995
   40CHL1  H21B 2940   3.954   4.537   8.072 -0.3876  0.4275  0.1837
   40CHL1  H21C 2941   3.944   4.567   7.883 -0.6933  0.6593  0.4975
   40CHL1   C22 2942   4.068   4.305   8.070  0.0729  0.1781 -0.3261
   40CHL1  H22A 2943   4.027   4.348   8.164  1.7641  0.4638  0.3223
   40CHL1  H22B 2944   4.038   4.198   8.073 -0.8708  0.4314 -0.4125
   40CHL1   C23 2945   4.217   4.322   8.087 -0.5285  0.1965 -0.5710
   40CHL1  H23A 2946   4.282   4.275   8.010  0.6034 -0.7173  0.8884
   40CHL1  H23B 2947   4.250   4.428   8.088  1.2662 -0.3170 -1.3984
   40CHL1   C24 2948   4.247   4.267   8.236  0.1122  0.1602  0.6474
   40CHL1  H24A 2949   4.224   4.342   8.316 -2.6860 -0.4930  0.5458
   40CHL1  H24B 2950   4.173   4.191   8.269 -1.4575  1.0865 -0.5529
   40CHL1   C25 2951   4.388   4.211   8.255 -0.7376  0.3029 -0.1446
   40CHL1   H25 2952   4.405   4.128   8.184  2.2266  1.8633 -1.4302
   40CHL1   C26 2953   4.488   4.320   8.225  0.3724 -0.0859  0.2275
   40CHL1  H26A 2954   4.474   4.338   8.116 -0.9134 -2.2535 -0.0304
   40CHL1  H26B 2955   4.450   4.403   8.288 -1.5370 -2.4205  2.3678
   40CHL1  H26C 2956   4.595   4.302   8.249  1.2982  2.2297 -1.7035
   40CHL1   C27 2957   4.401   4.172   8.408  0.1633  0.5832  0.5512
   40CHL1  H27A 2958   4.317   4.113   8.450  1.2360 -2.1359 -0.8548
   40CHL1  H27B 2959   4.493   4.111   8.423  0.4086  0.8426  0.1390
   40CHL1  H27C 2960   4.406   4.259   8.477 -0.5588  1.0508  0.0312
   41CHL1    C3 2961   5.923   6.384   7.180 -0.4696  0.1637  0.3236
   41CHL1    H3 2962   5.892   6.279   7.160 -2.7703  1.1648 -1.7829
   41CHL1    O3 2963   5.935   6.449   7.055 -0.3604  0.2255  0.0233
   41CHL1   H3' 2964   6.016   6.412   7.019 -0.6447  0.2014 -0.6045
   41CHL1    C4 2965   5.835   6.456   7.275  0.5500 -0.1533  0.1825
   41CHL1   H4A 2966   5.871   6.560   7.283  0.9014 -0.1820 -0.8679
   41CHL1   H4B 2967   5.734   6.473   7.232  1.0456  3.3588  0.1467
   41CHL1    C5 2968   5.839   6.402   7.414 -0.2772 -0.3176 -0.1679
   41CHL1    C6 2969   5.726   6.377   7.487  0.1754 -0.4120 -0.1990
   41CHL1    H6 2970   5.631   6.398   7.436  0.5217 -0.9540 -1.0914
   41CHL1    C7 2971   5.721   6.331   7.631 -0.1407 -0.1833 -0.2528
   41CHL1   H7A 2972   5.640   6.378   7.691  0.1746  1.7107 -1.2297
   41CHL1   H7B 2973   5.703   6.222   7.637 -2.0960  0.0793 -0.6465
   41CHL1    C8 2974   5.852   6.346   7.707 -0.1934 -0.4296  0.5666
   41CHL1    H8 2975   5.851   6.454   7.731 -2.6454 -0.8452  2.7050
   41CHL1   C14 2976   5.861   6.270   7.836  0.7337  0.1586  0.3380
   41CHL1   H14 2977   5.868   6.161   7.817  0.2575  0.5733 -2.6096
   41CHL1   C15 2978   5.748   6.292   7.938 -0.1960 -0.1761 -0.1647
   41CHL1  H15A 2979   5.724   6.399   7.953  4.2804  0.7106  2.1924
   41CHL1  H15B 2980   5.670   6.216   7.915 -0.1038  0.1571 -1.6977
   41CHL1   C16 2981   5.807   6.244   8.075 -0.9272 -0.7383 -0.0507
   41CHL1  H16A 2982   5.795   6.322   8.154 -0.1603  1.0576 -1.6060
   41CHL1  H16B 2983   5.757   6.151   8.109 -0.5484 -0.8038  0.3414
   41CHL1   C17 2984   5.955   6.224   8.048 -0.6703 -0.2595 -0.6763
   41CHL1   H17 2985   5.971   6.118   8.019 -0.1091  0.3137 -2.6455
   41CHL1   C13 2986   5.988   6.305   7.914  0.2508  0.7460  0.5943
   41CHL1   C18 2987   6.006   6.452   7.949 -0.3950  0.5807  0.4474
   41CHL1  H18A 2988   6.087   6.476   8.021  2.7123  1.8594 -3.1459
   41CHL1  H18B 2989   6.037   6.500   7.854 -1.1072  0.9415  0.3908
   41CHL1  H18C 2990   5.912   6.496   7.989 -1.8218 -1.1944 -0.7844
   41CHL1   C12 2991   6.103   6.237   7.830  0.3317  0.2703  1.0532
   41CHL1  H12A 2992   6.202   6.242   7.881  0.5751  1.3336  0.5037
   41CHL1  H12B 2993   6.077   6.131   7.811 -3.2056  1.2211 -0.2595
   41CHL1   C11 2994   6.110   6.295   7.687 -0.7151 -0.1250 -0.2997
   41CHL1  H11A 2995   6.152   6.398   7.699  3.4661 -1.6527 -0.0514
   41CHL1  H11B 2996   6.184   6.242   7.623  1.1960  2.6543 -0.5898
   41CHL1    C9 2997   5.968   6.302   7.618  0.4839 -0.1457  0.3032
   41CHL1    H9 2998   5.960   6.196   7.587  0.5775  0.3310 -1.4706
   41CHL1   C10 2999   5.979   6.390   7.485  0.3518 -0.1825 -0.1119
   41CHL1   C19 3000   6.047   6.528   7.520 -0.1420  0.4471 -0.5005
   41CHL1  H19A 3001   6.154   6.500   7.536 -0.2719  1.1274  1.9411
   41CHL1  H19B 3002   6.032   6.595   7.433 -0.6296  0.7623 -0.1772
   41CHL1  H19C 3003   6.012   6.575   7.614  0.6308 -1.1964  0.6640
   41CHL1    C1 3004   6.067   6.320   7.381  0.1945 -0.0759 -0.0231
   41CHL1   H1A 3005   6.172   6.323   7.416 -0.1783 -1.2202  1.2689
   41CHL1   H1B 3006   6.037   6.214   7.369  2.0511 -0.4716 -1.7382
   41CHL1    C2 3007   6.068   6.381   7.241 -0.5577 -0.2662 -0.6646
   41CHL1   H2A 3008   6.128   6.309   7.181 -0.1803 -0.8442  0.3866
   41CHL1   H2B 3009   6.125   6.475   7.256 -1.2873 -0.2569  2.7892
   41CHL1   C20 3010   6.057   6.253   8.166 -0.2480 -0.3976  0.5603
   41CHL1   H20 3011   6.157   6.266   8.119 -0.8341 -1.7025 -1.1496
   41CHL1   C21 3012   6.062   6.123   8.240  0.3373 -0.2993  0.4107
   41CHL1  H21A 3013   6.136   6.126   8.323 -1.4460  0.6078  2.0567
   41CHL1  H21B 3014   6.094   6.040   8.175 -0.8958  0.3924 -1.1402
   41CHL1  H21C 3015   5.961   6.104   8.282 -0.2371 -1.2411 -1.3242
   41CHL1   C22 3016   6.016   6.369   8.262  0.0157 -0.1179 -0.2239
   41CHL1  H22A 3017   5.980   6.462   8.211 -0.2317 -1.6788 -3.1043
   41CHL1  H22B 3018   5.931   6.331   8.322  2.1336 -2.4570  1.4694
   41CHL1   C23 3019   6.125   6.421   8.360 -0.4304  0.1499 -0.2172
   41CHL1  H23A 3020   6.166   6.336   8.418 -1.6328 -1.4704 -1.6116
   41CHL1  H23B 3021   6.204   6.460   8.292 -1.2715  0.9792 -0.7579
   41CHL1   C24 3022   6.057   6.510   8.466  1.0047  0.3778 -0.5378
   41CHL1  H24A 3023   6.010   6.595   8.411 -0.7377 -0.4488 -0.3822
   41CHL1  H24B 3024   5.975   6.455   8.517  2.5336 -1.7712 -0.2934
   41CHL1   C25 3025   6.169   6.552   8.569  0.0202  0.4316 -0.3543
   41CHL1   H25 3026   6.261   6.576   8.512  0.3911 -0.2279 -0.0447
   41CHL1   C26 3027   6.127   6.667   8.656 -0.0975  1.2626  1.1994
   41CHL1  H26A 3028   6.213   6.687   8.723  1.0180 -0.6414  0.4085
   41CHL1  H26B 3029   6.093   6.748   8.588 -1.1236  0.0001  0.1430
   41CHL1  H26C 3030   6.035   6.643   8.713 -1.7128 -0.3084 -1.8159
   41CHL1   C27 3031   6.214   6.436   8.656 -0.4369  0.3927 -0.4826
   41CHL1  H27A 3032   6.135   6.372   8.701  0.9310 -2.9577 -2.4552
   41CHL1  H27B 3033   6.274   6.363   8.597 -1.4809 -1.4966  0.6848
   41CHL1  H27C 3034   6.285   6.470   8.735  0.9243 -3.0295 -0.0398
   42CHL1    C3 3035   6.249   2.374   7.063  0.5156 -0.1758 -0.2076
   42CHL1    H3 3036   6.199   2.275   7.061 -2.9691  1.3052  2.1710
   42CHL1    O3 3037   6.235   2.436   6.938 -0.0072  0.0037 -0.2288
   42CHL1   H3' 3038   6.142   2.427   6.917  0.1302 -0.1415 -0.7956
   42CHL1    C4 3039   6.169   2.460   7.165 -0.0088  0.6491 -0.3155
   42CHL1   H4A 3040   6.191   2.568   7.148  1.8368  0.5466  1.0659
   42CHL1   H4B 3041   6.063   2.446   7.137  0.0148  1.0540 -0.6134
   42CHL1    C5 3042   6.188   2.417   7.310 -0.0095 -0.2998 -0.2386
   42CHL1    C6 3043   6.087   2.376   7.390  0.7061  0.3327  0.4417
   42CHL1    H6 3044   5.985   2.392   7.350  0.3292  1.9662  1.9321
   42CHL1    C7 3045   6.115   2.337   7.532 -0.2212  0.4732 -0.0688
   42CHL1   H7A 3046   6.043   2.385   7.602  0.5043  2.5606 -0.6887
   42CHL1   H7B 3047   6.106   2.226   7.543  3.0294  0.0854 -0.5496
   42CHL1    C8 3048   6.253   2.370   7.592 -0.1287 -0.4104  0.1010
   42CHL1    H8 3049   6.250   2.479   7.611  1.5274 -0.2468 -0.4493
   42CHL1   C14 3050   6.281   2.299   7.718 -0.4936  0.1090 -0.4722
   42CHL1   H14 3051   6.268   2.189   7.703  3.8716 -0.2803 -2.9138
   42CHL1   C15 3052   6.185   2.321   7.842  0.1198 -0.6792 -0.4382
   42CHL1  H15A 3053   6.166   2.430   7.844  0.7229 -0.5870  1.2281
   42CHL1  H15B 3054   6.089   2.266   7.830  0.3013 -1.3718  1.0486
   42CHL1   C16 3055   6.270   2.271   7.962  0.2853 -0.4239 -1.1835
   42CHL1  H16A 3056   6.255   2.331   8.054 -0.5213 -2.3639 -0.0020
   42CHL1  H16B 3057   6.228   2.171   7.985 -0.5423  0.0510 -0.5788
   42CHL1   C17 3058   6.419   2.262   7.915 -0.1986 -0.1575  0.2730
   42CHL1   H17 3059   6.430   2.153   7.897 -0.5004 -0.1601  0.0888
   42CHL1   C13 3060   6.420   2.336   7.783  0.0046  0.9512  0.2368
   42CHL1   C18 3061   6.430   2.488   7.807 -0.1891 -0.5745 -0.7440
   42CHL1  H18A 3062   6.376   2.525   7.896  1.0465 -0.6401  0.0470
   42CHL1  H18B 3063   6.535   2.514   7.834 -0.6197  1.0845 -0.5690
   42CHL1  H18C 3064   6.418   2.555   7.719  3.0527 -0.8308 -1.5107
   42CHL1   C12 3065   6.520   2.280   7.680  0.1177 -0.7959  0.3271
   42CHL1  H12A 3066   6.624   2.306   7.711  0.0115  0.7475 -0.5365
   42CHL1  H12B 3067   6.506   2.171   7.665  1.0359 -1.0047  0.8704
   42CHL1   C11 3068   6.493   2.359   7.550 -0.4026  0.0577  0.1402
   42CHL1  H11A 3069   6.522   2.465   7.563  0.4931  0.3357 -3.2154
   42CHL1  H11B 3070   6.562   2.335   7.467 -0.3564  3.4459 -0.9547
   42CHL1    C9 3071   6.352   2.332   7.492 -0.0898  0.4810 -0.2038
   42CHL1    H9 3072   6.344   2.223   7.478  2.4935  0.4433 -2.0820
   42CHL1   C10 3073   6.338   2.398   7.350 -0.5714  0.6288 -0.0552
   42CHL1   C19 3074   6.391   2.544   7.350 -0.1283 -0.5458  0.0036
   42CHL1  H19A 3075   6.380   2.602   7.444  0.0309  3.0715 -2.0340
   42CHL1  H19B 3076   6.500   2.534   7.328 -0.6054 -1.2182 -2.2756
   42CHL1  H19C 3077   6.361   2.611   7.267 -1.4238 -2.7567 -1.3842
   42CHL1    C1 3078   6.421   2.316   7.245 -0.1264  0.7158  0.7852
   42CHL1   H1A 3079   6.530   2.326   7.266 -0.1812 -1.1869  2.3766
   42CHL1   H1B 3080   6.396   2.209   7.266 -1.5749  0.7156 -0.7797
   42CHL1    C2 3081   6.400   2.365   7.100 -0.1418 -0.7509  0.3166
   42CHL1   H2A 3082   6.441   2.302   7.018  0.9910  0.2703  0.0682
   42CHL1   H2B 3083   6.450   2.464   7.094 -0.9468 -0.3366  0.2328
   42CHL1   C20 3084   6.520   2.309   8.025  0.2324 -0.1948 -0.0067
   42CHL1   H20 3085   6.489   2.411   8.054  0.3464 -0.5120  1.3328
   42CHL1   C21 3086   6.662   2.307   7.975  0.1951  0.2961  0.3132
   42CHL1  H21A 3087   6.684   2.199   7.957 -1.8396 -0.2926  1.1609
   42CHL1  H21B 3088   6.739   2.337   8.050 -0.0866  1.5828  0.1015
   42CHL1  H21C 3089   6.690   2.367   7.885  0.2509  0.9741  0.7756
   42CHL1   C22 3090   6.519   2.222   8.150 -0.3895  0.4303 -0.8314
   42CHL1  H22A 3091   6.411   2.213   8.172 -0.1936  0.1633  0.0544
   42CHL1  H22B 3092   6.560   2.122   8.125 -1.6674 -0.3582  0.1382
   42CHL1   C23 3093   6.597   2.286   8.274  0.4213  0.2347 -0.4977
   42CHL1  H23A 3094   6.706   2.305   8.264  0.8170 -0.3559  2.1795
   42CHL1  H23B 3095   6.547   2.381   8.300 -1.1650 -0.6221 -0.2575
   42CHL1   C24 3096   6.567   2.200   8.399 -0.0068 -0.4015 -0.5524
   42CHL1  H24A 3097   6.460   2.178   8.418 -0.1340 -0.7723 -1.6345
   42CHL1  H24B 3098   6.624   2.109   8.371 -0.5981 -0.4962 -1.4906
   42CHL1   C25 3099   6.637   2.256   8.520 -0.3977  0.0482  0.3815
   42CHL1   H25 3100   6.744   2.262   8.490 -0.3347  1.2740  0.7751
   42CHL1   C26 3101   6.584   2.394   8.563 -0.5496 -0.0181 -0.3247
   42CHL1  H26A 3102   6.612   2.477   8.496 -0.2957 -0.8946 -1.3306
   42CHL1  H26B 3103   6.474   2.393   8.577 -0.4714  2.0231  0.8542
   42CHL1  H26C 3104   6.630   2.411   8.663  0.9456 -1.3088 -0.7624
   42CHL1   C27 3105   6.625   2.150   8.630  0.0619  0.2771  0.2848
   42CHL1  H27A 3106   6.697   2.070   8.604  0.9492  0.8359  0.9760
   42CHL1  H27B 3107   6.519   2.115   8.635  0.1536 -0.2892 -1.0729
   42CHL1  H27C 3108   6.645   2.200   8.727 -0.5331  1.5579 -0.2225
   43CHL1    C3 3109   5.803   2.034   6.999  0.0535 -0.5594 -0.1462
   43CHL1    H3 3110   5.839   2.137   7.019 -1.8114  0.2467 -0.6450
   43CHL1    O3 3111   5.746   2.040   6.872  0.1100 -0.6688 -0.5702
   43CHL1   H3' 3112   5.679   1.972   6.875  0.0931 -0.6515  2.0597
   43CHL1    C4 3113   5.922   1.937   7.006 -0.4301 -0.3215 -0.7855
   43CHL1   H4A 3114   5.900   1.836   6.966 -0.3777 -0.5740 -0.1867
   43CHL1   H4B 3115   6.000   1.981   6.940 -0.6284  3.0633  1.0480
   43CHL1    C5 3116   5.983   1.925   7.141  0.2469  0.0926 -0.0324
   43CHL1    C6 3117   6.107   1.962   7.159  0.3106 -0.3158 -0.2197
   43CHL1    H6 3118   6.163   2.014   7.080  0.4147  1.4172  0.9353
   43CHL1    C7 3119   6.180   1.960   7.290 -0.5322 -0.6379 -0.0195
   43CHL1   H7A 3120   6.282   1.923   7.266 -0.1171  0.6988 -0.3701
   43CHL1   H7B 3121   6.184   2.066   7.322  4.2682  0.2893 -2.7325
   43CHL1    C8 3122   6.098   1.879   7.391 -0.7185  0.6456  0.5151
   43CHL1    H8 3123   6.111   1.769   7.378 -0.9547  0.8387 -1.6803
   43CHL1   C14 3124   6.157   1.909   7.529 -0.2047 -0.2337  0.1750
   43CHL1   H14 3125   6.129   2.015   7.545 -0.3745 -0.4856  1.6821
   43CHL1   C15 3126   6.311   1.899   7.549  0.1644  0.7544 -0.2500
   43CHL1  H15A 3127   6.357   1.805   7.510  2.2204  2.0124 -1.0457
   43CHL1  H15B 3128   6.372   1.981   7.504  0.9511  1.4578  1.9880
   43CHL1   C16 3129   6.324   1.876   7.698 -0.6237  0.1728 -0.4558
   43CHL1  H16A 3130   6.377   1.781   7.720  2.2576  2.0555  1.6258
   43CHL1  H16B 3131   6.391   1.952   7.744  1.9024 -1.4031 -1.3491
   43CHL1   C17 3132   6.178   1.877   7.754  0.0862 -0.3814  0.9039
   43CHL1   H17 3133   6.149   1.981   7.781  0.2533 -0.0924 -0.0148
   43CHL1   C13 3134   6.089   1.838   7.640 -0.5742 -0.4554 -0.4575
   43CHL1   C18 3135   6.112   1.688   7.618  0.2341 -0.0407 -0.3857
   43CHL1  H18A 3136   6.082   1.627   7.705 -2.2662  0.4957 -0.8120
   43CHL1  H18B 3137   6.057   1.649   7.529 -1.8797  1.0221  0.4019
   43CHL1  H18C 3138   6.219   1.658   7.607  0.7572  1.3219  0.6007
   43CHL1   C12 3139   5.938   1.877   7.642 -0.2904 -0.4926  0.0171
   43CHL1  H12A 3140   5.885   1.818   7.720 -1.2245 -0.5037 -0.6108
   43CHL1  H12B 3141   5.937   1.986   7.667 -0.7629 -0.2150 -1.1276
   43CHL1   C11 3142   5.872   1.854   7.511  0.1486  0.2446  0.2871
   43CHL1  H11A 3143   5.853   1.744   7.505  0.0630  0.1579  1.7877
   43CHL1  H11B 3144   5.767   1.892   7.512 -0.6392 -1.8045  1.6002
   43CHL1    C9 3145   5.948   1.914   7.388 -0.2248 -0.4703 -0.0623
   43CHL1    H9 3146   5.940   2.025   7.401 -1.3106 -0.4169 -1.0719
   43CHL1   C10 3147   5.883   1.893   7.247 -0.1506  0.9883  0.1724
   43CHL1   C19 3148   5.839   1.742   7.233 -0.4052 -0.0582  0.9555
   43CHL1  H19A 3149   5.759   1.723   7.308 -1.6117 -2.5365 -0.8071
   43CHL1  H19B 3150   5.800   1.723   7.131  1.4639 -3.3272  0.7288
   43CHL1  H19C 3151   5.917   1.667   7.257  0.9420  1.2418  0.7641
   43CHL1    C1 3152   5.756   1.980   7.242 -0.3412  0.5582  0.1847
   43CHL1   H1A 3153   5.685   1.937   7.316 -0.1653  1.5013  0.9239
   43CHL1   H1B 3154   5.780   2.085   7.268  0.4162  0.9344 -1.8115
   43CHL1    C2 3155   5.694   1.999   7.100  0.4151  0.5736 -0.2487
   43CHL1   H2A 3156   5.620   2.082   7.101 -0.8850 -0.3899  3.6783
   43CHL1   H2B 3157   5.633   1.908   7.081  1.1466 -0.0857  0.4804
   43CHL1   C20 3158   6.178   1.794   7.878  0.9058 -0.2473 -0.1436
   43CHL1   H20 3159   6.212   1.689   7.862 -0.9568 -1.5118  3.2932
   43CHL1   C21 3160   6.034   1.767   7.939  0.5694 -0.1107 -0.1457
   43CHL1  H21A 3161   5.976   1.694   7.880  0.9613 -2.2228  1.9427
   43CHL1  H21B 3162   5.967   1.855   7.943  1.9654  0.9474  1.1736
   43CHL1  H21C 3163   6.039   1.729   8.043  2.2475  0.8797  0.1848
   43CHL1   C22 3164   6.285   1.854   7.985  0.3074  0.1485 -0.5048
   43CHL1  H22A 3165   6.389   1.858   7.947  0.0270  1.6405 -1.1810
   43CHL1  H22B 3166   6.259   1.960   8.002  2.5136  0.5360  0.7461
   43CHL1   C23 3167   6.285   1.786   8.120 -0.5689  0.0074  0.3719
   43CHL1  H23A 3168   6.189   1.790   8.175 -1.4635  1.2956 -1.2012
   43CHL1  H23B 3169   6.307   1.680   8.098  0.2042  0.0559  0.8747
   43CHL1   C24 3170   6.407   1.823   8.206  0.6536 -0.4555 -0.4749
   43CHL1  H24A 3171   6.499   1.806   8.146  1.7768 -2.1539  1.5766
   43CHL1  H24B 3172   6.395   1.932   8.224 -0.6773 -0.8863  1.6115
   43CHL1   C25 3173   6.398   1.744   8.341  0.0492 -0.2442  0.2052
   43CHL1   H25 3174   6.291   1.743   8.371 -0.5148  0.9119 -1.6348
   43CHL1   C26 3175   6.451   1.597   8.329  0.8857 -0.0025  1.1154
   43CHL1  H26A 3176   6.370   1.535   8.286  2.4853 -1.5971  0.2490
   43CHL1  H26B 3177   6.534   1.590   8.255  1.6635  0.6112  1.8982
   43CHL1  H26C 3178   6.476   1.557   8.430 -0.0266  1.0946  1.7966
   43CHL1   C27 3179   6.481   1.822   8.440  0.1408 -0.1857 -0.2088
   43CHL1  H27A 3180   6.485   1.773   8.540  0.1454 -1.9279 -1.0286
   43CHL1  H27B 3181   6.583   1.830   8.396  0.9059  1.5106  1.6939
   43CHL1  H27C 3182   6.452   1.925   8.468 -1.1917 -0.5153 -0.3399
   44CHL1    C3 3183   0.420   5.289   6.850 -0.2110  0.3083  0.0554
   44CHL1    H3 3184   0.445   5.386   6.899 -0.7647  0.4415  0.0835
   44CHL1    O3 3185   0.411   5.306   6.713 -0.5554 -0.1238 -0.0907
   44CHL1   H3' 3186   0.500   5.284   6.685  1.5200  2.2232  3.9044
   44CHL1    C4 3187   0.517   5.178   6.888 -0.5661 -0.2290 -0.3508
   44CHL1   H4A 3188   0.510   5.089   6.822  0.6405  0.0726 -0.9085
   44CHL1   H4B 3189   0.618   5.218   6.865 -0.5985 -0.6803 -1.3408
   44CHL1    C5 3190   0.501   5.147   7.037 -0.1066 -0.0699  0.1261
   44CHL1    C6 3191   0.607   5.153   7.114 -0.5404 -1.1332 -0.2164
   44CHL1    H6 3192   0.706   5.167   7.068 -0.1213  0.9247  1.1532
   44CHL1    C7 3193   0.617   5.136   7.262 -0.0192 -0.2685  0.3086
   44CHL1   H7A 3194   0.701   5.064   7.274  0.1273 -0.8026 -2.8478
   44CHL1   H7B 3195   0.637   5.229   7.318 -0.6313 -0.1986  0.4156
   44CHL1    C8 3196   0.489   5.083   7.322 -0.9221 -0.2005  0.4959
   44CHL1    H8 3197   0.477   4.974   7.303 -0.1345 -0.6256  2.1655
   44CHL1   C14 3198   0.479   5.095   7.473  0.3321  0.5205  0.1478
   44CHL1   H14 3199   0.474   5.204   7.496  0.5276  0.2559  1.5173
   44CHL1   C15 3200   0.588   5.051   7.572 -0.3024 -0.0301  0.4186
   44CHL1  H15A 3201   0.618   4.953   7.529 -0.5546 -0.3498  0.9629
   44CHL1  H15B 3202   0.674   5.120   7.572  0.7977 -1.2969 -1.5457
   44CHL1   C16 3203   0.523   5.029   7.708 -0.3160 -0.2133 -0.2116
   44CHL1  H16A 3204   0.524   4.923   7.740  1.1163  0.3682  1.8447
   44CHL1  H16B 3205   0.573   5.091   7.786 -0.4417  0.4945 -0.6900
   44CHL1   C17 3206   0.377   5.065   7.684 -0.1542 -0.1873 -0.0264
   44CHL1   H17 3207   0.371   5.176   7.695 -0.3605 -0.2630  0.7386
   44CHL1   C13 3208   0.347   5.036   7.536  0.0143  0.1134  0.0764
   44CHL1   C18 3209   0.325   4.885   7.517  0.7885  0.3724 -0.1100
   44CHL1  H18A 3210   0.233   4.854   7.572  0.4156 -0.3842 -1.1177
   44CHL1  H18B 3211   0.332   4.863   7.408  1.9233  2.3508 -0.4823
   44CHL1  H18C 3212   0.411   4.833   7.565  0.1871  0.8132  1.5024
   44CHL1   C12 3213   0.228   5.118   7.482 -0.0545  0.9014 -0.2821
   44CHL1  H12A 3214   0.130   5.083   7.521 -0.3740  0.5045 -1.4005
   44CHL1  H12B 3215   0.247   5.222   7.516 -2.9006  1.7035 -0.8762
   44CHL1   C11 3216   0.230   5.115   7.324  0.1820 -0.6762  0.9017
   44CHL1  H11A 3217   0.201   5.010   7.299  1.1130 -0.6778 -0.2915
   44CHL1  H11B 3218   0.150   5.184   7.292  1.2798  0.8205  1.2869
   44CHL1    C9 3219   0.368   5.151   7.259 -0.3154  0.0106  0.0389
   44CHL1    H9 3220   0.380   5.262   7.255 -0.2697  0.0919  1.7439
   44CHL1   C10 3221   0.364   5.127   7.101 -0.0394 -0.6115 -0.0466
   44CHL1   C19 3222   0.308   4.993   7.060 -0.2131 -0.3669 -0.4565
   44CHL1  H19A 3223   0.202   4.980   7.091  0.4929 -1.2080  1.8386
   44CHL1  H19B 3224   0.304   4.985   6.949  0.1327  3.6311 -0.8742
   44CHL1  H19C 3225   0.362   4.903   7.099 -1.8798 -0.9881  0.4922
   44CHL1    C1 3226   0.271   5.243   7.038 -0.0460 -0.4970  0.2512
   44CHL1   H1A 3227   0.170   5.231   7.083  0.3152 -0.2629  1.1582
   44CHL1   H1B 3228   0.308   5.342   7.073  1.9921 -0.6833 -1.2238
   44CHL1    C2 3229   0.279   5.258   6.891  1.0956  0.7222 -0.2242
   44CHL1   H2A 3230   0.202   5.333   6.863 -0.1089 -0.9059 -1.5145
   44CHL1   H2B 3231   0.239   5.170   6.836  1.1152  1.8304 -2.1319
   44CHL1   C20 3232   0.263   5.018   7.787 -0.1853 -0.2388  0.2496
   44CHL1   H20 3233   0.164   5.035   7.742 -0.0018 -0.9881 -0.4539
   44CHL1   C21 3234   0.265   5.120   7.905 -0.1331  0.2047  0.5248
   44CHL1  H21A 3235   0.364   5.130   7.956 -1.0519  2.1778  2.0495
   44CHL1  H21B 3236   0.182   5.096   7.975 -0.5102 -0.0445 -0.0074
   44CHL1  H21C 3237   0.260   5.222   7.861 -0.7537 -0.1230 -0.1567
   44CHL1   C22 3238   0.268   4.871   7.835 -0.4714 -0.2241 -0.5745
   44CHL1  H22A 3239   0.320   4.799   7.769  0.3333  0.2716 -0.5018
   44CHL1  H22B 3240   0.309   4.872   7.938 -1.5812  0.8254 -0.1113
   44CHL1   C23 3241   0.124   4.821   7.855 -0.1893 -0.9636  0.1881
   44CHL1  H23A 3242   0.083   4.910   7.907  0.3705  0.0680 -1.0809
   44CHL1  H23B 3243   0.082   4.810   7.753 -2.0280  2.1402  0.4750
   44CHL1   C24 3244   0.112   4.689   7.930 -0.0549 -0.2741 -0.0803
   44CHL1  H24A 3245   0.137   4.605   7.863  2.8049  0.4286 -0.0277
   44CHL1  H24B 3246   0.181   4.693   8.017 -0.4041  0.4235  0.1705
   44CHL1   C25 3247  -0.020   4.655   7.988  0.2363  0.0270 -0.1701
   44CHL1   H25 3248  -0.047   4.733   8.064 -0.8083  1.4631 -1.9282
   44CHL1   C26 3249  -0.135   4.646   7.882 -0.0751  0.1169 -0.3357
   44CHL1  H26A 3250  -0.122   4.738   7.821 -1.7302  1.1974  0.8375
   44CHL1  H26B 3251  -0.118   4.552   7.825 -0.1701  0.2306 -0.5540
   44CHL1  H26C 3252  -0.239   4.618   7.910 -1.0131 -0.5618 -3.9911
   44CHL1   C27 3253  -0.027   4.536   8.072 -0.0733 -0.1475 -0.0878
   44CHL1  H27A 3254   0.028   4.550   8.168 -1.3133  1.7105  0.4103
   44CHL1  H27B 3255  -0.129   4.507   8.104  0.7105 -0.5816  2.1978
   44CHL1  H27C 3256   0.013   4.446   8.021  3.8332 -0.8616  3.6612
   45CHL1    C3 3257   5.938   4.233   6.955 -0.3489  0.8474  1.1642
   45CHL1    H3 3258   6.040   4.196   6.978  0.0569  2.9864  3.0607
   45CHL1    O3 3259   5.918   4.284   6.819 -0.0284  0.3297  0.6430
   45CHL1   H3' 3260   5.845   4.236   6.780  0.2948  1.1307 -1.0134
   45CHL1    C4 3261   5.836   4.110   6.975  0.2725 -0.8792  0.3250
   45CHL1   H4A 3262   5.732   4.145   6.959  0.6076 -0.0612 -0.1484
   45CHL1   H4B 3263   5.861   4.037   6.895  0.5870 -1.4548  0.9379
   45CHL1    C5 3264   5.841   4.048   7.112  0.7614 -0.2137  0.5780
   45CHL1    C6 3265   5.878   3.923   7.129 -0.1880  0.3776 -0.5743
   45CHL1    H6 3266   5.881   3.852   7.045 -1.0516 -0.8359  0.3696
   45CHL1    C7 3267   5.900   3.858   7.262  0.6451 -0.4312 -0.4531
   45CHL1   H7A 3268   5.840   3.765   7.272 -1.0928  0.7963  1.3378
   45CHL1   H7B 3269   6.006   3.831   7.282  1.1539  2.0381  0.5060
   45CHL1    C8 3270   5.841   3.943   7.376  0.9372  0.4194  0.2503
   45CHL1    H8 3271   5.731   3.933   7.368  1.1604 -0.8502 -2.0815
   45CHL1   C14 3272   5.880   3.896   7.507  0.0599  0.7983 -0.0868
   45CHL1   H14 3273   5.989   3.917   7.508  0.1325  0.4217  1.0097
   45CHL1   C15 3274   5.875   3.743   7.533 -0.1535  0.9075  0.2872
   45CHL1  H15A 3275   5.787   3.704   7.478  0.4425  3.2551 -2.5943
   45CHL1  H15B 3276   5.970   3.705   7.489  0.5054  0.2480  2.1431
   45CHL1   C16 3277   5.872   3.732   7.686  0.6197  0.1731  0.1980
   45CHL1  H16A 3278   5.775   3.690   7.717  1.1123 -0.4664  0.9069
   45CHL1  H16B 3279   5.942   3.658   7.731 -1.2268 -1.7599  0.0372
   45CHL1   C17 3280   5.887   3.875   7.745  0.1863 -0.2189 -0.9253
   45CHL1   H17 3281   5.995   3.899   7.750 -0.1690  1.2165  0.3690
   45CHL1   C13 3282   5.824   3.965   7.633 -0.0591 -0.0842 -0.8103
   45CHL1   C18 3283   5.671   3.956   7.641 -0.3003 -0.2731  0.0914
   45CHL1  H18A 3284   5.634   3.851   7.650  1.4191 -0.8809  0.3564
   45CHL1  H18B 3285   5.632   4.004   7.734  1.1546  2.0022 -0.3968
   45CHL1  H18C 3286   5.625   4.001   7.551  0.2716 -1.6104 -0.8967
   45CHL1   C12 3287   5.862   4.111   7.622 -0.3036  0.5174 -0.2257
   45CHL1  H12A 3288   5.809   4.172   7.699  1.8038 -0.3377  2.0397
   45CHL1  H12B 3289   5.972   4.123   7.631 -0.1597 -0.2989 -0.8153
   45CHL1   C11 3290   5.826   4.176   7.487  0.2573  0.8269 -0.0697
   45CHL1  H11A 3291   5.715   4.173   7.480  0.3028 -1.5275 -0.9037
   45CHL1  H11B 3292   5.866   4.279   7.477 -0.8791  1.1265 -2.2523
   45CHL1    C9 3293   5.872   4.092   7.362 -0.5443  0.1096 -0.1076
   45CHL1    H9 3294   5.983   4.098   7.356 -0.6964  3.2473 -2.2767
   45CHL1   C10 3295   5.825   4.150   7.227 -0.8247 -0.0430 -0.1126
   45CHL1   C19 3296   5.673   4.183   7.239 -0.4563  0.4678 -0.4553
   45CHL1  H19A 3297   5.652   4.226   7.138 -0.1331 -0.9746 -1.1589
   45CHL1  H19B 3298   5.614   4.092   7.260  1.8561 -0.5506  2.2689
   45CHL1  H19C 3299   5.641   4.259   7.314 -0.2374 -0.1571  0.2846
   45CHL1    C1 3300   5.906   4.281   7.199  0.9919 -0.2488  0.1206
   45CHL1   H1A 3301   5.865   4.367   7.257 -1.5561 -1.4936  0.3289
   45CHL1   H1B 3302   6.010   4.287   7.238  0.6710  1.8842  0.7924
   45CHL1    C2 3303   5.909   4.338   7.054 -0.6098  0.6066 -0.6899
   45CHL1   H2A 3304   5.986   4.418   7.047 -1.3450  1.3285 -0.6496
   45CHL1   H2B 3305   5.813   4.388   7.029 -1.9150 -1.2190  0.4274
   45CHL1   C20 3306   5.839   3.889   7.895 -0.3457 -0.1892 -0.1407
   45CHL1   H20 3307   5.729   3.871   7.891 -0.4977  0.1573  1.6015
   45CHL1   C21 3308   5.866   4.036   7.948  0.3630  0.4912 -0.3980
   45CHL1  H21A 3309   5.973   4.064   7.940  1.0239 -0.7478  2.6005
   45CHL1  H21B 3310   5.831   4.048   8.053  0.8170  0.4720 -0.2423
   45CHL1  H21C 3311   5.807   4.110   7.890  1.3701  0.8317 -1.0015
   45CHL1   C22 3312   5.904   3.783   7.991 -0.5737 -0.5508 -0.1428
   45CHL1  H22A 3313   5.883   3.682   7.948  0.8650 -1.7397  1.8176
   45CHL1  H22B 3314   6.014   3.796   7.987 -0.5559 -0.2383  1.1801
   45CHL1   C23 3315   5.848   3.778   8.136  0.3119  0.1275 -0.1364
   45CHL1  H23A 3316   5.874   3.879   8.175 -0.9240  0.4509 -0.1061
   45CHL1  H23B 3317   5.739   3.759   8.133  0.4554 -0.7642  0.1348
   45CHL1   C24 3318   5.912   3.663   8.222  0.6283  0.0720  0.0409
   45CHL1  H24A 3319   5.873   3.564   8.189 -3.1348  1.5126 -0.3201
   45CHL1  H24B 3320   6.020   3.668   8.195  0.5771 -1.7246 -0.6732
   45CHL1   C25 3321   5.894   3.673   8.372 -0.2080 -0.1440  0.5520
   45CHL1   H25 3322   5.927   3.776   8.398  1.3596 -0.4370 -0.1791
   45CHL1   C26 3323   5.752   3.643   8.421 -0.1315  0.1047  0.7912
   45CHL1  H26A 3324   5.717   3.546   8.380 -1.9560  0.5263  1.2581
   45CHL1  H26B 3325   5.744   3.640   8.532 -1.0452  0.5975  0.7499
   45CHL1  H26C 3326   5.683   3.714   8.370  2.8229  0.8598 -2.4943
   45CHL1   C27 3327   5.988   3.577   8.446 -0.4974  0.2040 -0.3570
   45CHL1  H27A 3328   5.956   3.472   8.425  0.1767  0.1125 -0.9852
   45CHL1  H27B 3329   6.094   3.587   8.411 -0.3937 -0.1496 -0.1487
   45CHL1  H27C 3330   5.988   3.602   8.554 -1.1428  1.3049 -0.6054
   46CHL1    C3 3331   0.071   5.646   7.163  0.8707 -0.3622 -0.3369
   46CHL1    H3 3332   0.037   5.569   7.091 -0.8166 -1.2726  1.3304
   46CHL1    O3 3333   0.139   5.752   7.096 -0.3856  0.5763 -0.3574
   46CHL1   H3' 3334   0.228   5.727   7.068  0.3953  1.4745  1.2599
   46CHL1    C4 3335  -0.046   5.711   7.240 -0.2015  0.4649 -0.0426
   46CHL1   H4A 3336  -0.018   5.814   7.272 -1.3979  0.5135  0.9037
   46CHL1   H4B 3337  -0.130   5.732   7.170 -2.6371  4.2431  3.5467
   46CHL1    C5 3338  -0.109   5.629   7.352 -0.0326 -0.3905  0.5216
   46CHL1    C6 3339  -0.240   5.599   7.353  0.0510  0.3920 -0.0001
   46CHL1    H6 3340  -0.308   5.636   7.275 -0.5118  0.4794  0.5230
   46CHL1    C7 3341  -0.312   5.536   7.466 -0.2856  0.1171  0.4120
   46CHL1   H7A 3342  -0.389   5.601   7.513 -1.4711 -0.8073 -0.1805
   46CHL1   H7B 3343  -0.351   5.443   7.419  0.8648  0.6248 -1.6364
   46CHL1    C8 3344  -0.225   5.505   7.595 -0.1994 -0.0708  0.6127
   46CHL1    H8 3345  -0.215   5.602   7.648 -2.1684  1.0759 -0.9641
   46CHL1   C14 3346  -0.287   5.396   7.674 -0.5946  0.6930  0.4912
   46CHL1   H14 3347  -0.292   5.309   7.606 -0.9082  1.4983 -0.5413
   46CHL1   C15 3348  -0.431   5.407   7.734 -0.1002  0.3720  0.3482
   46CHL1  H15A 3349  -0.457   5.509   7.769 -1.8027 -0.7144  2.5010
   46CHL1  H15B 3350  -0.503   5.374   7.656  0.6624 -2.6047  0.7840
   46CHL1   C16 3351  -0.435   5.314   7.851 -0.5090  0.6297  0.0375
   46CHL1  H16A 3352  -0.449   5.381   7.939 -0.8379  1.8467 -0.9131
   46CHL1  H16B 3353  -0.513   5.235   7.860  1.7938 -1.6067  1.5146
   46CHL1   C17 3354  -0.294   5.243   7.858 -1.1124  0.7126 -0.2777
   46CHL1   H17 3355  -0.304   5.159   7.785  2.1893  0.5995 -0.7950
   46CHL1   C13 3356  -0.200   5.343   7.787  0.9113 -0.8216  0.7815
   46CHL1   C18 3357  -0.168   5.457   7.889 -0.3152  0.6252 -0.6822
   46CHL1  H18A 3358  -0.257   5.489   7.947 -0.2902  0.6692 -0.6688
   46CHL1  H18B 3359  -0.089   5.426   7.961 -0.0965 -0.0225 -1.1930
   46CHL1  H18C 3360  -0.136   5.554   7.846 -0.2709  1.1037  0.3904
   46CHL1   C12 3361  -0.072   5.292   7.732  0.0714 -0.3663 -0.3037
   46CHL1  H12A 3362  -0.011   5.262   7.820 -1.0095 -2.0755 -0.0648
   46CHL1  H12B 3363  -0.092   5.197   7.678  1.6375 -1.2987  0.6568
   46CHL1   C11 3364   0.004   5.391   7.646 -0.1567  0.6929 -0.1662
   46CHL1  H11A 3365   0.051   5.473   7.705  0.2860  0.9542 -0.8744
   46CHL1  H11B 3366   0.097   5.346   7.604  0.1294 -2.5641  3.3967
   46CHL1    C9 3367  -0.082   5.461   7.540 -0.0498  0.7432  0.0084
   46CHL1    H9 3368  -0.112   5.376   7.475 -0.2644  1.0656 -0.3204
   46CHL1   C10 3369  -0.007   5.558   7.445  0.5256  0.1009 -0.2819
   46CHL1   C19 3370   0.053   5.665   7.541 -0.3286  0.3410  0.4056
   46CHL1  H19A 3371  -0.022   5.693   7.618 -1.5050 -2.6551  0.5176
   46CHL1  H19B 3372   0.146   5.622   7.586 -1.9653 -3.6989  0.4097
   46CHL1  H19C 3373   0.087   5.758   7.492  0.3246  0.7159  1.5443
   46CHL1    C1 3374   0.103   5.498   7.359  0.4754 -1.0873 -0.7604
   46CHL1   H1A 3375   0.179   5.459   7.430 -0.0336  0.4485  0.6732
   46CHL1   H1B 3376   0.068   5.407   7.305  1.3331 -1.2174 -1.1299
   46CHL1    C2 3377   0.173   5.592   7.263  0.0331 -0.6971 -0.5864
   46CHL1   H2A 3378   0.258   5.538   7.216  1.2481 -1.1954  2.0060
   46CHL1   H2B 3379   0.217   5.673   7.326  2.9155 -1.8143 -1.0283
   46CHL1   C20 3380  -0.248   5.193   8.000 -0.1480  0.5548  0.3802
   46CHL1   H20 3381  -0.148   5.233   8.027  0.6389 -1.0908  0.0750
   46CHL1   C21 3382  -0.223   5.039   7.966  0.1745 -0.1737  0.4797
   46CHL1  H21A 3383  -0.137   5.019   7.899 -1.0172  2.1527 -1.9194
   46CHL1  H21B 3384  -0.311   5.001   7.911  0.1052  2.3368 -1.2871
   46CHL1  H21C 3385  -0.220   4.977   8.059 -0.1740  0.2758  0.7893
   46CHL1   C22 3386  -0.347   5.211   8.114  0.4563  0.4716  0.2545
   46CHL1  H22A 3387  -0.374   5.318   8.124 -1.2206  0.1781 -0.6468
   46CHL1  H22B 3388  -0.439   5.150   8.095  1.3403 -0.9738  0.4542
   46CHL1   C23 3389  -0.290   5.179   8.247  0.0293  0.5959 -0.5189
   46CHL1  H23A 3390  -0.291   5.068   8.260 -1.0072  0.5905 -0.5745
   46CHL1  H23B 3391  -0.183   5.208   8.250 -0.1370  1.1658 -0.0665
   46CHL1   C24 3392  -0.362   5.246   8.365 -0.6906  0.1975  0.4150
   46CHL1  H24A 3393  -0.373   5.350   8.327 -0.8771 -1.3250 -4.3704
   46CHL1  H24B 3394  -0.466   5.209   8.357 -1.4070  2.0519  0.7318
   46CHL1   C25 3395  -0.294   5.240   8.502 -0.2069  0.0091 -0.0640
   46CHL1   H25 3396  -0.186   5.256   8.480  0.0420 -0.3832  0.8240
   46CHL1   C26 3397  -0.350   5.368   8.576 -0.4657  0.2414 -0.0100
   46CHL1  H26A 3398  -0.300   5.394   8.671  0.4035 -1.7711  0.1361
   46CHL1  H26B 3399  -0.358   5.455   8.508 -1.6351  0.1305 -0.0414
   46CHL1  H26C 3400  -0.458   5.351   8.598 -0.0855 -2.0281  0.3816
   46CHL1   C27 3401  -0.307   5.107   8.586  0.4954 -0.4104 -0.9336
   46CHL1  H27A 3402  -0.283   5.017   8.524 -2.3741 -1.0013 -1.3360
   46CHL1  H27B 3403  -0.239   5.116   8.673  0.1770  0.4890 -0.7726
   46CHL1  H27C 3404  -0.414   5.105   8.616  0.1359 -0.3893 -2.1554
   47CHL1    C3 3405   0.683   6.089   6.901  0.4843  0.0920 -0.1728
   47CHL1    H3 3406   0.756   6.156   6.950  0.1675  0.1269  0.2490
   47CHL1    O3 3407   0.734   6.036   6.780  0.6596 -0.2266 -0.2189
   47CHL1   H3' 3408   0.660   5.988   6.743  1.4242 -2.0603  0.5102
   47CHL1    C4 3409   0.660   5.970   6.992 -0.0979  0.0796  0.5712
   47CHL1   H4A 3410   0.594   5.905   6.932 -2.2326  3.6736 -1.3261
   47CHL1   H4B 3411   0.756   5.914   6.998  0.9833  1.6889 -0.7008
   47CHL1    C5 3412   0.591   5.998   7.121 -0.0920  0.6857 -0.8073
   47CHL1    C6 3413   0.647   5.960   7.242  0.0371 -0.3162 -1.0761
   47CHL1    H6 3414   0.746   5.912   7.249 -0.4619 -1.1096  1.0623
   47CHL1    C7 3415   0.582   5.972   7.376  0.5680  0.2404  0.6212
   47CHL1   H7A 3416   0.581   5.873   7.426  0.6497 -0.2177 -0.2485
   47CHL1   H7B 3417   0.645   6.039   7.437  0.8936  0.3855  0.1325
   47CHL1    C8 3418   0.444   6.035   7.366  0.7682 -0.1708 -0.0707
   47CHL1    H8 3419   0.367   5.955   7.361  0.9923 -0.8091  3.9510
   47CHL1   C14 3420   0.417   6.114   7.497 -0.6103  0.2134 -0.2226
   47CHL1   H14 3421   0.488   6.200   7.488 -0.3755  0.0543  0.0621
   47CHL1   C15 3422   0.440   6.046   7.631 -0.7934  0.5419  0.7005
   47CHL1  H15A 3423   0.405   5.941   7.622  0.7221 -0.0518  1.3596
   47CHL1  H15B 3424   0.548   6.050   7.659  0.2639 -0.5378 -2.6871
   47CHL1   C16 3425   0.356   6.119   7.737  0.1441  0.0321 -0.5290
   47CHL1  H16A 3426   0.282   6.037   7.754  0.4119 -0.1664 -0.3068
   47CHL1  H16B 3427   0.409   6.147   7.831  1.1800  2.8641 -1.8436
   47CHL1   C17 3428   0.283   6.233   7.650 -0.7191 -0.3897  0.0129
   47CHL1   H17 3429   0.348   6.323   7.664  1.4759 -1.9968  0.8265
   47CHL1   C13 3430   0.277   6.174   7.510 -0.5461 -0.0234  0.2572
   47CHL1   C18 3431   0.164   6.067   7.510  0.1300  0.8232  0.0304
   47CHL1  H18A 3432   0.161   6.012   7.414  2.4270 -1.6123  1.2227
   47CHL1  H18B 3433   0.182   5.989   7.587  0.6492  0.2480 -0.6640
   47CHL1  H18C 3434   0.062   6.105   7.532  0.5502  1.9533  0.1463
   47CHL1   C12 3435   0.273   6.272   7.390 -0.4879  0.2984  0.8070
   47CHL1  H12A 3436   0.179   6.332   7.385 -0.4416  0.3743  0.8488
   47CHL1  H12B 3437   0.360   6.338   7.411 -0.6038  1.5456 -2.0796
   47CHL1   C11 3438   0.293   6.202   7.257  1.0367  0.1633 -0.0870
   47CHL1  H11A 3439   0.208   6.130   7.247  1.0139  0.3813 -1.8018
   47CHL1  H11B 3440   0.296   6.285   7.184 -1.9220  2.6731  2.3768
   47CHL1    C9 3441   0.429   6.137   7.247  0.6245 -0.2491  0.1112
   47CHL1    H9 3442   0.509   6.210   7.270  0.7950 -0.9521  1.9373
   47CHL1   C10 3443   0.460   6.079   7.105  0.7111 -0.7964 -0.0235
   47CHL1   C19 3444   0.345   5.989   7.059 -0.6902 -0.2704 -0.3745
   47CHL1  H19A 3445   0.248   6.043   7.060  0.4294  1.8554  1.2150
   47CHL1  H19B 3446   0.375   5.966   6.955  0.7646  2.6415 -0.7127
   47CHL1  H19C 3447   0.340   5.897   7.120 -2.1183  0.5551  0.7990
   47CHL1    C1 3448   0.488   6.203   7.010 -0.8532  0.6184  0.4365
   47CHL1   H1A 3449   0.393   6.258   6.993 -1.7709 -1.0579 -0.1243
   47CHL1   H1B 3450   0.556   6.278   7.054 -1.7638  1.2105  0.8705
   47CHL1    C2 3451   0.550   6.160   6.875  0.0541  0.1108  0.4167
   47CHL1   H2A 3452   0.565   6.239   6.799  1.4320  0.5460  1.0922
   47CHL1   H2B 3453   0.473   6.091   6.833  0.0713  0.5892 -0.4163
   47CHL1   C20 3454   0.154   6.265   7.725 -0.0809  0.2040 -0.5378
   47CHL1   H20 3455   0.100   6.168   7.730 -1.5095  1.0248  0.8468
   47CHL1   C21 3456   0.067   6.372   7.661  0.8031 -0.2516 -0.2956
   47CHL1  H21A 3457   0.112   6.473   7.675 -0.7500  0.2558  1.4966
   47CHL1  H21B 3458  -0.036   6.364   7.702  0.0968 -0.7677 -2.0820
   47CHL1  H21C 3459   0.055   6.366   7.551  1.0100  0.7015 -0.3778
   47CHL1   C22 3460   0.170   6.296   7.879  0.0016 -0.5896 -0.0121
   47CHL1  H22A 3461   0.194   6.201   7.932  0.7206 -0.6703 -0.4602
   47CHL1  H22B 3462   0.262   6.359   7.883 -1.7626  2.1924 -0.6762
   47CHL1   C23 3463   0.051   6.360   7.953 -0.1095 -0.2516  0.8298
   47CHL1  H23A 3464   0.012   6.457   7.917 -0.7750 -0.2441  1.5249
   47CHL1  H23B 3465  -0.029   6.283   7.947 -1.8226  1.4745  0.5491
   47CHL1   C24 3466   0.102   6.378   8.095 -0.1535 -0.8554  0.2998
   47CHL1  H24A 3467   0.142   6.280   8.130 -0.1463  0.1432  3.3883
   47CHL1  H24B 3468   0.201   6.429   8.092 -0.5463 -0.1270 -0.6049
   47CHL1   C25 3469   0.020   6.460   8.197  0.1774 -0.8193 -0.7892
   47CHL1   H25 3470   0.017   6.563   8.157  0.2777 -0.5344 -0.0662
   47CHL1   C26 3471  -0.113   6.384   8.212  0.3352 -0.7549  0.1205
   47CHL1  H26A 3472  -0.167   6.379   8.115  2.2061  2.0364 -1.1963
   47CHL1  H26B 3473  -0.099   6.282   8.252 -0.7854 -0.6476  0.8442
   47CHL1  H26C 3474  -0.181   6.443   8.278  0.6677  2.3754 -2.1089
   47CHL1   C27 3475   0.080   6.469   8.339 -0.6336  0.1289 -0.5699
   47CHL1  H27A 3476   0.176   6.523   8.332  0.4675 -1.6399  0.0055
   47CHL1  H27B 3477   0.010   6.522   8.407  0.3475 -0.5104  0.9978
   47CHL1  H27C 3478   0.094   6.372   8.392  1.1679  0.8010  0.2506
   48CHL1    C3 3479   1.591   0.639   6.560  0.2580  0.1505 -0.4588
   48CHL1    H3 3480   1.585   0.529   6.554  2.5707 -0.1086  0.6675
   48CHL1    O3 3481   1.619   0.692   6.436 -0.0422 -0.1966 -0.1827
   48CHL1   H3' 3482   1.700   0.649   6.407  0.1796 -1.0270  1.5567
   48CHL1    C4 3483   1.459   0.700   6.621  0.3192  0.3109  0.9909
   48CHL1   H4A 3484   1.456   0.811   6.608 -1.0223  0.0583 -1.3743
   48CHL1   H4B 3485   1.372   0.675   6.557  0.1102  0.2210  1.3121
   48CHL1    C5 3486   1.441   0.647   6.764 -0.0920  0.5622 -0.3249
   48CHL1    C6 3487   1.334   0.567   6.790 -1.0022 -0.0895  0.7628
   48CHL1    H6 3488   1.263   0.542   6.710 -0.1614 -0.6234  0.1729
   48CHL1    C7 3489   1.315   0.510   6.923 -0.0187 -0.7506 -0.7713
   48CHL1   H7A 3490   1.205   0.507   6.941  0.3143 -1.1655  1.6558
   48CHL1   H7B 3491   1.338   0.402   6.925 -1.0627 -1.1093  3.5182
   48CHL1    C8 3492   1.386   0.580   7.041 -0.9015  0.4202 -0.2453
   48CHL1    H8 3493   1.334   0.678   7.052 -2.8356 -0.5605 -0.3193
   48CHL1   C14 3494   1.374   0.501   7.170  0.4609 -0.0189  0.1175
   48CHL1   H14 3495   1.411   0.400   7.144  2.0937  0.9526 -1.5800
   48CHL1   C15 3496   1.236   0.482   7.226  0.2513 -0.1588  0.5391
   48CHL1  H15A 3497   1.167   0.564   7.198 -2.5738 -1.7778  2.3438
   48CHL1  H15B 3498   1.190   0.394   7.176 -0.7086  0.8331 -0.3718
   48CHL1   C16 3499   1.242   0.467   7.377  0.0314 -0.3510  0.4176
   48CHL1  H16A 3500   1.183   0.550   7.421  0.3917  0.1251  0.0180
   48CHL1  H16B 3501   1.192   0.375   7.413 -2.0648  0.1691 -0.9446
   48CHL1   C17 3502   1.391   0.487   7.408 -0.3200  0.1022 -0.5745
   48CHL1   H17 3503   1.430   0.384   7.390 -1.6004 -0.2294 -1.5566
   48CHL1   C13 3504   1.449   0.574   7.291  0.0111  0.7934  0.1185
   48CHL1   C18 3505   1.409   0.715   7.314  0.4951 -0.1013  0.1141
   48CHL1  H18A 3506   1.300   0.727   7.335  0.3724  0.4725 -0.7694
   48CHL1  H18B 3507   1.467   0.747   7.403  0.7402  0.1302 -0.1263
   48CHL1  H18C 3508   1.429   0.774   7.222 -2.9937  1.5789  0.2332
   48CHL1   C12 3509   1.598   0.566   7.254 -0.3565  0.7074  0.2336
   48CHL1  H12A 3510   1.655   0.628   7.327 -0.0231  1.7117 -0.8416
   48CHL1  H12B 3511   1.626   0.458   7.252  0.3285  0.8089  1.8951
   48CHL1   C11 3512   1.634   0.622   7.113  1.2650  0.2966 -0.8470
   48CHL1  H11A 3513   1.635   0.732   7.127 -0.5508  0.5388 -2.2118
   48CHL1  H11B 3514   1.734   0.584   7.085  1.4050  0.6381 -0.8130
   48CHL1    C9 3515   1.532   0.592   7.000  0.5909  0.5392 -0.3314
   48CHL1    H9 3516   1.547   0.486   6.970 -1.8667  0.2071 -0.5633
   48CHL1   C10 3517   1.554   0.668   6.871  0.4015 -0.0101  0.3016
   48CHL1   C19 3518   1.552   0.818   6.890  0.3140 -0.0536  0.5196
   48CHL1  H19A 3519   1.466   0.853   6.951  1.6339  1.5558  1.5321
   48CHL1  H19B 3520   1.639   0.859   6.946 -0.1928  1.2258  0.4043
   48CHL1  H19C 3521   1.558   0.878   6.797 -1.3491 -0.1691  0.3097
   48CHL1    C1 3522   1.682   0.619   6.794 -0.1305 -0.2413 -0.2802
   48CHL1   H1A 3523   1.759   0.655   6.865  2.3362 -0.4570 -2.6763
   48CHL1   H1B 3524   1.678   0.509   6.799 -2.4331 -0.1528  1.5160
   48CHL1    C2 3525   1.711   0.674   6.656  0.0448  0.3633  0.3962
   48CHL1   H2A 3526   1.802   0.618   6.628  0.8105 -1.0854  4.9589
   48CHL1   H2B 3527   1.726   0.784   6.659  0.4902  0.3276 -0.3400
   48CHL1   C20 3528   1.429   0.515   7.553  0.4079 -0.3598  0.2417
   48CHL1   H20 3529   1.411   0.621   7.580  1.7242 -0.4331  1.4961
   48CHL1   C21 3530   1.586   0.489   7.570 -1.4946 -0.2096 -0.4862
   48CHL1  H21A 3531   1.640   0.568   7.513 -0.4093 -2.3463 -2.6050
   48CHL1  H21B 3532   1.615   0.396   7.516 -0.2197 -1.1375  1.6425
   48CHL1  H21C 3533   1.629   0.497   7.672 -1.0244 -1.0790 -0.6018
   48CHL1   C22 3534   1.338   0.432   7.649 -0.4240 -0.1050  0.2725
   48CHL1  H22A 3535   1.232   0.452   7.623 -0.5359 -0.6312  0.3280
   48CHL1  H22B 3536   1.361   0.324   7.641 -0.3652  0.0233 -2.4699
   48CHL1   C23 3537   1.363   0.466   7.795  0.5753 -1.1403 -0.3819
   48CHL1  H23A 3538   1.453   0.415   7.836  0.2897 -0.3626  1.3098
   48CHL1  H23B 3539   1.358   0.575   7.816 -0.2642 -0.6797 -2.6996
   48CHL1   C24 3540   1.242   0.411   7.876 -0.4671 -0.0750  0.0927
   48CHL1  H24A 3541   1.150   0.462   7.841 -1.6748 -0.3665  2.6402
   48CHL1  H24B 3542   1.228   0.303   7.853  2.3674 -0.2840 -1.0708
   48CHL1   C25 3543   1.261   0.430   8.025  0.7143 -0.0871 -0.6105
   48CHL1   H25 3544   1.291   0.534   8.048  0.4061 -0.6708  3.0315
   48CHL1   C26 3545   1.132   0.397   8.090  0.4179  0.4312  0.1579
   48CHL1  H26A 3546   1.046   0.451   8.045 -0.6449 -1.8849 -0.7549
   48CHL1  H26B 3547   1.112   0.288   8.081  1.7437  0.1121  0.9231
   48CHL1  H26C 3548   1.147   0.433   8.194  0.9596 -2.8798  1.3446
   48CHL1   C27 3549   1.366   0.338   8.075  0.1963 -0.2881  0.4033
   48CHL1  H27A 3550   1.465   0.354   8.027 -0.6777 -1.6106 -2.0054
   48CHL1  H27B 3551   1.386   0.352   8.183 -0.4577 -0.1147  0.5069
   48CHL1  H27C 3552   1.336   0.236   8.045  0.7405 -0.6745  1.1464
   49CHL1    C3 3553   1.607   2.090   6.825 -0.3164 -0.3421  0.0321
   49CHL1    H3 3554   1.694   2.159   6.825 -1.7085  1.4925  0.0567
   49CHL1    O3 3555   1.573   2.073   6.685 -0.1228  0.2423 -0.1224
   49CHL1   H3' 3556   1.524   1.991   6.676  1.9605 -0.9346 -1.6306
   49CHL1    C4 3557   1.634   1.954   6.892 -0.0298 -0.3743  0.2517
   49CHL1   H4A 3558   1.546   1.890   6.869  0.2375 -1.5516  2.2807
   49CHL1   H4B 3559   1.723   1.909   6.843  1.1504 -0.2747  2.1835
   49CHL1    C5 3560   1.649   1.943   7.040  0.0579 -0.6958  0.2305
   49CHL1    C6 3561   1.764   1.891   7.098 -0.0618  0.1604 -0.2533
   49CHL1    H6 3562   1.841   1.858   7.026  2.0493  3.7987  0.1031
   49CHL1    C7 3563   1.783   1.878   7.247 -0.2519  0.1672  0.3464
   49CHL1   H7A 3564   1.821   1.776   7.269  1.6028  0.9826  1.1403
   49CHL1   H7B 3565   1.860   1.956   7.268 -0.8113  1.2908 -1.5914
   49CHL1    C8 3566   1.655   1.891   7.323  0.0460 -0.2500  0.3001
   49CHL1    H8 3567   1.594   1.798   7.319 -0.0126 -0.2745  1.3816
   49CHL1   C14 3568   1.684   1.928   7.468 -0.2935 -0.4032 -1.0169
   49CHL1   H14 3569   1.725   2.031   7.465 -0.4894 -0.2678  0.2839
   49CHL1   C15 3570   1.788   1.847   7.543  0.4396  0.0816 -0.3855
   49CHL1  H15A 3571   1.785   1.741   7.508  0.5116 -1.0030  2.5819
   49CHL1  H15B 3572   1.885   1.898   7.523  1.7722 -1.1587  2.2582
   49CHL1   C16 3573   1.756   1.867   7.691 -0.3816 -0.4869  0.0204
   49CHL1  H16A 3574   1.728   1.771   7.739 -2.0213  0.0964  0.2774
   49CHL1  H16B 3575   1.847   1.906   7.741 -0.4549 -1.5368  1.0001
   49CHL1   C17 3576   1.629   1.958   7.699 -0.3389  0.7009 -0.6332
   49CHL1   H17 3577   1.673   2.059   7.710 -0.2612  0.7360 -1.2344
   49CHL1   C13 3578   1.566   1.943   7.558 -0.4389 -1.0269 -0.4077
   49CHL1   C18 3579   1.487   1.812   7.548 -0.4494  0.9503 -0.1035
   49CHL1  H18A 3580   1.549   1.726   7.581 -0.0206  1.2470 -0.1246
   49CHL1  H18B 3581   1.408   1.820   7.626  0.5757  3.3741  0.8117
   49CHL1  H18C 3582   1.432   1.797   7.453 -2.2849  3.6682  0.3980
   49CHL1   C12 3583   1.490   2.071   7.507  0.1165  0.0272 -0.9260
   49CHL1  H12A 3584   1.395   2.080   7.564  0.1738 -1.8368 -0.4622
   49CHL1  H12B 3585   1.544   2.167   7.525  0.2060 -0.4973  2.2193
   49CHL1   C11 3586   1.450   2.048   7.360 -0.3796 -0.1641 -0.3070
   49CHL1  H11A 3587   1.368   1.974   7.369  1.0193 -1.6877  0.4870
   49CHL1  H11B 3588   1.409   2.147   7.329 -1.4242 -0.7790 -0.9369
   49CHL1    C9 3589   1.565   2.009   7.264 -0.8308  0.9240  0.4325
   49CHL1    H9 3590   1.637   2.093   7.278  1.6652 -1.1475  0.8525
   49CHL1   C10 3591   1.535   2.001   7.115  0.5517  0.6824  0.1047
   49CHL1   C19 3592   1.423   1.898   7.094  0.0179 -0.2589 -0.5519
   49CHL1  H19A 3593   1.452   1.797   7.130  2.3659  0.7931  0.7673
   49CHL1  H19B 3594   1.342   1.933   7.162  1.0665 -0.6184  0.9466
   49CHL1  H19C 3595   1.380   1.880   6.993  0.5077 -0.5851 -0.7077
   49CHL1    C1 3596   1.505   2.142   7.057  0.5147 -0.5148 -0.3959
   49CHL1   H1A 3597   1.413   2.185   7.101 -0.3681 -0.1550 -2.4605
   49CHL1   H1B 3598   1.593   2.209   7.076  2.4662 -2.3506 -2.3304
   49CHL1    C2 3599   1.488   2.152   6.897 -0.0332  0.5134 -0.3401
   49CHL1   H2A 3600   1.466   2.258   6.871 -0.2638  0.0656 -2.1114
   49CHL1   H2B 3601   1.401   2.085   6.882 -0.2462 -0.0261  2.6877
   49CHL1   C20 3602   1.543   1.918   7.818 -0.3631 -0.5788 -0.0498
   49CHL1   H20 3603   1.482   1.829   7.789 -0.0868 -1.1328  0.9871
   49CHL1   C21 3604   1.446   2.041   7.842  0.4624  0.4119 -0.3782
   49CHL1  H21A 3605   1.515   2.127   7.849  2.1423 -0.9888  1.1934
   49CHL1  H21B 3606   1.398   2.008   7.937  1.1160 -1.1648 -0.5709
   49CHL1  H21C 3607   1.374   2.057   7.759  1.4183 -0.0311 -1.3272
   49CHL1   C22 3608   1.628   1.902   7.948 -0.5125 -0.0387 -0.4911
   49CHL1  H22A 3609   1.552   1.874   8.024 -1.5164  0.3725 -1.3190
   49CHL1  H22B 3610   1.702   1.819   7.939  1.4483  1.4758  0.7942
   49CHL1   C23 3611   1.700   2.019   8.003 -0.8198  0.3161 -0.0065
   49CHL1  H23A 3612   1.784   2.038   7.932 -2.0488 -0.6480 -1.7942
   49CHL1  H23B 3613   1.649   2.117   8.003  1.3094  1.5333 -2.2272
   49CHL1   C24 3614   1.781   1.988   8.132 -0.2157 -0.4823  0.4835
   49CHL1  H24A 3615   1.716   1.960   8.218  0.4564 -0.5096  0.9964
   49CHL1  H24B 3616   1.838   1.896   8.109 -0.0425  0.1842 -2.0976
   49CHL1   C25 3617   1.873   2.104   8.180  0.4359  0.0584 -0.4931
   49CHL1   H25 3618   1.940   2.151   8.105  1.3530 -0.0973  0.2007
   49CHL1   C26 3619   1.776   2.207   8.236 -0.1191  0.3661  0.5477
   49CHL1  H26A 3620   1.706   2.150   8.300  0.4690  0.3501  1.1944
   49CHL1  H26B 3621   1.827   2.286   8.295  0.5573  0.4483 -0.1231
   49CHL1  H26C 3622   1.725   2.261   8.153 -0.5198  0.8691  1.1196
   49CHL1   C27 3623   1.947   2.058   8.299 -0.5456 -0.3405 -0.5325
   49CHL1  H27A 3624   2.013   2.140   8.334 -1.0975  0.0404 -0.3807
   49CHL1  H27B 3625   1.882   2.022   8.382 -0.1896  1.4170  0.5562
   49CHL1  H27C 3626   2.006   1.972   8.261 -0.7178 -0.3444 -0.7914
   50CHL1    C3 3627   2.654   0.499   7.036  0.0266 -1.4829  0.5880
   50CHL1    H3 3628   2.752   0.454   7.061  0.8008  0.6432  1.7027
   50CHL1    O3 3629   2.642   0.480   6.896  0.0328  0.1704 -0.1977
   50CHL1   H3' 3630   2.635   0.565   6.852 -1.1932  1.0685  1.5708
   50CHL1    C4 3631   2.554   0.421   7.113  0.2530 -0.4884  0.5969
   50CHL1   H4A 3632   2.453   0.457   7.084  0.6701  0.1456 -0.1200
   50CHL1   H4B 3633   2.579   0.316   7.090  2.1710 -0.5202  2.4427
   50CHL1    C5 3634   2.567   0.435   7.264  0.7678 -0.3087  0.2515
   50CHL1    C6 3635   2.582   0.327   7.341 -0.3157  0.3703  0.1129
   50CHL1    H6 3636   2.573   0.225   7.301 -0.3756  0.2299  0.4748
   50CHL1    C7 3637   2.592   0.332   7.488  0.4253 -0.9701 -0.1772
   50CHL1   H7A 3638   2.527   0.255   7.534  0.4816 -0.6133  0.5108
   50CHL1   H7B 3639   2.696   0.328   7.525  0.7389  1.4081 -0.6830
   50CHL1    C8 3640   2.555   0.471   7.547  0.0955  0.7003  0.0652
   50CHL1    H8 3641   2.445   0.485   7.545  0.0729  0.4823 -0.3287
   50CHL1   C14 3642   2.594   0.474   7.693 -0.4079  0.0315  0.3540
   50CHL1   H14 3643   2.703   0.454   7.689 -0.4788 -0.6304  1.3772
   50CHL1   C15 3644   2.546   0.365   7.783 -0.2159 -0.1980 -0.4616
   50CHL1  H15A 3645   2.436   0.379   7.782 -0.3584 -0.8731  1.5382
   50CHL1  H15B 3646   2.564   0.262   7.745 -2.4450 -0.9173  0.2526
   50CHL1   C16 3647   2.601   0.406   7.920  0.1027  0.1127  0.5860
   50CHL1  H16A 3648   2.537   0.374   8.004 -0.3593  0.7620  0.4891
   50CHL1  H16B 3649   2.703   0.362   7.926 -0.0270 -0.3726 -0.5651
   50CHL1   C17 3650   2.631   0.563   7.908  0.6421 -0.3619  0.5162
   50CHL1   H17 3651   2.740   0.580   7.920  0.4233  0.4680  1.5436
   50CHL1   C13 3652   2.587   0.607   7.760  0.5705 -0.8013 -0.3270
   50CHL1   C18 3653   2.438   0.654   7.769 -0.6610  0.2467 -0.4921
   50CHL1  H18A 3654   2.381   0.568   7.810  0.4102 -0.6130 -0.7726
   50CHL1  H18B 3655   2.415   0.753   7.813 -0.0341  0.2159 -0.0911
   50CHL1  H18C 3656   2.406   0.654   7.662  0.8844 -0.4046 -0.9787
   50CHL1   C12 3657   2.676   0.700   7.684  0.4673 -0.0538  0.3787
   50CHL1  H12A 3658   2.679   0.802   7.728  0.2916  1.6927 -3.3436
   50CHL1  H12B 3659   2.781   0.665   7.690  1.1995  2.1624  1.5135
   50CHL1   C11 3660   2.635   0.716   7.533 -0.0283 -0.2077  0.0826
   50CHL1  H11A 3661   2.537   0.769   7.533 -0.0831 -0.2593  1.6188
   50CHL1  H11B 3662   2.704   0.782   7.476  0.3612 -0.2663  0.4808
   50CHL1    C9 3663   2.625   0.581   7.463  0.4227 -0.2046 -0.6703
   50CHL1    H9 3664   2.730   0.544   7.461  0.7848  0.8344 -1.6372
   50CHL1   C10 3665   2.577   0.572   7.315  0.1284 -0.3383 -0.5536
   50CHL1   C19 3666   2.435   0.632   7.313 -0.0629  0.5452  0.0390
   50CHL1  H19A 3667   2.442   0.741   7.334 -1.9689  0.4558  1.3879
   50CHL1  H19B 3668   2.398   0.629   7.208  0.0671  1.6080 -0.0519
   50CHL1  H19C 3669   2.363   0.587   7.385  0.9235  0.7912  1.2180
   50CHL1    C1 3670   2.665   0.670   7.225 -0.3988  0.4329 -0.5409
   50CHL1   H1A 3671   2.667   0.779   7.247 -0.1436  0.6150 -1.4278
   50CHL1   H1B 3672   2.770   0.641   7.249 -0.1945 -0.2764 -2.1805
   50CHL1    C2 3673   2.656   0.653   7.071  1.2565 -0.9351 -0.0143
   50CHL1   H2A 3674   2.729   0.717   7.017  2.2234 -1.7720  0.2700
   50CHL1   H2B 3675   2.559   0.692   7.033  0.0951 -1.1209  2.5581
   50CHL1   C20 3676   2.574   0.650   8.029  0.5683 -0.0771  0.2560
   50CHL1   H20 3677   2.464   0.665   8.023  0.4779 -0.5327  0.7107
   50CHL1   C21 3678   2.628   0.793   8.019 -0.3726 -0.2306  0.3664
   50CHL1  H21A 3679   2.588   0.862   8.096  2.3260  1.8391  0.0693
   50CHL1  H21B 3680   2.613   0.834   7.917  1.2014  1.4138  0.7634
   50CHL1  H21C 3681   2.739   0.795   8.027 -0.3666 -0.7061  0.4505
   50CHL1   C22 3682   2.614   0.602   8.166 -0.2125 -0.8217 -0.1319
   50CHL1  H22A 3683   2.629   0.492   8.159  0.8647 -0.6779 -0.0955
   50CHL1  H22B 3684   2.713   0.637   8.202 -1.4572  2.0272  0.8479
   50CHL1   C23 3685   2.517   0.627   8.279  0.0632 -0.6113 -0.4218
   50CHL1  H23A 3686   2.498   0.737   8.287 -4.0561 -1.0216 -1.9341
   50CHL1  H23B 3687   2.414   0.595   8.254 -1.2746  0.8323  2.6791
   50CHL1   C24 3688   2.558   0.571   8.420  0.4174 -0.0988 -0.1209
   50CHL1  H24A 3689   2.605   0.471   8.406  1.8093  0.2832  1.4998
   50CHL1  H24B 3690   2.629   0.633   8.478  0.1113 -0.9379  1.1999
   50CHL1   C25 3691   2.440   0.564   8.515 -0.1004  0.5191 -0.1919
   50CHL1   H25 3692   2.373   0.483   8.479  2.5291 -1.6514 -0.5370
   50CHL1   C26 3693   2.482   0.524   8.656  0.2473  0.1351 -0.4310
   50CHL1  H26A 3694   2.394   0.506   8.722 -1.0002  1.1189 -1.7916
   50CHL1  H26B 3695   2.545   0.433   8.645  0.7091  0.5958 -1.8225
   50CHL1  H26C 3696   2.545   0.596   8.713 -0.8017  1.1771 -0.5551
   50CHL1   C27 3697   2.363   0.704   8.532  0.0417  0.0803  0.3395
   50CHL1  H27A 3698   2.299   0.695   8.623 -0.6413 -0.2713 -0.1642
   50CHL1  H27B 3699   2.430   0.792   8.537 -1.8150  1.8576 -2.7811
   50CHL1  H27C 3700   2.302   0.719   8.441 -0.0233 -1.9999 -0.0109
   51CHL1    C3 3701   1.910   2.357   7.041 -0.2574  0.0078 -0.7562
   51CHL1    H3 3702   2.013   2.386   7.012  0.3193  0.2783  1.3503
   51CHL1    O3 3703   1.826   2.356   6.923 -0.5830 -0.1578 -0.1929
   51CHL1   H3' 3704   1.873   2.302   6.859  1.8244 -0.2689  1.5390
   51CHL1    C4 3705   1.908   2.217   7.116  0.5088  0.1931  0.1112
   51CHL1   H4A 3706   1.804   2.182   7.129  0.5149  0.6633  1.5707
   51CHL1   H4B 3707   1.967   2.156   7.044  0.8916 -1.1563  1.5284
   51CHL1    C5 3708   1.970   2.213   7.250 -0.3165 -0.3592 -0.8794
   51CHL1    C6 3709   2.065   2.127   7.289  0.5407 -0.6649  0.0323
   51CHL1    H6 3710   2.083   2.044   7.220  1.8958 -0.4925  0.1391
   51CHL1    C7 3711   2.112   2.115   7.433  0.2520  0.8934  0.0197
   51CHL1   H7A 3712   2.100   2.009   7.465 -0.2604  1.0450  0.3418
   51CHL1   H7B 3713   2.222   2.133   7.430  0.4331  0.0184  0.7210
   51CHL1    C8 3714   2.047   2.202   7.543 -1.1173  0.0049  0.0221
   51CHL1    H8 3715   1.948   2.162   7.575 -1.3559  0.9315  0.4878
   51CHL1   C14 3716   2.128   2.225   7.670  0.3756  0.2775  0.6102
   51CHL1   H14 3717   2.227   2.257   7.631  0.4911 -0.6200  0.1203
   51CHL1   C15 3718   2.161   2.097   7.749  0.2614 -0.2552  0.5716
   51CHL1  H15A 3719   2.067   2.046   7.780 -0.6411  1.0189  0.0161
   51CHL1  H15B 3720   2.221   2.040   7.675 -0.6962  0.3425 -0.6966
   51CHL1   C16 3721   2.234   2.157   7.871 -0.2203 -0.1122 -0.1902
   51CHL1  H16A 3722   2.194   2.095   7.955  1.0373 -0.5572  0.1047
   51CHL1  H16B 3723   2.344   2.148   7.871 -0.2128 -0.0221 -0.1744
   51CHL1   C17 3724   2.192   2.311   7.875  0.5760  0.0187 -0.5311
   51CHL1   H17 3725   2.280   2.366   7.837  1.8944 -1.9825 -0.5297
   51CHL1   C13 3726   2.081   2.335   7.764  0.3948  0.2573 -0.4716
   51CHL1   C18 3727   1.948   2.290   7.830  0.6976  0.1917  0.2501
   51CHL1  H18A 3728   1.869   2.264   7.756  1.2109 -1.6219  0.2970
   51CHL1  H18B 3729   1.956   2.201   7.896 -3.0181  1.6156  2.9677
   51CHL1  H18C 3730   1.888   2.365   7.885 -2.5088 -0.8416 -1.5595
   51CHL1   C12 3731   2.074   2.469   7.692 -0.1750  0.2476  0.8624
   51CHL1  H12A 3732   2.039   2.543   7.766 -1.6465  1.2903 -0.8171
   51CHL1  H12B 3733   2.172   2.507   7.656  0.0701  0.3751  1.6271
   51CHL1   C11 3734   1.977   2.463   7.568  0.6739  0.9747 -0.0720
   51CHL1  H11A 3735   1.871   2.452   7.601  1.0457 -1.1732  0.5617
   51CHL1  H11B 3736   1.996   2.558   7.513 -1.2865  3.0511  2.5283
   51CHL1    C9 3737   2.016   2.338   7.474 -0.6126 -0.6591 -0.3286
   51CHL1    H9 3738   2.117   2.375   7.448  0.3465 -1.2191  2.2205
   51CHL1   C10 3739   1.933   2.326   7.348 -0.2479  0.0107  0.0226
   51CHL1   C19 3740   1.788   2.306   7.408  0.2638  0.1361 -0.2249
   51CHL1  H19A 3741   1.749   2.398   7.456  0.1388  0.3357 -0.7031
   51CHL1  H19B 3742   1.726   2.265   7.326  0.7389 -0.6751 -0.1827
   51CHL1  H19C 3743   1.783   2.229   7.488 -0.5092  1.1772  0.7671
   51CHL1    C1 3744   1.925   2.463   7.274  0.5149 -0.3410  0.0733
   51CHL1   H1A 3745   1.878   2.537   7.342 -1.2627 -1.7500  0.4345
   51CHL1   H1B 3746   2.034   2.485   7.261  1.0071 -2.0735  1.0318
   51CHL1    C2 3747   1.856   2.464   7.136 -0.9073  0.3805  0.5517
   51CHL1   H2A 3748   1.844   2.568   7.098 -0.1761  0.5185  0.6839
   51CHL1   H2B 3749   1.755   2.424   7.161 -0.0871 -0.9416  1.8587
   51CHL1   C20 3750   2.173   2.360   8.020 -0.7611  0.5831 -0.1682
   51CHL1   H20 3751   2.095   2.297   8.069 -0.8974  1.3220  0.5984
   51CHL1   C21 3752   2.126   2.502   8.021  0.1916  0.7987  0.3352
   51CHL1  H21A 3753   2.193   2.571   7.965  0.1467 -0.2931 -1.1286
   51CHL1  H21B 3754   2.120   2.550   8.121 -2.4478  2.0426 -0.3362
   51CHL1  H21C 3755   2.020   2.511   7.992 -0.0832  0.1992  1.1065
   51CHL1   C22 3756   2.296   2.337   8.112  0.0327  0.2553  0.3837
   51CHL1  H22A 3757   2.347   2.241   8.089 -1.1583 -0.8144  1.9516
   51CHL1  H22B 3758   2.364   2.424   8.100  0.3106 -0.2418 -2.1869
   51CHL1   C23 3759   2.260   2.335   8.268  0.3098 -0.3025 -0.1882
   51CHL1  H23A 3760   2.186   2.415   8.287  0.6196 -0.3022  1.1174
   51CHL1  H23B 3761   2.220   2.236   8.297 -0.4472  0.3045  0.8970
   51CHL1   C24 3762   2.382   2.363   8.370  0.2572  0.5559 -0.0700
   51CHL1  H24A 3763   2.442   2.270   8.356 -0.6584 -0.1574  0.5511
   51CHL1  H24B 3764   2.428   2.457   8.334 -1.9055  1.5167 -0.4855
   51CHL1   C25 3765   2.348   2.369   8.523 -0.2621 -0.2579 -0.0172
   51CHL1   H25 3766   2.265   2.441   8.540 -0.3449 -0.5173  0.7088
   51CHL1   C26 3767   2.300   2.234   8.589 -0.2164 -0.7605 -0.2617
   51CHL1  H26A 3768   2.391   2.171   8.601 -1.1339 -2.0148  0.3395
   51CHL1  H26B 3769   2.264   2.264   8.690  3.0800 -0.9445  1.1129
   51CHL1  H26C 3770   2.219   2.192   8.526 -3.5765  4.0237  0.3622
   51CHL1   C27 3771   2.470   2.416   8.604 -0.2301 -0.1441 -0.3632
   51CHL1  H27A 3772   2.566   2.361   8.599 -0.4263 -0.8616  2.4762
   51CHL1  H27B 3773   2.496   2.520   8.574  0.0195 -0.0371  0.2150
   51CHL1  H27C 3774   2.448   2.435   8.711  1.6007 -0.3140  0.0694
   52CHL1    C3 3775   2.663   2.950   7.077  0.0334  0.2184 -0.1344
   52CHL1    H3 3776   2.683   3.055   7.050 -0.7320  0.9021  1.7411
   52CHL1    O3 3777   2.636   2.876   6.958  0.4472 -0.3028 -0.1933
   52CHL1   H3' 3778   2.721   2.839   6.935 -0.7081 -2.7127 -0.9175
   52CHL1    C4 3779   2.769   2.869   7.158  0.5275 -0.0915  0.5220
   52CHL1   H4A 3780   2.736   2.764   7.170  1.3431 -0.1446  2.6205
   52CHL1   H4B 3781   2.864   2.848   7.105  0.3613  0.9210 -0.2230
   52CHL1    C5 3782   2.787   2.940   7.289  0.2775  0.5169  0.0223
   52CHL1    C6 3783   2.910   2.970   7.325 -0.0871 -0.2476  0.6212
   52CHL1    H6 3784   2.992   2.928   7.265  0.8448 -0.8109  2.2326
   52CHL1    C7 3785   2.950   3.055   7.441  0.3804  0.3110  0.3992
   52CHL1   H7A 3786   3.042   3.024   7.496  0.2153  1.0115  1.0890
   52CHL1   H7B 3787   2.968   3.158   7.403  0.3592  0.2494  0.2187
   52CHL1    C8 3788   2.836   3.062   7.547  0.8644  0.8500 -0.2413
   52CHL1    H8 3789   2.833   2.962   7.593  1.2112  0.8267 -0.2662
   52CHL1   C14 3790   2.870   3.153   7.654  0.6298 -0.3401 -0.0078
   52CHL1   H14 3791   2.883   3.253   7.607 -2.2631  0.4599  0.7206
   52CHL1   C15 3792   3.001   3.125   7.736 -0.0582  0.3245  0.4136
   52CHL1  H15A 3793   3.017   3.016   7.743  0.0703 -0.1749 -4.2649
   52CHL1  H15B 3794   3.086   3.175   7.685 -0.1770  0.5124  0.3967
   52CHL1   C16 3795   2.978   3.200   7.865  0.6371  0.0790 -0.1858
   52CHL1  H16A 3796   2.989   3.134   7.953 -0.4172 -0.9400 -0.7835
   52CHL1  H16B 3797   3.048   3.285   7.876 -1.2883  1.5496  1.3832
   52CHL1   C17 3798   2.832   3.260   7.865  0.5261  0.2708 -0.3027
   52CHL1   H17 3799   2.841   3.362   7.823 -0.5270  0.3546 -0.3488
   52CHL1   C13 3800   2.760   3.168   7.767 -0.5865 -0.1650 -0.3025
   52CHL1   C18 3801   2.740   3.024   7.836 -0.1648 -0.4170  0.2439
   52CHL1  H18A 3802   2.730   2.938   7.766  0.8703 -1.8362  1.7563
   52CHL1  H18B 3803   2.830   2.995   7.895  0.8709 -0.5277 -1.3089
   52CHL1  H18C 3804   2.653   3.020   7.904 -1.4316  0.1202 -1.2953
   52CHL1   C12 3805   2.642   3.224   7.696 -0.3057  0.3328  0.1394
   52CHL1  H12A 3806   2.552   3.232   7.762 -3.7465  2.5220 -4.2943
   52CHL1  H12B 3807   2.664   3.326   7.660  0.5681  0.3082  0.5690
   52CHL1   C11 3808   2.589   3.132   7.580  0.0321 -0.1030 -0.4537
   52CHL1  H11A 3809   2.546   3.040   7.626  0.7244  0.4711  1.4235
   52CHL1  H11B 3810   2.509   3.186   7.525 -0.1002 -0.6275 -0.7863
   52CHL1    C9 3811   2.700   3.096   7.478  0.0713 -0.3523 -0.1364
   52CHL1    H9 3812   2.713   3.181   7.408  0.9325 -2.2671 -2.4646
   52CHL1   C10 3813   2.657   2.978   7.382  0.0091 -0.3055  0.5075
   52CHL1   C19 3814   2.604   2.844   7.440 -0.7923  0.0311 -0.1233
   52CHL1  H19A 3815   2.507   2.858   7.492 -0.5144 -0.5587  0.5718
   52CHL1  H19B 3816   2.603   2.761   7.366  0.8764 -1.3733  1.3334
   52CHL1  H19C 3817   2.685   2.812   7.509  0.5218 -1.2892 -2.1535
   52CHL1    C1 3818   2.551   3.039   7.287 -0.3212 -0.7781  0.5884
   52CHL1   H1A 3819   2.451   3.052   7.334 -0.7592  0.7196 -0.7100
   52CHL1   H1B 3820   2.578   3.143   7.260  1.6789 -1.9741 -2.5575
   52CHL1    C2 3821   2.530   2.963   7.158 -0.4105  0.4399  0.2257
   52CHL1   H2A 3822   2.454   3.011   7.092 -0.3586 -0.0294 -0.1782
   52CHL1   H2B 3823   2.507   2.857   7.183  0.7197  0.0179 -0.4604
   52CHL1   C20 3824   2.778   3.275   8.009  0.1315 -0.0182 -0.0479
   52CHL1   H20 3825   2.775   3.175   8.058 -0.0782  0.2662  0.5319
   52CHL1   C21 3826   2.640   3.334   7.998 -0.3622 -0.1722 -0.5586
   52CHL1  H21A 3827   2.626   3.408   7.917 -1.0680  0.0155 -0.2740
   52CHL1  H21B 3828   2.612   3.378   8.096  0.5590 -0.4936 -0.1338
   52CHL1  H21C 3829   2.568   3.251   7.983  1.3653 -2.2364  1.6644
   52CHL1   C22 3830   2.874   3.371   8.089  0.5136 -0.2670  0.2991
   52CHL1  H22A 3831   2.974   3.324   8.075 -0.1005 -1.8279  0.9619
   52CHL1  H22B 3832   2.875   3.475   8.051 -2.4392 -0.3774 -0.2711
   52CHL1   C23 3833   2.848   3.367   8.243 -0.0087  0.2326  0.1828
   52CHL1  H23A 3834   2.745   3.403   8.262  0.0724  0.8514 -0.5016
   52CHL1  H23B 3835   2.861   3.258   8.259 -0.8475 -0.3386 -2.5734
   52CHL1   C24 3836   2.957   3.455   8.312 -0.7542  0.3547 -0.2784
   52CHL1  H24A 3837   3.052   3.403   8.288  0.5394  1.8440  1.3598
   52CHL1  H24B 3838   2.966   3.560   8.275  0.4697 -0.0039 -1.0386
   52CHL1   C25 3839   2.936   3.437   8.466 -0.6602  0.4672  0.0123
   52CHL1   H25 3840   2.933   3.328   8.487  0.3209  0.7019  1.5430
   52CHL1   C26 3841   3.064   3.488   8.532  0.3546 -0.1394 -1.0428
   52CHL1  H26A 3842   3.077   3.598   8.539 -0.6905 -0.1030  1.7926
   52CHL1  H26B 3843   3.054   3.451   8.636 -1.8545 -2.2221 -1.9075
   52CHL1  H26C 3844   3.156   3.446   8.486  2.0418  2.0773  0.1404
   52CHL1   C27 3845   2.802   3.496   8.515  0.1796 -0.0870 -0.5188
   52CHL1  H27A 3846   2.717   3.447   8.463  0.5819 -1.4400  0.0418
   52CHL1  H27B 3847   2.806   3.467   8.622  0.4684 -0.5166 -0.6407
   52CHL1  H27C 3848   2.796   3.604   8.494 -0.3722 -0.2903 -1.4530
   53CHL1    C3 3849   0.197   0.180   7.052  0.0605  0.2893  0.6979
   53CHL1    H3 3850   0.275   0.102   7.039  0.2976  0.4244  1.2687
   53CHL1    O3 3851   0.150   0.211   6.921 -0.0455  0.0772 -0.0599
   53CHL1   H3' 3852   0.098   0.291   6.928  0.3271  0.3576 -0.4475
   53CHL1    C4 3853   0.079   0.135   7.140  0.7878  0.8779  0.5028
   53CHL1   H4A 3854  -0.004   0.206   7.120  0.6311  0.7054  0.5479
   53CHL1   H4B 3855   0.040   0.040   7.098  0.6519  0.9702  0.4177
   53CHL1    C5 3856   0.102   0.128   7.292  0.4956  0.0517  0.5588
   53CHL1    C6 3857   0.069   0.017   7.360 -0.4446  0.0094 -0.2931
   53CHL1    H6 3858   0.010  -0.057   7.304 -2.9923  0.5087  1.5144
   53CHL1    C7 3859   0.080   0.005   7.509  0.0882  0.3883 -0.3408
   53CHL1   H7A 3860  -0.019  -0.034   7.542 -0.4952  2.3125  0.2980
   53CHL1   H7B 3861   0.167  -0.060   7.532 -0.2745  0.4856  1.4460
   53CHL1    C8 3862   0.104   0.148   7.577 -0.2183  0.2375 -0.4113
   53CHL1    H8 3863   0.004   0.198   7.574 -0.9089 -0.9263  1.4933
   53CHL1   C14 3864   0.138   0.125   7.721 -0.6371  0.7191 -0.3618
   53CHL1   H14 3865   0.220   0.051   7.711 -0.2940  0.8285  1.3586
   53CHL1   C15 3866   0.030   0.059   7.807 -0.0421 -0.0958  0.3177
   53CHL1  H15A 3867  -0.074   0.094   7.794 -0.3286 -1.0924 -0.1960
   53CHL1  H15B 3868   0.035  -0.048   7.778 -1.9171  0.4316 -2.2980
   53CHL1   C16 3869   0.092   0.081   7.948 -0.3853 -0.3407 -0.2973
   53CHL1  H16A 3870   0.006   0.129   7.999 -0.3366  0.0814 -0.6089
   53CHL1  H16B 3871   0.124  -0.009   8.005  0.8901  2.0839  3.1974
   53CHL1   C17 3872   0.213   0.181   7.939  0.8259 -0.1801 -0.0497
   53CHL1   H17 3873   0.302   0.115   7.941 -0.1173 -1.4899  0.2629
   53CHL1   C13 3874   0.195   0.245   7.799  1.0860 -0.1696 -0.4015
   53CHL1   C18 3875   0.088   0.353   7.811 -0.2700  0.6527  0.6336
   53CHL1  H18A 3876   0.051   0.377   7.709 -0.2158  1.6566  0.8397
   53CHL1  H18B 3877   0.005   0.313   7.873 -0.9391 -1.8586 -1.7208
   53CHL1  H18C 3878   0.126   0.445   7.860 -0.5247  0.6331  0.8709
   53CHL1   C12 3879   0.324   0.289   7.720  0.4971 -0.9151 -0.2784
   53CHL1  H12A 3880   0.379   0.370   7.772 -2.2738 -0.1970  1.7757
   53CHL1  H12B 3881   0.396   0.204   7.723  2.5616  0.7973  2.3964
   53CHL1   C11 3882   0.288   0.328   7.578  0.1953 -0.4028  0.0238
   53CHL1  H11A 3883   0.232   0.423   7.567  1.7880  0.2746 -3.8018
   53CHL1  H11B 3884   0.381   0.364   7.529  1.0395  1.2389  2.5800
   53CHL1    C9 3885   0.218   0.216   7.500  0.2057  0.4606 -0.0329
   53CHL1    H9 3886   0.296   0.137   7.501 -0.8897 -0.7097  2.6171
   53CHL1   C10 3887   0.174   0.239   7.353 -0.1191 -0.0566 -0.0287
   53CHL1   C19 3888   0.078   0.361   7.356  0.8665 -1.2780  0.1990
   53CHL1  H19A 3889   0.139   0.451   7.379  0.2033 -1.2919  2.1422
   53CHL1  H19B 3890   0.031   0.383   7.258  1.2781  1.1777  0.4891
   53CHL1  H19C 3891  -0.006   0.339   7.425 -0.1398  1.2505 -0.1042
   53CHL1    C1 3892   0.296   0.276   7.259 -0.3130  0.3526 -0.0403
   53CHL1   H1A 3893   0.360   0.357   7.300 -1.5424  1.4565 -0.2372
   53CHL1   H1B 3894   0.370   0.194   7.264 -0.3005  0.4031  0.7669
   53CHL1    C2 3895   0.254   0.305   7.114  0.1346 -0.8475  0.9914
   53CHL1   H2A 3896   0.337   0.326   7.044 -0.6496  1.1078  0.5984
   53CHL1   H2B 3897   0.184   0.391   7.104  0.1060 -0.9474  0.3007
   53CHL1   C20 3898   0.216   0.280   8.060 -0.4376  0.3466 -0.2089
   53CHL1   H20 3899   0.116   0.325   8.076 -0.2618  0.9338 -0.7334
   53CHL1   C21 3900   0.336   0.368   8.044  0.7314 -0.1969 -0.0982
   53CHL1  H21A 3901   0.380   0.397   8.142  2.2081 -2.7841  0.0967
   53CHL1  H21B 3902   0.317   0.466   7.996  0.5324  0.1738  0.7154
   53CHL1  H21C 3903   0.423   0.321   7.994  1.7278  1.3041  0.1646
   53CHL1   C22 3904   0.242   0.190   8.186 -1.0670  0.1346  0.7741
   53CHL1  H22A 3905   0.200   0.087   8.191  0.0597 -0.4665 -1.3236
   53CHL1  H22B 3906   0.350   0.168   8.191 -0.7619  1.3162 -0.1395
   53CHL1   C23 3907   0.204   0.266   8.318 -0.1988 -0.3158 -0.0364
   53CHL1  H23A 3908   0.230   0.372   8.298  1.1904 -0.2143  1.9678
   53CHL1  H23B 3909   0.094   0.259   8.332  0.2138 -3.1775  3.1963
   53CHL1   C24 3910   0.287   0.232   8.437  0.2720 -0.6017  0.6049
   53CHL1  H24A 3911   0.246   0.134   8.471  1.6467 -2.5062 -2.7599
   53CHL1  H24B 3912   0.394   0.226   8.407 -0.0344 -1.8525 -0.3192
   53CHL1   C25 3913   0.279   0.350   8.549  0.2861  0.3686  0.4249
   53CHL1   H25 3914   0.308   0.443   8.496  0.3255 -0.3808 -0.9006
   53CHL1   C26 3915   0.133   0.362   8.607 -1.1144 -0.1305  0.5682
   53CHL1  H26A 3916   0.091   0.269   8.653 -0.3935  0.0089  1.5354
   53CHL1  H26B 3917   0.145   0.445   8.680 -0.5474 -0.2236  0.5832
   53CHL1  H26C 3918   0.061   0.387   8.527 -0.5816 -2.7209 -0.8432
   53CHL1   C27 3919   0.376   0.332   8.658  0.0022 -0.5361  0.3022
   53CHL1  H27A 3920   0.375   0.421   8.725 -0.9542  0.7325 -1.3298
   53CHL1  H27B 3921   0.347   0.244   8.719 -1.6799 -0.9788 -1.0809
   53CHL1  H27C 3922   0.481   0.320   8.622 -0.1223 -0.7437  0.0092
   54CHL1    C3 3923   6.580   2.039   7.043  0.8351  1.0409  0.0403
   54CHL1    H3 3924   6.516   2.095   7.114  0.6820  1.3698 -0.3496
   54CHL1    O3 3925   6.551   2.060   6.906  0.4454  0.2223  0.5001
   54CHL1   H3' 3926   6.456   2.044   6.898  1.0168 -3.1728 -1.4008
   54CHL1    C4 3927   6.726   2.080   7.068  0.4758 -0.5395 -0.2455
   54CHL1   H4A 3928   6.796   2.015   7.011 -1.2677 -1.0937 -1.8556
   54CHL1   H4B 3929   6.743   2.177   7.016 -1.0386 -0.2813 -0.3057
   54CHL1    C5 3930   6.759   2.065   7.216 -0.0852 -0.2412  0.2905
   54CHL1    C6 3931   6.806   2.165   7.283  0.0055 -0.7227 -0.6925
   54CHL1    H6 3932   6.825   2.258   7.227  0.3867 -0.2726  0.1667
   54CHL1    C7 3933   6.854   2.159   7.431  0.3818  0.1440  0.7423
   54CHL1   H7A 3934   6.960   2.192   7.435  1.8084 -3.8581  0.0201
   54CHL1   H7B 3935   6.787   2.222   7.494 -1.9142 -0.2260 -1.1995
   54CHL1    C8 3936   6.856   2.011   7.485 -0.1697  0.0442  0.0638
   54CHL1    H8 3937   6.941   1.950   7.449 -0.8324 -0.7179 -0.2381
   54CHL1   C14 3938   6.854   2.017   7.637  0.1767 -1.4868  0.0316
   54CHL1   H14 3939   6.762   2.072   7.666 -0.6568 -1.0531 -3.1050
   54CHL1   C15 3940   6.972   2.090   7.713  0.3166 -0.4367 -0.1086
   54CHL1  H15A 3941   7.066   2.056   7.665 -0.2204  0.0587 -1.5961
   54CHL1  H15B 3942   6.974   2.199   7.695 -3.3756 -0.1619  0.2909
   54CHL1   C16 3943   6.960   2.047   7.862  0.3699  0.1395 -0.5718
   54CHL1  H16A 3944   7.063   2.025   7.897  0.4791  1.9817  0.4123
   54CHL1  H16B 3945   6.912   2.127   7.923  2.4438  1.6208 -0.7679
   54CHL1   C17 3946   6.858   1.923   7.857 -1.0220  0.3935 -0.5957
   54CHL1   H17 3947   6.758   1.954   7.895 -0.3547 -0.9857  2.6191
   54CHL1   C13 3948   6.843   1.886   7.701 -0.7860  0.0689 -0.6231
   54CHL1   C18 3949   6.965   1.796   7.666  0.1622 -0.1374 -0.6167
   54CHL1  H18A 3950   6.979   1.792   7.556  0.9485  1.2318 -0.5993
   54CHL1  H18B 3951   7.060   1.823   7.718 -0.4628 -0.1798  0.5618
   54CHL1  H18C 3952   6.937   1.693   7.695  0.5961 -0.1649 -0.2813
   54CHL1   C12 3953   6.714   1.818   7.664  0.2648  0.3485 -0.5185
   54CHL1  H12A 3954   6.698   1.719   7.711 -4.4950  0.7066 -0.8463
   54CHL1  H12B 3955   6.631   1.889   7.683  0.3929  0.6408 -1.0363
   54CHL1   C11 3956   6.714   1.806   7.511  0.1952  0.3009 -0.3093
   54CHL1  H11A 3957   6.775   1.720   7.474 -4.2396 -2.0248 -3.2694
   54CHL1  H11B 3958   6.608   1.777   7.492  0.7533 -2.0464 -0.1479
   54CHL1    C9 3959   6.735   1.938   7.431  0.3966  0.3330 -0.0001
   54CHL1    H9 3960   6.652   2.001   7.469 -0.2456 -0.1453 -0.5774
   54CHL1   C10 3961   6.728   1.925   7.281 -0.5750 -0.4024  0.2339
   54CHL1   C19 3962   6.836   1.835   7.225  0.2686  0.0413  0.1522
   54CHL1  H19A 3963   6.808   1.802   7.123  0.0269 -1.2605  0.6275
   54CHL1  H19B 3964   6.936   1.883   7.224 -1.0826  3.2167  1.3632
   54CHL1  H19C 3965   6.835   1.743   7.287  1.9007 -1.1577 -1.4926
   54CHL1    C1 3966   6.585   1.877   7.230 -0.0905  0.4836 -0.0885
   54CHL1   H1A 3967   6.568   1.770   7.255 -2.9657  0.8868 -0.0001
   54CHL1   H1B 3968   6.506   1.918   7.296 -2.3375 -3.5361  0.0593
   54CHL1    C2 3969   6.557   1.890   7.080 -0.1655 -0.7077 -0.1117
   54CHL1   H2A 3970   6.457   1.854   7.048  0.2172 -0.3160 -1.8716
   54CHL1   H2B 3971   6.627   1.833   7.015  1.0843  0.8391 -0.2029
   54CHL1   C20 3972   6.904   1.810   7.957  0.0143  0.2611 -0.1763
   54CHL1   H20 3973   7.000   1.764   7.924 -0.0957  0.8641 -1.4089
   54CHL1   C21 3974   6.797   1.702   7.979  0.3070  0.4264  0.6803
   54CHL1  H21A 3975   6.802   1.626   7.898  0.5028  1.3833 -0.2372
   54CHL1  H21B 3976   6.696   1.748   7.964  0.3641  0.0737 -0.9726
   54CHL1  H21C 3977   6.818   1.648   8.074  1.9887 -1.1352 -0.5096
   54CHL1   C22 3978   6.940   1.869   8.091 -0.7525  0.3666  0.1577
   54CHL1  H22A 3979   6.985   1.796   8.162 -0.5247  1.2802  0.9749
   54CHL1  H22B 3980   7.019   1.947   8.085 -1.4846  1.0070 -1.7443
   54CHL1   C23 3981   6.834   1.924   8.181  0.6524 -0.3535 -0.0804
   54CHL1  H23A 3982   6.770   1.993   8.122  1.1828 -0.8837 -1.3067
   54CHL1  H23B 3983   6.761   1.842   8.196  0.1036 -0.0932 -1.2037
   54CHL1   C24 3984   6.892   2.001   8.297 -0.7309 -0.3193  1.1237
   54CHL1  H24A 3985   6.978   2.061   8.261  0.9024 -3.9064 -1.6473
   54CHL1  H24B 3986   6.814   2.062   8.348  0.4094  0.3398  2.1130
   54CHL1   C25 3987   6.954   1.923   8.414  0.0253 -0.2964 -0.4345
   54CHL1   H25 3988   7.028   1.850   8.374 -0.0025  0.2503 -1.5220
   54CHL1   C26 3989   7.013   2.025   8.514  0.2120  0.0812 -0.5261
   54CHL1  H26A 3990   7.094   2.082   8.465 -0.7227  1.5342 -0.4386
   54CHL1  H26B 3991   6.926   2.088   8.542 -1.4549 -3.3078  2.7880
   54CHL1  H26C 3992   7.042   1.977   8.610  0.4188 -1.6538 -1.4057
   54CHL1   C27 3993   6.847   1.834   8.482  0.2135 -0.2471 -0.5118
   54CHL1  H27A 3994   6.881   1.807   8.584 -1.4790  0.1938  0.2034
   54CHL1  H27B 3995   6.748   1.885   8.489  0.4346  0.1217 -0.0161
   54CHL1  H27C 3996   6.833   1.742   8.422  1.6594  0.4285 -1.9940
   55CHL1    C3 3997   4.936   1.820   6.971  0.1891 -0.7375 -0.0872
   55CHL1    H3 3998   4.831   1.847   6.997  1.3082  2.4653  1.5839
   55CHL1    O3 3999   4.951   1.839   6.836  0.1520 -0.6207  0.3717
   55CHL1   H3' 4000   5.044   1.817   6.822 -0.6437 -4.1294 -0.4736
   55CHL1    C4 4001   5.018   1.920   7.051  0.1414  0.0922  0.3159
   55CHL1   H4A 4002   5.122   1.887   7.028  0.0297 -0.4366  0.5554
   55CHL1   H4B 4003   5.016   2.019   7.002  0.8010 -0.0675 -0.0496
   55CHL1    C5 4004   4.987   1.906   7.200 -0.4331  0.1182  0.4480
   55CHL1    C6 4005   4.954   2.017   7.274  0.2568 -0.3670 -0.7834
   55CHL1    H6 4006   4.977   2.113   7.225 -1.4111 -0.0981 -1.1099
   55CHL1    C7 4007   4.921   2.014   7.424  0.0416 -0.6400 -0.3299
   55CHL1   H7A 4008   4.965   2.098   7.481 -1.6618 -0.5951  0.9855
   55CHL1   H7B 4009   4.811   2.030   7.431  0.1476 -0.2144  0.4880
   55CHL1    C8 4010   4.955   1.879   7.493  0.1964 -0.7054  0.0092
   55CHL1    H8 4011   5.062   1.870   7.522 -0.1855 -3.0096  0.9484
   55CHL1   C14 4012   4.882   1.860   7.624  0.5454  0.0396 -0.4590
   55CHL1   H14 4013   4.773   1.850   7.603  0.5770 -1.6998  0.0825
   55CHL1   C15 4014   4.891   1.963   7.738  0.0080 -0.3823 -0.2744
   55CHL1  H15A 4015   4.999   1.984   7.755  0.7939 -1.8152 -2.8819
   55CHL1  H15B 4016   4.845   2.061   7.714  3.6281  1.0493 -2.1200
   55CHL1   C16 4017   4.837   1.901   7.865  0.6870 -0.8419  0.6377
   55CHL1  H16A 4018   4.900   1.939   7.948  0.6966 -3.0031  1.6919
   55CHL1  H16B 4019   4.731   1.931   7.876  0.7537 -0.2865 -0.1013
   55CHL1   C17 4020   4.824   1.751   7.835  0.3449 -0.0440  0.0835
   55CHL1   H17 4021   4.720   1.723   7.807  0.2933  0.0314  0.1991
   55CHL1   C13 4022   4.916   1.728   7.710  0.8017  0.1191 -0.3120
   55CHL1   C18 4023   5.070   1.724   7.754 -0.7061 -0.2242  0.2396
   55CHL1  H18A 4024   5.141   1.757   7.675  1.3008 -0.7273  1.7350
   55CHL1  H18B 4025   5.094   1.794   7.837  1.9827  1.2150 -1.6022
   55CHL1  H18C 4026   5.100   1.622   7.785  1.0902  0.9622  2.7392
   55CHL1   C12 4027   4.871   1.614   7.615 -0.0811 -0.1673 -0.0711
   55CHL1  H12A 4028   4.882   1.509   7.648  2.1899 -0.4170 -1.3751
   55CHL1  H12B 4029   4.763   1.628   7.593 -0.6784 -1.1932  1.9835
   55CHL1   C11 4030   4.942   1.629   7.478  0.2952  0.5501 -0.1703
   55CHL1  H11A 4031   5.050   1.614   7.502 -0.3454 -3.8971  0.6926
   55CHL1  H11B 4032   4.910   1.550   7.407  3.9576  0.5742 -2.0988
   55CHL1    C9 4033   4.918   1.767   7.404 -0.2474  0.3044  0.0984
   55CHL1    H9 4034   4.807   1.768   7.389 -0.4021 -1.1739  1.0167
   55CHL1   C10 4035   4.986   1.769   7.263 -0.5517  0.0871  0.2074
   55CHL1   C19 4036   5.134   1.722   7.287 -0.3757  0.1570  0.2874
   55CHL1  H19A 4037   5.181   1.806   7.343  0.0355 -0.2335  0.5272
   55CHL1  H19B 4038   5.150   1.629   7.345  1.0687  1.3952  1.9650
   55CHL1  H19C 4039   5.193   1.705   7.194 -0.5941 -1.9206  0.4923
   55CHL1    C1 4040   4.915   1.663   7.167 -0.5565  0.4378 -0.0958
   55CHL1   H1A 4041   4.966   1.574   7.210  2.2586  0.9202 -2.1326
   55CHL1   H1B 4042   4.805   1.659   7.181 -0.5395  0.3467  0.0109
   55CHL1    C2 4043   4.954   1.675   7.018 -0.3544  0.8524 -0.0837
   55CHL1   H2A 4044   4.915   1.592   6.956  0.9869 -0.1909  0.4305
   55CHL1   H2B 4045   5.063   1.655   7.010 -0.7147 -0.5038 -2.4229
   55CHL1   C20 4046   4.849   1.666   7.959  0.5175  0.3563  0.1856
   55CHL1   H20 4047   4.947   1.700   7.998  0.8815  1.6741 -1.7422
   55CHL1   C21 4048   4.842   1.517   7.924  0.3640 -0.2304  0.1824
   55CHL1  H21A 4049   4.750   1.481   7.872  0.4930 -0.3675  0.0467
   55CHL1  H21B 4050   4.853   1.456   8.016  0.1444  1.4642  1.3626
   55CHL1  H21C 4051   4.925   1.485   7.857 -0.3206 -0.7602 -0.4395
   55CHL1   C22 4052   4.739   1.698   8.064 -0.7293 -0.0943  0.4767
   55CHL1  H22A 4053   4.729   1.808   8.072  2.7714  0.2712  1.9256
   55CHL1  H22B 4054   4.639   1.657   8.038 -0.8687  1.1258 -1.0750
   55CHL1   C23 4055   4.776   1.648   8.201 -0.4502 -0.0146  0.5828
   55CHL1  H23A 4056   4.762   1.539   8.214 -1.4457  0.2078  1.5969
   55CHL1  H23B 4057   4.882   1.679   8.211  0.1181 -1.6799 -0.0091
   55CHL1   C24 4058   4.704   1.735   8.305  0.1970 -0.0314 -0.3151
   55CHL1  H24A 4059   4.730   1.843   8.313  0.8924 -0.2200 -0.0033
   55CHL1  H24B 4060   4.597   1.723   8.278  0.2219 -0.8959 -0.0523
   55CHL1   C25 4061   4.717   1.675   8.447 -0.3538 -0.2706  0.0394
   55CHL1   H25 4062   4.680   1.570   8.457 -0.2490 -0.2244  1.0135
   55CHL1   C26 4063   4.861   1.689   8.502  1.0157 -0.0393  0.2315
   55CHL1  H26A 4064   4.894   1.795   8.512  1.4994 -0.1928  0.3202
   55CHL1  H26B 4065   4.872   1.641   8.602  1.9828  1.3442  0.8275
   55CHL1  H26C 4066   4.934   1.636   8.438 -0.0738 -0.0302 -1.0550
   55CHL1   C27 4067   4.632   1.748   8.546 -0.4005  0.2942  0.1069
   55CHL1  H27A 4068   4.547   1.685   8.581 -1.2023  1.3302  0.0705
   55CHL1  H27B 4069   4.676   1.783   8.642  0.8305  1.3711 -0.8298
   55CHL1  H27C 4070   4.575   1.829   8.496  0.9503  0.4847 -1.1501
   56CHL1    C3 4071   4.653   0.685   7.104  0.0179  0.2489  0.5051
   56CHL1    H3 4072   4.701   0.588   7.130 -0.8750 -0.2502  0.3385
   56CHL1    O3 4073   4.670   0.726   6.966 -0.6484 -0.2820 -0.1522
   56CHL1   H3' 4074   4.608   0.797   6.951  0.3871  0.7649  0.3316
   56CHL1    C4 4075   4.504   0.667   7.143  0.4354  0.1227  0.3033
   56CHL1   H4A 4076   4.445   0.758   7.118 -1.1258 -0.9999 -0.2874
   56CHL1   H4B 4077   4.467   0.581   7.082 -0.3925  0.2818  0.5637
   56CHL1    C5 4078   4.484   0.636   7.291  0.0928 -0.0547 -0.3010
   56CHL1    C6 4079   4.403   0.534   7.324 -0.1469  0.7250 -0.1453
   56CHL1    H6 4080   4.359   0.473   7.244 -0.9500  2.4383 -1.0631
   56CHL1    C7 4081   4.370   0.500   7.468  0.1978  0.0840  0.5096
   56CHL1   H7A 4082   4.260   0.486   7.479 -0.5146 -0.6240 -4.8915
   56CHL1   H7B 4083   4.419   0.401   7.480  1.7467  0.8864  1.0975
   56CHL1    C8 4084   4.431   0.595   7.571  0.4347 -0.4247 -0.2108
   56CHL1    H8 4085   4.355   0.676   7.575 -0.1323 -0.8741 -1.3185
   56CHL1   C14 4086   4.450   0.532   7.710  0.0908 -0.9349 -0.2015
   56CHL1   H14 4087   4.528   0.458   7.681 -1.4251 -1.8704 -2.1765
   56CHL1   C15 4088   4.339   0.428   7.768  0.3401 -0.2522  0.7835
   56CHL1  H15A 4089   4.243   0.476   7.740 -0.3538  0.2294  3.6984
   56CHL1  H15B 4090   4.354   0.328   7.722 -2.6496 -1.1995  1.6798
   56CHL1   C16 4091   4.364   0.440   7.920  0.2458  0.0079 -0.8235
   56CHL1  H16A 4092   4.284   0.505   7.962  1.1542 -0.3302  1.6129
   56CHL1  H16B 4093   4.358   0.342   7.971 -1.0812  0.9695  0.9732
   56CHL1   C17 4094   4.499   0.507   7.939  0.1302 -0.3778  0.2812
   56CHL1   H17 4095   4.582   0.442   7.904  0.9840 -0.9609  3.0846
   56CHL1   C13 4096   4.506   0.615   7.821  0.1449 -0.6243 -0.2296
   56CHL1   C18 4097   4.412   0.738   7.854  0.2350 -0.6787  0.0371
   56CHL1  H18A 4098   4.385   0.794   7.762 -2.9355  1.4040  2.0320
   56CHL1  H18B 4099   4.314   0.719   7.903  1.1852 -0.4642  2.1037
   56CHL1  H18C 4100   4.466   0.808   7.921  0.9349 -2.4068  1.3400
   56CHL1   C12 4101   4.647   0.660   7.775  0.6984  0.0157  0.4120
   56CHL1  H12A 4102   4.692   0.719   7.858 -0.1228 -0.7987  1.4510
   56CHL1  H12B 4103   4.713   0.572   7.759  0.3438 -0.2048  0.1387
   56CHL1   C11 4104   4.638   0.736   7.644 -0.0269  0.0480  0.8739
   56CHL1  H11A 4105   4.581   0.829   7.666  2.2520  1.7846 -0.1276
   56CHL1  H11B 4106   4.736   0.782   7.621  0.2726 -1.1956 -0.5291
   56CHL1    C9 4107   4.566   0.655   7.533 -0.0835 -0.4940 -0.0138
   56CHL1    H9 4108   4.632   0.566   7.520 -0.5254 -1.0153  1.1507
   56CHL1   C10 4109   4.562   0.725   7.394 -0.5773  0.0084 -0.1313
   56CHL1   C19 4110   4.496   0.862   7.408  0.2396 -0.2675 -0.5581
   56CHL1  H19A 4111   4.494   0.935   7.325 -1.4076 -0.3836 -0.6651
   56CHL1  H19B 4112   4.387   0.847   7.425  0.7801 -3.2726  0.9932
   56CHL1  H19C 4113   4.539   0.920   7.493 -1.6150  0.3783 -0.0006
   56CHL1    C1 4114   4.706   0.744   7.335  0.8464 -0.1117 -0.4728
   56CHL1   H1A 4115   4.751   0.817   7.407  0.2551 -1.2945  1.1573
   56CHL1   H1B 4116   4.770   0.655   7.355  1.6255  0.0878 -1.9453
   56CHL1    C2 4117   4.710   0.792   7.196 -0.1718  0.6572  0.5885
   56CHL1   H2A 4118   4.819   0.800   7.174 -0.1241 -1.3176 -0.1062
   56CHL1   H2B 4119   4.658   0.888   7.176 -0.8667  0.3378  0.8263
   56CHL1   C20 4120   4.542   0.540   8.084 -0.0380 -0.4070  0.3909
   56CHL1   H20 4121   4.634   0.599   8.071 -1.7646  2.1612 -0.9811
   56CHL1   C21 4122   4.575   0.396   8.149 -0.2113 -0.0600 -0.3424
   56CHL1  H21A 4123   4.656   0.351   8.087  1.6898  0.8856  1.3160
   56CHL1  H21B 4124   4.484   0.334   8.161  0.9077 -1.8557 -0.8389
   56CHL1  H21C 4125   4.613   0.416   8.252 -2.9475  0.9766  0.5668
   56CHL1   C22 4126   4.438   0.614   8.160  0.3696 -0.3091  0.0891
   56CHL1  H22A 4127   4.413   0.703   8.099 -1.1500 -1.2265 -0.6885
   56CHL1  H22B 4128   4.343   0.559   8.175 -0.5690  0.9418 -1.0751
   56CHL1   C23 4129   4.499   0.662   8.287 -0.7546 -0.2711 -0.0817
   56CHL1  H23A 4130   4.512   0.578   8.358 -0.1077  0.3659  0.5679
   56CHL1  H23B 4131   4.596   0.709   8.259 -0.7925 -0.3578 -0.3671
   56CHL1   C24 4132   4.413   0.775   8.341 -0.8360  0.4741 -0.5054
   56CHL1  H24A 4133   4.427   0.847   8.258  2.6826  0.3644 -0.1774
   56CHL1  H24B 4134   4.309   0.743   8.360  0.1055 -1.4550  2.0509
   56CHL1   C25 4135   4.471   0.824   8.476  0.8122 -0.3352 -0.4218
   56CHL1   H25 4136   4.580   0.839   8.463  0.3908  1.6266 -2.1206
   56CHL1   C26 4137   4.400   0.947   8.524 -0.7664  0.1369 -0.2686
   56CHL1  H26A 4138   4.308   0.928   8.584 -1.1786 -0.4035 -1.0397
   56CHL1  H26B 4139   4.383   1.014   8.437  2.3264  1.5818  0.0990
   56CHL1  H26C 4140   4.468   1.006   8.589 -1.3751  0.1077  0.3999
   56CHL1   C27 4141   4.447   0.711   8.582  0.1822 -0.2844 -0.0177
   56CHL1  H27A 4142   4.350   0.659   8.568 -0.9623  1.5540  0.7669
   56CHL1  H27B 4143   4.529   0.639   8.560 -0.7464 -1.6052  0.7659
   56CHL1  H27C 4144   4.455   0.743   8.688  2.0145  1.3157 -0.5728
   57SAPC     N 4145   4.571   5.630  11.218  0.1159  0.1890 -0.4885
   57SAPC   C12 4146   4.565   5.553  11.083  0.1427  0.1884 -0.4813
   57SAPC  H12A 4147   4.465   5.513  11.082 -0.0604  0.6593  0.2543
   57SAPC  H12B 4148   4.635   5.471  11.094 -0.6348 -0.5208 -0.7204
   57SAPC   C13 4149   4.519   5.549  11.326  0.0275  0.3875 -0.1527
   57SAPC  H13A 4150   4.419   5.510  11.312  0.7333 -1.1907 -1.0512
   57SAPC  H13B 4151   4.588   5.470  11.350 -0.6432  0.1990  1.2703
   57SAPC  H13C 4152   4.527   5.609  11.415  1.7256 -0.0459  0.0125
   57SAPC   C14 4153   4.708   5.672  11.248 -0.4709  0.3393 -0.1727
   57SAPC  H14A 4154   4.774   5.590  11.274 -0.5027  0.1934 -0.5421
   57SAPC  H14B 4155   4.756   5.713  11.160 -2.3757 -1.2978 -2.0832
   57SAPC  H14C 4156   4.720   5.742  11.329 -0.9577  0.2227  0.0036
   57SAPC   C15 4157   4.485   5.748  11.219  0.4924 -0.4076  0.2446
   57SAPC  H15A 4158   4.380   5.732  11.202  0.5163 -0.4153  0.0966
   57SAPC  H15B 4159   4.487   5.800  11.313 -3.0922 -0.0764  0.2519
   57SAPC  H15C 4160   4.522   5.813  11.141  1.0092 -2.7218 -1.5631
   57SAPC   C11 4161   4.588   5.630  10.950  0.0443  0.1986  0.1886
   57SAPC  H11A 4162   4.578   5.551  10.872 -1.3026 -0.9332  1.4263
   57SAPC  H11B 4163   4.693   5.664  10.937  0.3478  0.5946  3.0160
   57SAPC     P 4164   4.351   5.708  10.891 -0.1602  0.0038  0.4687
   57SAPC   O13 4165   4.288   5.625  10.992 -0.0109  0.7971  0.2015
   57SAPC   O14 4166   4.277   5.838  10.871  0.9162 -0.2282  0.3073
   57SAPC   O12 4167   4.495   5.740  10.934  0.1106  0.1948 -0.3135
   57SAPC   O11 4168   4.360   5.620  10.757  0.0485  0.5651  0.3552
   57SAPC    C1 4169   4.432   5.665  10.646 -0.9914  0.5793  0.7208
   57SAPC    HA 4170   4.537   5.694  10.666 -0.7075 -0.5488  0.9052
   57SAPC    HB 4171   4.434   5.580  10.575 -1.3180  0.9875  0.2061
   57SAPC    C2 4172   4.353   5.773  10.570 -0.2733 -0.3983 -0.4456
   57SAPC    HS 4173   4.328   5.859  10.636  0.9323 -0.8118  0.5827
   57SAPC   O21 4174   4.239   5.699  10.520 -0.2800 -0.3784  0.0905
   57SAPC   C21 4175   4.136   5.774  10.479  0.0031  0.1690 -0.4702
   57SAPC   O22 4176   4.112   5.888  10.506 -0.0876 -0.3258  0.4839
   57SAPC   C22 4177   4.035   5.689  10.400 -0.1311 -0.9110  0.2745
   57SAPC   H2R 4178   4.043   5.582  10.429  4.1069 -0.1153  2.7238
   57SAPC   H2S 4179   3.940   5.742  10.421  0.7767  0.8972  0.0524
   57SAPC    C3 4180   4.437   5.835  10.454 -0.3193 -0.4137  0.6451
   57SAPC    HX 4181   4.469   5.751  10.389 -0.9916 -0.3166  0.1858
   57SAPC    HY 4182   4.530   5.885  10.490 -0.5453  2.2471 -2.0798
   57SAPC   O31 4183   4.369   5.927  10.362 -0.3749  0.1741 -0.3924
   57SAPC   C31 4184   4.327   6.044  10.410  0.2661 -0.2695 -0.0959
   57SAPC   O32 4185   4.366   6.100  10.509 -0.3360  0.4129 -0.3454
   57SAPC   C32 4186   4.239   6.109  10.301  0.0935  0.0103 -0.2765
   57SAPC   H2X 4187   4.193   6.206  10.331  1.3279  1.0795 -1.6320
   57SAPC   H2Y 4188   4.158   6.034  10.289  0.8266 -0.8278 -0.1004
   57SAPC   C23 4189   4.075   5.704  10.247  0.0611 -0.0094 -0.4621
   57SAPC   H3R 4190   4.177   5.665  10.229 -0.9010 -1.2234 -4.3750
   57SAPC   H3S 4191   4.057   5.812  10.226  0.3689  0.1999  0.3308
   57SAPC   C24 4192   3.995   5.608  10.159  0.2144 -0.0980 -0.4451
   57SAPC   H4R 4193   4.032   5.504  10.173  0.0908 -0.1757 -0.6924
   57SAPC   H4S 4194   4.031   5.644  10.060  0.1421 -1.8288 -1.1291
   57SAPC   C25 4195   3.844   5.617  10.165 -0.0001 -0.3387  0.5308
   57SAPC   H5R 4196   3.797   5.595  10.262 -0.1098 -2.4696  0.0596
   57SAPC   C26 4197   3.767   5.649  10.060  0.4173 -0.3303  0.4538
   57SAPC   H6R 4198   3.659   5.630  10.067  0.2735  0.1332 -0.4124
   57SAPC   C27 4199   3.801   5.682   9.911  0.4717 -0.1608 -0.6289
   57SAPC   H7R 4200   3.757   5.593   9.860 -3.3516 -0.8790  3.3416
   57SAPC   H7S 4201   3.910   5.681   9.893  0.0581 -1.1548 -3.8369
   57SAPC   C28 4202   3.734   5.803   9.859  0.5113 -0.0320 -0.0388
   57SAPC   H8R 4203   3.684   5.863   9.936  1.1752  1.0900 -0.4579
   57SAPC   C29 4204   3.737   5.834   9.728  0.0471 -0.1520 -0.6907
   57SAPC   H9R 4205   3.710   5.936   9.700  3.2706  0.6048 -1.4404
   57SAPC  C210 4206   3.795   5.749   9.611  0.4128 -0.7174 -0.7031
   57SAPC  H10R 4207   3.739   5.786   9.522  0.8794  1.2720 -0.2255
   57SAPC  H10S 4208   3.771   5.642   9.624  1.2745 -0.8255  0.0152
   57SAPC  C211 4209   3.945   5.762   9.586 -0.1502  1.2232  0.2647
   57SAPC  H11R 4210   4.001   5.811   9.667 -2.6080  1.1227  2.1189
   57SAPC  C212 4211   4.009   5.733   9.472  0.5472  0.1193  0.3074
   57SAPC  H12R 4212   4.117   5.753   9.461  0.4776  1.0931  1.2514
   57SAPC  C213 4213   3.930   5.677   9.353  0.5439 -0.4088 -0.5780
   57SAPC  H13R 4214   3.951   5.742   9.265  0.4117 -1.3286 -1.3078
   57SAPC  H13S 4215   3.820   5.693   9.354  0.6479  0.3088 -0.1261
   57SAPC  C214 4216   3.953   5.531   9.333 -0.6787 -0.2512  0.6415
   57SAPC  H14R 4217   3.874   5.466   9.373 -0.4984 -0.2266  1.0450
   57SAPC  C215 4218   4.059   5.476   9.269 -0.2418 -0.0302 -0.5331
   57SAPC  H15R 4219   4.068   5.367   9.260  1.9757 -0.0153  0.8469
   57SAPC  C216 4220   4.159   5.559   9.205 -0.2012 -0.1435 -0.3139
   57SAPC  H16R 4221   4.252   5.498   9.195  0.7467  0.9497  1.3505
   57SAPC  H16S 4222   4.182   5.639   9.279 -1.2558  0.4899 -0.6582
   57SAPC  C217 4223   4.129   5.617   9.068 -0.8241 -0.1724 -0.0122
   57SAPC  H17R 4224   4.219   5.670   9.028 -0.8927  0.9252  1.2242
   57SAPC  H17S 4225   4.050   5.696   9.069  1.2244  2.0250 -0.6318
   57SAPC  C218 4226   4.089   5.513   8.967  0.4541  0.1154  0.8540
   57SAPC  H18R 4227   4.001   5.455   9.001 -0.6919  1.6207  0.5434
   57SAPC  H18S 4228   4.168   5.436   8.959  0.1565 -0.1939  0.8831
   57SAPC  C219 4229   4.055   5.570   8.827  0.1418 -0.1836 -0.0926
   57SAPC  H19R 4230   4.023   5.490   8.756 -0.9184 -1.0147  1.2782
   57SAPC  H19S 4231   4.146   5.615   8.781 -0.7567  0.5719 -1.2089
   57SAPC  C220 4232   3.951   5.682   8.812  0.7218  0.4476  0.0775
   57SAPC  H20R 4233   3.999   5.768   8.864 -0.7864  1.0281  0.5584
   57SAPC  H20S 4234   3.861   5.647   8.866  1.0918 -0.7608 -0.0485
   57SAPC  H20T 4235   3.929   5.709   8.707 -1.1442 -2.5620 -0.4261
   57SAPC   C33 4236   4.320   6.126  10.180 -0.6986  0.1740 -0.2296
   57SAPC   H3X 4237   4.395   6.049  10.153 -0.7721 -0.0436  0.1878
   57SAPC   H3Y 4238   4.380   6.217  10.204 -0.0977 -0.1860 -0.3326
   57SAPC   C34 4239   4.241   6.141  10.043 -0.0846  0.7939  0.2319
   57SAPC   H4X 4240   4.302   6.167   9.954  0.6050  0.4444  0.5901
   57SAPC   H4Y 4241   4.174   6.230  10.050 -0.0348  1.0136 -1.6785
   57SAPC   C35 4242   4.154   6.014  10.018 -0.5264  0.0263 -0.3807
   57SAPC   H5X 4243   4.088   6.039   9.932 -0.8506  2.2183  0.4495
   57SAPC   H5Y 4244   4.084   6.001  10.103 -1.2497 -0.0665 -0.9792
   57SAPC   C36 4245   4.235   5.878  10.004  0.0675  0.0340  0.3117
   57SAPC   H6X 4246   4.165   5.798   9.971  0.4991 -0.2213 -0.0005
   57SAPC   H6Y 4247   4.257   5.848  10.108 -2.7625 -1.3409  0.6158
   57SAPC   C37 4248   4.362   5.887   9.908  0.0897  0.0905  0.4808
   57SAPC   H7X 4249   4.386   5.780   9.895  0.7829  0.2970 -0.0002
   57SAPC   H7Y 4250   4.444   5.947   9.954 -0.6723 -0.1662  2.2629
   57SAPC   C38 4251   4.323   5.946   9.771 -0.3569  0.7362  0.7786
   57SAPC   H8X 4252   4.336   6.057   9.771 -1.7426  0.9358 -0.1025
   57SAPC   H8Y 4253   4.216   5.925   9.746  0.4078 -0.1692 -2.1872
   57SAPC   C39 4254   4.410   5.882   9.654 -0.1864 -0.2450  0.3923
   57SAPC   H9X 4255   4.386   5.775   9.664  1.4046 -0.5979  0.7473
   57SAPC   H9Y 4256   4.520   5.893   9.670  0.1499  0.7976 -2.1296
   57SAPC  C310 4257   4.358   5.919   9.521  0.6922 -0.8028 -0.4210
   57SAPC  H10X 4258   4.370   6.029   9.509  0.7119 -0.5178  1.7907
   57SAPC  H10Y 4259   4.249   5.905   9.512 -0.1829  3.3854  1.2206
   57SAPC  C311 4260   4.425   5.858   9.402  0.1570 -0.3832  0.1695
   57SAPC  H11X 4261   4.441   5.749   9.414 -1.7164 -0.5013  1.9341
   57SAPC  H11Y 4262   4.527   5.902   9.396 -0.1881  0.8727  2.5363
   57SAPC  C312 4263   4.361   5.880   9.266  0.3075  0.8116 -0.2249
   57SAPC  H12X 4264   4.253   5.853   9.275  0.3696  0.7984  0.5524
   57SAPC  H12Y 4265   4.398   5.814   9.184 -2.3959  1.0192 -1.7514
   57SAPC  C313 4266   4.361   6.026   9.214  0.1522  0.5254  0.0791
   57SAPC  H13X 4267   4.340   6.092   9.301  0.8295 -0.0611  0.6965
   57SAPC  H13Y 4268   4.275   6.036   9.144 -0.1223 -2.9047 -0.1965
   57SAPC  C314 4269   4.487   6.066   9.140  0.2730 -0.2477  0.1056
   57SAPC  H14X 4270   4.575   6.041   9.204 -0.5257 -2.7948  0.3316
   57SAPC  H14Y 4271   4.483   6.176   9.135 -1.7736 -0.1877  1.8321
   57SAPC  C315 4272   4.497   6.011   8.992  0.0992  0.5643 -1.1981
   57SAPC  H15X 4273   4.480   5.901   8.983 -2.1660  0.9209 -1.7273
   57SAPC  H15Y 4274   4.607   6.022   8.981  0.8758  0.3917  3.9957
   57SAPC  C316 4275   4.419   6.100   8.892 -0.8117  0.5996 -0.4302
   57SAPC  H16X 4276   4.472   6.198   8.897 -0.1762  0.1871  1.5054
   57SAPC  H16Y 4277   4.316   6.126   8.925 -0.5252  1.4608 -0.1855
   57SAPC  C317 4278   4.409   6.040   8.754  1.1295 -0.3519  0.5414
   57SAPC  H17X 4279   4.344   5.952   8.770  0.1817  0.7979  3.7523
   57SAPC  H17Y 4280   4.507   6.013   8.707  1.1720 -0.0946  0.4805
   57SAPC  C318 4281   4.331   6.143   8.666 -0.3111 -0.3477 -0.7125
   57SAPC  H18X 4282   4.290   6.095   8.574 -1.0416  1.5910 -1.4596
   57SAPC  H18Y 4283   4.388   6.233   8.637  0.8666 -1.6505 -2.7472
   57SAPC  H18Z 4284   4.244   6.182   8.724  1.1733  0.5506  1.0023
   58SAPC     N 4285   0.667   2.423  11.261  0.2700  0.1286 -0.3819
   58SAPC   C12 4286   0.608   2.360  11.146 -0.1043  0.5204 -0.1036
   58SAPC  H12A 4287   0.623   2.253  11.145 -2.1485  0.1809  0.8184
   58SAPC  H12B 4288   0.668   2.393  11.062  1.0469 -1.2428 -0.0330
   58SAPC   C13 4289   0.647   2.572  11.266  0.0411  0.6666 -0.1434
   58SAPC  H13A 4290   0.701   2.630  11.193 -2.4579 -0.7865 -3.4015
   58SAPC  H13B 4291   0.542   2.586  11.243  0.6784  1.8160 -2.7268
   58SAPC  H13C 4292   0.680   2.617  11.358 -2.7414  0.4395  1.0481
   58SAPC   C14 4293   0.587   2.365  11.386 -0.0869 -0.4649 -0.7531
   58SAPC  H14A 4294   0.598   2.258  11.392  0.1501 -0.4858 -1.4037
   58SAPC  H14B 4295   0.618   2.422  11.472 -2.4747  2.7205 -1.7915
   58SAPC  H14C 4296   0.480   2.379  11.386 -0.1733 -1.0632  0.4397
   58SAPC   C15 4297   0.812   2.393  11.284  0.1134 -0.6623 -0.5214
   58SAPC  H15A 4298   0.852   2.464  11.355 -1.1887  1.7811 -2.1032
   58SAPC  H15B 4299   0.826   2.290  11.315 -0.8285 -1.2432 -1.8960
   58SAPC  H15C 4300   0.876   2.392  11.197  0.4766 -0.8127 -0.2595
   58SAPC   C11 4301   0.453   2.371  11.108 -0.4089  0.1129  0.2460
   58SAPC  H11A 4302   0.400   2.324  11.193 -1.4363 -0.1754 -0.5268
   58SAPC  H11B 4303   0.428   2.318  11.014  1.7131  0.4629 -0.5681
   58SAPC     P 4304   0.412   2.588  10.960 -0.2559 -0.0733 -0.1781
   58SAPC   O13 4305   0.402   2.730  10.988 -0.2241 -0.4976  0.0134
   58SAPC   O14 4306   0.537   2.543  10.894  0.2859  0.2544  0.4296
   58SAPC   O12 4307   0.402   2.507  11.100  0.0772 -0.2451 -0.4400
   58SAPC   O11 4308   0.284   2.552  10.879 -0.2473  0.0095  0.1468
   58SAPC    C1 4309   0.161   2.558  10.952  0.2081 -0.6868 -0.1488
   58SAPC    HA 4310   0.154   2.463  11.008  0.4612 -0.0872  0.9191
   58SAPC    HB 4311   0.155   2.642  11.025  0.2954 -0.4490 -0.4138
   58SAPC    C2 4312   0.050   2.578  10.844  0.5246 -0.2432  1.0040
   58SAPC    HS 4313   0.023   2.482  10.794  0.3075 -0.5449  1.6829
   58SAPC   O21 4314   0.092   2.676  10.744 -0.1533 -0.4587  0.2839
   58SAPC   C21 4315   0.160   2.634  10.643  0.1102  0.0883 -0.1668
   58SAPC   O22 4316   0.159   2.515  10.605 -0.3404 -0.3593 -1.1714
   58SAPC   C22 4317   0.248   2.747  10.595  0.4378 -0.1292 -0.1431
   58SAPC   H2R 4318   0.297   2.786  10.687 -1.8636  1.2109  0.5767
   58SAPC   H2S 4319   0.322   2.697  10.529  0.2995 -1.0225  0.3624
   58SAPC    C3 4320  -0.087   2.627  10.908 -0.0538 -0.3245 -0.2431
   58SAPC    HX 4321  -0.070   2.721  10.966 -0.1736 -0.4206 -0.0517
   58SAPC    HY 4322  -0.129   2.553  10.980  1.9119 -0.4712  0.8539
   58SAPC   O31 4323  -0.174   2.650  10.793  0.4216  0.7005  0.1854
   58SAPC   C31 4324  -0.232   2.768  10.795  0.0809  0.0081 -0.2103
   58SAPC   O32 4325  -0.214   2.860  10.880 -0.1014  0.4197  0.2016
   58SAPC   C32 4326  -0.300   2.793  10.660 -0.1575  0.7801  0.3548
   58SAPC   H2X 4327  -0.398   2.741  10.653 -0.2385  1.0333 -0.5104
   58SAPC   H2Y 4328  -0.233   2.754  10.580 -2.5881 -4.1866  0.3678
   58SAPC   C23 4329   0.178   2.867  10.528  0.5041  0.3490  0.8666
   58SAPC   H3R 4330   0.238   2.961  10.529 -1.0743  1.3995  0.7351
   58SAPC   H3S 4331   0.079   2.902  10.565  0.7065  4.2686 -1.7077
   58SAPC   C24 4332   0.174   2.851  10.370 -0.3503  0.4196 -0.0635
   58SAPC   H4R 4333   0.276   2.862  10.327 -0.5713 -2.1659 -1.4204
   58SAPC   H4S 4334   0.121   2.936  10.324 -1.3942  1.0569  2.1605
   58SAPC   C25 4335   0.104   2.728  10.314 -0.2969  0.2567 -0.1816
   58SAPC   H5R 4336   0.156   2.631  10.316 -0.1763  0.3253  1.9976
   58SAPC   C26 4337  -0.025   2.725  10.276  0.2293  0.2256 -0.5109
   58SAPC   H6R 4338  -0.072   2.632  10.241 -1.5632  1.0059 -0.2584
   58SAPC   C27 4339  -0.112   2.848  10.287  0.3422  0.2367  0.3200
   58SAPC   H7R 4340  -0.058   2.918  10.220  2.1173  0.4786  1.8938
   58SAPC   H7S 4341  -0.106   2.888  10.391 -0.1113 -0.8240  0.7732
   58SAPC   C28 4342  -0.249   2.820  10.227 -0.4101  0.0056 -0.5770
   58SAPC   H8R 4343  -0.322   2.780  10.298 -0.4093  1.4566  0.2884
   58SAPC   C29 4344  -0.288   2.842  10.099  0.1145 -0.6336  0.6686
   58SAPC   H9R 4345  -0.396   2.834  10.081 -0.3460 -0.2178  2.8644
   58SAPC  C210 4346  -0.217   2.901   9.981  0.3473 -0.1651  0.2445
   58SAPC  H10R 4347  -0.191   3.007   9.999 -2.0932  0.6393 -0.5433
   58SAPC  H10S 4348  -0.291   2.900   9.898  0.4595 -0.4318  0.1433
   58SAPC  C211 4349  -0.093   2.818   9.935 -0.5052  0.3156  0.8551
   58SAPC  H11R 4350  -0.045   2.765  10.018  1.0044 -2.8057 -1.7761
   58SAPC  C212 4351  -0.029   2.819   9.817 -0.0841 -0.1227 -0.1053
   58SAPC  H12R 4352   0.063   2.759   9.813 -0.1282 -0.4608  2.3700
   58SAPC  C213 4353  -0.060   2.891   9.691  0.1048  1.1136 -0.1763
   58SAPC  H13R 4354   0.031   2.935   9.644 -0.3774  2.5204  0.1763
   58SAPC  H13S 4355  -0.138   2.967   9.711  1.2609  1.9032  1.5359
   58SAPC  C214 4356  -0.111   2.774   9.607  0.2420 -0.3212 -0.5381
   58SAPC  H14R 4357  -0.173   2.698   9.657 -0.4165  0.2939 -0.4120
   58SAPC  C215 4358  -0.093   2.764   9.473 -0.1248  0.6999 -0.8261
   58SAPC  H15R 4359  -0.129   2.675   9.420 -0.5750  0.7390 -0.5847
   58SAPC  C216 4360  -0.017   2.852   9.378  0.1558 -0.5420  0.2747
   58SAPC  H16R 4361   0.092   2.835   9.371  0.1295 -0.6687  0.1590
   58SAPC  H16S 4362  -0.033   2.955   9.417  0.0558 -0.3719 -0.2078
   58SAPC  C217 4363  -0.068   2.836   9.237 -0.0193 -0.3280  0.1274
   58SAPC  H17R 4364  -0.036   2.926   9.180 -1.8512  0.9201  0.9868
   58SAPC  H17S 4365  -0.179   2.834   9.237 -0.1296  2.3912 -0.4559
   58SAPC  C218 4366  -0.008   2.720   9.164 -0.4224  0.2715 -0.2603
   58SAPC  H18R 4367  -0.072   2.632   9.182 -0.1040 -0.3758 -2.0428
   58SAPC  H18S 4368   0.099   2.703   9.189 -0.7129 -2.6414 -0.6179
   58SAPC  C219 4369  -0.015   2.731   9.009 -0.1684  0.2854 -0.1543
   58SAPC  H19R 4370   0.072   2.796   8.984  0.7942 -0.3350  1.4616
   58SAPC  H19S 4371  -0.104   2.795   8.987 -0.6533  0.4424  2.0187
   58SAPC  C220 4372  -0.014   2.593   8.931 -0.4281  0.6257  0.1552
   58SAPC  H20R 4373  -0.086   2.516   8.966  1.0349 -0.7839  0.1378
   58SAPC  H20S 4374   0.080   2.538   8.952 -1.4156 -2.1515 -2.0542
   58SAPC  H20T 4375  -0.025   2.613   8.822 -0.1640  0.1910  0.0483
   58SAPC   C33 4376  -0.330   2.942  10.652 -0.0161 -0.4844  0.0555
   58SAPC   H3X 4377  -0.234   2.995  10.637  0.0630 -0.2102  1.3505
   58SAPC   H3Y 4378  -0.378   2.969  10.749 -3.3640 -0.4139 -1.4948
   58SAPC   C34 4379  -0.436   2.964  10.545  0.2686 -0.2250  0.5835
   58SAPC   H4X 4380  -0.523   2.898  10.567  0.1947  0.0534  1.1551
   58SAPC   H4Y 4381  -0.388   2.937  10.449 -0.4567 -0.1344  0.1906
   58SAPC   C35 4382  -0.483   3.111  10.550  0.3541  0.1089  0.1020
   58SAPC   H5X 4383  -0.405   3.187  10.570 -0.2339  0.7667 -0.0299
   58SAPC   H5Y 4384  -0.545   3.111  10.642 -0.2742 -1.3888 -0.2889
   58SAPC   C36 4385  -0.552   3.172  10.424 -0.0889 -0.6668 -0.2453
   58SAPC   H6X 4386  -0.539   3.282  10.431 -1.2354 -0.5492  0.2982
   58SAPC   H6Y 4387  -0.660   3.150  10.437  0.1214 -0.8232  1.5100
   58SAPC   C37 4388  -0.489   3.124  10.291  0.4695  0.1141 -0.6927
   58SAPC   H7X 4389  -0.510   3.018  10.265 -2.1496  0.3158  0.2828
   58SAPC   H7Y 4390  -0.380   3.141  10.295  0.4068  1.4079 -2.7295
   58SAPC   C38 4391  -0.532   3.211  10.172  0.0510  0.2092 -0.5514
   58SAPC   H8X 4392  -0.485   3.309  10.194  2.9264 -1.0203 -0.7444
   58SAPC   H8Y 4393  -0.642   3.225  10.164 -0.0707  1.6963  2.4923
   58SAPC   C39 4394  -0.496   3.164  10.029 -1.0066 -0.1330  0.4763
   58SAPC   H9X 4395  -0.535   3.062  10.008  1.1241 -0.6129 -1.4735
   58SAPC   H9Y 4396  -0.387   3.161  10.012 -0.8615  1.2844  1.0189
   58SAPC  C310 4397  -0.550   3.266   9.927  0.4661 -0.3915 -0.0401
   58SAPC  H10X 4398  -0.505   3.364   9.955  1.5491 -1.3289  1.6268
   58SAPC  H10Y 4399  -0.660   3.272   9.941  0.2915 -1.0982 -1.0434
   58SAPC  C311 4400  -0.502   3.255   9.780  0.0524  0.5378 -0.2479
   58SAPC  H11X 4401  -0.392   3.257   9.786 -0.0260  1.2093  2.2756
   58SAPC  H11Y 4402  -0.545   3.344   9.729  1.1636  1.2181 -0.0157
   58SAPC  C312 4403  -0.548   3.121   9.725 -0.0783 -0.2839 -0.4060
   58SAPC  H12X 4404  -0.654   3.137   9.696 -0.3506 -0.0921  0.6760
   58SAPC  H12Y 4405  -0.538   3.041   9.801 -4.3195 -0.2971  0.3411
   58SAPC  C313 4406  -0.459   3.089   9.599  0.2588 -1.3291 -0.4127
   58SAPC  H13X 4407  -0.501   2.993   9.562  0.3721 -0.8766 -1.7460
   58SAPC  H13Y 4408  -0.354   3.101   9.634 -0.2131  1.7817  0.2284
   58SAPC  C314 4409  -0.499   3.191   9.486  0.3168  0.1398 -0.1964
   58SAPC  H14X 4410  -0.481   3.296   9.518 -1.8423 -0.1084  2.1814
   58SAPC  H14Y 4411  -0.606   3.179   9.459 -0.9178  2.4682  3.0454
   58SAPC  C315 4412  -0.414   3.163   9.359 -0.3120  0.0941  0.0082
   58SAPC  H15X 4413  -0.447   3.223   9.271 -2.7595 -2.9610 -1.3235
   58SAPC  H15Y 4414  -0.432   3.058   9.328  0.0296  0.3272 -1.0214
   58SAPC  C316 4415  -0.261   3.177   9.382 -0.1556 -0.1454  0.1975
   58SAPC  H16X 4416  -0.231   3.087   9.440 -2.6639 -0.4425  1.1646
   58SAPC  H16Y 4417  -0.243   3.274   9.432 -0.5320  0.0625 -0.0690
   58SAPC  C317 4418  -0.175   3.167   9.252  0.2454  0.1594  0.1094
   58SAPC  H17X 4419  -0.212   3.087   9.185 -0.2250  1.7017 -1.5360
   58SAPC  H17Y 4420  -0.071   3.151   9.288  0.6298  0.5967 -0.7873
   58SAPC  C318 4421  -0.190   3.301   9.180 -0.0105 -0.1611  0.1978
   58SAPC  H18X 4422  -0.202   3.391   9.244  0.4184 -1.1777  1.7479
   58SAPC  H18Y 4423  -0.262   3.287   9.096  0.9080 -1.4636 -0.3984
   58SAPC  H18Z 4424  -0.094   3.317   9.126 -1.0658 -0.7688 -1.9666
   59SAPC     N 4425   1.645   3.872  11.715  0.3719  0.3908  0.5470
   59SAPC   C12 4426   1.646   3.974  11.594  0.4611 -0.2588 -0.3699
   59SAPC  H12A 4427   1.736   4.033  11.603 -0.4017  0.9047  0.9789
   59SAPC  H12B 4428   1.563   4.042  11.605 -0.0031 -0.3933 -2.6632
   59SAPC   C13 4429   1.523   3.793  11.734  0.1803 -0.3994  0.2104
   59SAPC  H13A 4430   1.442   3.863  11.747  0.6595  0.2530 -0.2480
   59SAPC  H13B 4431   1.503   3.727  11.651 -0.4898 -0.1725  0.1857
   59SAPC  H13C 4432   1.522   3.737  11.827  0.0260 -1.6729 -0.5311
   59SAPC   C14 4433   1.754   3.773  11.691  0.8224  0.8228  0.5098
   59SAPC  H14A 4434   1.851   3.820  11.695  0.3967  2.3070 -3.0244
   59SAPC  H14B 4435   1.753   3.687  11.758 -0.8075  0.1161 -0.3680
   59SAPC  H14C 4436   1.756   3.744  11.587 -0.9325  0.7627  0.4618
   59SAPC   C15 4437   1.659   3.941  11.845 -0.1475  0.8350  0.1593
   59SAPC  H15A 4438   1.665   3.868  11.924 -2.7337  2.4212  1.9790
   59SAPC  H15B 4439   1.753   3.994  11.840 -0.3065  1.0621 -0.6144
   59SAPC  H15C 4440   1.576   4.006  11.868 -0.0165  0.0549  3.2063
   59SAPC   C11 4441   1.652   3.912  11.455 -0.2439 -0.4718  0.0945
   59SAPC  H11A 4442   1.597   3.975  11.381  3.7186  1.3202 -1.6610
   59SAPC  H11B 4443   1.591   3.820  11.462 -1.2591  0.1677 -0.0726
   59SAPC     P 4444   1.790   3.791  11.278  0.2965  0.0106 -0.0908
   59SAPC   O13 4445   1.914   3.715  11.269  0.1895  0.0212 -0.0725
   59SAPC   O14 4446   1.671   3.712  11.241  0.1217 -0.1566 -0.4970
   59SAPC   O12 4447   1.788   3.885  11.406 -0.0300 -0.5350 -0.3074
   59SAPC   O11 4448   1.798   3.915  11.173 -0.4683 -0.2366 -0.5324
   59SAPC    C1 4449   1.697   3.952  11.090 -0.6987 -0.0332  0.6654
   59SAPC    HA 4450   1.630   3.865  11.072  2.1757 -2.0296 -1.0878
   59SAPC    HB 4451   1.630   4.027  11.139  0.4621  0.3860  1.6566
   59SAPC    C2 4452   1.751   4.007  10.954 -0.7022  0.4906 -0.1205
   59SAPC    HS 4453   1.664   4.068  10.922 -1.6380 -0.5334  0.3936
   59SAPC   O21 4454   1.793   3.903  10.861  0.4558 -0.0816 -0.2145
   59SAPC   C21 4455   1.689   3.855  10.787 -0.6113 -0.3223  0.2640
   59SAPC   O22 4456   1.570   3.869  10.809 -0.0540  0.5389 -0.0789
   59SAPC   C22 4457   1.751   3.784  10.671  0.5146 -0.4586 -0.0242
   59SAPC   H2R 4458   1.844   3.837  10.640 -0.2879  0.1824 -1.4260
   59SAPC   H2S 4459   1.772   3.683  10.712 -0.6146 -0.2186  1.2100
   59SAPC    C3 4460   1.870   4.105  10.983 -0.2054 -0.4189 -0.5328
   59SAPC    HX 4461   1.961   4.070  11.035 -0.2067 -0.1370 -0.3365
   59SAPC    HY 4462   1.833   4.187  11.048  0.1024  0.6167 -1.6170
   59SAPC   O31 4463   1.899   4.171  10.855 -0.7525 -0.2037 -0.2487
   59SAPC   C31 4464   2.023   4.201  10.825 -0.1944  0.1006 -0.2651
   59SAPC   O32 4465   2.114   4.190  10.909 -0.5470 -0.1385  0.3011
   59SAPC   C32 4466   2.034   4.241  10.683 -0.4975 -0.5210  0.0696
   59SAPC   H2X 4467   2.142   4.236  10.657 -0.3001  2.0607  0.1168
   59SAPC   H2Y 4468   2.007   4.349  10.675  3.6075  0.5249 -2.1957
   59SAPC   C23 4469   1.645   3.779  10.551  0.2534 -0.3483  0.2863
   59SAPC   H3R 4470   1.648   3.878  10.501  1.2261 -0.0828  0.8497
   59SAPC   H3S 4471   1.540   3.754  10.579  0.1293  0.3010  0.4372
   59SAPC   C24 4472   1.688   3.670  10.452 -0.0160 -0.3206  0.5820
   59SAPC   H4R 4473   1.604   3.647  10.383  0.1229 -1.4999  0.7812
   59SAPC   H4S 4474   1.708   3.576  10.509 -2.0918 -1.2439 -0.0851
   59SAPC   C25 4475   1.812   3.705  10.367 -0.0223  1.2857 -0.3759
   59SAPC   H5R 4476   1.899   3.698  10.434 -0.0873  0.1728 -0.3793
   59SAPC   C26 4477   1.823   3.739  10.240  0.3220 -0.2958 -0.4019
   59SAPC   H6R 4478   1.924   3.749  10.197 -0.0059  0.7626 -0.9664
   59SAPC   C27 4479   1.710   3.769  10.149 -0.2068 -0.3338 -0.2671
   59SAPC   H7R 4480   1.735   3.858  10.087  1.8977 -1.1624 -0.6784
   59SAPC   H7S 4481   1.620   3.804  10.204 -1.5218 -0.4934 -2.1987
   59SAPC   C28 4482   1.685   3.636  10.083  0.5047  0.1370  0.2438
   59SAPC   H8R 4483   1.636   3.554  10.138  1.7466  0.2665  1.6067
   59SAPC   C29 4484   1.712   3.611   9.949 -0.2506  0.2494  0.0283
   59SAPC   H9R 4485   1.673   3.516   9.910  2.7309 -1.0379 -0.0537
   59SAPC  C210 4486   1.787   3.701   9.857  0.4605 -0.4638 -0.0617
   59SAPC  H10R 4487   1.847   3.774   9.915 -0.4335  0.2055  0.0547
   59SAPC  H10S 4488   1.716   3.772   9.808 -0.1476 -1.7846 -1.1776
   59SAPC  C211 4489   1.875   3.621   9.764 -0.1814 -0.1063  0.5123
   59SAPC  H11R 4490   1.959   3.565   9.808  2.0915  1.4508 -1.6144
   59SAPC  C212 4491   1.845   3.596   9.639  0.5860 -0.3707  0.6026
   59SAPC  H12R 4492   1.908   3.521   9.589  0.6126 -0.4611  0.7708
   59SAPC  C213 4493   1.726   3.647   9.562 -0.0637 -0.2424 -0.5126
   59SAPC  H13R 4494   1.642   3.661   9.633  1.0282  1.1827  0.5576
   59SAPC  H13S 4495   1.685   3.576   9.486 -2.2637  0.6565 -0.2249
   59SAPC  C214 4496   1.746   3.786   9.505 -0.4671 -0.5162  0.3147
   59SAPC  H14R 4497   1.687   3.860   9.561 -0.9086 -1.4762  1.1355
   59SAPC  C215 4498   1.820   3.826   9.401 -0.3487  0.1579  0.8445
   59SAPC  H15R 4499   1.833   3.930   9.369  2.8026 -0.7665 -1.4566
   59SAPC  C216 4500   1.908   3.737   9.308  0.1694  0.3870 -0.7301
   59SAPC  H16R 4501   1.856   3.641   9.287 -1.6353  0.8584  1.2546
   59SAPC  H16S 4502   2.002   3.714   9.364  0.3485  2.5076 -0.0588
   59SAPC  C217 4503   1.936   3.800   9.170  0.4048  0.0477 -0.2840
   59SAPC  H17R 4504   1.960   3.908   9.186 -0.0575  0.2187 -0.7110
   59SAPC  H17S 4505   1.841   3.807   9.113 -0.5579  0.0037  1.2482
   59SAPC  C218 4506   2.053   3.734   9.089  0.3677  0.1082  0.1466
   59SAPC  H18R 4507   2.032   3.625   9.082 -1.1116  0.1358  2.5909
   59SAPC  H18S 4508   2.144   3.744   9.152  1.8419 -1.0904 -1.7060
   59SAPC  C219 4509   2.073   3.812   8.960 -0.1948 -0.0506 -0.0926
   59SAPC  H19R 4510   2.080   3.918   8.992 -1.4254  0.2632 -0.7779
   59SAPC  H19S 4511   1.977   3.800   8.904 -0.4262 -1.4521  0.5496
   59SAPC  C220 4512   2.197   3.764   8.881 -0.1613 -0.0988 -0.4377
   59SAPC  H20R 4513   2.227   3.840   8.807  3.8956 -1.5982 -0.5933
   59SAPC  H20S 4514   2.186   3.658   8.848 -0.3844 -0.1862 -0.0942
   59SAPC  H20T 4515   2.280   3.756   8.955 -0.1876  2.8813  0.0123
   59SAPC   C33 4516   1.948   4.148  10.586  0.1455  0.8803  0.7232
   59SAPC   H3X 4517   1.842   4.169  10.609 -0.3378  1.0680 -1.4735
   59SAPC   H3Y 4518   1.973   4.041  10.605 -0.9957  0.5556  0.4248
   59SAPC   C34 4519   1.956   4.189  10.435 -0.5779 -0.4185 -0.6744
   59SAPC   H4X 4520   2.059   4.164  10.403  1.0146  1.7089  2.2948
   59SAPC   H4Y 4521   1.952   4.300  10.429  0.5901 -0.4090 -1.6307
   59SAPC   C35 4522   1.833   4.143  10.354  0.5302 -0.0561  0.3368
   59SAPC   H5X 4523   1.745   4.188  10.405 -0.8348 -1.7238 -0.4223
   59SAPC   H5Y 4524   1.819   4.033  10.353 -1.4186  0.1389  1.3980
   59SAPC   C36 4525   1.842   4.199  10.211 -0.6247 -0.3089 -0.2212
   59SAPC   H6X 4526   1.858   4.309  10.205  2.1525 -0.7039 -1.5993
   59SAPC   H6Y 4527   1.746   4.176  10.160 -1.3331  1.3100  0.2965
   59SAPC   C37 4528   1.954   4.126  10.128  0.5989 -0.2170 -0.0469
   59SAPC   H7X 4529   1.948   4.017  10.147 -1.2456 -0.2169 -0.3805
   59SAPC   H7Y 4530   2.045   4.147  10.187  1.7348  0.4703 -1.9502
   59SAPC   C38 4531   1.955   4.166   9.978  0.5038 -1.2184  0.2994
   59SAPC   H8X 4532   2.034   4.112   9.923 -0.1354 -1.0090 -0.8530
   59SAPC   H8Y 4533   1.979   4.274   9.967  1.1883 -1.5028 -1.1549
   59SAPC   C39 4534   1.824   4.132   9.910  0.1643  0.2222  0.4167
   59SAPC   H9X 4535   1.753   4.212   9.940 -1.1150 -0.5725 -0.4367
   59SAPC   H9Y 4536   1.771   4.045   9.954  0.2707  0.0808  0.2669
   59SAPC  C310 4537   1.832   4.103   9.765  0.4429 -0.7168  0.6767
   59SAPC  H10X 4538   1.732   4.106   9.715  0.1666 -1.8276  1.1396
   59SAPC  H10Y 4539   1.866   3.999   9.747  1.5279 -0.0789 -1.2319
   59SAPC  C311 4540   1.913   4.212   9.687 -0.3599  0.3714  0.5601
   59SAPC  H11X 4541   2.023   4.214   9.704 -0.3670  0.7409  0.5534
   59SAPC  H11Y 4542   1.872   4.309   9.720  1.1428  1.4116 -0.5031
   59SAPC  C312 4543   1.880   4.192   9.536 -0.4568  0.6143  0.1393
   59SAPC  H12X 4544   1.771   4.199   9.516 -0.2816  2.0831 -0.3710
   59SAPC  H12Y 4545   1.916   4.092   9.502 -0.4069  0.7247 -0.1322
   59SAPC  C313 4546   1.951   4.295   9.449  0.5219  0.1812 -0.4479
   59SAPC  H13X 4547   1.936   4.399   9.486 -1.6676 -0.2642  0.0486
   59SAPC  H13Y 4548   1.897   4.298   9.352  0.6871  2.5619 -0.5249
   59SAPC  C314 4549   2.099   4.251   9.438  0.0701  0.0638  0.3884
   59SAPC  H14X 4550   2.114   4.145   9.408  2.8633  1.1309 -2.5894
   59SAPC  H14Y 4551   2.149   4.264   9.536 -0.5419 -0.2295  0.7454
   59SAPC  C315 4552   2.186   4.322   9.325 -0.3688 -0.8084 -0.1186
   59SAPC  H15X 4553   2.293   4.306   9.351 -0.3447 -0.4610 -0.0040
   59SAPC  H15Y 4554   2.156   4.428   9.341  0.8401 -0.0023 -2.5381
   59SAPC  C316 4555   2.143   4.290   9.182  0.1221  0.1124  0.2540
   59SAPC  H16X 4556   2.038   4.324   9.166 -0.7057 -1.7637  1.3905
   59SAPC  H16Y 4557   2.146   4.179   9.173  2.2158  0.1463  0.0677
   59SAPC  C317 4558   2.249   4.342   9.089 -0.0433 -0.2624 -0.3031
   59SAPC  H17X 4559   2.300   4.252   9.048 -2.4831 -0.4594 -3.2466
   59SAPC  H17Y 4560   2.325   4.410   9.133 -1.4940  0.2978  1.4152
   59SAPC  C318 4561   2.188   4.425   8.975  0.4727 -0.2786  0.1915
   59SAPC  H18X 4562   2.264   4.448   8.897 -0.0395  3.6198  0.6094
   59SAPC  H18Y 4563   2.137   4.514   9.017 -1.2789 -1.6912  1.2029
   59SAPC  H18Z 4564   2.107   4.364   8.930 -1.5045  0.4326  2.5622
   60SAPC     N 4565   3.188   2.292  11.035 -0.0601  0.3278  0.3259
   60SAPC   C12 4566   3.073   2.339  10.943 -0.0214 -0.0079 -0.6346
   60SAPC  H12A 4567   3.113   2.380  10.851 -0.5543  0.5426 -0.6195
   60SAPC  H12B 4568   3.026   2.423  10.992  2.0570 -0.1179  1.7788
   60SAPC   C13 4569   3.268   2.183  10.959  0.2537  1.1693  0.2575
   60SAPC  H13A 4570   3.198   2.101  10.945 -0.3553  1.5394  1.0799
   60SAPC  H13B 4571   3.293   2.220  10.860  1.3101 -0.6474 -0.1909
   60SAPC  H13C 4572   3.361   2.156  11.005  1.7740  1.4973 -2.4211
   60SAPC   C14 4573   3.281   2.406  11.064  0.1947  0.6785  0.2520
   60SAPC  H14A 4574   3.305   2.399  11.169  0.3458  0.1865  0.1879
   60SAPC  H14B 4575   3.375   2.395  11.013 -0.9473  1.3358 -2.1607
   60SAPC  H14C 4576   3.255   2.507  11.037  1.3306  1.5011  2.0261
   60SAPC   C15 4577   3.133   2.235  11.164 -0.5420 -0.0047 -0.2659
   60SAPC  H15A 4578   3.087   2.314  11.221 -0.8573  0.0877 -0.6404
   60SAPC  H15B 4579   3.057   2.162  11.139 -0.8166  0.8029 -1.9648
   60SAPC  H15C 4580   3.210   2.188  11.223 -0.7933  0.8102  0.7286
   60SAPC   C11 4581   2.963   2.239  10.912 -0.3936  0.2228 -0.0837
   60SAPC  H11A 4582   3.008   2.160  10.847 -1.1936  0.8333 -1.4249
   60SAPC  H11B 4583   2.899   2.287  10.834 -1.9960 -2.3899 -0.5072
   60SAPC     P 4584   2.760   2.100  11.001 -0.1954  0.2869  0.2251
   60SAPC   O13 4585   2.802   1.966  10.954  0.2609  0.1658  0.0545
   60SAPC   O14 4586   2.681   2.098  11.126 -0.3543  0.3625 -0.0916
   60SAPC   O12 4587   2.888   2.188  11.025  0.0172  0.0605  0.8210
   60SAPC   O11 4588   2.675   2.188  10.901  0.1939 -0.3255  0.0389
   60SAPC    C1 4589   2.574   2.129  10.814  0.7441  0.3045  0.3971
   60SAPC    HA 4590   2.512   2.050  10.861  1.0804 -0.2470 -0.0774
   60SAPC    HB 4591   2.497   2.207  10.791  0.6732  0.4181  1.0080
   60SAPC    C2 4592   2.632   2.099  10.670 -0.2902  0.2702  0.3126
   60SAPC    HS 4593   2.714   2.026  10.687 -0.7024 -0.2767 -0.0377
   60SAPC   O21 4594   2.695   2.219  10.623  0.0247 -0.0667  0.7984
   60SAPC   C21 4595   2.767   2.212  10.513  0.1399 -0.2654  0.1662
   60SAPC   O22 4596   2.829   2.112  10.480  0.6344  0.1841 -0.2531
   60SAPC   C22 4597   2.780   2.358  10.463  0.1906 -0.3383 -0.2276
   60SAPC   H2R 4598   2.686   2.406  10.429  0.3179  0.6219  0.7314
   60SAPC   H2S 4599   2.804   2.423  10.549 -2.8848 -2.8973  2.8628
   60SAPC    C3 4600   2.519   2.028  10.575  0.5323 -0.0748 -0.1749
   60SAPC    HX 4601   2.431   2.096  10.571  0.7735  0.2019 -0.8122
   60SAPC    HY 4602   2.482   1.936  10.626  0.4052  0.1915  0.2195
   60SAPC   O31 4603   2.562   2.015  10.440  0.3270  0.1588 -0.3745
   60SAPC   C31 4604   2.639   1.904  10.431  0.0034 -0.0158 -0.0297
   60SAPC   O32 4605   2.674   1.833  10.525  0.2681 -0.0833  0.2202
   60SAPC   C32 4606   2.680   1.878  10.284 -0.5658  0.1231 -0.1173
   60SAPC   H2X 4607   2.694   1.768  10.279 -1.0982  0.0501 -0.0907
   60SAPC   H2Y 4608   2.776   1.934  10.286 -2.0216  2.7890  0.9140
   60SAPC   C23 4609   2.885   2.369  10.346  0.4748  0.7028 -0.2877
   60SAPC   H3R 4610   2.984   2.324  10.369 -0.1878 -1.3695 -1.2942
   60SAPC   H3S 4611   2.896   2.479  10.329  1.5222  0.0523 -5.0218
   60SAPC   C24 4612   2.824   2.314  10.211  0.8785  0.1502  0.0245
   60SAPC   H4R 4613   2.742   2.383  10.183 -0.6422 -1.0175  1.4479
   60SAPC   H4S 4614   2.794   2.211  10.237 -0.1538  1.2507  3.8249
   60SAPC   C25 4615   2.935   2.313  10.114 -0.0608  0.3584  0.6617
   60SAPC   H5R 4616   3.018   2.244  10.134  0.4436  0.1814 -1.7291
   60SAPC   C26 4617   2.947   2.375   9.994 -0.0261 -0.8102 -0.3919
   60SAPC   H6R 4618   3.037   2.353   9.935  0.3275 -0.7530  0.1259
   60SAPC   C27 4619   2.851   2.472   9.929 -0.0309 -0.3304  0.8361
   60SAPC   H7R 4620   2.902   2.558   9.881 -0.9991 -0.3449 -0.2506
   60SAPC   H7S 4621   2.788   2.518  10.008 -0.8552  1.2612 -0.6982
   60SAPC   C28 4622   2.747   2.419   9.831 -0.3060 -0.3263  0.0945
   60SAPC   H8R 4623   2.652   2.396   9.881 -0.7490  0.8482 -0.1662
   60SAPC   C29 4624   2.752   2.400   9.697  0.3424  0.0309  0.4413
   60SAPC   H9R 4625   2.656   2.369   9.655 -0.1040 -0.5286  1.8361
   60SAPC  C210 4626   2.864   2.416   9.592 -0.1502  0.1639 -0.0624
   60SAPC  H10R 4627   2.955   2.470   9.624 -1.2599  2.1417 -0.0673
   60SAPC  H10S 4628   2.825   2.480   9.510  1.7719 -0.3576 -1.4374
   60SAPC  C211 4629   2.911   2.285   9.546 -0.0494 -0.5777 -0.3409
   60SAPC  H11R 4630   2.992   2.237   9.602  0.5161  0.5678 -0.1519
   60SAPC  C212 4631   2.865   2.225   9.438 -0.4601 -0.0331 -0.3404
   60SAPC  H12R 4632   2.900   2.123   9.417  0.3074 -0.0034  0.7151
   60SAPC  C213 4633   2.757   2.275   9.343  0.3395  0.4880 -0.3059
   60SAPC  H13R 4634   2.706   2.369   9.372  0.9373  0.4286  1.0177
   60SAPC  H13S 4635   2.677   2.199   9.336  0.0744  0.6992  0.3452
   60SAPC  C214 4636   2.823   2.320   9.218  0.0105 -0.7695 -0.4087
   60SAPC  H14R 4637   2.922   2.362   9.238 -0.4681 -0.7715  2.3998
   60SAPC  C215 4638   2.779   2.303   9.095  0.0122  0.0322 -0.5448
   60SAPC  H15R 4639   2.844   2.337   9.012  1.5390 -1.2856  0.0524
   60SAPC  C216 4640   2.655   2.238   9.035 -0.2139 -0.6562 -0.1274
   60SAPC  H16R 4641   2.616   2.301   8.952 -0.2245 -0.7674 -0.2074
   60SAPC  H16S 4642   2.582   2.224   9.117  1.3719  1.2104  1.7524
   60SAPC  C217 4643   2.693   2.102   8.984 -0.2316  0.2359  0.0758
   60SAPC  H17R 4644   2.596   2.050   8.968 -2.2524  3.5834  0.4221
   60SAPC  H17S 4645   2.764   2.047   9.050  1.7230 -0.1172 -2.2211
   60SAPC  C218 4646   2.763   2.104   8.846 -0.1482 -0.1725 -0.0472
   60SAPC  H18R 4647   2.858   2.160   8.856 -0.1448 -0.0004 -1.0009
   60SAPC  H18S 4648   2.698   2.163   8.778 -2.4347 -1.3657  0.9466
   60SAPC  C219 4649   2.779   1.969   8.780  0.1397  0.8395 -0.4624
   60SAPC  H19R 4650   2.819   1.990   8.678  2.3354 -3.4002 -0.7234
   60SAPC  H19S 4651   2.676   1.934   8.759  0.7054 -1.1454 -0.1230
   60SAPC  C220 4652   2.866   1.876   8.861  0.1171  0.1678  0.3862
   60SAPC  H20R 4653   2.882   1.782   8.805  3.2841  1.9903 -2.1017
   60SAPC  H20S 4654   2.842   1.851   8.967  0.0057 -1.6945 -0.0417
   60SAPC  H20T 4655   2.969   1.917   8.869 -0.3579  1.0863  2.4134
   60SAPC   C33 4656   2.596   1.934  10.175 -0.1724  0.4549  0.2845
   60SAPC   H3X 4657   2.574   2.042  10.192  1.9899  0.6440  2.3957
   60SAPC   H3Y 4658   2.500   1.879  10.164  0.2004 -0.5324  1.6965
   60SAPC   C34 4659   2.666   1.935  10.036  0.3218 -0.2902  0.1788
   60SAPC   H4X 4660   2.722   1.839  10.029  2.0959  0.7193  0.0025
   60SAPC   H4Y 4661   2.750   2.007  10.035  0.6067 -0.6220 -0.4100
   60SAPC   C35 4662   2.573   1.924   9.910  0.1923  0.1368  0.2665
   60SAPC   H5X 4663   2.507   2.012   9.922  0.1229 -0.0465  1.3136
   60SAPC   H5Y 4664   2.501   1.841   9.923  1.2741 -1.0290 -0.8096
   60SAPC   C36 4665   2.656   1.919   9.784 -1.0572  0.0020  0.5407
   60SAPC   H6X 4666   2.720   1.828   9.788 -0.5076  0.2394 -1.4072
   60SAPC   H6Y 4667   2.717   2.012   9.775  0.6493 -1.1790 -1.1023
   60SAPC   C37 4668   2.561   1.893   9.662  1.2989  0.5879  0.2720
   60SAPC   H7X 4669   2.476   1.964   9.655 -0.2504 -1.2667 -1.3955
   60SAPC   H7Y 4670   2.515   1.792   9.676  1.1483  0.6132 -0.0274
   60SAPC   C38 4671   2.632   1.882   9.522 -0.1827  0.2519  1.1031
   60SAPC   H8X 4672   2.696   1.792   9.529 -1.3851 -0.5635  2.2140
   60SAPC   H8Y 4673   2.697   1.970   9.506  0.8140 -0.3898  1.5145
   60SAPC   C39 4674   2.524   1.860   9.416  0.2803  0.4825  0.5828
   60SAPC   H9X 4675   2.453   1.945   9.419  0.6881  0.8201  0.8425
   60SAPC   H9Y 4676   2.469   1.765   9.427  1.0739  0.1544  1.7961
   60SAPC  C310 4677   2.594   1.875   9.276  0.2005  0.4002  1.0045
   60SAPC  H10X 4678   2.654   1.781   9.274 -0.1461  0.1201  2.6548
   60SAPC  H10Y 4679   2.654   1.968   9.268 -0.7920  0.9541 -0.3988
   60SAPC  C311 4680   2.503   1.858   9.159  1.0155  0.6300  0.6288
   60SAPC  H11X 4681   2.454   1.760   9.176  2.0848 -0.4832 -2.1062
   60SAPC  H11Y 4682   2.557   1.847   9.062  1.1187  0.6859  0.6806
   60SAPC  C312 4683   2.389   1.961   9.145 -0.6745 -0.5220  0.3078
   60SAPC  H12X 4684   2.427   2.058   9.106  0.8118 -1.5044 -0.8059
   60SAPC  H12Y 4685   2.344   1.962   9.247  1.6182  1.4876  1.4017
   60SAPC  C313 4686   2.284   1.933   9.033  0.4348  0.3639 -1.0673
   60SAPC  H13X 4687   2.194   1.996   9.053 -1.0723 -1.7827 -0.8030
   60SAPC  H13Y 4688   2.256   1.826   9.042 -1.1078  0.8143 -0.1509
   60SAPC  C314 4689   2.331   1.944   8.883 -0.0920 -0.1738 -0.1990
   60SAPC  H14X 4690   2.425   1.889   8.863  1.4717  2.4835 -0.5862
   60SAPC  H14Y 4691   2.340   2.052   8.857  0.1492 -0.4783 -1.4513
   60SAPC  C315 4692   2.235   1.882   8.791  0.3521 -0.1990  0.0195
   60SAPC  H15X 4693   2.222   1.772   8.796 -3.6728  0.0965 -0.1729
   60SAPC  H15Y 4694   2.286   1.897   8.694  0.8459 -1.9930 -0.0336
   60SAPC  C316 4695   2.101   1.960   8.806  0.0663 -0.3674  0.8156
   60SAPC  H16X 4696   2.119   2.070   8.798  0.9662 -0.4889  1.0455
   60SAPC  H16Y 4697   2.049   1.940   8.902  2.5713 -1.4468  2.0378
   60SAPC  C317 4698   1.995   1.937   8.696  0.0573 -0.0991  0.3290
   60SAPC  H17X 4699   1.951   1.835   8.700 -1.2556  0.4717  1.1453
   60SAPC  H17Y 4700   2.055   1.948   8.603  1.5325  2.1229  1.4803
   60SAPC  C318 4701   1.872   2.037   8.707 -0.1326 -0.0359 -0.2622
   60SAPC  H18X 4702   1.815   2.045   8.612 -0.2108 -0.8122 -0.2845
   60SAPC  H18Y 4703   1.912   2.141   8.716 -4.3561  1.8513 -1.1459
   60SAPC  H18Z 4704   1.808   2.003   8.790  1.0692 -0.2425  0.6124
   61SAPC     N 4705   3.503   5.902  10.891  0.1448  0.0734 -0.0467
   61SAPC   C12 4706   3.352   5.887  10.885  0.6217  0.3533  0.4094
   61SAPC  H12A 4707   3.308   5.923  10.976  0.1927  0.3014  0.2210
   61SAPC  H12B 4708   3.328   5.782  10.880 -0.3035  0.5856 -0.2286
   61SAPC   C13 4709   3.551   5.862  11.030 -0.5339 -0.0698  0.3049
   61SAPC  H13A 4710   3.496   5.915  11.106  0.9058  3.0298 -0.6705
   61SAPC  H13B 4711   3.532   5.759  11.056 -1.5800  0.2246  0.7719
   61SAPC  H13C 4712   3.658   5.880  11.038 -0.9279  3.6611 -0.9616
   61SAPC   C14 4713   3.574   5.812  10.792  0.4753 -0.0989  1.2711
   61SAPC  H14A 4714   3.558   5.866  10.699 -1.5655  0.4526  1.8797
   61SAPC  H14B 4715   3.679   5.807  10.816  0.6665  0.9091  0.7279
   61SAPC  H14C 4716   3.526   5.715  10.792 -2.1192  1.0846  1.8526
   61SAPC   C15 4717   3.553   6.041  10.869 -0.2213  0.2264  0.2490
   61SAPC  H15A 4718   3.517   6.087  10.778  1.8995  0.9352 -0.2787
   61SAPC  H15B 4719   3.505   6.102  10.945 -1.3214  1.2629 -1.2159
   61SAPC  H15C 4720   3.660   6.045  10.880 -0.0248 -1.3983 -0.7732
   61SAPC   C11 4721   3.278   5.956  10.768 -0.2221 -1.1972 -0.3982
   61SAPC  H11A 4722   3.175   5.917  10.757 -2.3081  3.5307  0.0354
   61SAPC  H11B 4723   3.329   5.944  10.670  0.7940 -0.4961  0.0351
   61SAPC     P 4724   3.156   6.156  10.885 -0.2720 -0.0369  0.1330
   61SAPC   O13 4725   3.025   6.148  10.823  0.3425  0.0615  0.7322
   61SAPC   O14 4726   3.162   6.093  11.019 -0.4073 -0.4117 -0.6538
   61SAPC   O12 4727   3.267   6.096  10.793 -0.4000  0.0031  0.0186
   61SAPC   O11 4728   3.202   6.305  10.901 -0.4053 -0.1728 -0.0239
   61SAPC    C1 4729   3.312   6.370  10.840 -0.1844 -0.1326  0.0235
   61SAPC    HA 4730   3.331   6.468  10.888 -0.9950 -0.6138  1.4153
   61SAPC    HB 4731   3.401   6.304  10.846 -0.8337 -1.0464 -0.0485
   61SAPC    C2 4732   3.288   6.408  10.694 -0.2778  0.5102 -0.0737
   61SAPC    HS 4733   3.371   6.477  10.669  1.9385 -0.6781  3.3208
   61SAPC   O21 4734   3.161   6.475  10.681 -0.4067  0.2173  0.0233
   61SAPC   C21 4735   3.138   6.589  10.737 -0.8049 -0.3234 -0.3561
   61SAPC   O22 4736   3.209   6.655  10.808  0.7433  0.1327 -0.6465
   61SAPC   C22 4737   3.008   6.636  10.668 -0.8667 -0.5607 -0.3376
   61SAPC   H2R 4738   2.950   6.546  10.639 -0.9045 -0.7080  0.1843
   61SAPC   H2S 4739   2.941   6.681  10.744  0.3382  0.3870  0.1975
   61SAPC    C3 4740   3.290   6.298  10.581 -0.0283  0.6623 -0.2511
   61SAPC    HX 4741   3.192   6.246  10.579  0.9034 -1.3107  1.4504
   61SAPC    HY 4742   3.373   6.227  10.600  0.8425  1.6589 -0.2491
   61SAPC   O31 4743   3.315   6.360  10.458 -0.3885 -0.4960 -0.1221
   61SAPC   C31 4744   3.209   6.403  10.394  0.2071  0.3265  0.0300
   61SAPC   O32 4745   3.095   6.397  10.439  0.1815 -0.3648  0.0467
   61SAPC   C32 4746   3.231   6.463  10.255 -0.1191  0.2985 -0.9603
   61SAPC   H2X 4747   3.338   6.488  10.235  0.4097 -0.3381  0.9013
   61SAPC   H2Y 4748   3.175   6.558  10.254  0.4087  0.7295  2.0963
   61SAPC   C23 4749   3.045   6.727  10.547 -0.9798 -0.2308 -0.3203
   61SAPC   H3R 4750   3.107   6.674  10.471 -0.2779  0.0499  0.0495
   61SAPC   H3S 4751   3.101   6.811  10.593 -0.7977 -0.6159  0.1658
   61SAPC   C24 4752   2.926   6.788  10.474 -0.1297 -0.7998  0.5043
   61SAPC   H4R 4753   2.972   6.858  10.401  0.4076 -1.8842 -0.2258
   61SAPC   H4S 4754   2.867   6.860  10.535 -1.3257 -1.3266  0.0116
   61SAPC   C25 4755   2.842   6.677  10.410  0.1254  0.0586  1.1321
   61SAPC   H5R 4756   2.775   6.624  10.478 -0.2900 -1.8377 -0.6625
   61SAPC   C26 4757   2.843   6.648  10.277 -0.0895  0.2343 -0.5448
   61SAPC   H6R 4758   2.796   6.553  10.247 -0.1384 -0.9893  2.9511
   61SAPC   C27 4759   2.924   6.718  10.173  0.8556  0.0008 -0.6502
   61SAPC   H7R 4760   2.970   6.632  10.120 -0.9845 -1.6230  0.2381
   61SAPC   H7S 4761   3.014   6.759  10.223 -0.5942 -1.6180  3.7598
   61SAPC   C28 4762   2.851   6.821  10.092  0.7359 -0.1114  0.0622
   61SAPC   H8R 4763   2.842   6.915  10.148  2.2014 -0.7630  1.4539
   61SAPC   C29 4764   2.810   6.818   9.962  0.2419  0.8936 -0.7421
   61SAPC   H9R 4765   2.780   6.914   9.917 -2.0942 -0.5450 -2.5121
   61SAPC  C210 4766   2.829   6.705   9.868  0.7425  0.9383  0.2458
   61SAPC  H10R 4767   2.728   6.676   9.832  1.3920 -2.1102  0.6286
   61SAPC  H10S 4768   2.861   6.614   9.921  1.4607  1.1904  0.2477
   61SAPC  C211 4769   2.931   6.735   9.766  0.2360 -1.2895  0.8562
   61SAPC  H11R 4770   3.031   6.771   9.797  0.2551 -0.7027  0.1408
   61SAPC  C212 4771   2.914   6.753   9.630 -0.1203 -0.2121 -0.3885
   61SAPC  H12R 4772   3.001   6.772   9.567  0.0394 -0.2278 -0.1717
   61SAPC  C213 4773   2.785   6.728   9.557 -0.0503  0.7598  0.0523
   61SAPC  H13R 4774   2.766   6.806   9.480 -0.2675 -1.4862 -2.2906
   61SAPC  H13S 4775   2.693   6.749   9.615 -0.1021  1.2954 -0.2181
   61SAPC  C214 4776   2.775   6.583   9.508 -0.1930  0.1709  0.1550
   61SAPC  H14R 4777   2.746   6.514   9.589 -0.1742  0.0036  0.0191
   61SAPC  C215 4778   2.769   6.542   9.382  0.4728  0.1320 -0.1719
   61SAPC  H15R 4779   2.755   6.433   9.371  3.5708 -0.2267 -1.5541
   61SAPC  C216 4780   2.774   6.621   9.255 -0.3234  0.2026  0.1667
   61SAPC  H16R 4781   2.729   6.721   9.271  4.1387  2.2029  1.5369
   61SAPC  H16S 4782   2.716   6.578   9.171  0.9029  2.5114 -1.9890
   61SAPC  C217 4783   2.907   6.667   9.188 -0.4230  0.4987  0.3857
   61SAPC  H17R 4784   2.968   6.576   9.168 -2.7863 -0.6108 -2.4329
   61SAPC  H17S 4785   2.961   6.733   9.259 -3.2565  2.2292  1.0748
   61SAPC  C218 4786   2.886   6.735   9.052 -0.1856 -0.1827  0.0697
   61SAPC  H18R 4787   2.974   6.797   9.028 -1.5306  1.6373 -0.4162
   61SAPC  H18S 4788   2.801   6.806   9.059 -0.7023 -0.8773  1.1903
   61SAPC  C219 4789   2.855   6.649   8.928 -0.8791 -0.1315  0.1599
   61SAPC  H19R 4790   2.819   6.710   8.842  1.2982 -0.2711 -0.9274
   61SAPC  H19S 4791   2.784   6.566   8.947 -1.9411  0.8092  0.3832
   61SAPC  C220 4792   2.991   6.578   8.889 -0.3068 -0.1537 -0.7124
   61SAPC  H20R 4793   3.040   6.536   8.980  0.0487  1.2432 -0.2184
   61SAPC  H20S 4794   3.070   6.643   8.845 -0.5227 -0.0913 -1.0047
   61SAPC  H20T 4795   2.967   6.494   8.821 -2.1208  2.1566 -3.1359
   61SAPC   C33 4796   3.172   6.380  10.135  0.3939 -0.1671 -0.2032
   61SAPC   H3X 4797   3.065   6.409  10.141  0.2598 -0.8415  1.2285
   61SAPC   H3Y 4798   3.181   6.271  10.155  0.4114  0.2532  2.5302
   61SAPC   C34 4799   3.239   6.426  10.004 -0.9682  0.3972 -0.5055
   61SAPC   H4X 4800   3.347   6.401  10.010 -0.8189  1.2406  0.6574
   61SAPC   H4Y 4801   3.229   6.536  10.009  1.8192  0.6734  0.6426
   61SAPC   C35 4802   3.160   6.375   9.879  0.3578 -0.2156  0.3967
   61SAPC   H5X 4803   3.052   6.394   9.893  0.4805 -0.4226  1.8399
   61SAPC   H5Y 4804   3.175   6.266   9.861  3.5453  0.5119 -2.4700
   61SAPC   C36 4805   3.202   6.442   9.756 -1.0640 -0.3316  0.4280
   61SAPC   H6X 4806   3.312   6.432   9.752 -1.0501  0.0857 -2.6938
   61SAPC   H6Y 4807   3.194   6.553   9.763 -0.9288 -0.3146  0.3102
   61SAPC   C37 4808   3.138   6.378   9.630 -0.0268 -0.2883 -0.8088
   61SAPC   H7X 4809   3.031   6.403   9.644 -0.1248 -0.3499 -1.4476
   61SAPC   H7Y 4810   3.142   6.270   9.606  0.8646 -0.1772 -1.2057
   61SAPC   C38 4811   3.186   6.459   9.506 -0.2177  0.6337  0.3415
   61SAPC   H8X 4812   3.295   6.439   9.495 -0.3841  0.3241 -0.8849
   61SAPC   H8Y 4813   3.180   6.565   9.537  0.7057  0.8555 -0.2004
   61SAPC   C39 4814   3.118   6.425   9.370 -0.4529 -0.8037  0.1487
   61SAPC   H9X 4815   3.153   6.499   9.294  2.0519 -2.0472 -0.0156
   61SAPC   H9Y 4816   3.010   6.448   9.379 -0.2312  2.8110 -3.1549
   61SAPC  C310 4817   3.150   6.282   9.318  0.4823  0.9277 -0.1430
   61SAPC  H10X 4818   3.115   6.202   9.387  2.3533  0.6076  0.4862
   61SAPC  H10Y 4819   3.259   6.267   9.303  0.7848  2.1235  0.7627
   61SAPC  C311 4820   3.098   6.261   9.176 -0.3139  0.3640 -0.7169
   61SAPC  H11X 4821   3.132   6.338   9.103 -1.6739  0.2070 -1.5534
   61SAPC  H11Y 4822   2.988   6.278   9.174 -0.3649  0.2149  0.4822
   61SAPC  C312 4823   3.108   6.116   9.122  0.1722  0.0713  0.5599
   61SAPC  H12X 4824   3.038   6.053   9.181 -1.2608 -0.2362 -1.3595
   61SAPC  H12Y 4825   3.208   6.070   9.136  0.4216  0.3994 -0.0917
   61SAPC  C313 4826   3.064   6.121   8.974  0.3503  0.1347  0.3570
   61SAPC  H13X 4827   2.990   6.203   8.961 -1.3096 -1.1586  1.2337
   61SAPC  H13Y 4828   2.997   6.033   8.963  1.9569 -0.9226 -1.5576
   61SAPC  C314 4829   3.181   6.117   8.867 -0.0572 -0.2912  0.2839
   61SAPC  H14X 4830   3.274   6.155   8.914  0.8047  2.7435 -3.2634
   61SAPC  H14Y 4831   3.146   6.182   8.783 -0.6200  0.6608  1.2215
   61SAPC  C315 4832   3.216   5.979   8.802 -0.3765 -0.8503 -0.4396
   61SAPC  H15X 4833   3.249   5.910   8.882  2.9766  1.6095  0.5306
   61SAPC  H15Y 4834   3.304   6.007   8.741  1.9978  0.1472  3.1590
   61SAPC  C316 4835   3.100   5.904   8.733 -0.1947  0.2385 -0.1705
   61SAPC  H16X 4836   3.018   5.867   8.799  1.7736  0.2234  2.4291
   61SAPC  H16Y 4837   3.141   5.817   8.677  0.9685  0.9775 -0.4803
   61SAPC  C317 4838   3.035   5.993   8.627 -0.4953 -0.7515 -0.6057
   61SAPC  H17X 4839   3.110   6.056   8.575  1.8449 -2.4826  0.5176
   61SAPC  H17Y 4840   2.967   6.067   8.676  0.2586 -0.5359  0.1295
   61SAPC  C318 4841   2.955   5.911   8.524 -0.5228 -0.6737  0.3659
   61SAPC  H18X 4842   2.887   5.853   8.590 -1.5505  0.4853  0.3631
   61SAPC  H18Y 4843   3.029   5.855   8.463 -1.1219  0.2019 -1.2497
   61SAPC  H18Z 4844   2.896   5.964   8.445  1.9859 -0.7970 -1.7276
   62SAPC     N 4845   2.270   1.738  10.923  0.8154  0.4467  0.8838
   62SAPC   C12 4846   2.265   1.786  10.773  0.1280  0.0835 -0.0119
   62SAPC  H12A 4847   2.361   1.763  10.729  0.0629 -0.0417 -0.0900
   62SAPC  H12B 4848   2.248   1.892  10.762  0.8062 -0.0372 -3.0936
   62SAPC   C13 4849   2.321   1.601  10.946 -0.2183  0.2913 -0.2333
   62SAPC  H13A 4850   2.324   1.576  11.051  2.4838  1.5161  0.0501
   62SAPC  H13B 4851   2.252   1.525  10.912  0.3466 -0.6610  0.6870
   62SAPC  H13C 4852   2.412   1.574  10.895  1.1963  2.6561  0.9120
   62SAPC   C14 4853   2.349   1.834  11.005  0.2161 -0.5934  0.5785
   62SAPC  H14A 4854   2.295   1.926  11.015 -1.1701 -0.7493 -3.6741
   62SAPC  H14B 4855   2.366   1.800  11.107  0.1292 -0.2740  0.6997
   62SAPC  H14C 4856   2.441   1.849  10.950 -0.7536 -0.3341 -1.0337
   62SAPC   C15 4857   2.128   1.752  10.977 -0.4613  0.3147  0.9285
   62SAPC  H15A 4858   2.073   1.695  10.903  1.5653 -3.5218  2.0979
   62SAPC  H15B 4859   2.118   1.700  11.071  2.0344 -0.8310  0.6425
   62SAPC  H15C 4860   2.092   1.853  10.987 -3.2455 -0.3547 -1.2290
   62SAPC   C11 4861   2.173   1.699  10.682 -0.4698 -0.0215 -0.1405
   62SAPC  H11A 4862   2.162   1.597  10.725 -1.4225  0.0859 -0.1127
   62SAPC  H11B 4863   2.213   1.699  10.578  0.8084 -1.0670  0.3152
   62SAPC     P 4864   1.907   1.722  10.704 -0.4510  0.2159  0.2248
   62SAPC   O13 4865   1.897   1.609  10.806 -0.6004  0.3536  0.1282
   62SAPC   O14 4866   1.822   1.842  10.726 -0.4014  0.0230 -0.0058
   62SAPC   O12 4867   2.057   1.780  10.688  0.2762  0.2958  0.5164
   62SAPC   O11 4868   1.864   1.655  10.569  0.4739 -0.1433  0.4372
   62SAPC    C1 4869   1.920   1.537  10.512 -0.0756  0.9585  0.1954
   62SAPC    HA 4870   1.896   1.530  10.403 -1.0821 -0.5994  0.4818
   62SAPC    HB 4871   2.028   1.526  10.534  0.0227  1.4323 -0.0294
   62SAPC    C2 4872   1.860   1.405  10.575  0.0363  0.6656 -0.7029
   62SAPC    HS 4873   1.876   1.393  10.684  1.5626 -3.9735 -1.2044
   62SAPC   O21 4874   1.914   1.283  10.511 -0.0652 -1.2809  0.3131
   62SAPC   C21 4875   1.923   1.171  10.591 -0.4941 -1.2385  0.5003
   62SAPC   O22 4876   1.875   1.159  10.703 -0.0280  0.4369  0.5110
   62SAPC   C22 4877   2.009   1.072  10.514 -0.4655  0.2266  0.1899
   62SAPC   H2R 4878   2.094   1.118  10.460 -0.2593  0.9507  1.1042
   62SAPC   H2S 4879   2.064   1.004  10.583  1.1274  1.2852  0.0087
   62SAPC    C3 4880   1.707   1.408  10.550 -0.1727  0.7526 -0.3154
   62SAPC    HX 4881   1.674   1.507  10.586 -0.3596  1.4476 -2.2898
   62SAPC    HY 4882   1.663   1.321  10.604  1.1891 -1.8742 -3.1014
   62SAPC   O31 4883   1.665   1.400  10.409 -0.6488 -0.2572  0.1548
   62SAPC   C31 4884   1.651   1.277  10.360  0.1394 -0.3996 -0.1498
   62SAPC   O32 4885   1.643   1.176  10.426 -0.8727 -0.7859 -0.6336
   62SAPC   C32 4886   1.643   1.307  10.209  0.5776  0.3619 -0.3663
   62SAPC   H2X 4887   1.743   1.338  10.172 -0.7932  2.6446 -2.4362
   62SAPC   H2Y 4888   1.572   1.391  10.192 -1.5769 -0.8619  1.9304
   62SAPC   C23 4889   1.920   1.004  10.413 -0.0207 -0.1477 -0.0221
   62SAPC   H3R 4890   1.891   1.083  10.341  0.5194  0.8919  0.8800
   62SAPC   H3S 4891   1.828   0.960  10.458 -2.6146  1.7513 -3.0388
   62SAPC   C24 4892   1.993   0.888  10.340  0.5082  0.0391  0.4836
   62SAPC   H4R 4893   2.021   0.820  10.423  3.1002 -0.2483 -0.5468
   62SAPC   H4S 4894   2.085   0.929  10.293  1.0345 -1.0721  0.5170
   62SAPC   C25 4895   1.910   0.817  10.235  0.1696 -0.3377 -0.3196
   62SAPC   H5R 4896   1.868   0.717  10.253 -0.4644  0.4192  3.0743
   62SAPC   C26 4897   1.886   0.863  10.109 -0.4254  0.7484 -0.1761
   62SAPC   H6R 4898   1.831   0.793  10.044 -0.5199 -0.6637  1.3409
   62SAPC   C27 4899   1.935   0.986  10.047 -0.3610  0.2045  0.2604
   62SAPC   H7R 4900   1.944   1.067  10.122 -1.0954 -0.4657  1.0873
   62SAPC   H7S 4901   1.861   1.029   9.976  0.4097 -0.4759 -0.9979
   62SAPC   C28 4902   2.074   0.969   9.981  0.2633 -0.3214 -0.1331
   62SAPC   H8R 4903   2.154   1.010  10.045 -1.3323  1.6572  0.7229
   62SAPC   C29 4904   2.094   0.927   9.855  0.0267  0.0178  0.8725
   62SAPC   H9R 4905   2.193   0.927   9.808 -0.1883  1.6284  0.3642
   62SAPC  C210 4906   1.980   0.895   9.765 -0.2152  0.3543  0.0300
   62SAPC  H10R 4907   1.895   0.863   9.829 -0.0215  0.7639  0.4988
   62SAPC  H10S 4908   2.005   0.802   9.709 -1.1925  0.6947 -0.9992
   62SAPC  C211 4909   1.937   1.006   9.671  0.1577  0.9548  0.0466
   62SAPC  H11R 4910   1.901   1.096   9.723 -1.1043  0.0793  0.7757
   62SAPC  C212 4911   1.955   1.017   9.540  0.3250  0.6902  0.2953
   62SAPC  H12R 4912   1.925   1.111   9.491  1.0656  0.7196 -0.1223
   62SAPC  C213 4913   2.013   0.921   9.439  0.1774 -0.0822 -0.0815
   62SAPC  H13R 4914   1.925   0.881   9.385  1.1111  0.4850 -2.1168
   62SAPC  H13S 4915   2.036   0.826   9.490 -1.0701  0.8498  2.4066
   62SAPC  C214 4916   2.114   0.975   9.340 -0.4563 -0.1297 -0.4506
   62SAPC  H14R 4917   2.216   0.959   9.377 -0.6442 -0.5990 -0.1256
   62SAPC  C215 4918   2.087   1.035   9.224 -0.9819  0.0567  0.1011
   62SAPC  H15R 4919   2.169   1.078   9.164 -4.0139  2.5325 -2.6635
   62SAPC  C216 4920   1.955   1.076   9.173  0.0398  0.2736  0.0269
   62SAPC  H16R 4921   1.882   1.086   9.257 -1.0488  0.0769 -0.8686
   62SAPC  H16S 4922   1.920   1.004   9.096  3.2883 -1.0821 -0.3223
   62SAPC  C217 4923   1.970   1.212   9.092 -0.5626 -0.1640  0.3615
   62SAPC  H17R 4924   1.899   1.216   9.006 -1.2450  2.6121  0.9385
   62SAPC  H17S 4925   2.072   1.225   9.051 -0.0363 -4.1009  0.0177
   62SAPC  C218 4926   1.934   1.336   9.174  0.6578 -0.1118 -0.5357
   62SAPC  H18R 4927   1.999   1.341   9.264  1.9907  0.6071 -1.4832
   62SAPC  H18S 4928   1.829   1.332   9.210  1.1182  1.7065  1.1560
   62SAPC  C219 4929   1.943   1.472   9.095 -0.1630 -0.2632 -0.7900
   62SAPC  H19R 4930   2.047   1.493   9.061 -0.8156  2.7070 -1.1623
   62SAPC  H19S 4931   1.915   1.542   9.176  2.0034 -2.1762  1.8063
   62SAPC  C220 4932   1.837   1.485   8.988  0.4534 -0.1762  0.2694
   62SAPC  H20R 4933   1.859   1.582   8.939  1.4122  0.0516  1.1060
   62SAPC  H20S 4934   1.737   1.500   9.033  0.9292  3.2839  0.4960
   62SAPC  H20T 4935   1.841   1.398   8.920  0.3035 -1.6384  2.0489
   62SAPC   C33 4936   1.585   1.181  10.136 -0.5432 -0.6593  0.7617
   62SAPC   H3X 4937   1.492   1.146  10.184  0.2803 -2.9625  0.8056
   62SAPC   H3Y 4938   1.646   1.088  10.143 -2.6313 -1.9843  2.7347
   62SAPC   C34 4939   1.559   1.211   9.991  0.1112 -0.3920  0.0965
   62SAPC   H4X 4940   1.483   1.292   9.984 -2.7811 -2.7842  1.4855
   62SAPC   H4Y 4941   1.523   1.119   9.940  0.8842 -2.1423  2.5423
   62SAPC   C35 4942   1.681   1.253   9.909  0.5739  0.5758  0.2840
   62SAPC   H5X 4943   1.754   1.170   9.923 -1.2439 -1.2873 -0.6255
   62SAPC   H5Y 4944   1.726   1.346   9.949 -3.2248  2.8018 -0.1252
   62SAPC   C36 4945   1.651   1.277   9.762  0.1980 -0.4574  0.0318
   62SAPC   H6X 4946   1.588   1.189   9.736 -0.6622  0.2584 -0.3355
   62SAPC   H6Y 4947   1.745   1.282   9.703  1.5665  1.9510  2.1932
   62SAPC   C37 4948   1.570   1.406   9.741 -0.4118 -1.0259 -0.1489
   62SAPC   H7X 4949   1.632   1.490   9.778 -0.2141 -0.7075 -1.1725
   62SAPC   H7Y 4950   1.481   1.414   9.808  0.2898  1.4751  0.5865
   62SAPC   C38 4951   1.526   1.447   9.600 -0.3194  0.0148  0.1402
   62SAPC   H8X 4952   1.484   1.549   9.613 -0.7015 -0.1766  0.4641
   62SAPC   H8Y 4953   1.441   1.381   9.573  1.2437 -2.7087  1.4570
   62SAPC   C39 4954   1.634   1.442   9.495  0.1324  0.3671  0.0280
   62SAPC   H9X 4955   1.627   1.341   9.449  0.9535  0.6246 -0.6883
   62SAPC   H9Y 4956   1.735   1.427   9.539  0.5392 -2.3282 -1.5747
   62SAPC  C310 4957   1.629   1.554   9.394 -0.3235 -0.0813  0.2721
   62SAPC  H10X 4958   1.714   1.546   9.322 -0.8337  0.3775 -0.4084
   62SAPC  H10Y 4959   1.631   1.657   9.437  2.0535 -0.6255  1.6166
   62SAPC  C311 4960   1.499   1.542   9.312 -0.3540 -0.2188 -0.6606
   62SAPC  H11X 4961   1.413   1.562   9.379 -0.0647 -2.2448  0.4050
   62SAPC  H11Y 4962   1.504   1.440   9.267  2.3406 -0.0703 -0.8585
   62SAPC  C312 4963   1.507   1.647   9.198 -0.2364 -0.7776  0.0514
   62SAPC  H12X 4964   1.605   1.633   9.147  1.0316 -2.5808  2.7104
   62SAPC  H12Y 4965   1.506   1.750   9.241 -0.3708 -0.5206 -0.5673
   62SAPC  C313 4966   1.386   1.633   9.103  0.4115  0.0699 -0.3034
   62SAPC  H13X 4967   1.292   1.623   9.162 -0.2305  1.5720 -1.0291
   62SAPC  H13Y 4968   1.400   1.542   9.040  1.9777  0.3200 -0.3530
   62SAPC  C314 4969   1.366   1.744   8.985 -0.1971  0.0830 -0.6807
   62SAPC  H14X 4970   1.354   1.837   9.046  0.1530 -1.9442  2.7458
   62SAPC  H14Y 4971   1.267   1.728   8.937  0.1670  0.2060 -1.4945
   62SAPC  C315 4972   1.480   1.744   8.881 -0.4618  0.1087  0.6128
   62SAPC  H15X 4973   1.496   1.640   8.847 -1.4672  0.3211 -0.5782
   62SAPC  H15Y 4974   1.568   1.791   8.930 -1.7888  1.6981  1.6231
   62SAPC  C316 4975   1.448   1.838   8.761 -0.6879  0.1815 -0.5196
   62SAPC  H16X 4976   1.433   1.938   8.808 -0.2907 -0.2147  0.4755
   62SAPC  H16Y 4977   1.351   1.802   8.721 -0.6437 -0.6160  0.0688
   62SAPC  C317 4978   1.550   1.835   8.652 -0.8151  0.1563  0.3396
   62SAPC  H17X 4979   1.644   1.880   8.689 -0.1820 -1.6146  0.9695
   62SAPC  H17Y 4980   1.515   1.906   8.574 -0.4413 -0.0340 -0.0013
   62SAPC  C318 4981   1.586   1.698   8.586  0.6391 -0.0359  0.4614
   62SAPC  H18X 4982   1.589   1.615   8.660 -0.3861 -0.1887  0.3472
   62SAPC  H18Y 4983   1.683   1.716   8.535  0.2090  1.8068  0.2504
   62SAPC  H18Z 4984   1.507   1.674   8.511 -0.3734  2.9057  0.4885
   63SAPC     N 4985   2.374   5.845   6.266 -1.1864 -0.2946 -0.2501
   63SAPC   C12 4986   2.454   5.753   6.360 -0.1518 -0.5748  0.7478
   63SAPC  H12A 4987   2.536   5.807   6.406  0.4906 -0.2941 -0.6606
   63SAPC  H12B 4988   2.494   5.673   6.299 -1.2500 -0.0461 -0.7270
   63SAPC   C13 4989   2.254   5.779   6.224  0.4384 -0.0979 -0.2767
   63SAPC  H13A 4990   2.276   5.677   6.194  0.0195  0.5602 -3.1054
   63SAPC  H13B 4991   2.179   5.769   6.301  1.0431  0.0399  0.3387
   63SAPC  H13C 4992   2.220   5.829   6.135 -0.9915  0.7572  0.7095
   63SAPC   C14 4993   2.350   5.976   6.327  0.2802  0.4447 -0.1174
   63SAPC  H14A 4994   2.291   6.039   6.261 -0.9658  0.5707  1.0611
   63SAPC  H14B 4995   2.284   5.970   6.412 -1.2092  0.1611 -1.2370
   63SAPC  H14C 4996   2.441   6.027   6.355  1.1743 -1.2479  0.1810
   63SAPC   C15 4997   2.458   5.871   6.141 -0.5706  0.3445  0.3014
   63SAPC  H15A 4998   2.548   5.925   6.168 -1.3364  0.7874  2.0657
   63SAPC  H15B 4999   2.491   5.781   6.090  1.8536  1.2342  0.1480
   63SAPC  H15C 5000   2.407   5.930   6.067  0.7941  0.2601 -0.7663
   63SAPC   C11 5001   2.382   5.695   6.486 -0.3845  0.0171  0.2634
   63SAPC  H11A 5002   2.439   5.611   6.532 -0.2078 -0.1386 -0.2402
   63SAPC  H11B 5003   2.286   5.655   6.446 -0.3627  1.4368 -1.2831
   63SAPC     P 5004   2.472   5.858   6.672 -0.2801  0.5275 -0.0170
   63SAPC   O13 5005   2.597   5.888   6.589  0.1040  0.1965 -0.2199
   63SAPC   O14 5006   2.410   5.960   6.749 -0.4752 -0.4306 -0.0081
   63SAPC   O12 5007   2.355   5.791   6.588  0.3676  0.0553  0.2594
   63SAPC   O11 5008   2.518   5.736   6.768  0.5442  0.5971  0.1682
   63SAPC    C1 5009   2.484   5.740   6.905  0.2517  0.1272 -0.8512
   63SAPC    HA 5010   2.545   5.665   6.960  0.5621  0.9637 -0.0314
   63SAPC    HB 5011   2.487   5.843   6.946 -0.3604 -0.7047  1.4844
   63SAPC    C2 5012   2.337   5.692   6.930  0.0435  0.5955  0.5162
   63SAPC    HS 5013   2.272   5.756   6.867 -0.4102 -0.6608 -0.3199
   63SAPC   O21 5014   2.301   5.687   7.065 -0.6265  0.0820 -0.2988
   63SAPC   C21 5015   2.172   5.675   7.098 -0.7142 -0.2239  0.2501
   63SAPC   O22 5016   2.083   5.700   7.015 -0.0673 -0.0785 -0.0143
   63SAPC   C22 5017   2.161   5.675   7.242  0.6680 -0.0484 -0.1522
   63SAPC   H2R 5018   2.229   5.753   7.282 -0.7688 -0.7290  4.1086
   63SAPC   H2S 5019   2.059   5.718   7.252 -0.7507 -1.4231 -5.3804
   63SAPC    C3 5020   2.311   5.553   6.863 -0.4046 -0.4832 -0.9411
   63SAPC    HX 5021   2.331   5.555   6.754  1.0792  0.1355 -0.6835
   63SAPC    HY 5022   2.200   5.543   6.862 -0.3509 -1.5562  0.6444
   63SAPC   O31 5023   2.386   5.447   6.929 -0.1916  0.0290  0.6604
   63SAPC   C31 5024   2.321   5.358   6.990  0.3126  0.7171 -0.0386
   63SAPC   O32 5025   2.212   5.364   7.037  1.2757 -0.0925 -0.5291
   63SAPC   C32 5026   2.427   5.248   7.018  0.0086  0.0749  0.1500
   63SAPC   H2X 5027   2.521   5.305   7.032  0.7749 -0.6293 -1.7394
   63SAPC   H2Y 5028   2.430   5.192   6.922 -0.9948 -1.1318  0.7910
   63SAPC   C23 5029   2.163   5.543   7.305 -0.3273  0.5347 -0.9574
   63SAPC   H3R 5030   2.271   5.519   7.307  0.0217  2.0196 -0.6163
   63SAPC   H3S 5031   2.101   5.471   7.247 -0.3120  1.4450 -2.1204
   63SAPC   C24 5032   2.129   5.554   7.459  0.0531 -0.4156  0.0071
   63SAPC   H4R 5033   2.117   5.449   7.494  2.6478 -0.6796  0.3319
   63SAPC   H4S 5034   2.032   5.606   7.471  0.2518 -0.0898  0.2150
   63SAPC   C25 5035   2.221   5.633   7.558 -0.0704 -0.7527  0.5439
   63SAPC   H5R 5036   2.270   5.717   7.508 -0.8149 -0.5656  0.1151
   63SAPC   C26 5037   2.253   5.607   7.683  0.5800  0.3296 -0.5089
   63SAPC   H6R 5038   2.309   5.682   7.740 -0.7709  1.1871 -0.2728
   63SAPC   C27 5039   2.216   5.476   7.757 -1.2069 -1.2033 -0.1264
   63SAPC   H7R 5040   2.205   5.392   7.686 -0.9589  0.6804 -2.5195
   63SAPC   H7S 5041   2.117   5.492   7.805 -1.9219 -0.1072 -1.8927
   63SAPC   C28 5042   2.302   5.429   7.871 -0.3179  0.0089  0.7478
   63SAPC   H8R 5043   2.409   5.434   7.848 -0.5883  1.1584 -0.3294
   63SAPC   C29 5044   2.264   5.401   8.005  0.3265  0.0238  0.0532
   63SAPC   H9R 5045   2.335   5.362   8.079 -2.0851 -0.6894  2.1170
   63SAPC  C210 5046   2.126   5.397   8.055  0.0476 -0.2082  0.3236
   63SAPC  H10R 5047   2.114   5.314   8.128 -1.0336  0.3560  0.8002
   63SAPC  H10S 5048   2.066   5.365   7.967  1.8030  0.3267 -1.1453
   63SAPC  C211 5049   2.074   5.522   8.112 -0.2500 -0.0233  0.6782
   63SAPC  H11R 5050   2.008   5.585   8.051 -0.6771  0.9774  2.1170
   63SAPC  C212 5051   2.097   5.558   8.243 -0.1024  0.1326 -0.3476
   63SAPC  H12R 5052   2.049   5.653   8.274  1.2871  0.8940 -0.4731
   63SAPC  C213 5053   2.187   5.492   8.344  0.3098  0.3820  0.3327
   63SAPC  H13R 5054   2.274   5.558   8.358  0.9041 -0.5232  1.0020
   63SAPC  H13S 5055   2.235   5.402   8.298 -0.9272 -0.2530  0.2323
   63SAPC  C214 5056   2.105   5.462   8.465  0.1143  0.3790  0.3747
   63SAPC  H14R 5057   2.014   5.519   8.486 -0.2299 -1.4229  4.9030
   63SAPC  C215 5058   2.133   5.379   8.563  0.0366 -0.0885 -0.2022
   63SAPC  H15R 5059   2.055   5.377   8.640 -0.3736 -1.6246 -0.6348
   63SAPC  C216 5060   2.251   5.288   8.570 -0.0434 -0.1693  0.0274
   63SAPC  H16R 5061   2.349   5.341   8.575 -0.8796  1.7864 -2.4744
   63SAPC  H16S 5062   2.261   5.226   8.479  1.3397 -0.6578  0.4839
   63SAPC  C217 5063   2.239   5.192   8.685 -0.7124  0.3227 -0.1609
   63SAPC  H17R 5064   2.245   5.237   8.786 -1.1342 -0.5988  0.2872
   63SAPC  H17S 5065   2.335   5.139   8.671 -0.7683  0.7689 -2.8465
   63SAPC  C218 5066   2.123   5.099   8.666 -0.7137 -0.0070 -0.2906
   63SAPC  H18R 5067   2.132   5.059   8.563 -1.3801 -1.8001  0.3094
   63SAPC  H18S 5068   2.037   5.170   8.675  0.1996  0.9922  1.0969
   63SAPC  C219 5069   2.109   4.992   8.770  0.2531 -0.0666 -0.6700
   63SAPC  H19R 5070   2.054   4.911   8.716  1.2277 -0.0409 -1.7517
   63SAPC  H19S 5071   2.048   5.031   8.853 -0.0249  0.2388 -1.0129
   63SAPC  C220 5072   2.237   4.917   8.810 -0.5998 -0.0459  0.1924
   63SAPC  H20R 5073   2.221   4.854   8.900  3.4932 -1.0904  0.3847
   63SAPC  H20S 5074   2.309   5.000   8.830 -0.0995  0.5498 -3.3660
   63SAPC  H20T 5075   2.285   4.858   8.729 -0.2411  0.9550 -0.3472
   63SAPC   C33 5076   2.390   5.140   7.124  0.9753 -0.1463 -0.2019
   63SAPC   H3X 5077   2.442   5.042   7.110  1.3633  0.0904 -0.4595
   63SAPC   H3Y 5078   2.281   5.127   7.114  0.8672 -0.3089  1.0597
   63SAPC   C34 5079   2.417   5.191   7.266 -0.3963 -0.0187 -1.1100
   63SAPC   H4X 5080   2.373   5.293   7.279 -0.1530 -0.0341 -0.1195
   63SAPC   H4Y 5081   2.527   5.203   7.277 -0.3050  0.3937 -2.2719
   63SAPC   C35 5082   2.332   5.101   7.360  0.6795 -0.0308 -0.4025
   63SAPC   H5X 5083   2.362   4.994   7.362  2.2768  0.3477 -1.8064
   63SAPC   H5Y 5084   2.227   5.099   7.324  0.7645 -0.7825 -0.6363
   63SAPC   C36 5085   2.342   5.155   7.504 -0.4939  0.4529 -0.0323
   63SAPC   H6X 5086   2.280   5.090   7.569  0.1944 -0.0606  0.1227
   63SAPC   H6Y 5087   2.310   5.261   7.503 -0.1364  0.5596 -0.4663
   63SAPC   C37 5088   2.491   5.159   7.552 -0.2905 -0.0454  0.1250
   63SAPC   H7X 5089   2.545   5.227   7.483 -1.3582 -0.4017 -1.1079
   63SAPC   H7Y 5090   2.533   5.056   7.547  0.4394  0.2625 -0.2000
   63SAPC   C38 5091   2.501   5.208   7.694 -0.8948 -0.3242  0.7649
   63SAPC   H8X 5092   2.407   5.185   7.749 -0.5163  0.2749  1.6779
   63SAPC   H8Y 5093   2.528   5.315   7.701  0.1430 -0.6563  2.1559
   63SAPC   C39 5094   2.615   5.143   7.775 -0.5609  0.3238 -0.2718
   63SAPC   H9X 5095   2.715   5.175   7.739 -0.3842  0.8193  0.6237
   63SAPC   H9Y 5096   2.601   5.033   7.764 -1.5450  0.5603 -1.6287
   63SAPC  C310 5097   2.622   5.164   7.925 -0.0223  0.3190  0.4697
   63SAPC  H10X 5098   2.700   5.102   7.974 -0.3236  0.6767  1.4256
   63SAPC  H10Y 5099   2.524   5.124   7.959 -0.5134  0.7593 -0.3835
   63SAPC  C311 5100   2.649   5.309   7.971  0.4218 -1.1116  0.0017
   63SAPC  H11X 5101   2.633   5.307   8.081  1.3765  0.7105  0.2055
   63SAPC  H11Y 5102   2.575   5.385   7.936  0.9161 -1.2049 -1.3005
   63SAPC  C312 5103   2.794   5.360   7.937 -0.2865  0.4165 -0.9702
   63SAPC  H12X 5104   2.797   5.466   7.969  0.2890  0.5233 -1.3696
   63SAPC  H12Y 5105   2.808   5.352   7.827  1.2735 -0.7254 -0.7229
   63SAPC  C313 5106   2.895   5.282   8.026  0.2286  0.4471 -0.5792
   63SAPC  H13X 5107   2.841   5.219   8.100  0.0644  1.2141 -0.0314
   63SAPC  H13Y 5108   2.951   5.349   8.095 -1.6769  1.8763 -0.3300
   63SAPC  C314 5109   2.992   5.196   7.944 -0.4274 -0.5939  0.7090
   63SAPC  H14X 5110   3.044   5.264   7.873 -1.9511  0.5171  0.5974
   63SAPC  H14Y 5111   2.943   5.123   7.876 -0.2304  0.1284 -0.2455
   63SAPC  C315 5112   3.090   5.125   8.032  0.9527  0.3153 -0.4602
   63SAPC  H15X 5113   3.028   5.064   8.101  4.1905  0.0692  2.5005
   63SAPC  H15Y 5114   3.154   5.195   8.090 -0.5464  0.3733  1.1983
   63SAPC  C316 5115   3.154   5.007   7.955 -0.1174 -0.1209  0.1318
   63SAPC  H16X 5116   3.209   5.051   7.869  1.8043  0.2781  1.4939
   63SAPC  H16Y 5117   3.078   4.948   7.901  1.7409 -0.6508 -2.0462
   63SAPC  C317 5118   3.248   4.917   8.028 -0.1111 -0.0011  0.0982
   63SAPC  H17X 5119   3.202   4.880   8.123 -0.0410  1.4360  0.7167
   63SAPC  H17Y 5120   3.327   4.985   8.065 -0.4149  0.0583  0.6454
   63SAPC  C318 5121   3.309   4.807   7.951  0.5108 -0.2403  0.5924
   63SAPC  H18X 5122   3.353   4.852   7.859  1.4868  0.4986  1.3962
   63SAPC  H18Y 5123   3.261   4.712   7.922  2.5341 -0.8820 -0.9321
   63SAPC  H18Z 5124   3.401   4.768   7.999  1.3296  0.4046 -0.3857
   64SAPC     N 5125   3.941   6.119   5.899 -0.0449  0.7111 -0.2257
   64SAPC   C12 5126   3.835   6.199   5.969 -0.2160  0.5472  0.5897
   64SAPC  H12A 5127   3.743   6.152   5.938  1.1611 -2.1370  0.2717
   64SAPC  H12B 5128   3.834   6.300   5.929 -0.6523  1.3465  2.5237
   64SAPC   C13 5129   4.073   6.173   5.930 -0.5466 -0.7742 -0.7973
   64SAPC  H13A 5130   4.073   6.278   5.907 -0.5493 -0.5400  0.2226
   64SAPC  H13B 5131   4.100   6.159   6.033 -0.6374  1.4669 -0.4295
   64SAPC  H13C 5132   4.149   6.115   5.881  0.3323 -2.3626  2.1911
   64SAPC   C14 5133   3.932   5.980   5.952  0.0492 -0.9624  0.7039
   64SAPC  H14A 5134   4.014   5.926   5.908  0.1568 -0.5519  0.3915
   64SAPC  H14B 5135   3.961   5.971   6.056  1.6394 -1.8308  0.2057
   64SAPC  H14C 5136   3.844   5.926   5.921 -1.0766  0.2526  1.6589
   64SAPC   C15 5137   3.914   6.109   5.752  0.4961 -0.4252  0.4005
   64SAPC  H15A 5138   3.810   6.081   5.740  0.8511 -1.4358 -0.4645
   64SAPC  H15B 5139   3.932   6.203   5.702 -1.6520 -0.3335 -0.2981
   64SAPC  H15C 5140   3.976   6.042   5.694  1.8554  0.3833  0.8738
   64SAPC   C11 5141   3.838   6.226   6.132  0.1786  0.6810  0.6200
   64SAPC  H11A 5142   3.828   6.132   6.191  0.1355 -0.5011 -1.1597
   64SAPC  H11B 5143   3.741   6.278   6.144 -0.6736 -0.4264 -0.9960
   64SAPC     P 5144   4.050   6.286   6.279  0.1760  0.4977  0.6237
   64SAPC   O13 5145   4.147   6.182   6.235 -0.2371  0.6682  0.4241
   64SAPC   O14 5146   4.101   6.413   6.330 -0.0821 -0.3847 -0.5887
   64SAPC   O12 5147   3.945   6.320   6.161 -0.3784  0.1584 -0.1902
   64SAPC   O11 5148   3.967   6.226   6.393  1.0811 -0.1619  0.3253
   64SAPC    C1 5149   3.882   6.312   6.466 -0.1836 -0.3755 -0.0410
   64SAPC    HA 5150   3.840   6.401   6.414 -0.8680 -0.7551 -0.1452
   64SAPC    HB 5151   3.801   6.247   6.506  1.1787 -1.2832  1.3341
   64SAPC    C2 5152   3.936   6.368   6.604 -0.3268  0.0804 -0.1118
   64SAPC    HS 5153   3.990   6.463   6.583 -0.2654 -0.4259 -2.4187
   64SAPC   O21 5154   4.025   6.261   6.653  0.1175  0.4053  0.1871
   64SAPC   C21 5155   4.114   6.298   6.743 -1.1866 -0.7517 -0.0665
   64SAPC   O22 5156   4.123   6.415   6.786 -0.1674 -0.5909 -0.6999
   64SAPC   C22 5157   4.199   6.170   6.786  0.3341 -0.5520  0.3250
   64SAPC   H2R 5158   4.172   6.082   6.723  0.0755  0.0857 -0.4631
   64SAPC   H2S 5159   4.303   6.196   6.759  0.1027  2.4292  1.8927
   64SAPC    C3 5160   3.809   6.392   6.698 -0.4371 -0.7396 -0.0572
   64SAPC    HX 5161   3.760   6.293   6.687 -0.8178 -0.5210 -0.3737
   64SAPC    HY 5162   3.761   6.484   6.658  1.6957  1.0696  1.3331
   64SAPC   O31 5163   3.849   6.416   6.828 -0.0197 -0.3407  0.0968
   64SAPC   C31 5164   3.847   6.536   6.885  0.2209  0.0115  0.0098
   64SAPC   O32 5165   3.812   6.639   6.832  0.3383 -0.1892 -0.5639
   64SAPC   C32 5166   3.901   6.534   7.029  0.2272  0.3584  0.2481
   64SAPC   H2X 5167   4.005   6.502   7.010  0.1704  0.4165 -0.1721
   64SAPC   H2Y 5168   3.858   6.449   7.087  0.1825  1.2679  1.6102
   64SAPC   C23 5169   4.213   6.135   6.936  0.7153  0.2611  0.5554
   64SAPC   H3R 5170   4.227   6.025   6.928  0.8059  0.3096 -0.0003
   64SAPC   H3S 5171   4.120   6.155   6.992  0.0632  2.4406 -1.1947
   64SAPC   C24 5172   4.333   6.201   7.007 -0.1581 -0.4544  0.4532
   64SAPC   H4R 5173   4.410   6.167   6.934 -2.2930 -1.7403 -1.3108
   64SAPC   H4S 5174   4.341   6.151   7.106 -2.1489 -0.7083  0.5136
   64SAPC   C25 5175   4.340   6.350   7.020  0.5858  0.1964 -0.3032
   64SAPC   H5R 5176   4.331   6.409   6.928  0.1872 -0.4668 -0.6908
   64SAPC   C26 5177   4.352   6.417   7.136 -0.1306  0.0100  0.3272
   64SAPC   H6R 5178   4.363   6.526   7.135 -1.1979  0.1391 -1.6557
   64SAPC   C27 5179   4.361   6.356   7.279  0.1335  0.2652  0.7366
   64SAPC   H7R 5180   4.435   6.409   7.344  1.3061 -0.8251  0.3276
   64SAPC   H7S 5181   4.390   6.249   7.278 -3.5514 -0.8469 -0.3580
   64SAPC   C28 5182   4.229   6.353   7.341 -0.0828 -0.6563 -0.3798
   64SAPC   H8R 5183   4.150   6.336   7.266 -0.1886 -1.1476 -0.1572
   64SAPC   C29 5184   4.186   6.391   7.461 -0.7359 -0.4419  0.3173
   64SAPC   H9R 5185   4.080   6.369   7.480 -0.5881 -0.7085  0.8377
   64SAPC  C210 5186   4.268   6.459   7.571  1.1850 -0.2955 -0.2772
   64SAPC  H10R 5187   4.199   6.527   7.625 -0.0862 -1.8223  0.1144
   64SAPC  H10S 5188   4.356   6.511   7.528  0.1793  1.1444 -0.6630
   64SAPC  C211 5189   4.335   6.352   7.658 -0.0371  0.0764  0.0374
   64SAPC  H11R 5190   4.413   6.295   7.605  0.6735  1.1869 -0.1312
   64SAPC  C212 5191   4.309   6.341   7.790  0.2849  0.5064  0.7645
   64SAPC  H12R 5192   4.356   6.252   7.835 -0.3634 -1.6569 -2.4902
   64SAPC  C213 5193   4.215   6.423   7.873 -0.8420 -0.1765  0.3846
   64SAPC  H13R 5194   4.210   6.527   7.835 -2.2592  0.0783  1.2008
   64SAPC  H13S 5195   4.263   6.435   7.973 -1.2923 -1.1537  0.7316
   64SAPC  C214 5196   4.076   6.367   7.885  0.5253 -0.1668  0.6030
   64SAPC  H14R 5197   4.021   6.357   7.791  1.2633  4.1200 -0.4842
   64SAPC  C215 5198   4.021   6.312   7.996  0.1071 -0.2513  0.3831
   64SAPC  H15R 5199   3.930   6.251   7.988  1.0517 -1.8404  1.2432
   64SAPC  C216 5200   4.079   6.303   8.137 -0.8857  0.0819 -0.2537
   64SAPC  H16R 5201   4.184   6.339   8.142 -0.9342  0.5319 -1.8629
   64SAPC  H16S 5202   4.074   6.195   8.162  0.1126  0.7917  3.5736
   64SAPC  C217 5203   3.986   6.369   8.242 -0.0001 -0.2932 -0.0490
   64SAPC  H17R 5204   3.877   6.355   8.228 -0.1777 -0.7037  1.4912
   64SAPC  H17S 5205   4.015   6.475   8.263  1.2327  0.1672 -3.4519
   64SAPC  C218 5206   4.006   6.294   8.377  0.0911  0.0994 -0.5674
   64SAPC  H18R 5207   3.967   6.356   8.461  0.7935 -0.4821  0.2074
   64SAPC  H18S 5208   4.115   6.299   8.395  0.1014  1.5082 -0.8872
   64SAPC  C219 5209   3.961   6.150   8.392 -0.8087  0.4653  0.4329
   64SAPC  H19R 5210   4.014   6.085   8.319 -3.4641  0.9415 -2.0832
   64SAPC  H19S 5211   3.857   6.154   8.353  0.3077 -1.1813 -3.0913
   64SAPC  C220 5212   3.972   6.110   8.540 -0.1528 -0.3915  0.0252
   64SAPC  H20R 5213   3.922   6.191   8.598 -0.2391 -1.7508  1.9458
   64SAPC  H20S 5214   4.077   6.099   8.573  0.3546  1.1312 -0.9975
   64SAPC  H20T 5215   3.920   6.013   8.552 -1.2662 -0.5200 -4.3171
   64SAPC   C33 5216   3.889   6.671   7.102 -0.0865 -0.5365 -0.1829
   64SAPC   H3X 5217   3.787   6.711   7.083 -0.0440 -1.0923 -1.6799
   64SAPC   H3Y 5218   3.959   6.736   7.046 -1.4982  1.3526  0.1354
   64SAPC   C34 5219   3.924   6.667   7.245  0.1473  0.8784 -0.2806
   64SAPC   H4X 5220   3.940   6.772   7.280  0.9509  0.2892  1.2409
   64SAPC   H4Y 5221   4.020   6.615   7.265  0.3005  0.9087 -0.9302
   64SAPC   C35 5222   3.805   6.614   7.328 -0.5647  0.0051  0.4306
   64SAPC   H5X 5223   3.767   6.514   7.300 -1.7359  0.1427  1.4253
   64SAPC   H5Y 5224   3.722   6.684   7.303  1.8491  2.7166 -0.5223
   64SAPC   C36 5225   3.836   6.614   7.480  0.6638  0.3634  0.4046
   64SAPC   H6X 5226   3.897   6.705   7.498  1.1099 -0.0155  0.8299
   64SAPC   H6Y 5227   3.899   6.526   7.504 -0.3953 -0.7798 -0.8776
   64SAPC   C37 5228   3.706   6.603   7.565 -0.0225  0.7665 -0.3905
   64SAPC   H7X 5229   3.639   6.516   7.545 -1.6564  2.0806 -0.9062
   64SAPC   H7Y 5230   3.639   6.691   7.554 -1.7893 -0.3212  1.0120
   64SAPC   C38 5231   3.759   6.609   7.708  0.4281  0.2004 -0.6077
   64SAPC   H8X 5232   3.834   6.688   7.732  0.7635 -0.4023  0.4253
   64SAPC   H8Y 5233   3.802   6.514   7.745 -0.9114  0.5818  2.1939
   64SAPC   C39 5234   3.638   6.637   7.801 -0.6977  0.6249 -0.3672
   64SAPC   H9X 5235   3.557   6.563   7.786 -0.2693 -0.6329  2.8115
   64SAPC   H9Y 5236   3.585   6.729   7.769 -2.9871 -0.0690  1.2294
   64SAPC  C310 5237   3.688   6.654   7.950 -0.1670  0.5661  0.5633
   64SAPC  H10X 5238   3.701   6.762   7.971  1.2700  0.6540 -0.5424
   64SAPC  H10Y 5239   3.792   6.616   7.955  0.3937  1.8865 -0.2911
   64SAPC  C311 5240   3.601   6.584   8.052  0.5407  0.2124  0.1873
   64SAPC  H11X 5241   3.571   6.482   8.022 -2.5813  1.0078  0.2421
   64SAPC  H11Y 5242   3.498   6.626   8.055  0.1203 -0.6723 -1.0908
   64SAPC  C312 5243   3.670   6.576   8.184  0.8189  0.4906  0.1750
   64SAPC  H12X 5244   3.701   6.679   8.214  0.9748 -0.4000  3.4938
   64SAPC  H12Y 5245   3.769   6.531   8.162  1.0493  0.7735  0.6116
   64SAPC  C313 5246   3.589   6.497   8.289 -0.8894  0.5821  0.1895
   64SAPC  H13X 5247   3.552   6.413   8.227  2.0350 -0.7152  0.0618
   64SAPC  H13Y 5248   3.501   6.557   8.320 -0.1321  1.6122  0.3795
   64SAPC  C314 5249   3.669   6.453   8.411  1.3217 -0.0891 -0.6170
   64SAPC  H14X 5250   3.734   6.366   8.385  1.1252  0.2068 -2.1744
   64SAPC  H14Y 5251   3.601   6.402   8.483  1.9570 -0.2286 -0.1020
   64SAPC  C315 5252   3.737   6.565   8.484 -0.4995 -0.0701  0.9223
   64SAPC  H15X 5253   3.674   6.656   8.485 -0.5151 -0.0799  1.7540
   64SAPC  H15Y 5254   3.833   6.596   8.439 -1.2752  0.0416 -0.7372
   64SAPC  C316 5255   3.787   6.523   8.624  0.0662 -0.7413 -0.4509
   64SAPC  H16X 5256   3.819   6.418   8.610 -0.2268 -1.1694  1.6932
   64SAPC  H16Y 5257   3.705   6.518   8.699  0.5895  0.7285  0.2732
   64SAPC  C317 5258   3.908   6.608   8.669 -0.2754 -0.2116 -0.0304
   64SAPC  H17X 5259   3.889   6.717   8.664  2.8105  0.3447 -2.4470
   64SAPC  H17Y 5260   3.996   6.606   8.601 -0.0838  0.3465  0.1953
   64SAPC  C318 5261   3.958   6.567   8.803  0.0733  0.1469  0.2121
   64SAPC  H18X 5262   4.018   6.474   8.797  1.5775  1.1891 -1.6551
   64SAPC  H18Y 5263   3.866   6.570   8.866 -0.2142 -0.8330 -0.1427
   64SAPC  H18Z 5264   4.023   6.644   8.849  0.1415 -0.8836  1.9608
   65SAPC     N 5265   4.250   1.105   5.909 -0.6569 -0.4774  0.3342
   65SAPC   C12 5266   4.233   1.219   6.016  0.5938  0.2025  0.4012
   65SAPC  H12A 5267   4.266   1.310   5.968  3.1117  0.8283  3.0691
   65SAPC  H12B 5268   4.309   1.190   6.087  1.0137 -2.7888 -1.0998
   65SAPC   C13 5269   4.236   0.975   5.978  0.2594 -0.3204  0.3245
   65SAPC  H13A 5270   4.323   0.958   6.040  0.9182 -1.4431 -0.8448
   65SAPC  H13B 5271   4.148   0.972   6.040 -1.1410 -1.9173 -1.6089
   65SAPC  H13C 5272   4.240   0.889   5.913 -0.4818 -0.7351  0.8124
   65SAPC   C14 5273   4.140   1.116   5.808  0.0380 -0.1383  0.1256
   65SAPC  H14A 5274   4.047   1.140   5.859  0.3501  1.5749 -0.0549
   65SAPC  H14B 5275   4.167   1.204   5.752 -1.1965  0.9041  1.0748
   65SAPC  H14C 5276   4.130   1.038   5.734  1.6311 -0.5445  0.3123
   65SAPC   C15 5277   4.387   1.118   5.848 -0.0632 -0.2947 -0.0341
   65SAPC  H15A 5278   4.467   1.103   5.919 -0.4311  0.1272  0.4756
   65SAPC  H15B 5279   4.408   1.041   5.775  1.4431  1.9480 -2.1245
   65SAPC  H15C 5280   4.405   1.217   5.808 -1.7841 -0.1075 -0.4658
   65SAPC   C11 5281   4.097   1.247   6.075  0.6397  0.7558  0.1850
   65SAPC  H11A 5282   4.025   1.297   6.008 -1.2572 -0.0572  1.5273
   65SAPC  H11B 5283   4.120   1.325   6.151  0.3348 -0.8126  1.9599
   65SAPC     P 5284   3.933   1.124   6.232  0.6663  0.5972 -0.0788
   65SAPC   O13 5285   3.822   1.216   6.195 -0.2058  0.4768  0.3975
   65SAPC   O14 5286   3.887   0.985   6.259 -0.0474 -0.2179  0.0416
   65SAPC   O12 5287   4.037   1.123   6.111 -0.0454  0.0845 -0.2021
   65SAPC   O11 5288   4.000   1.185   6.359 -0.2930  0.0987 -0.1320
   65SAPC    C1 5289   4.094   1.107   6.439  0.7012 -0.6298  0.4416
   65SAPC    HA 5290   4.167   1.045   6.382 -0.6430 -0.6833 -1.2898
   65SAPC    HB 5291   4.161   1.179   6.491  1.6501 -1.8535  0.9863
   65SAPC    C2 5292   4.030   1.039   6.563  0.4607  0.4603  0.1062
   65SAPC    HS 5293   3.969   0.949   6.538  0.8887  0.0847  0.4126
   65SAPC   O21 5294   3.962   1.141   6.640  0.4749  1.1795  0.4001
   65SAPC   C21 5295   3.839   1.116   6.663  1.1255  0.1423  0.0280
   65SAPC   O22 5296   3.770   1.014   6.631 -0.5322  0.0303 -0.4240
   65SAPC   C22 5297   3.783   1.222   6.750 -0.4174 -0.4850  0.2364
   65SAPC   H2R 5298   3.866   1.272   6.804 -1.1490 -0.2693  1.2082
   65SAPC   H2S 5299   3.741   1.301   6.685 -1.3832  0.4503  1.9089
   65SAPC    C3 5300   4.147   0.980   6.652  0.2141  0.1111 -0.1299
   65SAPC    HX 5301   4.203   1.069   6.688  0.9678 -0.3436 -0.1499
   65SAPC    HY 5302   4.209   0.919   6.582 -1.5597 -0.1231 -1.5840
   65SAPC   O31 5303   4.089   0.904   6.761 -0.4997  0.0061 -0.0908
   65SAPC   C31 5304   4.170   0.863   6.852 -0.7470 -1.3441  0.5228
   65SAPC   O32 5305   4.292   0.884   6.856 -0.8767 -0.2590  0.1821
   65SAPC   C32 5306   4.085   0.802   6.956 -0.4682 -0.1250 -0.4841
   65SAPC   H2X 5307   4.072   0.697   6.924  0.9495 -0.4400 -0.1012
   65SAPC   H2Y 5308   3.987   0.854   6.963  0.0942  0.7533  1.9748
   65SAPC   C23 5309   3.686   1.171   6.859 -0.3859 -0.0374 -0.8539
   65SAPC   H3R 5310   3.619   1.094   6.816 -0.6779  1.4734 -3.2976
   65SAPC   H3S 5311   3.613   1.253   6.880 -1.0058 -0.1911 -2.2898
   65SAPC   C24 5312   3.769   1.132   6.984  0.0578  0.6708  0.3684
   65SAPC   H4R 5313   3.831   1.222   7.006  0.3917  0.4318  0.4019
   65SAPC   H4S 5314   3.835   1.054   6.942 -0.2365  0.0616  1.0250
   65SAPC   C25 5315   3.679   1.080   7.089  0.2063  0.4921  0.1082
   65SAPC   H5R 5316   3.602   1.006   7.063 -0.2102  0.5228  1.2098
   65SAPC   C26 5317   3.702   1.091   7.222 -0.1598 -0.6513 -0.3660
   65SAPC   H6R 5318   3.634   1.039   7.291 -0.4140 -0.1563 -0.2405
   65SAPC   C27 5319   3.817   1.172   7.284  0.6719  0.1533 -0.8047
   65SAPC   H7R 5320   3.776   1.275   7.294 -1.7156 -0.9141  1.5109
   65SAPC   H7S 5321   3.905   1.183   7.217  0.9362  0.8399 -0.3510
   65SAPC   C28 5322   3.859   1.127   7.422 -0.0183 -0.5986 -0.3914
   65SAPC   H8R 5323   3.956   1.075   7.429  1.0148  1.4392  1.7838
   65SAPC   C29 5324   3.801   1.165   7.543 -0.6188  0.7444 -0.0261
   65SAPC   H9R 5325   3.852   1.140   7.637  0.0687 -2.7880 -1.1833
   65SAPC  C210 5326   3.680   1.256   7.553 -0.3727 -0.1370 -0.0280
   65SAPC  H10R 5327   3.612   1.249   7.466  0.1582 -0.5493 -0.4198
   65SAPC  H10S 5328   3.726   1.357   7.551 -0.5135 -0.0916 -1.1808
   65SAPC  C211 5329   3.597   1.227   7.680 -0.3307  1.3224  0.8481
   65SAPC  H11R 5330   3.511   1.160   7.662  1.0037  0.3733 -2.8788
   65SAPC  C212 5331   3.620   1.281   7.806 -0.0742 -0.8050  0.4968
   65SAPC  H12R 5332   3.545   1.271   7.886 -2.9961 -0.7766 -2.0568
   65SAPC  C213 5333   3.731   1.373   7.854 -0.4559  0.2484 -0.0226
   65SAPC  H13R 5334   3.811   1.365   7.777 -1.5801  0.4581 -1.2534
   65SAPC  H13S 5335   3.784   1.331   7.942  2.5581 -0.0492 -1.8314
   65SAPC  C214 5336   3.699   1.517   7.865 -0.7083 -0.3922 -0.1815
   65SAPC  H14R 5337   3.715   1.582   7.777 -0.6182 -0.3499 -0.1343
   65SAPC  C215 5338   3.666   1.576   7.982  0.0063  0.0914 -0.4838
   65SAPC  H15R 5339   3.658   1.686   7.989 -0.0179  0.0445  0.3548
   65SAPC  C216 5340   3.643   1.514   8.120  0.7134  0.6844 -0.4024
   65SAPC  H16R 5341   3.646   1.403   8.121  3.1408  0.6756  1.3515
   65SAPC  H16S 5342   3.544   1.547   8.157  0.4980 -0.8709  0.4670
   65SAPC  C217 5343   3.757   1.555   8.221 -0.3600 -0.5502 -0.1711
   65SAPC  H17R 5344   3.746   1.663   8.243 -1.6599 -0.5687 -0.6483
   65SAPC  H17S 5345   3.854   1.527   8.175  0.7520  2.1785  0.3581
   65SAPC  C218 5346   3.737   1.476   8.352  0.3163 -0.4195  0.1960
   65SAPC  H18R 5347   3.752   1.367   8.336  0.2006 -0.8264  2.4709
   65SAPC  H18S 5348   3.632   1.493   8.383  1.2987  2.5231  2.2950
   65SAPC  C219 5349   3.819   1.535   8.466 -0.3917  0.0092 -0.4963
   65SAPC  H19R 5350   3.801   1.484   8.564  1.4874  1.3060  0.5832
   65SAPC  H19S 5351   3.792   1.642   8.475  0.8351  0.2489  0.7694
   65SAPC  C220 5352   3.974   1.545   8.452  0.5567 -0.1461 -0.1113
   65SAPC  H20R 5353   4.006   1.466   8.381  0.8357 -0.8393  0.7554
   65SAPC  H20S 5354   4.018   1.528   8.553  0.4839 -1.4134 -0.2838
   65SAPC  H20T 5355   4.003   1.646   8.415  0.1855 -0.3457 -0.9457
   65SAPC   C33 5356   4.143   0.802   7.104 -0.0141 -0.5776  0.3159
   65SAPC   H3X 5357   4.206   0.892   7.118  1.6547 -1.5500 -0.6195
   65SAPC   H3Y 5358   4.212   0.716   7.120  0.4277 -0.1384  0.7783
   65SAPC   C34 5359   4.021   0.792   7.212 -0.0673  0.0177 -0.4950
   65SAPC   H4X 5360   3.958   0.705   7.182  3.0325 -2.6759  0.2314
   65SAPC   H4Y 5361   3.981   0.895   7.198 -1.4090 -0.4455 -0.2279
   65SAPC   C35 5362   4.082   0.755   7.346  0.1717  0.4542 -0.7641
   65SAPC   H5X 5363   4.164   0.824   7.374  2.0216 -1.8100 -0.2533
   65SAPC   H5Y 5364   4.136   0.659   7.361  3.0393  2.3367  2.4249
   65SAPC   C36 5365   3.978   0.756   7.456 -0.0365 -0.0335 -0.8122
   65SAPC   H6X 5366   3.898   0.686   7.425 -1.6422  1.6358 -0.5657
   65SAPC   H6Y 5367   3.938   0.859   7.465  0.8450  0.1785  1.1538
   65SAPC   C37 5368   4.043   0.715   7.590 -0.1875  0.5927 -1.1770
   65SAPC   H7X 5369   4.135   0.769   7.619  1.5547 -3.3583  1.6579
   65SAPC   H7Y 5370   4.064   0.606   7.589 -0.6388  0.4972 -0.8446
   65SAPC   C38 5371   3.945   0.733   7.712  0.3669 -0.0666 -0.3936
   65SAPC   H8X 5372   3.853   0.676   7.688 -0.3427  0.6848  0.4822
   65SAPC   H8Y 5373   3.920   0.841   7.725  0.3560  0.1389 -1.9348
   65SAPC   C39 5374   4.010   0.684   7.843 -0.3020  0.3743 -0.3882
   65SAPC   H9X 5375   4.059   0.764   7.902 -1.5804  0.6989  0.2781
   65SAPC   H9Y 5376   4.093   0.612   7.830 -1.1674 -0.6372 -0.4217
   65SAPC  C310 5377   3.903   0.622   7.939  0.8351  0.4940  0.1269
   65SAPC  H10X 5378   3.852   0.535   7.893 -1.2556  0.9348  1.4835
   65SAPC  H10Y 5379   3.816   0.685   7.969  0.6768  0.3670 -0.0650
   65SAPC  C311 5380   3.955   0.554   8.071 -0.0032  0.4415  0.1392
   65SAPC  H11X 5381   4.039   0.491   8.035  0.7060  0.5220  1.5723
   65SAPC  H11Y 5382   3.885   0.488   8.127  0.1689  0.6051  0.5503
   65SAPC  C312 5383   4.018   0.640   8.180 -0.8118  0.7012  0.4559
   65SAPC  H12X 5384   4.099   0.701   8.135 -0.4220  0.2495  0.5321
   65SAPC  H12Y 5385   4.066   0.579   8.260  0.1757  2.3039  1.1278
   65SAPC  C313 5386   3.904   0.713   8.251  0.5336  0.0448 -0.3071
   65SAPC  H13X 5387   3.846   0.779   8.182  2.3142  1.1859 -0.7860
   65SAPC  H13Y 5388   3.942   0.784   8.328  0.0939  1.3385 -1.2350
   65SAPC  C314 5389   3.817   0.627   8.348 -0.2032 -0.4482 -0.2662
   65SAPC  H14X 5390   3.887   0.581   8.422 -0.3162 -1.4121 -0.7445
   65SAPC  H14Y 5391   3.761   0.545   8.299 -1.9459  1.1229 -1.0442
   65SAPC  C315 5392   3.711   0.712   8.425  0.1631  0.0563 -0.1597
   65SAPC  H15X 5393   3.626   0.731   8.356 -1.9441 -5.7291  0.3156
   65SAPC  H15Y 5394   3.764   0.808   8.446 -0.5524  0.0332  1.9424
   65SAPC  C316 5395   3.663   0.656   8.557 -0.0329  0.1432  0.4392
   65SAPC  H16X 5396   3.745   0.587   8.586 -0.2875  0.5125  2.1418
   65SAPC  H16Y 5397   3.573   0.594   8.538 -0.0650  0.3508 -0.1084
   65SAPC  C317 5398   3.623   0.764   8.658 -0.3331  0.3596  0.3852
   65SAPC  H17X 5399   3.702   0.842   8.656  0.7872 -0.7457  0.1705
   65SAPC  H17Y 5400   3.613   0.716   8.758 -0.7287 -2.1872 -0.7808
   65SAPC  C318 5401   3.500   0.851   8.617 -0.2698  0.2909 -0.3600
   65SAPC  H18X 5402   3.488   0.919   8.704  0.6883  0.0067 -0.0051
   65SAPC  H18Y 5403   3.410   0.787   8.605 -2.1247  2.8076 -0.8435
   65SAPC  H18Z 5404   3.533   0.897   8.521 -0.9590  2.2138  0.2558
   66SAPC     N 5405   2.781   1.099   6.003  0.3537  0.4593  0.2660
   66SAPC   C12 5406   2.649   1.179   6.012  0.6000  0.7937 -0.3958
   66SAPC  H12A 5407   2.581   1.127   5.945  0.1774 -1.8341  1.8893
   66SAPC  H12B 5408   2.659   1.276   5.966 -1.3553  1.4623  0.5167
   66SAPC   C13 5409   2.768   0.963   6.073 -0.3502 -0.0951  0.5658
   66SAPC  H13A 5410   2.726   0.976   6.171 -2.6731 -1.2112 -0.2207
   66SAPC  H13B 5411   2.699   0.896   6.024 -1.2666 -0.0594  1.7735
   66SAPC  H13C 5412   2.866   0.917   6.069 -0.0866  0.5172 -0.1189
   66SAPC   C14 5413   2.829   1.089   5.861 -0.5746  0.5205  0.3132
   66SAPC  H14A 5414   2.808   1.181   5.808  0.0086  0.4957  0.0358
   66SAPC  H14B 5415   2.937   1.082   5.856 -0.4438  0.5550  2.3533
   66SAPC  H14C 5416   2.772   1.011   5.813 -1.7708  0.7825  1.2754
   66SAPC   C15 5417   2.887   1.175   6.076 -0.5375  0.2479  0.2591
   66SAPC  H15A 5418   2.904   1.277   6.046 -1.0388  0.0411 -0.7533
   66SAPC  H15B 5419   2.878   1.175   6.184  1.3405 -0.1298  0.4447
   66SAPC  H15C 5420   2.982   1.130   6.051 -1.6092 -2.3084  0.4988
   66SAPC   C11 5421   2.574   1.203   6.150  0.4425 -0.3158  0.3388
   66SAPC  H11A 5422   2.492   1.272   6.119  0.3468 -0.1179  0.9994
   66SAPC  H11B 5423   2.643   1.259   6.217  1.1200 -1.1864  0.3824
   66SAPC     P 5424   2.391   1.018   6.175  0.3048  0.0034 -0.0389
   66SAPC   O13 5425   2.354   1.070   6.039 -0.6390 -0.0590 -0.5158
   66SAPC   O14 5426   2.408   0.870   6.181  0.0797  0.1650 -0.1485
   66SAPC   O12 5427   2.520   1.082   6.217 -0.9246  0.4022  0.2444
   66SAPC   O11 5428   2.281   1.059   6.287 -0.2809 -0.3242  0.4436
   66SAPC    C1 5429   2.285   1.186   6.352  0.2006 -0.0483 -0.0044
   66SAPC    HA 5430   2.340   1.267   6.299 -0.1564 -0.3781 -0.8992
   66SAPC    HB 5431   2.180   1.215   6.374  0.7267  0.1442  2.5669
   66SAPC    C2 5432   2.351   1.171   6.486 -0.6272  0.9360  0.2067
   66SAPC    HS 5433   2.452   1.132   6.460 -1.1536  0.2974 -0.9376
   66SAPC   O21 5434   2.267   1.084   6.572 -0.3008 -0.3508 -0.5314
   66SAPC   C21 5435   2.342   1.012   6.649 -0.6660 -0.0164 -0.0757
   66SAPC   O22 5436   2.470   1.010   6.653 -0.0396 -0.3299  0.6493
   66SAPC   C22 5437   2.253   0.913   6.717  0.0398  0.7365  0.0896
   66SAPC   H2R 5438   2.192   0.866   6.637  1.1790  0.6385 -0.7560
   66SAPC   H2S 5439   2.317   0.835   6.764  0.6169  0.7715 -0.6120
   66SAPC    C3 5440   2.367   1.310   6.558  0.6894  0.0582 -0.6058
   66SAPC    HX 5441   2.265   1.340   6.592  1.2391 -1.6838  3.1692
   66SAPC    HY 5442   2.401   1.383   6.482  1.1437 -1.6969 -2.1632
   66SAPC   O31 5443   2.456   1.305   6.669  0.2360  0.0044 -0.0739
   66SAPC   C31 5444   2.495   1.424   6.724  0.0926  0.4250 -0.5010
   66SAPC   O32 5445   2.445   1.532   6.694 -0.0975  0.4980  0.1489
   66SAPC   C32 5446   2.617   1.398   6.808 -0.3155 -0.0752 -0.9760
   66SAPC   H2X 5447   2.683   1.324   6.757  0.1745 -0.4317  0.1544
   66SAPC   H2Y 5448   2.594   1.343   6.902  1.2216 -0.5325 -0.8419
   66SAPC   C23 5449   2.175   0.981   6.830  0.7932  0.6664 -0.2727
   66SAPC   H3R 5450   2.133   0.893   6.884  1.0009  1.5519  1.4201
   66SAPC   H3S 5451   2.090   1.036   6.784  1.3948 -0.2064 -2.5302
   66SAPC   C24 5452   2.251   1.069   6.931 -0.7172  0.1589  0.3332
   66SAPC   H4R 5453   2.187   1.099   7.017 -0.5543  2.4290 -0.2516
   66SAPC   H4S 5454   2.269   1.169   6.886 -1.4887  1.8208  3.4086
   66SAPC   C25 5455   2.369   0.993   6.989 -0.0518  0.3862  0.7468
   66SAPC   H5R 5456   2.451   0.966   6.921 -0.4311 -1.4523  0.9652
   66SAPC   C26 5457   2.384   0.952   7.115 -0.1911  0.8263 -0.7794
   66SAPC   H6R 5458   2.472   0.889   7.134 -0.6227  0.2173 -0.7906
   66SAPC   C27 5459   2.285   0.983   7.222 -0.8369  0.2109  0.0738
   66SAPC   H7R 5460   2.306   0.895   7.287  1.5586 -1.9350 -3.3291
   66SAPC   H7S 5461   2.179   0.974   7.189 -0.3568  0.2328 -1.5198
   66SAPC   C28 5462   2.313   1.114   7.297 -0.2671  0.5772 -0.2349
   66SAPC   H8R 5463   2.370   1.192   7.243 -1.4209  0.6978 -1.3160
   66SAPC   C29 5464   2.282   1.135   7.433 -0.7035  0.0417  0.2822
   66SAPC   H9R 5465   2.318   1.230   7.474 -0.4578  1.2629 -2.5842
   66SAPC  C210 5466   2.217   1.046   7.539  0.6233 -0.7506 -0.0262
   66SAPC  H10R 5467   2.222   0.939   7.508  0.2526 -0.8648  0.2948
   66SAPC  H10S 5468   2.108   1.065   7.548  0.2350 -1.5666 -2.3622
   66SAPC  C211 5469   2.302   1.058   7.664  1.2129 -0.5592  0.0633
   66SAPC  H11R 5470   2.408   1.027   7.656  1.0539 -1.2125  0.3915
   66SAPC  C212 5471   2.260   1.099   7.785  0.0377 -0.1711  0.2524
   66SAPC  H12R 5472   2.329   1.082   7.869  1.5926 -1.0383 -1.1340
   66SAPC  C213 5473   2.122   1.132   7.831 -0.3118 -0.5864 -0.2976
   66SAPC  H13R 5474   2.064   1.043   7.864 -2.6603  0.6068 -0.9694
   66SAPC  H13S 5475   2.060   1.170   7.747 -1.7244 -1.1924  0.4377
   66SAPC  C214 5476   2.138   1.235   7.943  0.1435  0.5438 -0.7528
   66SAPC  H14R 5477   2.197   1.324   7.917  1.4771 -0.3278 -0.8448
   66SAPC  C215 5478   2.104   1.226   8.072 -0.2416  1.0735 -0.1649
   66SAPC  H15R 5479   2.145   1.292   8.149  0.2701 -2.0567  2.4690
   66SAPC  C216 5480   2.035   1.106   8.142  0.2048  0.4821 -0.8688
   66SAPC  H16R 5481   1.973   1.057   8.064  0.6612 -0.3749 -0.7021
   66SAPC  H16S 5482   1.966   1.125   8.227  1.4561 -1.0048  0.5174
   66SAPC  C217 5483   2.129   0.988   8.177  0.4093  0.1994  0.0513
   66SAPC  H17R 5484   2.181   0.963   8.082  1.8284 -0.6795  1.0230
   66SAPC  H17S 5485   2.063   0.904   8.204  0.5446  0.3054  0.7228
   66SAPC  C218 5486   2.218   1.018   8.297 -0.3891 -0.4816 -0.1883
   66SAPC  H18R 5487   2.290   1.095   8.263 -1.1362 -0.0292 -0.7587
   66SAPC  H18S 5488   2.267   0.922   8.326 -0.8019 -0.5943  0.1476
   66SAPC  C219 5489   2.153   1.061   8.429 -0.3322  0.4112  0.8438
   66SAPC  H19R 5490   2.106   0.975   8.482 -1.6996  0.9618  0.5660
   66SAPC  H19S 5491   2.076   1.138   8.409 -0.0531  0.5552  0.3188
   66SAPC  C220 5492   2.252   1.136   8.523  0.2480  0.3057 -0.7170
   66SAPC  H20R 5493   2.251   1.246   8.505 -3.2111  0.6662  0.8686
   66SAPC  H20S 5494   2.351   1.085   8.521 -0.4643 -1.1448 -2.8111
   66SAPC  H20T 5495   2.217   1.134   8.628  1.4737  1.6231 -0.2459
   66SAPC   C33 5496   2.692   1.537   6.851  0.5164  0.7470  0.2383
   66SAPC   H3X 5497   2.697   1.610   6.767  0.2788 -0.8509 -1.2473
   66SAPC   H3Y 5498   2.798   1.523   6.882  0.6803 -0.9571 -0.9420
   66SAPC   C34 5499   2.617   1.588   6.974  0.2299 -0.4623  0.7656
   66SAPC   H4X 5500   2.637   1.517   7.057 -0.2771 -0.1585  1.1568
   66SAPC   H4Y 5501   2.507   1.593   6.958  0.2029 -0.6020  0.9084
   66SAPC   C35 5502   2.676   1.725   7.004  0.1959 -0.5890  0.4113
   66SAPC   H5X 5503   2.685   1.786   6.911  1.0023 -0.7487  0.3820
   66SAPC   H5Y 5504   2.782   1.713   7.033  0.7489 -1.7362 -1.8070
   66SAPC   C36 5505   2.601   1.810   7.106 -0.2947  0.6101  0.2013
   66SAPC   H6X 5506   2.624   1.769   7.207  1.2717  0.2086 -0.2931
   66SAPC   H6Y 5507   2.493   1.792   7.088  0.1079 -0.9040 -0.9101
   66SAPC   C37 5508   2.635   1.960   7.116 -0.3100  0.3717  0.0396
   66SAPC   H7X 5509   2.644   2.010   7.017 -0.6220 -0.8202 -0.6125
   66SAPC   H7Y 5510   2.731   1.965   7.173 -0.5972 -1.2669  0.7464
   66SAPC   C38 5511   2.539   2.042   7.199  0.4458 -0.3125  0.5971
   66SAPC   H8X 5512   2.455   2.087   7.142  0.8146  0.9869  1.0359
   66SAPC   H8Y 5513   2.589   2.136   7.228  0.6886  0.1399 -1.1907
   66SAPC   C39 5514   2.490   1.977   7.326  0.9271 -0.2056  0.8028
   66SAPC   H9X 5515   2.431   1.887   7.299  0.3478 -0.3626  2.4670
   66SAPC   H9Y 5516   2.415   2.052   7.361 -0.3708 -2.2553  2.6556
   66SAPC  C310 5517   2.587   1.953   7.444 -0.2385 -0.5196  0.3626
   66SAPC  H10X 5518   2.676   2.016   7.425 -0.7574 -0.0656 -0.6127
   66SAPC  H10Y 5519   2.626   1.849   7.435  0.9613  0.0622 -1.8519
   66SAPC  C311 5520   2.541   1.984   7.588  0.0950 -0.1111  0.6178
   66SAPC  H11X 5521   2.443   1.934   7.605 -1.0797  0.8903 -2.5259
   66SAPC  H11Y 5522   2.520   2.093   7.589 -1.2987 -0.3648  0.7949
   66SAPC  C312 5523   2.644   1.956   7.704 -0.0994 -0.1631 -0.4570
   66SAPC  H12X 5524   2.739   2.009   7.680 -0.5787  0.9908  0.0934
   66SAPC  H12Y 5525   2.660   1.846   7.698  0.6597 -0.0266 -1.0232
   66SAPC  C313 5526   2.588   1.990   7.841  0.3995  0.2818 -0.2445
   66SAPC  H13X 5527   2.486   1.945   7.849 -0.6635  2.6129  0.2795
   66SAPC  H13Y 5528   2.556   2.096   7.833 -2.6830 -0.6042 -1.0404
   66SAPC  C314 5529   2.672   1.951   7.958 -0.5614  0.2752  0.0113
   66SAPC  H14X 5530   2.778   1.979   7.946 -0.7166  1.0291  0.2780
   66SAPC  H14Y 5531   2.649   1.842   7.964 -4.0144  0.8585 -0.1548
   66SAPC  C315 5532   2.625   2.015   8.094  0.1224 -0.1913 -0.7867
   66SAPC  H15X 5533   2.514   2.019   8.088  0.1667 -0.2524 -1.9159
   66SAPC  H15Y 5534   2.676   2.113   8.100  2.0627 -1.2400  0.8277
   66SAPC  C316 5535   2.649   1.932   8.222  0.4160 -0.5591  0.8992
   66SAPC  H16X 5536   2.758   1.917   8.234  0.5457  0.8981  1.9307
   66SAPC  H16Y 5537   2.592   1.838   8.207 -1.5376  0.3214  2.2526
   66SAPC  C317 5538   2.590   2.004   8.348 -0.2701  0.6659 -0.3560
   66SAPC  H17X 5539   2.501   2.060   8.313  0.3585  0.5970 -2.1763
   66SAPC  H17Y 5540   2.667   2.076   8.383  1.5196 -1.7941  1.0529
   66SAPC  C318 5541   2.554   1.909   8.464 -0.3102 -1.0823 -0.1415
   66SAPC  H18X 5542   2.529   1.970   8.554  3.9190  2.6872 -1.1459
   66SAPC  H18Y 5543   2.643   1.847   8.486  0.5919  0.5242  0.9351
   66SAPC  H18Z 5544   2.470   1.842   8.435 -1.3889 -0.2492  0.8896
   67SAPC     N 5545   3.319   2.208   6.105 -0.4629 -0.3517 -0.3158
   67SAPC   C12 5546   3.317   2.089   6.199  0.0103  0.3493  0.3083
   67SAPC  H12A 5547   3.345   1.997   6.150  0.5732  0.8033 -0.2381
   67SAPC  H12B 5548   3.216   2.061   6.226  1.0116 -3.5183  0.5560
   67SAPC   C13 5549   3.245   2.173   5.980  0.0017  0.4661 -0.2843
   67SAPC  H13A 5550   3.236   2.256   5.911  0.0942  0.4237 -0.3476
   67SAPC  H13B 5551   3.287   2.085   5.933  0.8087  0.4246  0.5010
   67SAPC  H13C 5552   3.144   2.144   6.005 -0.0834  0.6603 -0.3942
   67SAPC   C14 5553   3.252   2.330   6.172 -0.8586  0.5959  0.4537
   67SAPC  H14A 5554   3.155   2.305   6.212  0.1485 -0.7774  2.1992
   67SAPC  H14B 5555   3.318   2.355   6.254 -1.3981 -1.8370  1.7051
   67SAPC  H14C 5556   3.239   2.413   6.103  0.0315 -0.3791 -0.9299
   67SAPC   C15 5557   3.461   2.247   6.069  0.3143  0.2258  0.3101
   67SAPC  H15A 5558   3.464   2.342   6.018  0.4570 -0.5513 -1.1720
   67SAPC  H15B 5559   3.521   2.237   6.158 -0.6831 -2.8097  0.7765
   67SAPC  H15C 5560   3.508   2.170   6.010  0.4442  1.6357 -1.5085
   67SAPC   C11 5561   3.390   2.105   6.335 -0.3698 -0.6307  0.2127
   67SAPC  H11A 5562   3.364   2.023   6.405 -0.0690 -2.1913 -1.4358
   67SAPC  H11B 5563   3.368   2.203   6.383  1.7311  0.5921 -1.1398
   67SAPC     P 5564   3.635   2.046   6.408 -0.1871  0.1965 -0.2879
   67SAPC   O13 5565   3.648   1.904   6.377  0.0185  0.0109  0.5993
   67SAPC   O14 5566   3.763   2.119   6.398 -0.5322  0.9199 -0.1132
   67SAPC   O12 5567   3.529   2.113   6.312 -0.3362  0.0686  0.0828
   67SAPC   O11 5568   3.574   2.069   6.552 -0.4705 -0.0454 -0.2378
   67SAPC    C1 5569   3.561   2.205   6.595  0.3911 -0.0142  0.0934
   67SAPC    HA 5570   3.570   2.281   6.514  0.2931  0.9528  0.9733
   67SAPC    HB 5571   3.461   2.225   6.639  1.4932 -0.2413  2.8642
   67SAPC    C2 5572   3.656   2.251   6.714 -0.7863  0.9548  0.3280
   67SAPC    HS 5573   3.759   2.248   6.672 -1.3045  0.3663 -0.9400
   67SAPC   O21 5574   3.626   2.176   6.834 -0.1082  0.0475  0.3388
   67SAPC   C21 5575   3.735   2.105   6.861 -0.5163 -0.3079  0.5173
   67SAPC   O22 5576   3.840   2.101   6.801 -0.2088  0.1703  0.6319
   67SAPC   C22 5577   3.712   2.023   6.994  0.6315 -0.0336 -0.5110
   67SAPC   H2R 5578   3.655   1.930   6.974  1.3203 -0.9888  1.6979
   67SAPC   H2S 5579   3.814   1.993   7.029  0.9608  0.6094 -0.9042
   67SAPC    C3 5580   3.646   2.405   6.733  0.0631 -0.5874  0.3276
   67SAPC    HX 5581   3.540   2.437   6.733 -0.0851 -1.0380  1.7399
   67SAPC    HY 5582   3.680   2.458   6.641 -2.6550 -1.1351 -1.1073
   67SAPC   O31 5583   3.724   2.455   6.847  0.0273  0.8563 -0.6654
   67SAPC   C31 5584   3.655   2.476   6.969 -0.0033  0.3257 -0.4058
   67SAPC   O32 5585   3.536   2.481   6.977  0.6525 -0.4344  0.3465
   67SAPC   C32 5586   3.752   2.512   7.080  0.2370  0.6612  0.7342
   67SAPC   H2X 5587   3.811   2.419   7.096 -0.2999  0.7601  3.6716
   67SAPC   H2Y 5588   3.700   2.519   7.177  0.7598 -2.5224  1.3484
   67SAPC   C23 5589   3.645   2.095   7.121  0.6958 -0.3487 -0.5372
   67SAPC   H3R 5590   3.537   2.119   7.104  1.2316  2.0124 -1.0457
   67SAPC   H3S 5591   3.697   2.193   7.132  0.2554 -0.3076  1.5652
   67SAPC   C24 5592   3.671   2.025   7.257  0.6478 -0.3235 -0.2279
   67SAPC   H4R 5593   3.660   1.917   7.238  0.5086 -0.9192  2.7747
   67SAPC   H4S 5594   3.590   2.055   7.327  0.3087 -1.4035 -0.1462
   67SAPC   C25 5595   3.803   2.049   7.318  0.3783  0.2198  0.0692
   67SAPC   H5R 5596   3.880   1.982   7.277  1.0456  2.0334 -1.7923
   67SAPC   C26 5597   3.829   2.149   7.402 -0.4232  0.6080  0.3719
   67SAPC   H6R 5598   3.934   2.165   7.429  0.2907 -1.1159 -1.1864
   67SAPC   C27 5599   3.719   2.246   7.454 -0.2849  0.5109  0.1429
   67SAPC   H7R 5600   3.693   2.217   7.558 -2.1386 -2.6976 -1.0791
   67SAPC   H7S 5601   3.619   2.240   7.407 -0.2697  2.5338 -0.2083
   67SAPC   C28 5602   3.762   2.393   7.466 -0.2168  0.0966  0.1253
   67SAPC   H8R 5603   3.869   2.415   7.471 -0.2949  0.3607  0.7934
   67SAPC   C29 5604   3.667   2.491   7.486 -0.0216 -0.3227 -0.1866
   67SAPC   H9R 5605   3.699   2.594   7.507 -2.0845 -0.0300  2.1613
   67SAPC  C210 5606   3.519   2.464   7.492  0.2933  0.5619  0.2325
   67SAPC  H10R 5607   3.487   2.422   7.394 -0.0303 -0.3913  0.7299
   67SAPC  H10S 5608   3.475   2.565   7.499  1.6586  1.1953  0.0215
   67SAPC  C211 5609   3.470   2.370   7.602 -0.0386 -0.2555 -0.3471
   67SAPC  H11R 5610   3.421   2.275   7.578 -1.0761 -0.1471  1.1739
   67SAPC  C212 5611   3.458   2.401   7.735 -0.3700 -0.2639  0.3031
   67SAPC  H12R 5612   3.423   2.324   7.805 -1.5075  0.4768  0.5760
   67SAPC  C213 5613   3.502   2.525   7.803  0.5005 -0.0576  0.0114
   67SAPC  H13R 5614   3.430   2.538   7.886  0.0357 -2.2961  0.0191
   67SAPC  H13S 5615   3.487   2.615   7.740  0.0788  0.6262  1.0672
   67SAPC  C214 5616   3.641   2.537   7.865 -0.1906  0.2286  0.6638
   67SAPC  H14R 5617   3.722   2.528   7.792 -0.5316  0.9732  0.1807
   67SAPC  C215 5618   3.667   2.541   7.998 -0.0469 -0.0038  0.5984
   67SAPC  H15R 5619   3.766   2.571   8.035 -0.0589 -0.7859  1.2791
   67SAPC  C216 5620   3.567   2.542   8.108 -0.4018 -0.6310  0.5692
   67SAPC  H16R 5621   3.463   2.528   8.072  0.0318  1.7967 -1.9345
   67SAPC  H16S 5622   3.576   2.639   8.162  0.8435 -0.8739  0.8330
   67SAPC  C217 5623   3.600   2.431   8.201  0.7305  0.0150 -0.3703
   67SAPC  H17R 5624   3.702   2.437   8.247 -0.0443  2.1168  1.2459
   67SAPC  H17S 5625   3.572   2.345   8.137  0.1912  0.5636 -0.8732
   67SAPC  C218 5626   3.508   2.419   8.326  0.8653  0.0895  0.1092
   67SAPC  H18R 5627   3.404   2.443   8.297  0.8422 -0.1934 -0.0507
   67SAPC  H18S 5628   3.522   2.499   8.402 -1.1903 -1.5450  2.3835
   67SAPC  C219 5629   3.525   2.280   8.395 -0.3559  0.0197  0.1525
   67SAPC  H19R 5630   3.632   2.279   8.426 -0.2160 -0.2228 -0.3330
   67SAPC  H19S 5631   3.506   2.195   8.326 -0.7739 -0.5670  0.9711
   67SAPC  C220 5632   3.444   2.272   8.518 -1.0162 -0.4555 -0.4786
   67SAPC  H20R 5633   3.424   2.368   8.570 -1.2593 -0.3460 -0.7777
   67SAPC  H20S 5634   3.484   2.194   8.587 -1.7927  0.6616  1.3034
   67SAPC  H20T 5635   3.341   2.241   8.492 -0.5887 -2.9324  0.5165
   67SAPC   C33 5636   3.856   2.622   7.053 -0.0157 -0.2858 -0.0556
   67SAPC   H3X 5637   3.895   2.616   6.948 -0.8127 -0.1947 -0.3611
   67SAPC   H3Y 5638   3.946   2.602   7.115 -1.4933  0.0876  2.3246
   67SAPC   C34 5639   3.806   2.757   7.085 -0.6023 -0.3955  1.1439
   67SAPC   H4X 5640   3.706   2.777   7.041  0.1658  0.9872 -0.1000
   67SAPC   H4Y 5641   3.868   2.841   7.045  0.4620 -1.5815  0.2124
   67SAPC   C35 5642   3.793   2.780   7.235 -0.7906  0.2024  0.3594
   67SAPC   H5X 5643   3.865   2.718   7.293 -1.9802 -2.6674 -1.0533
   67SAPC   H5Y 5644   3.701   2.735   7.277 -1.1218  1.1382  0.6694
   67SAPC   C36 5645   3.809   2.927   7.276 -0.5946 -0.5851 -0.7521
   67SAPC   H6X 5646   3.732   2.988   7.224 -0.9500  0.5656  1.0024
   67SAPC   H6Y 5647   3.913   2.961   7.260 -0.4443 -1.9827 -3.0464
   67SAPC   C37 5648   3.782   2.939   7.425 -0.3210  0.7093 -0.5013
   67SAPC   H7X 5649   3.686   2.896   7.462  1.4601 -2.1206  1.2249
   67SAPC   H7Y 5650   3.763   3.047   7.447  0.9012  0.6258  1.1589
   67SAPC   C38 5651   3.892   2.887   7.520  0.6324  0.0517  0.2580
   67SAPC   H8X 5652   3.987   2.939   7.497  0.5818  0.1313  0.2290
   67SAPC   H8Y 5653   3.902   2.779   7.496  0.9998  0.2684 -0.6055
   67SAPC   C39 5654   3.859   2.905   7.664 -0.0586  0.3996  0.2329
   67SAPC   H9X 5655   3.769   2.848   7.699 -2.0441  2.3370 -1.4426
   67SAPC   H9Y 5656   3.833   3.009   7.695 -0.7528  0.6281 -1.0801
   67SAPC  C310 5657   3.976   2.869   7.755  0.5745  0.4468 -0.1520
   67SAPC  H10X 5658   4.060   2.937   7.728  1.2442 -1.1217 -2.3134
   67SAPC  H10Y 5659   4.008   2.764   7.738  0.7785  0.7117 -1.4756
   67SAPC  C311 5660   3.950   2.880   7.912  0.0182  0.6829  0.9274
   67SAPC  H11X 5661   3.883   2.799   7.948  0.5732  0.9915  2.7396
   67SAPC  H11Y 5662   3.902   2.977   7.937 -1.8260  0.4365 -1.3464
   67SAPC  C312 5663   4.084   2.883   7.996  0.0332  0.4493 -0.6399
   67SAPC  H12X 5664   4.138   2.973   7.959  0.4020  1.0118  1.2057
   67SAPC  H12Y 5665   4.146   2.793   7.974  0.4883  0.3061  1.1025
   67SAPC  C313 5666   4.076   2.896   8.151  0.2509  0.9056  0.5378
   67SAPC  H13X 5667   4.034   2.995   8.181 -2.4245 -0.4411  1.5592
   67SAPC  H13Y 5668   4.177   2.914   8.192  0.2862  1.6419  0.1553
   67SAPC  C314 5669   4.002   2.780   8.217 -0.2702 -0.7746  0.1591
   67SAPC  H14X 5670   4.050   2.686   8.184  1.8050  0.7032 -1.3009
   67SAPC  H14Y 5671   3.898   2.788   8.179 -0.4952  2.1140  1.1700
   67SAPC  C315 5672   4.000   2.785   8.372  0.1745  0.0191  0.9622
   67SAPC  H15X 5673   4.103   2.796   8.414  0.9814  0.5265 -1.0540
   67SAPC  H15Y 5674   3.974   2.683   8.408  0.2248 -0.3548 -0.0466
   67SAPC  C316 5675   3.901   2.886   8.437 -0.1582 -0.5107 -0.6081
   67SAPC  H16X 5676   3.801   2.885   8.387 -1.5580  2.0504  1.8675
   67SAPC  H16Y 5677   3.932   2.989   8.407  1.6615 -0.9024 -0.2242
   67SAPC  C317 5678   3.888   2.867   8.591 -0.4772 -0.2699 -0.8614
   67SAPC  H17X 5679   3.993   2.852   8.626 -0.6309 -2.0625 -1.0997
   67SAPC  H17Y 5680   3.825   2.778   8.611  1.2028 -1.0869  1.1821
   67SAPC  C318 5681   3.839   2.995   8.657 -0.0382 -0.2305 -0.4078
   67SAPC  H18X 5682   3.746   3.028   8.607 -0.8817  1.6159  2.1924
   67SAPC  H18Y 5683   3.912   3.076   8.638  0.1008  0.6015  3.0904
   67SAPC  H18Z 5684   3.823   2.985   8.766 -0.4670  0.1900 -0.4310
   68SAPC     N 5685   1.033   2.568   5.882  0.1963 -0.1897  0.4771
   68SAPC   C12 5686   1.042   2.542   6.028  0.0986 -0.2463  0.9053
   68SAPC  H12A 5687   1.127   2.476   6.037  1.5873  1.5052  0.4995
   68SAPC  H12B 5688   0.960   2.489   6.073 -0.6894 -2.4346 -2.7090
   68SAPC   C13 5689   0.941   2.681   5.848  0.4890  0.2034 -0.1348
   68SAPC  H13A 5690   0.835   2.661   5.856  0.5842  0.0162  0.8839
   68SAPC  H13B 5691   0.959   2.771   5.905  0.9044 -0.8819  1.5337
   68SAPC  H13C 5692   0.940   2.701   5.742 -1.7519 -2.6603 -0.7883
   68SAPC   C14 5693   1.171   2.596   5.832 -0.2734  1.2605  0.1815
   68SAPC  H14A 5694   1.239   2.513   5.847  0.4806  2.0101  1.0817
   68SAPC  H14B 5695   1.174   2.618   5.726  0.5890  1.1114  0.1624
   68SAPC  H14C 5696   1.221   2.672   5.891  1.8989  0.4776 -0.5349
   68SAPC   C15 5697   0.983   2.448   5.806 -0.1443  0.4599  0.0845
   68SAPC  H15A 5698   0.972   2.468   5.700 -1.1417 -0.0278  0.0754
   68SAPC  H15B 5699   1.045   2.361   5.814  0.7058  1.0256 -0.2566
   68SAPC  H15C 5700   0.887   2.422   5.848  0.4513 -0.8568  0.6914
   68SAPC   C11 5701   1.075   2.654   6.132  0.2772 -0.3441 -0.4704
   68SAPC  H11A 5702   1.079   2.613   6.235 -0.9042  0.6056 -0.0144
   68SAPC  H11B 5703   0.983   2.716   6.137  0.0998 -0.7202  2.7717
   68SAPC     P 5704   1.329   2.680   6.165  0.0761  0.5004 -0.0423
   68SAPC   O13 5705   1.342   2.529   6.156 -0.1541 -0.7120 -1.0468
   68SAPC   O14 5706   1.438   2.758   6.107  0.0792 -0.1356 -0.3059
   68SAPC   O12 5707   1.192   2.730   6.102 -0.2348  0.4466 -0.1321
   68SAPC   O11 5708   1.327   2.720   6.318  0.0821 -0.0877  0.1687
   68SAPC    C1 5709   1.279   2.847   6.363  0.6057 -0.2384 -0.3484
   68SAPC    HA 5710   1.298   2.937   6.300  1.8480 -0.0215  0.2974
   68SAPC    HB 5711   1.170   2.837   6.380  0.9675 -1.4158  1.5186
   68SAPC    C2 5712   1.343   2.887   6.499  0.1419  0.4474 -0.1424
   68SAPC    HS 5713   1.451   2.865   6.491  0.6092  1.5319  2.2656
   68SAPC   O21 5714   1.281   2.805   6.600 -0.1366  0.2389  0.0219
   68SAPC   C21 5715   1.357   2.760   6.694  0.2103 -0.4468 -0.3896
   68SAPC   O22 5716   1.478   2.777   6.701 -0.0065  0.5992 -0.1885
   68SAPC   C22 5717   1.277   2.670   6.784  0.6582 -0.2293 -0.2750
   68SAPC   H2R 5718   1.206   2.727   6.848  0.0317 -1.3040  0.0172
   68SAPC   H2S 5719   1.219   2.598   6.723 -1.1795 -0.1680  1.2830
   68SAPC    C3 5720   1.312   3.032   6.538  0.0777 -0.0456 -0.0318
   68SAPC    HX 5721   1.207   3.047   6.572 -0.0069 -1.0088  0.1636
   68SAPC    HY 5722   1.327   3.105   6.456  3.3080  1.0171  1.3391
   68SAPC   O31 5723   1.394   3.080   6.654 -0.4570 -0.4736  0.1038
   68SAPC   C31 5724   1.521   3.086   6.627  0.2112  0.4918 -0.3134
   68SAPC   O32 5725   1.572   3.064   6.523  0.0889 -0.2308  0.3044
   68SAPC   C32 5726   1.593   3.125   6.754 -0.6958 -0.0597  0.4454
   68SAPC   H2X 5727   1.599   3.234   6.773  3.3898  0.0662 -0.6393
   68SAPC   H2Y 5728   1.700   3.106   6.730 -0.9780 -2.0961  0.5914
   68SAPC   C23 5729   1.365   2.585   6.881  0.5172 -0.6785  0.6301
   68SAPC   H3R 5730   1.440   2.528   6.822  0.5668  1.1210 -1.1240
   68SAPC   H3S 5731   1.309   2.502   6.930  0.3641 -1.5761 -0.9982
   68SAPC   C24 5732   1.405   2.664   7.012  0.1450  0.2115 -0.4518
   68SAPC   H4R 5733   1.324   2.692   7.082  1.0031 -0.0373  0.6663
   68SAPC   H4S 5734   1.450   2.763   6.992  0.1146  0.6751  1.5895
   68SAPC   C25 5735   1.501   2.580   7.080 -0.1026 -0.4265 -0.3806
   68SAPC   H5R 5736   1.586   2.554   7.016 -0.2152 -2.0477  0.0771
   68SAPC   C26 5737   1.490   2.532   7.207  0.9507  0.3742 -0.2676
   68SAPC   H6R 5738   1.574   2.467   7.236  1.6816  1.7666  0.8997
   68SAPC   C27 5739   1.376   2.554   7.303 -0.0370  0.2328  0.2255
   68SAPC   H7R 5740   1.301   2.624   7.263  0.1192 -0.2134 -0.9085
   68SAPC   H7S 5741   1.409   2.604   7.396 -0.6306  1.5520 -0.2537
   68SAPC   C28 5742   1.311   2.425   7.326 -0.0879  0.4236  0.2454
   68SAPC   H8R 5743   1.257   2.379   7.241  2.4145 -3.1730  0.3730
   68SAPC   C29 5744   1.302   2.359   7.443  0.0318  0.0346 -0.1550
   68SAPC   H9R 5745   1.241   2.268   7.447  0.6393 -0.3874 -0.2473
   68SAPC  C210 5746   1.367   2.409   7.573  0.3644  0.2882 -0.0037
   68SAPC  H10R 5747   1.375   2.520   7.574 -0.1425  0.3644  2.4042
   68SAPC  H10S 5748   1.475   2.384   7.580  0.5226  1.2642  1.6993
   68SAPC  C211 5749   1.289   2.366   7.702 -0.4056 -0.2013 -0.0649
   68SAPC  H11R 5750   1.215   2.285   7.691  1.4233 -1.6675 -2.6799
   68SAPC  C212 5751   1.312   2.403   7.835 -0.0820 -0.1900  0.2866
   68SAPC  H12R 5752   1.240   2.378   7.914  0.5850  0.4482  1.1118
   68SAPC  C213 5753   1.417   2.507   7.881  0.5794  0.2784  0.5626
   68SAPC  H13R 5754   1.353   2.589   7.922 -0.1395  0.4306 -0.7965
   68SAPC  H13S 5755   1.468   2.545   7.790  0.9625  1.5300  1.2734
   68SAPC  C214 5756   1.521   2.457   7.973  0.0144  0.2261 -0.3459
   68SAPC  H14R 5757   1.601   2.394   7.932  0.3432 -0.1972  0.9124
   68SAPC  C215 5758   1.518   2.479   8.109 -0.4829 -0.1400  0.1538
   68SAPC  H15R 5759   1.593   2.424   8.169 -1.1729 -1.7710 -0.4007
   68SAPC  C216 5760   1.420   2.554   8.192  0.5266 -0.0703 -0.6170
   68SAPC  H16R 5761   1.325   2.566   8.135 -0.0058 -1.6837 -0.1030
   68SAPC  H16S 5762   1.448   2.661   8.206  0.9451 -0.2522 -0.0491
   68SAPC  C217 5763   1.389   2.487   8.322 -0.0102  0.0728  0.3525
   68SAPC  H17R 5764   1.475   2.436   8.371  2.3578 -0.9675 -4.2594
   68SAPC  H17S 5765   1.305   2.417   8.304  0.7911 -0.3934 -2.1378
   68SAPC  C218 5766   1.329   2.590   8.420  0.1770 -0.1983 -0.2156
   68SAPC  H18R 5767   1.243   2.631   8.363  0.7185 -1.1437 -1.7781
   68SAPC  H18S 5768   1.395   2.680   8.425  0.5216 -0.4557 -0.0458
   68SAPC  C219 5769   1.298   2.545   8.564 -0.1086 -0.0222 -0.4205
   68SAPC  H19R 5770   1.264   2.439   8.564  1.4190 -0.6054 -3.1482
   68SAPC  H19S 5771   1.220   2.613   8.604  0.2504 -0.7840  1.6862
   68SAPC  C220 5772   1.419   2.557   8.663  0.1402 -0.3446 -0.2069
   68SAPC  H20R 5773   1.516   2.534   8.614  0.0856 -0.9859 -0.0282
   68SAPC  H20S 5774   1.404   2.484   8.746 -0.8424  1.0936  0.9444
   68SAPC  H20T 5775   1.431   2.662   8.697 -2.0432  0.7765 -2.5838
   68SAPC   C33 5776   1.552   3.041   6.881 -0.1519 -0.2707 -0.1674
   68SAPC   H3X 5777   1.548   2.931   6.871  1.5673 -0.4295  0.5765
   68SAPC   H3Y 5778   1.444   3.059   6.903 -0.4998 -0.0050 -1.9442
   68SAPC   C34 5779   1.644   3.066   6.999  0.3586 -0.3982 -0.5594
   68SAPC   H4X 5780   1.645   3.171   7.036  1.5352 -0.7866  0.6135
   68SAPC   H4Y 5781   1.750   3.051   6.970  0.6087 -0.6860  0.4326
   68SAPC   C35 5782   1.618   2.962   7.106 -0.8051 -0.8648 -0.1869
   68SAPC   H5X 5783   1.644   2.867   7.054  0.7691 -0.0945 -0.8511
   68SAPC   H5Y 5784   1.514   2.957   7.145 -0.7527 -1.5710 -0.1078
   68SAPC   C36 5785   1.704   2.963   7.229  0.3772  0.5957  0.1831
   68SAPC   H6X 5786   1.679   3.043   7.301 -2.8417 -0.4088  0.3315
   68SAPC   H6Y 5787   1.812   2.979   7.206  0.0046  1.1769 -1.2503
   68SAPC   C37 5788   1.689   2.829   7.311 -0.8496 -0.3525  0.2138
   68SAPC   H7X 5789   1.734   2.747   7.251 -0.9229  0.9423 -1.6834
   68SAPC   H7Y 5790   1.589   2.787   7.332  0.1046 -2.3796  1.0387
   68SAPC   C38 5791   1.771   2.833   7.439  0.3344  0.0976  0.1027
   68SAPC   H8X 5792   1.833   2.926   7.445  1.2966 -0.4966 -0.3958
   68SAPC   H8Y 5793   1.855   2.761   7.440  0.7806  0.5987 -0.4368
   68SAPC   C39 5794   1.686   2.827   7.568  0.3267  0.3863  0.1504
   68SAPC   H9X 5795   1.610   2.746   7.552  0.9430 -0.0882 -0.4770
   68SAPC   H9Y 5796   1.625   2.920   7.573 -1.6447 -0.8211 -0.0426
   68SAPC  C310 5797   1.774   2.806   7.699  0.3467 -0.1794  0.9136
   68SAPC  H10X 5798   1.847   2.888   7.687 -0.8520  0.8876  0.6942
   68SAPC  H10Y 5799   1.833   2.712   7.696  1.2869  0.4042  0.5331
   68SAPC  C311 5800   1.697   2.836   7.826 -0.5935  0.4537 -1.2793
   68SAPC  H11X 5801   1.608   2.770   7.836 -0.5053  0.3606 -1.1026
   68SAPC  H11Y 5802   1.659   2.940   7.823  0.8746  1.1283  1.1352
   68SAPC  C312 5803   1.783   2.817   7.955  0.2587 -0.3411  0.0622
   68SAPC  H12X 5804   1.861   2.896   7.952 -0.0425  0.0015  0.9832
   68SAPC  H12Y 5805   1.826   2.715   7.955 -2.1434 -1.4386  0.5901
   68SAPC  C313 5806   1.678   2.829   8.076 -0.2710  1.1083  0.7917
   68SAPC  H13X 5807   1.595   2.756   8.061 -0.8887  2.0824 -0.7376
   68SAPC  H13Y 5808   1.629   2.928   8.066 -1.8033  0.2946 -0.1483
   68SAPC  C314 5809   1.747   2.838   8.207  0.2304  0.1588 -0.4485
   68SAPC  H14X 5810   1.689   2.894   8.284  1.4099  1.5022 -0.4968
   68SAPC  H14Y 5811   1.831   2.906   8.183  0.2043  0.5667  0.5461
   68SAPC  C315 5812   1.809   2.714   8.270  0.3377 -1.1750  0.2900
   68SAPC  H15X 5813   1.882   2.671   8.198  1.7472  0.9852  0.3262
   68SAPC  H15Y 5814   1.724   2.647   8.292  1.0357 -2.6221 -1.2046
   68SAPC  C316 5815   1.888   2.753   8.393 -0.2022  0.6346  0.3166
   68SAPC  H16X 5816   1.820   2.783   8.476 -2.0681 -0.9284 -0.5314
   68SAPC  H16Y 5817   1.957   2.837   8.374  1.0040 -0.0870  1.3515
   68SAPC  C317 5818   1.954   2.624   8.452 -0.0893  0.4378  0.0764
   68SAPC  H17X 5819   2.055   2.658   8.485  0.4443 -1.1274  0.1583
   68SAPC  H17Y 5820   1.959   2.538   8.381 -3.0191 -1.1632  1.6274
   68SAPC  C318 5821   1.880   2.574   8.577 -0.1946  0.9244 -0.5940
   68SAPC  H18X 5822   1.894   2.660   8.647  1.3242 -0.2091  0.5776
   68SAPC  H18Y 5823   1.925   2.483   8.622 -2.6457  0.2027  0.5490
   68SAPC  H18Z 5824   1.772   2.565   8.554  0.3170 -2.2227 -2.1958
   69SLPC     N 5825   3.328   1.637  10.752 -0.0392  0.3731 -0.1919
   69SLPC   C13 5826   3.341   1.575  10.886 -0.0465  0.6352 -0.4384
   69SLPC  H13A 5827   3.438   1.594  10.930  1.7088 -1.8556 -2.9273
   69SLPC  H13B 5828   3.268   1.614  10.956  2.0334  3.9752  0.1168
   69SLPC  H13C 5829   3.329   1.468  10.881  0.0108  0.5517  0.8706
   69SLPC   C14 5830   3.426   1.580  10.659 -0.3129 -0.7758  0.5872
   69SLPC  H14A 5831   3.525   1.598  10.698  0.9402 -0.9724 -2.2686
   69SLPC  H14B 5832   3.415   1.473  10.649 -0.5562 -0.6204 -0.9891
   69SLPC  H14C 5833   3.432   1.624  10.561  0.3901 -1.2145  0.4221
   69SLPC   C15 5834   3.341   1.776  10.765 -0.4401  0.4346  0.2962
   69SLPC  H15A 5835   3.438   1.802  10.805  0.9264 -3.8472  0.2189
   69SLPC  H15B 5836   3.325   1.842  10.681 -0.6906  0.9898  0.7721
   69SLPC  H15C 5837   3.259   1.807  10.829  0.6220  1.0654  1.3922
   69SLPC   C12 5838   3.185   1.609  10.719 -0.2342  0.3283 -0.1349
   69SLPC  H12A 5839   3.164   1.663  10.628  0.3859 -0.7311 -0.9291
   69SLPC  H12B 5840   3.114   1.656  10.785 -0.7503 -0.0828 -0.3750
   69SLPC   C11 5841   3.132   1.462  10.707  0.0245 -0.1188 -1.0086
   69SLPC  H11A 5842   3.215   1.397  10.670  1.9747  1.5019  0.2696
   69SLPC  H11B 5843   3.049   1.452  10.634  0.9621  0.2758 -2.1666
   69SLPC     P 5844   2.943   1.451  10.879  0.0864 -0.2965 -0.0171
   69SLPC   O13 5845   2.916   1.402  11.015  0.4497 -0.9104  0.0578
   69SLPC   O14 5846   2.910   1.590  10.846 -0.0366 -0.2265 -0.2760
   69SLPC   O12 5847   3.097   1.421  10.841  0.1741 -0.3028 -0.1297
   69SLPC   O11 5848   2.869   1.358  10.781 -0.3244 -0.1453  0.1932
   69SLPC    C1 5849   2.871   1.213  10.812  0.3055  0.1950  0.4173
   69SLPC    HA 5850   2.974   1.172  10.819  0.1864 -0.0973  0.4726
   69SLPC    HB 5851   2.838   1.194  10.916 -1.8975  3.0836  0.4025
   69SLPC    C2 5852   2.786   1.135  10.704  0.5037  0.1460  0.1931
   69SLPC    HS 5853   2.821   1.030  10.713 -1.1266 -0.2950  2.6485
   69SLPC   O21 5854   2.791   1.204  10.577  0.3170 -0.0489  0.2016
   69SLPC   C21 5855   2.902   1.185  10.513 -0.6542  0.3924  0.6688
   69SLPC   O22 5856   2.991   1.109  10.546 -0.6213 -0.0154  0.0763
   69SLPC   C22 5857   2.890   1.260  10.383  0.1583  0.6245 -0.2429
   69SLPC   H2R 5858   2.783   1.265  10.355 -0.3996 -0.9924  1.4283
   69SLPC   H2S 5859   2.925   1.366  10.389  0.2286  0.5518  0.7740
   69SLPC    C3 5860   2.636   1.135  10.754  0.1596 -0.8632  0.7452
   69SLPC    HX 5861   2.582   1.227  10.725  0.1522 -1.7599 -2.4341
   69SLPC    HY 5862   2.651   1.127  10.864  1.6200 -0.9384  0.5663
   69SLPC   O31 5863   2.576   1.014  10.715 -0.1084 -0.3306  0.0093
   69SLPC   C31 5864   2.445   1.015  10.725 -0.1802 -0.3034 -0.1325
   69SLPC   O32 5865   2.377   1.116  10.737  0.1353 -0.0801  0.5968
   69SLPC   C32 5866   2.389   0.877  10.698  0.2509  0.7752  0.2391
   69SLPC   H2X 5867   2.307   0.876  10.772 -0.6040  3.3643 -0.5647
   69SLPC   H2Y 5868   2.458   0.793  10.719 -0.6701 -0.3693 -1.1199
   69SLPC   C23 5869   2.959   1.193  10.266  0.3345 -0.2929  0.5582
   69SLPC   H3R 5870   3.067   1.179  10.289  1.3195  2.3659 -1.8724
   69SLPC   H3S 5871   2.960   1.268  10.185 -2.8993 -1.3568 -0.6100
   69SLPC   C24 5872   2.880   1.072  10.228 -0.8437  0.5996 -0.2940
   69SLPC   H4R 5873   2.779   1.109  10.199 -0.6364  2.4073  1.1611
   69SLPC   H4S 5874   2.879   1.000  10.313  0.6574  1.4869  0.5034
   69SLPC   C25 5875   2.935   1.007  10.102 -0.5175  0.4033 -0.6302
   69SLPC   H5R 5876   3.041   0.991  10.132 -0.4650 -0.2682 -1.1568
   69SLPC   H5S 5877   2.947   1.080  10.018 -0.1848  0.3999 -0.5895
   69SLPC   C26 5878   2.850   0.885  10.061  0.4458  0.1841  0.8075
   69SLPC   H6R 5879   2.876   0.798  10.125 -0.2126 -0.9352 -0.3981
   69SLPC   H6S 5880   2.880   0.858   9.957  1.7346  0.5829  1.0538
   69SLPC   C27 5881   2.698   0.913  10.044  0.4593 -0.6362  0.7106
   69SLPC   H7R 5882   2.638   0.932  10.136 -1.9181 -2.3346 -0.3746
   69SLPC   H7S 5883   2.666   0.814  10.004  1.7995 -0.8446  0.1176
   69SLPC   C28 5884   2.677   1.027   9.938  0.5509 -0.3611 -0.3060
   69SLPC   H8R 5885   2.760   1.021   9.864  0.4838  1.1794 -0.5409
   69SLPC   H8S 5886   2.687   1.128   9.983 -1.7305  0.7316 -2.0217
   69SLPC   C29 5887   2.547   1.015   9.856 -1.0084 -0.3277  0.5556
   69SLPC   H9R 5888   2.455   1.023   9.916 -2.5270  1.3052 -1.8311
   69SLPC  C210 5889   2.538   0.981   9.732  0.1127 -0.4377  0.2455
   69SLPC  H10R 5890   2.435   0.977   9.694 -0.0550  0.1240  0.6380
   69SLPC  C211 5891   2.649   0.952   9.637  0.6077  0.3525  0.5329
   69SLPC  H11R 5892   2.604   0.872   9.574  1.6133 -0.2997  0.6300
   69SLPC  H11S 5893   2.743   0.923   9.689  1.3083  2.7658  0.7226
   69SLPC  C212 5894   2.675   1.075   9.558 -0.8560  0.2274  0.3447
   69SLPC  H12R 5895   2.725   1.159   9.610 -1.5610  1.1705 -0.4664
   69SLPC  C213 5896   2.638   1.095   9.429 -0.5226 -0.5200 -0.0794
   69SLPC  H13R 5897   2.644   1.197   9.386 -1.9467 -0.7661 -0.9290
   69SLPC  C214 5898   2.570   1.008   9.327 -0.6936 -0.2252  0.2247
   69SLPC  H14R 5899   2.486   1.058   9.275 -2.3222 -2.0054  1.0225
   69SLPC  H14S 5900   2.525   0.923   9.382 -0.1093 -1.3833 -1.0325
   69SLPC  C215 5901   2.660   0.955   9.221  0.0395  0.0461 -0.2748
   69SLPC  H15R 5902   2.733   0.888   9.270 -0.4453 -0.5822 -0.3972
   69SLPC  H15S 5903   2.728   1.035   9.184  3.0012 -1.9097  0.5989
   69SLPC  C216 5904   2.604   0.875   9.096 -0.4332 -0.3195  0.0447
   69SLPC  H16R 5905   2.522   0.939   9.059 -0.6620 -0.4834  0.2667
   69SLPC  H16S 5906   2.557   0.778   9.124 -0.4601  0.1081  1.5265
   69SLPC  C217 5907   2.710   0.856   8.990  0.1430 -0.3872 -0.8538
   69SLPC  H17R 5908   2.787   0.787   9.030  0.1480 -0.2819 -0.6784
   69SLPC  H17S 5909   2.764   0.947   8.954 -1.0150 -0.0596 -1.8362
   69SLPC  C218 5910   2.649   0.793   8.866 -0.2108  0.3114 -0.6043
   69SLPC  H18R 5911   2.576   0.858   8.814 -1.2807 -0.3171  0.0712
   69SLPC  H18S 5912   2.594   0.702   8.898  1.1902  0.4825  2.7232
   69SLPC  H18T 5913   2.734   0.763   8.802 -0.4505  0.3150 -0.9259
   69SLPC   C33 5914   2.341   0.860  10.551  0.9903  0.3077 -0.3144
   69SLPC   H3X 5915   2.253   0.928  10.541  0.5883 -0.1857 -0.1671
   69SLPC   H3Y 5916   2.296   0.759  10.543  1.7155  0.0201 -0.8983
   69SLPC   C34 5917   2.461   0.873  10.452 -0.4626  0.3441 -0.5318
   69SLPC   H4X 5918   2.552   0.900  10.510 -0.8039  0.0087  0.1798
   69SLPC   H4Y 5919   2.426   0.962  10.396 -2.5092  0.3224  0.5846
   69SLPC   C35 5920   2.495   0.764  10.355  0.4536  0.8177  0.2486
   69SLPC   H5X 5921   2.541   0.676  10.406 -0.2468 -0.1286 -0.7100
   69SLPC   H5Y 5922   2.569   0.792  10.277  1.2545 -1.6815  0.0091
   69SLPC   C36 5923   2.371   0.722  10.266  0.1946  0.4268 -0.8880
   69SLPC   H6X 5924   2.317   0.816  10.240 -1.3698 -0.4723 -1.0066
   69SLPC   H6Y 5925   2.301   0.674  10.337  0.5637 -0.5003 -1.1328
   69SLPC   C37 5926   2.405   0.631  10.145  0.0596  0.2444 -0.0405
   69SLPC   H7X 5927   2.465   0.543  10.177  0.6694 -0.2986 -2.4894
   69SLPC   H7Y 5928   2.473   0.674  10.068 -0.1803 -2.0555 -1.6322
   69SLPC   C38 5929   2.281   0.584  10.062  0.7345 -0.2516 -0.6817
   69SLPC   H8X 5930   2.210   0.667  10.045 -1.0171 -1.3714  0.8143
   69SLPC   H8Y 5931   2.220   0.511  10.120  1.3497 -0.0364  0.2596
   69SLPC   C39 5932   2.309   0.523   9.926  0.5601 -0.1452 -0.7467
   69SLPC   H9X 5933   2.221   0.461   9.898 -0.8473  0.1855  2.4247
   69SLPC   H9Y 5934   2.392   0.450   9.937 -1.3375 -2.8323 -2.7913
   69SLPC  C310 5935   2.339   0.630   9.816  0.3056 -0.4600  0.1176
   69SLPC  H10X 5936   2.439   0.675   9.829  0.4753 -1.2928  1.9487
   69SLPC  H10Y 5937   2.250   0.696   9.808  0.1932 -0.5938  0.2715
   69SLPC  C311 5938   2.337   0.567   9.682 -0.7649  0.3922  0.6101
   69SLPC  H11X 5939   2.233   0.549   9.647 -0.6588 -0.6607  0.7881
   69SLPC  H11Y 5940   2.387   0.468   9.681  0.0414  0.7869  0.8162
   69SLPC  C312 5941   2.400   0.648   9.563  0.3702  1.0630  0.6508
   69SLPC  H12X 5942   2.507   0.665   9.590  0.8887  1.2721 -1.3832
   69SLPC  H12Y 5943   2.343   0.743   9.574 -1.0118  0.0990  2.3120
   69SLPC  C313 5944   2.389   0.568   9.426  0.4332 -0.2716 -0.5448
   69SLPC  H13X 5945   2.305   0.495   9.435 -0.0292  0.4097  1.2320
   69SLPC  H13Y 5946   2.484   0.521   9.394 -0.1707 -0.9892 -1.3321
   69SLPC  C314 5947   2.355   0.669   9.314 -0.1024  0.1996 -0.4482
   69SLPC  H14X 5948   2.453   0.703   9.274  1.6960 -1.7217  1.9970
   69SLPC  H14Y 5949   2.300   0.752   9.362 -1.3834 -1.9254  2.0207
   69SLPC  C315 5950   2.276   0.602   9.202 -0.4473 -0.1168  0.1919
   69SLPC  H15X 5951   2.184   0.564   9.251 -1.6403  4.0025  1.5048
   69SLPC  H15Y 5952   2.337   0.521   9.156  0.9955  0.2759  1.3497
   69SLPC  C316 5953   2.242   0.690   9.082 -0.2890 -0.6023 -0.1119
   69SLPC  H16X 5954   2.340   0.739   9.062 -1.6109  2.3292  0.0579
   69SLPC  H16Y 5955   2.166   0.763   9.118  0.4098  0.2341 -0.3242
   69SLPC  C317 5956   2.189   0.612   8.958  0.6072 -0.1637 -0.8932
   69SLPC  H17X 5957   2.110   0.542   8.992 -0.4130  1.6068  0.5335
   69SLPC  H17Y 5958   2.270   0.547   8.918 -0.1245 -1.0613 -0.9361
   69SLPC  C318 5959   2.129   0.710   8.849 -0.0457 -0.3656 -0.4977
   69SLPC  H18X 5960   2.054   0.772   8.902  0.6790  0.2194 -0.1464
   69SLPC  H18Y 5961   2.078   0.649   8.771 -4.6786 -0.9567  2.6019
   69SLPC  H18Z 5962   2.209   0.779   8.816  0.1662  0.0347  0.8277
   70SLPC     N 5963   6.636   3.526  11.151 -0.3966  0.1165 -0.2142
   70SLPC   C13 5964   6.679   3.381  11.134  0.4236  0.2168 -0.5603
   70SLPC  H13A 5965   6.641   3.337  11.043 -0.9237  0.2327 -0.0353
   70SLPC  H13B 5966   6.784   3.356  11.142 -0.0857 -2.2541 -0.8873
   70SLPC  H13C 5967   6.639   3.321  11.214  2.8082  1.0873  1.3903
   70SLPC   C14 5968   6.680   3.587  11.280 -0.2510  0.1418  0.2675
   70SLPC  H14A 5969   6.786   3.572  11.296 -0.6948 -1.1936  2.5842
   70SLPC  H14B 5970   6.659   3.692  11.284  2.7198  0.7862  1.5388
   70SLPC  H14C 5971   6.625   3.549  11.365 -0.2960  1.2913  0.7689
   70SLPC   C15 5972   6.490   3.515  11.158  0.1895 -0.1484 -0.2940
   70SLPC  H15A 5973   6.433   3.605  11.174 -3.4449 -2.5616  1.8545
   70SLPC  H15B 5974   6.458   3.491  11.058  1.4329 -0.9306 -0.5363
   70SLPC  H15C 5975   6.458   3.435  11.224 -0.5788 -0.9375 -1.5750
   70SLPC   C12 5976   6.681   3.609  11.030 -0.8908 -0.4021  0.4578
   70SLPC  H12A 5977   6.788   3.622  11.028 -0.7979 -1.1301  0.6286
   70SLPC  H12B 5978   6.653   3.712  11.047  2.0935  0.1867  2.4115
   70SLPC   C11 5979   6.640   3.579  10.880 -0.3501  0.0569  0.4272
   70SLPC  H11A 5980   6.671   3.475  10.856  0.0558  0.2418  0.1458
   70SLPC  H11B 5981   6.689   3.642  10.802 -4.0335 -0.9677 -3.0801
   70SLPC     P 5982   6.438   3.735  10.841 -0.1147  0.4451 -0.1014
   70SLPC   O13 5983   6.287   3.721  10.848  0.5277  0.7090  0.1818
   70SLPC   O14 5984   6.495   3.817  10.948  0.2379 -0.5690 -0.4224
   70SLPC   O12 5985   6.501   3.592  10.858 -0.3627  0.1323  0.3078
   70SLPC   O11 5986   6.487   3.792  10.709 -0.0631  0.1518  0.7074
   70SLPC    C1 5987   6.507   3.727  10.583  0.1073  0.1213 -0.2619
   70SLPC    HA 5988   6.564   3.632  10.589  0.0010  0.0905  0.3821
   70SLPC    HB 5989   6.402   3.703  10.557 -0.3096 -0.0745  1.4462
   70SLPC    C2 5990   6.589   3.818  10.488 -0.7694  0.6307  0.5163
   70SLPC    HS 5991   6.566   3.922  10.520 -0.4399  1.3325 -1.4191
   70SLPC   O21 5992   6.557   3.781  10.354 -0.0244 -0.4858 -0.1627
   70SLPC   C21 5993   6.457   3.850  10.308 -0.5433 -0.5473 -0.2663
   70SLPC   O22 5994   6.383   3.918  10.379 -0.4317  1.0645  0.2229
   70SLPC   C22 5995   6.437   3.821  10.159 -0.4343  0.2810 -0.2376
   70SLPC   H2R 5996   6.435   3.918  10.106  0.2451 -0.8362 -2.4496
   70SLPC   H2S 5997   6.534   3.777  10.127  0.6963  1.3954  1.4689
   70SLPC    C3 5998   6.745   3.789  10.508  0.1022  0.3825 -0.4751
   70SLPC    HX 5999   6.761   3.690  10.460  0.1699  0.6904 -1.1099
   70SLPC    HY 6000   6.747   3.786  10.619 -2.2727 -2.0555 -0.3933
   70SLPC   O31 6001   6.825   3.893  10.455  0.2586  0.3500  0.4808
   70SLPC   C31 6002   6.953   3.871  10.437  0.7847 -0.0914  0.1667
   70SLPC   O32 6003   7.012   3.772  10.471  0.4373  0.8190 -0.2803
   70SLPC   C32 6004   7.021   3.998  10.368  0.0742  0.1032  0.1732
   70SLPC   H2X 6005   7.040   4.061  10.457 -0.2536  0.9066 -0.3214
   70SLPC   H2Y 6006   6.945   4.059  10.315  1.2159  3.1200  1.7455
   70SLPC   C23 6007   6.309   3.735  10.133 -0.5541  0.7480  0.2056
   70SLPC   H3R 6008   6.230   3.811  10.150 -2.3344 -1.1715  0.8860
   70SLPC   H3S 6009   6.296   3.660  10.214  0.9998 -0.6483 -0.7737
   70SLPC   C24 6010   6.286   3.659  10.003  0.1320  0.7562 -0.3300
   70SLPC   H4R 6011   6.182   3.622   9.992  0.7762 -1.6313  1.0161
   70SLPC   H4S 6012   6.352   3.570   9.998 -3.5584 -2.2540  0.2989
   70SLPC   C25 6013   6.295   3.747   9.875 -0.0481  0.2395 -0.4290
   70SLPC   H5R 6014   6.398   3.786   9.863  1.0334 -1.3853  2.4400
   70SLPC   H5S 6015   6.227   3.835   9.868  0.9878  0.9282 -2.8024
   70SLPC   C26 6016   6.276   3.659   9.750 -0.1462 -0.3099  0.7810
   70SLPC   H6R 6017   6.182   3.602   9.770  0.5312 -1.2715  1.2887
   70SLPC   H6S 6018   6.354   3.580   9.741 -1.7088 -1.7304 -1.2898
   70SLPC   C27 6019   6.255   3.732   9.616 -0.3000 -0.2251  0.0262
   70SLPC   H7R 6020   6.189   3.821   9.622 -0.4218 -0.3714  1.1803
   70SLPC   H7S 6021   6.205   3.654   9.555  1.5743 -2.0083  0.6488
   70SLPC   C28 6022   6.384   3.758   9.545  0.2812 -0.4396  0.6573
   70SLPC   H8R 6023   6.432   3.659   9.526  3.5486  1.0906  0.2931
   70SLPC   H8S 6024   6.446   3.816   9.615  1.2484 -0.3160 -0.2771
   70SLPC   C29 6025   6.361   3.846   9.424 -0.1752 -0.2585  0.5736
   70SLPC   H9R 6026   6.325   3.947   9.449  2.9920  1.5841 -1.5298
   70SLPC  C210 6027   6.405   3.829   9.297  0.7241  0.2328  1.0115
   70SLPC  H10R 6028   6.393   3.909   9.223  0.3380  0.3810  1.2343
   70SLPC  C211 6029   6.477   3.708   9.252  0.5969 -0.2420  0.3912
   70SLPC  H11R 6030   6.445   3.615   9.303 -1.4970  0.7656  1.0156
   70SLPC  H11S 6031   6.586   3.722   9.270  0.6057 -0.1974  0.3044
   70SLPC  C212 6032   6.471   3.692   9.107  0.2828  0.0426 -0.2584
   70SLPC  H12R 6033   6.557   3.726   9.048 -0.6290 -1.5240 -2.6450
   70SLPC  C213 6034   6.368   3.632   9.035  0.1897 -0.3905 -0.0317
   70SLPC  H13R 6035   6.399   3.624   8.930 -0.2843  0.7796 -0.2714
   70SLPC  C214 6036   6.234   3.587   9.065  0.1036 -0.2139 -0.4421
   70SLPC  H14R 6037   6.186   3.652   9.141 -2.2178 -1.0953 -1.0390
   70SLPC  H14S 6038   6.246   3.478   9.086  1.6148 -0.3878 -1.9951
   70SLPC  C215 6039   6.135   3.598   8.946 -0.5936 -0.3021 -0.6886
   70SLPC  H15R 6040   6.147   3.696   8.897  1.3801 -0.7670 -1.2115
   70SLPC  H15S 6041   6.029   3.596   8.979 -0.4967  2.8724  0.1540
   70SLPC  C216 6042   6.160   3.501   8.837  0.7072  0.4161 -0.1184
   70SLPC  H16R 6043   6.235   3.423   8.863  0.8583  1.0445  1.3876
   70SLPC  H16S 6044   6.205   3.544   8.745  1.0621 -0.6069 -0.4444
   70SLPC  C217 6045   6.038   3.414   8.789  0.4870 -0.6064 -0.2348
   70SLPC  H17R 6046   5.961   3.487   8.757  1.1823  0.3070  0.1441
   70SLPC  H17S 6047   6.000   3.350   8.871 -0.4485  1.6476  1.1766
   70SLPC  C218 6048   6.087   3.331   8.672  0.0158  0.2862 -0.2122
   70SLPC  H18R 6049   6.130   3.390   8.588  3.8853  1.2423  2.1920
   70SLPC  H18S 6050   6.000   3.279   8.626 -0.4131  0.8329 -0.0357
   70SLPC  H18T 6051   6.165   3.262   8.710 -2.3072 -2.4989 -0.1350
   70SLPC   C33 6052   7.140   3.961  10.280 -0.3779  0.3766 -0.0622
   70SLPC   H3X 6053   7.192   3.875  10.328 -1.8066  0.6240  2.0859
   70SLPC   H3Y 6054   7.229   4.027  10.276  1.4436 -1.9571 -0.3888
   70SLPC   C34 6055   7.112   3.935  10.129  1.3600  0.3956 -0.7785
   70SLPC   H4X 6056   7.054   4.021  10.091 -0.2451  0.2004  1.0774
   70SLPC   H4Y 6057   7.058   3.838  10.124  0.5284  0.7643  0.5706
   70SLPC   C35 6058   7.233   3.941  10.050 -0.2179  0.5034  0.9622
   70SLPC   H5X 6059   7.287   3.847  10.074  1.4449  0.5377 -2.1187
   70SLPC   H5Y 6060   7.305   4.024  10.069  0.0225  0.4784  0.2222
   70SLPC   C36 6061   7.206   3.949   9.899  0.2339  0.0295 -0.6397
   70SLPC   H6X 6062   7.104   3.910   9.884  1.0259 -1.8827 -1.3269
   70SLPC   H6Y 6063   7.274   3.874   9.854  0.1589 -1.1401  1.1217
   70SLPC   C37 6064   7.214   4.091   9.832 -0.1983 -0.3660 -0.3500
   70SLPC   H7X 6065   7.320   4.123   9.830 -0.1992 -0.1732  1.2656
   70SLPC   H7Y 6066   7.165   4.171   9.891  2.0636  1.8588 -1.2926
   70SLPC   C38 6067   7.162   4.095   9.693 -0.1499  0.4633  0.8319
   70SLPC   H8X 6068   7.186   4.199   9.665 -0.2592  0.4459  0.6772
   70SLPC   H8Y 6069   7.053   4.076   9.687 -0.0504  0.3366 -1.2568
   70SLPC   C39 6070   7.240   4.008   9.588 -0.1883 -0.4244 -0.1615
   70SLPC   H9X 6071   7.216   3.900   9.602  0.6957 -0.7564 -1.1039
   70SLPC   H9Y 6072   7.351   4.005   9.590 -0.1962 -1.1430 -0.2092
   70SLPC  C310 6073   7.198   4.055   9.441  0.0824  0.7744 -0.2148
   70SLPC  H10X 6074   7.183   4.164   9.421 -0.8760  0.5474 -0.8178
   70SLPC  H10Y 6075   7.091   4.027   9.427  0.3314  0.6243 -2.2030
   70SLPC  C311 6076   7.284   3.991   9.341  0.2216  0.0404  0.8535
   70SLPC  H11X 6077   7.235   3.893   9.324 -0.8993  0.9404 -1.6080
   70SLPC  H11Y 6078   7.387   3.978   9.379 -0.2033 -1.8927  1.4690
   70SLPC  C312 6079   7.274   4.055   9.203 -0.5036  0.1377  0.1302
   70SLPC  H12X 6080   7.325   4.147   9.170  0.1563 -0.2605  0.0187
   70SLPC  H12Y 6081   7.164   4.066   9.193 -0.7785 -0.2774  2.2850
   70SLPC  C313 6082   7.315   3.957   9.091 -0.7090 -0.4731  0.3718
   70SLPC  H13X 6083   7.283   3.852   9.109  0.0947 -0.9094 -0.6369
   70SLPC  H13Y 6084   7.426   3.956   9.089 -0.7142 -0.1531 -1.9234
   70SLPC  C314 6085   7.276   4.009   8.949  0.1994  0.7898  0.0209
   70SLPC  H14X 6086   7.320   4.109   8.928  0.1687  0.9537  0.6904
   70SLPC  H14Y 6087   7.165   4.015   8.960 -0.0493 -3.1272  1.0206
   70SLPC  C315 6088   7.293   3.909   8.837  0.3709  0.1933 -0.2348
   70SLPC  H15X 6089   7.289   3.809   8.884 -0.7202  0.7053  0.8164
   70SLPC  H15Y 6090   7.397   3.918   8.797  0.2922  1.5474 -0.1798
   70SLPC  C316 6091   7.181   3.932   8.732 -0.4509 -0.6780 -0.3523
   70SLPC  H16X 6092   7.165   4.036   8.696  1.1441  0.0876  0.9874
   70SLPC  H16Y 6093   7.087   3.895   8.778 -0.6602 -1.3065 -1.2446
   70SLPC  C317 6094   7.193   3.836   8.611  0.2636  0.6327 -0.3814
   70SLPC  H17X 6095   7.291   3.840   8.558  1.1527 -0.3627  1.1068
   70SLPC  H17Y 6096   7.113   3.875   8.544  0.3550 -0.0461 -0.9010
   70SLPC  C318 6097   7.159   3.692   8.663  0.2027  0.2743 -0.6933
   70SLPC  H18X 6098   7.122   3.641   8.571 -0.7191  0.6467 -0.5311
   70SLPC  H18Y 6099   7.085   3.691   8.746  2.4363 -1.6471  1.4228
   70SLPC  H18Z 6100   7.252   3.641   8.698 -0.5345 -0.4695  0.2510
   71SLPC     N 6101   4.681   3.429  10.924  0.8043 -0.7800 -0.3067
   71SLPC   C13 6102   4.640   3.397  11.063  0.4369 -0.3261  0.0319
   71SLPC  H13A 6103   4.539   3.361  11.061  0.6749 -1.2684  2.1446
   71SLPC  H13B 6104   4.706   3.325  11.111  1.8909  2.1635  2.0393
   71SLPC  H13C 6105   4.647   3.480  11.132  1.1412 -1.2315  1.0750
   71SLPC   C14 6106   4.644   3.310  10.841  0.2311  0.8476  0.3755
   71SLPC  H14A 6107   4.698   3.219  10.861  0.8343  1.2353  0.5494
   71SLPC  H14B 6108   4.543   3.282  10.864 -0.1665  1.9482  0.0228
   71SLPC  H14C 6109   4.650   3.335  10.736 -0.1706 -1.5474 -0.2733
   71SLPC   C15 6110   4.822   3.453  10.918 -0.3418 -0.3143  0.3959
   71SLPC  H15A 6111   4.874   3.366  10.955 -0.9241  0.2155  2.6268
   71SLPC  H15B 6112   4.863   3.468  10.819 -0.7716 -2.0880 -0.0876
   71SLPC  H15C 6113   4.854   3.531  10.985 -1.4069  1.0560 -0.6258
   71SLPC   C12 6114   4.604   3.554  10.866  0.6333 -0.5839 -0.8098
   71SLPC  H12A 6115   4.498   3.530  10.868  0.3036  0.6539  2.1116
   71SLPC  H12B 6116   4.624   3.567  10.761  1.3311 -1.1417 -0.7502
   71SLPC   C11 6117   4.636   3.683  10.943 -0.7723  0.4871  0.3293
   71SLPC  H11A 6118   4.743   3.712  10.934 -0.2895 -1.0284  0.8666
   71SLPC  H11B 6119   4.619   3.673  11.053 -0.2647 -0.8590  0.2995
   71SLPC     P 6120   4.409   3.808  10.914 -0.2108  0.1657 -0.3244
   71SLPC   O13 6121   4.358   3.737  11.032  0.3892 -0.3356 -0.0064
   71SLPC   O14 6122   4.373   3.953  10.909  0.0576 -0.0460 -0.6736
   71SLPC   O12 6123   4.563   3.791  10.907  0.1425 -0.1002  0.3549
   71SLPC   O11 6124   4.374   3.747  10.777 -0.2478  0.3429 -0.1456
   71SLPC    C1 6125   4.446   3.768  10.658  0.7774  0.1572 -0.0766
   71SLPC    HA 6126   4.494   3.868  10.659 -0.5951  0.8928 -1.6515
   71SLPC    HB 6127   4.521   3.688  10.640 -0.3688 -0.6571 -1.4689
   71SLPC    C2 6128   4.332   3.775  10.550 -0.8185 -0.1996  0.4232
   71SLPC    HS 6129   4.258   3.851  10.584  1.5496  3.9421 -2.8007
   71SLPC   O21 6130   4.281   3.639  10.524  0.0575 -0.6039 -0.0426
   71SLPC   C21 6131   4.159   3.629  10.474 -0.6314  0.6787 -0.7667
   71SLPC   O22 6132   4.087   3.720  10.441 -0.1013 -0.2173 -0.2273
   71SLPC   C22 6133   4.120   3.478  10.463  0.4712  0.0052 -0.5138
   71SLPC   H2R 6134   4.194   3.423  10.401  0.4856  1.4590 -1.8638
   71SLPC   H2S 6135   4.111   3.440  10.567 -0.0869 -0.7083 -0.8173
   71SLPC    C3 6136   4.390   3.849  10.426  0.2675  0.3919 -0.1415
   71SLPC    HX 6137   4.490   3.801  10.413  0.3687  0.5544  0.0183
   71SLPC    HY 6138   4.411   3.958  10.436  2.1142 -0.0275  1.1946
   71SLPC   O31 6139   4.320   3.812  10.304 -0.4473  0.7694  0.1352
   71SLPC   C31 6140   4.257   3.914  10.248  0.5180  0.3188  0.7190
   71SLPC   O32 6141   4.253   4.027  10.291 -0.4220  0.3418  0.4917
   71SLPC   C32 6142   4.180   3.848  10.129 -0.7370 -0.5372 -0.2530
   71SLPC   H2X 6143   4.071   3.857  10.151  0.1437  3.6133  4.3952
   71SLPC   H2Y 6144   4.187   3.739  10.147  1.6062 -0.2064  1.2967
   71SLPC   C23 6145   3.983   3.465  10.384  0.2774 -0.1274 -0.4445
   71SLPC   H3R 6146   3.903   3.519  10.440  0.0156 -1.1501  0.2035
   71SLPC   H3S 6147   3.946   3.361  10.393  0.4872 -0.0957  1.1998
   71SLPC   C24 6148   3.982   3.514  10.240  0.4464  0.0958 -0.4925
   71SLPC   H4R 6149   3.980   3.625  10.235  1.5332  0.0972 -1.0819
   71SLPC   H4S 6150   3.878   3.489  10.209  0.2931 -1.4590  1.1031
   71SLPC   C25 6151   4.076   3.447  10.142 -0.4360 -0.9042  1.1160
   71SLPC   H5R 6152   4.107   3.344  10.171 -0.3889 -0.4940  2.6324
   71SLPC   H5S 6153   4.168   3.508  10.139 -0.8117 -0.3778 -1.2105
   71SLPC   C26 6154   4.027   3.442   9.997  0.6143 -0.7250 -0.7285
   71SLPC   H6R 6155   3.985   3.536   9.955 -1.5811 -1.2155  0.2267
   71SLPC   H6S 6156   3.941   3.372   9.994  0.3291 -0.4018 -0.3876
   71SLPC   C27 6157   4.137   3.387   9.908 -0.3571 -0.4265  1.0008
   71SLPC   H7R 6158   4.220   3.347   9.972  0.1534  0.5389  0.9676
   71SLPC   H7S 6159   4.190   3.477   9.869 -1.0995  0.6389  2.3333
   71SLPC   C28 6160   4.083   3.295   9.797 -0.2199 -0.5323 -0.4886
   71SLPC   H8R 6161   4.040   3.205   9.845 -1.4486  0.6310  0.6787
   71SLPC   H8S 6162   4.174   3.270   9.739  0.0912  0.4856 -0.4581
   71SLPC   C29 6163   3.977   3.365   9.712  0.0877  0.1513 -0.2383
   71SLPC   H9R 6164   3.885   3.398   9.760 -0.3042  1.0218 -1.5310
   71SLPC  C210 6165   4.005   3.398   9.580  0.5721  0.1388  0.6258
   71SLPC  H10R 6166   3.926   3.463   9.540  0.6569  1.6831  2.8015
   71SLPC  C211 6167   4.129   3.368   9.511 -0.6664 -0.5255 -0.1690
   71SLPC  H11R 6168   4.220   3.394   9.569 -1.3721  0.2278  0.6166
   71SLPC  H11S 6169   4.148   3.445   9.433  2.3213  1.1258  1.9639
   71SLPC  C212 6170   4.142   3.235   9.435 -0.6180  0.3202  0.0732
   71SLPC  H12R 6171   4.174   3.156   9.505  1.0483  1.9570  1.2520
   71SLPC  C213 6172   4.128   3.219   9.303  0.0116  0.2332 -0.6990
   71SLPC  H13R 6173   4.163   3.123   9.264 -0.9355  0.3145 -1.8019
   71SLPC  C214 6174   4.088   3.319   9.197 -0.3401  0.5252  0.1096
   71SLPC  H14R 6175   4.179   3.359   9.148  0.7302 -1.0898  0.6930
   71SLPC  H14S 6176   4.030   3.401   9.245  1.3374  1.5108  0.5380
   71SLPC  C215 6177   4.024   3.255   9.085  0.5259  0.5398  0.9072
   71SLPC  H15R 6178   3.934   3.202   9.123 -0.4608  1.0186 -0.6928
   71SLPC  H15S 6179   4.092   3.186   9.030 -0.5462  0.3909 -0.2460
   71SLPC  C216 6180   3.989   3.354   8.976 -0.3004  0.1019  0.5281
   71SLPC  H16R 6181   4.078   3.419   8.958  0.2897 -0.8341 -0.0453
   71SLPC  H16S 6182   3.896   3.406   9.007 -0.4785  0.4402 -0.5464
   71SLPC  C217 6183   3.942   3.280   8.846 -0.1025 -0.7155 -0.1215
   71SLPC  H17R 6184   3.865   3.207   8.879  0.2489 -0.8526  0.4105
   71SLPC  H17S 6185   4.024   3.213   8.811  1.3114  0.7485  0.2702
   71SLPC  C218 6186   3.898   3.383   8.740  0.3111  0.5073 -0.0250
   71SLPC  H18R 6187   3.862   3.330   8.649 -2.0780 -1.0758  1.7091
   71SLPC  H18S 6188   3.982   3.451   8.713  1.7811 -0.5481  1.7028
   71SLPC  H18T 6189   3.808   3.430   8.786 -0.2772 -1.7081  1.2366
   71SLPC   C33 6190   4.223   3.893   9.986  0.8249  0.0390 -0.3300
   71SLPC   H3X 6191   4.331   3.868   9.979  0.8646 -0.0376  0.4673
   71SLPC   H3Y 6192   4.210   4.004   9.989  1.4374  0.0969  0.3790
   71SLPC   C34 6193   4.132   3.839   9.874  0.0590 -0.2965  0.7778
   71SLPC   H4X 6194   4.022   3.847   9.892  0.2041  1.5548  1.0683
   71SLPC   H4Y 6195   4.154   3.731   9.861  1.8502  0.1387 -0.2016
   71SLPC   C35 6196   4.160   3.914   9.742 -0.5554 -0.2959 -0.0116
   71SLPC   H5X 6197   4.263   3.886   9.713 -0.4616 -1.2737  1.1777
   71SLPC   H5Y 6198   4.156   4.024   9.758  2.2426  0.1376 -1.6822
   71SLPC   C36 6199   4.071   3.872   9.620 -0.2781 -0.0805  0.3762
   71SLPC   H6X 6200   3.961   3.866   9.628 -0.1851 -1.7601  0.9261
   71SLPC   H6Y 6201   4.107   3.770   9.594  2.7453  0.3638  2.2378
   71SLPC   C37 6202   4.090   3.968   9.498 -0.7116  0.6157 -0.6418
   71SLPC   H7X 6203   4.046   4.063   9.537 -0.9918  0.1531  0.1890
   71SLPC   H7Y 6204   4.034   3.944   9.405 -1.0224  1.2815 -0.6368
   71SLPC   C38 6205   4.237   3.976   9.446  0.3837 -0.1152 -0.6417
   71SLPC   H8X 6206   4.268   3.871   9.424 -1.7414 -1.2524  1.2959
   71SLPC   H8Y 6207   4.299   4.019   9.528  1.8504 -3.3036  0.0706
   71SLPC   C39 6208   4.244   4.073   9.331  0.7391 -0.3542  0.2762
   71SLPC   H9X 6209   4.217   4.176   9.361  2.1887  0.0524  0.2463
   71SLPC   H9Y 6210   4.182   4.033   9.248 -0.1289  1.9554 -0.2499
   71SLPC  C310 6211   4.386   4.076   9.281  0.8368 -0.1318 -0.3205
   71SLPC  H10X 6212   4.422   3.971   9.275 -4.1570 -2.2828  1.5817
   71SLPC  H10Y 6213   4.451   4.137   9.347  2.5954 -0.3225 -1.7833
   71SLPC  C311 6214   4.383   4.153   9.147 -0.4030 -0.1091  1.2529
   71SLPC  H11X 6215   4.366   4.260   9.173  1.3380  0.5424 -0.0832
   71SLPC  H11Y 6216   4.315   4.112   9.069  1.5600  0.1443 -0.7024
   71SLPC  C312 6217   4.515   4.148   9.074 -0.0805  0.1601  0.2484
   71SLPC  H12X 6218   4.552   4.043   9.074 -0.8329 -0.1201 -0.7864
   71SLPC  H12Y 6219   4.586   4.214   9.128 -0.5816  1.3615 -0.5135
   71SLPC  C313 6220   4.496   4.213   8.928 -0.6410  0.8513 -0.9250
   71SLPC  H13X 6221   4.416   4.289   8.924 -0.5618  1.0038  0.0940
   71SLPC  H13Y 6222   4.452   4.129   8.869  0.1830  0.2755 -0.7391
   71SLPC  C314 6223   4.626   4.261   8.866  0.1995  0.1300  0.1927
   71SLPC  H14X 6224   4.705   4.182   8.865 -1.1515 -1.3585  2.1848
   71SLPC  H14Y 6225   4.673   4.343   8.924  1.2004 -0.2156 -0.1057
   71SLPC  C315 6226   4.591   4.312   8.722 -0.2316  0.0855 -0.5280
   71SLPC  H15X 6227   4.508   4.386   8.726 -0.5889 -0.1623 -2.4985
   71SLPC  H15Y 6228   4.552   4.227   8.663  0.0067  0.1060 -0.7135
   71SLPC  C316 6229   4.719   4.374   8.657  0.1805  0.5552  0.3400
   71SLPC  H16X 6230   4.801   4.300   8.668 -0.9731 -0.6824  0.9328
   71SLPC  H16Y 6231   4.746   4.473   8.699  0.9902  1.7016 -2.6605
   71SLPC  C317 6232   4.690   4.414   8.511 -0.1111  0.5590  1.4535
   71SLPC  H17X 6233   4.614   4.495   8.509  0.6335  1.2985 -0.9201
   71SLPC  H17Y 6234   4.630   4.341   8.452  1.8078  0.5810 -0.6740
   71SLPC  C318 6235   4.811   4.455   8.433  0.0659 -0.2798  0.5357
   71SLPC  H18X 6236   4.890   4.378   8.418 -1.9691 -2.5744  1.0948
   71SLPC  H18Y 6237   4.849   4.544   8.488 -0.0692  0.5401 -0.6538
   71SLPC  H18Z 6238   4.776   4.475   8.329  1.2838 -3.0601 -0.5094
   72SLPC     N 6239   0.797   1.322  11.287 -0.2671 -0.5146 -0.9047
   72SLPC   C13 6240   0.661   1.284  11.342  0.0587 -0.4178 -0.0456
   72SLPC  H13A 6241   0.596   1.251  11.263  0.6723 -1.2212 -0.2384
   72SLPC  H13B 6242   0.672   1.212  11.422 -1.1550 -1.4054 -0.7407
   72SLPC  H13C 6243   0.604   1.359  11.395  1.1972 -0.0933  0.7575
   72SLPC   C14 6244   0.867   1.200  11.236  0.0643 -0.1578 -0.1860
   72SLPC  H14A 6245   0.889   1.131  11.317 -2.6332  1.1877  1.8708
   72SLPC  H14B 6246   0.814   1.154  11.154 -0.8735  0.7389 -0.1051
   72SLPC  H14C 6247   0.966   1.228  11.204  0.5231 -0.7897  0.6215
   72SLPC   C15 6248   0.874   1.391  11.395 -0.0086  0.3422  0.1470
   72SLPC  H15A 6249   0.814   1.468  11.442  1.7560  1.5536  0.5114
   72SLPC  H15B 6250   0.901   1.312  11.463 -1.1859 -0.9391 -0.8045
   72SLPC  H15C 6251   0.957   1.447  11.354 -0.1833  0.9322  0.5803
   72SLPC   C12 6252   0.785   1.420  11.167 -0.0492 -0.2407  1.3861
   72SLPC  H12A 6253   0.887   1.442  11.139  0.5603 -1.4206  2.5258
   72SLPC  H12B 6254   0.737   1.514  11.187  2.1211  1.2880 -0.1512
   72SLPC   C11 6255   0.712   1.366  11.039  0.3769  0.1558 -0.3402
   72SLPC  H11A 6256   0.725   1.257  11.022 -2.4079 -0.2981  0.0363
   72SLPC  H11B 6257   0.756   1.422  10.954 -0.2528  0.1479 -0.6742
   72SLPC     P 6258   0.503   1.496  10.988  0.2656  0.5098  0.7858
   72SLPC   O13 6259   0.359   1.502  11.011  0.1410 -0.1553  0.2193
   72SLPC   O14 6260   0.574   1.619  11.032 -0.1507 -0.3348  0.5375
   72SLPC   O12 6261   0.569   1.371  11.055 -0.0890 -0.4978 -0.2611
   72SLPC   O11 6262   0.543   1.467  10.841  0.5103 -0.3639  0.4035
   72SLPC    C1 6263   0.544   1.344  10.778  0.2158  0.2741 -0.3651
   72SLPC    HA 6264   0.651   1.312  10.782  0.7383  1.7406 -1.7804
   72SLPC    HB 6265   0.467   1.274  10.817 -1.9751  1.9979 -1.3935
   72SLPC    C2 6266   0.529   1.345  10.617 -0.2462 -0.2984  0.0455
   72SLPC    HS 6267   0.559   1.445  10.579 -3.8624  0.6825 -0.5160
   72SLPC   O21 6268   0.392   1.302  10.581 -0.4240 -0.9721  0.0442
   72SLPC   C21 6269   0.295   1.399  10.579 -0.6346  0.3187 -0.2699
   72SLPC   O22 6270   0.315   1.517  10.606 -0.0849  0.0180 -0.3276
   72SLPC   C22 6271   0.161   1.350  10.531 -0.2827  0.1263  0.1848
   72SLPC   H2R 6272   0.158   1.240  10.544  1.5580  0.1437  1.0267
   72SLPC   H2S 6273   0.075   1.376  10.596  1.3502  1.6073  1.8658
   72SLPC    C3 6274   0.626   1.240  10.550 -0.4991 -0.2816  0.5762
   72SLPC    HX 6275   0.598   1.149  10.607  0.3586  0.2705  1.9301
   72SLPC    HY 6276   0.733   1.259  10.575  0.6838 -1.8758 -2.6728
   72SLPC   O31 6277   0.614   1.237  10.405 -0.4838 -0.4047  0.2651
   72SLPC   C31 6278   0.563   1.127  10.345 -0.3561  0.4711 -0.7768
   72SLPC   O32 6279   0.537   1.021  10.403  0.0108 -0.5411  0.0341
   72SLPC   C32 6280   0.556   1.147  10.201  0.1392 -0.1378 -0.0288
   72SLPC   H2X 6281   0.652   1.179  10.155 -0.3486 -0.0473 -1.0069
   72SLPC   H2Y 6282   0.488   1.234  10.188 -1.8487 -1.7150 -0.6892
   72SLPC   C23 6283   0.116   1.404  10.392  0.2493 -0.3540  0.2895
   72SLPC   H3R 6284   0.130   1.514  10.384 -3.1160  0.0878 -1.2725
   72SLPC   H3S 6285   0.008   1.378  10.391  0.2676 -0.7866  3.0203
   72SLPC   C24 6286   0.193   1.351  10.268  0.1454  0.1119 -0.0076
   72SLPC   H4R 6287   0.186   1.241  10.271 -1.8611  0.2153  0.4194
   72SLPC   H4S 6288   0.297   1.392  10.270  0.0067  0.4720  0.0004
   72SLPC   C25 6289   0.139   1.411  10.132 -0.3946  0.1246 -0.3587
   72SLPC   H5R 6290   0.144   1.520  10.149 -0.1057  0.3733 -1.8732
   72SLPC   H5S 6291   0.036   1.375  10.110 -0.4183 -0.4011  0.5899
   72SLPC   C26 6292   0.235   1.382  10.018 -0.1460 -0.5027  0.9753
   72SLPC   H6R 6293   0.239   1.283   9.968  0.2458  0.3893 -0.8420
   72SLPC   H6S 6294   0.338   1.388  10.059 -0.2626 -3.4315  1.9099
   72SLPC   C27 6295   0.230   1.498   9.915 -0.1873 -0.4802  0.1706
   72SLPC   H7R 6296   0.288   1.587   9.949  0.1336 -0.0579 -1.4145
   72SLPC   H7S 6297   0.124   1.529   9.899 -0.4894 -1.8570 -0.6545
   72SLPC   C28 6298   0.289   1.459   9.779 -0.0493  0.0914 -0.4000
   72SLPC   H8R 6299   0.386   1.412   9.804 -1.2095 -2.7167 -0.8081
   72SLPC   H8S 6300   0.302   1.557   9.728  2.2891  0.3409  0.5555
   72SLPC   C29 6301   0.205   1.366   9.699 -0.1770 -0.0626 -0.2316
   72SLPC   H9R 6302   0.175   1.273   9.750  1.1349 -0.3372  0.0730
   72SLPC  C210 6303   0.172   1.378   9.572 -0.0049  0.3365  0.0308
   72SLPC  H10R 6304   0.095   1.312   9.530 -0.1521  1.5927 -1.7784
   72SLPC  C211 6305   0.202   1.494   9.482 -0.1298 -0.9945 -0.0900
   72SLPC  H11R 6306   0.286   1.546   9.532 -0.9740  1.4263 -1.0582
   72SLPC  H11S 6307   0.111   1.557   9.484 -0.1617 -1.0459  0.1101
   72SLPC  C212 6308   0.243   1.454   9.343  0.4877 -0.2772 -0.2577
   72SLPC  H12R 6309   0.351   1.443   9.327  0.7508 -1.3816  1.9509
   72SLPC  C213 6310   0.157   1.441   9.238  0.1993  0.1898  0.1772
   72SLPC  H13R 6311   0.202   1.421   9.140  0.9743 -1.0053  0.7538
   72SLPC  C214 6312   0.012   1.473   9.239 -0.0874  0.4579  0.1839
   72SLPC  H14R 6313  -0.016   1.558   9.305 -0.2865 -0.4295  1.2596
   72SLPC  H14S 6314  -0.050   1.391   9.281  1.3764 -0.2535  1.0337
   72SLPC  C215 6315  -0.043   1.513   9.095 -1.3980  0.4663  0.2659
   72SLPC  H15R 6316  -0.153   1.517   9.080 -1.2649  0.5914 -0.7134
   72SLPC  H15S 6317  -0.006   1.437   9.023  1.1471  1.0086  0.8785
   72SLPC  C216 6318   0.010   1.646   9.043  0.1266  0.1820  0.0401
   72SLPC  H16R 6319   0.121   1.650   9.043  0.1299  0.2912 -1.3064
   72SLPC  H16S 6320  -0.013   1.727   9.116  0.7772  1.9113 -1.5869
   72SLPC  C217 6321  -0.054   1.693   8.910 -0.0551  0.2948 -0.0302
   72SLPC  H17R 6322  -0.164   1.686   8.924  0.0881 -1.5989  0.3733
   72SLPC  H17S 6323  -0.013   1.611   8.848  3.1481  0.2903  1.8558
   72SLPC  C218 6324   0.015   1.818   8.850  0.0325 -0.3903  0.0625
   72SLPC  H18R 6325   0.012   1.909   8.914  1.0032  1.7202 -2.7022
   72SLPC  H18S 6326  -0.042   1.848   8.760 -0.4272  0.4964  0.6412
   72SLPC  H18T 6327   0.122   1.796   8.827  0.0952 -0.1051  0.0765
   72SLPC   C33 6328   0.500   1.026  10.116 -0.0404 -0.3396  0.6141
   72SLPC   H3X 6329   0.413   0.979  10.167  0.5657 -0.3510  1.6503
   72SLPC   H3Y 6330   0.584   0.955  10.127  1.1207  0.7740 -0.6650
   72SLPC   C34 6331   0.457   1.066   9.964  0.1528  0.1699 -0.1833
   72SLPC   H4X 6332   0.543   1.114   9.912 -1.6392  0.0824 -3.4384
   72SLPC   H4Y 6333   0.386   1.152   9.963  3.0897  2.7887 -0.6876
   72SLPC   C35 6334   0.416   0.947   9.876  0.0176 -0.1296 -0.2577
   72SLPC   H5X 6335   0.325   0.907   9.924 -0.2998 -0.8752 -1.4286
   72SLPC   H5Y 6336   0.492   0.867   9.884 -0.3994 -0.4649  0.4386
   72SLPC   C36 6337   0.382   0.970   9.727 -0.1080  0.0237  0.5059
   72SLPC   H6X 6338   0.478   0.998   9.679 -1.2334  2.6921 -0.3711
   72SLPC   H6Y 6339   0.317   1.059   9.709  0.4385  0.4999  0.8595
   72SLPC   C37 6340   0.320   0.844   9.662  0.2009  0.0703 -0.9716
   72SLPC   H7X 6341   0.215   0.823   9.693 -0.4488  1.8472 -1.8595
   72SLPC   H7Y 6342   0.387   0.757   9.676  1.0497  0.6873 -1.1482
   72SLPC   C38 6343   0.302   0.862   9.509 -0.4920  0.0446  0.2391
   72SLPC   H8X 6344   0.402   0.897   9.476 -0.6136  0.7458  0.6034
   72SLPC   H8Y 6345   0.222   0.932   9.478 -0.0981  0.9974  1.2749
   72SLPC   C39 6346   0.284   0.723   9.449 -0.4068 -1.0499 -0.3146
   72SLPC   H9X 6347   0.187   0.685   9.488 -1.2775  0.3821 -1.0320
   72SLPC   H9Y 6348   0.372   0.661   9.478 -0.0978  0.2144  1.5568
   72SLPC  C310 6349   0.284   0.726   9.299  0.2481  0.1829  0.0043
   72SLPC  H10X 6350   0.372   0.778   9.255  0.7435 -1.2442 -0.7610
   72SLPC  H10Y 6351   0.188   0.773   9.266 -0.8296 -1.5548  0.5523
   72SLPC  C311 6352   0.285   0.586   9.235  0.3019 -0.5394  0.4260
   72SLPC  H11X 6353   0.214   0.522   9.291  1.6071 -1.7756  0.7452
   72SLPC  H11Y 6354   0.384   0.537   9.249  1.0712  0.7502 -0.2605
   72SLPC  C312 6355   0.243   0.581   9.089  0.6767 -0.4543  0.1098
   72SLPC  H12X 6356   0.322   0.627   9.025  1.0079 -2.4665 -1.0080
   72SLPC  H12Y 6357   0.152   0.642   9.074  1.3312  0.2143 -1.4468
   72SLPC  C313 6358   0.206   0.437   9.045  0.1670  0.3033 -1.5759
   72SLPC  H13X 6359   0.153   0.448   8.948 -1.1636  0.8254 -0.8115
   72SLPC  H13Y 6360   0.132   0.403   9.120  1.5669  2.2029  0.8185
   72SLPC  C314 6361   0.332   0.343   9.038  0.0469 -0.4415 -0.2456
   72SLPC  H14X 6362   0.367   0.332   9.143  1.8250 -1.2096 -0.8684
   72SLPC  H14Y 6363   0.405   0.398   8.974 -1.5685 -0.7375 -2.4513
   72SLPC  C315 6364   0.303   0.194   8.992  0.3504  0.2007 -0.5745
   72SLPC  H15X 6365   0.230   0.211   8.909  0.5989  0.1000 -0.8164
   72SLPC  H15Y 6366   0.238   0.140   9.064 -2.8606  1.9008 -1.9814
   72SLPC  C316 6367   0.420   0.111   8.957 -0.0112  0.1618  0.3714
   72SLPC  H16X 6368   0.474   0.076   9.048  0.3923 -1.0156 -0.2969
   72SLPC  H16Y 6369   0.488   0.182   8.906 -0.4691 -0.9507 -1.8823
   72SLPC  C317 6370   0.400  -0.003   8.859 -0.3060  0.4653  0.2522
   72SLPC  H17X 6371   0.358   0.011   8.757 -0.2732  0.1763  0.1998
   72SLPC  H17Y 6372   0.327  -0.066   8.913 -0.7162 -0.8087 -1.6643
   72SLPC  C318 6373   0.529  -0.077   8.848 -0.1208  0.2232  0.0012
   72SLPC  H18X 6374   0.576  -0.093   8.948  0.2831  1.2077 -0.0217
   72SLPC  H18Y 6375   0.604  -0.015   8.794 -0.9032 -1.5038 -3.3290
   72SLPC  H18Z 6376   0.517  -0.170   8.788 -1.5283  0.3032  0.1305
   73SLPC     N 6377   5.191   4.609  11.314  0.3768 -0.6339  0.4686
   73SLPC   C13 6378   5.140   4.737  11.363 -0.3503 -0.1425 -0.0210
   73SLPC  H13A 6379   5.207   4.821  11.366  0.8267 -1.0030 -1.1670
   73SLPC  H13B 6380   5.059   4.775  11.302  0.1041  0.5129 -0.2282
   73SLPC  H13C 6381   5.093   4.724  11.459  0.4141  2.0272  0.7021
   73SLPC   C14 6382   5.074   4.520  11.303  0.0679 -0.1921 -0.0227
   73SLPC  H14A 6383   5.095   4.427  11.253  2.6420  1.3234 -2.0478
   73SLPC  H14B 6384   5.028   4.516  11.401  2.0367  1.1213  1.0162
   73SLPC  H14C 6385   5.009   4.584  11.244 -0.2936  0.8975  1.4943
   73SLPC   C15 6386   5.296   4.549  11.409  0.1107  0.7866  0.0478
   73SLPC  H15A 6387   5.378   4.614  11.437 -0.3805  1.8747 -0.9782
   73SLPC  H15B 6388   5.245   4.532  11.503 -0.7771  1.5165 -0.2801
   73SLPC  H15C 6389   5.326   4.451  11.375 -1.7073 -0.4715  1.8083
   73SLPC   C12 6390   5.251   4.621  11.172 -0.3985  0.3300  0.6263
   73SLPC  H12A 6391   5.285   4.521  11.149  1.3690  1.5856 -2.9782
   73SLPC  H12B 6392   5.341   4.681  11.170 -0.0061 -0.2023 -1.5800
   73SLPC   C11 6393   5.163   4.659  11.055 -0.5655  0.2995 -0.2602
   73SLPC  H11A 6394   5.073   4.594  11.062 -0.0483 -0.6486 -1.7679
   73SLPC  H11B 6395   5.211   4.646  10.956 -1.5231 -1.0437 -0.5859
   73SLPC     P 6396   5.215   4.916  11.049  0.2893  0.1455 -0.1051
   73SLPC   O13 6397   5.121   5.037  11.041  0.0548  0.3885 -0.1578
   73SLPC   O14 6398   5.320   4.914  11.149  0.5164  0.3377  0.1454
   73SLPC   O12 6399   5.127   4.792  11.072  0.0282  0.5083  0.0752
   73SLPC   O11 6400   5.277   4.898  10.908 -0.1982 -0.0421  0.0866
   73SLPC    C1 6401   5.195   4.912  10.792  0.1238  0.0801  0.3737
   73SLPC    HA 6402   5.146   4.814  10.779  0.7739 -0.3784  1.2728
   73SLPC    HB 6403   5.114   4.986  10.809  0.0948  0.0569  0.3387
   73SLPC    C2 6404   5.285   4.953  10.673  0.0595 -0.0368 -1.3123
   73SLPC    HS 6405   5.225   4.978  10.583 -0.7906  1.4324 -0.3709
   73SLPC   O21 6406   5.372   4.835  10.646  0.2869 -0.1413 -0.6637
   73SLPC   C21 6407   5.319   4.746  10.559  0.3847 -0.2095  0.1848
   73SLPC   O22 6408   5.200   4.750  10.520 -0.5092  0.1990 -0.0514
   73SLPC   C22 6409   5.419   4.647  10.522 -0.5877 -0.5694 -0.1321
   73SLPC   H2R 6410   5.514   4.660  10.578 -0.6745  1.0498 -0.3131
   73SLPC   H2S 6411   5.385   4.542  10.537  1.2596 -1.2712 -0.5924
   73SLPC    C3 6412   5.377   5.071  10.707  0.4320 -0.2538  0.9639
   73SLPC    HX 6413   5.455   5.045  10.781 -0.0438 -1.2744  1.1303
   73SLPC    HY 6414   5.307   5.143  10.754 -1.6507 -1.3073 -0.3761
   73SLPC   O31 6415   5.435   5.122  10.584 -0.0381  0.0961  0.0883
   73SLPC   C31 6416   5.370   5.185  10.488  0.4762 -0.2603  0.1725
   73SLPC   O32 6417   5.249   5.210  10.488 -0.2608 -0.1279  0.1369
   73SLPC   C32 6418   5.465   5.225  10.382  0.1405  0.2370 -0.3268
   73SLPC   H2X 6419   5.506   5.131  10.339 -2.3238 -0.2822 -1.7278
   73SLPC   H2Y 6420   5.547   5.283  10.431 -1.8955  3.1426 -0.1110
   73SLPC   C23 6421   5.463   4.662  10.375 -0.3431  0.5630 -0.3422
   73SLPC   H3R 6422   5.386   4.695  10.302  1.0760  1.1023 -1.6437
   73SLPC   H3S 6423   5.493   4.564  10.331 -4.7148  0.1587 -3.0511
   73SLPC   C24 6424   5.583   4.755  10.370 -0.2944  1.0520 -0.7542
   73SLPC   H4R 6425   5.680   4.702  10.387 -1.7302 -0.7300  3.1026
   73SLPC   H4S 6426   5.569   4.831  10.450 -1.0915  1.8251 -1.6190
   73SLPC   C25 6427   5.598   4.847  10.250 -0.1033  0.3357 -0.2063
   73SLPC   H5R 6428   5.676   4.925  10.265 -1.3403  1.4071  0.9403
   73SLPC   H5S 6429   5.499   4.898  10.258 -1.2778 -1.9839  1.0085
   73SLPC   C26 6430   5.622   4.784  10.107  0.2183 -0.0332 -0.3787
   73SLPC   H6R 6431   5.529   4.732  10.076  0.1979  1.7688 -3.8536
   73SLPC   H6S 6432   5.704   4.710  10.114 -2.3901 -2.9837  1.2637
   73SLPC   C27 6433   5.639   4.900  10.002  0.0519 -0.6008  0.4046
   73SLPC   H7R 6434   5.720   4.974  10.020 -2.3637  2.3454  0.0165
   73SLPC   H7S 6435   5.548   4.958  10.026 -0.1367 -0.8449  0.2843
   73SLPC   C28 6436   5.623   4.851   9.857 -0.1211  1.6557 -0.4506
   73SLPC   H8R 6437   5.592   4.938   9.795 -1.9340  0.0842 -1.8422
   73SLPC   H8S 6438   5.533   4.787   9.846  1.1090 -0.0792 -0.8769
   73SLPC   C29 6439   5.746   4.785   9.792  0.0842 -0.0779 -0.0216
   73SLPC   H9R 6440   5.749   4.678   9.817  0.8492 -0.3002 -1.0128
   73SLPC  C210 6441   5.853   4.847   9.738  0.6620  0.5856 -0.9340
   73SLPC  H10R 6442   5.924   4.780   9.689 -1.2340 -1.3560 -1.1948
   73SLPC  C211 6443   5.887   4.995   9.728  0.7718  0.7115 -0.4522
   73SLPC  H11R 6444   5.921   5.021   9.830 -1.7443  0.3616  0.5596
   73SLPC  H11S 6445   5.797   5.061   9.727  0.9891  1.0130 -0.0655
   73SLPC  C212 6446   5.974   5.035   9.611  0.4566  0.3126  0.0069
   73SLPC  H12R 6447   6.077   5.066   9.633  0.4264 -0.0945  0.7506
   73SLPC  C213 6448   5.936   5.054   9.484 -0.1622 -0.0906 -0.5059
   73SLPC  H13R 6449   6.011   5.078   9.407 -0.0244 -0.2982 -0.4367
   73SLPC  C214 6450   5.799   5.025   9.416 -0.1549 -0.2589 -0.0074
   73SLPC  H14R 6451   5.792   5.101   9.336  1.1561 -0.8537 -0.7297
   73SLPC  H14S 6452   5.712   5.036   9.485 -0.3046 -0.4277 -0.1670
   73SLPC  C215 6453   5.795   4.891   9.334 -0.2625 -0.0434 -0.0956
   73SLPC  H15R 6454   5.697   4.893   9.282 -0.4210 -1.1562  0.1377
   73SLPC  H15S 6455   5.795   4.812   9.412  1.5331  0.4129  0.4113
   73SLPC  C216 6456   5.911   4.859   9.242  0.0984  0.6337 -0.3491
   73SLPC  H16R 6457   5.991   4.799   9.291 -1.5196 -0.9030  0.5662
   73SLPC  H16S 6458   5.949   4.948   9.188 -2.5066  0.9549 -1.8657
   73SLPC  C217 6459   5.858   4.766   9.135 -0.6856  0.3513 -0.0901
   73SLPC  H17R 6460   5.818   4.674   9.183 -1.5261  0.2980 -0.8670
   73SLPC  H17S 6461   5.952   4.737   9.083 -1.3977  0.4951 -1.4888
   73SLPC  C218 6462   5.761   4.824   9.039 -0.4419 -0.6876  0.2682
   73SLPC  H18R 6463   5.789   4.930   9.024  0.0138 -0.6275  1.4427
   73SLPC  H18S 6464   5.658   4.822   9.082 -1.0038 -1.6219 -1.0383
   73SLPC  H18T 6465   5.766   4.769   8.943  1.8627 -1.0397  0.5386
   73SLPC   C33 6466   5.383   5.311  10.276  0.7307 -0.5227  0.1202
   73SLPC   H3X 6467   5.313   5.383  10.323 -0.2301 -1.0500 -0.4617
   73SLPC   H3Y 6468   5.315   5.241  10.223 -1.9893 -0.9048  3.7204
   73SLPC   C34 6469   5.476   5.390  10.180  0.3594 -0.1206  0.3989
   73SLPC   H4X 6470   5.580   5.390  10.219  0.1455  0.7388  0.9881
   73SLPC   H4Y 6471   5.432   5.491  10.177  0.4988 -0.0700 -0.1744
   73SLPC   C35 6472   5.471   5.331  10.042  0.3775  0.1452  0.6131
   73SLPC   H5X 6473   5.370   5.325   9.996  1.0648  2.9276 -1.5172
   73SLPC   H5Y 6474   5.523   5.233  10.036  4.0173  1.9954 -3.9401
   73SLPC   C36 6475   5.549   5.429   9.946  0.3062  0.1757 -0.1640
   73SLPC   H6X 6476   5.645   5.447   9.998  0.6455 -1.4462 -0.1921
   73SLPC   H6Y 6477   5.504   5.529   9.926  1.8347  1.0302  0.4934
   73SLPC   C37 6478   5.580   5.355   9.813 -0.0815  0.3843 -0.9650
   73SLPC   H7X 6479   5.485   5.318   9.770 -0.3040 -1.6344  1.0651
   73SLPC   H7Y 6480   5.635   5.265   9.847 -1.3121  0.3840  1.2588
   73SLPC   C38 6481   5.646   5.451   9.722 -0.8228  0.4495  1.1344
   73SLPC   H8X 6482   5.725   5.507   9.777  1.3908 -0.8621 -0.5479
   73SLPC   H8Y 6483   5.569   5.526   9.691 -2.8621 -0.8227  2.8282
   73SLPC   C39 6484   5.716   5.374   9.611  0.1267 -0.0799 -0.6827
   73SLPC   H9X 6485   5.649   5.294   9.572 -0.9402 -0.1387  1.1771
   73SLPC   H9Y 6486   5.804   5.327   9.658 -0.5117 -0.3967  0.2161
   73SLPC  C310 6487   5.753   5.458   9.488 -0.2091 -0.6188  0.0943
   73SLPC  H10X 6488   5.841   5.410   9.441  1.5321  0.6540  1.9000
   73SLPC  H10Y 6489   5.781   5.558   9.527  2.5245 -2.1417  2.3990
   73SLPC  C311 6490   5.646   5.475   9.377 -0.5474  0.7276 -0.0708
   73SLPC  H11X 6491   5.556   5.513   9.430 -1.3002  0.4755 -1.1291
   73SLPC  H11Y 6492   5.624   5.376   9.330  2.8090  0.6607 -1.8065
   73SLPC  C312 6493   5.685   5.571   9.259  0.3220 -0.2147 -0.4319
   73SLPC  H12X 6494   5.706   5.669   9.306  1.8120  1.2862 -3.8726
   73SLPC  H12Y 6495   5.591   5.580   9.202  0.5243  0.2840 -0.6893
   73SLPC  C313 6496   5.786   5.536   9.149  0.5091  0.4652  0.0260
   73SLPC  H13X 6497   5.888   5.560   9.187  0.7728 -3.5574  2.3996
   73SLPC  H13Y 6498   5.758   5.593   9.057 -0.0126  0.6051  0.2700
   73SLPC  C314 6499   5.783   5.388   9.106  0.3816  0.5576 -0.4751
   73SLPC  H14X 6500   5.674   5.362   9.108 -0.0234  2.1958 -0.2255
   73SLPC  H14Y 6501   5.826   5.328   9.189 -0.6815  1.9894  1.1747
   73SLPC  C315 6502   5.855   5.353   8.979 -0.1251  0.2412 -0.4820
   73SLPC  H15X 6503   5.964   5.375   8.985  0.0008  0.3258 -2.3927
   73SLPC  H15Y 6504   5.817   5.414   8.894 -0.4313 -0.8821 -1.1808
   73SLPC  C316 6505   5.836   5.207   8.937 -0.3748 -0.6379 -0.2951
   73SLPC  H16X 6506   5.728   5.187   8.920 -1.0930  1.0484  1.8375
   73SLPC  H16Y 6507   5.868   5.144   9.022  0.6334  0.1621 -0.0610
   73SLPC  C317 6508   5.925   5.172   8.815  0.6180  0.0911  0.4025
   73SLPC  H17X 6509   6.030   5.196   8.842  0.4425 -0.7645  1.9415
   73SLPC  H17Y 6510   5.887   5.223   8.724  1.3903 -3.3242 -2.0557
   73SLPC  C318 6511   5.919   5.022   8.774  0.1727 -0.2202 -0.1907
   73SLPC  H18X 6512   5.971   5.013   8.676  1.8340  1.4527  0.4773
   73SLPC  H18Y 6513   5.809   5.006   8.780  0.2892 -0.5964  5.0851
   73SLPC  H18Z 6514   5.971   4.965   8.854  0.9634  0.3661 -0.2692
   74SLPC     N 6515   1.209   2.029  11.098 -0.0817 -0.0966  0.3793
   74SLPC   C13 6516   1.346   1.973  11.108  0.4462 -0.3274 -0.6433
   74SLPC  H13A 6517   1.417   2.034  11.163 -1.0415  0.3976  0.5476
   74SLPC  H13B 6518   1.352   1.888  11.175 -0.1736  0.4895  0.4843
   74SLPC  H13C 6519   1.388   1.952  11.011 -1.4427  0.5500 -1.7057
   74SLPC   C14 6520   1.216   2.163  11.028 -0.3061  0.6058  0.1638
   74SLPC  H14A 6521   1.278   2.233  11.082  0.1304  1.4628 -1.3943
   74SLPC  H14B 6522   1.257   2.151  10.929  2.1274 -0.5397  1.2252
   74SLPC  H14C 6523   1.123   2.217  11.019  0.5134  1.8970 -0.7243
   74SLPC   C15 6524   1.158   2.048  11.241  0.2262  0.5418  0.7516
   74SLPC  H15A 6525   1.061   2.093  11.229  0.6017  1.4707  1.1144
   74SLPC  H15B 6526   1.135   1.959  11.297 -3.6591  0.7787 -0.2203
   74SLPC  H15C 6527   1.219   2.126  11.285 -1.5991  1.6365  1.4893
   74SLPC   C12 6528   1.117   1.933  11.018 -0.0013 -0.6752  0.1211
   74SLPC  H12A 6529   1.112   1.834  11.061 -1.3191 -0.3385  0.7738
   74SLPC  H12B 6530   1.155   1.933  10.917  2.1278  0.0730  0.8766
   74SLPC   C11 6531   0.969   1.986  10.996 -0.3603  0.0951  0.1688
   74SLPC  H11A 6532   0.924   2.008  11.095 -2.2123 -1.5197 -0.2481
   74SLPC  H11B 6533   0.908   1.901  10.958 -1.3332  0.3571  1.1142
   74SLPC     P 6534   0.809   2.154  10.897  0.2789  0.1466 -0.0005
   74SLPC   O13 6535   0.710   2.079  10.980 -0.3574 -0.2339 -0.3525
   74SLPC   O14 6536   0.821   2.298  10.933 -0.7352  0.3750  0.4067
   74SLPC   O12 6537   0.950   2.097  10.909 -0.1045  0.2800  0.9772
   74SLPC   O11 6538   0.777   2.147  10.744 -0.3098  0.3222 -0.3004
   74SLPC    C1 6539   0.853   2.225  10.648  0.0694 -0.0294  0.1211
   74SLPC    HA 6540   0.864   2.327  10.691 -1.0943 -0.3750  1.2924
   74SLPC    HB 6541   0.953   2.180  10.631  0.1990  0.0853  0.5718
   74SLPC    C2 6542   0.787   2.228  10.511 -0.0714 -0.3520 -0.4699
   74SLPC    HS 6543   0.838   2.313  10.460  1.9404 -0.3496  1.4162
   74SLPC   O21 6544   0.652   2.246  10.526  0.2228 -0.0930 -0.5643
   74SLPC   C21 6545   0.617   2.374  10.556 -0.2000  0.2213 -0.8852
   74SLPC   O22 6546   0.691   2.472  10.573 -0.0133  0.5096  0.3286
   74SLPC   C22 6547   0.465   2.386  10.577  0.3709 -0.6038  0.5797
   74SLPC   H2R 6548   0.441   2.331  10.670 -0.5326  0.9941  1.3332
   74SLPC   H2S 6549   0.433   2.491  10.594 -1.8502 -0.5581 -2.7564
   74SLPC    C3 6550   0.803   2.097  10.436 -0.6453  0.0952 -0.2529
   74SLPC    HX 6551   0.730   2.019  10.465 -0.6566  0.3359  0.3832
   74SLPC    HY 6552   0.903   2.051  10.453 -1.3452 -0.7901  1.6614
   74SLPC   O31 6553   0.791   2.142  10.294 -0.3500  0.8480  0.5786
   74SLPC   C31 6554   0.695   2.086  10.224 -0.3420 -0.0173 -0.6549
   74SLPC   O32 6555   0.623   1.993  10.255  0.0139 -0.5298  0.8751
   74SLPC   C32 6556   0.690   2.153  10.084 -0.3685 -0.3745  1.1492
   74SLPC   H2X 6557   0.787   2.202  10.062 -0.4378  0.5542  2.8198
   74SLPC   H2Y 6558   0.602   2.220  10.081 -3.2455 -3.8197 -0.8505
   74SLPC   C23 6559   0.401   2.334  10.446 -0.1330  0.4159 -0.4114
   74SLPC   H3R 6560   0.296   2.315  10.474  0.9561 -0.4207  3.7818
   74SLPC   H3S 6561   0.423   2.228  10.420 -0.0992 -0.1014  1.5915
   74SLPC   C24 6562   0.401   2.424  10.322 -0.6339  0.0096  0.0113
   74SLPC   H4R 6563   0.504   2.420  10.281 -0.1781 -1.3006  1.2139
   74SLPC   H4S 6564   0.376   2.528  10.352 -0.0379 -0.0110  0.5987
   74SLPC   C25 6565   0.309   2.370  10.215 -0.0663  0.6634 -0.2608
   74SLPC   H5R 6566   0.208   2.405  10.246  0.1056  3.7983 -2.7087
   74SLPC   H5S 6567   0.329   2.261  10.217 -0.0354  0.6172  3.1739
   74SLPC   C26 6568   0.339   2.420  10.075  0.4468 -0.5017  1.0861
   74SLPC   H6R 6569   0.432   2.371  10.037 -0.6077 -1.2341 -0.6700
   74SLPC   H6S 6570   0.360   2.529  10.085 -1.7325  0.0597  0.1113
   74SLPC   C27 6571   0.223   2.407   9.985 -0.1317  0.0566  0.5410
   74SLPC   H7R 6572   0.133   2.405  10.050 -0.7222  1.4333 -0.2051
   74SLPC   H7S 6573   0.223   2.305   9.939 -0.3414  1.1511 -2.0859
   74SLPC   C28 6574   0.215   2.522   9.882  0.3389 -0.2087  0.6062
   74SLPC   H8R 6575   0.198   2.614   9.940  0.2931  0.1988 -0.0421
   74SLPC   H8S 6576   0.131   2.489   9.817  2.2412 -1.9536 -1.1585
   74SLPC   C29 6577   0.337   2.541   9.789  0.1761  0.2135 -0.5808
   74SLPC   H9R 6578   0.431   2.562   9.843 -0.0397  0.9774 -0.4835
   74SLPC  C210 6579   0.339   2.542   9.656 -0.1749  0.2371  0.0699
   74SLPC  H10R 6580   0.441   2.539   9.613 -0.0502 -2.1376  0.3995
   74SLPC  C211 6581   0.226   2.521   9.561  0.0483  0.1354 -0.4671
   74SLPC  H11R 6582   0.142   2.590   9.585 -1.1083 -1.0683 -0.8976
   74SLPC  H11S 6583   0.191   2.417   9.580  2.4110 -0.9232 -1.4895
   74SLPC  C212 6584   0.250   2.547   9.414  0.2054  0.1376  0.5126
   74SLPC  H12R 6585   0.226   2.651   9.388 -3.1840 -1.0571 -1.8553
   74SLPC  C213 6586   0.278   2.465   9.310  0.8350  0.5449 -0.7652
   74SLPC  H13R 6587   0.293   2.508   9.210  0.3114  0.7564 -0.7546
   74SLPC  C214 6588   0.286   2.314   9.336  0.1885  0.1213 -0.0622
   74SLPC  H14R 6589   0.219   2.274   9.414 -0.6741 -2.5161 -2.0310
   74SLPC  H14S 6590   0.386   2.300   9.381 -0.2378  2.9697  2.0974
   74SLPC  C215 6591   0.250   2.230   9.213 -0.0558  0.3464 -0.5116
   74SLPC  H15R 6592   0.333   2.229   9.139  0.2829  2.7064 -0.2659
   74SLPC  H15S 6593   0.157   2.258   9.159  0.2669 -1.8629 -2.3741
   74SLPC  C216 6594   0.228   2.087   9.253 -0.9031 -0.2961  0.3756
   74SLPC  H16R 6595   0.145   2.082   9.327  0.0925  2.1692  1.7547
   74SLPC  H16S 6596   0.317   2.057   9.312 -1.9514  3.1404  4.2295
   74SLPC  C217 6597   0.200   1.990   9.138 -0.0691  0.9660 -0.3111
   74SLPC  H17R 6598   0.120   2.037   9.077 -1.1809 -1.5750 -0.9261
   74SLPC  H17S 6599   0.156   1.897   9.181  1.5075 -0.2281 -1.1774
   74SLPC  C218 6600   0.323   1.949   9.052  0.1943 -0.4558 -0.1419
   74SLPC  H18R 6601   0.402   1.888   9.102  0.5437 -0.1802 -0.3583
   74SLPC  H18S 6602   0.368   2.036   9.001  0.2397 -1.8576 -2.6822
   74SLPC  H18T 6603   0.277   1.884   8.974  1.4125 -2.5166  0.7575
   74SLPC   C33 6604   0.665   2.053   9.963  0.1184  0.2919  0.1808
   74SLPC   H3X 6605   0.580   1.992  10.000 -0.1989  1.4686  1.4771
   74SLPC   H3Y 6606   0.759   1.995   9.951  1.4233  2.4312 -0.6976
   74SLPC   C34 6607   0.634   2.125   9.827  0.2617  0.4022 -0.8764
   74SLPC   H4X 6608   0.651   2.047   9.749 -1.6558  0.1521 -1.1035
   74SLPC   H4Y 6609   0.716   2.199   9.814  0.3671  0.1962 -1.4321
   74SLPC   C35 6610   0.479   2.174   9.816 -0.3146 -0.1666 -0.1859
   74SLPC   H5X 6611   0.482   2.275   9.770  0.4292 -0.0102  0.1914
   74SLPC   H5Y 6612   0.453   2.196   9.922  2.6906  1.6961  0.2746
   74SLPC   C36 6613   0.391   2.081   9.730  0.3950  0.2460  0.0638
   74SLPC   H6X 6614   0.384   1.985   9.786 -0.9949  0.0961 -0.3495
   74SLPC   H6Y 6615   0.438   2.065   9.631  0.5723  0.7209  0.0668
   74SLPC   C37 6616   0.253   2.140   9.722  0.5045  0.0353 -0.1366
   74SLPC   H7X 6617   0.245   2.245   9.686 -1.9354 -0.3641 -0.8909
   74SLPC   H7Y 6618   0.193   2.145   9.815 -0.0691  0.2490 -0.5149
   74SLPC   C38 6619   0.162   2.055   9.628 -0.5648  0.1080  0.1532
   74SLPC   H8X 6620   0.222   2.044   9.535  0.1771  0.4275  0.5887
   74SLPC   H8Y 6621   0.071   2.116   9.611 -0.2089  0.9106  1.0883
   74SLPC   C39 6622   0.125   1.916   9.684  0.3112 -0.0117 -0.4553
   74SLPC   H9X 6623   0.071   1.924   9.781 -1.8411 -0.3243 -1.5807
   74SLPC   H9Y 6624   0.220   1.860   9.702  0.3640 -0.0168 -0.7512
   74SLPC  C310 6625   0.052   1.819   9.584 -0.0026 -0.0509  0.7292
   74SLPC  H10X 6626   0.048   1.717   9.627 -0.5262 -0.9301 -1.2893
   74SLPC  H10Y 6627   0.109   1.803   9.489 -0.1391  1.4969  0.3607
   74SLPC  C311 6628  -0.088   1.872   9.556 -0.3832  0.0889 -0.4046
   74SLPC  H11X 6629  -0.076   1.981   9.539  3.0041  0.7997  4.4241
   74SLPC  H11Y 6630  -0.152   1.860   9.646  0.4394 -1.1337  0.0527
   74SLPC  C312 6631  -0.145   1.799   9.432  0.1277  0.3923 -0.1580
   74SLPC  H12X 6632  -0.139   1.689   9.425 -1.6021  0.2564  0.0557
   74SLPC  H12Y 6633  -0.085   1.840   9.348  0.4287  0.5255  0.1186
   74SLPC  C313 6634  -0.284   1.838   9.395 -0.7701  0.5115  0.2028
   74SLPC  H13X 6635  -0.303   1.947   9.402 -0.6765  0.5013  0.6772
   74SLPC  H13Y 6636  -0.346   1.793   9.476 -0.5176  0.0349  0.1343
   74SLPC  C314 6637  -0.337   1.766   9.261  0.1996  0.0069  0.4479
   74SLPC  H14X 6638  -0.350   1.661   9.293 -1.0275  0.9471  3.3565
   74SLPC  H14Y 6639  -0.254   1.795   9.193  1.4098 -1.0710  1.4154
   74SLPC  C315 6640  -0.471   1.823   9.214 -0.3852  0.4679 -0.4629
   74SLPC  H15X 6641  -0.477   1.933   9.225  1.1879  1.2894 -5.1972
   74SLPC  H15Y 6642  -0.544   1.774   9.282  1.4528 -2.4379 -0.4026
   74SLPC  C316 6643  -0.508   1.788   9.075 -0.0142 -0.1740  0.7245
   74SLPC  H16X 6644  -0.431   1.822   9.004 -0.7219  0.4186  0.2267
   74SLPC  H16Y 6645  -0.598   1.851   9.056  0.1804  0.1043  0.7266
   74SLPC  C317 6646  -0.565   1.644   9.068 -0.0637 -0.6241  0.9954
   74SLPC  H17X 6647  -0.654   1.640   9.133 -0.4237 -0.9621  0.4844
   74SLPC  H17Y 6648  -0.490   1.578   9.116  2.1839 -0.2106 -1.6579
   74SLPC  C318 6649  -0.612   1.597   8.929 -0.0706 -0.5864 -0.7477
   74SLPC  H18X 6650  -0.610   1.487   8.921 -0.5887 -0.4879 -2.6996
   74SLPC  H18Y 6651  -0.547   1.632   8.846  2.4932  0.4408  1.5038
   74SLPC  H18Z 6652  -0.717   1.630   8.917 -0.2137 -0.9698 -0.5427
   75SLPC     N 6653   0.701   5.772   6.210 -0.4868  0.0497 -0.5883
   75SLPC   C13 6654   0.703   5.865   6.097 -0.0064  0.2966 -0.3188
   75SLPC  H13A 6655   0.640   5.950   6.116  0.9011  1.0423 -0.5760
   75SLPC  H13B 6656   0.802   5.901   6.074  0.0109  0.1268 -0.5103
   75SLPC  H13C 6657   0.684   5.816   6.002  1.2304 -2.7534  0.8657
   75SLPC   C14 6658   0.776   5.645   6.199 -0.0348 -0.2772  0.9312
   75SLPC  H14A 6659   0.754   5.586   6.286  2.5618 -3.6367 -0.4248
   75SLPC  H14B 6660   0.751   5.601   6.103  2.4121  1.5421 -0.6715
   75SLPC  H14C 6661   0.884   5.656   6.197  0.1722 -2.0131  0.0622
   75SLPC   C15 6662   0.559   5.749   6.223  0.4896  0.1550  0.1185
   75SLPC  H15A 6663   0.503   5.840   6.212 -1.0810 -1.0652 -3.6157
   75SLPC  H15B 6664   0.537   5.683   6.140  1.8988 -0.7120  0.3947
   75SLPC  H15C 6665   0.529   5.699   6.314  1.9118  0.6851  0.9132
   75SLPC   C12 6666   0.744   5.856   6.330  0.7850  0.1600  0.0156
   75SLPC  H12A 6667   0.679   5.942   6.324  0.4348 -0.1887 -1.8542
   75SLPC  H12B 6668   0.838   5.901   6.304 -0.6232  2.0642 -2.1435
   75SLPC   C11 6669   0.744   5.795   6.475 -0.3950 -0.0770 -0.5303
   75SLPC  H11A 6670   0.763   5.874   6.550  2.6972 -1.8028  0.6729
   75SLPC  H11B 6671   0.828   5.722   6.472 -1.8928 -1.8835 -2.5730
   75SLPC     P 6672   0.517   5.758   6.608  0.1077 -0.4284 -0.0941
   75SLPC   O13 6673   0.515   5.904   6.634  0.1695 -0.1917 -0.3632
   75SLPC   O14 6674   0.385   5.699   6.571 -0.0578 -0.0591  0.4797
   75SLPC   O12 6675   0.631   5.715   6.510  0.1518 -0.4125  0.1175
   75SLPC   O11 6676   0.560   5.682   6.733  0.4109  0.7945 -0.4371
   75SLPC    C1 6677   0.696   5.650   6.775  0.2581 -0.1315 -0.7441
   75SLPC    HA 6678   0.769   5.652   6.691 -0.7458  1.4478 -1.6412
   75SLPC    HB 6679   0.725   5.727   6.849 -0.1713 -0.7616  0.0955
   75SLPC    C2 6680   0.701   5.511   6.844  0.2013 -0.7109  0.1635
   75SLPC    HS 6681   0.653   5.443   6.770  0.4155 -2.7497  1.8288
   75SLPC   O21 6682   0.630   5.513   6.967  0.5000 -0.0887  0.4653
   75SLPC   C21 6683   0.686   5.557   7.074  0.2122  0.2474  0.6704
   75SLPC   O22 6684   0.800   5.603   7.078  0.3326  0.0341  0.1497
   75SLPC   C22 6685   0.584   5.579   7.175  0.8440  0.4465  0.2282
   75SLPC   H2R 6686   0.555   5.685   7.160  1.2709  0.3651 -1.3001
   75SLPC   H2S 6687   0.493   5.518   7.159 -1.0587  3.0240  0.5662
   75SLPC    C3 6688   0.845   5.460   6.857  0.1166 -0.1245  0.2786
   75SLPC    HX 6689   0.908   5.547   6.886 -0.8254  0.2362  1.3308
   75SLPC    HY 6690   0.872   5.422   6.757 -1.8919  2.7767 -1.5322
   75SLPC   O31 6691   0.863   5.352   6.948  0.7534 -0.2345 -0.0135
   75SLPC   C31 6692   0.978   5.317   6.973 -0.3008 -0.8842  0.0663
   75SLPC   O32 6693   1.077   5.346   6.906  0.5993 -0.2917  0.3443
   75SLPC   C32 6694   0.983   5.236   7.104 -0.4134 -0.0174  0.3917
   75SLPC   H2X 6695   1.090   5.208   7.115 -0.3714  0.6580  2.0484
   75SLPC   H2Y 6696   0.928   5.142   7.082 -0.0746 -0.0268 -0.4226
   75SLPC   C23 6697   0.636   5.561   7.322  1.1964  0.1504 -0.0076
   75SLPC   H3R 6698   0.708   5.643   7.344  1.5717 -0.2190  0.1666
   75SLPC   H3S 6699   0.688   5.463   7.312  0.3814 -0.1042 -2.5135
   75SLPC   C24 6700   0.506   5.560   7.414  0.4275  0.3945 -0.0842
   75SLPC   H4R 6701   0.463   5.469   7.365  1.2348 -0.6595  1.0918
   75SLPC   H4S 6702   0.454   5.657   7.401  1.9038  1.1610 -0.4426
   75SLPC   C25 6703   0.529   5.538   7.561 -0.3650 -0.9669  0.0404
   75SLPC   H5R 6704   0.589   5.624   7.600 -2.4454 -0.3147  1.9684
   75SLPC   H5S 6705   0.594   5.449   7.571  0.0590 -0.9306 -1.9872
   75SLPC   C26 6706   0.405   5.531   7.650  0.2294 -0.4079  0.3820
   75SLPC   H6R 6707   0.339   5.444   7.626  0.9849 -1.2259  1.1824
   75SLPC   H6S 6708   0.354   5.626   7.627  0.4670 -0.7596 -1.7933
   75SLPC   C27 6709   0.450   5.536   7.801  0.8246  0.2633  0.3345
   75SLPC   H7R 6710   0.554   5.573   7.814  1.3118 -0.8099 -0.3484
   75SLPC   H7S 6711   0.465   5.435   7.843 -0.2317  0.5624  1.4769
   75SLPC   C28 6712   0.363   5.631   7.891 -0.5164 -0.7804  0.1038
   75SLPC   H8R 6713   0.384   5.733   7.853  0.5852 -0.9607  0.2081
   75SLPC   H8S 6714   0.408   5.629   7.992 -0.5624  2.2460  0.2500
   75SLPC   C29 6715   0.214   5.605   7.907  0.2199  0.0674  0.5140
   75SLPC   H9R 6716   0.179   5.503   7.933 -2.4280  1.3997  2.7048
   75SLPC  C210 6717   0.116   5.696   7.890  0.3925 -0.2818 -0.1556
   75SLPC  H10R 6718   0.012   5.663   7.906 -0.6078  2.2518 -0.9644
   75SLPC  C211 6719   0.131   5.846   7.866  0.1975 -0.3164  0.8341
   75SLPC  H11R 6720   0.137   5.866   7.757 -1.8959  2.7777  1.1534
   75SLPC  H11S 6721   0.220   5.890   7.917  1.2648  1.4613 -2.2834
   75SLPC  C212 6722   0.023   5.928   7.925 -0.2469  0.6901  0.2905
   75SLPC  H12R 6723   0.046   5.958   8.028 -2.3127 -1.8709  1.6379
   75SLPC  C213 6724  -0.091   5.974   7.873 -0.2275 -0.0992  0.2483
   75SLPC  H13R 6725  -0.163   6.017   7.945 -1.1223  0.9257 -1.2196
   75SLPC  C214 6726  -0.143   5.965   7.732  0.0598  0.0757 -0.7192
   75SLPC  H14R 6727  -0.197   5.871   7.707  1.5996 -1.6245  1.8259
   75SLPC  H14S 6728  -0.054   5.956   7.667 -0.7033  0.3807 -1.8308
   75SLPC  C215 6729  -0.207   6.099   7.691  0.1522  0.2277  0.5431
   75SLPC  H15R 6730  -0.128   6.174   7.670 -1.1473  1.1540 -1.3720
   75SLPC  H15S 6731  -0.289   6.131   7.759 -3.1216 -2.9941 -1.4572
   75SLPC  C216 6732  -0.287   6.097   7.553  0.0216  0.7032 -0.3394
   75SLPC  H16R 6733  -0.297   6.203   7.520 -0.0559  0.5111 -0.9342
   75SLPC  H16S 6734  -0.387   6.054   7.577 -0.3618  2.2986  1.1573
   75SLPC  C217 6735  -0.225   6.006   7.444 -0.0769 -0.2218 -0.6073
   75SLPC  H17R 6736  -0.222   5.901   7.479  1.6349  0.1635  0.5389
   75SLPC  H17S 6737  -0.124   6.047   7.421 -1.5265  3.1913 -1.5551
   75SLPC  C218 6738  -0.318   6.010   7.318  0.4625  0.4388 -0.2639
   75SLPC  H18R 6739  -0.359   5.912   7.286 -2.1183  0.8659  1.4397
   75SLPC  H18S 6740  -0.263   6.066   7.238  1.0328  0.9553  0.4704
   75SLPC  H18T 6741  -0.407   6.074   7.335 -0.2859  0.0496 -2.4127
   75SLPC   C33 6742   0.932   5.311   7.236 -0.0411  1.0829 -0.5309
   75SLPC   H3X 6743   0.989   5.405   7.249 -0.4117  1.5212 -1.9137
   75SLPC   H3Y 6744   0.824   5.334   7.224 -0.4658 -0.9118 -0.9904
   75SLPC   C34 6745   0.950   5.222   7.369  0.0986 -0.3353  0.6766
   75SLPC   H4X 6746   1.053   5.180   7.359  1.3808  2.4282  1.3555
   75SLPC   H4Y 6747   0.868   5.149   7.381 -0.6406  0.2966 -0.3464
   75SLPC   C35 6748   0.959   5.306   7.493  0.1820  0.2124 -0.1904
   75SLPC   H5X 6749   0.864   5.360   7.515 -0.7129  0.0299 -3.1488
   75SLPC   H5Y 6750   1.048   5.371   7.477  0.9979 -0.8838 -0.1851
   75SLPC   C36 6751   0.992   5.214   7.617 -0.6059  0.4839 -0.4445
   75SLPC   H6X 6752   1.100   5.191   7.605 -0.0564  1.8198  1.5394
   75SLPC   H6Y 6753   0.919   5.132   7.604 -0.4365  0.5707 -2.1808
   75SLPC   C37 6754   0.967   5.269   7.759 -0.0939  0.5001  0.0233
   75SLPC   H7X 6755   1.010   5.369   7.777 -2.2917  1.3679  0.7837
   75SLPC   H7Y 6756   1.024   5.212   7.835 -0.9741 -1.2331 -0.5600
   75SLPC   C38 6757   0.822   5.285   7.803 -0.2785  0.2664 -0.5431
   75SLPC   H8X 6758   0.762   5.195   7.779  1.0899 -0.0220 -3.3266
   75SLPC   H8Y 6759   0.771   5.367   7.748 -1.7393 -0.0518  0.2879
   75SLPC   C39 6760   0.820   5.320   7.953 -0.7102  0.1667 -0.3789
   75SLPC   H9X 6761   0.870   5.418   7.966  1.0947 -0.7127 -0.3035
   75SLPC   H9Y 6762   0.892   5.246   7.995 -1.3800 -1.2218 -1.6000
   75SLPC  C310 6763   0.693   5.325   8.039 -0.1767  0.2874 -0.4088
   75SLPC  H10X 6764   0.627   5.239   8.018 -1.3025  0.8946  0.5579
   75SLPC  H10Y 6765   0.635   5.419   8.025  0.3487  0.4577 -1.5900
   75SLPC  C311 6766   0.726   5.290   8.186  0.2781 -0.7213  0.1543
   75SLPC  H11X 6767   0.810   5.357   8.214 -1.7660  1.2724  2.0623
   75SLPC  H11Y 6768   0.751   5.182   8.182  0.0946 -0.7384 -0.7101
   75SLPC  C312 6769   0.595   5.308   8.271 -0.1425  1.3429 -0.5665
   75SLPC  H12X 6770   0.605   5.234   8.353 -1.0211  2.0398  0.2018
   75SLPC  H12Y 6771   0.511   5.280   8.204 -0.8662  2.4507 -0.1515
   75SLPC  C313 6772   0.561   5.447   8.336  0.5967  0.3297  0.5943
   75SLPC  H13X 6773   0.559   5.534   8.267  0.8144 -1.4618 -1.8114
   75SLPC  H13Y 6774   0.631   5.470   8.419  0.9859  1.8918 -0.1401
   75SLPC  C314 6775   0.423   5.449   8.400  0.2679 -1.8088 -0.3624
   75SLPC  H14X 6776   0.413   5.539   8.465 -1.9735 -1.8178 -0.6310
   75SLPC  H14Y 6777   0.412   5.365   8.472  1.0879  0.9849  3.3342
   75SLPC  C315 6778   0.309   5.455   8.297 -0.0263  0.0733 -0.8130
   75SLPC  H15X 6779   0.292   5.354   8.254  0.1702 -0.2105 -0.2313
   75SLPC  H15Y 6780   0.342   5.525   8.217  0.6381  0.3139 -0.3349
   75SLPC  C316 6781   0.171   5.506   8.349 -0.5767 -0.0185 -0.0887
   75SLPC  H16X 6782   0.181   5.608   8.394  1.4520  0.2826 -1.1368
   75SLPC  H16Y 6783   0.137   5.443   8.434  2.5998  1.1444  2.2404
   75SLPC  C317 6784   0.068   5.519   8.234 -0.2615  0.0156  0.1070
   75SLPC  H17X 6785   0.027   5.423   8.196  1.9739 -0.2467 -1.8657
   75SLPC  H17Y 6786   0.099   5.582   8.148 -1.4597  1.4063  0.6502
   75SLPC  C318 6787  -0.056   5.593   8.283  0.5455  0.2901  0.1437
   75SLPC  H18X 6788  -0.125   5.524   8.337 -0.0148  0.1403 -0.7381
   75SLPC  H18Y 6789  -0.116   5.637   8.201 -0.5105  0.7614  1.1344
   75SLPC  H18Z 6790  -0.023   5.680   8.344  0.4163 -0.1432  0.8542
   76SLPC     N 6791   1.246   0.659   6.133 -0.2679  0.1536 -0.1508
   76SLPC   C13 6792   1.096   0.685   6.151 -0.4742  0.6375  0.1540
   76SLPC  H13A 6793   1.075   0.622   6.237  0.6565 -1.6254 -1.1351
   76SLPC  H13B 6794   1.074   0.790   6.153 -0.7302  0.5827  0.2969
   76SLPC  H13C 6795   1.048   0.636   6.068 -0.2995  0.9339 -0.1216
   76SLPC   C14 6796   1.294   0.747   6.023 -0.5331 -0.0878  0.4891
   76SLPC  H14A 6797   1.252   0.729   5.925 -0.1795  1.8455 -0.0685
   76SLPC  H14B 6798   1.273   0.852   6.042 -1.9224  0.1603 -1.9783
   76SLPC  H14C 6799   1.401   0.745   6.009 -0.7544 -0.9524 -1.3727
   76SLPC   C15 6800   1.265   0.511   6.094  0.4769  0.0469 -0.1515
   76SLPC  H15A 6801   1.366   0.489   6.061  0.0077 -0.7268 -1.1120
   76SLPC  H15B 6802   1.252   0.447   6.180  0.5905  0.2071 -0.0131
   76SLPC  H15C 6803   1.196   0.469   6.023  1.8350 -0.2391 -1.3566
   76SLPC   C12 6804   1.317   0.689   6.265  0.0522  0.6198  0.5113
   76SLPC  H12A 6805   1.422   0.671   6.247 -0.5018 -0.5466 -1.8554
   76SLPC  H12B 6806   1.291   0.614   6.339  0.7321  1.0243  1.1812
   76SLPC   C11 6807   1.309   0.823   6.335 -0.7122 -0.4229 -0.0584
   76SLPC  H11A 6808   1.342   0.900   6.262 -0.5393 -0.6337 -0.2040
   76SLPC  H11B 6809   1.386   0.840   6.413  0.4807  0.7287 -1.4308
   76SLPC     P 6810   1.110   0.988   6.367  0.4607 -0.1562  0.1824
   76SLPC   O13 6811   1.130   1.041   6.233  0.4245 -0.0854  0.0713
   76SLPC   O14 6812   0.968   0.974   6.407  0.0455  0.3859 -0.0899
   76SLPC   O12 6813   1.180   0.850   6.389 -0.8043 -0.1222  0.6116
   76SLPC   O11 6814   1.169   1.086   6.471 -0.2087  0.8351  0.0351
   76SLPC    C1 6815   1.274   1.062   6.574  0.7098  0.0983  0.5286
   76SLPC    HA 6816   1.267   0.954   6.600 -0.3703 -0.1920 -0.8791
   76SLPC    HB 6817   1.372   1.090   6.530 -0.1047 -1.9746 -2.9093
   76SLPC    C2 6818   1.232   1.139   6.702 -0.4293  0.3991 -0.8465
   76SLPC    HS 6819   1.243   1.249   6.688  0.9874  0.3791 -0.0513
   76SLPC   O21 6820   1.309   1.086   6.810 -0.2919  0.1105 -0.2857
   76SLPC   C21 6821   1.333   1.173   6.908 -0.6368  0.0849  0.6108
   76SLPC   O22 6822   1.329   1.293   6.899 -0.3077 -0.1269  0.1194
   76SLPC   C22 6823   1.356   1.088   7.035  0.2298  0.5798  0.0577
   76SLPC   H2R 6824   1.294   0.997   7.046  1.2015 -0.0202  0.7061
   76SLPC   H2S 6825   1.463   1.060   7.040  0.5422  1.9572  2.2720
   76SLPC    C3 6826   1.079   1.118   6.729  0.1808 -1.0572  0.3293
   76SLPC    HX 6827   1.055   1.014   6.700 -2.7110 -0.0872 -1.1007
   76SLPC    HY 6828   1.034   1.188   6.655 -0.8545 -1.0931  0.9159
   76SLPC   O31 6829   1.020   1.144   6.860  0.1537  0.4369  0.1717
   76SLPC   C31 6830   0.986   1.272   6.878  0.2201  0.9156  0.1018
   76SLPC   O32 6831   0.984   1.360   6.796 -0.6131 -0.6428  0.5339
   76SLPC   C32 6832   0.928   1.267   7.021  0.2956  0.3922  0.1974
   76SLPC   H2X 6833   1.009   1.298   7.090 -1.4370  0.1387  2.4450
   76SLPC   H2Y 6834   0.902   1.162   7.045 -0.1251  0.2935 -0.6633
   76SLPC   C23 6835   1.328   1.169   7.161 -0.2095 -0.0999  1.0522
   76SLPC   H3R 6836   1.217   1.176   7.157 -0.2730 -1.4250 -2.8293
   76SLPC   H3S 6837   1.362   1.274   7.171  1.7393 -0.6627  0.7375
   76SLPC   C24 6838   1.357   1.084   7.285  0.7987  0.1831 -0.1388
   76SLPC   H4R 6839   1.467   1.073   7.297  0.9449  0.4067 -1.1487
   76SLPC   H4S 6840   1.310   0.984   7.273  1.8295 -0.1001 -2.4812
   76SLPC   C25 6841   1.290   1.146   7.415 -0.6149  0.0935 -0.3282
   76SLPC   H5R 6842   1.179   1.145   7.409 -0.8833 -0.5880  2.7056
   76SLPC   H5S 6843   1.321   1.252   7.428 -0.0451  0.0038 -0.9098
   76SLPC   C26 6844   1.317   1.074   7.549 -0.1734  0.0310 -0.0596
   76SLPC   H6R 6845   1.412   1.107   7.596 -0.8042  1.9428 -0.0478
   76SLPC   H6S 6846   1.312   0.964   7.535  1.3804 -0.0888  0.1759
   76SLPC   C27 6847   1.204   1.100   7.648 -0.3200  0.8262  0.0961
   76SLPC   H7R 6848   1.106   1.086   7.597  1.0319  1.1093 -2.7866
   76SLPC   H7S 6849   1.222   1.207   7.674  0.9377  0.7644 -0.4792
   76SLPC   C28 6850   1.221   1.011   7.774  0.4874 -0.3145 -0.3666
   76SLPC   H8R 6851   1.129   1.020   7.836  0.8010  0.9726 -0.0669
   76SLPC   H8S 6852   1.235   0.905   7.743 -2.8868 -0.8405 -0.5291
   76SLPC   C29 6853   1.337   1.064   7.858  0.3189 -0.4883 -0.1601
   76SLPC   H9R 6854   1.424   1.098   7.801 -0.9916  1.4590 -1.0874
   76SLPC  C210 6855   1.345   1.050   7.995  0.2338 -0.4386  0.0700
   76SLPC  H10R 6856   1.441   1.082   8.039  0.4623 -0.4702 -0.3964
   76SLPC  C211 6857   1.245   0.995   8.093 -0.0346 -0.6240  1.1472
   76SLPC  H11R 6858   1.145   0.980   8.046  0.0598 -2.6620  1.5048
   76SLPC  H11S 6859   1.225   1.066   8.176  0.3160 -0.1711  0.8524
   76SLPC  C212 6860   1.285   0.861   8.150 -0.2690  0.3548  0.4362
   76SLPC  H12R 6861   1.312   0.783   8.078 -0.7799  0.8282 -0.2828
   76SLPC  C213 6862   1.301   0.825   8.279  0.7462 -0.3666  0.5117
   76SLPC  H13R 6863   1.346   0.726   8.294  2.1820  0.3049  0.8185
   76SLPC  C214 6864   1.279   0.913   8.405  0.2257  0.9118 -0.6350
   76SLPC  H14R 6865   1.194   0.874   8.466  0.1285  0.0969 -1.2787
   76SLPC  H14S 6866   1.248   1.013   8.365 -1.2228  0.3826 -0.9175
   76SLPC  C215 6867   1.407   0.925   8.483  0.0733  0.1813 -0.3700
   76SLPC  H15R 6868   1.403   1.003   8.562  1.5665 -0.4731  0.3813
   76SLPC  H15S 6869   1.492   0.958   8.419  0.6978 -0.0319  0.3442
   76SLPC  C216 6870   1.460   0.805   8.557  0.6336  0.0839  0.0669
   76SLPC  H16R 6871   1.558   0.820   8.607  0.3773  1.5046  0.1977
   76SLPC  H16S 6872   1.474   0.727   8.479 -2.0347  1.4738 -1.9548
   76SLPC  C217 6873   1.356   0.752   8.665 -0.0675 -0.9269 -0.6350
   76SLPC  H17R 6874   1.402   0.676   8.732  3.3764 -0.4810 -2.2738
   76SLPC  H17S 6875   1.272   0.696   8.619 -0.4132 -1.4913  0.6201
   76SLPC  C218 6876   1.300   0.867   8.761  0.3970  0.0180 -0.0704
   76SLPC  H18R 6877   1.249   0.830   8.853  0.4506  3.3329  1.4285
   76SLPC  H18S 6878   1.221   0.924   8.708 -0.1510 -1.3763 -0.7952
   76SLPC  H18T 6879   1.379   0.933   8.802 -1.6964  0.9375  2.7905
   76SLPC   C33 6880   0.802   1.359   7.043 -0.4186 -0.9705  0.1500
   76SLPC   H3X 6881   0.724   1.338   6.968  0.9204 -0.3463 -1.4847
   76SLPC   H3Y 6882   0.823   1.468   7.028 -1.2447 -0.6922  0.9341
   76SLPC   C34 6883   0.746   1.341   7.185 -0.2199  1.1806  0.2886
   76SLPC   H4X 6884   0.661   1.412   7.194 -1.3353 -0.2061  1.0315
   76SLPC   H4Y 6885   0.828   1.359   7.258 -0.2850 -2.8366  1.5663
   76SLPC   C35 6886   0.693   1.193   7.206  0.3559 -0.3637 -0.2086
   76SLPC   H5X 6887   0.791   1.141   7.214  0.1354 -0.4718  2.8046
   76SLPC   H5Y 6888   0.637   1.174   7.112 -1.3901 -3.3342  1.3026
   76SLPC   C36 6889   0.626   1.170   7.341  0.3976 -0.2037  0.5548
   76SLPC   H6X 6890   0.602   1.064   7.365 -1.9543  0.3028  0.6606
   76SLPC   H6Y 6891   0.529   1.222   7.325 -0.4285 -1.8776 -0.1801
   76SLPC   C37 6892   0.686   1.227   7.467 -0.3616 -0.0795 -0.1542
   76SLPC   H7X 6893   0.697   1.337   7.458  1.7543 -0.2125  0.1656
   76SLPC   H7Y 6894   0.792   1.197   7.483  0.4085  0.6076 -3.4043
   76SLPC   C38 6895   0.612   1.179   7.599 -0.2945  0.1795  0.3525
   76SLPC   H8X 6896   0.615   1.068   7.607  1.4035 -0.2676 -3.9150
   76SLPC   H8Y 6897   0.508   1.211   7.580 -0.2308  0.7508  0.9286
   76SLPC   C39 6898   0.670   1.252   7.720 -0.6576  0.0053  1.0926
   76SLPC   H9X 6899   0.598   1.244   7.804 -1.6088 -0.9671  0.2171
   76SLPC   H9Y 6900   0.691   1.356   7.688 -0.9904 -0.2493  0.0066
   76SLPC  C310 6901   0.800   1.176   7.760 -0.0366 -0.3157  0.2939
   76SLPC  H10X 6902   0.876   1.163   7.680 -1.8393  1.1772 -1.8014
   76SLPC  H10Y 6903   0.772   1.072   7.786  1.5958 -0.6275  0.9626
   76SLPC  C311 6904   0.859   1.242   7.885 -0.1631  0.3674 -0.2220
   76SLPC  H11X 6905   0.844   1.352   7.889 -0.2123  0.4670 -2.1940
   76SLPC  H11Y 6906   0.968   1.222   7.883 -0.5714 -2.1014 -0.7779
   76SLPC  C312 6907   0.804   1.178   8.018  0.0244  0.5097  0.6178
   76SLPC  H12X 6908   0.803   1.069   7.997 -0.9773  0.8911 -1.5014
   76SLPC  H12Y 6909   0.703   1.204   8.055  0.4061  1.6478  0.9041
   76SLPC  C313 6910   0.894   1.212   8.140  0.4999 -0.4884  0.9446
   76SLPC  H13X 6911   0.914   1.321   8.130 -0.4671 -0.2136  1.8478
   76SLPC  H13Y 6912   0.998   1.174   8.132  1.2633  1.2766  1.8464
   76SLPC  C314 6913   0.832   1.164   8.272  0.4103 -0.7123 -0.7811
   76SLPC  H14X 6914   0.759   1.082   8.259 -0.4106  0.1983 -2.3288
   76SLPC  H14Y 6915   0.780   1.256   8.308  3.0804  0.1746  1.1331
   76SLPC  C315 6916   0.944   1.136   8.376  0.0024 -0.3909 -0.4977
   76SLPC  H15X 6917   1.022   1.215   8.371  0.1407 -0.5616 -1.1719
   76SLPC  H15Y 6918   0.996   1.042   8.348 -0.2901 -0.8321  0.4217
   76SLPC  C316 6919   0.885   1.125   8.519 -0.1876  0.5612 -0.4403
   76SLPC  H16X 6920   0.835   1.027   8.533 -1.6619  1.3323 -0.0784
   76SLPC  H16Y 6921   0.806   1.202   8.532 -0.0064  0.6220  0.3915
   76SLPC  C317 6922   1.009   1.140   8.611  0.4505  0.0707  0.2994
   76SLPC  H17X 6923   1.058   1.236   8.585  0.1814  0.8768  2.6079
   76SLPC  H17Y 6924   1.090   1.064   8.599 -0.0666 -0.5035  0.4015
   76SLPC  C318 6925   0.967   1.152   8.754 -0.2002  0.3556  0.3131
   76SLPC  H18X 6926   0.903   1.066   8.785  0.4838 -0.2012  0.2001
   76SLPC  H18Y 6927   0.908   1.244   8.773  0.6259  0.6300  1.7074
   76SLPC  H18Z 6928   1.054   1.156   8.823  0.3552  1.8791 -0.4439
   77SLPC     N 6929   4.745   2.961   6.009 -0.3267  0.1149 -0.2614
   77SLPC   C13 6930   4.758   2.910   5.865 -0.2813 -0.3604 -0.3369
   77SLPC  H13A 6931   4.855   2.870   5.841 -0.0734  0.4260 -0.8521
   77SLPC  H13B 6932   4.699   2.820   5.855  0.4096 -1.1635  2.1489
   77SLPC  H13C 6933   4.726   2.993   5.803  0.8782  0.4775  0.1431
   77SLPC   C14 6934   4.617   3.044   6.026  0.0247  0.2965  0.3827
   77SLPC  H14A 6935   4.607   3.119   5.948 -2.7848  0.8602  1.1516
   77SLPC  H14B 6936   4.523   2.991   6.023  0.0865  0.1935  0.2490
   77SLPC  H14C 6937   4.625   3.101   6.117  2.7434  0.0672  0.3718
   77SLPC   C15 6938   4.856   3.055   6.031  0.0583 -0.3648  0.1434
   77SLPC  H15A 6939   4.823   3.146   5.983 -2.1933 -0.4812  1.3567
   77SLPC  H15B 6940   4.865   3.079   6.135 -0.7347 -0.0650  0.1446
   77SLPC  H15C 6941   4.943   3.004   5.990 -0.5365 -1.4872  0.2360
   77SLPC   C12 6942   4.749   2.843   6.111  0.4121 -0.1182  0.5653
   77SLPC  H12A 6943   4.839   2.785   6.095  0.1242 -0.4845  0.2410
   77SLPC  H12B 6944   4.671   2.770   6.093  1.5566 -1.3546  0.4482
   77SLPC   C11 6945   4.752   2.888   6.262  0.0585 -0.0945 -0.0088
   77SLPC  H11A 6946   4.738   2.793   6.318 -1.5196  1.1321  1.7830
   77SLPC  H11B 6947   4.673   2.962   6.286  0.9958  1.1109 -0.5298
   77SLPC     P 6948   5.002   2.845   6.310  0.1365 -0.0874 -0.5570
   77SLPC   O13 6949   5.014   2.783   6.177  0.0116 -0.0060 -0.4722
   77SLPC   O14 6950   5.121   2.923   6.364 -0.3842 -0.1696 -0.0660
   77SLPC   O12 6951   4.876   2.940   6.303  0.0272  0.5002 -0.0726
   77SLPC   O11 6952   4.969   2.740   6.427  0.5003  0.6437  0.0425
   77SLPC    C1 6953   4.900   2.805   6.539 -0.2379 -0.8017  0.0027
   77SLPC    HA 6954   4.974   2.874   6.584  2.4323 -2.8515 -0.9773
   77SLPC    HB 6955   4.820   2.876   6.508  1.9119  1.5144 -0.5625
   77SLPC    C2 6956   4.866   2.695   6.652  0.8118 -0.8160  0.1101
   77SLPC    HS 6957   4.803   2.737   6.734 -1.2991 -3.6326  0.0902
   77SLPC   O21 6958   4.980   2.624   6.711  0.2995 -0.0774  0.2134
   77SLPC   C21 6959   5.050   2.708   6.784 -0.5942 -0.5788  0.1760
   77SLPC   O22 6960   5.011   2.816   6.828  0.0263 -0.4903  0.0295
   77SLPC   C22 6961   5.191   2.666   6.811  0.5492 -0.0092  0.2160
   77SLPC   H2R 6962   5.239   2.608   6.729 -1.7228 -2.3236  0.3735
   77SLPC   H2S 6963   5.245   2.761   6.832 -1.0515  1.0330 -0.2005
   77SLPC    C3 6964   4.766   2.595   6.595  0.3269  0.1221 -0.1618
   77SLPC    HX 6965   4.817   2.496   6.590 -3.5386 -2.2056  1.5030
   77SLPC    HY 6966   4.732   2.620   6.492 -0.2211  2.0375  0.4400
   77SLPC   O31 6967   4.666   2.562   6.689 -0.6605 -0.2309 -0.0401
   77SLPC   C31 6968   4.539   2.591   6.668  0.5107  0.3833  0.4513
   77SLPC   O32 6969   4.493   2.637   6.566  0.8015  0.4480 -0.2408
   77SLPC   C32 6970   4.458   2.578   6.797  0.6636  0.3489 -0.8021
   77SLPC   H2X 6971   4.528   2.580   6.884  0.4219  1.9889 -0.6016
   77SLPC   H2Y 6972   4.406   2.480   6.803 -0.3861  0.8353 -1.7495
   77SLPC   C23 6973   5.217   2.567   6.931  0.1226  0.4680  0.1205
   77SLPC   H3R 6974   5.326   2.544   6.925 -0.4459 -2.1806 -2.3520
   77SLPC   H3S 6975   5.166   2.470   6.912  1.5103 -0.6522  1.7487
   77SLPC   C24 6976   5.171   2.609   7.070  0.5163 -0.8205  0.7039
   77SLPC   H4R 6977   5.064   2.635   7.059  1.1223  2.1199  0.9302
   77SLPC   H4S 6978   5.229   2.702   7.088 -0.0333  0.3268 -2.7742
   77SLPC   C25 6979   5.193   2.504   7.183 -0.1621  0.0071 -0.2470
   77SLPC   H5R 6980   5.300   2.493   7.210 -0.4376 -0.8457  0.5280
   77SLPC   H5S 6981   5.172   2.406   7.136 -0.9503 -0.9368  1.9639
   77SLPC   C26 6982   5.105   2.534   7.309  0.0307  0.3052 -0.2024
   77SLPC   H6R 6983   4.996   2.546   7.290 -0.1963 -1.4690 -0.1773
   77SLPC   H6S 6984   5.145   2.626   7.359 -0.5246  1.2330 -1.4111
   77SLPC   C27 6985   5.110   2.415   7.398  0.1287  0.0038 -0.5001
   77SLPC   H7R 6986   5.207   2.360   7.392 -0.1336 -0.7608  1.4272
   77SLPC   H7S 6987   5.034   2.343   7.361 -0.0342  0.7254 -1.5902
   77SLPC   C28 6988   5.077   2.439   7.542 -0.4100 -0.3061 -0.5368
   77SLPC   H8R 6989   5.051   2.341   7.589  2.0094 -0.1186  1.4230
   77SLPC   H8S 6990   4.994   2.513   7.540 -0.3322 -0.2152 -0.3750
   77SLPC   C29 6991   5.181   2.512   7.623 -0.4091  0.1334 -0.3979
   77SLPC   H9R 6992   5.234   2.594   7.572 -0.0237 -0.2976 -0.6996
   77SLPC  C210 6993   5.216   2.486   7.750  0.7404 -0.3706  0.7042
   77SLPC  H10R 6994   5.298   2.537   7.803 -0.3583  0.1936  1.9211
   77SLPC  C211 6995   5.166   2.374   7.836  0.4339 -0.3427 -0.5460
   77SLPC  H11R 6996   5.176   2.281   7.776  2.3060 -0.5588  0.0561
   77SLPC  H11S 6997   5.062   2.384   7.874  1.2830 -0.2504  1.8865
   77SLPC  C212 6998   5.273   2.351   7.948 -0.0250 -0.7829  0.5851
   77SLPC  H12R 6999   5.372   2.398   7.935 -0.0828 -0.8353 -0.0901
   77SLPC  C213 7000   5.247   2.268   8.055 -1.0639  0.2503  0.6583
   77SLPC  H13R 7001   5.327   2.251   8.129 -1.8828 -0.9019  1.3146
   77SLPC  C214 7002   5.119   2.193   8.087 -0.6916  0.4571 -0.3411
   77SLPC  H14R 7003   5.061   2.188   7.993  2.0047  2.0255 -2.2173
   77SLPC  H14S 7004   5.060   2.241   8.167 -1.2987 -2.1204  0.8757
   77SLPC  C215 7005   5.153   2.049   8.137  0.4641 -0.6968 -0.4823
   77SLPC  H15R 7006   5.243   2.010   8.085  0.8875 -0.5051  0.0970
   77SLPC  H15S 7007   5.065   1.986   8.113  0.0463 -0.0740 -0.6040
   77SLPC  C216 7008   5.186   2.053   8.286  0.0831  0.4450  0.3696
   77SLPC  H16R 7009   5.114   2.118   8.341 -2.4983 -0.1571 -2.0554
   77SLPC  H16S 7010   5.288   2.091   8.307  0.7282  0.3928 -2.3915
   77SLPC  C217 7011   5.176   1.922   8.372 -0.1898 -0.4745 -0.1381
   77SLPC  H17R 7012   5.073   1.888   8.395  0.3611 -4.1769 -2.3636
   77SLPC  H17S 7013   5.221   1.953   8.469  0.8679 -0.1795 -0.6997
   77SLPC  C218 7014   5.256   1.801   8.312  0.4114 -0.6042 -1.1522
   77SLPC  H18R 7015   5.345   1.835   8.254  0.6676  0.5816 -0.1181
   77SLPC  H18S 7016   5.195   1.728   8.256 -2.3800  1.5932 -1.1911
   77SLPC  H18T 7017   5.302   1.747   8.398  0.4104  0.5563 -0.4066
   77SLPC   C33 7018   4.368   2.697   6.819 -0.2469  0.2694 -0.1856
   77SLPC   H3X 7019   4.302   2.720   6.732  1.4747 -0.1421 -1.6420
   77SLPC   H3Y 7020   4.431   2.786   6.842  3.3996 -1.3149 -3.1158
   77SLPC   C34 7021   4.266   2.672   6.937  0.2119  0.0180 -0.0170
   77SLPC   H4X 7022   4.214   2.579   6.905  1.1879 -0.3965 -0.4506
   77SLPC   H4Y 7023   4.195   2.756   6.949  0.4372  0.1142  0.6683
   77SLPC   C35 7024   4.334   2.637   7.069  0.5012 -0.7687 -0.0350
   77SLPC   H5X 7025   4.422   2.703   7.086  0.3905 -1.0865  1.9135
   77SLPC   H5Y 7026   4.382   2.537   7.064  0.3636 -1.1986  3.9892
   77SLPC   C36 7027   4.254   2.659   7.194 -0.8288  0.7670  0.3595
   77SLPC   H6X 7028   4.153   2.614   7.191 -0.9734  1.1052 -1.7409
   77SLPC   H6Y 7029   4.232   2.767   7.203  1.6071  1.3626 -0.0451
   77SLPC   C37 7030   4.325   2.606   7.315 -0.5518  0.1095 -0.8204
   77SLPC   H7X 7031   4.416   2.662   7.345  0.2384 -2.0642  1.1468
   77SLPC   H7Y 7032   4.354   2.499   7.309 -1.2039 -0.1921  0.7116
   77SLPC   C38 7033   4.226   2.608   7.438  0.6915  0.5985 -0.0886
   77SLPC   H8X 7034   4.128   2.563   7.413  1.1984  0.4268 -1.9467
   77SLPC   H8Y 7035   4.222   2.712   7.478 -0.5113  0.4367  0.2340
   77SLPC   C39 7036   4.270   2.521   7.541  0.8137 -0.2176 -0.6918
   77SLPC   H9X 7037   4.377   2.531   7.568  0.2446  0.3745  1.5528
   77SLPC   H9Y 7038   4.261   2.414   7.511  2.3109 -0.0424 -1.8858
   77SLPC  C310 7039   4.193   2.526   7.681  0.4072 -0.7468 -0.0365
   77SLPC  H10X 7040   4.084   2.538   7.664 -0.0228 -0.4797  2.5449
   77SLPC  H10Y 7041   4.225   2.615   7.739 -0.6482  1.1245 -2.1443
   77SLPC  C311 7042   4.223   2.412   7.768  0.7772 -0.3383 -0.0187
   77SLPC  H11X 7043   4.330   2.383   7.770  0.9986  0.0140 -3.0652
   77SLPC  H11Y 7044   4.164   2.325   7.730 -0.3533  0.4784 -0.1863
   77SLPC  C312 7045   4.170   2.449   7.906 -0.0357  0.5756  0.0636
   77SLPC  H12X 7046   4.070   2.495   7.889  0.0075  0.0024 -1.9557
   77SLPC  H12Y 7047   4.239   2.520   7.957 -0.9833  1.5198  0.0755
   77SLPC  C313 7048   4.175   2.328   7.998  1.0668 -0.8865 -0.9590
   77SLPC  H13X 7049   4.283   2.308   8.019  0.8371 -0.7172  0.5575
   77SLPC  H13Y 7050   4.121   2.241   7.957 -0.3399  0.1576 -1.3780
   77SLPC  C314 7051   4.093   2.362   8.128 -0.7085  0.2023  0.2505
   77SLPC  H14X 7052   3.992   2.386   8.087  0.4937  3.0545 -1.3244
   77SLPC  H14Y 7053   4.135   2.455   8.171 -0.7296  0.1130  0.4632
   77SLPC  C315 7054   4.086   2.251   8.228 -0.3716  0.6001  0.0069
   77SLPC  H15X 7055   4.186   2.239   8.276 -0.0690 -0.8720 -0.8991
   77SLPC  H15Y 7056   4.069   2.155   8.174  0.0726  0.0834  0.7752
   77SLPC  C316 7057   3.979   2.275   8.337  0.2242 -0.5943 -0.3104
   77SLPC  H16X 7058   3.985   2.189   8.407 -1.0175 -1.8570 -1.6917
   77SLPC  H16Y 7059   3.876   2.260   8.297  0.5361 -0.8401 -1.0411
   77SLPC  C317 7060   3.998   2.402   8.422 -0.2064  0.1945 -0.4248
   77SLPC  H17X 7061   3.925   2.403   8.506 -0.9902  1.1160 -1.0924
   77SLPC  H17Y 7062   3.972   2.486   8.354  2.8627  0.1908 -1.7536
   77SLPC  C318 7063   4.140   2.429   8.468 -0.2536 -1.1312  0.7466
   77SLPC  H18X 7064   4.201   2.462   8.381  1.4633 -0.4868  2.1407
   77SLPC  H18Y 7065   4.179   2.341   8.523 -2.2506 -1.0566  2.4247
   77SLPC  H18Z 7066   4.128   2.515   8.538  0.0352 -0.5603  0.1053
   78SLPC     N 7067   6.511   2.246   6.111  0.1062 -0.7266  0.1304
   78SLPC   C13 7068   6.428   2.361   6.080 -0.6297 -0.4181  0.2645
   78SLPC  H13A 7069   6.322   2.338   6.083 -1.1270  1.6208  0.3135
   78SLPC  H13B 7070   6.459   2.446   6.140  4.3858 -1.2220 -0.8188
   78SLPC  H13C 7071   6.448   2.402   5.982 -0.1386  1.4806  1.1124
   78SLPC   C14 7072   6.650   2.277   6.094  0.4110 -0.6469 -0.1661
   78SLPC  H14A 7073   6.712   2.189   6.088 -0.1071 -1.0506  0.3634
   78SLPC  H14B 7074   6.659   2.335   6.002 -1.9950 -0.8466 -0.5957
   78SLPC  H14C 7075   6.683   2.341   6.174 -2.2590  0.6494  0.0233
   78SLPC   C15 7076   6.467   2.137   6.018 -0.2360 -0.1402 -0.1177
   78SLPC  H15A 7077   6.489   2.155   5.913  1.2921 -1.3866 -0.0615
   78SLPC  H15B 7078   6.526   2.048   6.033  0.6320  0.2011 -1.3061
   78SLPC  H15C 7079   6.363   2.115   6.038 -0.3766  0.8086  0.2260
   78SLPC   C12 7080   6.487   2.197   6.249 -0.3943  0.4446  0.3163
   78SLPC  H12A 7081   6.380   2.182   6.257 -0.2574 -0.2760  0.9717
   78SLPC  H12B 7082   6.519   2.276   6.315  0.3058  1.8340 -1.5973
   78SLPC   C11 7083   6.556   2.063   6.294  0.6875 -0.4335 -0.4489
   78SLPC  H11A 7084   6.514   1.979   6.234 -1.0374 -0.2044  0.3764
   78SLPC  H11B 7085   6.528   2.040   6.399  2.8639  1.9569  0.7705
   78SLPC     P 7086   6.801   2.086   6.388 -0.0958  0.3152 -0.0038
   78SLPC   O13 7087   6.897   1.975   6.374 -0.2245 -0.2006  0.1631
   78SLPC   O14 7088   6.861   2.223   6.386 -0.3088  1.1313 -0.8068
   78SLPC   O12 7089   6.692   2.076   6.276  0.1889  0.6275 -0.6618
   78SLPC   O11 7090   6.722   2.065   6.526 -0.3380  0.2134 -0.4483
   78SLPC    C1 7091   6.681   2.178   6.599  0.7304 -0.0934 -0.6274
   78SLPC    HA 7092   6.619   2.250   6.543 -0.7680 -1.8275 -1.2935
   78SLPC    HB 7093   6.608   2.146   6.677 -0.5494  1.4658 -1.1386
   78SLPC    C2 7094   6.777   2.263   6.681  0.0813  0.8492 -0.1415
   78SLPC    HS 7095   6.825   2.336   6.612 -0.2544  1.2820  0.0741
   78SLPC   O21 7096   6.869   2.177   6.745 -0.3390 -0.0099 -0.2034
   78SLPC   C21 7097   6.993   2.236   6.756  0.6768  0.4090  0.1775
   78SLPC   O22 7098   7.018   2.348   6.712  0.0548  0.0943 -0.5696
   78SLPC   C22 7099   7.085   2.151   6.840 -0.2688  0.4104  0.0372
   78SLPC   H2R 7100   7.037   2.061   6.885  1.3864 -0.8769 -0.6786
   78SLPC   H2S 7101   7.174   2.128   6.778 -2.2160 -0.2751 -2.7086
   78SLPC    C3 7102   6.698   2.355   6.786 -0.1296 -0.0909  0.1780
   78SLPC    HX 7103   6.633   2.290   6.849 -0.3897  1.5599  1.7169
   78SLPC    HY 7104   6.631   2.424   6.731  2.5509  1.0606 -1.8824
   78SLPC   O31 7105   6.793   2.426   6.869  0.3858 -0.4114 -0.5550
   78SLPC   C31 7106   6.816   2.551   6.832 -1.2997  0.1828 -0.5155
   78SLPC   O32 7107   6.753   2.629   6.760  0.1243  0.4431  0.0392
   78SLPC   C32 7108   6.937   2.598   6.916 -0.3480  0.1598 -0.2477
   78SLPC   H2X 7109   6.942   2.709   6.902 -1.2177  0.6087  2.3874
   78SLPC   H2Y 7110   7.029   2.560   6.867  0.4901  2.2884 -0.4307
   78SLPC   C23 7111   7.152   2.223   6.956 -0.0918  0.0489 -0.0056
   78SLPC   H3R 7112   7.073   2.275   7.015  1.3567 -1.6260  3.6994
   78SLPC   H3S 7113   7.223   2.305   6.931  0.4786 -0.1949  0.7688
   78SLPC   C24 7114   7.235   2.137   7.048  0.7557 -0.3818  0.5756
   78SLPC   H4R 7115   7.305   2.076   6.987 -0.9604 -0.1145 -1.8163
   78SLPC   H4S 7116   7.173   2.061   7.100 -0.9438 -0.8876 -2.0059
   78SLPC   C25 7117   7.311   2.225   7.158  0.1549  0.0471  0.9098
   78SLPC   H5R 7118   7.384   2.295   7.113  0.2721 -0.3537  0.4804
   78SLPC   H5S 7119   7.361   2.160   7.233 -0.7976 -0.2513  1.3001
   78SLPC   C26 7120   7.217   2.305   7.247 -0.3811 -0.1861  0.6879
   78SLPC   H6R 7121   7.144   2.243   7.303 -0.8556  1.3360  1.8273
   78SLPC   H6S 7122   7.156   2.373   7.182  1.2641  2.1465  1.4472
   78SLPC   C27 7123   7.291   2.402   7.339  0.3975  0.0692 -0.5433
   78SLPC   H7R 7124   7.274   2.501   7.292 -0.6034  0.7356  1.1451
   78SLPC   H7S 7125   7.399   2.375   7.342 -0.0383 -2.5450 -2.9761
   78SLPC   C28 7126   7.222   2.407   7.481  0.2006 -0.1270  0.8296
   78SLPC   H8R 7127   7.117   2.435   7.459  0.4932 -0.0437 -0.5581
   78SLPC   H8S 7128   7.260   2.492   7.543 -0.9866  0.4277  0.8241
   78SLPC   C29 7129   7.227   2.270   7.537  0.2154 -0.0889 -0.4281
   78SLPC   H9R 7130   7.154   2.197   7.500 -1.3642  0.8115  0.7492
   78SLPC  C210 7131   7.294   2.229   7.652  0.1454 -0.1620  0.9422
   78SLPC  H10R 7132   7.276   2.126   7.685  0.6966 -1.9770 -3.7118
   78SLPC  C211 7133   7.381   2.318   7.743  0.0912 -0.1566  0.1324
   78SLPC  H11R 7134   7.418   2.409   7.691 -3.3500  2.3222  1.6416
   78SLPC  H11S 7135   7.463   2.258   7.787 -1.0530 -1.8299  0.0666
   78SLPC  C212 7136   7.282   2.376   7.841  0.3205  0.1358 -0.1671
   78SLPC  H12R 7137   7.205   2.445   7.804  1.6660  1.6288 -0.2708
   78SLPC  C213 7138   7.279   2.345   7.973 -0.1495 -0.1648 -0.4300
   78SLPC  H13R 7139   7.192   2.386   8.027  0.1254 -0.2808  0.1026
   78SLPC  C214 7140   7.376   2.260   8.052 -0.1601 -0.4006 -0.0598
   78SLPC  H14R 7141   7.395   2.300   8.153  0.8313 -0.5574 -0.1679
   78SLPC  H14S 7142   7.479   2.255   8.009 -0.3578 -0.6331 -0.5192
   78SLPC  C215 7143   7.328   2.119   8.078 -0.2964  0.1886  0.1408
   78SLPC  H15R 7144   7.345   2.055   7.988  2.4630  1.9659 -0.7474
   78SLPC  H15S 7145   7.222   2.117   8.109 -0.7635  1.2392 -1.2892
   78SLPC  C216 7146   7.404   2.047   8.186  0.0059 -0.9044  0.1035
   78SLPC  H16R 7147   7.389   2.114   8.273 -2.1370 -0.4175 -0.5966
   78SLPC  H16S 7148   7.514   2.047   8.168 -0.0833 -1.8546 -0.5250
   78SLPC  C217 7149   7.362   1.902   8.201  0.0789  0.1698 -0.0811
   78SLPC  H17R 7150   7.401   1.857   8.107  1.3388  0.1461  0.4294
   78SLPC  H17S 7151   7.251   1.905   8.203  0.0374 -0.4817  2.5299
   78SLPC  C218 7152   7.420   1.816   8.313 -0.7938  0.3420 -0.0468
   78SLPC  H18R 7153   7.393   1.710   8.294  1.3853 -0.6472  1.7805
   78SLPC  H18S 7154   7.379   1.849   8.411 -1.7540 -0.8851 -0.0059
   78SLPC  H18T 7155   7.531   1.813   8.308 -0.7510  0.2575  0.7773
   78SLPC   C33 7156   6.936   2.563   7.064  0.8815  0.5390 -0.4004
   78SLPC   H3X 7157   7.022   2.612   7.114  1.2090  0.5723 -0.9959
   78SLPC   H3Y 7158   6.949   2.453   7.073  0.7345  0.4400 -1.2828
   78SLPC   C34 7159   6.803   2.609   7.124  0.0004 -0.9956  0.1412
   78SLPC   H4X 7160   6.734   2.522   7.116  0.9179 -1.8686  1.3038
   78SLPC   H4Y 7161   6.756   2.685   7.057 -1.2239 -1.3204  0.6175
   78SLPC   C35 7162   6.806   2.668   7.268 -0.1349 -0.4005 -0.4304
   78SLPC   H5X 7163   6.702   2.700   7.292 -0.3910 -0.7215 -1.0804
   78SLPC   H5Y 7164   6.856   2.766   7.262  0.2208 -0.5238  0.4592
   78SLPC   C36 7165   6.864   2.577   7.374  0.1509  0.3832 -0.3100
   78SLPC   H6X 7166   6.971   2.550   7.358  0.6080 -0.5722  3.3238
   78SLPC   H6Y 7167   6.815   2.477   7.375 -0.7582  0.7716  2.3323
   78SLPC   C37 7168   6.851   2.632   7.514  0.0974  0.0568  0.1747
   78SLPC   H7X 7169   6.745   2.653   7.540 -0.0890  0.8904 -1.1325
   78SLPC   H7Y 7170   6.901   2.730   7.500  1.3105 -0.6847 -0.9176
   78SLPC   C38 7171   6.920   2.549   7.622 -0.1458  0.4957  0.1039
   78SLPC   H8X 7172   7.030   2.560   7.620 -0.0835 -0.1131 -1.7666
   78SLPC   H8Y 7173   6.913   2.438   7.615  2.4932  0.3669 -1.5300
   78SLPC   C39 7174   6.868   2.593   7.760 -0.0835 -0.2524 -0.3113
   78SLPC   H9X 7175   6.763   2.557   7.767  0.2094 -1.1002 -0.1021
   78SLPC   H9Y 7176   6.874   2.704   7.765  0.4287 -0.3500  2.4301
   78SLPC  C310 7177   6.947   2.536   7.878 -0.0303 -0.1335  0.1164
   78SLPC  H10X 7178   7.052   2.571   7.872  0.1249 -0.7676 -1.4489
   78SLPC  H10Y 7179   6.957   2.426   7.869 -1.5150 -0.4052  1.4043
   78SLPC  C311 7180   6.880   2.576   8.002  0.0801  0.4676  1.1823
   78SLPC  H11X 7181   6.770   2.563   8.004  0.2053 -2.0996 -1.5660
   78SLPC  H11Y 7182   6.903   2.684   8.007 -0.9292  0.8482 -1.1000
   78SLPC  C312 7183   6.941   2.513   8.126  0.5503  0.3110 -0.0366
   78SLPC  H12X 7184   7.051   2.526   8.134  0.4451  0.4967  1.3333
   78SLPC  H12Y 7185   6.930   2.402   8.127  1.5531  0.2039  0.1520
   78SLPC  C313 7186   6.886   2.569   8.255 -0.2331 -0.4103 -0.0181
   78SLPC  H13X 7187   6.776   2.563   8.240 -0.3277  2.0987 -0.8627
   78SLPC  H13Y 7188   6.908   2.678   8.245  0.5712 -0.5616  0.0246
   78SLPC  C314 7189   6.937   2.508   8.387  0.5347  0.0659 -0.1419
   78SLPC  H14X 7190   7.047   2.511   8.368  0.1145 -0.2531 -3.0000
   78SLPC  H14Y 7191   6.901   2.403   8.383 -2.0753  0.8849  0.3165
   78SLPC  C315 7192   6.903   2.581   8.518 -0.1671 -0.1854 -0.7114
   78SLPC  H15X 7193   6.801   2.559   8.556 -0.9165  0.2463 -2.3943
   78SLPC  H15Y 7194   6.924   2.689   8.505 -0.3688  0.1928  1.6457
   78SLPC  C316 7195   7.004   2.546   8.629 -0.3052  0.1907  0.2260
   78SLPC  H16X 7196   7.021   2.635   8.692  1.4960 -0.0545  0.1540
   78SLPC  H16Y 7197   7.103   2.534   8.578 -1.3732  1.8219 -2.4854
   78SLPC  C317 7198   6.971   2.412   8.701  0.4284 -0.9758  0.1403
   78SLPC  H17X 7199   6.968   2.323   8.635 -0.9933 -2.3430  1.9440
   78SLPC  H17Y 7200   6.864   2.423   8.731  1.1050  0.9315  2.2072
   78SLPC  C318 7201   7.054   2.371   8.826  0.3870  0.5649  0.3834
   78SLPC  H18X 7202   7.151   2.338   8.782 -0.9400 -1.0413 -1.5120
   78SLPC  H18Y 7203   7.021   2.278   8.877 -2.9655  1.2009 -0.3864
   78SLPC  H18Z 7204   7.069   2.449   8.904  4.6467 -1.7860  2.2344
   79SLPC     N 7205   4.650   6.150   6.404  0.3233 -0.0564 -0.2079
   79SLPC   C13 7206   4.768   6.154   6.304  0.1519 -0.0677  0.3469
   79SLPC  H13A 7207   4.726   6.189   6.211  2.1618 -0.5204 -0.7810
   79SLPC  H13B 7208   4.851   6.221   6.322 -1.5344  2.4319 -0.6277
   79SLPC  H13C 7209   4.805   6.057   6.273 -0.4337 -1.3696  3.3385
   79SLPC   C14 7210   4.597   6.294   6.403 -0.4085  0.2828  0.7283
   79SLPC  H14A 7211   4.553   6.322   6.308  0.0784 -1.4816 -0.0582
   79SLPC  H14B 7212   4.516   6.308   6.474 -0.2700  0.8103  0.7864
   79SLPC  H14C 7213   4.680   6.358   6.428 -1.5182  1.6215  1.1233
   79SLPC   C15 7214   4.700   6.110   6.534  0.9140 -0.0538 -0.0956
   79SLPC  H15A 7215   4.712   6.003   6.526  0.4539 -0.0947 -0.2043
   79SLPC  H15B 7216   4.793   6.160   6.561  0.8460  0.0380 -0.0310
   79SLPC  H15C 7217   4.624   6.113   6.611  0.8623 -0.1309 -0.1444
   79SLPC   C12 7218   4.543   6.059   6.337 -0.1537 -0.2261  0.0883
   79SLPC  H12A 7219   4.516   6.102   6.242  1.2063 -0.6741 -0.5329
   79SLPC  H12B 7220   4.452   6.060   6.395 -1.0471 -2.0434 -1.1864
   79SLPC   C11 7221   4.587   5.910   6.312 -0.0800 -0.2702  0.3812
   79SLPC  H11A 7222   4.664   5.911   6.232 -1.7719 -0.0919 -1.3318
   79SLPC  H11B 7223   4.504   5.858   6.259 -0.8615  0.7809  0.5470
   79SLPC     P 7224   4.528   5.732   6.485 -0.6009 -0.0610  0.4910
   79SLPC   O13 7225   4.391   5.784   6.460 -0.3149 -1.1981  0.1910
   79SLPC   O14 7226   4.568   5.600   6.422 -0.2422  0.1048  0.5458
   79SLPC   O12 7227   4.627   5.835   6.421 -0.2323  0.2332  0.4396
   79SLPC   O11 7228   4.567   5.719   6.636 -0.2350 -0.4789  0.6742
   79SLPC    C1 7229   4.617   5.814   6.724  0.0340 -0.2360 -0.3703
   79SLPC    HA 7230   4.709   5.778   6.774  0.7010  1.5438 -0.2430
   79SLPC    HB 7231   4.651   5.903   6.667  2.7415 -1.2267 -0.4816
   79SLPC    C2 7232   4.512   5.852   6.834  0.1690 -0.1818 -0.4364
   79SLPC    HS 7233   4.434   5.917   6.789  0.4124 -0.6315 -1.5605
   79SLPC   O21 7234   4.581   5.912   6.945  0.4670 -0.3493 -0.3720
   79SLPC   C21 7235   4.638   6.021   6.929 -0.5423 -0.0994  0.4844
   79SLPC   O22 7236   4.622   6.095   6.828 -0.4355  0.0153 -0.6010
   79SLPC   C22 7237   4.720   6.056   7.048  0.7347 -0.0288 -0.3985
   79SLPC   H2R 7238   4.799   5.979   7.059 -0.6429 -1.4995 -0.4305
   79SLPC   H2S 7239   4.762   6.157   7.030 -0.6979  0.7776  0.5664
   79SLPC    C3 7240   4.431   5.730   6.882 -0.3074 -0.3188  0.2337
   79SLPC    HX 7241   4.504   5.646   6.895  0.4091  0.4083  1.0644
   79SLPC    HY 7242   4.361   5.697   6.803 -0.5643 -0.4591  0.5177
   79SLPC   O31 7243   4.364   5.778   6.999  0.0425 -0.9968  0.0353
   79SLPC   C31 7244   4.257   5.710   7.024  0.1606 -0.0704 -0.3745
   79SLPC   O32 7245   4.203   5.629   6.951  0.3771  0.7310 -0.0130
   79SLPC   C32 7246   4.206   5.740   7.171 -0.2045 -0.9950  0.1959
   79SLPC   H2X 7247   4.192   5.636   7.207  1.1591 -1.4338 -0.4921
   79SLPC   H2Y 7248   4.106   5.787   7.159  0.7841  0.9526 -0.9551
   79SLPC   C23 7249   4.637   6.060   7.177  0.5534 -0.0828  0.6553
   79SLPC   H3R 7250   4.571   5.971   7.187 -1.2525  0.8969 -1.6458
   79SLPC   H3S 7251   4.568   6.146   7.192 -0.9324 -1.0364 -0.3981
   79SLPC   C24 7252   4.724   6.057   7.301 -0.1131 -0.0548  0.0450
   79SLPC   H4R 7253   4.803   6.135   7.293  0.2126 -0.3522  0.2804
   79SLPC   H4S 7254   4.776   5.959   7.315  1.5797  0.6692 -0.7781
   79SLPC   C25 7255   4.648   6.083   7.428  0.7635 -0.1840 -0.4525
   79SLPC   H5R 7256   4.579   5.997   7.442 -0.2422  0.4668 -1.2855
   79SLPC   H5S 7257   4.594   6.180   7.423  1.6007  0.2544 -1.3478
   79SLPC   C26 7258   4.739   6.089   7.556 -0.0679 -0.2469  0.1986
   79SLPC   H6R 7259   4.810   6.174   7.558 -0.6798  0.3259 -1.2193
   79SLPC   H6S 7260   4.795   5.992   7.555 -0.3373 -0.4120 -1.1548
   79SLPC   C27 7261   4.648   6.098   7.679  0.1234  0.3509  0.6741
   79SLPC   H7R 7262   4.575   6.015   7.674 -1.2622  1.5759 -0.7377
   79SLPC   H7S 7263   4.594   6.195   7.677 -0.9300 -0.2330 -0.7466
   79SLPC   C28 7264   4.731   6.078   7.807  0.6201  0.5050 -1.2554
   79SLPC   H8R 7265   4.827   6.132   7.816  0.2013  1.1371 -0.4374
   79SLPC   H8S 7266   4.749   5.968   7.804 -1.1727  0.1535 -0.6043
   79SLPC   C29 7267   4.652   6.108   7.937 -0.0297  0.4961  0.0396
   79SLPC   H9R 7268   4.552   6.062   7.947  0.5114 -1.1005 -1.4727
   79SLPC  C210 7269   4.689   6.192   8.036 -0.2211  0.0539 -0.7319
   79SLPC  H10R 7270   4.618   6.207   8.118 -0.2865  0.5665 -0.8815
   79SLPC  C211 7271   4.811   6.271   8.050  0.0038 -0.5540  0.6943
   79SLPC  H11R 7272   4.837   6.335   7.963  1.8578 -0.2628  1.4116
   79SLPC  H11S 7273   4.898   6.203   8.042 -1.8263 -2.7946 -1.8183
   79SLPC  C212 7274   4.809   6.376   8.160  0.3155 -0.3887 -0.0921
   79SLPC  H12R 7275   4.735   6.456   8.144  0.7634  0.0486  0.0001
   79SLPC  C213 7276   4.896   6.387   8.263 -0.6010 -0.0562 -0.0645
   79SLPC  H13R 7277   4.864   6.461   8.338 -1.0821 -0.7060  0.3823
   79SLPC  C214 7278   5.007   6.287   8.294  0.2902 -0.3668  0.4541
   79SLPC  H14R 7279   5.104   6.340   8.279  0.9540 -1.6469  0.1043
   79SLPC  H14S 7280   5.010   6.206   8.219  0.3620  1.6207 -1.8118
   79SLPC  C215 7281   4.994   6.241   8.439 -0.4866 -0.4644  0.1967
   79SLPC  H15R 7282   4.984   6.331   8.502 -0.4274  0.3215 -0.8893
   79SLPC  H15S 7283   5.094   6.197   8.460 -0.2057  0.3487  0.5686
   79SLPC  C216 7284   4.885   6.141   8.473 -0.3477  0.4211  0.1703
   79SLPC  H16R 7285   4.901   6.059   8.400  2.4772 -0.2626  1.4372
   79SLPC  H16S 7286   4.783   6.185   8.470 -0.5191  0.5270  3.3975
   79SLPC  C217 7287   4.916   6.091   8.616 -0.1362  1.0597  0.5883
   79SLPC  H17R 7288   4.912   6.179   8.682  1.1954  2.4733 -1.1066
   79SLPC  H17S 7289   5.020   6.054   8.608 -1.5619 -3.1796 -1.9923
   79SLPC  C218 7290   4.836   5.971   8.672  0.6507  0.4085 -0.3012
   79SLPC  H18R 7291   4.853   5.952   8.780 -3.1424 -0.6953  0.2404
   79SLPC  H18S 7292   4.859   5.874   8.625 -0.0403 -0.5957  1.3312
   79SLPC  H18T 7293   4.727   5.989   8.661  0.5596 -0.5318 -1.0001
   79SLPC   C33 7294   4.295   5.845   7.247 -0.5542  0.8195 -0.1463
   79SLPC   H3X 7295   4.293   5.935   7.183  0.0639  1.9090  1.3165
   79SLPC   H3Y 7296   4.396   5.800   7.255 -1.5884 -2.4485 -2.9558
   79SLPC   C34 7297   4.238   5.872   7.383  0.1420  0.0262 -0.6501
   79SLPC   H4X 7298   4.202   5.785   7.441 -0.0408  2.3458  3.0265
   79SLPC   H4Y 7299   4.142   5.928   7.375  0.5186  0.8455  0.3501
   79SLPC   C35 7300   4.331   5.952   7.476 -0.5399 -0.4265 -0.0069
   79SLPC   H5X 7301   4.371   6.043   7.425 -0.9562 -0.8582 -1.1484
   79SLPC   H5Y 7302   4.418   5.884   7.494 -0.8732 -0.6849  0.6445
   79SLPC   C36 7303   4.261   6.001   7.610 -0.8565 -0.0959  0.6501
   79SLPC   H6X 7304   4.170   6.060   7.583  1.1377  2.2702 -1.4562
   79SLPC   H6Y 7305   4.328   6.076   7.658 -0.0089 -0.3595 -0.1110
   79SLPC   C37 7306   4.233   5.889   7.704  0.4147  1.3689 -0.6983
   79SLPC   H7X 7307   4.326   5.838   7.738 -1.1272 -1.4278 -0.3909
   79SLPC   H7Y 7308   4.191   5.806   7.643  0.1704  1.2222 -0.3319
   79SLPC   C38 7309   4.150   5.925   7.831  0.5223 -0.0665  0.1344
   79SLPC   H8X 7310   4.045   5.935   7.796 -0.1555 -1.5105  1.6204
   79SLPC   H8Y 7311   4.187   6.022   7.872  0.9917  0.3019 -1.1289
   79SLPC   C39 7312   4.148   5.815   7.936 -0.4444  0.4406  0.5400
   79SLPC   H9X 7313   4.233   5.820   8.006  0.6598  0.8569 -0.7932
   79SLPC   H9Y 7314   4.144   5.718   7.880  0.8583  1.5703 -1.6557
   79SLPC  C310 7315   4.031   5.828   8.025 -0.8826 -0.5618 -0.0279
   79SLPC  H10X 7316   3.942   5.801   7.963 -1.8426  0.9857  0.6345
   79SLPC  H10Y 7317   4.019   5.936   8.049 -1.0148 -0.2051 -1.5613
   79SLPC  C311 7318   4.024   5.740   8.151 -0.2258  0.3356  0.4000
   79SLPC  H11X 7319   4.124   5.737   8.200  0.3514 -0.0046 -0.7598
   79SLPC  H11Y 7320   4.002   5.638   8.112  2.2253  0.8884 -2.8021
   79SLPC  C312 7321   3.922   5.782   8.255 -0.4829 -0.2939 -0.0048
   79SLPC  H12X 7322   3.831   5.823   8.205 -1.5174 -1.0769  1.1612
   79SLPC  H12Y 7323   3.962   5.864   8.318 -2.5734  0.1158  0.8846
   79SLPC  C313 7324   3.883   5.670   8.351 -0.5995 -0.1448  0.5583
   79SLPC  H13X 7325   3.967   5.657   8.423  0.3680  0.3896 -0.4403
   79SLPC  H13Y 7326   3.885   5.572   8.300  0.0636  1.0766 -1.9376
   79SLPC  C314 7327   3.749   5.692   8.418  0.3277 -0.2070  0.0081
   79SLPC  H14X 7328   3.676   5.695   8.335 -1.1024 -0.3653  1.2043
   79SLPC  H14Y 7329   3.749   5.786   8.478  2.9325 -0.2533  0.1920
   79SLPC  C315 7330   3.700   5.580   8.519  0.6847 -0.2834  0.1730
   79SLPC  H15X 7331   3.782   5.564   8.592 -0.7700  0.6014  2.0785
   79SLPC  H15Y 7332   3.666   5.487   8.468 -2.6914  1.3282 -0.8132
   79SLPC  C316 7333   3.580   5.644   8.595 -0.1033  0.4184 -0.4563
   79SLPC  H16X 7334   3.523   5.691   8.512  0.0975 -0.6180 -1.1845
   79SLPC  H16Y 7335   3.604   5.734   8.656 -3.3124  2.4158 -1.8188
   79SLPC  C317 7336   3.491   5.542   8.669  0.2644  0.4913  0.0750
   79SLPC  H17X 7337   3.556   5.477   8.733  2.1199  0.8181 -1.3855
   79SLPC  H17Y 7338   3.452   5.465   8.600  0.7797 -1.1731  1.5441
   79SLPC  C318 7339   3.378   5.612   8.739 -0.2921 -0.0388 -0.3900
   79SLPC  H18X 7340   3.305   5.661   8.670 -0.0728 -0.7094 -1.1133
   79SLPC  H18Y 7341   3.425   5.681   8.812  1.3887  0.3992 -1.8261
   79SLPC  H18Z 7342   3.308   5.545   8.794 -2.2252  2.4793  0.4116
   80SLPC     N 7343   5.952   4.283   6.335  0.3021  0.3535 -0.1264
   80SLPC   C13 7344   6.054   4.384   6.301 -0.7090  0.4110 -0.6547
   80SLPC  H13A 7345   6.055   4.453   6.385 -2.0409 -0.0348 -0.2560
   80SLPC  H13B 7346   6.157   4.352   6.292 -0.9158 -0.3867 -0.2532
   80SLPC  H13C 7347   6.040   4.435   6.207  0.7461  0.9353 -0.6257
   80SLPC   C14 7348   5.961   4.234   6.477  0.0363 -0.0171  0.8900
   80SLPC  H14A 7349   5.893   4.155   6.504  0.0509 -0.5317 -0.4718
   80SLPC  H14B 7350   6.063   4.201   6.493  0.4543  0.1633 -1.1253
   80SLPC  H14C 7351   5.944   4.310   6.552 -0.4038  0.4190  0.3606
   80SLPC   C15 7352   5.975   4.172   6.237 -0.7350 -0.6413 -0.3208
   80SLPC  H15A 7353   5.904   4.093   6.256 -1.0843 -0.1635  0.4131
   80SLPC  H15B 7354   5.968   4.217   6.139 -1.0355  1.5014  0.6439
   80SLPC  H15C 7355   6.070   4.123   6.258  0.4017  2.0342  1.3005
   80SLPC   C12 7356   5.812   4.351   6.321  0.7468  0.2681 -0.2548
   80SLPC  H12A 7357   5.731   4.281   6.314  2.0441 -1.2908 -0.1270
   80SLPC  H12B 7358   5.795   4.393   6.223 -2.7322  0.2399  0.2286
   80SLPC   C11 7359   5.773   4.463   6.424 -0.4379 -0.2362  0.4559
   80SLPC  H11A 7360   5.812   4.442   6.526 -1.8055  1.8293  1.4712
   80SLPC  H11B 7361   5.665   4.458   6.449 -0.7931 -3.0483 -1.1956
   80SLPC     P 7362   5.740   4.691   6.293  0.6177  0.0156  0.1494
   80SLPC   O13 7363   5.821   4.813   6.290 -0.1324 -0.2907  0.4549
   80SLPC   O14 7364   5.703   4.615   6.169 -0.2734  0.5287  0.1630
   80SLPC   O12 7365   5.816   4.597   6.389  0.0716  0.2901  0.4694
   80SLPC   O11 7366   5.612   4.720   6.373  0.2920 -0.0690 -0.9588
   80SLPC    C1 7367   5.618   4.779   6.508 -0.2273 -0.4176  0.3546
   80SLPC    HA 7368   5.705   4.847   6.515 -0.1307 -0.2186 -2.0468
   80SLPC    HB 7369   5.523   4.837   6.512 -0.0079  0.2068 -2.0243
   80SLPC    C2 7370   5.621   4.690   6.635  0.2244  0.7138 -0.3596
   80SLPC    HS 7371   5.700   4.612   6.626 -1.5582 -1.5030  1.6280
   80SLPC   O21 7372   5.497   4.624   6.647 -0.6807 -0.3874 -0.0673
   80SLPC   C21 7373   5.501   4.499   6.689  0.5534 -0.0316 -0.3424
   80SLPC   O22 7374   5.595   4.430   6.707  0.0737 -0.2446  0.3319
   80SLPC   C22 7375   5.354   4.448   6.687 -0.4875  0.3013  0.0175
   80SLPC   H2R 7376   5.291   4.530   6.727 -0.0687  0.1712  0.9854
   80SLPC   H2S 7377   5.332   4.434   6.579  0.0823  0.9594 -0.1896
   80SLPC    C3 7378   5.636   4.787   6.752 -0.0979 -0.4697  0.1032
   80SLPC    HX 7379   5.563   4.866   6.725  2.0257  1.6304  0.1225
   80SLPC    HY 7380   5.724   4.854   6.741 -0.4185 -0.1356 -0.4631
   80SLPC   O31 7381   5.604   4.741   6.881  0.0210  0.8683  0.3754
   80SLPC   C31 7382   5.711   4.689   6.937 -0.5506 -0.0164 -0.0879
   80SLPC   O32 7383   5.821   4.676   6.882 -0.1793 -0.0587 -0.3649
   80SLPC   C32 7384   5.672   4.646   7.073 -0.3622  0.1158  0.2217
   80SLPC   H2X 7385   5.633   4.542   7.072  1.1637 -0.6258  3.4376
   80SLPC   H2Y 7386   5.584   4.706   7.104 -0.7048  0.0179 -0.5403
   80SLPC   C23 7387   5.335   4.327   6.789  0.3154 -0.5320 -0.3230
   80SLPC   H3R 7388   5.432   4.275   6.808  0.9980 -0.0566 -2.3220
   80SLPC   H3S 7389   5.263   4.256   6.743 -0.8130  0.1071  0.4133
   80SLPC   C24 7390   5.281   4.365   6.923 -0.1182 -0.1556  0.0781
   80SLPC   H4R 7391   5.265   4.260   6.958  2.9850 -0.9980 -0.7207
   80SLPC   H4S 7392   5.183   4.415   6.914  0.2786  0.3643 -1.6612
   80SLPC   C25 7393   5.372   4.437   7.026  0.9594  0.5253 -0.4702
   80SLPC   H5R 7394   5.351   4.543   7.002 -0.1851  0.6192  0.8370
   80SLPC   H5S 7395   5.476   4.401   7.009 -0.1706 -2.2980 -2.1552
   80SLPC   C26 7396   5.328   4.404   7.166  0.4311  0.3018 -0.1085
   80SLPC   H6R 7397   5.334   4.293   7.168  2.3515  0.3770  0.4633
   80SLPC   H6S 7398   5.225   4.437   7.190  0.7255 -0.0245  1.7120
   80SLPC   C27 7399   5.413   4.475   7.269 -0.4387  0.0585 -0.2199
   80SLPC   H7R 7400   5.433   4.583   7.255 -1.3229  0.2861  0.2016
   80SLPC   H7S 7401   5.517   4.435   7.263  0.5058  2.1745  0.8738
   80SLPC   C28 7402   5.349   4.460   7.407  0.4611 -0.4735 -0.4891
   80SLPC   H8R 7403   5.344   4.351   7.431  0.3816 -0.0943  1.3496
   80SLPC   H8S 7404   5.244   4.497   7.409  0.2243 -0.9636  3.3527
   80SLPC   C29 7405   5.411   4.540   7.517  0.1727 -0.8534 -0.3414
   80SLPC   H9R 7406   5.399   4.649   7.506  0.1467 -0.8286 -0.0812
   80SLPC  C210 7407   5.459   4.491   7.631 -0.5187  0.3075 -0.1182
   80SLPC  H10R 7408   5.486   4.561   7.711 -1.4247  0.8227 -0.2593
   80SLPC  C211 7409   5.481   4.342   7.652 -0.1266 -0.0866 -0.0056
   80SLPC  H11R 7410   5.558   4.308   7.579  0.1885 -0.1942  0.3696
   80SLPC  H11S 7411   5.386   4.286   7.638 -0.2867  1.0085 -5.4655
   80SLPC  C212 7412   5.541   4.309   7.785  0.6127 -0.0432  0.0928
   80SLPC  H12R 7413   5.639   4.260   7.778  0.5069 -0.0543 -1.8158
   80SLPC  C213 7414   5.481   4.331   7.903  0.2392 -0.8467  0.3445
   80SLPC  H13R 7415   5.553   4.325   7.986  0.7939  0.6543 -0.0006
   80SLPC  C214 7416   5.340   4.387   7.933 -0.4606 -0.0298  0.1698
   80SLPC  H14R 7417   5.276   4.391   7.842  0.5171 -0.7729 -0.5704
   80SLPC  H14S 7418   5.337   4.497   7.951 -2.8806 -0.0482  0.1913
   80SLPC  C215 7419   5.271   4.326   8.054  0.1475  0.0825 -0.4015
   80SLPC  H15R 7420   5.247   4.220   8.030 -1.2892  0.8591 -2.7496
   80SLPC  H15S 7421   5.178   4.386   8.064 -0.0842 -0.2658 -0.4535
   80SLPC  C216 7422   5.342   4.350   8.182  0.0002  0.0725  0.2046
   80SLPC  H16R 7423   5.396   4.447   8.188 -0.2170  0.1603  0.7808
   80SLPC  H16S 7424   5.428   4.280   8.174 -1.5400 -1.7531 -1.6795
   80SLPC  C217 7425   5.264   4.310   8.307  0.5246 -0.0715  0.0964
   80SLPC  H17R 7426   5.212   4.217   8.277  1.1280 -0.3710 -0.0395
   80SLPC  H17S 7427   5.192   4.393   8.322 -0.5389 -1.2435  1.8322
   80SLPC  C218 7428   5.355   4.279   8.433 -0.6771 -0.1593 -0.0311
   80SLPC  H18R 7429   5.396   4.176   8.424 -0.0480  0.0711  0.1589
   80SLPC  H18S 7430   5.310   4.284   8.534 -0.6446 -0.2554 -0.0120
   80SLPC  H18T 7431   5.442   4.348   8.426 -0.9963  0.1291 -1.6112
   80SLPC   C33 7432   5.792   4.688   7.162 -0.1062 -0.0945 -0.3437
   80SLPC   H3X 7433   5.787   4.799   7.169  0.3101 -0.1044  0.1853
   80SLPC   H3Y 7434   5.892   4.654   7.128  0.9885  1.7588  0.8564
   80SLPC   C34 7435   5.765   4.645   7.303 -0.3900  0.2438 -0.2058
   80SLPC   H4X 7436   5.752   4.535   7.306  1.6918 -0.0241  0.8965
   80SLPC   H4Y 7437   5.666   4.683   7.336 -1.2660 -0.4723 -1.8796
   80SLPC   C35 7438   5.873   4.695   7.406  0.4305  0.1307 -0.0466
   80SLPC   H5X 7439   5.884   4.800   7.371  2.2231 -0.0731 -0.2243
   80SLPC   H5Y 7440   5.969   4.638   7.401 -0.3187 -1.1240 -0.6556
   80SLPC   C36 7441   5.824   4.703   7.553 -0.5084 -0.1729 -0.1256
   80SLPC   H6X 7442   5.713   4.712   7.554 -0.5261 -0.1492 -0.9706
   80SLPC   H6Y 7443   5.863   4.796   7.600  1.4818 -0.9955 -0.0603
   80SLPC   C37 7444   5.874   4.606   7.654  0.3897  0.2697 -0.0240
   80SLPC   H7X 7445   5.982   4.630   7.658  0.4380  0.8393 -2.7262
   80SLPC   H7Y 7446   5.865   4.497   7.632  0.5241 -0.7015  3.9223
   80SLPC   C38 7447   5.810   4.632   7.792  0.4220 -0.0369 -0.0824
   80SLPC   H8X 7448   5.705   4.597   7.792 -0.3936  2.2505  0.5091
   80SLPC   H8Y 7449   5.801   4.743   7.798  2.2273  0.4115 -3.4330
   80SLPC   C39 7450   5.884   4.562   7.907 -0.2899  0.0687  0.2917
   80SLPC   H9X 7451   5.993   4.580   7.909 -0.4151  0.9072 -0.1142
   80SLPC   H9Y 7452   5.889   4.453   7.887 -0.9779 -0.5749  3.1633
   80SLPC  C310 7453   5.807   4.582   8.041  0.2702  0.0408 -0.3033
   80SLPC  H10X 7454   5.702   4.550   8.027  0.6764 -1.7001  0.3198
   80SLPC  H10Y 7455   5.801   4.692   8.060 -2.7360 -0.3358  1.5309
   80SLPC  C311 7456   5.878   4.516   8.160 -0.0995  0.0508 -0.0319
   80SLPC  H11X 7457   5.840   4.556   8.257  0.8901 -1.9723  1.2697
   80SLPC  H11Y 7458   5.988   4.531   8.160 -0.2404  1.8260 -2.9088
   80SLPC  C312 7459   5.829   4.368   8.153  0.3298 -0.0401 -0.8879
   80SLPC  H12X 7460   5.877   4.324   8.063  1.6286  0.4622 -0.4559
   80SLPC  H12Y 7461   5.720   4.376   8.132  0.3237  1.7809 -0.3450
   80SLPC  C313 7462   5.848   4.295   8.287  0.3699  0.0075  0.5040
   80SLPC  H13X 7463   5.821   4.377   8.357 -1.7033  2.8536 -3.2902
   80SLPC  H13Y 7464   5.958   4.279   8.298  0.5171  0.7030  0.0763
   80SLPC  C314 7465   5.765   4.173   8.314  0.2421  0.1837  0.0464
   80SLPC  H14X 7466   5.764   4.112   8.221 -0.4964 -1.6348  1.1944
   80SLPC  H14Y 7467   5.664   4.210   8.342  0.6238  0.6510  0.8562
   80SLPC  C315 7468   5.809   4.090   8.437 -0.3747  0.6595 -0.6118
   80SLPC  H15X 7469   5.876   4.013   8.393 -2.0693 -0.8149 -0.6811
   80SLPC  H15Y 7470   5.722   4.027   8.462  0.6189 -0.9586 -1.0490
   80SLPC  C316 7471   5.884   4.161   8.548  0.1309 -0.2943  0.2548
   80SLPC  H16X 7472   5.814   4.242   8.579  1.9783  0.9609  1.3300
   80SLPC  H16Y 7473   5.980   4.209   8.517  1.3172 -0.9344  2.6955
   80SLPC  C317 7474   5.901   4.073   8.677 -0.2123  0.1054 -0.2998
   80SLPC  H17X 7475   5.837   3.982   8.684  2.2755 -1.6838  1.3259
   80SLPC  H17Y 7476   5.871   4.120   8.773 -0.4218  1.9628 -1.2480
   80SLPC  C318 7477   6.046   4.018   8.682 -0.5601  0.1016 -0.3448
   80SLPC  H18X 7478   6.112   4.108   8.680 -1.9171  1.1512  0.2980
   80SLPC  H18Y 7479   6.065   3.951   8.596  0.1316 -2.8262  1.9130
   80SLPC  H18Z 7480   6.063   3.956   8.773  0.2691 -2.6982 -2.3054
   81SAPS     N 7481   6.055   2.653  11.222 -0.5411 -0.4403  0.3358
   81SAPS   HN1 7482   6.035   2.552  11.207 -1.9140 -0.1814  0.2821
   81SAPS   HN2 7483   6.131   2.683  11.158 -0.9833 -3.4964 -1.8672
   81SAPS   HN3 7484   6.083   2.671  11.321 -1.2659  1.2748  0.2624
   81SAPS   C12 7485   5.939   2.735  11.195  0.1529 -0.3138 -0.2117
   81SAPS  H12A 7486   5.934   2.748  11.088  0.2575  0.5543 -0.1260
   81SAPS   C13 7487   5.806   2.684  11.256  0.1286  0.7511  0.0085
   81SAPS  O13A 7488   5.800   2.564  11.296 -0.0996  0.0608 -0.4331
   81SAPS  O13B 7489   5.699   2.731  11.208 -0.4407  0.3235 -0.1313
   81SAPS   C11 7490   5.970   2.873  11.258  0.8919 -1.0365 -0.2033
   81SAPS  H11A 7491   5.962   2.869  11.368 -3.4876  2.5953 -0.1054
   81SAPS  H11B 7492   5.888   2.938  11.220  0.9894 -1.8658 -1.9473
   81SAPS     P 7493   6.118   3.071  11.166 -0.0523  0.3046 -0.5176
   81SAPS   O13 7494   6.043   3.156  11.260  0.7271  0.2905 -0.0385
   81SAPS   O14 7495   6.257   3.112  11.144  0.1343  0.2551 -0.3201
   81SAPS   O12 7496   6.095   2.922  11.208  0.2318  0.4912  0.5285
   81SAPS   O11 7497   6.047   3.076  11.022  0.4416 -0.0193 -0.2706
   81SAPS    C1 7498   5.964   3.179  10.966  0.2462  0.5837  0.6642
   81SAPS    HA 7499   5.970   3.273  11.026  0.7275  0.2455  1.1547
   81SAPS    HB 7500   5.983   3.196  10.858 -0.9965 -0.6514  0.2217
   81SAPS    C2 7501   5.811   3.144  10.978  0.5880 -0.2249  0.3809
   81SAPS    HS 7502   5.785   3.134  11.085  0.0626  2.4112  0.5736
   81SAPS   O21 7503   5.782   3.024  10.899 -0.1138 -0.4377 -0.5083
   81SAPS   C21 7504   5.672   2.962  10.941 -0.0140  0.1360 -0.5665
   81SAPS   O22 7505   5.610   2.995  11.042 -0.4847  0.0840  0.0939
   81SAPS   C22 7506   5.643   2.845  10.856  0.1392 -0.0008 -0.0533
   81SAPS   H2R 7507   5.735   2.790  10.829  0.7074  1.6236 -1.6494
   81SAPS   H2S 7508   5.582   2.765  10.902  2.0740 -0.9303  1.0385
   81SAPS    C3 7509   5.731   3.264  10.911  0.0366  0.1438  0.4299
   81SAPS    HX 7510   5.742   3.354  10.976 -3.1885  0.9387  0.0832
   81SAPS    HY 7511   5.622   3.242  10.915  0.3947 -1.6315  1.7198
   81SAPS   O31 7512   5.770   3.291  10.779 -0.2864 -0.0375 -0.0269
   81SAPS   C31 7513   5.701   3.256  10.671  0.3804 -0.1430 -0.3405
   81SAPS   O32 7514   5.599   3.194  10.672 -0.1459 -0.0020  0.0010
   81SAPS   C32 7515   5.762   3.318  10.557 -0.0828  0.0159  0.1924
   81SAPS   H2X 7516   5.866   3.278  10.561  0.0903  0.4422  0.0367
   81SAPS   H2Y 7517   5.763   3.428  10.577  2.1482  0.2891 -1.1074
   81SAPS   C23 7518   5.591   2.894  10.717  0.1851  0.5956  0.2869
   81SAPS   H3R 7519   5.672   2.950  10.665 -0.5711 -0.0640 -1.6763
   81SAPS   H3S 7520   5.512   2.972  10.720 -0.3386  0.0957 -0.1896
   81SAPS   C24 7521   5.529   2.784  10.629 -0.3421 -0.6409 -0.2026
   81SAPS   H4R 7522   5.445   2.737  10.684 -0.0864 -0.7359  0.1096
   81SAPS   H4S 7523   5.602   2.701  10.616  0.4591 -0.9317  4.3697
   81SAPS   C25 7524   5.490   2.832  10.494 -0.6007  0.0418 -0.3503
   81SAPS   H5R 7525   5.452   2.936  10.490  0.8401  0.7521  2.4363
   81SAPS   C26 7526   5.480   2.767  10.376  0.1405 -0.0980 -0.5588
   81SAPS   H6R 7527   5.460   2.830  10.288  0.8021  2.1446  0.8330
   81SAPS   C27 7528   5.509   2.618  10.356 -0.6014 -0.5943  0.2357
   81SAPS   H7R 7529   5.414   2.566  10.333  0.2988 -1.9601 -0.5725
   81SAPS   H7S 7530   5.547   2.580  10.453  1.7085  1.5908  0.2772
   81SAPS   C28 7531   5.615   2.605  10.248 -0.6651  0.7213  0.5655
   81SAPS   H8R 7532   5.717   2.579  10.278 -1.0652 -2.9320 -0.6228
   81SAPS   C29 7533   5.590   2.618  10.120 -0.3470  0.0304  0.7146
   81SAPS   H9R 7534   5.677   2.614  10.052 -0.1942  1.9725  0.7175
   81SAPS  C210 7535   5.458   2.652  10.056 -0.1775 -0.3691 -0.6784
   81SAPS  H10R 7536   5.387   2.671  10.139  0.6118  0.6824 -0.2120
   81SAPS  H10S 7537   5.411   2.574   9.993  1.9785 -2.7555  0.4615
   81SAPS  C211 7538   5.467   2.771   9.968 -0.0573 -0.1938  0.3628
   81SAPS  H11R 7539   5.457   2.868  10.019  2.4381 -0.0694  0.7589
   81SAPS  C212 7540   5.478   2.772   9.835  0.8876 -0.1535  0.8812
   81SAPS  H12R 7541   5.476   2.871   9.786  0.0936 -0.5895  0.0076
   81SAPS  C213 7542   5.486   2.653   9.743  0.2055 -0.0822  0.4662
   81SAPS  H13R 7543   5.501   2.559   9.800 -0.5826 -0.0082  0.8141
   81SAPS  H13S 7544   5.566   2.671   9.669 -0.2566 -0.8126 -0.2281
   81SAPS  C214 7545   5.356   2.630   9.668  0.3656 -0.1884  0.1483
   81SAPS  H14R 7546   5.278   2.572   9.720  0.9918  0.2226  1.5929
   81SAPS  C215 7547   5.330   2.671   9.538 -0.8581 -0.1182 -0.6336
   81SAPS  H15R 7548   5.238   2.644   9.482 -0.9979  0.0002 -0.4587
   81SAPS  C216 7549   5.428   2.738   9.450 -0.9048 -0.3372 -0.8746
   81SAPS  H16R 7550   5.521   2.681   9.426 -0.5044  0.9053 -2.4821
   81SAPS  H16S 7551   5.460   2.829   9.505 -4.0424  0.9558 -0.9993
   81SAPS  C217 7552   5.375   2.782   9.316  0.0117  0.0305  0.9370
   81SAPS  H17R 7553   5.451   2.856   9.281  0.2638  0.4816  2.3753
   81SAPS  H17S 7554   5.277   2.829   9.334 -1.4773 -2.1761 -0.8293
   81SAPS  C218 7555   5.365   2.662   9.226  0.3727  0.5251  0.2892
   81SAPS  H18R 7556   5.302   2.581   9.267  0.2826  0.6879  0.4774
   81SAPS  H18S 7557   5.461   2.607   9.224 -0.4279 -0.9413 -2.1383
   81SAPS  C219 7558   5.325   2.694   9.087  0.7104 -0.4214  0.0512
   81SAPS  H19R 7559   5.329   2.594   9.039 -3.2607 -0.8124  0.2163
   81SAPS  H19S 7560   5.407   2.753   9.040 -0.3591  1.9264  0.9514
   81SAPS  C220 7561   5.184   2.745   9.075 -0.8742  0.0258  0.3976
   81SAPS  H20R 7562   5.134   2.703   8.986  1.3270 -0.5204 -0.6498
   81SAPS  H20S 7563   5.175   2.856   9.072  1.3996  0.2843  1.1909
   81SAPS  H20T 7564   5.112   2.713   9.153 -1.5502  2.0316  0.6696
   81SAPS   C33 7565   5.687   3.274  10.426 -0.9429  0.2574 -0.3765
   81SAPS   H3X 7566   5.591   3.329  10.410 -2.1429 -1.7952 -0.5735
   81SAPS   H3Y 7567   5.655   3.169  10.444  1.4128 -0.0868  2.7166
   81SAPS   C34 7568   5.775   3.287  10.298  0.3792 -0.5965  0.2604
   81SAPS   H4X 7569   5.723   3.231  10.217 -1.8200  0.2279  1.0379
   81SAPS   H4Y 7570   5.872   3.234  10.310  1.3229  0.5205 -1.7831
   81SAPS   C35 7571   5.807   3.428  10.248 -0.3417 -0.6451 -0.0429
   81SAPS   H5X 7572   5.890   3.467  10.310 -1.4567  1.2641  0.3328
   81SAPS   H5Y 7573   5.723   3.501  10.245  0.5478  0.4251  0.3560
   81SAPS   C36 7574   5.855   3.427  10.097  0.2024  0.1208  0.4993
   81SAPS   H6X 7575   5.777   3.372  10.041 -0.1848 -0.3400  1.4755
   81SAPS   H6Y 7576   5.957   3.385  10.086  0.8137  2.0874 -2.8667
   81SAPS   C37 7577   5.857   3.568  10.033  0.3512  1.2445  0.0478
   81SAPS   H7X 7578   5.921   3.633  10.097  0.2222  1.2475  0.1730
   81SAPS   H7Y 7579   5.753   3.607  10.032  0.1045  0.5905 -0.1514
   81SAPS   C38 7580   5.911   3.585   9.887  0.4548 -0.3180 -0.1920
   81SAPS   H8X 7581   5.980   3.497   9.890 -1.9063 -2.2666  0.0491
   81SAPS   H8Y 7582   5.960   3.684   9.876 -1.4847  0.8103  0.8872
   81SAPS   C39 7583   5.810   3.557   9.772  0.2266 -0.5746  0.0429
   81SAPS   H9X 7584   5.734   3.638   9.771  1.9769  1.1786 -2.3927
   81SAPS   H9Y 7585   5.768   3.460   9.805  0.3834 -0.5073  0.4549
   81SAPS  C310 7586   5.862   3.548   9.626 -0.7594  0.1684 -0.3126
   81SAPS  H10X 7587   5.932   3.463   9.620 -0.2994  0.5486 -0.4040
   81SAPS  H10Y 7588   5.921   3.641   9.612 -0.2616 -0.1326 -0.2440
   81SAPS  C311 7589   5.761   3.541   9.517  0.5634 -1.0489 -0.6502
   81SAPS  H11X 7590   5.690   3.627   9.510  2.5930  0.7524 -0.1568
   81SAPS  H11Y 7591   5.690   3.457   9.530 -0.6043 -0.5006 -2.8994
   81SAPS  C312 7592   5.830   3.520   9.383  0.5423  0.1039  0.1055
   81SAPS  H12X 7593   5.886   3.425   9.388 -2.2478 -1.8047 -1.9488
   81SAPS  H12Y 7594   5.897   3.607   9.365 -1.7392  2.0467  0.5360
   81SAPS  C313 7595   5.736   3.514   9.262  0.2136  0.4194  0.3611
   81SAPS  H13X 7596   5.793   3.491   9.169 -0.3469 -0.3343  0.1864
   81SAPS  H13Y 7597   5.692   3.615   9.257 -1.4455 -0.2642  0.3486
   81SAPS  C314 7598   5.623   3.418   9.253  0.0467 -0.6014  0.4273
   81SAPS  H14X 7599   5.548   3.467   9.187 -0.9233 -0.0432  1.8879
   81SAPS  H14Y 7600   5.567   3.408   9.348  0.5235  1.7075  1.0091
   81SAPS  C315 7601   5.676   3.294   9.186  0.1672 -0.2899  0.0068
   81SAPS  H15X 7602   5.753   3.253   9.256  0.5668  1.0028  0.3470
   81SAPS  H15Y 7603   5.729   3.309   9.090  2.5665 -2.6228  0.8378
   81SAPS  C316 7604   5.559   3.191   9.175 -0.1420 -0.6651  0.2209
   81SAPS  H16X 7605   5.491   3.192   9.264  0.8436 -3.1334  1.0819
   81SAPS  H16Y 7606   5.599   3.088   9.165 -2.1746 -1.3834 -1.1535
   81SAPS  C317 7607   5.467   3.223   9.053  0.0697  0.3663 -0.7519
   81SAPS  H17X 7608   5.520   3.211   8.956 -1.3171 -0.0747 -1.4845
   81SAPS  H17Y 7609   5.427   3.327   9.046  0.7276  0.6739 -0.1121
   81SAPS  C318 7610   5.347   3.124   9.055  0.7170 -0.2288 -0.7642
   81SAPS  H18X 7611   5.376   3.024   9.095  2.7929  0.4547 -0.4229
   81SAPS  H18Y 7612   5.288   3.110   8.962 -3.9199  0.5108  1.7661
   81SAPS  H18Z 7613   5.279   3.169   9.130 -0.5162 -1.3216 -1.1942
   82SAPS     N 7614   4.467   0.028  11.130 -0.4488 -0.7063  0.4017
   82SAPS   HN1 7615   4.476   0.044  11.232  0.5595  0.4298  0.1587
   82SAPS   HN2 7616   4.414  -0.058  11.105 -0.7532  0.2752 -2.7360
   82SAPS   HN3 7617   4.563   0.007  11.096 -0.2463  0.1742  0.3978
   82SAPS   C12 7618   4.417   0.149  11.054 -0.4290  0.1804  0.1491
   82SAPS  H12A 7619   4.313   0.164  11.075 -0.5522 -0.0366 -0.2932
   82SAPS   C13 7620   4.493   0.274  11.095 -0.1054 -0.7365 -0.0238
   82SAPS  O13A 7621   4.544   0.278  11.209 -0.2106 -0.3478 -0.1760
   82SAPS  O13B 7622   4.472   0.383  11.033  0.6975  0.2243 -0.1996
   82SAPS   C11 7623   4.441   0.113  10.902  0.9983  0.3944 -0.0605
   82SAPS  H11A 7624   4.544   0.137  10.867  1.4855 -1.0795  0.2750
   82SAPS  H11B 7625   4.369   0.178  10.848  0.0112  0.7905  1.6615
   82SAPS     P 7626   4.340  -0.092  10.754  0.3003  0.1412  0.0758
   82SAPS   O13 7627   4.388  -0.235  10.755  0.8800  0.1089  0.4330
   82SAPS   O14 7628   4.199  -0.058  10.764  0.4677 -0.7203  0.0975
   82SAPS   O12 7629   4.420  -0.024  10.881 -0.4758 -0.3085  0.2150
   82SAPS   O11 7630   4.403  -0.021  10.623 -0.5077 -0.5078 -0.6226
   82SAPS    C1 7631   4.543  -0.012  10.611 -0.1105 -0.3473  0.2187
   82SAPS    HA 7632   4.578   0.093  10.619  1.7675 -0.9809  0.6310
   82SAPS    HB 7633   4.600  -0.078  10.679  1.9258  1.8562  0.7977
   82SAPS    C2 7634   4.592  -0.069  10.470  0.3780  0.2610  0.4395
   82SAPS    HS 7635   4.700  -0.046  10.459  0.7786 -0.9810  1.5109
   82SAPS   O21 7636   4.509  -0.006  10.371 -0.1957 -0.0673 -0.4119
   82SAPS   C21 7637   4.544   0.114  10.335  0.4668 -0.1680 -0.2905
   82SAPS   O22 7638   4.630   0.188  10.384  0.3773 -0.8462  0.4192
   82SAPS   C22 7639   4.444   0.149  10.227  0.2498 -0.1027  0.3117
   82SAPS   H2R 7640   4.397   0.059  10.182 -0.2908  0.0137  0.6451
   82SAPS   H2S 7641   4.363   0.200  10.283  0.0694 -1.9050  1.7762
   82SAPS    C3 7642   4.569  -0.224  10.449  0.1098 -1.3040 -0.2943
   82SAPS    HX 7643   4.468  -0.248  10.488  1.0319 -2.0831  1.7903
   82SAPS    HY 7644   4.627  -0.274  10.529  0.3200  1.3184  1.3030
   82SAPS   O31 7645   4.611  -0.283  10.326 -0.0046 -0.8061  0.0965
   82SAPS   C31 7646   4.513  -0.285  10.227 -0.1238  0.9281 -0.2925
   82SAPS   O32 7647   4.401  -0.243  10.243 -0.1094 -0.2804  0.0923
   82SAPS   C32 7648   4.573  -0.354  10.103  0.2237  0.3114 -0.2243
   82SAPS   H2X 7649   4.563  -0.462  10.129  0.0256  0.7364  1.6406
   82SAPS   H2Y 7650   4.677  -0.317  10.092  0.7406 -0.8266  0.5688
   82SAPS   C23 7651   4.496   0.245  10.114  0.9566  0.6550 -0.9170
   82SAPS   H3R 7652   4.572   0.320  10.143 -0.0329  1.4172 -0.2224
   82SAPS   H3S 7653   4.398   0.289  10.088  0.3670 -0.3756 -0.5165
   82SAPS   C24 7654   4.543   0.170   9.986  0.4011  0.1915  0.7010
   82SAPS   H4R 7655   4.463   0.104   9.946  1.6718 -0.7752 -0.3324
   82SAPS   H4S 7656   4.623   0.106  10.030 -0.0228 -1.6915 -1.0966
   82SAPS   C25 7657   4.603   0.263   9.883 -0.6018  0.5275  0.1614
   82SAPS   H5R 7658   4.680   0.329   9.926  1.7486 -1.6020 -0.5361
   82SAPS   C26 7659   4.583   0.266   9.751  0.1839 -1.0980 -0.4971
   82SAPS   H6R 7660   4.653   0.326   9.691 -0.0300 -0.7558 -0.4062
   82SAPS   C27 7661   4.471   0.190   9.679  0.0898  0.0947 -0.5143
   82SAPS   H7R 7662   4.382   0.167   9.741 -0.0663 -0.2889 -0.8758
   82SAPS   H7S 7663   4.508   0.088   9.651 -0.1260 -0.4707  1.1505
   82SAPS   C28 7664   4.423   0.269   9.562 -0.1175  0.1508  0.0240
   82SAPS   H8R 7665   4.413   0.377   9.579 -0.9780 -0.1063  1.2432
   82SAPS   C29 7666   4.398   0.232   9.435  0.2870 -0.0459 -0.5911
   82SAPS   H9R 7667   4.362   0.301   9.358  2.0792  1.3879 -0.2270
   82SAPS  C210 7668   4.413   0.092   9.381  0.1172  0.8117  0.6044
   82SAPS  H10R 7669   4.456   0.028   9.461  0.4826 -1.7078 -1.4666
   82SAPS  H10S 7670   4.485   0.100   9.297 -1.3640  0.1789 -0.7857
   82SAPS  C211 7671   4.286   0.023   9.339  0.1088 -0.2453 -0.1343
   82SAPS  H11R 7672   4.242  -0.037   9.420 -0.3416  0.6605  0.3090
   82SAPS  C212 7673   4.243   0.007   9.213 -0.4512  0.1716  0.3846
   82SAPS  H12R 7674   4.154  -0.058   9.211  0.5232 -1.3222  2.3770
   82SAPS  C213 7675   4.307   0.063   9.091 -0.4887 -0.0914 -0.3676
   82SAPS  H13R 7676   4.398   0.005   9.065  0.5875  1.8492 -1.1850
   82SAPS  H13S 7677   4.347   0.164   9.114 -1.5817  0.2756  0.0018
   82SAPS  C214 7678   4.205   0.071   8.976 -0.1621  0.3258  0.0292
   82SAPS  H14R 7679   4.099   0.055   9.000  0.1077  0.2261  1.2514
   82SAPS  C215 7680   4.231   0.086   8.844 -0.0464 -0.4575  0.3145
   82SAPS  H15R 7681   4.151   0.094   8.769 -1.2085  1.1574  1.6517
   82SAPS  C216 7682   4.368   0.101   8.773 -0.9256 -0.0614  0.2164
   82SAPS  H16R 7683   4.385   0.009   8.713  1.2753  1.2418 -1.2862
   82SAPS  H16S 7684   4.448   0.104   8.850  0.3615  0.5263 -1.0994
   82SAPS  C217 7685   4.380   0.232   8.700  0.4605  0.3110  0.1275
   82SAPS  H17R 7686   4.484   0.268   8.685 -0.5877  2.3061 -3.5709
   82SAPS  H17S 7687   4.325   0.304   8.765 -0.8789 -0.4527 -0.1169
   82SAPS  C218 7688   4.325   0.208   8.554  0.4225  0.1628 -0.3960
   82SAPS  H18R 7689   4.219   0.174   8.555 -0.1687  1.7378 -2.2906
   82SAPS  H18S 7690   4.394   0.131   8.513 -0.0149 -0.6694  0.3967
   82SAPS  C219 7691   4.331   0.332   8.466  0.3535  0.5106  0.5629
   82SAPS  H19R 7692   4.307   0.300   8.362  2.0555 -1.1731  0.6237
   82SAPS  H19S 7693   4.434   0.372   8.466 -0.4220  2.8072 -2.0921
   82SAPS  C220 7694   4.230   0.439   8.501  0.2086  0.4658  0.6148
   82SAPS  H20R 7695   4.254   0.481   8.601  1.1544  0.5115  0.3857
   82SAPS  H20S 7696   4.127   0.398   8.495 -0.3128  1.8343 -0.2970
   82SAPS  H20T 7697   4.243   0.526   8.433  0.6366 -0.3457 -0.3674
   82SAPS   C33 7698   4.492  -0.338   9.974 -0.4368  0.0230 -0.2141
   82SAPS   H3X 7699   4.384  -0.346   9.996 -0.2772 -3.7786 -0.1129
   82SAPS   H3Y 7700   4.518  -0.411   9.894 -0.4116 -0.3027  0.0875
   82SAPS   C34 7701   4.508  -0.199   9.914  0.0479  0.3090 -0.1432
   82SAPS   H4X 7702   4.617  -0.178   9.926  0.6948 -2.7901  0.1902
   82SAPS   H4Y 7703   4.445  -0.120   9.960  1.1108  0.2021  1.5779
   82SAPS   C35 7704   4.493  -0.209   9.760 -0.5088 -0.3335  0.2584
   82SAPS   H5X 7705   4.573  -0.279   9.727 -1.4912 -0.0600 -3.0199
   82SAPS   H5Y 7706   4.518  -0.116   9.704 -0.7733  0.6985  1.8030
   82SAPS   C36 7707   4.359  -0.256   9.704  0.6178 -0.2411 -0.6790
   82SAPS   H6X 7708   4.286  -0.177   9.730  0.4280  0.3894 -2.8828
   82SAPS   H6Y 7709   4.306  -0.341   9.753 -0.8722  1.4965  0.8332
   82SAPS   C37 7710   4.377  -0.269   9.547 -0.5956 -0.1874  0.3443
   82SAPS   H7X 7711   4.471  -0.322   9.521 -0.4864  0.2232 -0.1215
   82SAPS   H7Y 7712   4.377  -0.165   9.507 -2.0870 -1.0067 -1.9492
   82SAPS   C38 7713   4.275  -0.357   9.490 -0.6391 -0.6576  0.0708
   82SAPS   H8X 7714   4.172  -0.329   9.520 -0.6463 -0.4785 -0.1268
   82SAPS   H8Y 7715   4.296  -0.461   9.524  1.6281 -1.0803 -2.2564
   82SAPS   C39 7716   4.283  -0.349   9.334 -0.0915  0.1730  0.2154
   82SAPS   H9X 7717   4.362  -0.417   9.295 -1.5804 -0.0640 -2.6680
   82SAPS   H9Y 7718   4.313  -0.246   9.304  2.9677 -0.8256 -0.4627
   82SAPS  C310 7719   4.155  -0.402   9.260 -0.9013  0.4112 -0.5327
   82SAPS  H10X 7720   4.068  -0.337   9.282 -1.4498 -0.6690  0.6555
   82SAPS  H10Y 7721   4.132  -0.502   9.303 -1.1001  0.4993 -0.4343
   82SAPS  C311 7722   4.164  -0.407   9.109 -0.9029 -0.4747  0.1245
   82SAPS  H11X 7723   4.239  -0.483   9.078 -2.7827 -2.3340 -0.1386
   82SAPS  H11Y 7724   4.197  -0.307   9.074 -1.0956 -0.4083  0.1301
   82SAPS  C312 7725   4.037  -0.449   9.051 -0.9371  0.8490 -0.2847
   82SAPS  H12X 7726   4.049  -0.446   8.941  2.9669 -4.4740 -0.4204
   82SAPS  H12Y 7727   3.958  -0.377   9.079 -0.4977  1.3661 -0.3665
   82SAPS  C313 7728   3.989  -0.592   9.092 -0.3717 -0.5022 -0.0790
   82SAPS  H13X 7729   3.988  -0.609   9.202  0.8869 -1.5885 -0.2098
   82SAPS  H13Y 7730   4.061  -0.665   9.049  0.5925  0.4291 -0.0840
   82SAPS  C314 7731   3.853  -0.628   9.037 -0.3893 -0.3415  0.4587
   82SAPS  H14X 7732   3.865  -0.638   8.927  1.2200 -0.3501  0.6028
   82SAPS  H14Y 7733   3.774  -0.551   9.040 -0.1265 -0.0929  1.2242
   82SAPS  C315 7734   3.796  -0.755   9.103  0.3941  0.5604  0.1435
   82SAPS  H15X 7735   3.767  -0.736   9.209 -1.1033  1.0189 -0.3251
   82SAPS  H15Y 7736   3.877  -0.831   9.107  0.5128  0.7270  1.5165
   82SAPS  C316 7737   3.665  -0.800   9.039  0.1799 -0.4293 -0.6086
   82SAPS  H16X 7738   3.685  -0.841   8.938  0.1749 -0.1084 -0.7404
   82SAPS  H16Y 7739   3.601  -0.710   9.031  0.1839 -0.5177 -1.7539
   82SAPS  C317 7740   3.588  -0.909   9.124 -0.3353 -0.4315 -0.2280
   82SAPS  H17X 7741   3.479  -0.894   9.106 -0.4441  0.8163  1.2616
   82SAPS  H17Y 7742   3.614  -0.898   9.231  0.9405 -1.9990 -0.3451
   82SAPS  C318 7743   3.636  -1.053   9.094  0.3537 -0.0746  0.3914
   82SAPS  H18X 7744   3.745  -1.069   9.108  0.8864  1.5327 -1.4371
   82SAPS  H18Y 7745   3.629  -1.060   8.983  1.0257  0.9863  0.2719
   82SAPS  H18Z 7746   3.583  -1.135   9.147 -2.2797 -1.0422 -3.2799
   83SAPS     N 7747   3.409   6.696  11.032  0.0611  0.1214 -0.0599
   83SAPS   HN1 7748   3.397   6.786  10.982  0.5398 -0.1535 -0.6962
   83SAPS   HN2 7749   3.471   6.638  10.970 -2.0875  0.5251 -2.8050
   83SAPS   HN3 7750   3.319   6.644  11.041  0.8560 -1.8102 -2.1451
   83SAPS   C12 7751   3.471   6.714  11.164 -0.1665  0.0606 -0.6006
   83SAPS  H12A 7752   3.394   6.765  11.221 -2.7291 -2.0649 -1.9870
   83SAPS   C13 7753   3.494   6.588  11.244  0.0930  0.8775 -0.6893
   83SAPS  O13A 7754   3.451   6.477  11.209 -0.2041  0.5111 -0.0000
   83SAPS  O13B 7755   3.541   6.607  11.362 -0.1812  0.0336  0.0069
   83SAPS   C11 7756   3.602   6.794  11.140 -0.8881 -0.3903 -0.4028
   83SAPS  H11A 7757   3.685   6.737  11.093  1.0984 -0.9863  3.4806
   83SAPS  H11B 7758   3.644   6.823  11.238  0.2668  1.1225 -1.2991
   83SAPS     P 7759   3.675   7.031  11.072  0.2984  0.0623  0.0087
   83SAPS   O13 7760   3.683   7.086  11.211  0.4670 -0.7381 -0.3158
   83SAPS   O14 7761   3.799   6.988  10.999 -0.2827 -0.4145 -0.3794
   83SAPS   O12 7762   3.575   6.911  11.067  0.0699  0.5128  0.5307
   83SAPS   O11 7763   3.609   7.142  10.988 -0.0516  0.4697  0.5606
   83SAPS    C1 7764   3.561   7.106  10.856 -0.1972  0.9729 -1.2719
   83SAPS    HA 7765   3.507   7.009  10.859 -0.6278  1.2157  1.7063
   83SAPS    HB 7766   3.479   7.176  10.828 -2.0447 -0.4101  0.3893
   83SAPS    C2 7767   3.662   7.118  10.744 -0.0831  0.4599 -0.0318
   83SAPS    HS 7768   3.741   7.040  10.753  1.2327  1.5905 -1.2601
   83SAPS   O21 7769   3.719   7.252  10.754  0.1701  0.5302  0.3068
   83SAPS   C21 7770   3.843   7.253  10.721 -0.9102  0.2315 -0.1076
   83SAPS   O22 7771   3.908   7.166  10.655  0.2001 -0.0691 -0.0309
   83SAPS   C22 7772   3.902   7.385  10.789 -0.4420 -0.3657 -0.0650
   83SAPS   H2R 7773   3.847   7.477  10.758 -1.8905 -0.0851  2.9792
   83SAPS   H2S 7774   3.890   7.365  10.897 -0.7342  0.4553  0.0654
   83SAPS    C3 7775   3.593   7.088  10.602 -0.1253 -0.2980  0.5524
   83SAPS    HX 7776   3.503   7.152  10.589  0.8023  1.3902  2.1156
   83SAPS    HY 7777   3.557   6.983  10.608 -3.8155  0.7926 -0.1460
   83SAPS   O31 7778   3.673   7.111  10.486 -0.0826  0.7118 -0.2355
   83SAPS   C31 7779   3.744   6.998  10.448 -0.5623 -0.5071 -0.1090
   83SAPS   O32 7780   3.741   6.885  10.486 -0.0158 -0.4547 -0.4149
   83SAPS   C32 7781   3.827   7.036  10.322  0.0212 -0.3070  0.3363
   83SAPS   H2X 7782   3.829   7.147  10.312  0.7875 -0.2858  0.6351
   83SAPS   H2Y 7783   3.766   7.012  10.233 -1.2450  0.0618  1.0775
   83SAPS   C23 7784   4.055   7.393  10.746  0.3725  0.2214  0.6417
   83SAPS   H3R 7785   4.108   7.296  10.746 -0.8186 -0.4470  0.6647
   83SAPS   H3S 7786   4.111   7.449  10.824  1.2173 -0.1353  0.3075
   83SAPS   C24 7787   4.078   7.462  10.612  0.4587 -0.1149 -0.5283
   83SAPS   H4R 7788   4.177   7.510  10.621  0.7865 -0.7444 -0.7522
   83SAPS   H4S 7789   3.999   7.539  10.595 -1.6329 -1.3099  2.8217
   83SAPS   C25 7790   4.088   7.369  10.499  0.1879  0.4230 -0.6649
   83SAPS   H5R 7791   4.152   7.281  10.516  0.0896  0.4161 -0.3283
   83SAPS   C26 7792   4.048   7.389  10.376  0.5958  0.3905  0.2140
   83SAPS   H6R 7793   4.068   7.311  10.301 -0.4602  0.9493 -0.6703
   83SAPS   C27 7794   3.966   7.505  10.326  0.0794 -0.5948 -0.3267
   83SAPS   H7R 7795   4.014   7.558  10.241  0.6041 -1.0535 -0.3162
   83SAPS   H7S 7796   3.961   7.582  10.406 -0.7298 -1.2072  0.2322
   83SAPS   C28 7797   3.822   7.474  10.285  0.9623  0.8482 -1.0711
   83SAPS   H8R 7798   3.752   7.456  10.368 -1.8274  0.6192 -3.3325
   83SAPS   C29 7799   3.765   7.443  10.166  0.0840 -0.4269 -0.5963
   83SAPS   H9R 7800   3.660   7.413  10.153 -0.0532  0.4269 -1.5306
   83SAPS  C210 7801   3.841   7.436  10.038  0.4372  0.2612 -0.6336
   83SAPS  H10R 7802   3.949   7.432  10.067  0.1939  0.0184  0.2776
   83SAPS  H10S 7803   3.824   7.533   9.987 -1.9886 -0.3308 -1.0782
   83SAPS  C211 7804   3.799   7.311   9.958 -0.1850  0.0521  0.1798
   83SAPS  H11R 7805   3.782   7.222  10.021  0.0652  1.7961  2.8672
   83SAPS  C212 7806   3.761   7.307   9.827  0.4048 -0.2061 -0.8532
   83SAPS  H12R 7807   3.758   7.202   9.793  4.0865 -0.8651  0.4596
   83SAPS  C213 7808   3.761   7.423   9.727  0.8460 -0.3822  0.2379
   83SAPS  H13R 7809   3.845   7.421   9.655 -0.3244  1.8103 -1.2765
   83SAPS  H13S 7810   3.767   7.515   9.789  0.4464 -0.3214  0.1910
   83SAPS  C214 7811   3.636   7.431   9.644  1.0337  0.1582 -1.0469
   83SAPS  H14R 7812   3.553   7.460   9.711  0.6220  1.1355 -1.9513
   83SAPS  C215 7813   3.600   7.411   9.515  0.5604 -0.7533  0.2771
   83SAPS  H15R 7814   3.494   7.417   9.486  0.1172  0.1049  1.9287
   83SAPS  C216 7815   3.692   7.378   9.398  0.3556 -0.6487 -0.4316
   83SAPS  H16R 7816   3.683   7.273   9.366  2.1152 -1.6207  1.9015
   83SAPS  H16S 7817   3.791   7.373   9.448 -0.5888 -1.3217  1.4800
   83SAPS  C217 7818   3.691   7.490   9.285  0.3299  0.1104 -0.2777
   83SAPS  H17R 7819   3.775   7.470   9.214 -1.4504  0.8525 -2.7409
   83SAPS  H17S 7820   3.695   7.590   9.335  0.7486 -0.5387  1.0288
   83SAPS  C218 7821   3.564   7.477   9.188 -0.6328  0.8107 -0.6202
   83SAPS  H18R 7822   3.535   7.576   9.147 -1.6192  0.0101 -1.9153
   83SAPS  H18S 7823   3.481   7.437   9.249 -0.7266 -2.0941 -2.4531
   83SAPS  C219 7824   3.582   7.376   9.071  0.3046 -0.9482  0.2183
   83SAPS  H19R 7825   3.636   7.286   9.108  1.8993 -0.5006 -0.9109
   83SAPS  H19S 7826   3.650   7.419   8.994  0.0168 -1.6031 -0.4066
   83SAPS  C220 7827   3.453   7.327   8.996 -0.5640  0.0814 -0.6046
   83SAPS  H20R 7828   3.482   7.247   8.924 -0.6236  0.8088 -1.4463
   83SAPS  H20S 7829   3.397   7.406   8.942 -0.2386  1.9133  1.5821
   83SAPS  H20T 7830   3.381   7.275   9.064  2.1171 -4.2902 -0.6937
   83SAPS   C33 7831   3.969   6.983  10.312  0.3367 -0.3636 -0.2865
   83SAPS   H3X 7832   3.966   6.875  10.337  1.2811 -0.2837  0.1851
   83SAPS   H3Y 7833   4.037   7.033  10.384  0.7837 -0.8915 -0.3368
   83SAPS   C34 7834   4.035   7.009  10.174 -0.0347  0.6402 -1.3651
   83SAPS   H4X 7835   4.144   6.992  10.183 -0.3902 -0.8174  0.8273
   83SAPS   H4Y 7836   4.028   7.118  10.154  0.2082  0.7927 -0.6465
   83SAPS   C35 7837   3.985   6.924  10.054 -0.2466 -0.3668  0.2267
   83SAPS   H5X 7838   3.877   6.904  10.038 -0.3759  0.2373  0.3159
   83SAPS   H5Y 7839   4.015   6.822  10.087  2.6931  0.3466  0.0559
   83SAPS   C36 7840   4.065   6.956   9.924  0.4739  0.4342 -0.4148
   83SAPS   H6X 7841   4.157   7.015   9.944 -0.6651  2.3107 -0.3848
   83SAPS   H6Y 7842   4.006   7.036   9.874 -2.1634 -0.3204  1.2532
   83SAPS   C37 7843   4.087   6.830   9.838  0.1919  0.3880  0.2726
   83SAPS   H7X 7844   4.132   6.752   9.902  1.6497 -0.3159 -1.5143
   83SAPS   H7Y 7845   4.171   6.850   9.768 -0.0603 -1.5246 -0.6392
   83SAPS   C38 7846   3.965   6.789   9.760  0.3025  0.5424 -0.0640
   83SAPS   H8X 7847   3.941   6.874   9.692 -2.0593  0.1668  0.1906
   83SAPS   H8Y 7848   3.881   6.776   9.831  2.0178 -0.2009  1.9297
   83SAPS   C39 7849   3.991   6.658   9.678  0.2676  0.1004  0.1541
   83SAPS   H9X 7850   4.002   6.582   9.759  0.8520  2.2609  2.2190
   83SAPS   H9Y 7851   4.091   6.660   9.630 -0.1959  2.7527 -0.8699
   83SAPS  C310 7852   3.879   6.622   9.579  0.7068  0.0402 -0.3371
   83SAPS  H10X 7853   3.777   6.623   9.624 -0.0273 -1.9542 -1.8024
   83SAPS  H10Y 7854   3.895   6.518   9.542 -2.0382 -0.3961 -0.5381
   83SAPS  C311 7855   3.875   6.717   9.457  0.4484 -0.2439  0.5691
   83SAPS  H11X 7856   3.974   6.723   9.408 -0.0328 -2.5195 -0.8547
   83SAPS  H11Y 7857   3.840   6.820   9.481  0.5575 -0.2016  0.5473
   83SAPS  C312 7858   3.781   6.689   9.338  0.1794  0.0369 -0.0868
   83SAPS  H12X 7859   3.684   6.660   9.383  1.4254 -0.6917  2.3867
   83SAPS  H12Y 7860   3.832   6.608   9.282 -0.4852  0.6901 -1.6713
   83SAPS  C313 7861   3.760   6.797   9.243  0.3786 -0.4647 -0.2705
   83SAPS  H13X 7862   3.853   6.821   9.188  2.1772 -1.1409  2.3127
   83SAPS  H13Y 7863   3.723   6.881   9.306 -1.1534 -0.9729 -0.4368
   83SAPS  C314 7864   3.648   6.761   9.143 -0.1196 -0.2073  0.8544
   83SAPS  H14X 7865   3.566   6.729   9.212 -0.6245  0.2124  0.4594
   83SAPS  H14Y 7866   3.662   6.671   9.080  0.6856  0.3787  0.1638
   83SAPS  C315 7867   3.612   6.870   9.047  0.6563 -0.2718 -0.2820
   83SAPS  H15X 7868   3.608   6.963   9.107  0.2491  0.2300 -1.0817
   83SAPS  H15Y 7869   3.512   6.853   9.001 -0.1967 -2.5504  2.1135
   83SAPS  C316 7870   3.727   6.879   8.941  0.2114  0.1328  0.5634
   83SAPS  H16X 7871   3.733   6.784   8.883 -0.0594 -0.9752  2.2755
   83SAPS  H16Y 7872   3.821   6.885   9.000 -0.1887 -0.2812  1.2475
   83SAPS  C317 7873   3.719   7.000   8.844 -0.3727 -0.4334 -0.0902
   83SAPS  H17X 7874   3.702   7.083   8.916 -0.6379 -1.4033  0.9974
   83SAPS  H17Y 7875   3.630   6.985   8.778  1.1326 -0.2505 -2.2718
   83SAPS  C318 7876   3.840   7.017   8.761  0.1505 -0.3501 -0.2865
   83SAPS  H18X 7877   3.849   6.945   8.677 -0.2825 -0.0993 -0.5522
   83SAPS  H18Y 7878   3.925   7.005   8.832 -0.6062  0.1686  0.7338
   83SAPS  H18Z 7879   3.832   7.119   8.716  0.6311 -0.0708  0.2482
   84SAPS     N 7880   5.829   4.452  11.250  0.4392  1.2346 -0.9596
   84SAPS   HN1 7881   5.904   4.486  11.187  2.7629  1.4954  1.8004
   84SAPS   HN2 7882   5.833   4.512  11.334 -2.7645 -0.8508  0.9091
   84SAPS   HN3 7883   5.842   4.350  11.268  1.4767  1.6812  1.0432
   84SAPS   C12 7884   5.697   4.482  11.181 -0.9372  0.2854 -0.4462
   84SAPS  H12A 7885   5.629   4.402  11.207  1.7685 -1.8677  0.4576
   84SAPS   C13 7886   5.631   4.619  11.210 -0.0286 -0.9550 -0.6741
   84SAPS  O13A 7887   5.696   4.694  11.287  0.1559  0.3810  0.2732
   84SAPS  O13B 7888   5.532   4.651  11.149  0.5285 -1.1349 -0.3208
   84SAPS   C11 7889   5.725   4.448  11.037 -0.1168 -0.1893  1.1111
   84SAPS  H11A 7890   5.794   4.524  10.994  0.4148 -0.3546  1.6658
   84SAPS  H11B 7891   5.625   4.455  10.989 -0.2268 -0.7967  1.2408
   84SAPS     P 7892   5.691   4.183  10.981 -0.2433  0.3076 -0.1049
   84SAPS   O13 7893   5.751   4.070  11.051  0.1775 -0.5655  0.4211
   84SAPS   O14 7894   5.547   4.209  11.010 -0.4933  0.4993  0.0578
   84SAPS   O12 7895   5.781   4.316  11.017  0.1496 -0.0343  0.5959
   84SAPS   O11 7896   5.704   4.165  10.827  0.0250 -0.5854 -0.4453
   84SAPS    C1 7897   5.789   4.247  10.749 -0.0770 -0.1303 -0.4241
   84SAPS    HA 7898   5.755   4.353  10.758 -0.1615 -0.2773  1.3180
   84SAPS    HB 7899   5.891   4.238  10.791  0.8440 -0.2403 -2.5422
   84SAPS    C2 7900   5.803   4.202  10.603  0.3836 -0.3348  0.3343
   84SAPS    HS 7901   5.860   4.277  10.545 -1.2327  1.6578  1.1987
   84SAPS   O21 7902   5.677   4.180  10.530 -0.0345 -0.7364  0.4041
   84SAPS   C21 7903   5.600   4.289  10.511  0.4739  0.0849  0.1996
   84SAPS   O22 7904   5.636   4.408  10.522  0.1775  0.1197 -0.3884
   84SAPS   C22 7905   5.460   4.245  10.457 -0.0935  0.0034  0.1695
   84SAPS   H2R 7906   5.429   4.172  10.534 -0.1580  1.8494  2.0064
   84SAPS   H2S 7907   5.386   4.328  10.457  0.8224  0.8489  0.2983
   84SAPS    C3 7908   5.877   4.062  10.592  0.5877 -0.0611  0.1291
   84SAPS    HX 7909   5.812   3.987  10.641 -0.8421  2.0007  1.5565
   84SAPS    HY 7910   5.970   4.065  10.653 -0.5249 -2.7198  2.1252
   84SAPS   O31 7911   5.918   4.025  10.457  0.0211  0.1269 -0.1790
   84SAPS   C31 7912   5.839   3.943  10.393 -1.1209  0.4873  0.3196
   84SAPS   O32 7913   5.729   3.904  10.430 -0.0408 -0.0346  0.1726
   84SAPS   C32 7914   5.903   3.891  10.264 -0.6577  0.3022 -0.3825
   84SAPS   H2X 7915   5.886   3.783  10.244 -1.0183  0.8691 -3.7837
   84SAPS   H2Y 7916   6.014   3.902  10.267 -0.5335 -0.8450  2.1457
   84SAPS   C23 7917   5.493   4.177  10.310 -0.3253  0.7072 -0.7402
   84SAPS   H3R 7918   5.395   4.140  10.272 -0.3159 -1.2858  0.9911
   84SAPS   H3S 7919   5.551   4.085  10.331  1.2490  1.5147 -1.4160
   84SAPS   C24 7920   5.568   4.268  10.205 -0.1138  0.1355 -0.3151
   84SAPS   H4R 7921   5.665   4.307  10.243  0.4605  0.9900 -2.5329
   84SAPS   H4S 7922   5.510   4.358  10.178  1.5744  0.2407 -4.2343
   84SAPS   C25 7923   5.586   4.188  10.084 -0.0014  0.0163  0.5541
   84SAPS   H5R 7924   5.618   4.084  10.102  0.7689 -0.1691 -1.6059
   84SAPS   C26 7925   5.592   4.232   9.956  0.2039 -0.5127  0.9023
   84SAPS   H6R 7926   5.603   4.160   9.873 -1.4206 -0.5662  0.6985
   84SAPS   C27 7927   5.586   4.373   9.910 -0.0664 -0.0065 -0.7004
   84SAPS   H7R 7928   5.675   4.407   9.855 -0.1216 -0.4740 -1.0851
   84SAPS   H7S 7929   5.581   4.450   9.991 -1.9184  2.5405 -3.0524
   84SAPS   C28 7930   5.466   4.380   9.830 -0.4453 -1.6528 -0.0460
   84SAPS   H8R 7931   5.371   4.373   9.885  0.0721 -0.2386  1.0757
   84SAPS   C29 7932   5.469   4.394   9.696  0.5426 -0.0323  0.5731
   84SAPS   H9R 7933   5.377   4.397   9.636 -0.0503  0.5773  1.4934
   84SAPS  C210 7934   5.590   4.410   9.612 -0.0637  0.2875 -0.0250
   84SAPS  H10R 7935   5.597   4.313   9.558  0.1514 -0.7989  1.8684
   84SAPS  H10S 7936   5.687   4.427   9.664  0.6795 -2.9190 -0.1701
   84SAPS  C211 7937   5.572   4.521   9.507 -0.2483  0.6979 -1.4519
   84SAPS  H11R 7938   5.559   4.611   9.568  0.8924  0.3577 -0.6853
   84SAPS  C212 7939   5.567   4.517   9.372 -0.0597 -0.1194  0.1327
   84SAPS  H12R 7940   5.555   4.611   9.317 -1.9034 -0.8285 -0.7862
   84SAPS  C213 7941   5.584   4.386   9.289 -0.4673 -0.7479 -1.4457
   84SAPS  H13R 7942   5.600   4.296   9.352 -0.1581 -0.3340 -0.9274
   84SAPS  H13S 7943   5.682   4.395   9.238  1.3907 -1.4571  1.7064
   84SAPS  C214 7944   5.476   4.351   9.192  0.5096  0.3099 -0.0494
   84SAPS  H14R 7945   5.404   4.281   9.236  1.5580  1.0921  3.1621
   84SAPS  C215 7946   5.465   4.383   9.069  0.1671  0.3303  0.7590
   84SAPS  H15R 7947   5.403   4.317   9.006 -0.9424  0.5556  1.5730
   84SAPS  C216 7948   5.559   4.470   8.986  0.0534  0.0783 -0.1364
   84SAPS  H16R 7949   5.630   4.525   9.051  1.5081  3.0585 -3.9108
   84SAPS  H16S 7950   5.507   4.551   8.931 -0.0300 -0.6617 -1.1784
   84SAPS  C217 7951   5.628   4.393   8.869  0.8962 -0.1113  0.4466
   84SAPS  H17R 7952   5.554   4.333   8.811 -1.8095  0.5924  2.9992
   84SAPS  H17S 7953   5.706   4.329   8.916 -0.3194 -0.1173  2.5336
   84SAPS  C218 7954   5.693   4.495   8.768  0.3776 -0.1914  0.3558
   84SAPS  H18R 7955   5.641   4.592   8.787  0.8366  0.1526 -0.1248
   84SAPS  H18S 7956   5.670   4.465   8.664  1.5537 -2.8185  0.7655
   84SAPS  C219 7957   5.837   4.497   8.785  0.0311  0.1524  0.7944
   84SAPS  H19R 7958   5.874   4.401   8.826  0.2248  0.7328  2.0229
   84SAPS  H19S 7959   5.868   4.566   8.866 -2.5603 -0.2034  2.1964
   84SAPS  C220 7960   5.911   4.548   8.667  0.0371  0.5202 -0.2600
   84SAPS  H20R 7961   5.912   4.475   8.583 -1.4163 -0.3959  0.4729
   84SAPS  H20S 7962   6.017   4.575   8.685  0.1490 -0.2448  0.2590
   84SAPS  H20T 7963   5.873   4.640   8.617  2.5151  0.1615 -3.0814
   84SAPS   C33 7964   5.850   3.974  10.151  0.2401 -0.1051  0.3934
   84SAPS   H3X 7965   5.862   4.085  10.159 -1.5094  0.3015 -1.6556
   84SAPS   H3Y 7966   5.743   3.945  10.145  0.0934  0.5851 -0.6630
   84SAPS   C34 7967   5.917   3.924  10.022 -0.4914  0.7434  0.2768
   84SAPS   H4X 7968   5.882   3.821  10.000  0.6101 -0.0543  2.1089
   84SAPS   H4Y 7969   6.027   3.917  10.029 -0.4834 -0.8552 -0.8593
   84SAPS   C35 7970   5.881   4.008   9.899 -0.1641  0.4252 -0.2031
   84SAPS   H5X 7971   5.912   4.114   9.913 -0.7949  0.6580 -0.5714
   84SAPS   H5Y 7972   5.773   4.020   9.877 -0.3405  0.8440  0.8091
   84SAPS   C36 7973   5.915   3.952   9.760 -0.3318  0.3566 -0.0528
   84SAPS   H6X 7974   5.889   3.847   9.737  1.4495  0.1313 -1.2001
   84SAPS   H6Y 7975   6.025   3.964   9.751  0.2003 -1.5602  2.6954
   84SAPS   C37 7976   5.850   4.034   9.651 -0.1534  0.4896 -0.5544
   84SAPS   H7X 7977   5.872   4.142   9.668 -2.5256  0.6716  2.3454
   84SAPS   H7Y 7978   5.742   4.008   9.653  0.4377 -2.4779 -2.2905
   84SAPS   C38 7979   5.907   3.991   9.517  0.3875  0.1971 -0.0788
   84SAPS   H8X 7980   5.898   3.880   9.517 -0.7988  0.2708 -1.2348
   84SAPS   H8Y 7981   6.016   4.008   9.503  0.5694 -1.4418 -0.9248
   84SAPS   C39 7982   5.844   4.066   9.397 -0.6734  0.1384 -0.7632
   84SAPS   H9X 7983   5.876   4.172   9.404 -1.1522  0.2760 -0.6216
   84SAPS   H9Y 7984   5.736   4.078   9.417 -0.3407  2.7442 -0.1403
   84SAPS  C310 7985   5.872   4.003   9.264  0.2147 -0.5220  0.5254
   84SAPS  H10X 7986   5.856   3.893   9.260 -3.2412 -0.1035 -2.9196
   84SAPS  H10Y 7987   5.976   4.029   9.232  0.5411 -0.3833  1.6686
   84SAPS  C311 7988   5.779   4.060   9.162  0.1111 -0.0771 -0.6562
   84SAPS  H11X 7989   5.781   4.171   9.150 -0.6406 -0.1680 -1.8465
   84SAPS  H11Y 7990   5.673   4.050   9.195 -0.0160 -0.3781 -1.1451
   84SAPS  C312 7991   5.793   4.000   9.020  0.4216  0.3621 -0.5859
   84SAPS  H12X 7992   5.901   4.003   8.994  1.6909  1.2395  3.9430
   84SAPS  H12Y 7993   5.730   4.063   8.953 -1.0371  2.1497  2.2466
   84SAPS  C313 7994   5.748   3.853   9.015  0.5400 -0.6581  0.0567
   84SAPS  H13X 7995   5.644   3.853   9.053  0.7176 -2.2213  0.6313
   84SAPS  H13Y 7996   5.797   3.791   9.093 -2.2857 -0.9057  1.7716
   84SAPS  C314 7997   5.760   3.794   8.873 -0.1310 -1.2414 -0.4499
   84SAPS  H14X 7998   5.859   3.803   8.825 -0.8260 -0.4730 -1.7962
   84SAPS  H14Y 7999   5.681   3.848   8.816 -0.6670 -0.3837  1.0426
   84SAPS  C315 8000   5.724   3.644   8.862 -0.3328  0.2310  0.6142
   84SAPS  H15X 8001   5.736   3.599   8.963 -0.2804 -1.9357 -0.3065
   84SAPS  H15Y 8002   5.793   3.584   8.799 -0.7810 -1.7673  1.9520
   84SAPS  C316 8003   5.578   3.635   8.793 -0.7964 -0.9951  0.1222
   84SAPS  H16X 8004   5.586   3.694   8.699  0.1442 -0.8460  0.2880
   84SAPS  H16Y 8005   5.514   3.683   8.870  2.1415 -0.0283  2.1416
   84SAPS  C317 8006   5.525   3.498   8.774 -0.3116 -0.0963  0.5001
   84SAPS  H17X 8007   5.430   3.510   8.717 -0.8361 -2.7943  0.6836
   84SAPS  H17Y 8008   5.500   3.448   8.870 -1.5275  0.5517  0.5467
   84SAPS  C318 8009   5.619   3.418   8.686 -0.6657 -0.6236 -0.5093
   84SAPS  H18X 8010   5.713   3.399   8.743 -0.3679  1.1356 -0.3666
   84SAPS  H18Y 8011   5.633   3.469   8.589 -1.6976  2.8389  0.9858
   84SAPS  H18Z 8012   5.568   3.321   8.667 -0.1394 -1.1046  0.4810
   85SAPS     N 8013   1.174   6.068  10.907 -0.1848 -0.0183 -0.1168
   85SAPS   HN1 8014   1.247   6.063  10.834  2.6081 -2.5921  2.5667
   85SAPS   HN2 8015   1.197   5.981  10.960 -2.9841 -1.4614 -1.0615
   85SAPS   HN3 8016   1.074   6.075  10.880 -0.1986  1.3146  0.2304
   85SAPS   C12 8017   1.199   6.183  10.997  0.0917 -0.7776 -0.4962
   85SAPS  H12A 8018   1.159   6.267  10.941 -1.4739 -1.6560 -0.7419
   85SAPS   C13 8019   1.107   6.177  11.127 -0.7600 -0.3855 -0.5720
   85SAPS  O13A 8020   1.129   6.271  11.215 -0.1963  0.2019  0.1959
   85SAPS  O13B 8021   1.046   6.075  11.155  0.4953  0.0037 -0.4451
   85SAPS   C11 8022   1.350   6.190  11.037 -0.3695 -0.4282 -0.1205
   85SAPS  H11A 8023   1.357   6.267  11.117  0.9422 -2.2740  1.6542
   85SAPS  H11B 8024   1.413   6.229  10.955  0.4249  1.7887  1.4492
   85SAPS     P 8025   1.485   6.057  11.206  0.1061  0.3532  0.1191
   85SAPS   O13 8026   1.539   6.187  11.245 -0.0192  0.0341  0.0055
   85SAPS   O14 8027   1.413   5.979  11.310  0.0648  0.3677  0.1113
   85SAPS   O12 8028   1.396   6.066  11.082  0.3686  0.5214 -0.7303
   85SAPS   O11 8029   1.609   5.974  11.163 -0.4470 -0.2504  0.2586
   85SAPS    C1 8030   1.613   5.871  11.067 -0.2973  0.5062  0.1746
   85SAPS    HA 8031   1.688   5.801  11.109 -1.0181  0.8521  2.1557
   85SAPS    HB 8032   1.512   5.826  11.059 -0.7382  1.1459  1.6437
   85SAPS    C2 8033   1.665   5.917  10.925 -0.8104 -0.0130  0.1538
   85SAPS    HS 8034   1.585   5.970  10.869  0.0213  0.5166 -0.5498
   85SAPS   O21 8035   1.711   5.799  10.861 -0.4579 -0.4241 -0.2060
   85SAPS   C21 8036   1.694   5.791  10.735 -0.3005 -0.0681  0.3566
   85SAPS   O22 8037   1.608   5.856  10.680 -0.2193 -0.4436  0.3141
   85SAPS   C22 8038   1.788   5.687  10.677  0.2223 -0.3517  0.0939
   85SAPS   H2R 8039   1.872   5.742  10.630 -1.4594  1.0143 -1.5059
   85SAPS   H2S 8040   1.840   5.627  10.754 -0.4193 -0.8945  0.1169
   85SAPS    C3 8041   1.784   6.022  10.938 -0.5957 -0.1954 -0.3110
   85SAPS    HX 8042   1.845   5.981  11.021  0.2208  0.5241 -0.5346
   85SAPS    HY 8043   1.738   6.118  10.970 -2.3962 -1.1593  0.0540
   85SAPS   O31 8044   1.867   6.034  10.810 -0.1911 -0.4360 -0.1453
   85SAPS   C31 8045   1.835   6.126  10.721  0.8103  0.1563  0.6150
   85SAPS   O32 8046   1.739   6.201  10.721  0.2181  0.2006  0.4086
   85SAPS   C32 8047   1.944   6.120  10.616 -1.0304 -0.3295 -0.0240
   85SAPS   H2X 8048   1.944   6.021  10.566  1.8494 -0.4130 -0.0506
   85SAPS   H2Y 8049   2.036   6.128  10.679 -0.6654  0.6547 -0.6530
   85SAPS   C23 8050   1.718   5.600  10.563 -0.5577 -0.8476  0.0453
   85SAPS   H3R 8051   1.656   5.669  10.503  1.0861  1.5863  0.9978
   85SAPS   H3S 8052   1.662   5.526  10.625  0.1674 -0.0907  1.6494
   85SAPS   C24 8053   1.816   5.506  10.475  0.1054 -0.0023  0.8118
   85SAPS   H4R 8054   1.768   5.438  10.402  1.6899 -1.3107  0.9305
   85SAPS   H4S 8055   1.861   5.448  10.559  1.6096  2.3098  1.7309
   85SAPS   C25 8056   1.925   5.586  10.413 -0.2384  0.2867  0.1221
   85SAPS   H5R 8057   2.020   5.578  10.468  1.0581 -0.9280 -2.1258
   85SAPS   C26 8058   1.921   5.660  10.299  0.1300  0.2457  0.3558
   85SAPS   H6R 8059   2.015   5.705  10.264 -0.8949 -0.0421 -3.1247
   85SAPS   C27 8060   1.806   5.680  10.201  0.1649 -0.3337  0.4956
   85SAPS   H7R 8061   1.796   5.791  10.201  3.1387  0.1365 -2.5776
   85SAPS   H7S 8062   1.708   5.644  10.237 -1.6741  0.5181 -3.1765
   85SAPS   C28 8063   1.827   5.626  10.064 -0.0987  0.4371  0.2307
   85SAPS   H8R 8064   1.912   5.557  10.061 -0.6247 -0.6427  4.2050
   85SAPS   C29 8065   1.768   5.663   9.947 -0.2249  0.2953  0.2724
   85SAPS   H9R 8066   1.794   5.608   9.856 -0.4044  1.5077 -0.5227
   85SAPS  C210 8067   1.662   5.766   9.918  0.2055 -0.0464 -0.0094
   85SAPS  H10R 8068   1.630   5.832  10.001  0.6774 -0.1986  0.2942
   85SAPS  H10S 8069   1.575   5.703   9.891  2.2334 -2.7782 -0.5849
   85SAPS  C211 8070   1.701   5.839   9.794  0.3444 -0.5622  0.1018
   85SAPS  H11R 8071   1.756   5.930   9.823 -1.7560  0.8662 -0.1042
   85SAPS  C212 8072   1.665   5.827   9.663 -0.4086  0.1218 -0.7258
   85SAPS  H12R 8073   1.691   5.900   9.585 -0.7229  0.3484 -0.6232
   85SAPS  C213 8074   1.588   5.710   9.610 -0.6012 -0.5358 -0.3880
   85SAPS  H13R 8075   1.576   5.631   9.687 -0.6235  1.4595  1.7974
   85SAPS  H13S 8076   1.662   5.683   9.532  1.2599 -0.6887  1.3405
   85SAPS  C214 8077   1.451   5.729   9.547 -0.4271 -0.7368 -0.2483
   85SAPS  H14R 8078   1.366   5.745   9.615 -0.2266  1.1988 -0.4039
   85SAPS  C215 8079   1.417   5.757   9.414  0.3163 -0.0358 -0.0258
   85SAPS  H15R 8080   1.311   5.744   9.386 -0.0215 -1.4371  1.7291
   85SAPS  C216 8081   1.514   5.772   9.297 -0.9099  0.5172 -0.8448
   85SAPS  H16R 8082   1.484   5.691   9.227  0.7530  0.0113 -1.0148
   85SAPS  H16S 8083   1.619   5.750   9.327 -0.0604  0.2810 -3.7394
   85SAPS  C217 8084   1.516   5.894   9.204  1.0171  0.2413 -0.1045
   85SAPS  H17R 8085   1.554   5.981   9.262  0.4955  0.1873  0.3344
   85SAPS  H17S 8086   1.415   5.916   9.162  2.3565  0.8654 -3.2749
   85SAPS  C218 8087   1.611   5.872   9.080  0.1191 -0.1512  0.7234
   85SAPS  H18R 8088   1.577   5.945   9.002  2.5536  0.3494  0.0461
   85SAPS  H18S 8089   1.600   5.771   9.035  0.9676 -1.0581  2.4783
   85SAPS  C219 8090   1.761   5.896   9.108  0.5816 -0.1110 -0.0974
   85SAPS  H19R 8091   1.793   5.813   9.174  0.2675 -0.3909 -0.2966
   85SAPS  H19S 8092   1.781   5.994   9.155 -0.6607  0.4690 -0.7368
   85SAPS  C220 8093   1.831   5.882   8.974 -0.5368 -0.1408 -0.3619
   85SAPS  H20R 8094   1.941   5.876   8.987 -0.5126 -0.8463 -0.8366
   85SAPS  H20S 8095   1.812   5.967   8.904  0.1382  2.3941  2.3305
   85SAPS  H20T 8096   1.806   5.789   8.918 -0.2474 -0.0183 -0.7058
   85SAPS   C33 8097   1.951   6.237  10.509 -0.7070  0.0616  0.5050
   85SAPS   H3X 8098   2.058   6.260  10.489 -0.5424 -0.3550  0.8901
   85SAPS   H3Y 8099   1.898   6.332  10.534 -1.1084 -0.0752  0.1917
   85SAPS   C34 8100   1.888   6.178  10.381  0.0573 -0.1684  0.4483
   85SAPS   H4X 8101   1.779   6.155  10.384 -0.8721  3.1668 -2.2442
   85SAPS   H4Y 8102   1.937   6.083  10.349  2.9991  1.1095  0.8766
   85SAPS   C35 8103   1.905   6.271  10.259 -0.1426 -0.3139 -1.0069
   85SAPS   H5X 8104   2.012   6.299  10.249 -0.1870  0.1089 -0.3653
   85SAPS   H5Y 8105   1.847   6.363  10.282  1.0435  0.6096 -1.6308
   85SAPS   C36 8106   1.857   6.204  10.132  0.0355 -0.0332 -0.1635
   85SAPS   H6X 8107   1.752   6.167  10.138  0.5073 -1.7327 -1.6633
   85SAPS   H6Y 8108   1.899   6.102  10.129 -0.8176 -0.3806 -0.7587
   85SAPS   C37 8109   1.891   6.285  10.006  0.5625 -0.4210 -0.8008
   85SAPS   H7X 8110   2.002   6.294   9.999  0.8162 -0.6081  1.8966
   85SAPS   H7Y 8111   1.857   6.391  10.003  0.5290 -0.3603  0.7894
   85SAPS   C38 8112   1.839   6.215   9.886  0.4449  0.1353 -0.2530
   85SAPS   H8X 8113   1.728   6.218   9.885  0.4350 -0.1393 -0.4477
   85SAPS   H8Y 8114   1.872   6.109   9.882 -0.2614 -0.1313  0.6893
   85SAPS   C39 8115   1.887   6.279   9.758 -0.7457 -0.3072 -0.3325
   85SAPS   H9X 8116   1.994   6.252   9.745 -0.1125  0.3955  2.6131
   85SAPS   H9Y 8117   1.877   6.390   9.767 -1.4118 -0.2697 -1.3528
   85SAPS  C310 8118   1.805   6.239   9.631  0.2810 -0.5715  0.0379
   85SAPS  H10X 8119   1.707   6.290   9.635  1.5101  1.9064  0.7728
   85SAPS  H10Y 8120   1.780   6.131   9.620  1.3821 -1.0389  1.7573
   85SAPS  C311 8121   1.863   6.299   9.502 -0.3976  0.1507 -0.8770
   85SAPS  H11X 8122   1.967   6.263   9.487  0.7585  1.7671  2.4257
   85SAPS  H11Y 8123   1.869   6.408   9.522  1.8425 -0.3108  1.3884
   85SAPS  C312 8124   1.782   6.273   9.379 -0.2237 -0.4071 -0.5058
   85SAPS  H12X 8125   1.674   6.272   9.405  0.0667 -2.2248  0.7679
   85SAPS  H12Y 8126   1.802   6.172   9.337  1.7384 -1.5096  2.6896
   85SAPS  C313 8127   1.806   6.382   9.274 -0.1148 -0.4341 -0.5843
   85SAPS  H13X 8128   1.914   6.380   9.247  0.0958  0.4105  0.1489
   85SAPS  H13Y 8129   1.783   6.485   9.309  3.7660  0.6558 -0.7398
   85SAPS  C314 8130   1.735   6.348   9.134  0.4154 -0.3733 -0.2952
   85SAPS  H14X 8131   1.629   6.377   9.146  0.9354  1.3280  0.4630
   85SAPS  H14Y 8132   1.736   6.237   9.123 -0.4471 -0.5583  1.3056
   85SAPS  C315 8133   1.808   6.406   9.012  0.4988  0.5829  0.3307
   85SAPS  H15X 8134   1.904   6.351   9.018 -1.1351 -2.5854 -0.1757
   85SAPS  H15Y 8135   1.825   6.515   9.023  0.5997  0.9206 -2.4514
   85SAPS  C316 8136   1.729   6.393   8.878 -0.1030 -0.4098 -0.5087
   85SAPS  H16X 8137   1.802   6.442   8.810  1.5307 -0.5966  1.0265
   85SAPS  H16Y 8138   1.645   6.466   8.876 -0.1200 -0.3786  0.7009
   85SAPS  C317 8139   1.701   6.252   8.835 -0.5160  0.4698  0.7615
   85SAPS  H17X 8140   1.637   6.195   8.906 -0.1753 -0.2145  0.5297
   85SAPS  H17Y 8141   1.798   6.198   8.819  0.2119  2.5860 -3.1779
   85SAPS  C318 8142   1.623   6.259   8.701 -0.3090 -0.1800 -0.3476
   85SAPS  H18X 8143   1.533   6.324   8.708 -2.4443 -2.8283 -1.2152
   85SAPS  H18Y 8144   1.592   6.157   8.668 -0.6786 -0.0767 -0.3209
   85SAPS  H18Z 8145   1.686   6.304   8.621 -1.5158 -0.3944 -1.4527
   86SAPS     N 8146   5.792   2.034  11.136 -0.0782 -0.0064  0.4088
   86SAPS   HN1 8147   5.786   2.138  11.131 -0.9221  0.0021  1.2862
   86SAPS   HN2 8148   5.875   2.010  11.193  0.0312  1.5999  0.9746
   86SAPS   HN3 8149   5.802   1.997  11.040 -4.2025  0.8127 -0.5483
   86SAPS   C12 8150   5.658   1.989  11.180  0.1710  0.3757 -0.1090
   86SAPS  H12A 8151   5.666   1.911  11.255 -0.6671  1.1062  0.7715
   86SAPS   C13 8152   5.570   2.100  11.254 -0.5469  0.2597  0.6273
   86SAPS  O13A 8153   5.614   2.218  11.248 -0.2231  0.2328 -0.0345
   86SAPS  O13B 8154   5.494   2.068  11.345  0.2098  0.0830  0.1342
   86SAPS   C11 8155   5.588   1.926  11.061 -0.5766 -0.0535  0.0959
   86SAPS  H11A 8156   5.557   1.994  10.979  0.1858  0.0791 -0.0887
   86SAPS  H11B 8157   5.485   1.906  11.098 -0.8313  0.0034 -0.5741
   86SAPS     P 8158   5.748   1.798  10.895  0.0272 -0.3320 -0.4071
   86SAPS   O13 8159   5.849   1.907  10.917  0.2664 -0.4308  0.7656
   86SAPS   O14 8160   5.794   1.663  10.880  0.3595  0.2660 -0.3087
   86SAPS   O12 8161   5.638   1.802  11.020 -0.1176 -0.0302  0.5143
   86SAPS   O11 8162   5.668   1.820  10.766  0.0232  0.4848  0.3274
   86SAPS    C1 8163   5.564   1.737  10.728  0.0394  0.3312  0.1138
   86SAPS    HA 8164   5.505   1.702  10.815 -0.1884  0.1214 -0.1227
   86SAPS    HB 8165   5.487   1.793  10.671 -0.5181 -0.8929 -0.3760
   86SAPS    C2 8166   5.596   1.609  10.635 -0.4922 -0.4751  0.3326
   86SAPS    HS 8167   5.687   1.568  10.682  0.6351  1.9736  0.4806
   86SAPS   O21 8168   5.632   1.657  10.507 -0.0578 -0.4243  0.4970
   86SAPS   C21 8169   5.709   1.573  10.435 -0.0451  0.5988 -0.5054
   86SAPS   O22 8170   5.752   1.468  10.481 -0.0925  0.2773  0.0191
   86SAPS   C22 8171   5.732   1.628  10.301 -0.2686  0.2216  0.0618
   86SAPS   H2R 8172   5.674   1.721  10.282 -0.8358 -0.4519 -1.7045
   86SAPS   H2S 8173   5.837   1.664  10.296 -0.2326  0.3066  1.1483
   86SAPS    C3 8174   5.481   1.512  10.634 -0.1681  0.3529  0.3938
   86SAPS    HX 8175   5.462   1.480  10.739 -0.3325 -1.1025 -0.0615
   86SAPS    HY 8176   5.523   1.423  10.583  2.2789 -0.3058  3.2707
   86SAPS   O31 8177   5.365   1.562  10.567  0.6932  0.3346  0.4430
   86SAPS   C31 8178   5.256   1.492  10.592 -0.0658 -1.4854 -0.0374
   86SAPS   O32 8179   5.253   1.386  10.652 -0.0009 -0.1770 -0.1681
   86SAPS   C32 8180   5.141   1.555  10.512 -0.4485 -0.3093 -0.1354
   86SAPS   H2X 8181   5.128   1.664  10.530 -1.4561 -0.5331  0.5770
   86SAPS   H2Y 8182   5.051   1.497  10.543  0.2703 -0.4535  1.8448
   86SAPS   C23 8183   5.691   1.528  10.193 -0.1876 -0.5405 -0.1483
   86SAPS   H3R 8184   5.761   1.441  10.200  2.2963  1.1958 -1.7432
   86SAPS   H3S 8185   5.719   1.565  10.092  2.6674 -4.2916 -0.9800
   86SAPS   C24 8186   5.547   1.480  10.193  0.1786 -0.7172  0.8109
   86SAPS   H4R 8187   5.525   1.441  10.294  0.9868 -3.0010  0.1608
   86SAPS   H4S 8188   5.522   1.401  10.119 -2.0976  0.2696  0.4574
   86SAPS   C25 8189   5.460   1.599  10.162 -0.5836 -0.1425  0.0636
   86SAPS   H5R 8190   5.444   1.666  10.248  1.1023 -0.4951  0.6878
   86SAPS   C26 8191   5.417   1.637  10.039  0.2432  0.0762 -0.4321
   86SAPS   H6R 8192   5.357   1.729  10.028 -0.3729 -0.1424  0.9030
   86SAPS   C27 8193   5.447   1.566   9.910  0.7181 -0.4020 -0.3401
   86SAPS   H7R 8194   5.350   1.543   9.859  0.0025 -0.3333  0.9452
   86SAPS   H7S 8195   5.494   1.465   9.919  0.4980 -0.3268  2.7695
   86SAPS   C28 8196   5.529   1.643   9.813 -0.5268 -0.3317  0.2789
   86SAPS   H8R 8197   5.637   1.623   9.821 -0.7353 -1.0845  1.4299
   86SAPS   C29 8198   5.496   1.736   9.721 -0.2657 -0.4525 -1.2093
   86SAPS   H9R 8199   5.569   1.789   9.658 -0.3097 -0.1429 -1.0036
   86SAPS  C210 8200   5.361   1.786   9.703 -0.1164 -0.2501 -0.1978
   86SAPS  H10R 8201   5.361   1.895   9.725 -1.6500 -0.3737  0.5174
   86SAPS  H10S 8202   5.296   1.752   9.786 -0.4232  1.2214  0.1965
   86SAPS  C211 8203   5.289   1.762   9.569  0.2843  0.1402 -1.1626
   86SAPS  H11R 8204   5.230   1.669   9.566  2.1892 -1.1789 -0.2614
   86SAPS  C212 8205   5.299   1.828   9.453  0.0192  0.5734  0.5582
   86SAPS  H12R 8206   5.236   1.801   9.367  0.3472  3.2686 -0.6092
   86SAPS  C213 8207   5.392   1.937   9.419 -0.2053  0.6605  0.7747
   86SAPS  H13R 8208   5.476   1.918   9.350 -1.8171  1.2242 -1.4439
   86SAPS  H13S 8209   5.462   1.947   9.504  1.8389 -1.5555 -0.5288
   86SAPS  C214 8210   5.333   2.074   9.394 -0.3798  1.1066  0.2630
   86SAPS  H14R 8211   5.305   2.134   9.482  0.6727  0.5972  0.9629
   86SAPS  C215 8212   5.297   2.120   9.274 -0.0631  0.2169  0.0656
   86SAPS  H15R 8213   5.254   2.220   9.255 -0.7702  0.1819  1.3768
   86SAPS  C216 8214   5.301   2.053   9.144 -0.7733  0.2021 -0.2680
   86SAPS  H16R 8215   5.211   2.063   9.080 -2.8859 -1.5499  2.2010
   86SAPS  H16S 8216   5.322   1.944   9.148  1.0569  0.5100 -0.6116
   86SAPS  C217 8217   5.423   2.126   9.072 -0.1360 -0.4251  0.2727
   86SAPS  H17R 8218   5.457   2.048   8.999  0.2823 -1.0295  1.0994
   86SAPS  H17S 8219   5.504   2.145   9.146 -0.1459 -1.2151  0.4927
   86SAPS  C218 8220   5.388   2.248   8.990 -0.3458  0.5800  0.3932
   86SAPS  H18R 8221   5.481   2.294   8.950  0.0789 -1.0112 -0.5265
   86SAPS  H18S 8222   5.351   2.326   9.060 -0.8592  1.0267 -0.3572
   86SAPS  C219 8223   5.296   2.205   8.869 -0.3305 -0.7593  0.2394
   86SAPS  H19R 8224   5.205   2.148   8.900 -1.3939  0.0426 -1.2536
   86SAPS  H19S 8225   5.353   2.132   8.808  0.7835  1.0233 -0.9420
   86SAPS  C220 8226   5.264   2.324   8.785 -0.2540 -0.0249  0.0762
   86SAPS  H20R 8227   5.356   2.369   8.743  0.3363 -1.8336 -0.6846
   86SAPS  H20S 8228   5.202   2.399   8.839 -0.9620 -1.1086  0.8077
   86SAPS  H20T 8229   5.203   2.296   8.696 -0.0750 -0.0658 -0.0352
   86SAPS   C33 8230   5.167   1.527  10.361 -0.4423 -0.2880  0.7045
   86SAPS   H3X 8231   5.257   1.586  10.334 -0.8699 -0.5842 -1.6030
   86SAPS   H3Y 8232   5.084   1.580  10.308  2.1576  1.9466 -1.4190
   86SAPS   C34 8233   5.177   1.376  10.326  0.6412  0.7380 -0.3359
   86SAPS   H4X 8234   5.089   1.331  10.376  1.5705  0.8273  1.4637
   86SAPS   H4Y 8235   5.266   1.340  10.382  1.2371  0.8791 -1.1708
   86SAPS   C35 8236   5.193   1.335  10.178 -0.6125 -0.7629 -0.2654
   86SAPS   H5X 8237   5.239   1.235  10.173 -0.9169 -0.8653 -3.3240
   86SAPS   H5Y 8238   5.273   1.399  10.133 -0.9067  0.7213  1.2178
   86SAPS   C36 8239   5.065   1.337  10.105 -0.0078  0.0987 -0.7861
   86SAPS   H6X 8240   4.993   1.398  10.164  1.6200 -0.5058  1.9663
   86SAPS   H6Y 8241   5.019   1.236  10.111  0.1095 -0.0196 -1.6936
   86SAPS   C37 8242   5.080   1.370   9.953 -0.1289  0.6153  0.0555
   86SAPS   H7X 8243   5.121   1.473   9.946 -1.2338  1.0825  0.2665
   86SAPS   H7Y 8244   4.978   1.386   9.911 -0.9672  1.0831  2.1543
   86SAPS   C38 8245   5.186   1.284   9.879  0.6124  0.0814 -0.0825
   86SAPS   H8X 8246   5.164   1.175   9.887  0.2159  0.0904 -0.9124
   86SAPS   H8Y 8247   5.284   1.289   9.931 -0.0296 -0.0429  1.1769
   86SAPS   C39 8248   5.195   1.307   9.729 -0.1064  0.1521 -0.4106
   86SAPS   H9X 8249   5.270   1.234   9.692  0.2988  1.9171 -3.4338
   86SAPS   H9Y 8250   5.246   1.404   9.713 -1.2882  0.8230 -0.2791
   86SAPS  C310 8251   5.062   1.307   9.648  1.0177  0.2626  0.6291
   86SAPS  H10X 8252   4.999   1.385   9.697  2.3891  0.6996  1.7562
   86SAPS  H10Y 8253   5.022   1.205   9.669  0.8591  0.6519  2.3433
   86SAPS  C311 8254   5.068   1.322   9.496 -0.4669 -0.2919  0.3100
   86SAPS  H11X 8255   5.139   1.248   9.453  0.9667  0.2074  1.7260
   86SAPS  H11Y 8256   5.126   1.415   9.482  0.3215 -1.0040 -1.3790
   86SAPS  C312 8257   4.935   1.345   9.431  0.1213  0.0907  0.1606
   86SAPS  H12X 8258   4.891   1.444   9.454 -0.8046 -0.3250  0.2433
   86SAPS  H12Y 8259   4.864   1.271   9.476  1.4078 -0.5230  1.2480
   86SAPS  C313 8260   4.953   1.338   9.275 -0.2317 -0.2395  0.8845
   86SAPS  H13X 8261   4.863   1.282   9.241 -0.2249 -1.0195  2.0926
   86SAPS  H13Y 8262   5.038   1.269   9.253  0.7105  0.6776  1.5700
   86SAPS  C314 8263   4.988   1.468   9.203  0.6284 -0.9250  0.3330
   86SAPS  H14X 8264   5.093   1.491   9.231  0.6021 -1.8646  1.2713
   86SAPS  H14Y 8265   4.919   1.548   9.239 -0.1691 -2.6321  2.8544
   86SAPS  C315 8266   4.972   1.467   9.053  0.0212  0.7745  0.4639
   86SAPS  H15X 8267   5.011   1.367   9.024 -0.7665 -0.8973  4.4791
   86SAPS  H15Y 8268   5.032   1.551   9.013 -0.7676  0.7901 -0.7415
   86SAPS  C316 8269   4.825   1.471   9.000 -0.3015 -0.0958 -0.1897
   86SAPS  H16X 8270   4.775   1.561   9.042 -2.0271 -0.7242 -0.8169
   86SAPS  H16Y 8271   4.769   1.376   9.011 -0.7502 -0.2897 -3.2485
   86SAPS  C317 8272   4.822   1.485   8.846  0.1456 -0.1655 -0.5879
   86SAPS  H17X 8273   4.904   1.556   8.821 -0.3208 -0.0094 -1.7065
   86SAPS  H17Y 8274   4.729   1.538   8.819  0.2157 -0.8925 -2.3502
   86SAPS  C318 8275   4.841   1.366   8.755 -0.3716 -0.3626 -0.6368
   86SAPS  H18X 8276   4.766   1.290   8.786 -0.0345 -0.4469 -0.0038
   86SAPS  H18Y 8277   4.944   1.323   8.762 -0.4414 -0.2747  1.6216
   86SAPS  H18Z 8278   4.819   1.393   8.649  1.7511  2.8169 -0.3974
   87SAPS     N 8279   5.909   0.972  11.371  0.0358 -0.1730 -0.3684
   87SAPS   HN1 8280   5.937   0.946  11.274 -1.0757  1.4711 -1.1780
   87SAPS   HN2 8281   5.908   1.074  11.388 -1.8466 -0.6288  3.4424
   87SAPS   HN3 8282   5.980   0.931  11.435 -0.6808 -2.1816 -0.7786
   87SAPS   C12 8283   5.773   0.911  11.381 -0.9184 -0.1454  0.0654
   87SAPS  H12A 8284   5.788   0.810  11.417  0.8907  1.2136  3.6426
   87SAPS   C13 8285   5.682   0.966  11.495 -0.4023 -0.2436  0.1721
   87SAPS  O13A 8286   5.716   1.066  11.566  0.2954 -0.4731  0.1676
   87SAPS  O13B 8287   5.589   0.888  11.531 -0.1370  0.7625 -0.2017
   87SAPS   C11 8288   5.689   0.925  11.256 -0.1591 -0.5873  0.7181
   87SAPS  H11A 8289   5.588   0.882  11.272 -0.0809 -0.1069  2.7065
   87SAPS  H11B 8290   5.741   0.871  11.174  1.6890  0.5384  1.1114
   87SAPS     P 8291   5.551   1.110  11.129 -0.2072 -0.0494 -0.1252
   87SAPS   O13 8292   5.436   1.056  11.203 -0.3808  0.3053  0.3921
   87SAPS   O14 8293   5.564   1.255  11.119 -0.3619  0.2918  0.3975
   87SAPS   O12 8294   5.682   1.061  11.209 -0.1292  0.1840 -0.5039
   87SAPS   O11 8295   5.577   1.046  10.985  0.7731 -0.2163 -0.2725
   87SAPS    C1 8296   5.707   1.009  10.938 -0.2392  0.2477 -0.2147
   87SAPS    HA 8297   5.786   1.034  11.012  0.1240 -3.1626  0.7276
   87SAPS    HB 8298   5.723   0.900  10.920 -0.1709 -0.3074  2.6230
   87SAPS    C2 8299   5.757   1.063  10.798 -0.8315 -0.0457  0.7503
   87SAPS    HS 8300   5.762   1.172  10.815  2.3601 -0.4356  3.2815
   87SAPS   O21 8301   5.661   1.011  10.699  0.3367 -0.1025  0.0559
   87SAPS   C21 8302   5.552   1.089  10.678 -0.0981 -0.7798 -0.1009
   87SAPS   O22 8303   5.543   1.206  10.703  0.3465 -0.0421  0.3752
   87SAPS   C22 8304   5.450   1.011  10.592  0.5777  0.1000 -0.1876
   87SAPS   H2R 8305   5.490   0.913  10.558 -1.0648 -0.4178 -0.7463
   87SAPS   H2S 8306   5.373   0.977  10.664 -1.7077  1.6686 -1.7201
   87SAPS    C3 8307   5.897   1.021  10.750 -0.8964 -0.0727  0.0577
   87SAPS    HX 8308   5.893   0.911  10.740  0.7956 -0.3743  2.0532
   87SAPS    HY 8309   5.975   1.045  10.826 -0.3459  0.2268 -0.5899
   87SAPS   O31 8310   5.932   1.072  10.617  0.7296 -0.2671 -0.5106
   87SAPS   C31 8311   5.973   1.191  10.605 -0.3188  0.4075  0.2983
   87SAPS   O32 8312   5.988   1.279  10.687 -0.4229 -0.1571 -0.4230
   87SAPS   C32 8313   6.011   1.201  10.456  0.3022 -0.1994 -0.2370
   87SAPS   H2X 8314   6.099   1.136  10.438 -0.1292 -0.6582 -0.7548
   87SAPS   H2Y 8315   6.044   1.305  10.437  0.3161 -0.5008 -2.0034
   87SAPS   C23 8316   5.402   1.095  10.467  0.3429 -0.2893 -0.6405
   87SAPS   H3R 8317   5.366   1.195  10.502  2.6181  1.1405 -2.0690
   87SAPS   H3S 8318   5.323   1.039  10.413  0.1608 -1.8463  1.1715
   87SAPS   C24 8319   5.521   1.120  10.368 -0.1118 -0.0989 -0.2433
   87SAPS   H4R 8320   5.602   1.162  10.432  0.6638  2.0688 -2.4952
   87SAPS   H4S 8321   5.485   1.199  10.299  1.1707  2.7883  2.1386
   87SAPS   C25 8322   5.563   0.988  10.307  0.4246  0.6550 -0.2860
   87SAPS   H5R 8323   5.623   0.929  10.378 -0.8387  1.8452  1.8638
   87SAPS   C26 8324   5.537   0.943  10.185  0.1156 -0.5869 -0.0232
   87SAPS   H6R 8325   5.578   0.843  10.164  0.0800 -0.6146  0.0418
   87SAPS   C27 8326   5.453   1.007  10.070 -0.3259  0.1775  1.2021
   87SAPS   H7R 8327   5.490   0.960   9.976 -2.1472  0.2800  0.3976
   87SAPS   H7S 8328   5.466   1.117  10.059 -0.0498  0.1194  0.9114
   87SAPS   C28 8329   5.307   0.976  10.090  0.0893 -0.4942 -0.1372
   87SAPS   H8R 8330   5.264   0.982  10.191 -1.4824 -0.9875 -0.7462
   87SAPS   C29 8331   5.221   0.924   9.999 -0.0427  0.6496  0.1272
   87SAPS   H9R 8332   5.119   0.894  10.028  0.4354 -0.1183  1.0588
   87SAPS  C210 8333   5.259   0.895   9.852 -0.5707 -0.0893 -0.3119
   87SAPS  H10R 8334   5.276   0.785   9.857 -0.1019  0.0218  0.8640
   87SAPS  H10S 8335   5.360   0.933   9.828  0.0350 -2.5087 -1.8425
   87SAPS  C211 8336   5.158   0.932   9.750 -0.7248  0.1955  0.9942
   87SAPS  H11R 8337   5.078   1.001   9.779 -1.3936 -0.5266  0.8775
   87SAPS  C212 8338   5.166   0.909   9.616  0.4403 -0.6627  0.2824
   87SAPS  H12R 8339   5.077   0.938   9.558  1.6821  1.3356 -0.7511
   87SAPS  C213 8340   5.273   0.831   9.551 -0.1046 -0.2761  0.5477
   87SAPS  H13R 8341   5.243   0.726   9.527  1.2012 -0.7691  0.9921
   87SAPS  H13S 8342   5.354   0.809   9.623 -0.2109 -1.1996  0.4076
   87SAPS  C214 8343   5.309   0.914   9.426 -0.6397 -0.3138  0.4915
   87SAPS  H14R 8344   5.375   0.998   9.450  1.5580 -1.9966  0.7115
   87SAPS  C215 8345   5.279   0.883   9.300 -0.5883 -0.5046 -0.2677
   87SAPS  H15R 8346   5.324   0.949   9.223  1.8058 -0.5349  0.9912
   87SAPS  C216 8347   5.205   0.766   9.238 -0.6305  0.7513  0.0367
   87SAPS  H16R 8348   5.183   0.679   9.304  0.1228  1.4404  1.2512
   87SAPS  H16S 8349   5.277   0.711   9.174 -1.0643  0.4967 -0.2351
   87SAPS  C217 8350   5.082   0.808   9.157 -0.2758  0.0924  0.0268
   87SAPS  H17R 8351   5.035   0.710   9.136  0.8383 -0.3700 -0.3801
   87SAPS  H17S 8352   5.123   0.851   9.063 -2.0225 -1.3253 -1.4459
   87SAPS  C218 8353   4.986   0.906   9.228 -0.5055  0.6504  0.4094
   87SAPS  H18R 8354   5.022   1.009   9.208  0.9271  0.0947 -0.0276
   87SAPS  H18S 8355   5.001   0.902   9.338 -3.4660  1.5732  0.9120
   87SAPS  C219 8356   4.834   0.893   9.201  0.1607  0.4675  0.0678
   87SAPS  H19R 8357   4.786   0.820   9.269  3.0152 -2.2021 -0.5520
   87SAPS  H19S 8358   4.827   0.846   9.100  1.5106  1.1018 -0.3427
   87SAPS  C220 8359   4.755   1.020   9.197 -0.2173  0.2969 -0.1006
   87SAPS  H20R 8360   4.786   1.085   9.282  0.1356  1.5366 -1.1488
   87SAPS  H20S 8361   4.647   0.994   9.209 -0.1516  0.4735  1.0942
   87SAPS  H20T 8362   4.777   1.081   9.107 -0.9462  0.2122 -0.3441
   87SAPS   C33 8363   5.891   1.177  10.361 -0.3764  0.5634 -0.4579
   87SAPS   H3X 8364   5.818   1.258  10.380  0.0590  0.4766  1.7630
   87SAPS   H3Y 8365   5.852   1.076  10.384  0.1231  0.6975  1.0456
   87SAPS   C34 8366   5.933   1.169  10.213  1.1387  0.6265 -0.1925
   87SAPS   H4X 8367   6.002   1.083  10.199  0.0995 -0.0782 -1.0684
   87SAPS   H4Y 8368   5.984   1.267  10.200  1.6126  0.7619  2.2036
   87SAPS   C35 8369   5.807   1.164  10.128 -0.1070 -0.1631  0.4142
   87SAPS   H5X 8370   5.725   1.217  10.181 -0.6963 -1.4600  0.8425
   87SAPS   H5Y 8371   5.771   1.061  10.102  0.4468 -0.4980  0.9609
   87SAPS   C36 8372   5.834   1.246   9.999 -0.3738 -0.2787 -0.5978
   87SAPS   H6X 8373   5.932   1.212   9.959  1.3524  1.1877  2.0905
   87SAPS   H6Y 8374   5.849   1.352  10.027  0.5061 -0.3264 -0.8591
   87SAPS   C37 8375   5.713   1.234   9.911  0.2945 -0.5017  0.1083
   87SAPS   H7X 8376   5.617   1.257   9.962  0.4757  1.8819 -0.5218
   87SAPS   H7Y 8377   5.692   1.131   9.876 -1.5655  0.2866 -1.2313
   87SAPS   C38 8378   5.724   1.321   9.774 -0.2903 -0.1756 -0.4622
   87SAPS   H8X 8379   5.806   1.283   9.710 -0.4546  0.3422 -0.9848
   87SAPS   H8Y 8380   5.734   1.429   9.798 -0.4066  0.2958 -2.3896
   87SAPS   C39 8381   5.597   1.303   9.683 -0.0894 -0.0287  0.4073
   87SAPS   H9X 8382   5.506   1.331   9.740 -1.8133 -1.6588 -1.3680
   87SAPS   H9Y 8383   5.576   1.197   9.658  1.8112 -0.5205  0.7910
   87SAPS  C310 8384   5.612   1.394   9.565 -0.1462 -0.3633 -0.2909
   87SAPS  H10X 8385   5.693   1.355   9.499 -0.4412  1.2506 -1.6935
   87SAPS  H10Y 8386   5.651   1.495   9.592 -0.1056  0.0175 -1.6887
   87SAPS  C311 8387   5.483   1.407   9.485  0.2452 -0.0700 -0.2593
   87SAPS  H11X 8388   5.399   1.452   9.543 -1.4355 -2.6127 -0.5548
   87SAPS  H11Y 8389   5.447   1.308   9.450 -0.5656  0.5190 -1.1634
   87SAPS  C312 8390   5.502   1.482   9.354 -0.5578 -0.0354  0.2092
   87SAPS  H12X 8391   5.591   1.451   9.294 -1.2123 -1.0380 -0.2710
   87SAPS  H12Y 8392   5.533   1.578   9.400 -0.2752 -1.2253  2.6847
   87SAPS  C313 8393   5.380   1.513   9.275 -0.6815  0.1410  0.2795
   87SAPS  H13X 8394   5.302   1.553   9.343 -0.6920 -2.0204  1.6127
   87SAPS  H13Y 8395   5.342   1.419   9.230 -0.9866  0.8842 -1.0767
   87SAPS  C314 8396   5.413   1.603   9.153 -0.3050 -0.6170 -1.6380
   87SAPS  H14X 8397   5.474   1.689   9.187  2.6340 -3.2512  0.2885
   87SAPS  H14Y 8398   5.318   1.649   9.116 -0.8914  0.8264  1.3519
   87SAPS  C315 8399   5.477   1.542   9.032 -1.2805 -0.0828 -0.6980
   87SAPS  H15X 8400   5.433   1.444   9.005  2.6553 -2.2445  0.0455
   87SAPS  H15Y 8401   5.586   1.523   9.037 -1.4433 -0.8428  0.3348
   87SAPS  C316 8402   5.460   1.638   8.913 -0.0463  0.6662  0.3092
   87SAPS  H16X 8403   5.505   1.737   8.936  1.7033 -0.1065  0.3687
   87SAPS  H16Y 8404   5.350   1.650   8.902 -0.4102 -0.4201  2.3466
   87SAPS  C317 8405   5.527   1.593   8.779 -0.1127 -0.1416  0.4376
   87SAPS  H17X 8406   5.467   1.512   8.732 -0.1999 -0.3095  0.8309
   87SAPS  H17Y 8407   5.621   1.551   8.820 -0.3169 -0.6163  0.4217
   87SAPS  C318 8408   5.561   1.706   8.681  0.4615  0.5442 -1.1887
   87SAPS  H18X 8409   5.463   1.757   8.667 -0.5384 -0.8614  0.2594
   87SAPS  H18Y 8410   5.600   1.667   8.584 -0.8224 -0.9664 -1.1319
   87SAPS  H18Z 8411   5.634   1.775   8.729  1.0541 -0.9518  0.1396
   88SAPS     N 8412   1.082   5.615  11.383 -0.3763 -0.0578  0.3106
   88SAPS   HN1 8413   1.167   5.597  11.440 -0.8728  1.3164  1.5562
   88SAPS   HN2 8414   1.097   5.700  11.326  0.4995 -1.1017 -1.0740
   88SAPS   HN3 8415   1.007   5.650  11.447 -0.7675  1.4815 -0.9235
   88SAPS   C12 8416   1.026   5.499  11.313 -0.3274  0.2648 -0.3108
   88SAPS  H12A 8417   1.018   5.417  11.383 -1.4043 -0.5533 -1.3391
   88SAPS   C13 8418   0.871   5.512  11.266 -0.3847 -0.0761  0.1058
   88SAPS  O13A 8419   0.811   5.623  11.289 -0.2866 -0.0095 -0.5775
   88SAPS  O13B 8420   0.820   5.400  11.249 -0.6879  0.2634  0.1342
   88SAPS   C11 8421   1.126   5.471  11.195 -0.7871 -0.3282  0.4281
   88SAPS  H11A 8422   1.088   5.382  11.142 -2.3830  0.5438  0.0531
   88SAPS  H11B 8423   1.231   5.456  11.228 -0.1319 -1.1067 -1.8592
   88SAPS     P 8424   1.238   5.651  11.048 -0.0375 -0.1235  0.3729
   88SAPS   O13 8425   1.198   5.781  10.990 -0.1997  0.2953 -0.4221
   88SAPS   O14 8426   1.353   5.645  11.140  0.3400 -0.5283 -0.2019
   88SAPS   O12 8427   1.112   5.584  11.109  0.0324 -0.1604  0.0999
   88SAPS   O11 8428   1.256   5.555  10.930 -0.1298  0.1842 -0.5049
   88SAPS    C1 8429   1.157   5.487  10.850 -0.2437  0.3565  0.2618
   88SAPS    HA 8430   1.184   5.379  10.850 -0.4867  0.2798 -0.8262
   88SAPS    HB 8431   1.057   5.500  10.896 -0.5665  2.6000 -0.9420
   88SAPS    C2 8432   1.163   5.548  10.706 -0.1011 -0.2671  0.0635
   88SAPS    HS 8433   1.126   5.651  10.726  1.9286  0.2464  1.5174
   88SAPS   O21 8434   1.090   5.460  10.619  0.2503 -0.2239  0.2802
   88SAPS   C21 8435   0.964   5.484  10.601 -0.1437  0.2128 -0.6488
   88SAPS   O22 8436   0.903   5.572  10.659  0.2329  0.3947 -0.1009
   88SAPS   C22 8437   0.911   5.381  10.505 -0.7280  0.4716 -0.3954
   88SAPS   H2R 8438   0.938   5.280  10.542 -3.4373 -0.5163 -0.9439
   88SAPS   H2S 8439   0.801   5.378  10.520 -0.9616 -2.3857 -1.9653
   88SAPS    C3 8440   1.311   5.568  10.664  0.0452  0.6105  0.1707
   88SAPS    HX 8441   1.359   5.469  10.683  0.8933  1.4563  2.8201
   88SAPS    HY 8442   1.352   5.638  10.739  0.6925 -0.5480  0.9317
   88SAPS   O31 8443   1.313   5.621  10.525 -0.1417  0.3568  0.4017
   88SAPS   C31 8444   1.357   5.536  10.433 -0.6333 -0.3097  0.0211
   88SAPS   O32 8445   1.412   5.430  10.462 -0.2722  0.2718 -0.0947
   88SAPS   C32 8446   1.327   5.590  10.293  0.4068 -0.4328  0.3180
   88SAPS   H2X 8447   1.389   5.683  10.295 -0.0457  0.0399 -2.7106
   88SAPS   H2Y 8448   1.219   5.610  10.279 -0.3240 -1.6888  3.4166
   88SAPS   C23 8449   0.963   5.398  10.363 -0.3707 -0.4133  0.4393
   88SAPS   H3R 8450   1.071   5.423  10.350  0.0335 -2.0480  0.4824
   88SAPS   H3S 8451   0.919   5.496  10.333  1.5285  0.5858  0.7111
   88SAPS   C24 8452   0.912   5.293  10.262 -0.3192 -0.4262  0.0684
   88SAPS   H4R 8453   0.945   5.316  10.159  1.6131  2.1319  1.1457
   88SAPS   H4S 8454   0.802   5.283  10.274 -0.2446 -1.5347 -0.0102
   88SAPS   C25 8455   0.985   5.166  10.299 -0.8723  0.5446  0.0796
   88SAPS   H5R 8456   0.940   5.117  10.387  0.1635 -0.6560 -0.0174
   88SAPS   C26 8457   1.099   5.103  10.253  0.0726 -0.4337  0.3822
   88SAPS   H6R 8458   1.136   5.020  10.315  1.0724  0.0791  0.5027
   88SAPS   C27 8459   1.184   5.154  10.137 -0.2742  0.0302 -0.6746
   88SAPS   H7R 8460   1.215   5.252  10.182 -1.6783 -0.4675  1.5355
   88SAPS   H7S 8461   1.145   5.186  10.038  0.4653  0.2975 -0.8886
   88SAPS   C28 8462   1.297   5.054  10.130 -0.5151 -0.1084  0.1741
   88SAPS   H8R 8463   1.343   5.036  10.228 -1.9053  2.3901  1.3850
   88SAPS   C29 8464   1.352   4.997  10.014  0.1272  0.3030  0.2858
   88SAPS   H9R 8465   1.426   4.917  10.029  2.0140  1.8667 -0.1665
   88SAPS  C210 8466   1.291   5.012   9.876 -0.1244  0.2775 -0.3645
   88SAPS  H10R 8467   1.361   4.997   9.792  0.5790  0.3819  0.1960
   88SAPS  H10S 8468   1.260   5.118   9.862 -1.8184  0.0233  1.0984
   88SAPS  C211 8469   1.166   4.930   9.858  0.1785 -1.0460  0.2791
   88SAPS  H11R 8470   1.114   4.899   9.950  0.9792  0.3140  1.2276
   88SAPS  C212 8471   1.110   4.907   9.738 -0.0535  0.3748  1.1150
   88SAPS  H12R 8472   1.005   4.872   9.738 -0.1308  0.5719  2.2538
   88SAPS  C213 8473   1.159   4.957   9.602 -0.8188 -0.0963  0.7944
   88SAPS  H13R 8474   1.184   5.065   9.604 -3.1919  0.5000  2.2644
   88SAPS  H13S 8475   1.075   4.965   9.529  1.4378  3.3191 -1.7534
   88SAPS  C214 8476   1.266   4.876   9.536  0.0873 -0.9816  0.3755
   88SAPS  H14R 8477   1.353   4.862   9.602  0.2941  1.2717  0.6713
   88SAPS  C215 8478   1.266   4.828   9.409 -0.2803  0.2992 -0.2015
   88SAPS  H15R 8479   1.353   4.764   9.385 -1.3354 -1.7479  1.1103
   88SAPS  C216 8480   1.143   4.850   9.312 -0.0149 -0.6547 -0.8761
   88SAPS  H16R 8481   1.123   4.959   9.312  1.2227 -0.4046 -0.6612
   88SAPS  H16S 8482   1.059   4.794   9.358  0.5330 -1.2751 -0.6089
   88SAPS  C217 8483   1.166   4.816   9.165  0.2966 -0.2361 -0.7989
   88SAPS  H17R 8484   1.211   4.717   9.142 -0.7357 -1.3188  1.4857
   88SAPS  H17S 8485   1.242   4.886   9.124  1.4399 -0.1445  1.3347
   88SAPS  C218 8486   1.040   4.826   9.092  0.2186 -0.4699  0.5525
   88SAPS  H18R 8487   1.000   4.924   9.123  1.2465 -0.5891  2.3975
   88SAPS  H18S 8488   0.978   4.740   9.128 -0.3865 -1.5924 -2.7265
   88SAPS  C219 8489   1.066   4.831   8.938  0.0583 -0.4997  0.5311
   88SAPS  H19R 8490   1.166   4.874   8.915 -0.2407 -1.0466 -2.1048
   88SAPS  H19S 8491   0.989   4.886   8.882  0.6542 -3.0974 -3.2606
   88SAPS  C220 8492   1.062   4.687   8.868  0.1798 -0.2201 -0.1590
   88SAPS  H20R 8493   0.954   4.664   8.857  0.0636  0.2206  0.0271
   88SAPS  H20S 8494   1.115   4.612   8.930  0.7519 -2.5222 -3.2092
   88SAPS  H20T 8495   1.104   4.703   8.766 -2.1745  0.0507 -1.1444
   88SAPS   C33 8496   1.387   5.498  10.182  0.2570 -0.1608  0.4146
   88SAPS   H3X 8497   1.404   5.396  10.223  2.7752  0.2243  0.4939
   88SAPS   H3Y 8498   1.485   5.545  10.159  1.2503 -1.4329  1.8498
   88SAPS   C34 8499   1.314   5.481  10.041  0.1104  0.3954  0.0806
   88SAPS   H4X 8500   1.232   5.406  10.048 -0.9215  1.2079 -2.2851
   88SAPS   H4Y 8501   1.394   5.448   9.972  1.2166  0.3928  1.3403
   88SAPS   C35 8502   1.244   5.606   9.981 -0.0373  0.0957  0.2681
   88SAPS   H5X 8503   1.314   5.692   9.995  0.3741  0.0428 -1.3045
   88SAPS   H5Y 8504   1.146   5.625  10.029 -0.3661 -0.9981  0.0528
   88SAPS   C36 8505   1.218   5.576   9.834 -0.5577  0.3649  0.9188
   88SAPS   H6X 8506   1.308   5.544   9.778 -2.2437 -2.2376 -0.5499
   88SAPS   H6Y 8507   1.190   5.666   9.775  0.1489  2.2961  3.4039
   88SAPS   C37 8508   1.118   5.466   9.812  0.2704  0.1156 -0.3717
   88SAPS   H7X 8509   1.031   5.513   9.862  0.3190  1.2222 -1.2872
   88SAPS   H7Y 8510   1.150   5.371   9.860  0.8153 -0.0168 -0.9944
   88SAPS   C38 8511   1.075   5.454   9.666  0.5276 -0.0445  0.1303
   88SAPS   H8X 8512   1.166   5.442   9.604 -0.0825 -2.2798 -0.4294
   88SAPS   H8Y 8513   1.011   5.541   9.641 -0.5657  0.0423  2.8960
   88SAPS   C39 8514   0.984   5.327   9.634 -1.4846 -0.4116  0.6135
   88SAPS   H9X 8515   0.905   5.316   9.713 -1.8904  1.8444  0.5834
   88SAPS   H9Y 8516   1.047   5.237   9.651 -1.3197 -1.0137 -2.6457
   88SAPS  C310 8517   0.922   5.320   9.495  0.6160  0.1013 -0.0197
   88SAPS  H10X 8518   0.854   5.407   9.481  0.4650  0.3153  1.8143
   88SAPS  H10Y 8519   0.855   5.232   9.489 -2.0851  1.7967  2.6127
   88SAPS  C311 8520   1.028   5.307   9.385  0.9461 -0.7018 -0.3272
   88SAPS  H11X 8521   1.075   5.207   9.396 -0.7119 -1.6180 -1.1822
   88SAPS  H11Y 8522   1.110   5.381   9.396  0.9133 -0.7415  0.2098
   88SAPS  C312 8523   0.966   5.334   9.249  0.2947 -0.0034  0.2952
   88SAPS  H12X 8524   1.053   5.335   9.179  0.3859  0.7872  0.4175
   88SAPS  H12Y 8525   0.922   5.435   9.234  0.1737  0.0448  0.9539
   88SAPS  C313 8526   0.870   5.220   9.207 -0.6186  0.5225 -0.3150
   88SAPS  H13X 8527   0.793   5.221   9.287  0.6281  0.5618  0.9401
   88SAPS  H13Y 8528   0.915   5.119   9.216 -1.7461 -0.1011 -1.4883
   88SAPS  C314 8529   0.797   5.239   9.065  0.6982 -0.3718 -0.0739
   88SAPS  H14X 8530   0.774   5.348   9.059  1.5362  0.0119  2.4169
   88SAPS  H14Y 8531   0.713   5.167   9.061 -0.1628  0.5877  0.4121
   88SAPS  C315 8532   0.874   5.204   8.937 -0.0215 -0.2928 -0.5037
   88SAPS  H15X 8533   0.941   5.116   8.947  0.0700  0.0019  2.1221
   88SAPS  H15Y 8534   0.950   5.283   8.920  0.2674 -0.3796  0.3732
   88SAPS  C316 8535   0.794   5.198   8.802  0.2475 -0.1291 -0.2017
   88SAPS  H16X 8536   0.787   5.306   8.774  1.4105 -0.2300 -0.9334
   88SAPS  H16Y 8537   0.694   5.152   8.818  0.4001 -0.1488  0.7449
   88SAPS  C317 8538   0.867   5.122   8.700 -0.2619  0.6590  0.3664
   88SAPS  H17X 8539   0.887   5.017   8.729 -0.8388  0.0289 -1.3272
   88SAPS  H17Y 8540   0.964   5.173   8.683 -0.1725 -0.0833 -1.6650
   88SAPS  C318 8541   0.789   5.122   8.568  0.2989  0.5013  1.0175
   88SAPS  H18X 8542   0.747   5.219   8.534 -2.4724 -1.5542 -2.1927
   88SAPS  H18Y 8543   0.704   5.050   8.574 -1.2172  2.1190 -0.1198
   88SAPS  H18Z 8544   0.853   5.083   8.485 -2.3941 -4.2770  0.7831
   89SAPS     N 8545   2.786   2.584  11.284  0.4906 -0.3285  0.4108
   89SAPS   HN1 8546   2.886   2.561  11.299  0.9827  1.8264  0.8419
   89SAPS   HN2 8547   2.773   2.686  11.300  1.2646 -0.0829 -0.4565
   89SAPS   HN3 8548   2.739   2.538  11.364  0.5040  0.5286  0.9309
   89SAPS   C12 8549   2.716   2.528  11.158 -1.0395  0.3008  0.2746
   89SAPS  H12A 8550   2.739   2.422  11.155  0.6168  0.6713 -1.9039
   89SAPS   C13 8551   2.565   2.534  11.158  0.0490 -0.0388 -0.3342
   89SAPS  O13A 8552   2.503   2.597  11.252 -0.4349 -0.4232 -0.6757
   89SAPS  O13B 8553   2.507   2.493  11.055  0.1852 -0.6432  0.2303
   89SAPS   C11 8554   2.781   2.602  11.041  0.1626  0.3985 -0.0178
   89SAPS  H11A 8555   2.743   2.707  11.036  2.4162  1.2329 -1.0851
   89SAPS  H11B 8556   2.755   2.544  10.950  1.5013  1.2555 -0.9957
   89SAPS     P 8557   3.006   2.705  10.947  0.1049 -0.1902 -0.2981
   89SAPS   O13 8558   2.958   2.843  10.975  0.8108  0.3268 -0.4111
   89SAPS   O14 8559   3.150   2.678  10.965  0.0619  0.1189 -0.6313
   89SAPS   O12 8560   2.927   2.606  11.047  0.2343  0.0196 -0.2206
   89SAPS   O11 8561   2.952   2.661  10.804  0.3468 -0.0925 -0.0449
   89SAPS    C1 8562   3.024   2.713  10.700 -0.7188  0.3019  1.1746
   89SAPS    HA 8563   3.008   2.823  10.696 -1.8355  0.3036  3.7735
   89SAPS    HB 8564   3.132   2.691  10.701 -0.6262  0.3348 -1.4664
   89SAPS    C2 8565   2.965   2.657  10.571  0.6841 -0.1241 -0.0379
   89SAPS    HS 8566   2.981   2.547  10.569  0.0947 -0.2577  1.3691
   89SAPS   O21 8567   3.029   2.723  10.458 -0.5008 -0.1153  0.5067
   89SAPS   C21 8568   3.154   2.682  10.419 -0.3204  0.0503  0.1627
   89SAPS   O22 8569   3.216   2.597  10.477 -0.2404  0.3982  0.3998
   89SAPS   C22 8570   3.194   2.748  10.283  0.1387 -0.0095 -0.0434
   89SAPS   H2R 8571   3.157   2.852  10.269  0.0313  0.1946  1.6143
   89SAPS   H2S 8572   3.305   2.756  10.290  0.2037 -1.1047  0.2895
   89SAPS    C3 8573   2.812   2.686  10.576 -0.5289 -0.0921  0.0910
   89SAPS    HX 8574   2.812   2.794  10.603 -1.0720 -0.1200  0.2352
   89SAPS    HY 8575   2.770   2.629  10.662  0.3448  1.9849  2.0113
   89SAPS   O31 8576   2.745   2.659  10.451  0.4938 -0.0456 -0.5278
   89SAPS   C31 8577   2.697   2.760  10.382 -0.0981 -0.1107 -0.0429
   89SAPS   O32 8578   2.699   2.875  10.414 -0.2783 -0.1151  0.0509
   89SAPS   C32 8579   2.640   2.704  10.248 -0.0365 -0.1566 -0.2085
   89SAPS   H2X 8580   2.545   2.652  10.277 -0.3347  0.8111  0.5815
   89SAPS   H2Y 8581   2.716   2.631  10.212  0.2249 -0.1158  0.2547
   89SAPS   C23 8582   3.156   2.669  10.156 -0.0079  0.3007  0.5283
   89SAPS   H3R 8583   3.115   2.734  10.075  3.7023  1.2888 -0.7691
   89SAPS   H3S 8584   3.100   2.578  10.186 -0.3395 -0.1860 -1.3742
   89SAPS   C24 8585   3.278   2.618  10.070 -1.2488  0.2374 -0.5075
   89SAPS   H4R 8586   3.241   2.555   9.986 -1.9901  0.5731 -0.4412
   89SAPS   H4S 8587   3.333   2.544  10.132 -0.5343  1.2268  0.0738
   89SAPS   C25 8588   3.385   2.727  10.035  0.4260  0.1361 -0.0053
   89SAPS   H5R 8589   3.403   2.810  10.105  2.7799 -0.9684  0.8171
   89SAPS   C26 8590   3.441   2.736   9.916 -0.1027 -0.4149 -0.0710
   89SAPS   H6R 8591   3.520   2.811   9.899  1.9509 -2.4943 -0.3407
   89SAPS   C27 8592   3.425   2.636   9.804 -0.4737  0.1822  0.5270
   89SAPS   H7R 8593   3.403   2.538   9.851 -1.2937  0.7242  1.3227
   89SAPS   H7S 8594   3.520   2.610   9.753 -1.4377 -0.4637 -1.0357
   89SAPS   C28 8595   3.301   2.672   9.722 -0.4134  0.0679 -0.2049
   89SAPS   H8R 8596   3.205   2.675   9.776  0.3867 -0.3756  1.2909
   89SAPS   C29 8597   3.294   2.719   9.589 -0.1893 -0.5137  0.4144
   89SAPS   H9R 8598   3.199   2.756   9.548  0.9606 -0.5457 -2.5412
   89SAPS  C210 8599   3.408   2.736   9.493 -0.2598  0.5403 -0.2635
   89SAPS  H10R 8600   3.439   2.635   9.457  1.1984  0.5095  0.9648
   89SAPS  H10S 8601   3.498   2.782   9.540  0.0691 -0.4382  0.0955
   89SAPS  C211 8602   3.381   2.826   9.376  0.2618  0.8165 -0.7642
   89SAPS  H11R 8603   3.404   2.933   9.377 -2.8835  1.5968 -1.5570
   89SAPS  C212 8604   3.365   2.788   9.250 -0.0559  0.1056  0.3372
   89SAPS  H12R 8605   3.324   2.861   9.179 -0.5705 -1.0709 -0.6169
   89SAPS  C213 8606   3.371   2.653   9.189  0.4050  0.4498  0.7295
   89SAPS  H13R 8607   3.280   2.593   9.208  1.7701 -3.1123 -2.6080
   89SAPS  H13S 8608   3.451   2.597   9.242  0.8236  0.0342 -0.3076
   89SAPS  C214 8609   3.415   2.650   9.043  0.0910  0.3638  0.1708
   89SAPS  H14R 8610   3.523   2.663   9.027  0.2003 -0.7810 -0.0927
   89SAPS  C215 8611   3.337   2.621   8.939  0.9929 -0.1740 -0.2182
   89SAPS  H15R 8612   3.390   2.615   8.843 -0.2479 -2.4846 -0.8357
   89SAPS  C216 8613   3.188   2.589   8.938  0.7617  0.3496  0.3493
   89SAPS  H16R 8614   3.130   2.683   8.950 -1.6940 -1.0177 -0.2973
   89SAPS  H16S 8615   3.151   2.525   9.020 -1.8571  1.6752  0.3228
   89SAPS  C217 8616   3.146   2.526   8.807 -0.3104 -0.0656  0.2007
   89SAPS  H17R 8617   3.183   2.600   8.733 -0.4323 -1.1557 -0.9704
   89SAPS  H17S 8618   3.035   2.524   8.797 -0.2669 -1.8972 -0.2525
   89SAPS  C218 8619   3.209   2.392   8.763 -0.2525 -0.8299  0.6141
   89SAPS  H18R 8620   3.318   2.405   8.748 -0.6513  0.3748 -1.6221
   89SAPS  H18S 8621   3.173   2.365   8.662 -0.7750  1.8048  0.0490
   89SAPS  C219 8622   3.178   2.284   8.866  0.0318 -0.5617 -0.6265
   89SAPS  H19R 8623   3.071   2.283   8.895  0.3314 -0.4619  0.5317
   89SAPS  H19S 8624   3.233   2.301   8.960 -1.8379  0.8936  0.2723
   89SAPS  C220 8625   3.212   2.141   8.814 -0.4274  0.7165 -0.2856
   89SAPS  H20R 8626   3.187   2.066   8.892  0.4204 -1.6592 -2.1747
   89SAPS  H20S 8627   3.322   2.132   8.806 -0.5919 -1.3097 -0.8272
   89SAPS  H20T 8628   3.169   2.120   8.713  1.9199  1.1702 -1.4553
   89SAPS   C33 8629   2.595   2.814  10.158  1.4634 -0.5549 -0.5875
   89SAPS   H3X 8630   2.676   2.880  10.119  0.6766  0.4357 -0.5920
   89SAPS   H3Y 8631   2.511   2.875  10.198 -1.0361 -1.4244 -4.0162
   89SAPS   C34 8632   2.525   2.754  10.031  0.0064 -0.0354 -0.2935
   89SAPS   H4X 8633   2.447   2.676  10.049  0.1710  0.2241  1.7766
   89SAPS   H4Y 8634   2.609   2.704   9.979  1.8625  0.7652  1.7825
   89SAPS   C35 8635   2.456   2.861   9.941  0.0671  0.5844  0.1279
   89SAPS   H5X 8636   2.517   2.952   9.960 -1.6055  1.9317 -0.6594
   89SAPS   H5Y 8637   2.352   2.880   9.976 -0.0292 -0.2014  0.2990
   89SAPS   C36 8638   2.464   2.818   9.794  0.1802  0.2954  0.4900
   89SAPS   H6X 8639   2.414   2.892   9.727  1.9885  0.7200 -0.4835
   89SAPS   H6Y 8640   2.407   2.723   9.788 -1.8293  1.5465 -2.1244
   89SAPS   C37 8641   2.603   2.794   9.734  0.0548  0.2329 -0.0293
   89SAPS   H7X 8642   2.662   2.719   9.791  0.1445  0.7375  0.5556
   89SAPS   H7Y 8643   2.658   2.891   9.741 -0.6503  0.6035  0.5038
   89SAPS   C38 8644   2.593   2.732   9.592  0.2882  0.2023  0.1515
   89SAPS   H8X 8645   2.517   2.650   9.590  2.5230 -1.9811  0.1875
   89SAPS   H8Y 8646   2.687   2.679   9.564  1.4439  1.5604  1.3071
   89SAPS   C39 8647   2.580   2.842   9.487 -0.8475  0.6097 -0.1044
   89SAPS   H9X 8648   2.664   2.915   9.497  0.5873 -1.0128  0.1007
   89SAPS   H9Y 8649   2.485   2.895   9.510  0.7212  3.7277 -0.2529
   89SAPS  C310 8650   2.556   2.789   9.346  0.6419 -0.4420 -0.0442
   89SAPS  H10X 8651   2.518   2.869   9.278  1.3537  1.3985  1.6160
   89SAPS  H10Y 8652   2.487   2.703   9.357 -0.2832  0.5347  2.4832
   89SAPS  C311 8653   2.684   2.726   9.280 -0.0001 -0.3579  0.1325
   89SAPS  H11X 8654   2.725   2.656   9.356 -0.5763 -2.2479 -1.2291
   89SAPS  H11Y 8655   2.767   2.798   9.262  0.9306 -1.4711 -0.1668
   89SAPS  C312 8656   2.651   2.648   9.156  0.2145  0.3224 -0.6171
   89SAPS  H12X 8657   2.569   2.577   9.179 -1.0383  1.1376 -2.4200
   89SAPS  H12Y 8658   2.744   2.593   9.130 -0.8991 -1.5961 -0.7507
   89SAPS  C313 8659   2.620   2.736   9.038  0.0664  0.7965  0.2502
   89SAPS  H13X 8660   2.702   2.809   9.021  0.8389 -0.0896  0.0765
   89SAPS  H13Y 8661   2.526   2.789   9.063 -0.8932 -0.8176  0.1550
   89SAPS  C314 8662   2.614   2.649   8.908  0.0084 -0.0731 -0.4841
   89SAPS  H14X 8663   2.540   2.566   8.918  1.2559 -1.1988 -0.3372
   89SAPS  H14Y 8664   2.718   2.613   8.897 -0.1904 -0.4564 -1.1567
   89SAPS  C315 8665   2.582   2.736   8.786 -0.1604  0.5413  0.5536
   89SAPS  H15X 8666   2.600   2.671   8.697 -1.8295  1.0199 -0.1796
   89SAPS  H15Y 8667   2.659   2.816   8.791 -1.0215  1.4452 -0.1143
   89SAPS  C316 8668   2.437   2.787   8.782  0.5384  0.1229 -0.3252
   89SAPS  H16X 8669   2.416   2.856   8.866  0.4312  1.2113 -1.2244
   89SAPS  H16Y 8670   2.370   2.698   8.777  0.3302  0.3327 -1.5951
   89SAPS  C317 8671   2.402   2.858   8.650  0.4788 -0.2606 -0.0480
   89SAPS  H17X 8672   2.399   2.792   8.561  0.1901  1.0484 -1.0433
   89SAPS  H17Y 8673   2.486   2.928   8.631  0.9006 -0.9127 -0.5952
   89SAPS  C318 8674   2.275   2.939   8.667 -0.9705 -0.0673  0.0130
   89SAPS  H18X 8675   2.186   2.876   8.688 -2.4782  0.8960 -2.9030
   89SAPS  H18Y 8676   2.247   2.996   8.575 -3.1112  0.0567  0.6926
   89SAPS  H18Z 8677   2.285   3.002   8.757  0.3003 -0.8306  0.4426
   90SAPS     N 8678   1.993   2.235  11.012 -0.0920  0.5299  0.9063
   90SAPS   HN1 8679   1.944   2.196  10.929  0.0670 -2.3961  2.0846
   90SAPS   HN2 8680   2.032   2.321  10.969  1.7317  0.3965  2.1933
   90SAPS   HN3 8681   2.059   2.167  11.054  0.0343  0.8208  1.1887
   90SAPS   C12 8682   1.892   2.273  11.108 -0.5219  0.7728 -0.9811
   90SAPS  H12A 8683   1.863   2.183  11.160 -1.8390  0.1171 -2.7583
   90SAPS   C13 8684   1.940   2.376  11.226  0.1994 -0.2546  1.2970
   90SAPS  O13A 8685   2.055   2.425  11.224 -0.0585  0.7568  0.0386
   90SAPS  O13B 8686   1.868   2.373  11.325  0.4657  0.1075 -0.2979
   90SAPS   C11 8687   1.764   2.326  11.034 -0.4791 -0.5268 -0.4349
   90SAPS  H11A 8688   1.784   2.414  10.970 -0.5890 -0.9357 -1.0343
   90SAPS  H11B 8689   1.691   2.350  11.114 -0.3228 -0.8647 -0.1868
   90SAPS     P 8690   1.566   2.225  10.887  0.4269 -0.1956  0.4047
   90SAPS   O13 8691   1.517   2.089  10.854 -0.1345 -0.1510 -0.0190
   90SAPS   O14 8692   1.475   2.291  10.984 -0.3097 -0.3747  0.5749
   90SAPS   O12 8693   1.717   2.221  10.945 -0.5312 -0.2167 -0.8579
   90SAPS   O11 8694   1.566   2.314  10.752  0.9250  0.8692 -0.3469
   90SAPS    C1 8695   1.680   2.328  10.676 -0.2166  0.5578  0.2655
   90SAPS    HA 8696   1.699   2.437  10.670 -0.9808  0.6001 -2.7231
   90SAPS    HB 8697   1.773   2.290  10.724  0.5661  2.5105  0.3949
   90SAPS    C2 8698   1.674   2.266  10.537 -0.1490  0.0558 -0.3091
   90SAPS    HS 8699   1.780   2.259  10.504  0.6448  0.8068  1.9417
   90SAPS   O21 8700   1.590   2.353  10.453 -0.1131  0.1463 -0.4725
   90SAPS   C21 8701   1.637   2.367  10.333 -0.3654 -0.5751 -0.1631
   90SAPS   O22 8702   1.751   2.336  10.295 -0.3001  0.5055 -0.6037
   90SAPS   C22 8703   1.531   2.441  10.253 -0.2255  0.3659 -0.5690
   90SAPS   H2R 8704   1.431   2.395  10.260 -1.2557  1.7023 -4.2081
   90SAPS   H2S 8705   1.522   2.544  10.293 -3.1645  0.1326 -0.4285
   90SAPS    C3 8706   1.609   2.124  10.544 -0.1585 -0.3805 -0.1415
   90SAPS    HX 8707   1.504   2.144  10.573 -0.6968  1.5193 -3.0361
   90SAPS    HY 8708   1.661   2.055  10.614  0.2715 -0.6665 -0.7329
   90SAPS   O31 8709   1.620   2.064  10.411  0.2373  0.2579 -0.1473
   90SAPS   C31 8710   1.548   1.958  10.391 -0.8600  0.3772  0.2863
   90SAPS   O32 8711   1.456   1.919  10.463 -0.0291  0.1200  0.3343
   90SAPS   C32 8712   1.586   1.905  10.251 -0.2031 -0.0564 -0.2175
   90SAPS   H2X 8713   1.674   1.838  10.266 -1.0294 -1.0983  0.1408
   90SAPS   H2Y 8714   1.599   1.996  10.188  0.9732 -0.8130 -1.1204
   90SAPS   C23 8715   1.566   2.441  10.105  0.1751 -0.6464  0.3657
   90SAPS   H3R 8716   1.674   2.467  10.098  0.0406 -0.4230 -1.1812
   90SAPS   H3S 8717   1.522   2.526  10.049 -1.0438 -0.8430  0.9921
   90SAPS   C24 8718   1.531   2.302  10.047 -0.0060 -0.2126  0.7564
   90SAPS   H4R 8719   1.548   2.230  10.131  0.1261  0.2313  1.1168
   90SAPS   H4S 8720   1.619   2.289   9.981  0.6326 -0.3065  1.6018
   90SAPS   C25 8721   1.394   2.279   9.979  0.1289 -0.1539 -0.1485
   90SAPS   H5R 8722   1.324   2.229  10.048 -0.5807  0.9089 -0.0775
   90SAPS   C26 8723   1.363   2.287   9.851 -0.3829 -0.1099 -0.1239
   90SAPS   H6R 8724   1.269   2.244   9.814 -0.8057  1.1068 -0.5260
   90SAPS   C27 8725   1.447   2.341   9.737 -0.6409  0.4987 -0.2383
   90SAPS   H7R 8726   1.548   2.364   9.776 -1.1488 -0.7685  1.9812
   90SAPS   H7S 8727   1.412   2.438   9.695  0.0642  0.2347 -1.4960
   90SAPS   C28 8728   1.466   2.239   9.626 -0.3687  0.6812  0.4045
   90SAPS   H8R 8729   1.546   2.165   9.641  1.5753  2.5824 -0.0014
   90SAPS   C29 8730   1.394   2.233   9.515 -1.1160 -0.0893  0.3369
   90SAPS   H9R 8731   1.439   2.158   9.448  4.2567  1.3999  1.8129
   90SAPS  C210 8732   1.293   2.331   9.462 -0.0936 -0.7808  0.3603
   90SAPS  H10R 8733   1.329   2.383   9.370  0.2355 -0.9506  0.3922
   90SAPS  H10S 8734   1.282   2.414   9.534  3.4397  1.0616 -0.9541
   90SAPS  C211 8735   1.161   2.256   9.429 -0.3629 -0.7321 -0.5276
   90SAPS  H11R 8736   1.113   2.199   9.510  1.7207 -0.9150  0.6596
   90SAPS  C212 8737   1.099   2.259   9.310  0.6092  0.0936 -0.3324
   90SAPS  H12R 8738   1.005   2.203   9.300  0.1862  1.0943 -2.2037
   90SAPS  C213 8739   1.157   2.329   9.190  0.0087  1.4597  0.2031
   90SAPS  H13R 8740   1.241   2.265   9.154 -1.8569 -0.0713 -1.6884
   90SAPS  H13S 8741   1.200   2.429   9.208  1.5653  1.7189 -3.8090
   90SAPS  C214 8742   1.060   2.342   9.079  0.3553 -0.3613  0.3067
   90SAPS  H14R 8743   0.963   2.385   9.108  0.5318  0.1196  0.1937
   90SAPS  C215 8744   1.083   2.324   8.945 -0.2093 -0.9386  0.4651
   90SAPS  H15R 8745   0.997   2.323   8.876  0.9874 -0.3919 -1.0974
   90SAPS  C216 8746   1.209   2.290   8.871 -0.5792 -0.0275  0.2362
   90SAPS  H16R 8747   1.299   2.304   8.934  0.5998 -1.7331 -0.9620
   90SAPS  H16S 8748   1.215   2.358   8.784 -0.2942  0.4735  0.6408
   90SAPS  C217 8749   1.220   2.135   8.831  0.2284  0.2975  0.0382
   90SAPS  H17R 8750   1.226   2.086   8.930  2.3880  0.2774 -0.0603
   90SAPS  H17S 8751   1.318   2.118   8.781  0.0186 -0.0411 -0.2615
   90SAPS  C218 8752   1.112   2.091   8.726 -0.3816 -0.1031 -0.4450
   90SAPS  H18R 8753   1.007   2.113   8.755 -0.4080  1.6049 -1.6105
   90SAPS  H18S 8754   1.122   1.981   8.721 -0.4243 -0.1564  0.5399
   90SAPS  C219 8755   1.128   2.123   8.574  0.0027 -0.4458 -0.6648
   90SAPS  H19R 8756   1.225   2.075   8.549 -0.6990 -1.9998 -0.5451
   90SAPS  H19S 8757   1.136   2.232   8.556 -2.1869  0.1117  1.2523
   90SAPS  C220 8758   1.011   2.081   8.492 -0.3682 -0.5065  0.2504
   90SAPS  H20R 8759   1.046   2.099   8.388 -0.0584 -1.2442  0.2281
   90SAPS  H20S 8760   0.920   2.140   8.519  0.0876 -0.6316  2.1904
   90SAPS  H20T 8761   0.992   1.976   8.521 -0.2309 -0.4654  0.4939
   90SAPS   C33 8762   1.463   1.824  10.205 -0.1958  0.5499  0.5279
   90SAPS   H3X 8763   1.376   1.892  10.196 -1.7726 -1.1993  1.6966
   90SAPS   H3Y 8764   1.437   1.748  10.282 -0.9058  2.3752  2.1751
   90SAPS   C34 8765   1.474   1.746  10.071  0.2301 -0.4784 -0.1837
   90SAPS   H4X 8766   1.368   1.724  10.043  0.5781  0.3971 -2.3998
   90SAPS   H4Y 8767   1.524   1.647  10.078 -1.6616 -1.4176  0.8027
   90SAPS   C35 8768   1.536   1.824   9.957  0.0145  0.4899 -0.1279
   90SAPS   H5X 8769   1.646   1.818   9.968 -0.0518 -1.3821 -0.2711
   90SAPS   H5Y 8770   1.508   1.931   9.967 -1.8962 -0.1290  2.0495
   90SAPS   C36 8771   1.477   1.779   9.816 -0.0082 -0.4312 -0.3960
   90SAPS   H6X 8772   1.466   1.669   9.824 -0.6355 -0.2098  3.3564
   90SAPS   H6Y 8773   1.563   1.797   9.748  0.0947 -0.5052 -0.2859
   90SAPS   C37 8774   1.351   1.850   9.760  0.3262  0.0379  0.2466
   90SAPS   H7X 8775   1.352   1.957   9.790 -2.7899  0.8157 -1.9141
   90SAPS   H7Y 8776   1.265   1.799   9.809 -0.3026 -0.3237 -1.1576
   90SAPS   C38 8777   1.341   1.831   9.608 -0.4112 -0.0692  0.1393
   90SAPS   H8X 8778   1.393   1.735   9.590  1.7926  1.2808 -1.2267
   90SAPS   H8Y 8779   1.407   1.911   9.565 -0.0693 -0.2996  0.2321
   90SAPS   C39 8780   1.195   1.826   9.555  0.0406  0.3214  0.5296
   90SAPS   H9X 8781   1.130   1.905   9.599  1.1991  1.2702  0.5661
   90SAPS   H9Y 8782   1.145   1.730   9.583  1.4390  0.0671  2.3268
   90SAPS  C310 8783   1.203   1.831   9.403 -0.6941 -0.4616 -0.4419
   90SAPS  H10X 8784   1.235   1.736   9.355  0.4692  0.0331 -0.6744
   90SAPS  H10Y 8785   1.285   1.901   9.375 -0.6459 -0.0450  0.7026
   90SAPS  C311 8786   1.078   1.888   9.344  0.3236  0.6103 -0.0162
   90SAPS  H11X 8787   1.053   1.994   9.367  0.5683  0.4360  1.1620
   90SAPS  H11Y 8788   1.001   1.824   9.391 -0.0999  1.7040  0.8472
   90SAPS  C312 8789   1.071   1.880   9.188  0.4042 -0.0346  0.3447
   90SAPS  H12X 8790   1.088   1.774   9.159  3.0834  0.7296 -1.2806
   90SAPS  H12Y 8791   1.159   1.940   9.157  1.0300 -0.8567  0.4806
   90SAPS  C313 8792   0.941   1.939   9.128 -0.0174  0.6407  0.7445
   90SAPS  H13X 8793   0.941   2.049   9.141 -1.2868  1.2054 -2.8256
   90SAPS  H13Y 8794   0.855   1.892   9.181 -0.3666 -3.2718 -2.7077
   90SAPS  C314 8795   0.921   1.900   8.982 -0.5421 -0.1973 -0.8264
   90SAPS  H14X 8796   0.941   1.790   8.975  0.7097 -0.2356  2.0223
   90SAPS  H14Y 8797   0.992   1.959   8.921 -0.1948  1.6135  1.2186
   90SAPS  C315 8798   0.778   1.931   8.936  0.1869 -0.2552  0.3428
   90SAPS  H15X 8799   0.758   2.038   8.955 -1.1535 -0.4503  0.1244
   90SAPS  H15Y 8800   0.702   1.869   8.989 -0.2809 -1.4595 -1.6262
   90SAPS  C316 8801   0.755   1.900   8.790  0.2409  0.1024  0.9260
   90SAPS  H16X 8802   0.771   1.791   8.774  1.0725  0.5469 -1.8529
   90SAPS  H16Y 8803   0.844   1.949   8.745  0.2571 -1.6391 -1.0777
   90SAPS  C317 8804   0.629   1.962   8.716  0.2672 -0.2827 -0.3247
   90SAPS  H17X 8805   0.538   1.914   8.759 -0.0685  1.0408  0.5135
   90SAPS  H17Y 8806   0.626   1.929   8.610 -1.8935 -3.6298  0.5939
   90SAPS  C318 8807   0.602   2.114   8.732 -0.9775  0.1485  0.5887
   90SAPS  H18X 8808   0.677   2.171   8.673 -1.8488  2.1623  1.3297
   90SAPS  H18Y 8809   0.608   2.145   8.839  0.7458  0.2019  0.4985
   90SAPS  H18Z 8810   0.502   2.136   8.687  0.1365  3.1955 -0.6160
   91SAPS     N 8811   2.388   6.480   6.066 -0.4876  0.9023  0.6516
   91SAPS   HN1 8812   2.355   6.435   6.154 -0.5407  0.5978  0.4804
   91SAPS   HN2 8813   2.476   6.535   6.079 -0.1565  1.2628 -2.3711
   91SAPS   HN3 8814   2.321   6.554   6.039  0.3258  0.3315 -3.6971
   91SAPS   C12 8815   2.402   6.381   5.956 -0.5900 -0.0190  0.2767
   91SAPS  H12A 8816   2.303   6.343   5.932  0.0833 -1.4362 -0.3757
   91SAPS   C13 8817   2.462   6.434   5.829 -0.1164 -1.2292 -0.4322
   91SAPS  O13A 8818   2.498   6.555   5.823  0.3244 -0.0485  0.0929
   91SAPS  O13B 8819   2.473   6.359   5.725  0.2508 -0.8480  0.0443
   91SAPS   C11 8820   2.477   6.253   6.010 -0.0873  0.0385  1.0462
   91SAPS  H11A 8821   2.482   6.180   5.927 -0.9257  0.6146  0.4650
   91SAPS  H11B 8822   2.420   6.211   6.095 -1.5459 -0.6042 -0.2083
   91SAPS     P 8823   2.688   6.240   6.172 -0.3585  0.5940  0.1005
   91SAPS   O13 8824   2.709   6.092   6.151  0.2120 -0.4382 -0.6080
   91SAPS   O14 8825   2.806   6.326   6.193  0.1870  0.0764  0.1241
   91SAPS   O12 8826   2.606   6.302   6.052 -0.5069  0.0161  0.0967
   91SAPS   O11 8827   2.599   6.259   6.296 -0.1058 -0.2489 -0.2621
   91SAPS    C1 8828   2.635   6.184   6.418  0.7048 -0.4300  0.3942
   91SAPS    HA 8829   2.542   6.157   6.473 -0.2825  0.6022 -0.6770
   91SAPS    HB 8830   2.677   6.083   6.400  0.1166 -0.7663  0.8533
   91SAPS    C2 8831   2.723   6.276   6.519  0.2178  0.9975 -0.1022
   91SAPS    HS 8832   2.832   6.258   6.508  0.3463  1.0509  0.9097
   91SAPS   O21 8833   2.674   6.246   6.654 -0.2631  0.1100  0.1570
   91SAPS   C21 8834   2.745   6.155   6.713  0.3238 -0.5613  0.6915
   91SAPS   O22 8835   2.846   6.101   6.668 -0.0416 -0.0815  0.1001
   91SAPS   C22 8836   2.690   6.132   6.853  0.1361 -0.1411 -0.2275
   91SAPS   H2R 8837   2.595   6.189   6.864  0.4829  0.0756  2.1555
   91SAPS   H2S 8838   2.674   6.022   6.850  0.6555 -0.2065 -0.6002
   91SAPS    C3 8839   2.706   6.432   6.509 -0.1343  0.4773 -0.1187
   91SAPS    HX 8840   2.599   6.462   6.508 -0.0473  1.0506 -3.4987
   91SAPS    HY 8841   2.737   6.472   6.410  0.7493  1.9587  0.7203
   91SAPS   O31 8842   2.784   6.497   6.617  0.6321  0.0123  0.3937
   91SAPS   C31 8843   2.719   6.541   6.724 -0.0869  0.0681  0.3231
   91SAPS   O32 8844   2.600   6.517   6.752 -0.5197  0.1913  0.2048
   91SAPS   C32 8845   2.806   6.636   6.799 -0.0372  0.1556  0.0024
   91SAPS   H2X 8846   2.847   6.723   6.744 -1.1996  1.1550  0.6746
   91SAPS   H2Y 8847   2.901   6.582   6.822 -0.2299  0.1486  0.8173
   91SAPS   C23 8848   2.789   6.164   6.968 -0.0932 -0.0590  0.0553
   91SAPS   H3R 8849   2.730   6.178   7.062  1.4987  2.0172  0.7984
   91SAPS   H3S 8850   2.840   6.261   6.952 -0.6420  0.1772 -0.3211
   91SAPS   C24 8851   2.886   6.049   6.988  0.1110 -0.3674  1.0379
   91SAPS   H4R 8852   2.968   6.088   7.051  2.4555  1.0480 -2.5263
   91SAPS   H4S 8853   2.944   6.026   6.896 -0.8088 -1.2318  0.6494
   91SAPS   C25 8854   2.842   5.921   7.050  1.2835  0.1630  0.3951
   91SAPS   H5R 8855   2.820   5.832   6.991 -0.3346  1.0075 -0.3269
   91SAPS   C26 8856   2.827   5.895   7.182  0.4834 -0.1227 -0.2945
   91SAPS   H6R 8857   2.787   5.797   7.211 -1.5039  0.9598  0.8778
   91SAPS   C27 8858   2.852   5.985   7.297  0.0810 -0.1883 -0.0984
   91SAPS   H7R 8859   2.892   6.082   7.262 -1.6361  0.4912 -0.2890
   91SAPS   H7S 8860   2.927   5.931   7.359 -2.2582 -1.3430  1.9641
   91SAPS   C28 8861   2.735   6.015   7.389 -0.1923  0.2830 -0.3007
   91SAPS   H8R 8862   2.641   5.973   7.350  0.0858  0.0458 -0.7175
   91SAPS   C29 8863   2.727   6.071   7.511 -0.0958 -0.1833 -0.1760
   91SAPS   H9R 8864   2.630   6.106   7.550  0.8587  0.9717  1.2767
   91SAPS  C210 8865   2.849   6.136   7.580 -0.2417  0.3507 -0.1885
   91SAPS  H10R 8866   2.820   6.242   7.599 -0.1315  0.3587 -0.0556
   91SAPS  H10S 8867   2.941   6.130   7.517  0.6935 -0.5720  1.2026
   91SAPS  C211 8868   2.894   6.082   7.719 -0.1874  0.5887 -0.0799
   91SAPS  H11R 8869   2.982   6.016   7.720 -0.1965  0.5789  0.5225
   91SAPS  C212 8870   2.846   6.110   7.843  0.2712  0.5246 -0.5557
   91SAPS  H12R 8871   2.878   6.054   7.932 -0.4593  1.0190  0.0300
   91SAPS  C213 8872   2.726   6.204   7.871  0.0703  0.2140 -0.0948
   91SAPS  H13R 8873   2.656   6.157   7.942 -0.2887  2.2951  1.0210
   91SAPS  H13S 8874   2.672   6.212   7.774  0.0135  0.4136 -0.0478
   91SAPS  C214 8875   2.785   6.341   7.910 -0.0482  0.0277  0.3754
   91SAPS  H14R 8876   2.847   6.394   7.836  0.1887  0.9853  1.2326
   91SAPS  C215 8877   2.749   6.411   8.017 -0.1960  0.0060  0.3010
   91SAPS  H15R 8878   2.809   6.501   8.036  2.0027 -1.2147 -0.5178
   91SAPS  C216 8879   2.647   6.360   8.127 -0.1033 -0.7774 -0.6749
   91SAPS  H16R 8880   2.592   6.268   8.097 -1.8310 -0.4223  1.1915
   91SAPS  H16S 8881   2.559   6.425   8.147  1.3149  0.5130  1.7136
   91SAPS  C217 8882   2.713   6.353   8.261 -0.9634  0.7991  0.3197
   91SAPS  H17R 8883   2.754   6.452   8.290  1.4349 -0.7904  2.8137
   91SAPS  H17S 8884   2.805   6.292   8.247 -0.5630  1.2234  1.0408
   91SAPS  C218 8885   2.623   6.310   8.377  0.2777  0.1038 -0.1117
   91SAPS  H18R 8886   2.594   6.205   8.358  2.2751 -0.4719 -0.1394
   91SAPS  H18S 8887   2.524   6.361   8.372 -1.1382 -2.4994 -0.3339
   91SAPS  C219 8888   2.680   6.331   8.516 -0.1435 -0.0969 -0.0567
   91SAPS  H19R 8889   2.620   6.272   8.589 -0.5971  0.2769 -0.1247
   91SAPS  H19S 8890   2.665   6.439   8.538  2.3239  0.4092 -0.5107
   91SAPS  C220 8891   2.832   6.292   8.545  0.4018 -0.3461  0.2923
   91SAPS  H20R 8892   2.898   6.369   8.498  0.2533  0.1870  0.9397
   91SAPS  H20S 8893   2.849   6.191   8.503  0.0296  0.4066 -1.8309
   91SAPS  H20T 8894   2.855   6.310   8.652  0.1011 -1.0390  0.4738
   91SAPS   C33 8895   2.737   6.667   6.934  0.0856 -0.7016  0.1089
   91SAPS   H3X 8896   2.702   6.577   6.989 -1.5039 -0.8610 -1.0787
   91SAPS   H3Y 8897   2.650   6.736   6.925  0.7693  0.0284 -1.1917
   91SAPS   C34 8898   2.836   6.743   7.028 -0.6301 -0.0457  0.0835
   91SAPS   H4X 8899   2.872   6.837   6.981 -0.5717  0.3705  0.9443
   91SAPS   H4Y 8900   2.926   6.678   7.038 -0.8261 -0.2624  0.4323
   91SAPS   C35 8901   2.779   6.759   7.171 -0.0271  0.3548 -0.6114
   91SAPS   H5X 8902   2.681   6.811   7.164 -0.2305  0.0394 -0.1392
   91SAPS   H5Y 8903   2.856   6.817   7.225 -1.8592  0.3038  2.2592
   91SAPS   C36 8904   2.738   6.632   7.253 -0.2307  0.3381  0.8983
   91SAPS   H6X 8905   2.804   6.549   7.220  0.0926  0.4909  1.1511
   91SAPS   H6Y 8906   2.634   6.607   7.223  0.6413 -1.7876 -0.5764
   91SAPS   C37 8907   2.753   6.660   7.401  0.1873 -0.2203  0.4746
   91SAPS   H7X 8908   2.682   6.744   7.421  1.4606  0.8792  0.4991
   91SAPS   H7Y 8909   2.858   6.685   7.425 -0.0754  1.6947 -0.1318
   91SAPS   C38 8910   2.704   6.543   7.484  0.1134 -0.0137 -0.7533
   91SAPS   H8X 8911   2.793   6.476   7.488 -0.5765 -0.9863 -1.2701
   91SAPS   H8Y 8912   2.621   6.489   7.434 -0.3125 -1.7127  1.6141
   91SAPS   C39 8913   2.651   6.584   7.622  0.5343 -0.2545 -0.1499
   91SAPS   H9X 8914   2.613   6.502   7.687  1.4557 -1.3462 -0.9514
   91SAPS   H9Y 8915   2.558   6.640   7.601 -0.3952 -1.8347 -0.3448
   91SAPS  C310 8916   2.735   6.676   7.704  0.1214  0.3841 -0.1514
   91SAPS  H10X 8917   2.753   6.774   7.654 -0.5507  0.3638 -0.4368
   91SAPS  H10Y 8918   2.831   6.625   7.730 -0.4690 -1.9987 -2.2552
   91SAPS  C311 8919   2.667   6.716   7.837  0.2662 -1.0535  0.4635
   91SAPS  H11X 8920   2.647   6.622   7.894  1.8380 -0.3082  2.3483
   91SAPS  H11Y 8921   2.565   6.757   7.823  0.0476 -0.3894  3.3287
   91SAPS  C312 8922   2.750   6.794   7.930 -0.4841 -0.4716 -0.3286
   91SAPS  H12X 8923   2.801   6.879   7.878  0.9404 -2.2508 -2.0063
   91SAPS  H12Y 8924   2.830   6.728   7.969  0.5646  0.6223 -0.5556
   91SAPS  C313 8925   2.693   6.836   8.059  1.4016 -0.4116 -0.6110
   91SAPS  H13X 8926   2.594   6.881   8.037  0.8329 -1.5287 -0.3849
   91SAPS  H13Y 8927   2.757   6.915   8.105  0.9186  1.8388 -3.4913
   91SAPS  C314 8928   2.663   6.728   8.171 -0.0539  0.6707 -1.0496
   91SAPS  H14X 8929   2.757   6.670   8.181 -1.5181 -1.9157 -1.4130
   91SAPS  H14Y 8930   2.580   6.663   8.135 -0.1707  0.5371 -0.5514
   91SAPS  C315 8931   2.632   6.803   8.299  0.0333  0.0730 -0.2953
   91SAPS  H15X 8932   2.681   6.903   8.302 -0.4360  0.2907  0.4566
   91SAPS  H15Y 8933   2.671   6.744   8.385  0.9468 -0.8025 -1.2836
   91SAPS  C316 8934   2.480   6.829   8.317 -0.0084  0.3118  0.3582
   91SAPS  H16X 8935   2.420   6.737   8.297  0.1351  0.4389 -0.7462
   91SAPS  H16Y 8936   2.452   6.900   8.237  1.2104 -0.3259 -0.6891
   91SAPS  C317 8937   2.452   6.885   8.458 -0.3976 -0.0396  0.1941
   91SAPS  H17X 8938   2.343   6.897   8.474 -0.3465  0.2643  0.3299
   91SAPS  H17Y 8939   2.483   6.991   8.444 -1.3780  0.0125 -2.1847
   91SAPS  C318 8940   2.528   6.830   8.575 -0.2951  0.4666  0.4596
   91SAPS  H18X 8941   2.479   6.868   8.667  0.0705  0.0598  0.8313
   91SAPS  H18Y 8942   2.638   6.849   8.576  0.3307 -2.6235  0.7086
   91SAPS  H18Z 8943   2.511   6.720   8.583 -0.4531  0.5496  1.4513
   92SAPS     N 8944   2.387   4.590   6.578 -0.5804  0.2023  0.2116
   92SAPS   HN1 8945   2.483   4.579   6.615 -1.1417 -1.5394  1.2717
   92SAPS   HN2 8946   2.388   4.681   6.527  1.4873 -0.2790 -0.6976
   92SAPS   HN3 8947   2.316   4.582   6.653 -2.4003  2.0099 -1.1910
   92SAPS   C12 8948   2.364   4.479   6.480 -0.0028  0.9098  0.7272
   92SAPS  H12A 8949   2.257   4.468   6.479  0.0489  0.3123  1.2626
   92SAPS   C13 8950   2.409   4.496   6.331  0.8404 -0.2949 -0.6550
   92SAPS  O13A 8951   2.427   4.615   6.289  0.0998 -0.2113 -0.1403
   92SAPS  O13B 8952   2.396   4.402   6.252  0.0632  0.1583 -0.7497
   92SAPS   C11 8953   2.415   4.349   6.542  0.0081  0.7981  0.1001
   92SAPS  H11A 8954   2.403   4.273   6.462 -1.2673  1.8801 -0.7643
   92SAPS  H11B 8955   2.364   4.318   6.636  1.9441  2.8197  1.9449
   92SAPS     P 8956   2.637   4.225   6.592  0.0754  0.2242  0.3535
   92SAPS   O13 8957   2.535   4.124   6.633  0.3192 -0.3536  1.0274
   92SAPS   O14 8958   2.713   4.192   6.468  0.6379 -0.0652 -0.3856
   92SAPS   O12 8959   2.554   4.358   6.575 -0.8691 -0.3062  0.6247
   92SAPS   O11 8960   2.738   4.235   6.712  0.4514 -0.3292  0.1254
   92SAPS    C1 8961   2.716   4.325   6.824  0.8078 -0.1126 -0.4568
   92SAPS    HA 8962   2.810   4.344   6.879 -0.0222  1.5993  0.4488
   92SAPS    HB 8963   2.677   4.420   6.783 -1.0561 -0.4673  0.4046
   92SAPS    C2 8964   2.604   4.279   6.926  0.5569 -0.4029 -0.1069
   92SAPS    HS 8965   2.503   4.301   6.886 -0.3492 -2.1599  1.0679
   92SAPS   O21 8966   2.633   4.353   7.039  0.2211  0.3203 -0.5301
   92SAPS   C21 8967   2.538   4.364   7.126  0.2412 -0.3649  0.6747
   92SAPS   O22 8968   2.427   4.309   7.122 -0.8548  0.1513  0.0896
   92SAPS   C22 8969   2.571   4.458   7.237  0.1975 -0.3945 -0.3589
   92SAPS   H2R 8970   2.679   4.440   7.254  0.7783  0.8068 -2.3777
   92SAPS   H2S 8971   2.554   4.562   7.203 -0.1195 -0.4138 -0.2583
   92SAPS    C3 8972   2.619   4.124   6.954 -0.1928  0.0977  0.1782
   92SAPS    HX 8973   2.631   4.068   6.859 -3.0969 -0.6005  0.1118
   92SAPS    HY 8974   2.514   4.097   6.978 -0.8390  1.1787 -1.2644
   92SAPS   O31 8975   2.718   4.083   7.053  0.2806  0.1712 -0.0283
   92SAPS   C31 8976   2.730   3.949   7.050  0.0658 -0.0255  0.8535
   92SAPS   O32 8977   2.686   3.880   6.964 -0.3451  0.0618  0.1180
   92SAPS   C32 8978   2.804   3.883   7.168  0.6475 -0.7330 -0.2350
   92SAPS   H2X 8979   2.882   3.811   7.136  0.4033 -0.5116 -1.3806
   92SAPS   H2Y 8980   2.725   3.834   7.228 -0.1752  1.9245  1.0151
   92SAPS   C23 8981   2.482   4.434   7.367 -0.4071  0.0610 -0.3139
   92SAPS   H3R 8982   2.475   4.329   7.404 -0.6822 -1.2700 -3.8160
   92SAPS   H3S 8983   2.381   4.464   7.331  0.4579  0.6232 -2.3842
   92SAPS   C24 8984   2.507   4.534   7.487 -0.3150 -0.3957  0.6619
   92SAPS   H4R 8985   2.544   4.629   7.443 -0.6277 -0.7696 -0.4511
   92SAPS   H4S 8986   2.590   4.497   7.550 -0.3671 -1.3083  0.2165
   92SAPS   C25 8987   2.383   4.559   7.571 -0.5040  0.3091  0.4968
   92SAPS   H5R 8988   2.283   4.523   7.545 -0.1145 -0.7439  0.3994
   92SAPS   C26 8989   2.391   4.610   7.698  1.1153  0.0309 -0.4288
   92SAPS   H6R 8990   2.298   4.607   7.757  0.7708 -1.4388 -1.0127
   92SAPS   C27 8991   2.515   4.650   7.769  0.4468 -1.3824 -0.5794
   92SAPS   H7R 8992   2.582   4.690   7.690  0.0532 -1.1016 -0.7749
   92SAPS   H7S 8993   2.571   4.560   7.802  2.2199  0.0294  0.4144
   92SAPS   C28 8994   2.493   4.764   7.886  0.5432  0.4593  0.7368
   92SAPS   H8R 8995   2.413   4.839   7.880  1.9017  1.8734 -0.3106
   92SAPS   C29 8996   2.559   4.780   8.003  0.2811 -0.8795 -0.1998
   92SAPS   H9R 8997   2.525   4.857   8.074  1.6445 -0.2140 -0.2467
   92SAPS  C210 8998   2.668   4.701   8.065  0.6320 -0.4767 -0.3674
   92SAPS  H10R 8999   2.650   4.593   8.043  0.4138 -1.0338  2.1610
   92SAPS  H10S 9000   2.646   4.706   8.174 -2.1629  0.6734 -0.8904
   92SAPS  C211 9001   2.803   4.743   8.023 -0.7082 -0.2613 -0.2255
   92SAPS  H11R 9002   2.827   4.754   7.916 -1.0143 -0.8131 -0.3540
   92SAPS  C212 9003   2.903   4.759   8.104 -0.2647  0.1873  0.2610
   92SAPS  H12R 9004   3.002   4.780   8.062 -0.0877 -0.7404  0.1887
   92SAPS  C213 9005   2.902   4.750   8.257  0.2843 -0.0829 -0.3898
   92SAPS  H13R 9006   2.811   4.710   8.306  0.8814  0.3842  1.1978
   92SAPS  H13S 9007   2.904   4.854   8.297 -2.1219 -0.1015 -0.0590
   92SAPS  C214 9008   3.033   4.700   8.331  0.0537 -0.5775  0.3076
   92SAPS  H14R 9009   3.110   4.667   8.260  0.0577  2.5789 -1.3397
   92SAPS  C215 9010   3.065   4.691   8.466  0.3675  0.0570 -0.4417
   92SAPS  H15R 9011   3.157   4.640   8.496  1.1359  1.9582  0.6136
   92SAPS  C216 9012   2.986   4.720   8.583  0.5757 -0.0419  0.5998
   92SAPS  H16R 9013   3.001   4.658   8.675 -3.4101  0.3676  1.7168
   92SAPS  H16S 9014   2.880   4.718   8.549  0.4398 -1.6255  1.0104
   92SAPS  C217 9015   3.012   4.872   8.619 -0.9350  0.4647 -0.5798
   92SAPS  H17R 9016   2.948   4.882   8.709 -1.1077 -0.9296 -0.5243
   92SAPS  H17S 9017   2.984   4.951   8.546 -0.6087  0.3704 -0.8078
   92SAPS  C218 9018   3.154   4.914   8.667 -0.3144 -0.2357  0.3410
   92SAPS  H18R 9019   3.228   4.915   8.585  0.3265 -0.7662  0.8941
   92SAPS  H18S 9020   3.189   4.841   8.743  1.8737  0.1318 -0.2583
   92SAPS  C219 9021   3.156   5.040   8.754  0.0686  0.2757 -0.1664
   92SAPS  H19R 9022   3.232   5.028   8.834 -0.5524  0.0477  0.3964
   92SAPS  H19S 9023   3.064   5.054   8.815  1.3339  0.9901  1.6598
   92SAPS  C220 9024   3.190   5.162   8.673 -0.0850 -0.1414  0.1510
   92SAPS  H20R 9025   3.284   5.149   8.616 -0.0630  1.4113 -0.2027
   92SAPS  H20S 9026   3.197   5.253   8.736 -0.7091  0.9191 -1.2620
   92SAPS  H20T 9027   3.098   5.176   8.612 -0.2134  0.3656  0.4524
   92SAPS   C33 9028   2.880   3.992   7.251  0.5352  0.3183 -0.2823
   92SAPS   H3X 9029   2.947   4.064   7.200  2.3969 -0.0714  1.4723
   92SAPS   H3Y 9030   2.949   3.925   7.308 -1.8328 -2.0440 -0.0185
   92SAPS   C34 9031   2.779   4.045   7.351 -0.0018 -0.4439  0.0701
   92SAPS   H4X 9032   2.721   3.955   7.382  3.7023 -1.8596  3.8239
   92SAPS   H4Y 9033   2.711   4.122   7.308  1.1677 -0.4252 -1.8177
   92SAPS   C35 9034   2.839   4.101   7.486  0.1299 -0.6044  0.2263
   92SAPS   H5X 9035   2.900   4.190   7.458  0.5729 -1.4600 -1.6790
   92SAPS   H5Y 9036   2.905   4.029   7.539 -0.9747 -2.6864 -1.1063
   92SAPS   C36 9037   2.725   4.137   7.580 -0.2404 -0.1266 -0.8154
   92SAPS   H6X 9038   2.677   4.044   7.619 -1.1729  0.0762 -1.4505
   92SAPS   H6Y 9039   2.642   4.182   7.522  0.2875  1.0679 -0.6788
   92SAPS   C37 9040   2.777   4.219   7.693 -0.2152  1.1223  0.3824
   92SAPS   H7X 9041   2.839   4.297   7.645  0.0119  1.0274  0.5196
   92SAPS   H7Y 9042   2.845   4.154   7.752 -2.1633  1.0628  2.7177
   92SAPS   C38 9043   2.678   4.280   7.795  0.0238  0.3112 -0.6520
   92SAPS   H8X 9044   2.605   4.352   7.750 -0.6722  0.7568  1.1279
   92SAPS   H8Y 9045   2.740   4.330   7.872  2.0375 -2.0254 -0.6510
   92SAPS   C39 9046   2.600   4.160   7.861 -0.0248 -0.9921 -0.5974
   92SAPS   H9X 9047   2.664   4.079   7.902 -0.9851 -2.2815 -1.6066
   92SAPS   H9Y 9048   2.539   4.111   7.783 -0.9609 -0.0140 -0.5027
   92SAPS  C310 9049   2.499   4.209   7.976  0.2893 -0.4545  0.3627
   92SAPS  H10X 9050   2.428   4.128   8.001  0.2510 -0.4513  0.2676
   92SAPS  H10Y 9051   2.443   4.297   7.936  0.3380 -0.0702  1.1286
   92SAPS  C311 9052   2.566   4.254   8.108 -0.1898 -0.6726 -0.2078
   92SAPS  H11X 9053   2.664   4.302   8.090  0.3367 -1.0595  1.4152
   92SAPS  H11Y 9054   2.587   4.170   8.178  2.2957  0.1513  0.1479
   92SAPS  C312 9055   2.485   4.369   8.179  0.3579 -0.3045  0.4548
   92SAPS  H12X 9056   2.384   4.332   8.205  0.5541 -1.1443  0.0452
   92SAPS  H12Y 9057   2.475   4.447   8.101  1.3269 -1.0634 -0.4613
   92SAPS  C313 9058   2.559   4.430   8.298 -0.7953  0.3419  0.0491
   92SAPS  H13X 9059   2.645   4.479   8.247  0.1347  1.6200  2.6931
   92SAPS  H13Y 9060   2.592   4.336   8.346  1.2153 -1.0104 -3.5501
   92SAPS  C314 9061   2.477   4.537   8.373 -0.0066 -0.8272  0.4799
   92SAPS  H14X 9062   2.382   4.498   8.414 -0.5495  0.6765  0.7297
   92SAPS  H14Y 9063   2.446   4.613   8.298 -1.4876 -0.1206  1.7593
   92SAPS  C315 9064   2.571   4.624   8.468  0.1197  0.1787  0.5997
   92SAPS  H15X 9065   2.516   4.710   8.512  3.8179  3.4763 -0.5594
   92SAPS  H15Y 9066   2.649   4.672   8.403 -1.4147 -0.1222 -1.5869
   92SAPS  C316 9067   2.648   4.543   8.574 -0.7117 -0.1432 -0.5102
   92SAPS  H16X 9068   2.727   4.604   8.624 -0.0807 -1.2371 -0.1482
   92SAPS  H16Y 9069   2.698   4.456   8.527 -1.2752 -0.7959  0.0868
   92SAPS  C317 9070   2.571   4.488   8.689 -0.0363 -0.3425  0.3569
   92SAPS  H17X 9071   2.491   4.421   8.650 -1.0296  0.2478  1.3152
   92SAPS  H17Y 9072   2.531   4.588   8.717  3.2167  1.6962 -1.6182
   92SAPS  C318 9073   2.641   4.432   8.812 -0.3662 -0.1119  0.2199
   92SAPS  H18X 9074   2.575   4.412   8.898 -0.4947  4.1215  1.3245
   92SAPS  H18Y 9075   2.716   4.510   8.836  0.6417 -0.9062 -0.2559
   92SAPS  H18Z 9076   2.709   4.346   8.795 -0.0554 -0.0883  1.3074
   93SAPS     N 9077   2.650   4.736   6.174  0.2151 -0.0278 -0.3627
   93SAPS   HN1 9078   2.663   4.757   6.073  1.9883  0.1157 -0.1389
   93SAPS   HN2 9079   2.713   4.657   6.198 -0.0203 -0.5512 -1.4082
   93SAPS   HN3 9080   2.555   4.704   6.202  0.5893 -0.3539  0.5388
   93SAPS   C12 9081   2.688   4.854   6.252 -0.4579 -0.1729  0.4262
   93SAPS  H12A 9082   2.786   4.890   6.226 -0.7748  1.3464  1.2116
   93SAPS   C13 9083   2.595   4.975   6.225 -0.4447 -0.4336 -0.2231
   93SAPS  O13A 9084   2.498   4.963   6.145  0.5164  0.2426 -0.2128
   93SAPS  O13B 9085   2.636   5.091   6.258 -0.4894  0.6528  0.2206
   93SAPS   C11 9086   2.681   4.816   6.408  0.0670  0.5232  0.0194
   93SAPS  H11A 9087   2.575   4.801   6.436 -0.1729  0.5506 -0.8277
   93SAPS  H11B 9088   2.710   4.910   6.459  0.2963  0.4108  0.0980
   93SAPS     P 9089   2.787   4.662   6.594 -0.3623 -0.0080 -0.2508
   93SAPS   O13 9090   2.654   4.635   6.664 -0.5085 -0.8742  0.7765
   93SAPS   O14 9091   2.890   4.550   6.598 -0.0303 -0.3316  0.4794
   93SAPS   O12 9092   2.765   4.708   6.446  0.5830  0.4724 -0.4295
   93SAPS   O11 9093   2.848   4.789   6.655 -0.1936  0.2079  0.4285
   93SAPS    C1 9094   2.774   4.885   6.731 -0.0686  0.5128  0.8987
   93SAPS    HA 9095   2.775   4.987   6.685 -0.5838  0.8959  1.7061
   93SAPS    HB 9096   2.666   4.859   6.723  0.2794 -0.3939 -1.5756
   93SAPS    C2 9097   2.815   4.897   6.885 -0.4968  0.2860  0.1983
   93SAPS    HS 9098   2.905   4.961   6.903 -0.7303  1.0326 -1.2008
   93SAPS   O21 9099   2.820   4.768   6.946  0.4578 -0.0381  0.2171
   93SAPS   C21 9100   2.937   4.708   6.928  0.0223 -0.1255  0.1607
   93SAPS   O22 9101   3.034   4.758   6.872 -0.0633  0.0734  0.2519
   93SAPS   C22 9102   2.929   4.574   6.983 -0.5020  0.4177 -0.9134
   93SAPS   H2R 9103   2.833   4.526   6.957  0.1785 -1.6041  0.0777
   93SAPS   H2S 9104   3.011   4.515   6.937 -0.6131 -0.3246 -0.1837
   93SAPS    C3 9105   2.711   4.977   6.961 -0.0721  0.0689  0.6469
   93SAPS    HX 9106   2.613   4.926   6.961 -0.1064  0.1319  1.0707
   93SAPS    HY 9107   2.693   5.072   6.906  0.6577 -0.4863 -0.6069
   93SAPS   O31 9108   2.770   4.996   7.089  0.1404  0.0719  0.3483
   93SAPS   C31 9109   2.709   4.948   7.199  0.1882  0.2098  0.5240
   93SAPS   O32 9110   2.612   4.873   7.192 -0.7262  0.0147 -0.2300
   93SAPS   C32 9111   2.784   4.987   7.324  0.0912 -1.0776  0.1869
   93SAPS   H2X 9112   2.760   5.095   7.331 -1.9628 -1.3185 -1.9752
   93SAPS   H2Y 9113   2.892   4.981   7.298  0.2788  0.1496  0.6006
   93SAPS   C23 9114   2.956   4.557   7.131  0.1684  0.4246 -0.5597
   93SAPS   H3R 9115   2.870   4.593   7.192  0.5652 -0.2352  0.4153
   93SAPS   H3S 9116   3.036   4.622   7.171 -1.8782  3.3694 -0.9463
   93SAPS   C24 9117   2.998   4.410   7.165  0.6346 -0.2311  0.2381
   93SAPS   H4R 9118   3.075   4.380   7.091 -0.0309 -1.3496 -0.0311
   93SAPS   H4S 9119   2.914   4.337   7.158  0.2075  0.2107  0.6356
   93SAPS   C25 9120   3.068   4.395   7.298 -0.6647 -0.1697 -0.2888
   93SAPS   H5R 9121   3.028   4.445   7.387  1.2207 -2.3248  1.9140
   93SAPS   C26 9122   3.185   4.327   7.320 -0.5073  0.2815 -0.1027
   93SAPS   H6R 9123   3.234   4.320   7.418 -0.0012 -1.0577 -0.4373
   93SAPS   C27 9124   3.257   4.237   7.222  0.5631 -0.0673 -0.1686
   93SAPS   H7R 9125   3.183   4.168   7.173  1.5322 -0.2744 -1.4036
   93SAPS   H7S 9126   3.312   4.167   7.288 -1.3500 -1.5553 -0.0358
   93SAPS   C28 9127   3.355   4.292   7.122  0.0734 -0.0588 -0.4503
   93SAPS   H8R 9128   3.321   4.359   7.042  1.4153  1.0381 -0.1397
   93SAPS   C29 9129   3.487   4.286   7.130  0.5866  0.0869  0.5764
   93SAPS   H9R 9130   3.541   4.347   7.056  1.0078  1.8161  2.2197
   93SAPS  C210 9131   3.573   4.206   7.228  0.4220 -0.6996  0.0505
   93SAPS  H10R 9132   3.509   4.122   7.261 -1.0382  0.9257  1.5397
   93SAPS  H10S 9133   3.618   4.257   7.316  1.3202 -1.6359  0.1610
   93SAPS  C211 9134   3.691   4.146   7.162  0.3173  0.3980  0.9061
   93SAPS  H11R 9135   3.706   4.170   7.056  3.6220  1.8944  1.5963
   93SAPS  C212 9136   3.772   4.051   7.211  0.4677 -0.2406 -0.4480
   93SAPS  H12R 9137   3.847   4.002   7.147  1.3616 -3.5393  2.7769
   93SAPS  C213 9138   3.762   3.986   7.348 -0.0496 -0.8875  0.3744
   93SAPS  H13R 9139   3.701   4.049   7.416 -0.1107 -1.4298  0.8297
   93SAPS  H13S 9140   3.859   3.981   7.402  0.7970 -0.2390 -1.0263
   93SAPS  C214 9141   3.705   3.845   7.336 -0.0676  0.2907 -0.4667
   93SAPS  H14R 9142   3.723   3.792   7.241 -0.9144 -4.3470  1.6792
   93SAPS  C215 9143   3.630   3.791   7.437  0.0069  0.1519  0.6798
   93SAPS  H15R 9144   3.601   3.686   7.422  0.7180 -0.0105  0.3964
   93SAPS  C216 9145   3.590   3.841   7.571  0.2885 -0.1358 -0.5527
   93SAPS  H16R 9146   3.646   3.936   7.581 -0.1121  0.2488 -1.7491
   93SAPS  H16S 9147   3.624   3.761   7.640  1.6123 -0.6656 -1.7631
   93SAPS  C217 9148   3.441   3.869   7.615  0.0890  0.3733 -0.5562
   93SAPS  H17R 9149   3.442   3.912   7.718  0.7120  0.1460 -0.4642
   93SAPS  H17S 9150   3.376   3.779   7.623 -0.2713  0.6376 -0.4411
   93SAPS  C218 9151   3.378   3.972   7.529 -0.8053  0.5872 -0.3893
   93SAPS  H18R 9152   3.399   3.946   7.423  0.9998  0.4636 -0.0257
   93SAPS  H18S 9153   3.424   4.072   7.543 -0.2307  0.5040 -1.5297
   93SAPS  C219 9154   3.223   3.974   7.539  0.3727 -0.0078 -0.1265
   93SAPS  H19R 9155   3.189   3.869   7.531 -0.0618  0.0249  1.1038
   93SAPS  H19S 9156   3.176   4.040   7.464  2.0803 -0.7206 -1.9242
   93SAPS  C220 9157   3.168   4.017   7.676 -0.0365 -1.6819  0.3868
   93SAPS  H20R 9158   3.194   4.124   7.694  0.1281 -1.1493 -2.5544
   93SAPS  H20S 9159   3.219   3.955   7.753 -1.4541 -0.7352  2.1752
   93SAPS  H20T 9160   3.060   3.998   7.690 -0.6299  1.9929  1.9426
   93SAPS   C33 9161   2.731   4.895   7.435  0.0915 -1.1353 -0.8551
   93SAPS   H3X 9162   2.745   4.785   7.422 -1.8700 -1.7177  1.2217
   93SAPS   H3Y 9163   2.620   4.907   7.438  0.2864  1.2229 -1.4089
   93SAPS   C34 9164   2.787   4.921   7.576  0.1083  0.3094  0.5756
   93SAPS   H4X 9165   2.715   4.880   7.649  1.9028 -3.0419  0.6731
   93SAPS   H4Y 9166   2.806   5.030   7.584  0.2340  0.5269 -1.8589
   93SAPS   C35 9167   2.922   4.851   7.600  0.1260 -0.0103  0.2401
   93SAPS   H5X 9168   2.974   4.900   7.685  0.0533  1.6351 -0.6326
   93SAPS   H5Y 9169   2.979   4.873   7.507 -2.3303 -0.0058 -1.3761
   93SAPS   C36 9170   2.929   4.703   7.626  0.3890  0.6174 -0.3941
   93SAPS   H6X 9171   2.923   4.645   7.531 -0.3962 -0.1539  0.1149
   93SAPS   H6Y 9172   2.833   4.686   7.679  1.2693  0.9003  1.3861
   93SAPS   C37 9173   3.041   4.653   7.716 -0.4688  0.3783  0.5072
   93SAPS   H7X 9174   3.005   4.679   7.817  0.4408 -0.9310  1.2028
   93SAPS   H7Y 9175   3.142   4.696   7.699 -0.1233 -0.5415  0.0998
   93SAPS   C38 9176   3.057   4.494   7.728  0.4431 -0.4790 -0.0374
   93SAPS   H8X 9177   3.070   4.451   7.626  0.6155  2.7318 -1.4678
   93SAPS   H8Y 9178   2.967   4.448   7.774 -0.8526  1.2264 -0.8011
   93SAPS   C39 9179   3.169   4.454   7.821 -0.3877  1.0482 -0.1864
   93SAPS   H9X 9180   3.265   4.500   7.791 -0.7858  0.9520 -1.7247
   93SAPS   H9Y 9181   3.191   4.346   7.807  1.0399  1.2987  0.0228
   93SAPS  C310 9182   3.146   4.466   7.968  0.1857 -0.4389 -0.5902
   93SAPS  H10X 9183   3.119   4.572   7.989  0.0092 -0.7394  0.7874
   93SAPS  H10Y 9184   3.235   4.454   8.033  0.6118  1.8470 -0.6488
   93SAPS  C311 9185   3.043   4.365   8.022  0.1445 -0.7546  0.3088
   93SAPS  H11X 9186   2.993   4.325   7.931  2.7862  0.6250 -1.9340
   93SAPS  H11Y 9187   2.974   4.418   8.090  1.5107  0.8495  0.5194
   93SAPS  C312 9188   3.105   4.240   8.093  0.4139  0.1484  0.1938
   93SAPS  H12X 9189   3.168   4.182   8.022 -0.5585  2.3436 -2.6680
   93SAPS  H12Y 9190   3.016   4.175   8.111 -0.4084  1.5135  1.2817
   93SAPS  C313 9191   3.169   4.267   8.232 -0.1742 -0.3842 -0.2351
   93SAPS  H13X 9192   3.266   4.322   8.224  1.0473 -2.3281  0.4543
   93SAPS  H13Y 9193   3.199   4.168   8.273  0.2122  0.1275  0.7481
   93SAPS  C314 9194   3.081   4.330   8.343  0.1466 -0.2256  0.0834
   93SAPS  H14X 9195   2.979   4.286   8.349  0.4558 -0.9905 -0.1700
   93SAPS  H14Y 9196   3.058   4.436   8.321  2.9922  0.3797 -0.3146
   93SAPS  C315 9197   3.145   4.325   8.483  0.0046  0.0056 -0.9842
   93SAPS  H15X 9198   3.231   4.395   8.492  0.5872 -0.8149  0.0904
   93SAPS  H15Y 9199   3.176   4.220   8.501 -1.6523 -0.0459  2.3872
   93SAPS  C316 9200   3.047   4.351   8.597  0.2994  0.4019  0.6650
   93SAPS  H16X 9201   2.974   4.268   8.590  0.4720  0.3019  0.0016
   93SAPS  H16Y 9202   2.987   4.445   8.593 -0.0596  0.4542  3.9794
   93SAPS  C317 9203   3.109   4.336   8.738  1.0455  0.7323  0.8366
   93SAPS  H17X 9204   3.144   4.231   8.753  2.0398  1.1139  1.3327
   93SAPS  H17Y 9205   3.032   4.353   8.816  0.9770 -2.4252  1.6260
   93SAPS  C318 9206   3.226   4.426   8.757 -0.0094  0.7943 -0.0939
   93SAPS  H18X 9207   3.311   4.397   8.691 -0.7925  1.6704 -1.5464
   93SAPS  H18Y 9208   3.252   4.438   8.864  0.7007  4.2990 -0.5242
   93SAPS  H18Z 9209   3.199   4.532   8.737 -1.0397  0.3340 -1.2798
   94SAPS     N 9210   3.495   6.502   6.062 -0.0483  0.2272 -0.3667
   94SAPS   HN1 9211   3.475   6.424   6.128  1.9640 -1.0547 -1.1679
   94SAPS   HN2 9212   3.491   6.462   5.966  0.6811  1.2255 -0.8323
   94SAPS   HN3 9213   3.588   6.546   6.078 -0.4719  1.5534 -1.3688
   94SAPS   C12 9214   3.390   6.597   6.091  0.3090  0.6688  0.2929
   94SAPS  H12A 9215   3.393   6.659   6.003  0.8525  0.2416 -0.0042
   94SAPS   C13 9216   3.237   6.541   6.115 -0.5623 -0.1909 -0.0253
   94SAPS  O13A 9217   3.220   6.420   6.099  0.1278 -0.2773  0.2179
   94SAPS  O13B 9218   3.143   6.623   6.140 -0.6371 -0.2057  0.1592
   94SAPS   C11 9219   3.430   6.690   6.212  0.8138  0.5276 -0.1676
   94SAPS  H11A 9220   3.426   6.626   6.303 -1.1001  1.0814  0.1861
   94SAPS  H11B 9221   3.351   6.763   6.240 -0.1219 -0.1773 -0.8913
   94SAPS     P 9222   3.591   6.898   6.214  0.0864 -0.6603  0.2860
   94SAPS   O13 9223   3.735   6.917   6.263 -0.0430  0.3007 -0.3254
   94SAPS   O14 9224   3.547   6.967   6.086 -0.2231 -0.3737 -0.6248
   94SAPS   O12 9225   3.561   6.745   6.194  0.2693  0.1629 -0.4717
   94SAPS   O11 9226   3.484   6.926   6.327  0.4330 -0.2127 -0.5522
   94SAPS    C1 9227   3.458   7.061   6.379 -0.0475  0.8581 -0.7299
   94SAPS    HA 9228   3.554   7.113   6.400  0.1615  0.3107 -0.3268
   94SAPS    HB 9229   3.399   7.121   6.306 -1.1990  1.0557  0.3277
   94SAPS    C2 9230   3.374   7.064   6.513 -0.5791  0.0943 -0.4042
   94SAPS    HS 9231   3.360   7.173   6.525  1.9836  0.4672 -0.2210
   94SAPS   O21 9232   3.454   6.999   6.613  0.1479  0.0583  0.6815
   94SAPS   C21 9233   3.438   7.065   6.731  0.3528  0.3871  0.0231
   94SAPS   O22 9234   3.394   7.179   6.745  0.2939 -0.0855 -0.1774
   94SAPS   C22 9235   3.481   6.974   6.843  0.4812  0.1104  0.1702
   94SAPS   H2R 9236   3.394   6.906   6.856  0.7331 -0.2222  0.1307
   94SAPS   H2S 9237   3.575   6.923   6.812  0.5649 -1.0395  2.1046
   94SAPS    C3 9238   3.231   6.999   6.501  0.3129  0.3443  0.5486
   94SAPS    HX 9239   3.246   6.891   6.480 -1.3381  0.0640  0.6704
   94SAPS    HY 9240   3.185   7.033   6.406  0.4076  0.2915  0.4829
   94SAPS   O31 9241   3.151   7.017   6.622 -0.3155 -0.1243 -0.1986
   94SAPS   C31 9242   3.081   7.131   6.637  0.5828  0.0486  0.2579
   94SAPS   O32 9243   3.078   7.224   6.555  0.8596 -0.3270  0.0017
   94SAPS   C32 9244   3.008   7.132   6.770  0.1793 -0.2377  0.4919
   94SAPS   H2X 9245   3.061   7.102   6.863  0.3960  0.9356  0.7545
   94SAPS   H2Y 9246   2.914   7.071   6.766 -0.9653  1.4302  1.1118
   94SAPS   C23 9247   3.495   7.057   6.971 -0.4946  0.4821  0.4666
   94SAPS   H3R 9248   3.395   7.093   7.003 -2.5550 -2.9594 -1.5358
   94SAPS   H3S 9249   3.558   7.145   6.948  1.7336 -1.4499 -1.3220
   94SAPS   C24 9250   3.557   6.977   7.095 -0.3037  0.4105 -0.1473
   94SAPS   H4R 9251   3.567   7.042   7.185 -2.5342 -0.2739  0.6843
   94SAPS   H4S 9252   3.660   6.941   7.075 -0.1158 -1.4537  3.3074
   94SAPS   C25 9253   3.475   6.862   7.139 -0.4082  0.4863 -0.1063
   94SAPS   H5R 9254   3.500   6.775   7.078  0.7840  2.0056 -1.9175
   94SAPS   C26 9255   3.371   6.869   7.229 -0.0102  0.2563 -1.1053
   94SAPS   H6R 9256   3.317   6.774   7.245  1.0780 -0.1440  0.4568
   94SAPS   C27 9257   3.312   6.987   7.304 -0.5042  0.5134 -0.0569
   94SAPS   H7R 9258   3.359   7.078   7.260  2.2655 -1.4764 -1.5109
   94SAPS   H7S 9259   3.350   6.977   7.408 -0.8433 -3.4485 -0.1621
   94SAPS   C28 9260   3.166   7.001   7.288  0.5673  0.5154  0.8068
   94SAPS   H8R 9261   3.126   7.021   7.188  2.4451 -1.9886 -0.5470
   94SAPS   C29 9262   3.072   6.983   7.382  0.8641  1.1064 -0.7582
   94SAPS   H9R 9263   2.967   6.973   7.353  0.3470  0.0708  1.2737
   94SAPS  C210 9264   3.080   6.944   7.531  0.4104 -0.3464 -0.2516
   94SAPS  H10R 9265   3.149   6.857   7.535  1.4873  0.3842 -1.7678
   94SAPS  H10S 9266   2.981   6.909   7.567  0.7503  0.3023  1.3965
   94SAPS  C211 9267   3.122   7.057   7.619  0.1699  0.0584  0.4079
   94SAPS  H11R 9268   3.158   7.143   7.560  1.9543 -0.6084  0.4564
   94SAPS  C212 9269   3.142   7.048   7.751  0.3394 -1.0787 -0.4227
   94SAPS  H12R 9270   3.167   7.142   7.803 -0.3686  0.1183 -2.1299
   94SAPS  C213 9271   3.109   6.931   7.840  0.6516 -0.4508  0.2947
   94SAPS  H13R 9272   3.191   6.864   7.871 -0.9597 -1.4451  2.6748
   94SAPS  H13S 9273   3.038   6.875   7.776  0.8632 -1.4308  0.9127
   94SAPS  C214 9274   3.034   6.967   7.965  0.9991 -0.1305 -0.3619
   94SAPS  H14R 9275   2.960   7.047   7.951 -1.0091 -2.0267 -1.1343
   94SAPS  C215 9276   3.048   6.918   8.094 -0.3475 -0.2868  0.1356
   94SAPS  H15R 9277   2.972   6.947   8.168 -0.1029 -3.8222  1.9868
   94SAPS  C216 9278   3.135   6.812   8.146  0.3725 -0.1096  0.1195
   94SAPS  H16R 9279   3.206   6.859   8.217  0.0165  0.7643 -0.0919
   94SAPS  H16S 9280   3.195   6.763   8.067  1.5654  2.4669 -0.6739
   94SAPS  C217 9281   3.050   6.702   8.214  0.3624  0.2535  0.6287
   94SAPS  H17R 9282   3.101   6.606   8.236 -1.9439 -0.7286  1.9493
   94SAPS  H17S 9283   2.966   6.672   8.148 -0.7445 -0.0663  2.1380
   94SAPS  C218 9284   2.992   6.749   8.351  0.0009 -0.2017 -0.0595
   94SAPS  H18R 9285   2.923   6.834   8.335 -0.1670  0.0924  1.8968
   94SAPS  H18S 9286   3.081   6.782   8.409 -0.6299 -0.6929  1.2515
   94SAPS  C219 9287   2.931   6.637   8.437 -0.5747 -0.1016 -0.1762
   94SAPS  H19R 9288   3.002   6.552   8.433 -0.6453 -0.1507 -0.3685
   94SAPS  H19S 9289   2.836   6.609   8.388  0.9439 -0.8048 -2.9506
   94SAPS  C220 9290   2.897   6.681   8.578  0.3586  0.5560  0.3385
   94SAPS  H20R 9291   2.988   6.721   8.626  0.0155 -0.8403  2.2810
   94SAPS  H20S 9292   2.871   6.591   8.637  0.0376  0.4926  0.1038
   94SAPS  H20T 9293   2.824   6.765   8.575  1.0553  1.1820  0.5093
   94SAPS   C33 9294   2.964   7.281   6.798 -0.4739  0.2970 -0.0034
   94SAPS   H3X 9295   2.885   7.302   6.873 -2.4305 -0.8345 -1.6427
   94SAPS   H3Y 9296   2.905   7.324   6.714 -0.3356  2.2441  0.8677
   94SAPS   C34 9297   3.078   7.375   6.831 -0.9824 -0.6644 -0.6345
   94SAPS   H4X 9298   3.049   7.483   6.826 -3.0968 -1.2422 -2.1364
   94SAPS   H4Y 9299   3.145   7.367   6.743 -3.3164  0.7880 -2.6928
   94SAPS   C35 9300   3.161   7.361   6.965 -0.0651  0.2204 -0.2225
   94SAPS   H5X 9301   3.251   7.426   6.965  0.9935 -1.1661  1.1732
   94SAPS   H5Y 9302   3.213   7.263   6.972  0.2526  0.5161  2.1893
   94SAPS   C36 9303   3.080   7.383   7.089 -0.5493 -0.2612 -0.3355
   94SAPS   H6X 9304   3.000   7.306   7.086 -0.8629  0.0447  0.0481
   94SAPS   H6Y 9305   3.030   7.482   7.097 -2.1607 -0.9980 -0.9760
   94SAPS   C37 9306   3.166   7.377   7.222 -0.2369 -0.0758 -0.5871
   94SAPS   H7X 9307   3.264   7.423   7.200  0.2472 -1.9416 -2.7579
   94SAPS   H7Y 9308   3.184   7.269   7.240  0.1481 -0.0896 -1.0502
   94SAPS   C38 9309   3.085   7.442   7.337  0.2657  0.2476 -0.0501
   94SAPS   H8X 9310   2.988   7.389   7.347 -1.6337  3.0108 -2.1806
   94SAPS   H8Y 9311   3.053   7.543   7.304  0.1503 -0.1433 -1.1808
   94SAPS   C39 9312   3.153   7.448   7.474 -0.0253 -0.2800  0.1826
   94SAPS   H9X 9313   3.252   7.497   7.463 -0.1810 -0.1337 -0.6236
   94SAPS   H9Y 9314   3.169   7.340   7.495 -0.1952 -0.2832  0.2933
   94SAPS  C310 9315   3.066   7.510   7.580  0.3156  0.6494 -0.8165
   94SAPS  H10X 9316   2.967   7.462   7.566  2.3372 -4.2127 -0.6449
   94SAPS  H10Y 9317   3.052   7.618   7.558 -0.7242  0.8748  0.8074
   94SAPS  C311 9318   3.120   7.484   7.725  0.4809 -0.6727 -0.3085
   94SAPS  H11X 9319   3.230   7.498   7.731  0.2564  0.9145  0.7444
   94SAPS  H11Y 9320   3.104   7.376   7.744  1.6703 -0.6505  0.9584
   94SAPS  C312 9321   3.056   7.582   7.827  0.1531 -0.1589 -1.4562
   94SAPS  H12X 9322   2.945   7.581   7.829  0.0837 -2.2256  1.9418
   94SAPS  H12Y 9323   3.091   7.683   7.796  0.1754  0.1016 -0.5917
   94SAPS  C313 9324   3.093   7.548   7.975 -0.1656  0.6225 -0.7076
   94SAPS  H13X 9325   3.054   7.629   8.040  1.2032 -0.0625  1.0814
   94SAPS  H13Y 9326   3.202   7.560   7.994 -0.2618 -0.0540  0.4057
   94SAPS  C314 9327   3.054   7.407   8.022 -0.0535 -0.0546  0.3336
   94SAPS  H14X 9328   3.132   7.342   7.977  0.1438  0.7455 -0.5119
   94SAPS  H14Y 9329   2.958   7.376   7.975  1.4624 -0.4068 -2.7531
   94SAPS  C315 9330   3.050   7.400   8.177  0.0110  1.1198 -0.3622
   94SAPS  H15X 9331   2.960   7.446   8.222 -0.5181  0.5359 -0.8012
   94SAPS  H15Y 9332   3.131   7.460   8.222 -0.2218  0.2324  1.3301
   94SAPS  C316 9333   3.032   7.258   8.223  0.3325 -0.0576  0.0453
   94SAPS  H16X 9334   3.129   7.205   8.219  0.6722  0.6087 -0.7350
   94SAPS  H16Y 9335   2.962   7.203   8.157  1.2154 -2.9946  1.3980
   94SAPS  C317 9336   2.976   7.239   8.368  0.0623  0.7979  0.9433
   94SAPS  H17X 9337   2.978   7.128   8.382  0.4081  0.9197  1.9176
   94SAPS  H17Y 9338   2.871   7.277   8.363 -0.3067 -0.0833  1.6019
   94SAPS  C318 9339   3.057   7.312   8.475 -0.5608 -0.5460 -0.5857
   94SAPS  H18X 9340   2.998   7.305   8.569  2.3454  0.3688  1.4495
   94SAPS  H18Y 9341   3.067   7.416   8.438 -2.6436 -0.0522  0.1039
   94SAPS  H18Z 9342   3.161   7.286   8.503 -1.5224 -1.1030  3.0322
   95SAPS     N 9343   6.654   5.554   6.187  0.6087  0.2386  0.3042
   95SAPS   HN1 9344   6.746   5.584   6.224  1.0443 -1.4883  0.7227
   95SAPS   HN2 9345   6.676   5.528   6.088 -2.4694 -0.0510 -0.4100
   95SAPS   HN3 9346   6.600   5.642   6.180  1.5780  0.9127  1.1477
   95SAPS   C12 9347   6.595   5.458   6.273  0.6174 -0.6040 -0.0799
   95SAPS  H12A 9348   6.492   5.473   6.244  1.5494  1.2828 -2.9073
   95SAPS   C13 9349   6.647   5.317   6.250 -0.6330  0.5638  0.1067
   95SAPS  O13A 9350   6.741   5.294   6.169  0.5311 -0.0739 -0.2255
   95SAPS  O13B 9351   6.597   5.233   6.329  0.0881  0.0426 -0.0055
   95SAPS   C11 9352   6.627   5.507   6.424  0.3721  0.6823  0.1380
   95SAPS  H11A 9353   6.736   5.493   6.440  0.5109 -1.4019 -2.1210
   95SAPS  H11B 9354   6.574   5.443   6.498 -1.8082  3.3604  1.1137
   95SAPS     P 9355   6.457   5.704   6.477  0.1296  0.2760  0.0971
   95SAPS   O13 9356   6.468   5.849   6.504 -0.2501  0.6914 -0.5901
   95SAPS   O14 9357   6.370   5.667   6.364 -0.1369  0.5655 -0.1148
   95SAPS   O12 9358   6.603   5.648   6.444  0.4547 -0.2698  0.0276
   95SAPS   O11 9359   6.427   5.630   6.614  0.0589  0.1510 -0.6304
   95SAPS    C1 9360   6.494   5.660   6.738  0.7697 -0.0124 -0.0284
   95SAPS    HA 9361   6.596   5.619   6.728  2.4560  2.6324  3.8282
   95SAPS    HB 9362   6.506   5.770   6.753 -0.7092  0.2993 -0.8546
   95SAPS    C2 9363   6.405   5.605   6.852  0.0978 -0.7051  0.3647
   95SAPS    HS 9364   6.448   5.647   6.946 -2.4378  0.9270  0.8789
   95SAPS   O21 9365   6.409   5.464   6.845 -0.5330 -0.0861 -0.3606
   95SAPS   C21 9366   6.526   5.414   6.888  0.8603 -0.3318 -0.3075
   95SAPS   O22 9367   6.619   5.482   6.921 -0.5623  0.7360 -0.3473
   95SAPS   C22 9368   6.501   5.268   6.901  0.4472 -0.0196 -0.3644
   95SAPS   H2R 9369   6.442   5.228   6.815  0.7759 -1.3084 -0.0106
   95SAPS   H2S 9370   6.602   5.222   6.910  0.2903 -0.1547  0.7953
   95SAPS    C3 9371   6.261   5.656   6.847 -0.4740  0.2090  0.0683
   95SAPS    HX 9372   6.217   5.639   6.746 -3.2155  1.7062  0.9026
   95SAPS    HY 9373   6.256   5.767   6.845  0.6467  0.2764 -1.7635
   95SAPS   O31 9374   6.170   5.593   6.939 -0.0108 -0.2653  0.4492
   95SAPS   C31 9375   6.155   5.650   7.059 -0.4335 -0.0296 -0.1872
   95SAPS   O32 9376   6.236   5.731   7.106 -0.8969 -0.4582  0.0706
   95SAPS   C32 9377   6.021   5.595   7.120  0.0890 -0.0651  0.7092
   95SAPS   H2X 9378   6.041   5.493   7.158  2.8095  0.2771  0.3682
   95SAPS   H2Y 9379   5.955   5.593   7.031  1.1485  3.2504 -0.3129
   95SAPS   C23 9380   6.404   5.245   7.025 -0.3733  0.0745 -0.0285
   95SAPS   H3R 9381   6.369   5.139   7.026 -1.7784  0.5182 -0.2429
   95SAPS   H3S 9382   6.319   5.316   7.033  0.0004  0.6145 -0.8025
   95SAPS   C24 9383   6.477   5.244   7.169  0.2662 -0.1035  0.4322
   95SAPS   H4R 9384   6.389   5.236   7.235 -0.4612  0.9758 -0.3704
   95SAPS   H4S 9385   6.525   5.341   7.194  0.6134  0.1099 -0.9609
   95SAPS   C25 9386   6.572   5.132   7.195  0.2725  0.3340  0.4888
   95SAPS   H5R 9387   6.655   5.126   7.124  1.3605  1.9461  1.5359
   95SAPS   C26 9388   6.572   5.048   7.300 -0.0902  0.1485 -0.9197
   95SAPS   H6R 9389   6.656   4.977   7.307  0.2402  0.5710 -0.5417
   95SAPS   C27 9390   6.481   5.048   7.422  0.1126  0.3862  0.7451
   95SAPS   H7R 9391   6.414   5.136   7.426 -1.6739 -0.8801  0.2430
   95SAPS   H7S 9392   6.541   5.052   7.515  1.5895  3.6076 -0.1992
   95SAPS   C28 9393   6.384   4.931   7.412 -0.3431 -0.7541 -0.9073
   95SAPS   H8R 9394   6.348   4.899   7.313  1.7120  0.3982 -2.0923
   95SAPS   C29 9395   6.328   4.863   7.516 -0.0687  0.0005 -0.4266
   95SAPS   H9R 9396   6.252   4.785   7.500  0.3388 -0.6636  0.7424
   95SAPS  C210 9397   6.364   4.877   7.668 -0.0140 -0.4578 -0.2901
   95SAPS  H10R 9398   6.369   4.983   7.701 -1.4353 -0.8997  1.4663
   95SAPS  H10S 9399   6.462   4.827   7.679  2.0578  2.2767 -4.0003
   95SAPS  C211 9400   6.273   4.788   7.751  0.5783  0.3008 -0.4322
   95SAPS  H11R 9401   6.294   4.681   7.741 -1.2840  0.0998 -3.1475
   95SAPS  C212 9402   6.180   4.831   7.841  0.1145  0.3411 -0.0775
   95SAPS  H12R 9403   6.113   4.766   7.900 -0.3561  1.1803  0.3370
   95SAPS  C213 9404   6.140   4.975   7.865 -0.2477  0.3312  0.3110
   95SAPS  H13R 9405   6.145   5.031   7.769  1.4469  0.3636  0.3722
   95SAPS  H13S 9406   6.215   5.025   7.930 -0.6404 -1.5591  2.3505
   95SAPS  C214 9407   6.006   5.009   7.928  0.1251 -0.5741  0.1550
   95SAPS  H14R 9408   5.939   5.052   7.852  0.0287 -0.4282  0.3224
   95SAPS  C215 9409   5.958   4.983   8.048  0.1084 -0.1518 -0.3962
   95SAPS  H15R 9410   5.858   5.001   8.089  0.5678  1.3737  0.1049
   95SAPS  C216 9411   6.034   4.915   8.158  0.1405 -0.0109 -0.3348
   95SAPS  H16R 9412   6.135   4.886   8.122  0.1639  0.4527 -0.6459
   95SAPS  H16S 9413   5.983   4.820   8.188 -0.6914  0.3122 -0.6754
   95SAPS  C217 9414   6.043   5.005   8.285  0.1063  0.3633  0.0063
   95SAPS  H17R 9415   5.954   5.071   8.291  0.2251  0.4135  1.8218
   95SAPS  H17S 9416   6.130   5.074   8.289 -2.2577  3.5377  2.4902
   95SAPS  C218 9417   6.047   4.922   8.419  1.0310 -0.1439 -0.6440
   95SAPS  H18R 9418   5.946   4.891   8.452  0.9458  0.7782 -0.0118
   95SAPS  H18S 9419   6.083   5.003   8.486  0.1156 -1.1674  1.1871
   95SAPS  C219 9420   6.152   4.810   8.402 -0.4370 -0.1458  0.1165
   95SAPS  H19R 9421   6.225   4.841   8.324  2.0934 -0.0874  2.3863
   95SAPS  H19S 9422   6.101   4.714   8.379 -0.6234 -0.3075  1.1625
   95SAPS  C220 9423   6.224   4.790   8.529 -0.5431 -0.0016  0.4905
   95SAPS  H20R 9424   6.267   4.887   8.562 -1.3775  0.4958  0.1602
   95SAPS  H20S 9425   6.312   4.723   8.519 -0.4971  0.2582 -1.2790
   95SAPS  H20T 9426   6.151   4.741   8.597 -1.3819 -0.7044 -0.8689
   95SAPS   C33 9427   5.960   5.692   7.232 -0.5270  1.0766 -0.2197
   95SAPS   H3X 9428   5.851   5.674   7.249 -0.1155  0.1661  1.6723
   95SAPS   H3Y 9429   5.965   5.796   7.193 -0.5061  0.3391 -2.3285
   95SAPS   C34 9430   6.032   5.664   7.371 -0.3813 -0.3187  0.4534
   95SAPS   H4X 9431   6.140   5.685   7.357 -0.7814  1.3726 -0.3303
   95SAPS   H4Y 9432   6.027   5.556   7.395 -2.9253 -0.0800  1.3895
   95SAPS   C35 9433   5.971   5.756   7.479 -0.1745  0.0801 -0.8440
   95SAPS   H5X 9434   5.864   5.726   7.487  0.3738 -1.6577  0.4453
   95SAPS   H5Y 9435   5.968   5.862   7.446  0.1910 -0.0141 -1.1900
   95SAPS   C36 9436   6.033   5.743   7.620 -0.1164 -0.0185  0.6092
   95SAPS   H6X 9437   6.058   5.638   7.647 -0.4562  0.0111  1.0504
   95SAPS   H6Y 9438   5.956   5.785   7.688 -2.6527 -3.3488  0.0962
   95SAPS   C37 9439   6.151   5.842   7.656 -0.0138 -0.9668  0.0808
   95SAPS   H7X 9440   6.148   5.935   7.595  3.3334 -1.4403 -1.0092
   95SAPS   H7Y 9441   6.248   5.804   7.617  1.5159  0.4817  2.2143
   95SAPS   C38 9442   6.161   5.880   7.805  0.2248 -0.3352  0.4700
   95SAPS   H8X 9443   6.062   5.923   7.831  0.9180  0.9523  1.0600
   95SAPS   H8Y 9444   6.246   5.949   7.820  0.7704 -0.3840 -1.9734
   95SAPS   C39 9445   6.199   5.754   7.896 -0.1050  0.0506  0.0900
   95SAPS   H9X 9446   6.294   5.715   7.853 -0.5023 -0.4419 -0.3494
   95SAPS   H9Y 9447   6.129   5.668   7.899  1.9723 -1.6819  1.5157
   95SAPS  C310 9448   6.219   5.788   8.046 -0.1101  0.0623 -0.0536
   95SAPS  H10X 9449   6.239   5.692   8.098 -0.5622  1.2393  2.4155
   95SAPS  H10Y 9450   6.131   5.835   8.093 -0.0846  1.8121 -1.6094
   95SAPS  C311 9451   6.334   5.884   8.074  0.2871 -0.4819  0.1002
   95SAPS  H11X 9452   6.304   5.985   8.039  1.4147 -0.3585 -0.5527
   95SAPS  H11Y 9453   6.419   5.837   8.020  1.5279 -1.5654  2.8263
   95SAPS  C312 9454   6.371   5.881   8.222 -0.5995  0.0922 -0.1981
   95SAPS  H12X 9455   6.410   5.779   8.244 -0.0635  0.2089 -0.5863
   95SAPS  H12Y 9456   6.276   5.876   8.279 -0.1302 -2.7063  0.5378
   95SAPS  C313 9457   6.470   5.982   8.268  0.0209  0.1400  0.0814
   95SAPS  H13X 9458   6.462   6.080   8.215  2.1987  1.5738  2.1905
   95SAPS  H13Y 9459   6.568   5.938   8.238 -1.7281 -2.7847 -1.7546
   95SAPS  C314 9460   6.465   6.002   8.420 -0.4462  0.0685 -0.0139
   95SAPS  H14X 9461   6.488   5.913   8.482  0.8274  0.2572 -0.1987
   95SAPS  H14Y 9462   6.356   6.017   8.435 -0.3394  2.5670 -1.2729
   95SAPS  C315 9463   6.518   6.136   8.477  0.4150  0.1566 -0.4602
   95SAPS  H15X 9464   6.461   6.160   8.569 -1.6927  0.5426 -1.7973
   95SAPS  H15Y 9465   6.494   6.213   8.400  0.9765  1.3336  0.5181
   95SAPS  C316 9466   6.673   6.137   8.513  0.4556 -0.3916 -0.3686
   95SAPS  H16X 9467   6.730   6.150   8.419  0.5410  0.1565 -0.2426
   95SAPS  H16Y 9468   6.696   6.039   8.561 -0.9097 -0.6562 -0.2041
   95SAPS  C317 9469   6.709   6.251   8.616  0.0019 -0.2741  0.7643
   95SAPS  H17X 9470   6.638   6.239   8.701 -2.9089 -2.0554 -1.7499
   95SAPS  H17Y 9471   6.684   6.341   8.556  0.2631 -0.4258  0.4280
   95SAPS  C318 9472   6.854   6.268   8.654  0.9620 -0.3791 -0.1779
   95SAPS  H18X 9473   6.914   6.231   8.569  1.7146 -0.5292  0.4054
   95SAPS  H18Y 9474   6.874   6.207   8.745 -0.7480  0.9408  1.1496
   95SAPS  H18Z 9475   6.870   6.373   8.687 -0.1338 -0.9149  2.3041
   96SAPS     N 9476   0.122   5.766   6.516 -0.4191  0.2252  0.6457
   96SAPS   HN1 9477   0.117   5.837   6.592  0.4871 -2.2054  3.1092
   96SAPS   HN2 9478   0.037   5.708   6.505  0.9161 -1.6325 -0.3145
   96SAPS   HN3 9479   0.204   5.712   6.550 -1.0961 -1.8211 -0.7892
   96SAPS   C12 9480   0.151   5.826   6.386 -0.2896 -0.5502  0.6837
   96SAPS  H12A 9481   0.248   5.870   6.403 -0.9771  1.7551 -0.9171
   96SAPS   C13 9482   0.164   5.717   6.278  0.3467  0.0430 -0.2736
   96SAPS  O13A 9483   0.153   5.595   6.313  0.0847  0.2574  0.3886
   96SAPS  O13B 9484   0.173   5.746   6.160  0.4063  0.4280 -0.0834
   96SAPS   C11 9485   0.040   5.932   6.350 -0.0515 -0.2608 -1.1224
   96SAPS  H11A 9486  -0.058   5.880   6.355  0.0852 -0.3642  0.9277
   96SAPS  H11B 9487   0.055   5.971   6.247 -1.1796 -0.2599 -1.3028
   96SAPS     P 9488   0.124   6.171   6.428 -0.1773  0.3658  0.1002
   96SAPS   O13 9489   0.234   6.140   6.339  0.0879  0.0761 -0.1681
   96SAPS   O14 9490   0.029   6.275   6.385  0.0647 -0.6160 -0.3575
   96SAPS   O12 9491   0.029   6.041   6.452 -0.4064 -0.7319 -0.6423
   96SAPS   O11 9492   0.180   6.204   6.567  0.3078  0.1670 -0.2222
   96SAPS    C1 9493   0.128   6.287   6.662  0.1758  0.1388  0.0281
   96SAPS    HA 9494   0.090   6.378   6.611 -1.2595 -0.0418  0.7228
   96SAPS    HB 9495   0.049   6.232   6.717  1.7575 -0.9857  1.2731
   96SAPS    C2 9496   0.244   6.324   6.768 -0.4189  0.1781  0.5657
   96SAPS    HS 9497   0.299   6.231   6.792  0.2825  0.6429  0.8027
   96SAPS   O21 9498   0.202   6.387   6.884 -0.1430  0.5044  0.4260
   96SAPS   C21 9499   0.114   6.320   6.954  0.5178 -0.3464  0.2163
   96SAPS   O22 9500   0.093   6.202   6.950 -0.4230  0.3736 -0.3045
   96SAPS   C22 9501   0.055   6.417   7.060  0.2078  0.3673  0.4021
   96SAPS   H2R 9502   0.128   6.474   7.122 -0.6307 -0.2702  2.0230
   96SAPS   H2S 9503  -0.001   6.494   7.003  2.3655  1.6295 -0.1375
   96SAPS    C3 9504   0.356   6.420   6.695 -0.1166  0.3232  0.3916
   96SAPS    HX 9505   0.293   6.495   6.643 -0.5998 -1.3345 -1.5477
   96SAPS    HY 9506   0.407   6.363   6.615  0.6771  0.3591  0.8671
   96SAPS   O31 9507   0.457   6.466   6.787  0.4908 -0.0422  0.2569
   96SAPS   C31 9508   0.422   6.572   6.866 -0.2182 -0.3342 -0.2421
   96SAPS   O32 9509   0.321   6.639   6.844 -0.1377 -0.1823 -0.4948
   96SAPS   C32 9510   0.518   6.590   6.985 -0.0849 -0.0244 -0.0551
   96SAPS   H2X 9511   0.570   6.687   6.969 -1.9460  1.0781  0.2536
   96SAPS   H2Y 9512   0.592   6.508   6.974 -0.0051  0.1949 -1.2806
   96SAPS   C23 9513  -0.047   6.348   7.157  0.2497 -0.1776 -0.6340
   96SAPS   H3R 9514   0.012   6.274   7.214  0.2498 -0.5151 -1.0626
   96SAPS   H3S 9515  -0.124   6.296   7.096 -0.1519 -0.2618 -0.0558
   96SAPS   C24 9516  -0.094   6.459   7.249 -0.0259  0.3281  0.1279
   96SAPS   H4R 9517  -0.124   6.547   7.188  2.1210 -0.0762 -1.6242
   96SAPS   H4S 9518  -0.002   6.488   7.302  1.6338 -0.0804 -2.3470
   96SAPS   C25 9519  -0.190   6.400   7.347  0.3128  0.0707  0.2880
   96SAPS   H5R 9520  -0.175   6.294   7.372 -0.0673 -1.2422 -4.2394
   96SAPS   C26 9521  -0.303   6.466   7.384 -0.2950  1.0802 -0.0437
   96SAPS   H6R 9522  -0.369   6.412   7.454  0.9996  0.0952  0.4580
   96SAPS   C27 9523  -0.352   6.602   7.346 -0.1796  0.1871  0.3681
   96SAPS   H7R 9524  -0.463   6.606   7.352 -0.5404 -2.2074 -2.1937
   96SAPS   H7S 9525  -0.332   6.615   7.237 -2.8224  1.4934 -0.0442
   96SAPS   C28 9526  -0.284   6.721   7.415 -0.4381 -0.1565  0.4350
   96SAPS   H8R 9527  -0.210   6.773   7.352 -1.3871 -0.2729 -0.7919
   96SAPS   C29 9528  -0.287   6.753   7.544 -0.0028  0.3076  0.1366
   96SAPS   H9R 9529  -0.234   6.844   7.575  0.5566  0.4506 -1.1758
   96SAPS  C210 9530  -0.353   6.684   7.660 -0.0223  0.1729  0.4381
   96SAPS  H10R 9531  -0.410   6.593   7.631  3.1222 -1.8332  0.1257
   96SAPS  H10S 9532  -0.426   6.742   7.720 -2.1060 -2.4113  0.6025
   96SAPS  C211 9533  -0.248   6.612   7.746  0.3032 -0.2495  0.4295
   96SAPS  H11R 9534  -0.164   6.552   7.709 -0.3993 -1.2229  0.3706
   96SAPS  C212 9535  -0.271   6.605   7.879 -0.7554 -0.0454 -0.0863
   96SAPS  H12R 9536  -0.191   6.549   7.930  0.6109  0.6823 -1.3410
   96SAPS  C213 9537  -0.396   6.654   7.954 -0.2233  0.2192  0.1173
   96SAPS  H13R 9538  -0.493   6.635   7.903 -1.6631  0.6646  2.5423
   96SAPS  H13S 9539  -0.391   6.765   7.954  1.7253  0.2175 -2.0468
   96SAPS  C214 9540  -0.392   6.608   8.094 -0.6200 -0.0165  0.4067
   96SAPS  H14R 9541  -0.408   6.500   8.105  1.0183 -0.9298 -4.1145
   96SAPS  C215 9542  -0.379   6.683   8.206 -0.0621 -0.3948  0.0731
   96SAPS  H15R 9543  -0.375   6.626   8.301  0.2997 -0.1047  0.2347
   96SAPS  C216 9544  -0.358   6.830   8.215 -0.3179  0.0362 -0.1167
   96SAPS  H16R 9545  -0.383   6.858   8.320 -1.0470  0.4437 -0.3969
   96SAPS  H16S 9546  -0.435   6.886   8.160 -0.1146 -0.3883 -0.8451
   96SAPS  C217 9547  -0.217   6.883   8.194  0.2351  0.5588 -0.5525
   96SAPS  H17R 9548  -0.207   6.988   8.230 -0.6666  1.5243 -2.9233
   96SAPS  H17S 9549  -0.205   6.878   8.084 -3.3680  0.6198 -1.0667
   96SAPS  C218 9550  -0.108   6.807   8.268  0.4807  0.1386 -0.4561
   96SAPS  H18R 9551  -0.012   6.818   8.213 -0.2763 -1.4562 -2.1850
   96SAPS  H18S 9552  -0.133   6.699   8.261  1.8371 -0.1752 -0.7327
   96SAPS  C219 9553  -0.094   6.832   8.416  0.2134  0.4160 -0.2016
   96SAPS  H19R 9554  -0.100   6.940   8.441  0.3434  0.1309  1.1524
   96SAPS  H19S 9555   0.010   6.802   8.440 -0.1243 -0.2023  0.5379
   96SAPS  C220 9556  -0.187   6.749   8.507  0.0212 -0.2193 -0.5726
   96SAPS  H20R 9557  -0.181   6.643   8.473 -0.2872 -0.3167 -0.3259
   96SAPS  H20S 9558  -0.292   6.784   8.520 -0.0374 -0.7968  0.5898
   96SAPS  H20T 9559  -0.140   6.763   8.607  1.2769  1.7833 -1.3856
   96SAPS   C33 9560   0.439   6.599   7.125  0.3040  0.4265  0.7372
   96SAPS   H3X 9561   0.353   6.529   7.132  1.0466 -0.3455  2.6281
   96SAPS   H3Y 9562   0.406   6.703   7.145 -0.2643 -0.0535  2.4419
   96SAPS   C34 9563   0.534   6.577   7.247  0.4930 -0.1787  0.5104
   96SAPS   H4X 9564   0.629   6.634   7.240 -1.3253  3.2881  1.6711
   96SAPS   H4Y 9565   0.551   6.467   7.257 -0.7761 -0.6437 -1.6838
   96SAPS   C35 9566   0.482   6.637   7.376  0.3057  0.0606  0.0820
   96SAPS   H5X 9567   0.377   6.601   7.380  0.2597  0.0019 -1.1431
   96SAPS   H5Y 9568   0.479   6.748   7.370  3.3153  0.3906  2.1429
   96SAPS   C36 9569   0.556   6.604   7.505 -0.0702  0.5298  0.4635
   96SAPS   H6X 9570   0.646   6.667   7.513  0.8187 -0.8058  1.4215
   96SAPS   H6Y 9571   0.603   6.504   7.505 -0.0494  0.4641  3.1364
   96SAPS   C37 9572   0.468   6.625   7.632 -0.1021  1.1800 -0.1218
   96SAPS   H7X 9573   0.387   6.550   7.626  1.3209 -0.4124 -0.2709
   96SAPS   H7Y 9574   0.431   6.729   7.617  0.1757  1.3006  0.0201
   96SAPS   C38 9575   0.544   6.603   7.762  0.4217 -0.5955 -0.4536
   96SAPS   H8X 9576   0.606   6.690   7.792  2.4133 -1.4549 -1.7926
   96SAPS   H8Y 9577   0.616   6.523   7.732 -1.9452 -2.4331 -1.6152
   96SAPS   C39 9578   0.450   6.562   7.873 -0.0653  0.2150 -0.1588
   96SAPS   H9X 9579   0.442   6.451   7.877  0.4083  0.1754 -0.2009
   96SAPS   H9Y 9580   0.350   6.606   7.856  0.0010  0.7208  0.7058
   96SAPS  C310 9581   0.494   6.608   8.013 -0.2180  0.1153  0.4358
   96SAPS  H10X 9582   0.479   6.717   8.029  0.6111  0.3688 -0.4450
   96SAPS  H10Y 9583   0.603   6.599   7.999 -0.2399  0.4063  0.0644
   96SAPS  C311 9584   0.455   6.533   8.144 -0.2820 -0.4396  0.3054
   96SAPS  H11X 9585   0.349   6.559   8.165  0.1476  2.0025 -0.2979
   96SAPS  H11Y 9586   0.516   6.575   8.227  2.2842 -0.5889 -1.4160
   96SAPS  C312 9587   0.473   6.379   8.137  0.2939  0.5522  0.1469
   96SAPS  H12X 9588   0.579   6.359   8.110 -0.1584 -1.0589 -0.5705
   96SAPS  H12Y 9589   0.416   6.345   8.048  1.5849  0.1478 -0.5598
   96SAPS  C313 9590   0.443   6.296   8.263  0.1326 -0.3057 -0.2874
   96SAPS  H13X 9591   0.451   6.190   8.232 -0.9542 -0.1191 -1.2713
   96SAPS  H13Y 9592   0.338   6.323   8.287 -0.3946 -0.2563 -2.4153
   96SAPS  C314 9593   0.524   6.329   8.395  1.1456 -0.2301  0.6079
   96SAPS  H14X 9594   0.476   6.268   8.475 -0.9766  2.6055  1.6610
   96SAPS  H14Y 9595   0.507   6.433   8.431  1.3074 -0.0591  0.2029
   96SAPS  C315 9596   0.675   6.305   8.380 -0.0742 -0.4747  0.1220
   96SAPS  H15X 9597   0.714   6.365   8.295  1.2152 -3.5373 -1.6367
   96SAPS  H15Y 9598   0.706   6.203   8.348  3.1791  0.4284  0.0379
   96SAPS  C316 9599   0.753   6.344   8.512 -0.0934  0.0638  0.0173
   96SAPS  H16X 9600   0.729   6.262   8.583  3.5338 -0.5580  0.7190
   96SAPS  H16Y 9601   0.720   6.435   8.566  0.3079 -1.6059  3.3204
   96SAPS  C317 9602   0.903   6.339   8.496 -0.4107  0.3403 -1.0101
   96SAPS  H17X 9603   0.934   6.417   8.423 -0.8889  2.0809  0.5553
   96SAPS  H17Y 9604   0.942   6.244   8.455 -0.4798  0.0365 -0.3771
   96SAPS  C318 9605   0.962   6.369   8.636 -0.4062 -0.4483  0.3514
   96SAPS  H18X 9606   0.934   6.470   8.671  3.5722 -0.0437  2.9743
   96SAPS  H18Y 9607   1.072   6.370   8.621 -0.6931  1.7433 -2.6800
   96SAPS  H18Z 9608   0.933   6.297   8.715 -1.2343 -1.3173 -0.7024
   97SAPS     N 9609   1.035   4.379   6.431 -0.0260  0.2137 -0.0918
   97SAPS   HN1 9610   0.937   4.412   6.442  0.7484  2.6272  0.1727
   97SAPS   HN2 9611   1.069   4.352   6.525  1.1625 -0.6626 -0.7490
   97SAPS   HN3 9612   1.075   4.470   6.400 -0.5373  0.0526 -1.3124
   97SAPS   C12 9613   1.045   4.277   6.321 -0.4085  0.0492  0.0345
   97SAPS  H12A 9614   1.008   4.185   6.365  0.2504  0.3419  1.2589
   97SAPS   C13 9615   0.968   4.316   6.190 -0.1196  0.9331  0.5091
   97SAPS  O13A 9616   0.942   4.437   6.171 -0.0378 -0.1351 -0.6013
   97SAPS  O13B 9617   0.980   4.226   6.100 -1.2223  0.4629 -0.0105
   97SAPS   C11 9618   1.195   4.245   6.299 -0.4750  0.3883  0.0607
   97SAPS  H11A 9619   1.249   4.342   6.298  1.6287 -0.7072  0.9659
   97SAPS  H11B 9620   1.205   4.184   6.206 -1.9188 -3.0514  1.9545
   97SAPS     P 9621   1.231   4.022   6.416  0.2136 -0.4574  0.4178
   97SAPS   O13 9622   1.086   3.971   6.406  0.2001  0.0164 -0.0512
   97SAPS   O14 9623   1.324   3.963   6.311 -0.0379  0.1118 -0.0427
   97SAPS   O12 9624   1.243   4.181   6.413 -0.1354  0.1052  0.5266
   97SAPS   O11 9625   1.286   3.989   6.559  0.4886  0.3752 -0.8469
   97SAPS    C1 9626   1.243   4.066   6.675 -0.1163 -0.9008  0.5376
   97SAPS    HA 9627   1.263   4.175   6.663  2.2703 -1.4785 -1.5022
   97SAPS    HB 9628   1.135   4.048   6.696 -0.4024  1.5094  1.4862
   97SAPS    C2 9629   1.321   4.016   6.804  0.2655 -0.2825  0.4298
   97SAPS    HS 9630   1.272   4.060   6.893 -0.8008 -0.6905  0.0581
   97SAPS   O21 9631   1.462   4.041   6.799  0.0233  0.2369 -0.2804
   97SAPS   C21 9632   1.504   4.161   6.822  0.2713  0.5345  0.0084
   97SAPS   O22 9633   1.427   4.253   6.847 -0.3912 -0.1481 -0.0239
   97SAPS   C22 9634   1.655   4.178   6.818  0.3880 -0.3040 -0.5381
   97SAPS   H2R 9635   1.707   4.082   6.840  2.0020  1.0678  2.1055
   97SAPS   H2S 9636   1.679   4.197   6.712  0.0944 -1.6404 -0.8680
   97SAPS    C3 9637   1.304   3.861   6.833 -0.3106  0.4904  0.1604
   97SAPS    HX 9638   1.379   3.817   6.764 -0.7703  1.5579 -1.0593
   97SAPS    HY 9639   1.197   3.838   6.815 -0.0295 -0.3554 -0.5052
   97SAPS   O31 9640   1.346   3.842   6.974 -0.0187 -0.2079 -0.2662
   97SAPS   C31 9641   1.253   3.828   7.065  0.8063  0.1508  0.0251
   97SAPS   O32 9642   1.130   3.831   7.040 -1.1112  0.7570 -0.1627
   97SAPS   C32 9643   1.320   3.792   7.192  0.3186 -0.3439 -0.4342
   97SAPS   H2X 9644   1.389   3.876   7.211 -0.1128  0.1550 -1.0523
   97SAPS   H2Y 9645   1.388   3.705   7.176  0.5961 -0.1568 -0.2813
   97SAPS   C23 9646   1.705   4.300   6.894  0.0485 -0.4276  0.0382
   97SAPS   H3R 9647   1.648   4.390   6.863 -0.9601 -1.4923 -1.2936
   97SAPS   H3S 9648   1.810   4.319   6.864 -0.0168 -0.7960 -0.4318
   97SAPS   C24 9649   1.704   4.277   7.047  0.3756 -0.3159 -0.5146
   97SAPS   H4R 9650   1.756   4.181   7.072 -0.4027 -1.7906 -3.9412
   97SAPS   H4S 9651   1.598   4.266   7.077  0.0852  1.7045 -0.7271
   97SAPS   C25 9652   1.765   4.395   7.121  0.0031  0.1658  0.0248
   97SAPS   H5R 9653   1.818   4.470   7.061 -1.3076  1.7838  0.8093
   97SAPS   C26 9654   1.775   4.390   7.254  0.0872 -0.5371 -0.3168
   97SAPS   H6R 9655   1.816   4.485   7.292 -0.8080  1.4713 -3.9234
   97SAPS   C27 9656   1.726   4.279   7.353 -1.2668  0.3651 -0.4719
   97SAPS   H7R 9657   1.798   4.250   7.433 -1.5373 -1.3466 -0.8052
   97SAPS   H7S 9658   1.707   4.182   7.302 -1.3901 -0.0395  0.3210
   97SAPS   C28 9659   1.597   4.325   7.419 -0.1018  0.1865 -0.1831
   97SAPS   H8R 9660   1.535   4.384   7.350 -1.7184  0.6942  1.6108
   97SAPS   C29 9661   1.554   4.328   7.547  0.5652  0.1274 -0.7665
   97SAPS   H9R 9662   1.458   4.374   7.575  0.1666 -0.5696 -0.9372
   97SAPS  C210 9663   1.639   4.264   7.653 -0.1719 -0.6944  0.8149
   97SAPS  H10R 9664   1.747   4.285   7.639 -0.2758  0.7707  2.0084
   97SAPS  H10S 9665   1.626   4.154   7.641  0.4354 -0.7454  0.5763
   97SAPS  C211 9666   1.600   4.311   7.793 -1.0869  0.1068  0.0705
   97SAPS  H11R 9667   1.595   4.420   7.802  2.2001  0.4148 -0.5234
   97SAPS  C212 9668   1.570   4.235   7.904  0.2619  0.0662  0.1150
   97SAPS  H12R 9669   1.536   4.284   7.996 -0.0404 -2.6575  1.5708
   97SAPS  C213 9670   1.580   4.090   7.917  0.1022  0.5030 -0.6525
   97SAPS  H13R 9671   1.689   4.070   7.918 -0.1692 -1.2079  1.1624
   97SAPS  H13S 9672   1.537   4.047   7.824  2.5941 -0.9475 -1.2237
   97SAPS  C214 9673   1.527   4.018   8.042  0.3515  0.7132  0.2489
   97SAPS  H14R 9674   1.442   3.951   8.023 -0.4080  1.7150  0.0642
   97SAPS  C215 9675   1.563   4.054   8.167  0.0485  0.2283  0.4271
   97SAPS  H15R 9676   1.514   3.997   8.247  1.4498 -0.5241  0.7843
   97SAPS  C216 9677   1.662   4.157   8.220  0.4776  0.3001 -0.6668
   97SAPS  H16R 9678   1.723   4.216   8.148  1.7913  0.9277  0.8762
   97SAPS  H16S 9679   1.726   4.094   8.286  1.0859  0.0040 -1.5307
   97SAPS  C217 9680   1.599   4.258   8.310  0.6753  0.0240 -0.6170
   97SAPS  H17R 9681   1.511   4.302   8.258  0.7268  1.1541  0.2069
   97SAPS  H17S 9682   1.660   4.348   8.333 -0.3015  0.4842  0.2771
   97SAPS  C218 9683   1.529   4.196   8.436 -0.3433 -0.4495  0.7326
   97SAPS  H18R 9684   1.591   4.124   8.493 -0.0047 -1.4393 -0.8416
   97SAPS  H18S 9685   1.430   4.148   8.418 -0.6959  0.3984  0.3480
   97SAPS  C219 9686   1.504   4.307   8.550  0.1404 -0.2757  0.4867
   97SAPS  H19R 9687   1.438   4.266   8.629  0.2517 -0.0129  0.7195
   97SAPS  H19S 9688   1.451   4.391   8.501  0.1838  0.1123  1.0836
   97SAPS  C220 9689   1.628   4.339   8.626  0.5510 -0.5440  0.4548
   97SAPS  H20R 9690   1.715   4.378   8.567 -0.1177  1.0863  0.4899
   97SAPS  H20S 9691   1.656   4.246   8.679 -1.4849 -0.5443  1.5901
   97SAPS  H20T 9692   1.613   4.414   8.706  0.4302 -1.8696  1.7114
   97SAPS   C33 9693   1.223   3.766   7.307 -0.0421 -0.6953 -0.1352
   97SAPS   H3X 9694   1.150   3.683   7.292 -3.4778  1.5328  2.6156
   97SAPS   H3Y 9695   1.164   3.860   7.310  1.2913  0.3100 -2.8514
   97SAPS   C34 9696   1.305   3.761   7.449 -0.0608  0.2124  0.7801
   97SAPS   H4X 9697   1.378   3.844   7.456 -1.3100  1.2333  2.1532
   97SAPS   H4Y 9698   1.348   3.658   7.442 -2.7327 -0.9894  0.9632
   97SAPS   C35 9699   1.208   3.772   7.565  0.1193 -0.2788  0.4161
   97SAPS   H5X 9700   1.119   3.710   7.545  0.5278 -0.3145 -1.5378
   97SAPS   H5Y 9701   1.174   3.878   7.577 -1.6044 -1.1009  4.5134
   97SAPS   C36 9702   1.271   3.735   7.701 -0.5009 -0.5830 -0.1490
   97SAPS   H6X 9703   1.366   3.791   7.713 -0.5033 -0.8414  1.1160
   97SAPS   H6Y 9704   1.303   3.629   7.701  0.7018 -0.2281 -0.0209
   97SAPS   C37 9705   1.176   3.756   7.820 -0.2547 -0.3295 -0.0523
   97SAPS   H7X 9706   1.081   3.701   7.803 -1.2183  0.9646  1.0113
   97SAPS   H7Y 9707   1.144   3.859   7.843  0.6395 -0.4929  2.1559
   97SAPS   C38 9708   1.238   3.727   7.948 -0.0139 -0.0657  0.7176
   97SAPS   H8X 9709   1.317   3.800   7.974  1.3137 -0.7208 -1.2563
   97SAPS   H8Y 9710   1.282   3.625   7.949  0.8589  0.2258 -1.6808
   97SAPS   C39 9711   1.126   3.706   8.063 -0.4272  0.1170 -0.0460
   97SAPS   H9X 9712   1.045   3.636   8.030 -0.5444 -0.2872  1.0381
   97SAPS   H9Y 9713   1.082   3.805   8.087 -1.3647 -0.6017  1.3560
   97SAPS  C310 9714   1.184   3.650   8.203 -0.0941  0.2265  0.7078
   97SAPS  H10X 9715   1.219   3.545   8.194  0.5594  0.5695 -1.1825
   97SAPS  H10Y 9716   1.091   3.650   8.263 -0.4994  3.2954  0.2135
   97SAPS  C311 9717   1.288   3.739   8.273 -0.6724  0.2446 -0.0683
   97SAPS  H11X 9718   1.258   3.844   8.291  0.4765  0.3260  1.6102
   97SAPS  H11Y 9719   1.383   3.743   8.216  0.8328 -0.4082  2.2604
   97SAPS  C312 9720   1.328   3.686   8.406 -0.3921  0.4766  0.0711
   97SAPS  H12X 9721   1.316   3.576   8.415 -0.4089  0.6728  4.9450
   97SAPS  H12Y 9722   1.254   3.721   8.481 -1.0915  0.9444 -0.8148
   97SAPS  C313 9723   1.465   3.717   8.456  0.0815  0.0878 -0.0181
   97SAPS  H13X 9724   1.509   3.818   8.444 -0.4449  0.1200 -2.0646
   97SAPS  H13Y 9725   1.537   3.658   8.395  0.4904  1.2869 -0.7106
   97SAPS  C314 9726   1.479   3.687   8.606 -0.0750  0.5924  1.0970
   97SAPS  H14X 9727   1.414   3.599   8.628  1.5240 -0.7950  0.4969
   97SAPS  H14Y 9728   1.429   3.765   8.666  0.5280  1.0445  1.0225
   97SAPS  C315 9729   1.621   3.660   8.659 -0.5484 -0.8046  0.6213
   97SAPS  H15X 9730   1.676   3.757   8.655  2.2102 -2.2995 -0.0891
   97SAPS  H15Y 9731   1.667   3.589   8.587  1.6763  0.2649  0.9018
   97SAPS  C316 9732   1.622   3.617   8.806 -0.0211 -0.5422 -0.2336
   97SAPS  H16X 9733   1.721   3.604   8.854  0.6365  0.9565 -1.1494
   97SAPS  H16Y 9734   1.564   3.523   8.819 -0.2815 -0.3705 -0.1359
   97SAPS  C317 9735   1.566   3.713   8.915  0.1918  0.1753 -0.0817
   97SAPS  H17X 9736   1.458   3.728   8.898  0.4793 -0.6814 -3.2576
   97SAPS  H17Y 9737   1.617   3.811   8.901  0.4111 -0.1434 -1.7965
   97SAPS  C318 9738   1.578   3.663   9.060 -1.1142  0.0714 -0.2099
   97SAPS  H18X 9739   1.518   3.570   9.073  0.5147 -0.8928  0.8103
   97SAPS  H18Y 9740   1.538   3.729   9.139 -0.2983 -0.6704  0.8434
   97SAPS  H18Z 9741   1.685   3.645   9.083 -0.6765  1.5488 -0.9890
   98SAPS     N 9742   5.643   3.439   5.882 -0.3603  0.6657 -0.2189
   98SAPS   HN1 9743   5.576   3.428   5.804 -0.7543  1.9015 -0.0848
   98SAPS   HN2 9744   5.651   3.536   5.918  1.9663  0.0497  1.2131
   98SAPS   HN3 9745   5.738   3.409   5.851  0.5496  2.8905  0.1816
   98SAPS   C12 9746   5.599   3.353   5.995 -0.7685  0.1429  0.2518
   98SAPS  H12A 9747   5.498   3.370   6.027 -1.0325 -1.3515  0.2555
   98SAPS   C13 9748   5.614   3.202   5.969 -0.2450 -0.5644 -0.1963
   98SAPS  O13A 9749   5.679   3.165   5.866  0.0524  0.4545 -0.1082
   98SAPS  O13B 9750   5.570   3.119   6.052 -0.3427 -0.8160  0.5692
   98SAPS   C11 9751   5.708   3.379   6.110 -0.0258  0.9389  0.8249
   98SAPS  H11A 9752   5.803   3.353   6.058 -0.3624 -0.6197  0.9358
   98SAPS  H11B 9753   5.692   3.299   6.185  0.5250 -0.8135 -0.8582
   98SAPS     P 9754   5.760   3.532   6.310  0.1856  0.3712 -0.0516
   98SAPS   O13 9755   5.901   3.486   6.309 -0.0101 -0.2255 -0.3633
   98SAPS   O14 9756   5.732   3.672   6.351  0.1899 -0.1458  0.1099
   98SAPS   O12 9757   5.694   3.509   6.169  0.0029  0.4061 -0.4396
   98SAPS   O11 9758   5.677   3.443   6.409  0.2822 -0.0417 -0.1192
   98SAPS    C1 9759   5.536   3.417   6.402  0.3156 -0.1285 -0.2608
   98SAPS    HA 9760   5.484   3.511   6.373 -0.9266 -1.2189 -1.7580
   98SAPS    HB 9761   5.518   3.345   6.319  1.2815 -0.2453 -0.3814
   98SAPS    C2 9762   5.481   3.353   6.533 -0.1375  0.2430 -0.1729
   98SAPS    HS 9763   5.378   3.317   6.514  0.2574 -0.7955 -0.3523
   98SAPS   O21 9764   5.488   3.461   6.630 -0.2972  0.8105 -0.0929
   98SAPS   C21 9765   5.403   3.449   6.729 -0.7653  0.2060 -0.2246
   98SAPS   O22 9766   5.325   3.360   6.748  0.0421 -0.4539 -0.3517
   98SAPS   C22 9767   5.440   3.559   6.834 -0.0815 -0.3466 -0.0390
   98SAPS   H2R 9768   5.547   3.556   6.863 -0.8889 -1.0629  3.3195
   98SAPS   H2S 9769   5.438   3.659   6.785 -1.4078 -1.5032 -2.5122
   98SAPS    C3 9770   5.570   3.229   6.577  0.1262  0.0388 -0.7708
   98SAPS    HX 9771   5.669   3.272   6.603 -0.6179  1.7963 -0.7162
   98SAPS    HY 9772   5.576   3.167   6.484  0.2655  0.4971 -1.0720
   98SAPS   O31 9773   5.502   3.151   6.682 -0.0987  0.4597  0.3926
   98SAPS   C31 9774   5.551   3.158   6.808 -0.4984  0.0420  0.2504
   98SAPS   O32 9775   5.651   3.226   6.835 -0.0341 -0.8108  0.0897
   98SAPS   C32 9776   5.467   3.074   6.906 -0.5994  0.6715  0.4891
   98SAPS   H2X 9777   5.443   2.984   6.845 -2.7818  1.3541  0.2567
   98SAPS   H2Y 9778   5.368   3.123   6.912 -2.0740 -1.9537 -0.5825
   98SAPS   C23 9779   5.354   3.559   6.960  0.2265 -0.0494  0.4963
   98SAPS   H3R 9780   5.348   3.455   6.999 -2.3912 -0.1765 -0.0806
   98SAPS   H3S 9781   5.250   3.575   6.925 -0.1096 -2.2608  0.3334
   98SAPS   C24 9782   5.412   3.655   7.070  0.0268  0.1671 -0.0191
   98SAPS   H4R 9783   5.334   3.649   7.149 -1.3423  1.7088 -1.1823
   98SAPS   H4S 9784   5.411   3.758   7.028  1.9816  1.6065  3.0522
   98SAPS   C25 9785   5.553   3.615   7.121  0.1679 -0.8759 -0.5507
   98SAPS   H5R 9786   5.631   3.655   7.054 -0.6660  1.1314 -0.4040
   98SAPS   C26 9787   5.588   3.559   7.242 -0.6703 -0.1780 -0.0136
   98SAPS   H6R 9788   5.693   3.533   7.260 -0.0616  0.8502 -1.8290
   98SAPS   C27 9789   5.492   3.530   7.346 -0.3422 -0.3368 -0.4347
   98SAPS   H7R 9790   5.490   3.420   7.364  4.0376 -0.3378  1.2467
   98SAPS   H7S 9791   5.389   3.566   7.325 -1.3313 -1.3450  2.1749
   98SAPS   C28 9792   5.522   3.591   7.483 -0.3712 -0.0345  0.6288
   98SAPS   H8R 9793   5.572   3.689   7.486 -2.9767  1.4132 -0.0819
   98SAPS   C29 9794   5.481   3.550   7.601 -0.4490  0.4508  0.2872
   98SAPS   H9R 9795   5.530   3.596   7.689  1.3222 -0.4722 -0.1603
   98SAPS  C210 9796   5.389   3.431   7.630  0.2636  0.3925 -0.1291
   98SAPS  H10R 9797   5.449   3.339   7.643  0.2015  0.4815  0.8489
   98SAPS  H10S 9798   5.314   3.417   7.548  1.8297 -0.4164 -1.4818
   98SAPS  C211 9799   5.302   3.439   7.757 -0.4920 -0.1593 -0.1335
   98SAPS  H11R 9800   5.206   3.493   7.750 -0.6855 -0.6973 -3.4525
   98SAPS  C212 9801   5.338   3.401   7.880  0.8164 -0.4024  0.1853
   98SAPS  H12R 9802   5.267   3.432   7.958 -0.5175  1.0551 -1.5272
   98SAPS  C213 9803   5.465   3.338   7.931 -0.4626  0.2850  0.3964
   98SAPS  H13R 9804   5.545   3.337   7.853  1.4989 -0.0003  2.3042
   98SAPS  H13S 9805   5.434   3.232   7.947 -3.0713  0.5474 -2.1105
   98SAPS  C214 9806   5.512   3.415   8.056  0.0500  0.3356 -0.0154
   98SAPS  H14R 9807   5.556   3.515   8.040 -0.0432  0.6622  1.6462
   98SAPS  C215 9808   5.485   3.376   8.179  0.2914 -0.6014  0.1663
   98SAPS  H15R 9809   5.510   3.446   8.261 -0.0199 -0.4807  0.1576
   98SAPS  C216 9810   5.415   3.250   8.229 -0.0173 -0.2576  0.2062
   98SAPS  H16R 9811   5.471   3.205   8.314  0.6539  1.8047  0.9168
   98SAPS  H16S 9812   5.426   3.170   8.153 -0.5611 -1.3976  1.2786
   98SAPS  C217 9813   5.268   3.263   8.275  0.1151  0.0824 -0.2601
   98SAPS  H17R 9814   5.205   3.296   8.189 -0.0733  2.2722  0.6368
   98SAPS  H17S 9815   5.255   3.346   8.348  1.1562 -0.5674  0.6790
   98SAPS  C218 9816   5.195   3.126   8.310  0.1877 -0.0276  0.2008
   98SAPS  H18R 9817   5.224   3.108   8.415  2.4976 -2.0719 -0.6975
   98SAPS  H18S 9818   5.246   3.049   8.248  1.0996  0.5141  0.2661
   98SAPS  C219 9819   5.039   3.107   8.299  0.4289  0.0516 -0.4168
   98SAPS  H19R 9820   4.989   3.200   8.332 -0.3900 -0.8646  1.0651
   98SAPS  H19S 9821   4.998   3.025   8.363 -0.5112 -0.4560 -1.6313
   98SAPS  C220 9822   4.987   3.073   8.157  0.3523 -0.0068  0.7348
   98SAPS  H20R 9823   4.877   3.075   8.147  0.4289  0.7433 -0.0075
   98SAPS  H20S 9824   5.017   2.973   8.120 -0.1013  0.8211 -2.0599
   98SAPS  H20T 9825   5.022   3.149   8.084  0.0625 -1.0448 -0.5190
   98SAPS   C33 9826   5.536   3.038   7.039 -0.6021  1.0986 -0.2625
   98SAPS   H3X 9827   5.581   3.128   7.087 -1.0694  1.6484 -0.8251
   98SAPS   H3Y 9828   5.622   2.973   7.015 -2.5051 -1.8839  0.4584
   98SAPS   C34 9829   5.433   2.974   7.130 -0.4137 -0.8739  0.0373
   98SAPS   H4X 9830   5.395   2.877   7.091 -1.1795 -2.4855  4.2147
   98SAPS   H4Y 9831   5.343   3.039   7.125 -0.5203 -0.8274  1.7589
   98SAPS   C35 9832   5.470   2.961   7.279 -0.8604  0.4938 -0.7628
   98SAPS   H5X 9833   5.449   3.055   7.335  0.3762  0.3291  0.0330
   98SAPS   H5Y 9834   5.578   2.938   7.285 -0.7980  1.0987  1.9552
   98SAPS   C36 9835   5.390   2.858   7.358  0.0448 -0.1662  0.7207
   98SAPS   H6X 9836   5.436   2.763   7.324  1.0603  0.4523  0.3201
   98SAPS   H6Y 9837   5.290   2.858   7.308  0.5348 -2.6850 -0.4402
   98SAPS   C37 9838   5.389   2.881   7.512 -0.6429 -0.4038  0.3256
   98SAPS   H7X 9839   5.321   2.809   7.562 -0.8753 -0.2715  0.2029
   98SAPS   H7Y 9840   5.334   2.977   7.518  1.2091  0.6252  1.6399
   98SAPS   C38 9841   5.525   2.902   7.577 -0.2620  0.2798 -0.2456
   98SAPS   H8X 9842   5.577   2.984   7.523  0.7326 -0.8466 -1.0685
   98SAPS   H8Y 9843   5.580   2.807   7.555 -0.9339 -0.1237 -0.2171
   98SAPS   C39 9844   5.513   2.928   7.725  0.0257 -0.2652  0.7743
   98SAPS   H9X 9845   5.448   3.018   7.736 -0.1138 -0.4405  1.3817
   98SAPS   H9Y 9846   5.616   2.944   7.763  0.4267 -1.1865  0.1265
   98SAPS  C310 9847   5.441   2.818   7.800  0.1697  0.3191 -0.1638
   98SAPS  H10X 9848   5.495   2.725   7.772 -1.5736 -0.0793 -2.4186
   98SAPS  H10Y 9849   5.339   2.802   7.761 -0.4927  0.6989  1.3491
   98SAPS  C311 9850   5.444   2.826   7.957  0.4598  0.0883 -0.1637
   98SAPS  H11X 9851   5.386   2.912   7.998  1.8554  0.0243  2.1193
   98SAPS  H11Y 9852   5.548   2.855   7.982  0.7613  1.5900 -2.7761
   98SAPS  C312 9853   5.418   2.687   8.017  1.0934  0.2761 -0.2279
   98SAPS  H12X 9854   5.461   2.617   7.942 -0.7094 -1.4838  0.2986
   98SAPS  H12Y 9855   5.308   2.677   8.011  0.9996  1.4483 -0.7261
   98SAPS  C313 9856   5.484   2.667   8.157 -0.4704  1.0563  0.4213
   98SAPS  H13X 9857   5.420   2.710   8.237 -3.1919 -0.9911 -0.4681
   98SAPS  H13Y 9858   5.581   2.720   8.157 -0.6423  1.4372 -1.5922
   98SAPS  C314 9859   5.524   2.517   8.183 -0.1610  0.2367 -0.2741
   98SAPS  H14X 9860   5.610   2.491   8.118 -1.4492 -1.1796 -1.4649
   98SAPS  H14Y 9861   5.438   2.448   8.172  0.5047 -0.7070  0.2823
   98SAPS  C315 9862   5.562   2.487   8.329 -0.2074  0.4885 -0.6469
   98SAPS  H15X 9863   5.483   2.522   8.398 -0.3882 -2.0863  0.5579
   98SAPS  H15Y 9864   5.650   2.549   8.357 -1.2781  1.4923  0.5986
   98SAPS  C316 9865   5.577   2.339   8.353  0.2643  1.0610 -0.3549
   98SAPS  H16X 9866   5.677   2.310   8.313  1.8834  1.5025  2.9797
   98SAPS  H16Y 9867   5.505   2.265   8.311  1.7258 -0.1696 -0.7861
   98SAPS  C317 9868   5.597   2.310   8.507 -0.4086  0.6175  0.1879
   98SAPS  H17X 9869   5.508   2.356   8.555  0.2887  1.9336  0.2543
   98SAPS  H17Y 9870   5.694   2.357   8.534 -0.0694  1.6582 -2.5106
   98SAPS  C318 9871   5.604   2.161   8.535  0.0084  1.1305 -0.2238
   98SAPS  H18X 9872   5.686   2.119   8.474 -1.1028 -2.5216  0.5656
   98SAPS  H18Y 9873   5.517   2.100   8.501  2.0771 -2.5918  0.6464
   98SAPS  H18Z 9874   5.616   2.147   8.645  2.3373 -0.9037 -0.6652
   99SAPS     N 9875   3.321   3.064   6.027  0.0447  0.3487 -0.4210
   99SAPS   HN1 9876   3.245   3.118   6.072  0.0715 -0.3098  0.4494
   99SAPS   HN2 9877   3.412   3.112   6.045 -1.3836  2.2889  2.6161
   99SAPS   HN3 9878   3.306   3.048   5.926  1.5485 -1.3372 -0.4312
   99SAPS   C12 9879   3.314   2.927   6.092 -0.2286 -0.3965 -0.2562
   99SAPS  H12A 9880   3.211   2.908   6.118  0.3370 -0.9628  1.7599
   99SAPS   C13 9881   3.365   2.805   6.011  0.3988 -0.7230 -0.6421
   99SAPS  O13A 9882   3.390   2.821   5.888  0.6103  0.3337 -0.4220
   99SAPS  O13B 9883   3.339   2.691   6.054  0.0441  0.0970  0.5179
   99SAPS   C11 9884   3.400   2.939   6.229  0.3313 -0.1511 -0.2282
   99SAPS  H11A 9885   3.507   2.965   6.217  1.0478 -1.4684  2.3767
   99SAPS  H11B 9886   3.396   2.839   6.278 -0.2920  0.5035  1.1419
   99SAPS     P 9887   3.364   3.044   6.469 -0.5323 -0.5683  0.4197
   99SAPS   O13 9888   3.442   3.170   6.488 -0.2393 -0.7561  0.7924
   99SAPS   O14 9889   3.227   3.037   6.527  0.5312  0.3645  0.6862
   99SAPS   O12 9890   3.335   3.039   6.310 -0.3496  0.5130  0.1492
   99SAPS   O11 9891   3.457   2.917   6.517  0.3294 -0.0829 -0.0076
   99SAPS    C1 9892   3.429   2.880   6.657 -0.2164  0.5486  0.1385
   99SAPS    HA 9893   3.324   2.900   6.685 -0.4991  0.2507 -0.6834
   99SAPS    HB 9894   3.440   2.769   6.664 -0.5524  0.4661 -0.5975
   99SAPS    C2 9895   3.518   2.950   6.762 -0.0061 -0.1884  0.2726
   99SAPS    HS 9896   3.514   2.894   6.858  2.1226  3.2572  2.5612
   99SAPS   O21 9897   3.473   3.081   6.765 -0.3702 -0.7510  0.1352
   99SAPS   C21 9898   3.375   3.103   6.845  0.1288 -0.0861 -0.3423
   99SAPS   O22 9899   3.319   3.017   6.906  0.2888  0.0087  0.3789
   99SAPS   C22 9900   3.345   3.250   6.856  0.2893 -0.1802 -0.7427
   99SAPS   H2R 9901   3.370   3.303   6.762  0.9670 -0.8202 -0.9305
   99SAPS   H2S 9902   3.234   3.248   6.863  0.3952 -0.6854  1.7226
   99SAPS    C3 9903   3.671   2.959   6.715  0.4853  0.0816  0.1438
   99SAPS    HX 9904   3.687   3.019   6.623 -4.3218  2.2353  0.3984
   99SAPS    HY 9905   3.693   2.851   6.700  1.2639  0.1193  0.9750
   99SAPS   O31 9906   3.742   3.006   6.828 -0.2137 -0.0755  0.7492
   99SAPS   C31 9907   3.828   3.109   6.803 -0.1770 -0.5255  0.2928
   99SAPS   O32 9908   3.846   3.166   6.700 -0.0094  0.1903 -0.1630
   99SAPS   C32 9909   3.913   3.147   6.931  0.4271 -0.3331  0.7340
   99SAPS   H2X 9910   3.874   3.091   7.019 -0.5287  0.3066  0.7225
   99SAPS   H2Y 9911   3.896   3.252   6.961  2.6536 -0.0624  1.1975
   99SAPS   C23 9912   3.405   3.312   6.980  0.7629  0.2765  0.1606
   99SAPS   H3R 9913   3.377   3.265   7.077  1.2744 -0.9904 -0.2863
   99SAPS   H3S 9914   3.351   3.408   6.994 -1.4485 -1.0857  1.6438
   99SAPS   C24 9915   3.559   3.337   6.984 -0.3357 -0.0967 -0.4281
   99SAPS   H4R 9916   3.601   3.359   6.883 -0.4197 -1.4037 -0.7645
   99SAPS   H4S 9917   3.617   3.244   6.998 -0.9584 -0.5342 -0.7113
   99SAPS   C25 9918   3.592   3.450   7.087  0.1235  0.4787 -0.1740
   99SAPS   H5R 9919   3.585   3.549   7.039  0.1529  0.7796  0.4258
   99SAPS   C26 9920   3.631   3.434   7.217  0.6738  0.3338  0.3253
   99SAPS   H6R 9921   3.677   3.519   7.269 -1.1625  0.8343  1.1942
   99SAPS   C27 9922   3.655   3.304   7.285 -0.2207 -0.3510 -0.2546
   99SAPS   H7R 9923   3.764   3.299   7.303  0.5020  2.5222 -2.9342
   99SAPS   H7S 9924   3.629   3.218   7.219 -0.0897  0.7805 -1.8180
   99SAPS   C28 9925   3.583   3.283   7.412  0.0659 -0.5099  0.1559
   99SAPS   H8R 9926   3.476   3.269   7.396 -0.2958  1.7451  0.3539
   99SAPS   C29 9927   3.634   3.293   7.541 -0.6556 -0.3756 -0.4007
   99SAPS   H9R 9928   3.567   3.291   7.629  0.9846 -3.4166  0.9419
   99SAPS  C210 9929   3.774   3.339   7.564  0.0043  0.0935 -0.4961
   99SAPS  H10R 9930   3.790   3.431   7.504 -3.1623  0.2303 -1.2667
   99SAPS  H10S 9931   3.838   3.261   7.517 -0.9422 -0.1188 -1.4536
   99SAPS  C211 9932   3.806   3.360   7.709 -0.8011 -0.3118 -0.2506
   99SAPS  H11R 9933   3.780   3.271   7.768 -1.2761 -1.1135 -1.6220
   99SAPS  C212 9934   3.835   3.481   7.776  0.0793  0.3437  0.4121
   99SAPS  H12R 9935   3.842   3.467   7.885 -0.9884 -3.3720  0.1334
   99SAPS  C213 9936   3.853   3.622   7.723 -0.1594  0.5503 -0.4780
   99SAPS  H13R 9937   3.764   3.683   7.747 -0.5750 -0.4177  0.4939
   99SAPS  H13S 9938   3.862   3.624   7.612 -3.2409  1.7975 -0.8182
   99SAPS  C214 9939   3.977   3.692   7.790  0.3082  0.2355  0.0283
   99SAPS  H14R 9940   4.076   3.649   7.767  0.3850 -0.6745  1.8388
   99SAPS  C215 9941   3.977   3.783   7.892  0.9604  0.5394  1.0348
   99SAPS  H15R 9942   4.074   3.830   7.916  2.2069  0.1572 -2.6154
   99SAPS  C216 9943   3.854   3.845   7.953  0.1228 -0.0502  1.0035
   99SAPS  H16R 9944   3.875   3.877   8.058  0.0411  1.2412  0.6407
   99SAPS  H16S 9945   3.775   3.768   7.949  1.5828 -1.5696 -0.2178
   99SAPS  C217 9946   3.784   3.963   7.874  0.4987  0.3328 -0.2593
   99SAPS  H17R 9947   3.773   3.944   7.765 -1.2567 -0.7211  0.0698
   99SAPS  H17S 9948   3.834   4.059   7.897  1.7060 -0.4283  0.4355
   99SAPS  C218 9949   3.643   3.984   7.932  0.3262  0.3154  0.2341
   99SAPS  H18R 9950   3.646   3.979   8.043  0.9132  1.6067  0.2962
   99SAPS  H18S 9951   3.572   3.908   7.894 -1.0072  0.7738  1.6918
   99SAPS  C219 9952   3.584   4.120   7.908  0.6143 -0.2504  0.5847
   99SAPS  H19R 9953   3.596   4.143   7.799 -0.1236 -2.6103 -0.0548
   99SAPS  H19S 9954   3.630   4.202   7.967 -2.9139  0.0699  3.2339
   99SAPS  C220 9955   3.434   4.112   7.949 -0.2802  0.6379 -0.1136
   99SAPS  H20R 9956   3.434   4.065   8.049 -0.8321 -3.1243 -1.7272
   99SAPS  H20S 9957   3.377   4.047   7.880 -1.2579  2.6937 -1.3624
   99SAPS  H20T 9958   3.379   4.209   7.946 -2.5295 -0.5932 -2.3427
   99SAPS   C33 9959   4.063   3.106   6.921  0.0694 -0.6706 -0.6800
   99SAPS   H3X 9960   4.104   3.120   6.818  0.7895 -1.6079 -0.5288
   99SAPS   H3Y 9961   4.072   2.997   6.940 -1.6282 -0.5207  1.3552
   99SAPS   C34 9962   4.151   3.173   7.033  0.0723  0.6443 -0.2955
   99SAPS   H4X 9963   4.139   3.284   7.029  2.3524  0.9456 -0.0395
   99SAPS   H4Y 9964   4.257   3.165   7.002 -0.0598  0.2998 -0.6625
   99SAPS   C35 9965   4.129   3.122   7.178  0.0253  0.7179 -0.3117
   99SAPS   H5X 9966   4.145   3.015   7.199  0.1696  0.9091  0.5741
   99SAPS   H5Y 9967   4.019   3.135   7.194 -0.1898  0.2182 -1.2913
   99SAPS   C36 9968   4.185   3.225   7.284 -0.3276 -0.1194  0.6315
   99SAPS   H6X 9969   4.144   3.325   7.260  4.8798  2.2287  0.0824
   99SAPS   H6Y 9970   4.294   3.232   7.259 -0.5448  0.4754 -0.2119
   99SAPS   C37 9971   4.164   3.189   7.430  0.0749 -0.0676  0.7250
   99SAPS   H7X 9972   4.226   3.103   7.464 -0.2270 -1.0726 -1.1210
   99SAPS   H7Y 9973   4.058   3.166   7.454  0.2983 -0.4791  1.3429
   99SAPS   C38 9974   4.200   3.304   7.523  0.1708 -0.2721 -0.6872
   99SAPS   H8X 9975   4.132   3.391   7.506  1.4754  0.9737  0.2002
   99SAPS   H8Y 9976   4.303   3.337   7.499  1.3214 -1.6660  1.9051
   99SAPS   C39 9977   4.186   3.247   7.662 -0.5093 -0.0557 -1.1843
   99SAPS   H9X 9978   4.274   3.182   7.681  0.9624  2.1064 -0.2299
   99SAPS   H9Y 9979   4.089   3.198   7.686 -1.4531  1.6678 -1.3114
   99SAPS  C310 9980   4.183   3.357   7.765 -0.4608  0.5214  0.6964
   99SAPS  H10X 9981   4.102   3.428   7.739 -0.0148  0.3663 -1.2696
   99SAPS  H10Y 9982   4.277   3.414   7.753  0.3374 -1.0079 -0.7720
   99SAPS  C311 9983   4.173   3.294   7.907 -0.2235  0.1640  0.3803
   99SAPS  H11X 9984   4.251   3.216   7.917 -1.6083 -1.3899 -0.3355
   99SAPS  H11Y 9985   4.072   3.248   7.917  0.1211 -0.4453  1.2570
   99SAPS  C312 9986   4.196   3.383   8.031  0.4885  0.4425 -0.1554
   99SAPS  H12X 9987   4.118   3.462   8.021 -0.8970 -0.9235 -0.3733
   99SAPS  H12Y 9988   4.300   3.424   8.032  0.3052  0.9198 -0.2299
   99SAPS  C313 9989   4.173   3.308   8.164 -0.2260  0.3151  0.1405
   99SAPS  H13X 9990   4.226   3.211   8.155  1.3740  0.9086  2.2366
   99SAPS  H13Y 9991   4.066   3.280   8.175  0.2613 -1.1822  1.6417
   99SAPS  C314 9992   4.240   3.372   8.292  0.1832 -0.4273 -0.0256
   99SAPS  H14X 9993   4.230   3.482   8.300 -0.0344 -0.4859  0.5510
   99SAPS  H14Y 9994   4.350   3.353   8.283  0.1748 -0.7167  0.4468
   99SAPS  C315 9995   4.183   3.316   8.425 -0.0197 -0.0304 -0.1601
   99SAPS  H15X 9996   4.073   3.327   8.412 -0.3391 -2.2203  0.3338
   99SAPS  H15Y 9997   4.217   3.372   8.515  0.6963  0.0937 -0.5039
   99SAPS  C316 9998   4.214   3.171   8.447  0.0698  0.8321 -0.3656
   99SAPS  H16X 9999   4.302   3.141   8.385 -1.4375 -1.2848 -1.6084
   99SAPS  H16Y10000   4.123   3.112   8.424 -0.9535  1.9130  0.7426
   99SAPS  C31710001   4.250   3.149   8.594  0.1516  0.0913  0.7376
   99SAPS  H17X10002   4.181   3.202   8.662  0.2080  1.4921 -0.2487
   99SAPS  H17Y10003   4.342   3.209   8.607 -0.7908  1.1825  2.7635
   99SAPS  C31810004   4.276   3.008   8.644  0.3307  0.2002  0.6826
   99SAPS  H18X10005   4.270   3.004   8.755 -1.6191  0.4347  0.6214
   99SAPS  H18Y10006   4.370   2.963   8.606 -0.6385 -0.6350 -0.8364
   99SAPS  H18Z10007   4.193   2.941   8.615 -1.6741  1.3315  3.2841
  100SAPS     N10008   0.467   3.141   6.206 -0.1192 -0.9991 -0.1691
  100SAPS   HN110009   0.446   3.067   6.275  1.2176 -1.6479 -0.4295
  100SAPS   HN210010   0.493   3.097   6.116  0.1304  0.0505 -0.6353
  100SAPS   HN310011   0.548   3.200   6.236  0.7475 -2.8002  1.2320
  100SAPS   C1210012   0.355   3.237   6.209  0.0827 -0.2941  0.7034
  100SAPS  H12A10013   0.371   3.298   6.297  0.8401 -0.0378  0.3935
  100SAPS   C1310014   0.365   3.340   6.096  0.1144  0.5295  0.0331
  100SAPS  O13A10015   0.450   3.332   6.006  0.5579 -0.0557 -0.2262
  100SAPS  O13B10016   0.287   3.439   6.097  1.0181 -0.1031 -0.2657
  100SAPS   C1110017   0.219   3.166   6.203  0.3617 -0.3797  0.5310
  100SAPS  H11A10018   0.213   3.108   6.109  1.8070  0.6536 -0.2425
  100SAPS  H11B10019   0.145   3.249   6.211  2.0751  1.7012 -2.7897
  100SAPS     P10020   0.088   3.056   6.406 -0.5317 -0.3877  0.2897
  100SAPS   O1310021  -0.036   3.059   6.330  0.3661 -0.1473 -0.1988
  100SAPS   O1410022   0.110   2.943   6.494  0.1715  0.6671 -0.0869
  100SAPS   O1210023   0.204   3.063   6.302 -0.0060  0.1770 -0.5508
  100SAPS   O1110024   0.104   3.198   6.468 -0.4771 -0.1108 -0.0868
  100SAPS    C110025   0.216   3.230   6.547 -0.6032  0.0284  0.2461
  100SAPS    HA10026   0.301   3.159   6.539 -0.3213  0.0816  2.2860
  100SAPS    HB10027   0.245   3.331   6.511 -1.2363 -0.0795 -0.5911
  100SAPS    C210028   0.176   3.247   6.700 -0.1790  0.0053  0.7524
  100SAPS    HS10029   0.269   3.263   6.759  0.0401 -0.2181  0.4752
  100SAPS   O2110030   0.099   3.131   6.736 -0.2571  0.1359  0.8817
  100SAPS   C2110031   0.177   3.043   6.798 -0.4485  0.7160  0.4205
  100SAPS   O2210032   0.299   3.043   6.820  0.0576 -0.0375  0.1140
  100SAPS   C2210033   0.083   2.942   6.856  0.1754 -0.5679 -0.4379
  100SAPS   H2R10034   0.072   2.851   6.792 -1.3936 -0.5203 -0.2723
  100SAPS   H2S10035   0.140   2.905   6.944  2.0055  2.3739 -0.2441
  100SAPS    C310036   0.082   3.366   6.717  0.0283 -0.6335  0.4373
  100SAPS    HX10037  -0.015   3.340   6.669 -0.0186  1.1261 -0.4981
  100SAPS    HY10038   0.106   3.457   6.658 -1.3555  0.0523  0.8713
  100SAPS   O3110039   0.071   3.390   6.861 -0.4311  0.5026  0.2877
  100SAPS   C3110040  -0.048   3.393   6.905 -0.2907  0.0980 -0.1875
  100SAPS   O3210041  -0.156   3.392   6.845 -0.2618 -0.1270 -0.2529
  100SAPS   C3210042  -0.029   3.382   7.055  0.3163  0.7507 -0.5664
  100SAPS   H2X10043   0.011   3.479   7.092 -0.1409  1.7455 -2.5071
  100SAPS   H2Y10044   0.040   3.298   7.075  0.2229  0.3419 -1.8713
  100SAPS   C2310045  -0.057   3.004   6.894 -0.5857 -0.4550 -0.0131
  100SAPS   H3R10046  -0.100   3.029   6.795 -2.7260 -0.4514  0.8669
  100SAPS   H3S10047  -0.049   3.104   6.944  0.5431  0.4136 -1.8267
  100SAPS   C2410048  -0.153   2.909   6.977  0.4965  0.0607  0.1556
  100SAPS   H4R10049  -0.123   2.914   7.084 -0.2461 -0.2440  0.3846
  100SAPS   H4S10050  -0.141   2.807   6.937 -1.2718  0.0426 -0.4214
  100SAPS   C2510051  -0.299   2.957   6.953  0.2600  0.2313  0.7613
  100SAPS   H5R10052  -0.315   2.985   6.848  1.2127 -1.0260  0.2612
  100SAPS   C2610053  -0.402   2.966   7.034  0.0967 -0.7237 -0.3942
  100SAPS   H6R10054  -0.493   3.017   7.000  1.3488  2.8631  1.0902
  100SAPS   C2710055  -0.393   2.934   7.179  0.3248  0.2300  0.1014
  100SAPS   H7R10056  -0.299   2.980   7.215  0.1644  1.0427 -0.4743
  100SAPS   H7S10057  -0.397   2.824   7.193  0.5258  0.1206 -0.6376
  100SAPS   C2810058  -0.492   3.020   7.259  0.2084 -0.0386  0.0455
  100SAPS   H8R10059  -0.524   3.121   7.229 -1.7358 -0.0589  1.8286
  100SAPS   C2910060  -0.547   2.979   7.374 -0.0121 -0.4628  0.4682
  100SAPS   H9R10061  -0.622   3.048   7.416  0.4913 -1.4212  3.1664
  100SAPS  C21010062  -0.531   2.858   7.461  0.4285  0.1273  0.5028
  100SAPS  H10R10063  -0.545   2.894   7.565  1.1563 -0.1074  0.6888
  100SAPS  H10S10064  -0.422   2.834   7.456  0.0086 -1.9782  0.3025
  100SAPS  C21110065  -0.623   2.735   7.440 -0.8720 -0.2718  0.5851
  100SAPS  H11R10066  -0.631   2.698   7.337 -0.3802  2.5581 -0.5623
  100SAPS  C21210067  -0.689   2.671   7.539 -0.5959  0.5935 -0.0802
  100SAPS  H12R10068  -0.747   2.580   7.516 -0.9684  0.1931  2.2494
  100SAPS  C21310069  -0.686   2.691   7.690 -0.5137 -0.6270  0.0316
  100SAPS  H13R10070  -0.624   2.778   7.722 -0.6222 -0.5164 -0.0580
  100SAPS  H13S10071  -0.635   2.601   7.730  1.8127 -0.2277 -1.7943
  100SAPS  C21410072  -0.824   2.728   7.746  0.0390  0.5853  0.3490
  100SAPS  H14R10073  -0.892   2.780   7.676 -0.4168  0.8518  0.9803
  100SAPS  C21510074  -0.876   2.706   7.868  0.5562 -0.3642 -0.0105
  100SAPS  H15R10075  -0.982   2.732   7.874  0.2149 -1.5058 -0.6883
  100SAPS  C21610076  -0.811   2.643   7.989 -0.1371  0.1354  0.2950
  100SAPS  H16R10077  -0.735   2.573   7.947 -0.5286  0.0822 -0.3251
  100SAPS  H16S10078  -0.881   2.572   8.036  0.3281  1.0364  2.4829
  100SAPS  C21710079  -0.749   2.742   8.090 -0.0293 -0.1639 -0.5466
  100SAPS  H17R10080  -0.837   2.803   8.118 -0.7457  0.3351 -3.6104
  100SAPS  H17S10081  -0.667   2.799   8.041 -2.3578  2.2269 -1.9589
  100SAPS  C21810082  -0.701   2.664   8.216  0.3257  0.9922  0.7911
  100SAPS  H18R10083  -0.789   2.620   8.268 -0.0314  0.1048 -0.5077
  100SAPS  H18S10084  -0.661   2.744   8.282 -0.1450  1.9619 -0.0876
  100SAPS  C21910085  -0.589   2.560   8.178 -0.5599  0.0885  0.5741
  100SAPS  H19R10086  -0.517   2.591   8.099 -0.3460 -2.2781 -0.2357
  100SAPS  H19S10087  -0.638   2.470   8.136  1.2519  0.0336 -1.6225
  100SAPS  C22010088  -0.516   2.516   8.307  0.0631  0.5271  0.5664
  100SAPS  H20R10089  -0.455   2.600   8.348  2.1875  0.0995 -1.5214
  100SAPS  H20S10090  -0.433   2.451   8.272  0.0757  0.3841  0.8563
  100SAPS  H20T10091  -0.575   2.464   8.387 -2.9389  1.1203 -1.1203
  100SAPS   C3310092  -0.167   3.351   7.122  0.5272  0.0790 -0.9085
  100SAPS   H3X10093  -0.209   3.278   7.051 -0.3209  1.0325 -1.4135
  100SAPS   H3Y10094  -0.240   3.435   7.119  1.1877  0.6480 -1.8813
  100SAPS   C3410095  -0.171   3.292   7.265  0.0785  0.4694 -0.6302
  100SAPS   H4X10096  -0.277   3.269   7.288  0.4679  0.6013  1.5311
  100SAPS   H4Y10097  -0.145   3.371   7.340  3.5374  0.2063 -1.4008
  100SAPS   C3510098  -0.088   3.170   7.297 -0.3908  0.5307 -0.1685
  100SAPS   H5X10099   0.021   3.177   7.275  0.0606 -1.1527  1.3569
  100SAPS   H5Y10100  -0.123   3.086   7.233 -0.4968 -0.2146  0.8495
  100SAPS   C3610101  -0.099   3.135   7.445  0.2405 -0.5849  0.1228
  100SAPS   H6X10102  -0.208   3.140   7.464  0.3261  1.8300  0.2393
  100SAPS   H6Y10103  -0.059   3.224   7.499 -2.6434 -0.6979  2.6760
  100SAPS   C3710104  -0.053   2.999   7.480  0.0162 -0.2234  0.6260
  100SAPS   H7X10105   0.054   2.984   7.453 -0.0860 -1.2071  0.7264
  100SAPS   H7Y10106  -0.105   2.911   7.436 -0.7672  0.7782 -0.5334
  100SAPS   C3810107  -0.071   2.977   7.635 -0.0704  0.1043 -0.1381
  100SAPS   H8X10108  -0.040   3.067   7.692 -1.7027  0.0570  0.8920
  100SAPS   H8Y10109  -0.007   2.889   7.658  0.1074  0.6198  1.4587
  100SAPS   C3910110  -0.209   2.951   7.680  0.3270  0.0408 -0.5525
  100SAPS   H9X10111  -0.265   2.881   7.614  0.4901 -0.5784 -0.0316
  100SAPS   H9Y10112  -0.258   3.051   7.676 -0.5722 -0.3373  0.4934
  100SAPS  C31010113  -0.211   2.910   7.827 -0.5825 -0.0333 -1.0015
  100SAPS  H10X10114  -0.162   2.988   7.889 -2.4858 -0.0344  0.5950
  100SAPS  H10Y10115  -0.152   2.817   7.843  0.9252  0.6779 -2.1934
  100SAPS  C31110116  -0.350   2.885   7.885  0.1236 -0.1400 -0.1180
  100SAPS  H11X10117  -0.409   2.809   7.830  4.4437 -3.3076 -0.8381
  100SAPS  H11Y10118  -0.409   2.979   7.874 -0.8010 -0.5343  1.2668
  100SAPS  C31210119  -0.354   2.856   8.032 -0.6338  0.3189 -0.9248
  100SAPS  H12X10120  -0.455   2.830   8.069 -0.2491  1.1165  0.7881
  100SAPS  H12Y10121  -0.325   2.951   8.082 -0.8410  0.7384 -1.5856
  100SAPS  C31310122  -0.266   2.742   8.094  0.5938 -0.2235 -0.4706
  100SAPS  H13X10123  -0.164   2.765   8.055  0.9050 -0.7194  0.0175
  100SAPS  H13Y10124  -0.306   2.640   8.074 -3.3725  1.4121 -1.8074
  100SAPS  C31410125  -0.253   2.762   8.249  0.6635  0.8624 -0.0150
  100SAPS  H14X10126  -0.213   2.667   8.290  0.2833  0.4855 -0.5111
  100SAPS  H14Y10127  -0.355   2.771   8.292 -0.1055 -2.4425 -0.8439
  100SAPS  C31510128  -0.166   2.876   8.300  0.0346  0.8339  0.3442
  100SAPS  H15X10129  -0.214   2.971   8.267 -3.9993 -1.1167  0.1096
  100SAPS  H15Y10130  -0.065   2.869   8.252 -0.3447 -0.3135 -0.3353
  100SAPS  C31610131  -0.160   2.874   8.454  0.5461 -0.1326 -0.0832
  100SAPS  H16X10132  -0.120   2.773   8.476  1.2249  0.1133 -0.1561
  100SAPS  H16Y10133  -0.266   2.880   8.487  0.4538  1.5622 -0.5653
  100SAPS  C31710134  -0.066   2.983   8.507 -0.0500  0.1783 -0.4539
  100SAPS  H17X10135  -0.093   3.083   8.467  1.3847  0.4324 -0.8555
  100SAPS  H17Y10136   0.031   2.940   8.474 -0.4602 -2.8730  1.8502
  100SAPS  C31810137  -0.055   2.977   8.663 -0.2749  0.8143  0.2167
  100SAPS  H18X10138  -0.157   2.955   8.703 -0.4643 -2.4019 -1.6657
  100SAPS  H18Y10139  -0.006   3.069   8.702  1.2306  0.1741 -0.1030
  100SAPS  H18Z10140   0.010   2.895   8.701  0.2405  1.3972  0.6072
  101OSM      N10141   6.323   4.177  10.831 -0.4686  0.0908 -0.0414
  101OSM    C1510142   6.346   4.099  10.707 -0.0534  0.5463  0.6600
  101OSM   H15A10143   6.436   4.041  10.721  0.2724  0.1239 -2.5090
  101OSM   H15B10144   6.351   4.168  10.624 -0.5456  1.4931  1.3950
  101OSM   H15C10145   6.262   4.033  10.690  0.6332 -0.2351  0.2182
  101OSM    C1410146   6.322   4.085  10.947 -0.3317 -0.4187  0.1075
  101OSM   H14A10147   6.409   4.022  10.947 -0.2321 -0.2836  0.0193
  101OSM   H14B10148   6.240   4.015  10.940 -0.4776 -0.3654  1.1588
  101OSM   H14C10149   6.316   4.147  11.035  2.2802 -0.0100  0.0810
  101OSM    C1310150   6.430   4.281  10.837 -0.7942  0.4011 -0.2666
  101OSM   H13A10151   6.442   4.326  10.740 -0.7285 -1.3599 -1.1177
  101OSM   H13B10152   6.521   4.236  10.876 -0.9447  1.8655  1.9464
  101OSM   H13C10153   6.397   4.361  10.901  2.8483  2.6409 -0.8938
  101OSM    C1210154   6.186   4.252  10.826  0.0879  0.2323  0.2004
  101OSM   H12A10155   6.113   4.175  10.805 -0.6947  1.2050 -0.7703
  101OSM   H12B10156   6.188   4.314  10.737 -1.5555 -0.7312 -0.5534
  101OSM    C1110157   6.140   4.319  10.955  0.0344 -0.6085 -0.4311
  101OSM   H11A10158   6.163   4.264  11.049  1.1999  1.5011  0.5824
  101OSM   H11B10159   6.033   4.346  10.944 -0.1462 -1.4202 -0.7431
  101OSM      P10160   6.206   4.542  11.072  0.1035  0.2785  0.7150
  101OSM    O1310161   6.067   4.555  11.111  0.1094  0.4659 -0.3100
  101OSM    O1410162   6.304   4.506  11.179 -0.6131  0.1952  0.6810
  101OSM    O1110163   6.253   4.677  11.009  0.8073  0.2095  0.0230
  101OSM    O1210164   6.212   4.443  10.955  0.0928 -0.0173  0.0898
  101OSM    C1S10165   6.277   4.686  10.872  0.1205  0.1407 -0.2928
  101OSM    H1S10166   6.321   4.593  10.830  0.7043  0.5536 -0.6061
  101OSM    H1T10167   6.352   4.767  10.858 -0.6289  0.9562  0.3182
  101OSM     NF10168   6.195   4.768  10.659 -0.2949  0.0964 -0.3423
  101OSM    HNF10169   6.229   4.861  10.646 -0.7930 -0.0405 -3.2469
  101OSM    C2S10170   6.154   4.743  10.791  0.1232  0.2677 -0.1709
  101OSM    H2S10171   6.074   4.666  10.797 -0.3241  0.8030  1.4610
  101OSM    C3S10172   6.092   4.876  10.863 -0.1617  0.1580  0.5029
  101OSM    H3S10173   6.165   4.959  10.855  1.3043 -1.1562 -0.1762
  101OSM     O310174   6.065   4.853  10.997 -0.0210  0.0729 -0.1633
  101OSM    HO310175   6.132   4.789  11.022  1.0444  1.5283  0.8572
  101OSM    C4S10176   5.953   4.890  10.806 -0.0910 -0.1958  0.6769
  101OSM    H4S10177   5.893   4.802  10.831  1.0494 -0.9226  0.9162
  101OSM    C5S10178   5.907   4.997  10.734  1.2035  0.1115 -0.2605
  101OSM    H5S10179   5.977   5.082  10.724  0.1158  1.0742  0.1008
  101OSM    C6S10180   5.772   5.024  10.672 -0.6966 -0.5158  0.0945
  101OSM    H6S10181   5.725   5.117  10.710  0.1542 -0.5185  1.1948
  101OSM    H6T10182   5.703   4.943  10.706 -0.6576  0.1082  1.7676
  101OSM    C7S10183   5.780   5.027  10.515 -0.2198 -1.0488  0.5263
  101OSM    H7S10184   5.675   5.041  10.482 -0.2782  0.4431  1.2854
  101OSM    H7T10185   5.825   4.937  10.467 -0.1746  0.1938 -1.9709
  101OSM    C8S10186   5.861   5.148  10.462  0.0796  0.7899 -0.5096
  101OSM    H8S10187   5.962   5.145  10.509 -0.6306 -1.6406  1.0643
  101OSM    H8T10188   5.824   5.246  10.498  0.0453 -0.3540  2.9488
  101OSM    C9S10189   5.876   5.142  10.308 -0.3874 -0.2731  0.0713
  101OSM    H9S10190   5.774   5.163  10.269 -0.1436  2.0730  0.5361
  101OSM    H9T10191   5.912   5.039  10.291 -0.3392 -0.4034  0.8889
  101OSM   C10S10192   5.973   5.237  10.245 -0.6768 -0.3531 -0.0452
  101OSM   H10S10193   6.077   5.204  10.267 -0.8257 -0.7123  0.1162
  101OSM   H10T10194   5.958   5.340  10.286  0.4916 -0.4323  0.6220
  101OSM   C11S10195   5.953   5.242  10.093 -0.0872 -0.4274  0.0969
  101OSM   H11S10196   5.867   5.312  10.087  0.1612  0.1117  2.0688
  101OSM   H11T10197   5.937   5.151  10.032  1.5034 -0.6506 -0.0527
  101OSM   C12S10198   6.074   5.307  10.022  0.6787  0.1110 -0.6902
  101OSM   H12S10199   6.154   5.231  10.033  0.7633  0.4740  2.0936
  101OSM   H12T10200   6.102   5.400  10.075 -0.0122  0.4391 -0.8844
  101OSM   C13S10201   6.058   5.346   9.871  0.7626 -0.1461 -0.3795
  101OSM   H13S10202   5.995   5.438   9.863  1.1519  0.1370 -0.2056
  101OSM   H13T10203   5.999   5.258   9.838  0.1997  0.8290 -2.1259
  101OSM   C14S10204   6.185   5.355   9.793 -0.5031  0.0915  0.6152
  101OSM   H14S10205   6.252   5.271   9.821  0.6745  0.5499 -0.7518
  101OSM   H14T10206   6.241   5.446   9.824  0.2579  0.0832 -0.6768
  101OSM   C15S10207   6.147   5.379   9.643  0.6632  0.1478 -0.3524
  101OSM   H15S10208   6.080   5.467   9.644  2.4420  1.5956  1.6128
  101OSM   H15T10209   6.088   5.287   9.623 -0.7909  1.4564 -2.4178
  101OSM   C16S10210   6.261   5.408   9.546 -0.9898  0.0493  0.2995
  101OSM   H16S10211   6.318   5.502   9.561  0.2068 -0.5988  0.0230
  101OSM   H16T10212   6.206   5.438   9.455 -1.7687  2.9047  1.5962
  101OSM   C17S10213   6.356   5.290   9.528 -0.9788  0.6144  0.3385
  101OSM   H17S10214   6.313   5.187   9.525  0.0575  0.1856 -0.6719
  101OSM   H17T10215   6.427   5.293   9.612 -0.9290  1.2284  0.2806
  101OSM   C18S10216   6.428   5.293   9.393 -0.4465  0.0262  0.5419
  101OSM   H18S10217   6.485   5.199   9.375  0.7782  0.6216  1.1958
  101OSM   H18T10218   6.496   5.381   9.385  1.4269 -1.3896  0.2351
  101OSM   H18U10219   6.351   5.292   9.314 -1.0790 -1.2968  1.1393
  101OSM    C1F10220   6.249   4.678  10.577  0.3546  0.5840  0.2285
  101OSM     OF10221   6.244   4.553  10.583 -0.0060 -0.0989  0.4645
  101OSM    C2F10222   6.316   4.737  10.459 -0.2608 -0.2578 -0.2203
  101OSM    H2F10223   6.354   4.655  10.395  0.5428  0.2995 -0.4610
  101OSM    H2G10224   6.400   4.805  10.483  0.6011 -1.6502  0.9137
  101OSM    C3F10225   6.216   4.827  10.381  0.4560  0.7855  0.4192
  101OSM    H3F10226   6.165   4.898  10.450 -0.5658 -0.4730  0.9910
  101OSM    H3G10227   6.138   4.764  10.334 -1.5881  3.6861 -0.3517
  101OSM    C4F10228   6.287   4.908  10.276  0.7001  0.1734 -0.3676
  101OSM    H4F10229   6.380   4.854  10.245 -0.0172 -1.1513 -0.2914
  101OSM    H4G10230   6.318   5.009  10.311 -0.7721  0.2547  0.8143
  101OSM    C5F10231   6.206   4.904  10.135 -0.4918  0.1829  0.2342
  101OSM    H5F10232   6.109   4.957  10.132 -0.0844  1.1037 -4.4125
  101OSM    H5G10233   6.172   4.799  10.123 -1.8628  0.5189  0.9871
  101OSM    C6F10234   6.294   4.946  10.024 -0.1416 -0.0675  0.2462
  101OSM    H6F10235   6.402   4.948  10.049 -0.1856 -2.3567  0.8776
  101OSM    H6G10236   6.270   5.052  10.002 -1.6562 -0.1133  1.5659
  101OSM    C7F10237   6.271   4.873   9.889 -0.4616 -0.1035  0.2612
  101OSM    H7F10238   6.164   4.885   9.861 -0.2492  2.3294  0.3392
  101OSM    H7G10239   6.308   4.768   9.896  1.7233  0.3638 -2.4361
  101OSM    C8F10240   6.362   4.927   9.776 -0.5559 -0.1221 -0.0850
  101OSM    H8F10241   6.465   4.894   9.804  0.1730  2.1242  0.1335
  101OSM    H8G10242   6.374   5.037   9.777  3.5889 -0.3868 -1.8001
  101OSM    C9F10243   6.321   4.880   9.641 -0.5935 -0.3663 -0.3748
  101OSM    H9F10244   6.215   4.852   9.632 -0.9545  0.2950  1.4003
  101OSM   C10F10245   6.406   4.867   9.535 -0.0101  0.7105 -0.0367
  101OSM   H10F10246   6.367   4.827   9.441  0.5633 -3.9418  1.4776
  101OSM   C11F10247   6.549   4.900   9.537  0.0086 -0.5643  0.0521
  101OSM   H11F10248   6.589   4.939   9.633 -1.9575  1.5368  0.0857
  101OSM   H11G10249   6.548   4.984   9.464 -0.3770 -0.7276 -0.1338
  101OSM   C12F10250   6.638   4.784   9.503  0.6949 -0.3145  0.3174
  101OSM   H12F10251   6.585   4.716   9.432 -0.4063 -2.8965  3.3975
  101OSM   H12G10252   6.659   4.715   9.587  1.8230  1.1778  1.3064
  101OSM   C13F10253   6.768   4.823   9.449  0.1302  0.7560  0.1285
  101OSM   H13F10254   6.836   4.866   9.526  0.2352 -0.9424  1.0158
  101OSM   H13G10255   6.751   4.902   9.372 -0.0065  0.3881 -0.2240
  101OSM   C14F10256   6.848   4.709   9.381 -0.4757  0.6763 -0.6817
  101OSM   H14F10257   6.795   4.653   9.301  0.0110 -0.6014 -0.1339
  101OSM   H14G10258   6.866   4.632   9.459 -0.8170 -0.3219 -1.5686
  101OSM   C15F10259   6.997   4.749   9.349  0.8478  0.0933  0.6089
  101OSM   H15F10260   7.035   4.808   9.435 -0.4999  1.3967  0.3416
  101OSM   H15G10261   6.998   4.821   9.265  0.3440  0.1677  0.6636
  101OSM   C16F10262   7.088   4.638   9.313  0.1805  0.2924  1.0557
  101OSM   H16F10263   7.113   4.583   9.407 -0.7234 -0.1027  1.0715
  101OSM   H16G10264   7.187   4.674   9.278 -0.2634 -2.2868 -3.7123
  101OSM   C17F10265   7.038   4.549   9.202  0.6467  0.1582  0.5244
  101OSM   H17F10266   7.057   4.604   9.108  0.4501 -0.7764 -0.0748
  101OSM   H17G10267   6.930   4.524   9.210  1.1187 -3.1572 -1.4530
  101OSM   C18F10268   7.102   4.409   9.196 -0.0815 -0.0266 -0.2967
  101OSM   H18F10269   7.190   4.405   9.127  1.3665 -1.2603  1.5240
  101OSM   H18G10270   7.025   4.338   9.159  1.1853 -1.0711 -1.0421
  101OSM   H18H10271   7.133   4.386   9.300 -4.3785  0.5535  1.2940
  102OSM      N10272   5.467   3.885  10.844  0.3771  0.0088  0.6128
  102OSM    C1510273   5.376   3.773  10.803 -0.5953 -0.1110  0.0496
  102OSM   H15A10274   5.284   3.826  10.784 -0.3307  0.3931  0.1682
  102OSM   H15B10275   5.372   3.710  10.891  1.5115  0.2203  0.4414
  102OSM   H15C10276   5.411   3.714  10.720  0.0685 -0.3086  0.4568
  102OSM    C1410277   5.579   3.829  10.931 -0.1486 -0.4306 -1.2360
  102OSM   H14A10278   5.643   3.760  10.878  1.3524  0.0434 -0.1159
  102OSM   H14B10279   5.543   3.780  11.020  0.4487  2.1453  0.5415
  102OSM   H14C10280   5.646   3.905  10.969 -2.2893  0.3832  1.2414
  102OSM    C1310281   5.512   3.958  10.727 -0.6714 -0.6206 -0.7067
  102OSM   H13A10282   5.580   3.898  10.669 -1.2631 -1.6027 -0.4136
  102OSM   H13B10283   5.572   4.046  10.745  0.2820 -1.8026  2.6257
  102OSM   H13C10284   5.423   3.971  10.667 -0.8957  0.6966 -0.1327
  102OSM    C1210285   5.386   3.974  10.938 -0.0097  0.2727 -0.8364
  102OSM   H12A10286   5.458   4.043  10.980 -0.3149 -0.7056  1.4333
  102OSM   H12B10287   5.357   3.920  11.027  1.8212  0.2045 -0.2458
  102OSM    C1110288   5.265   4.055  10.880 -0.1114  1.1375 -0.4495
  102OSM   H11A10289   5.311   4.124  10.806  0.2408  0.1677 -1.1470
  102OSM   H11B10290   5.217   4.125  10.952  1.0056  2.0542 -0.5641
  102OSM      P10291   5.052   3.900  10.898  0.2070  0.1614  0.2041
  102OSM    O1310292   5.068   3.752  10.871  0.6516  0.3474  0.2307
  102OSM    O1410293   5.057   3.947  11.035 -0.8050 -0.2748 -0.7116
  102OSM    O1110294   4.922   3.951  10.827  0.3135  0.4966 -0.1030
  102OSM    O1210295   5.174   3.965  10.815 -0.0804  0.1244  0.8264
  102OSM    C1S10296   4.912   4.082  10.773 -0.5809 -0.6750 -0.6319
  102OSM    H1S10297   5.004   4.140  10.795  2.2138 -4.2811 -1.8257
  102OSM    H1T10298   4.833   4.137  10.829  2.0846  0.7722  1.9875
  102OSM     NF10299   4.897   4.209  10.562  0.3468 -0.7722 -0.5192
  102OSM    HNF10300   4.816   4.255  10.528  0.4640 -1.1389 -1.3047
  102OSM    C2S10301   4.893   4.073  10.621 -0.6646 -0.1633 -0.0317
  102OSM    H2S10302   4.980   4.017  10.580  2.3343  2.3483  2.4133
  102OSM    C3S10303   4.769   3.995  10.585 -0.2326  0.1748 -0.3313
  102OSM    H3S10304   4.683   4.044  10.636 -1.1631 -0.5230 -1.1753
  102OSM     O310305   4.767   3.858  10.625 -0.1127 -0.0894  0.1563
  102OSM    HO310306   4.807   3.865  10.712  0.0347  0.1054  0.0741
  102OSM    C4S10307   4.754   4.005  10.433  0.7377 -0.2700  0.0437
  102OSM    H4S10308   4.714   4.103  10.403  0.9025 -0.2938 -0.2460
  102OSM    C5S10309   4.771   3.912  10.341  0.0286  0.9123  0.3132
  102OSM    H5S10310   4.795   3.812  10.380 -1.3510  0.3299 -0.2426
  102OSM    C6S10311   4.742   3.930  10.192 -0.3106 -0.1319 -0.8029
  102OSM    H6S10312   4.666   3.853  10.167 -1.9841  1.0895  0.2794
  102OSM    H6T10313   4.837   3.911  10.138 -1.2464 -2.6607 -1.7087
  102OSM    C7S10314   4.662   4.055  10.145 -0.2252  0.3743 -0.3382
  102OSM    H7S10315   4.727   4.145  10.143  0.6760 -0.2744 -0.8299
  102OSM    H7T10316   4.569   4.079  10.202  0.8916  4.7799 -0.0126
  102OSM    C8S10317   4.611   4.046  10.006 -0.1092 -1.0389  0.0524
  102OSM    H8S10318   4.572   4.147   9.984  0.5228 -0.5591  1.0602
  102OSM    H8T10319   4.523   3.979  10.008  0.4632 -1.8264 -0.5151
  102OSM    C9S10320   4.707   4.001   9.904  0.1037 -0.3415 -0.3851
  102OSM    H9S10321   4.751   3.902   9.928  0.6168 -0.2597 -0.9522
  102OSM    H9T10322   4.799   4.064   9.894  0.6019 -0.8622  0.7293
  102OSM   C10S10323   4.645   3.981   9.768  0.8095 -0.3760 -0.4178
  102OSM   H10S10324   4.567   4.059   9.753  3.7026  2.3479 -2.8521
  102OSM   H10T10325   4.594   3.882   9.776 -0.4533  0.3919  1.6939
  102OSM   C11S10326   4.730   3.988   9.645 -0.8176  0.0654 -0.1360
  102OSM   H11S10327   4.820   3.923   9.648 -0.0763  0.9370 -1.8151
  102OSM   H11T10328   4.777   4.089   9.648 -0.6546 -0.0198  1.6209
  102OSM   C12S10329   4.661   3.953   9.509  0.4047  0.5776  0.0862
  102OSM   H12S10330   4.560   3.995   9.494  0.0383 -1.0327 -2.5145
  102OSM   H12T10331   4.649   3.843   9.515  0.9482  0.5694  1.3742
  102OSM   C13S10332   4.745   3.989   9.380  0.1789  0.7636 -0.6961
  102OSM   H13S10333   4.854   4.005   9.396  0.0500  1.4095 -0.4251
  102OSM   H13T10334   4.692   4.080   9.343 -1.2884  0.9497  1.6645
  102OSM   C14S10335   4.728   3.875   9.274 -0.5945  0.1796  0.1761
  102OSM   H14S10336   4.621   3.873   9.245 -1.1577 -0.9575  2.1666
  102OSM   H14T10337   4.757   3.784   9.331 -0.9939  0.4170  0.7773
  102OSM   C15S10338   4.810   3.902   9.147 -0.6524 -0.3469  0.2139
  102OSM   H15S10339   4.915   3.904   9.183 -0.7717  0.5725  0.5439
  102OSM   H15T10340   4.784   4.001   9.102  0.6877  0.1347  0.4606
  102OSM   C16S10341   4.810   3.778   9.054  0.8910 -0.5780  0.3079
  102OSM   H16S10342   4.803   3.686   9.116 -2.5073 -0.7902 -0.2023
  102OSM   H16T10343   4.905   3.780   8.996  0.7978  1.1337  0.1720
  102OSM   C17S10344   4.701   3.780   8.944 -0.3736 -0.1444  0.1113
  102OSM   H17S10345   4.713   3.879   8.894 -0.0539  0.6509  1.6983
  102OSM   H17T10346   4.599   3.771   8.988 -0.0161 -0.6820  0.8401
  102OSM   C18S10347   4.717   3.665   8.847 -0.9744  0.5959  0.1478
  102OSM   H18S10348   4.686   3.572   8.898  0.9669  0.2058  0.7052
  102OSM   H18T10349   4.827   3.657   8.835 -1.1214  1.0942 -1.9110
  102OSM   H18U10350   4.665   3.685   8.750 -1.3624  1.6680  0.5600
  102OSM    C1F10351   5.013   4.275  10.540  0.2431 -0.3500  1.0127
  102OSM     OF10352   5.116   4.246  10.594 -0.4255 -0.6228 -0.3805
  102OSM    C2F10353   4.991   4.404  10.459  0.1679 -0.7130  0.3386
  102OSM    H2F10354   4.970   4.486  10.531 -0.0983 -0.4432 -0.0455
  102OSM    H2G10355   4.899   4.398  10.397  0.6791  2.1312 -0.8529
  102OSM    C3F10356   5.110   4.447  10.374 -0.8463 -1.0445 -0.2402
  102OSM    H3F10357   5.201   4.442  10.437 -0.4075  0.0319 -0.7659
  102OSM    H3G10358   5.098   4.555  10.352  2.5915 -0.4247  0.4678
  102OSM    C4F10359   5.129   4.374  10.242 -0.0443  0.3462 -0.1774
  102OSM    H4F10360   5.138   4.265  10.261 -0.0447  0.8015  2.8185
  102OSM    H4G10361   5.235   4.394  10.216  1.1364 -1.6615  2.5382
  102OSM    C5F10362   5.021   4.405  10.133 -0.0062  0.0608 -0.3710
  102OSM    H5F10363   5.003   4.513  10.117  1.2224  0.3893  0.3297
  102OSM    H5G10364   4.922   4.364  10.163 -0.1013  0.8285  0.3740
  102OSM    C6F10365   5.066   4.345   9.995  0.9607 -0.8043 -0.4664
  102OSM    H6F10366   5.063   4.235  10.012  0.4706 -1.0964 -2.2626
  102OSM    H6G10367   5.167   4.385   9.974  1.0878 -1.2156 -0.6425
  102OSM    C7F10368   4.969   4.373   9.883 -0.2590 -0.1959  1.1430
  102OSM    H7F10369   4.959   4.482   9.865  0.3473 -0.4468 -0.8766
  102OSM    H7G10370   4.869   4.341   9.919 -1.0940  0.3502 -0.5895
  102OSM    C8F10371   5.017   4.293   9.753  0.7928  0.1784 -0.7013
  102OSM    H8F10372   5.003   4.186   9.779  0.2548  1.0413  3.0536
  102OSM    H8G10373   5.125   4.309   9.734  0.9635  1.0828  0.8289
  102OSM    C9F10374   4.925   4.345   9.642 -0.3928  0.3408  0.2151
  102OSM    H9F10375   4.816   4.350   9.654 -0.6116 -0.6050 -1.1093
  102OSM   C10F10376   4.967   4.408   9.528 -0.1469  0.1095  0.2855
  102OSM   H10F10377   4.892   4.430   9.450  1.4929  0.2077 -1.3143
  102OSM   C11F10378   5.102   4.439   9.484 -0.0684  0.0701 -0.3202
  102OSM   H11F10379   5.119   4.387   9.387 -1.8224 -2.3310  0.5478
  102OSM   H11G10380   5.180   4.397   9.552  0.0875  0.3942 -0.2974
  102OSM   C12F10381   5.113   4.593   9.465 -0.1219  0.2149 -0.1715
  102OSM   H12F10382   5.207   4.593   9.406  0.1185 -0.4344  0.2063
  102OSM   H12G10383   5.120   4.660   9.554  0.6074  0.8956 -0.7257
  102OSM   C13F10384   5.013   4.659   9.364 -0.3783  0.6004 -0.5872
  102OSM   H13F10385   4.918   4.658   9.422  0.8544 -0.6170  1.5520
  102OSM   H13G10386   5.001   4.586   9.282 -2.1505 -1.0468  1.0581
  102OSM   C14F10387   5.062   4.790   9.311 -0.1628  0.1390 -0.3012
  102OSM   H14F10388   5.140   4.751   9.242  1.1837  2.5520 -0.2530
  102OSM   H14G10389   5.097   4.835   9.407  0.3105 -0.3315 -0.2489
  102OSM   C15F10390   4.956   4.879   9.237 -0.6247  0.7876  0.5971
  102OSM   H15F10391   4.919   4.816   9.154 -1.4966 -0.0309  1.5706
  102OSM   H15G10392   5.010   4.966   9.194 -0.4161  0.6299  0.5411
  102OSM   C16F10393   4.840   4.949   9.319  0.7152 -0.4594 -1.0685
  102OSM   H16F10394   4.764   5.002   9.257  1.7284  1.6590 -0.6119
  102OSM   H16G10395   4.880   5.041   9.368 -0.1718  0.2919 -1.7194
  102OSM   C17F10396   4.770   4.866   9.423 -0.0241 -0.4369  0.4510
  102OSM   H17F10397   4.843   4.837   9.502 -1.1645 -1.0456  1.3194
  102OSM   H17G10398   4.738   4.767   9.383  0.3605  0.7425 -3.1364
  102OSM   C18F10399   4.651   4.930   9.500 -0.2221 -0.1002  0.6858
  102OSM   H18F10400   4.693   5.029   9.525  1.4976 -0.5389 -0.2725
  102OSM   H18G10401   4.633   4.867   9.590  0.5589 -0.7801  0.3827
  102OSM   H18H10402   4.564   4.946   9.432  1.3600  2.1597 -0.9481
  103OSM      N10403   6.460   1.161  11.324 -0.1952 -0.3700  0.5521
  103OSM    C1510404   6.428   1.298  11.363 -0.3519 -0.0683  0.4046
  103OSM   H15A10405   6.429   1.313  11.470  1.2959 -0.8585  0.5369
  103OSM   H15B10406   6.329   1.336  11.343 -0.7147 -0.3047  1.6534
  103OSM   H15C10407   6.502   1.370  11.331  0.2387 -0.8882 -0.1032
  103OSM    C1410408   6.608   1.135  11.357 -0.4918 -0.3989 -0.3735
  103OSM   H14A10409   6.668   1.222  11.338 -1.5799  0.4574  0.0163
  103OSM   H14B10410   6.649   1.054  11.299  0.3800 -0.7288  0.6703
  103OSM   H14C10411   6.625   1.115  11.462 -2.0893 -0.7932 -0.1606
  103OSM    C1310412   6.374   1.073  11.406 -0.2552  0.3272  0.6273
  103OSM   H13A10413   6.396   1.079  11.512  0.3252  0.6676  0.4891
  103OSM   H13B10414   6.398   0.973  11.372 -0.9885  0.3651 -0.0249
  103OSM   H13C10415   6.267   1.085  11.393  0.1065  2.3084 -0.9125
  103OSM    C1210416   6.442   1.139  11.175  0.0188 -0.1352  0.3078
  103OSM   H12A10417   6.527   1.189  11.129 -0.3072 -0.1009 -0.2594
  103OSM   H12B10418   6.352   1.187  11.139  0.8722  0.4348 -1.1504
  103OSM    C1110419   6.440   0.996  11.115  0.0259  0.5952  0.0323
  103OSM   H11A10420   6.524   0.933  11.152 -0.5545  0.9057  2.0107
  103OSM   H11B10421   6.452   1.005  11.005  2.6200 -1.7243  0.0101
  103OSM      P10422   6.179   0.973  11.095 -0.0937  0.2226 -0.2149
  103OSM    O1310423   6.076   0.901  11.170  0.0831 -0.0038  0.4355
  103OSM    O1410424   6.169   1.121  11.086  0.7472 -0.1123 -0.2545
  103OSM    O1110425   6.179   0.919  10.950  0.0960 -0.2648  0.0555
  103OSM    O1210426   6.317   0.921  11.151 -0.0243 -0.0561  0.4260
  103OSM    C1S10427   6.204   0.792  10.896 -0.3300  0.4270  0.1151
  103OSM    H1S10428   6.153   0.706  10.945 -2.0558  1.0585 -0.5100
  103OSM    H1T10429   6.312   0.763  10.891 -0.5211 -0.2471 -0.3891
  103OSM     NF10430   6.190   0.643  10.702  0.0314  0.3229  0.1190
  103OSM    HNF10431   6.274   0.641  10.648  0.6600  0.4438  1.0740
  103OSM    C2S10432   6.169   0.780  10.748  0.3813  1.3007 -0.7574
  103OSM    H2S10433   6.061   0.798  10.732  0.2543  1.5157  0.2815
  103OSM    C3S10434   6.251   0.884  10.665 -0.3043  0.0854  0.7321
  103OSM    H3S10435   6.358   0.873  10.691  0.6218 -0.2933 -2.7728
  103OSM     O310436   6.225   1.019  10.700 -0.2250  0.0714 -0.3047
  103OSM    HO310437   6.183   1.008  10.785 -1.5188 -1.5285 -1.1043
  103OSM    C4S10438   6.231   0.870  10.517  0.2824  0.3068  0.4028
  103OSM    H4S10439   6.129   0.889  10.480  0.4159 -0.7275 -0.5341
  103OSM    C5S10440   6.327   0.854  10.429 -0.1304 -0.1372 -0.1857
  103OSM    H5S10441   6.428   0.835  10.470  0.4765 -0.8618 -1.8921
  103OSM    C6S10442   6.310   0.842  10.279 -0.5375  0.1589  0.5515
  103OSM    H6S10443   6.404   0.887  10.242 -0.9851  0.3982 -0.3012
  103OSM    H6T10444   6.219   0.890  10.238  0.2038  0.5259 -0.7048
  103OSM    C7S10445   6.324   0.696  10.249 -0.3075 -0.3939  0.4520
  103OSM    H7S10446   6.246   0.634  10.298  1.0839 -1.2998  1.5845
  103OSM    H7T10447   6.423   0.657  10.281  1.2223  2.1318 -0.8290
  103OSM    C8S10448   6.319   0.670  10.093 -0.6865  0.2087  0.0219
  103OSM    H8S10449   6.223   0.702  10.046 -0.4914  2.7991  1.2140
  103OSM    H8T10450   6.334   0.560  10.081  0.0125  0.3180 -0.1065
  103OSM    C9S10451   6.423   0.746  10.008  0.1079 -0.2876 -0.1856
  103OSM    H9S10452   6.512   0.765  10.073  0.0125 -1.7538  0.4142
  103OSM    H9T10453   6.376   0.843   9.981  2.6865  1.1198  0.0284
  103OSM   C10S10454   6.483   0.685   9.882  0.3722 -0.4504  0.2563
  103OSM   H10S10455   6.524   0.583   9.897  2.6444  0.1074 -1.6633
  103OSM   H10T10456   6.571   0.741   9.846 -0.1442  1.4727  1.8014
  103OSM   C11S10457   6.375   0.668   9.770  0.4641 -0.0253 -0.1857
  103OSM   H11S10458   6.333   0.764   9.735 -0.7237 -0.6709 -0.5797
  103OSM   H11T10459   6.289   0.620   9.821  0.2053  2.3691  1.8017
  103OSM   C12S10460   6.431   0.575   9.656  0.5370  0.5293 -0.2523
  103OSM   H12S10461   6.493   0.494   9.701  0.8704  0.5619 -0.6532
  103OSM   H12T10462   6.498   0.644   9.600 -1.2695  3.2058  0.6764
  103OSM   C13S10463   6.334   0.512   9.557 -0.1365  0.3754  0.3631
  103OSM   H13S10464   6.288   0.418   9.596  0.0142 -0.0260 -0.4039
  103OSM   H13T10465   6.390   0.486   9.466 -0.8388  0.2239 -0.0353
  103OSM   C14S10466   6.223   0.617   9.499 -0.1218 -0.1538 -0.5715
  103OSM   H14S10467   6.284   0.706   9.470  1.9136 -1.7402 -1.4210
  103OSM   H14T10468   6.157   0.637   9.585  0.0575 -0.4375 -0.3656
  103OSM   C15S10469   6.125   0.561   9.397 -0.0911 -0.0737  0.2555
  103OSM   H15S10470   6.043   0.628   9.365  0.0494 -0.7632 -1.6486
  103OSM   H15T10471   6.080   0.466   9.433  0.0821  0.6691  2.6044
  103OSM   C16S10472   6.185   0.520   9.264  0.1075 -0.1752 -0.6630
  103OSM   H16S10473   6.277   0.461   9.284 -0.9165 -1.6163 -0.0453
  103OSM   H16T10474   6.217   0.607   9.203  0.0996 -0.1879 -0.6858
  103OSM   C17S10475   6.087   0.443   9.173 -0.4127  0.0094  0.1600
  103OSM   H17S10476   6.008   0.519   9.155  0.2881  0.5052 -0.9649
  103OSM   H17T10477   6.040   0.355   9.222 -0.5122  0.0539  0.1449
  103OSM   C18S10478   6.153   0.388   9.041 -0.2528 -0.1525 -0.1330
  103OSM   H18S10479   6.070   0.337   8.989 -0.8910 -0.3938  1.0913
  103OSM   H18T10480   6.235   0.316   9.062  0.2507  0.8316  1.5160
  103OSM   H18U10481   6.196   0.472   8.982 -0.0079 -1.2478 -1.5633
  103OSM    C1F10482   6.117   0.532  10.725  0.3293  0.5644 -0.3538
  103OSM     OF10483   6.030   0.533  10.813 -0.8180  0.5090 -0.3391
  103OSM    C2F10484   6.140   0.411  10.633  0.1202 -0.2104 -0.1879
  103OSM    H2F10485   6.217   0.349  10.683 -0.4919 -0.8424 -0.0106
  103OSM    H2G10486   6.181   0.452  10.538 -0.5174 -0.6719 -0.6730
  103OSM    C3F10487   6.008   0.331  10.605 -0.2400  0.7288  0.4478
  103OSM    H3F10488   5.941   0.369  10.525 -1.2491 -0.6205  0.6061
  103OSM    H3G10489   5.939   0.330  10.692 -1.3691 -2.5174 -0.3343
  103OSM    C4F10490   6.043   0.182  10.575 -0.3445  0.5940 -0.3104
  103OSM    H4F10491   5.952   0.121  10.557  0.4618 -0.1619 -2.0687
  103OSM    H4G10492   6.088   0.127  10.661 -1.5667 -0.1116 -0.1004
  103OSM    C5F10493   6.141   0.161  10.453 -0.3240 -0.2308 -0.5700
  103OSM    H5F10494   6.149   0.053  10.427 -0.0005 -0.5980  0.9574
  103OSM    H5G10495   6.241   0.201  10.480 -0.6162 -0.8515  1.6283
  103OSM    C6F10496   6.111   0.247  10.325 -0.2436 -0.1814 -0.1142
  103OSM    H6F10497   6.209   0.267  10.276 -0.2856 -0.1906 -0.2022
  103OSM    H6G10498   6.067   0.347  10.348 -0.7814  0.3231 -2.9893
  103OSM    C7F10499   6.011   0.180  10.230  0.1053  0.5842  0.3030
  103OSM    H7F10500   5.928   0.139  10.292 -0.7510  0.1704 -1.0621
  103OSM    H7G10501   6.061   0.094  10.181  1.0455  1.1261  0.2889
  103OSM    C8F10502   5.949   0.269  10.120  0.4935  0.2370 -0.5080
  103OSM    H8F10503   5.883   0.348  10.162  0.8758  3.1730 -4.7685
  103OSM    H8G10504   5.887   0.193  10.069 -0.2547 -0.3841  1.2684
  103OSM    C9F10505   6.049   0.345  10.038  0.0447 -0.2696 -0.1757
  103OSM    H9F10506   6.109   0.417  10.096 -0.2194  0.3060 -0.6095
  103OSM   C10F10507   6.073   0.340   9.905  0.9195 -0.1247 -0.2259
  103OSM   H10F10508   6.163   0.397   9.877  2.3841 -1.2168  1.9810
  103OSM   C11F10509   5.989   0.253   9.816 -0.1953 -0.5083 -0.3290
  103OSM   H11F10510   5.888   0.223   9.852 -0.0352  0.1145  0.6954
  103OSM   H11G10511   6.040   0.155   9.805 -0.2214 -0.5634  0.0246
  103OSM   C12F10512   5.966   0.285   9.668 -0.1452  0.2902 -0.3219
  103OSM   H12F10513   6.063   0.294   9.616  0.1210  1.0498  0.2732
  103OSM   H12G10514   5.920   0.386   9.653  1.4401  0.8020 -2.0245
  103OSM   C13F10515   5.889   0.175   9.604 -0.3333 -1.2872 -0.6298
  103OSM   H13F10516   5.934   0.076   9.627  0.0951 -0.4243  2.8225
  103OSM   H13G10517   5.789   0.172   9.652  0.0196  0.8705  0.3526
  103OSM   C14F10518   5.864   0.197   9.455 -0.0615  0.2275  0.4476
  103OSM   H14F10519   5.953   0.178   9.393 -0.6061 -0.3756 -0.1599
  103OSM   H14G10520   5.833   0.299   9.422 -0.6878  0.1887  0.8970
  103OSM   C15F10521   5.753   0.099   9.409  0.8417 -0.2035 -0.1347
  103OSM   H15F10522   5.658   0.141   9.447 -0.1733 -1.3505 -1.3208
  103OSM   H15G10523   5.758  -0.005   9.448  0.8855  0.4113  1.6256
  103OSM   C16F10524   5.743   0.076   9.263  0.3832 -0.1689 -0.0741
  103OSM   H16F10525   5.846   0.060   9.225  0.7478 -0.7414  1.1139
  103OSM   H16G10526   5.704   0.164   9.207  1.1045  0.1969 -0.0135
  103OSM   C17F10527   5.657  -0.041   9.225 -0.5049  0.2984 -0.5707
  103OSM   H17F10528   5.557  -0.025   9.271  0.1747 -0.5358  1.3130
  103OSM   H17G10529   5.695  -0.138   9.263  0.6932 -0.1140 -2.6399
  103OSM   C18F10530   5.638  -0.057   9.068  0.2536 -0.0641 -0.5528
  103OSM   H18F10531   5.744  -0.077   9.042  0.4752 -2.7206  1.9183
  103OSM   H18G10532   5.600   0.039   9.026 -0.9093  0.0595  0.7056
  103OSM   H18H10533   5.580  -0.147   9.039 -1.5259  1.3637 -1.6255
  104OSM      N10534   1.521   5.311  10.944 -0.1419  0.3693 -0.0570
  104OSM    C1510535   1.576   5.455  10.923  0.7730  0.7629 -0.6257
  104OSM   H15A10536   1.612   5.509  11.010 -0.8779  0.8872  0.0362
  104OSM   H15B10537   1.498   5.506  10.867  1.2557  1.5448 -0.5929
  104OSM   H15C10538   1.662   5.443  10.860  1.0223  0.7968 -0.2983
  104OSM    C1410539   1.402   5.316  11.038  0.6548 -0.4107  0.7210
  104OSM   H14A10540   1.323   5.380  11.003  2.6710  2.3181  0.7891
  104OSM   H14B10541   1.423   5.361  11.134 -0.1149  0.0415  0.6758
  104OSM   H14C10542   1.355   5.220  11.057  0.7442 -0.9412 -1.4808
  104OSM    C1310543   1.478   5.256  10.810 -0.0469 -0.5961 -0.4477
  104OSM   H13A10544   1.427   5.333  10.754  0.1952  0.3831  0.6458
  104OSM   H13B10545   1.423   5.166  10.832  0.8549 -1.4845 -1.6426
  104OSM   H13C10546   1.567   5.234  10.753 -1.9348  0.5357 -4.1445
  104OSM    C1210547   1.626   5.218  10.998 -0.7080 -0.4373  0.2558
  104OSM   H12A10548   1.583   5.120  11.012 -1.3794 -0.5629 -2.2240
  104OSM   H12B10549   1.662   5.263  11.089 -0.7043  0.3172 -0.1067
  104OSM    C1110550   1.758   5.203  10.922 -0.5069  0.2757 -0.1608
  104OSM   H11A10551   1.744   5.159  10.821 -0.2230 -3.7191  1.3261
  104OSM   H11B10552   1.807   5.119  10.977 -2.2837 -1.3879 -0.9915
  104OSM      P10553   1.983   5.322  10.937  0.1023 -0.1681  0.0251
  104OSM    O1310554   2.030   5.461  10.923  0.3798  0.0388  0.6535
  104OSM    O1410555   2.007   5.260  11.068  0.1576 -0.3543  1.0429
  104OSM    O1110556   2.044   5.219  10.832 -0.2250  0.0537  0.4282
  104OSM    O1210557   1.830   5.320  10.915 -0.3407 -0.6604 -0.0783
  104OSM    C1S10558   2.011   5.248  10.690  0.1644 -0.5572 -0.6060
  104OSM    H1S10559   2.068   5.335  10.653 -0.7218 -0.1950 -1.1565
  104OSM    H1T10560   1.903   5.270  10.678 -0.1004 -1.5383 -0.1428
  104OSM     NF10561   2.048   5.160  10.462  0.2870  1.0089 -0.3253
  104OSM    HNF10562   1.966   5.142  10.408 -0.7530 -2.7803  2.0897
  104OSM    C2S10563   2.041   5.120  10.604  0.4665 -0.3255  0.2094
  104OSM    H2S10564   2.137   5.069  10.629  1.5783  1.4163 -0.3139
  104OSM    C3S10565   1.937   4.998  10.635  0.2316  0.3771 -0.6897
  104OSM    H3S10566   1.839   5.046  10.612  0.7382  1.1900 -1.2272
  104OSM     O310567   1.939   4.970  10.773 -0.2079 -0.0499  0.3025
  104OSM    HO310568   1.958   5.053  10.815  1.2888 -0.9462  1.4828
  104OSM    C4S10569   1.957   4.876  10.548 -0.0376 -0.3130  0.1924
  104OSM    H4S10570   1.903   4.884  10.452 -1.0134  0.2913  0.7762
  104OSM    C5S10571   2.025   4.763  10.577  0.2743  0.1619 -0.5919
  104OSM    H5S10572   2.077   4.754  10.673 -0.4523 -2.0843 -0.3426
  104OSM    C6S10573   2.053   4.649  10.488  0.1253  0.3156 -0.7308
  104OSM    H6S10574   1.983   4.571  10.527  0.9774  0.9933  2.3964
  104OSM    H6T10575   2.154   4.605  10.500  0.1089  0.9170  2.5104
  104OSM    C7S10576   2.030   4.670  10.342  0.6446  0.0434 -0.7489
  104OSM    H7S10577   2.091   4.754  10.301 -0.5494  1.2586 -0.1207
  104OSM    H7T10578   1.922   4.692  10.328 -0.6853 -4.2093  1.1381
  104OSM    C8S10579   2.064   4.546  10.261  0.3078 -0.1814 -0.2913
  104OSM    H8S10580   2.020   4.452  10.299 -1.6789  0.6981 -0.2756
  104OSM    H8T10581   2.175   4.537  10.265  0.3418  0.2800 -0.0852
  104OSM    C9S10582   2.015   4.562  10.118  0.8280  0.0199  0.3609
  104OSM    H9S10583   1.917   4.614  10.118  0.9986  0.3435  0.1544
  104OSM    H9T10584   2.002   4.456  10.086  0.0496 -0.2316  1.4454
  104OSM   C10S10585   2.099   4.648  10.029  0.0249  0.0809 -0.3086
  104OSM   H10S10586   2.201   4.617  10.061 -0.3949  0.3198  1.3850
  104OSM   H10T10587   2.098   4.757  10.050  0.5483  0.5180 -2.3377
  104OSM   C11S10588   2.077   4.632   9.872 -0.0291  0.0069  0.1652
  104OSM   H11S10589   1.974   4.591   9.859 -1.9348  3.5620  2.3949
  104OSM   H11T10590   2.154   4.557   9.844  0.1499 -0.1267  0.9751
  104OSM   C12S10591   2.094   4.753   9.788 -0.2610  0.3950 -0.1361
  104OSM   H12S10592   2.185   4.811   9.814 -1.1161  2.3862 -1.3630
  104OSM   H12T10593   2.007   4.815   9.817 -0.9479 -0.8712  0.5737
  104OSM   C13S10594   2.080   4.728   9.636 -0.7540  0.4081 -0.0592
  104OSM   H13S10595   2.011   4.642   9.622  1.1551 -1.2778  0.3630
  104OSM   H13T10596   2.184   4.709   9.601 -1.2844 -0.5020 -1.2018
  104OSM   C14S10597   2.031   4.845   9.559  0.0821 -0.7034  0.2862
  104OSM   H14S10598   2.053   4.944   9.605  0.4472 -1.4262  1.7187
  104OSM   H14T10599   1.922   4.839   9.540  0.3967 -1.0642 -1.6129
  104OSM   C15S10600   2.097   4.850   9.420  0.1043  0.1491 -1.2431
  104OSM   H15S10601   2.103   4.758   9.359 -2.3903 -0.3117 -0.8923
  104OSM   H15T10602   2.204   4.879   9.436 -0.7926  4.2368 -1.4737
  104OSM   C16S10603   2.036   4.954   9.332  0.2638  0.7938 -0.6987
  104OSM   H16S10604   2.058   5.049   9.386 -0.5320  0.0524  0.9976
  104OSM   H16T10605   1.929   4.928   9.349  0.5955  0.1681  0.5553
  104OSM   C17S10606   2.083   4.961   9.192  0.0165  0.5347  0.3826
  104OSM   H17S10607   2.019   5.035   9.139 -0.2591 -0.7275 -1.1254
  104OSM   H17T10608   2.072   4.867   9.134  1.3966  2.2094 -2.8164
  104OSM   C18S10609   2.229   5.000   9.173 -0.1668  0.4649  0.5640
  104OSM   H18S10610   2.266   5.000   9.068 -1.4809  2.3957  0.0375
  104OSM   H18T10611   2.297   4.925   9.218  0.3286  0.7372  0.2767
  104OSM   H18U10612   2.248   5.099   9.219  2.1204  0.9784 -1.3067
  104OSM    C1F10613   2.150   5.230  10.420 -0.3019 -0.5774  0.2103
  104OSM     OF10614   2.250   5.234  10.491 -0.0557 -0.3319 -0.4115
  104OSM    C2F10615   2.141   5.283  10.283 -0.1506 -0.4708  0.3517
  104OSM    H2F10616   2.037   5.299  10.248  0.5685  0.5643 -1.4269
  104OSM    H2G10617   2.170   5.207  10.209 -2.7309  1.6179 -3.1025
  104OSM    C3F10618   2.233   5.406  10.240 -0.2521  0.4318  0.1125
  104OSM    H3F10619   2.334   5.375  10.273 -0.1124  0.8871  0.1254
  104OSM    H3G10620   2.195   5.491  10.301  1.3152 -0.2367  2.1313
  104OSM    C4F10621   2.214   5.431  10.089 -0.3368 -0.2306 -0.6023
  104OSM    H4F10622   2.256   5.531  10.066  0.3832 -0.1345  1.0158
  104OSM    H4G10623   2.103   5.426  10.080 -0.2180 -1.0442 -1.8746
  104OSM    C5F10624   2.275   5.337   9.984 -0.3298  0.6144 -0.2793
  104OSM    H5F10625   2.238   5.233  10.001 -0.2814  1.0019  2.6085
  104OSM    H5G10626   2.384   5.327  10.000 -0.7625 -0.4067  2.6801
  104OSM    C6F10627   2.245   5.396   9.846  0.4751 -0.0620 -0.1224
  104OSM    H6F10628   2.281   5.498   9.823 -0.2229  0.0324 -0.8287
  104OSM    H6G10629   2.135   5.405   9.841  0.5400  0.2307 -1.2460
  104OSM    C7F10630   2.296   5.295   9.743 -0.8627 -0.3183  0.5860
  104OSM    H7F10631   2.254   5.195   9.766 -2.9740  0.4867  0.4292
  104OSM    H7G10632   2.406   5.279   9.751 -0.7415  0.8408  1.5640
  104OSM    C8F10633   2.267   5.333   9.594  0.9440  0.3767 -0.2915
  104OSM    H8F10634   2.311   5.254   9.530  0.5610  0.8389 -1.1488
  104OSM    H8G10635   2.311   5.434   9.578 -2.7579  2.1891 -0.1004
  104OSM    C9F10636   2.119   5.334   9.563 -0.3459 -0.5525  0.3291
  104OSM    H9F10637   2.054   5.272   9.625 -1.1199  1.4428  1.6280
  104OSM   C10F10638   2.052   5.421   9.477  0.3673 -0.2596 -0.4420
  104OSM   H10F10639   1.947   5.391   9.466 -0.0325 -0.1058  2.3685
  104OSM   C11F10640   2.098   5.537   9.382  0.2750 -0.1177 -0.4727
  104OSM   H11F10641   2.207   5.536   9.364 -0.0610  0.0872 -2.8442
  104OSM   H11G10642   2.065   5.638   9.413  0.1399 -0.9896  2.5198
  104OSM   C12F10643   2.030   5.507   9.247  0.3100  0.0108 -0.3274
  104OSM   H12F10644   2.046   5.590   9.175 -0.0999  0.0060 -0.4276
  104OSM   H12G10645   1.922   5.502   9.275 -0.0156  2.1249 -1.0217
  104OSM   C13F10646   2.091   5.388   9.174 -0.5794 -0.0454 -0.6584
  104OSM   H13F10647   2.081   5.298   9.239 -0.2832  1.0066  0.9183
  104OSM   H13G10648   2.196   5.421   9.162 -0.5895  0.3067  0.1262
  104OSM   C14F10649   2.033   5.353   9.032 -0.1803  0.7087  0.0195
  104OSM   H14F10650   2.097   5.273   8.990 -0.0817  0.6068  0.3561
  104OSM   H14G10651   2.023   5.443   8.968 -1.4305  0.8272  0.3623
  104OSM   C15F10652   1.886   5.309   9.044  0.4725 -0.0624  1.4199
  104OSM   H15F10653   1.819   5.386   9.087 -0.3787 -0.5800  1.0263
  104OSM   H15G10654   1.883   5.219   9.110 -0.4820 -0.5792  0.6978
  104OSM   C16F10655   1.835   5.268   8.904 -0.2910 -0.0320 -0.2326
  104OSM   H16F10656   1.741   5.211   8.921  0.4289 -1.2617 -0.2427
  104OSM   H16G10657   1.908   5.201   8.854 -0.1976 -0.8646  0.9607
  104OSM   C17F10658   1.809   5.386   8.815  0.4805 -0.4241  0.2208
  104OSM   H17F10659   1.774   5.352   8.716  1.1233 -1.7349  0.4268
  104OSM   H17G10660   1.910   5.432   8.805 -0.0765  0.7005 -0.4139
  104OSM   C18F10661   1.721   5.501   8.863  0.0556  0.1137  0.5234
  104OSM   H18F10662   1.614   5.474   8.874 -0.3275  1.3381  0.0219
  104OSM   H18G10663   1.724   5.593   8.801  1.7981  0.7005  1.4106
  104OSM   H18H10664   1.760   5.527   8.964 -1.1275 -0.4851  1.1537
  105OSM      N10665   1.112   4.909  11.285  0.7314  0.1661 -0.0819
  105OSM    C1510666   1.113   4.811  11.399  0.1976  0.4495 -0.0313
  105OSM   H15A10667   1.023   4.750  11.396 -0.4157  1.3605 -0.5889
  105OSM   H15B10668   1.128   4.849  11.499  0.6068  0.9657 -0.2875
  105OSM   H15C10669   1.195   4.742  11.386 -0.3765 -0.3670  0.5458
  105OSM    C1410670   1.044   4.867  11.167 -0.3675  0.1053  0.4789
  105OSM   H14A10671   0.952   4.812  11.181 -0.0472 -1.0204 -1.3983
  105OSM   H14B10672   1.109   4.800  11.114  1.1665  1.3352  0.7341
  105OSM   H14C10673   1.021   4.949  11.100  0.0758  1.0618  1.4674
  105OSM    C1310674   1.024   5.020  11.340 -0.7702  0.0236  0.9203
  105OSM   H13A10675   1.080   5.080  11.410 -0.8588 -0.1199  1.1177
  105OSM   H13B10676   0.937   4.978  11.389 -0.9447  1.7175  2.1797
  105OSM   H13C10677   0.991   5.085  11.260 -0.5651  1.1283  1.7072
  105OSM    C1210678   1.249   4.951  11.260  0.4386 -0.1158  0.3168
  105OSM   H12A10679   1.288   5.010  11.342  1.1088  0.4853 -0.4093
  105OSM   H12B10680   1.243   5.028  11.184 -0.9050  2.1695  2.6041
  105OSM    C1110681   1.352   4.841  11.196  0.0930  0.2445 -0.4188
  105OSM   H11A10682   1.343   4.750  11.259  0.7902 -0.0686 -0.7738
  105OSM   H11B10683   1.456   4.879  11.201 -0.0230  0.5443 -0.2479
  105OSM      P10684   1.367   4.896  10.951  0.4460  0.5372  0.3687
  105OSM    O1310685   1.272   5.006  10.922 -0.5430  0.0351  0.4765
  105OSM    O1410686   1.506   4.937  10.973  0.4374 -0.2513  0.3522
  105OSM    O1110687   1.357   4.802  10.827  1.1199  0.1070  0.0182
  105OSM    O1210688   1.318   4.800  11.064 -0.4411  0.6228  0.0817
  105OSM    C1S10689   1.385   4.666  10.843 -0.1181 -0.0960 -0.2124
  105OSM    H1S10690   1.307   4.609  10.899  2.4837 -2.5340  1.1712
  105OSM    H1T10691   1.478   4.652  10.902 -0.8075  2.4084  1.6797
  105OSM     NF10692   1.395   4.440  10.717  0.8253 -0.2048  0.2164
  105OSM    HNF10693   1.484   4.396  10.711  0.9089  0.0590 -4.1175
  105OSM    C2S10694   1.403   4.594  10.705 -0.0068 -0.2307  0.1773
  105OSM    H2S10695   1.313   4.627  10.649  0.9368  1.8060 -0.2324
  105OSM    C3S10696   1.525   4.648  10.625 -0.3204 -0.2968  0.4207
  105OSM    H3S10697   1.623   4.636  10.674  0.1313  0.3195 -0.3077
  105OSM     O310698   1.530   4.792  10.620 -0.1665 -0.2472 -0.8096
  105OSM    HO310699   1.522   4.813  10.713 -0.0793 -0.1104 -0.8339
  105OSM    C4S10700   1.529   4.597  10.479 -0.2951 -0.1136  0.4609
  105OSM    H4S10701   1.455   4.636  10.408 -0.2650 -0.0232  0.4803
  105OSM    C5S10702   1.618   4.506  10.432 -0.5354 -0.4243 -0.2906
  105OSM    H5S10703   1.678   4.463  10.513 -0.7619  2.8681  1.8419
  105OSM    C6S10704   1.623   4.453  10.296  0.0725 -0.2948  0.8101
  105OSM    H6S10705   1.590   4.347  10.286  1.8300 -0.7090 -1.3164
  105OSM    H6T10706   1.732   4.450  10.277 -0.1797 -0.1426 -0.8490
  105OSM    C7S10707   1.564   4.531  10.178 -0.0558 -0.4530  0.4542
  105OSM    H7S10708   1.602   4.635  10.192  2.1775 -1.2833  0.8378
  105OSM    H7T10709   1.452   4.533  10.180 -0.1798  1.1373 -2.3196
  105OSM    C8S10710   1.612   4.486  10.045  0.6488 -0.4963  0.6797
  105OSM    H8S10711   1.578   4.382  10.023  1.1293 -0.6951  0.8660
  105OSM    H8T10712   1.723   4.491  10.042  0.5957  1.4313  0.5277
  105OSM    C9S10713   1.568   4.571   9.917  0.6686 -0.4184  0.0130
  105OSM    H9S10714   1.612   4.673   9.930 -0.2335 -0.1952  1.5459
  105OSM    H9T10715   1.461   4.602   9.918  0.5649 -0.7748 -0.0293
  105OSM   C10S10716   1.605   4.502   9.786 -0.5894 -0.2641 -0.1261
  105OSM   H10S10717   1.555   4.404   9.777 -0.4277 -0.7297  2.9569
  105OSM   H10T10718   1.715   4.489   9.790 -0.7052 -1.2255  0.0055
  105OSM   C11S10719   1.565   4.580   9.661  0.1069  0.0649 -0.4319
  105OSM   H11S10720   1.608   4.682   9.658 -0.5495  0.3193 -2.5120
  105OSM   H11T10721   1.455   4.578   9.678 -0.0996 -2.1509 -1.6455
  105OSM   C12S10722   1.591   4.503   9.527  0.5498  0.9625  0.0859
  105OSM   H12S10723   1.550   4.401   9.539 -0.1026  1.0864 -1.0004
  105OSM   H12T10724   1.701   4.496   9.512  0.4026  0.0431 -0.5954
  105OSM   C13S10725   1.532   4.566   9.404  0.1478 -0.5670  0.1644
  105OSM   H13S10726   1.591   4.658   9.385 -0.1647 -0.0751  1.4619
  105OSM   H13T10727   1.425   4.593   9.407  0.5741  1.5282 -1.6300
  105OSM   C14S10728   1.547   4.481   9.271  0.6517  0.3459  0.3362
  105OSM   H14S10729   1.504   4.382   9.298  0.1280  0.4412 -0.1382
  105OSM   H14T10730   1.653   4.468   9.239  0.9391 -1.9882  1.9839
  105OSM   C15S10731   1.476   4.553   9.155 -0.6390  0.1095 -0.3095
  105OSM   H15S10732   1.379   4.590   9.194 -1.3001 -1.0903 -0.7546
  105OSM   H15T10733   1.446   4.484   9.073  2.0805 -2.3810  0.5888
  105OSM   C16S10734   1.566   4.668   9.093  0.5678  0.4770  0.0646
  105OSM   H16S10735   1.673   4.638   9.082  0.1745 -0.4193 -1.6726
  105OSM   H16T10736   1.561   4.753   9.165 -0.8192 -0.7741  1.5265
  105OSM   C17S10737   1.516   4.702   8.949 -0.3597  0.4641  0.2268
  105OSM   H17S10738   1.416   4.750   8.953  0.5211  2.4903 -0.3222
  105OSM   H17T10739   1.508   4.609   8.889 -0.9276  1.4395 -1.2748
  105OSM   C18S10740   1.611   4.787   8.872 -0.5409  0.8098  0.1815
  105OSM   H18S10741   1.652   4.862   8.943  2.3090  0.5491 -1.0533
  105OSM   H18T10742   1.576   4.842   8.781  0.3051  0.9349 -0.0726
  105OSM   H18U10743   1.697   4.721   8.849 -0.0933  1.2458  0.6015
  105OSM    C1F10744   1.275   4.379  10.730 -0.6149 -0.5357  0.1859
  105OSM     OF10745   1.174   4.447  10.731  0.5385  0.0089  0.0029
  105OSM    C2F10746   1.278   4.229  10.743  0.3871  0.2341  0.2821
  105OSM    H2F10747   1.172   4.197  10.736 -0.0860  1.4957  1.3576
  105OSM    H2G10748   1.298   4.203  10.849 -2.5501  3.0135  1.6858
  105OSM    C3F10749   1.369   4.155  10.641 -0.0514 -0.0400  1.0607
  105OSM    H3F10750   1.384   4.049  10.669  1.8167 -0.3675 -0.8967
  105OSM    H3G10751   1.471   4.196  10.626 -0.2277  1.0033  2.5038
  105OSM    C4F10752   1.321   4.161  10.496 -0.1352 -0.9088  0.4181
  105OSM    H4F10753   1.298   4.270  10.495 -1.1756 -1.0277  3.3726
  105OSM    H4G10754   1.221   4.112  10.491 -1.6270  1.7246  2.2697
  105OSM    C5F10755   1.413   4.099  10.391  0.1600 -0.3614  0.1087
  105OSM    H5F10756   1.422   3.992  10.418 -2.1109 -0.1503  1.9981
  105OSM    H5G10757   1.513   4.147  10.394  0.8537 -1.5891 -1.6997
  105OSM    C6F10758   1.359   4.113  10.244 -0.0522 -0.7730  0.9184
  105OSM    H6F10759   1.379   4.220  10.218  1.3368 -1.6284 -2.0194
  105OSM    H6G10760   1.252   4.086  10.234 -0.7026  1.5731  0.8775
  105OSM    C7F10761   1.443   4.040  10.143  0.1677  0.0587  0.6176
  105OSM    H7F10762   1.452   3.935  10.179  3.8262  0.6810  1.9517
  105OSM    H7G10763   1.548   4.076  10.146  1.1149 -2.2300 -1.4040
  105OSM    C8F10764   1.384   4.039   9.997 -0.5561 -0.1640 -0.6909
  105OSM    H8F10765   1.375   4.147   9.973  1.4816  0.1335 -0.2691
  105OSM    H8G10766   1.282   3.995  10.008 -1.5840  2.4577  1.1741
  105OSM    C9F10767   1.480   3.963   9.902 -0.1812  0.3580  0.0816
  105OSM    H9F10768   1.550   3.889   9.944 -0.6214 -0.0726  0.0661
  105OSM   C10F10769   1.488   3.983   9.767  0.1239  0.2675 -0.5564
  105OSM   H10F10770   1.563   3.917   9.722 -0.0515 -0.4232  0.1385
  105OSM   C11F10771   1.422   4.081   9.669  0.2398  0.2632  0.0017
  105OSM   H11F10772   1.457   4.186   9.681  2.7759 -0.6174  1.0438
  105OSM   H11G10773   1.312   4.063   9.669  0.2444  0.2355  0.2414
  105OSM   C12F10774   1.467   4.041   9.520 -0.0566  0.0311 -0.1643
  105OSM   H12F10775   1.461   3.931   9.508 -1.8794  0.1214 -0.4346
  105OSM   H12G10776   1.575   4.064   9.518  0.4641 -2.2161 -2.0386
  105OSM   C13F10777   1.390   4.112   9.408  0.0042  0.2789 -0.2272
  105OSM   H13F10778   1.404   4.222   9.418  2.9948 -0.0254 -0.2201
  105OSM   H13G10779   1.283   4.083   9.420 -0.1140  0.9064  0.2631
  105OSM   C14F10780   1.450   4.081   9.267  0.0508  0.2681 -0.2201
  105OSM   H14F10781   1.396   4.139   9.190 -2.6711 -0.7759  0.7745
  105OSM   H14G10782   1.436   3.978   9.227 -1.4643  0.3147  0.1245
  105OSM   C15F10783   1.601   4.112   9.248 -0.2115  0.2283  0.0431
  105OSM   H15F10784   1.654   4.014   9.249  2.2310  1.4585  2.2999
  105OSM   H15G10785   1.644   4.164   9.336 -0.4601 -1.1458  1.0159
  105OSM   C16F10786   1.631   4.173   9.115 -0.5515  0.0006 -0.4966
  105OSM   H16F10787   1.605   4.281   9.118  0.0879  0.2436 -2.4173
  105OSM   H16G10788   1.577   4.131   9.027  0.5455  3.2285 -2.9140
  105OSM   C17F10789   1.779   4.164   9.076 -0.4904  0.6283  0.6368
  105OSM   H17F10790   1.801   4.058   9.054 -0.3471  0.1707  2.7616
  105OSM   H17G10791   1.850   4.181   9.160 -0.0053  1.1148  0.1380
  105OSM   C18F10792   1.827   4.240   8.957  0.4135  0.0657 -0.2208
  105OSM   H18F10793   1.924   4.204   8.917 -0.1258  0.2037 -1.6970
  105OSM   H18G10794   1.856   4.341   8.992  0.6552  0.5096 -1.6409
  105OSM   H18H10795   1.755   4.236   8.873 -2.2808 -1.2471  1.9603
  106OSM      N10796   4.259   5.066  10.845  0.4598  0.4771  0.0645
  106OSM    C1510797   4.218   5.167  10.745  0.1560  0.0203 -0.3198
  106OSM   H15A10798   4.234   5.138  10.642  1.8259  1.0876 -0.4008
  106OSM   H15B10799   4.278   5.255  10.762 -0.7636  0.9652 -1.6642
  106OSM   H15C10800   4.120   5.207  10.769 -0.2343  0.1899 -2.0304
  106OSM    C1410801   4.225   5.114  10.983  0.5290  0.1390  0.0718
  106OSM   H14A10802   4.259   5.052  11.065 -0.7132  1.3622  1.5676
  106OSM   H14B10803   4.118   5.121  10.993  0.1441 -1.7244 -2.0465
  106OSM   H14C10804   4.254   5.217  10.996 -1.1766  0.5283  1.0833
  106OSM    C1310805   4.171   4.945  10.810  0.5317  0.0597 -0.7292
  106OSM   H13A10806   4.206   4.861  10.867  0.4810  2.0398  2.4462
  106OSM   H13B10807   4.166   4.931  10.703 -1.2430 -0.5904 -0.5932
  106OSM   H13C10808   4.071   4.958  10.848  0.4510 -1.7102 -0.2634
  106OSM    C1210809   4.403   5.036  10.837  1.0032 -0.8219 -0.2345
  106OSM   H12A10810   4.449   5.132  10.817  0.5121 -0.4139  0.5174
  106OSM   H12B10811   4.427   4.984  10.746  1.3164  0.2245 -0.7655
  106OSM    C1110812   4.475   4.962  10.957 -0.5146  0.1188 -0.0563
  106OSM   H11A10813   4.464   5.020  11.051  1.5197 -0.1206  0.3817
  106OSM   H11B10814   4.585   4.978  10.952 -0.4453 -0.0647  0.7293
  106OSM      P10815   4.498   4.716  10.863 -0.2071  0.2954  0.1691
  106OSM    O1310816   4.640   4.715  10.885 -0.0649 -0.9922 -0.9186
  106OSM    O1410817   4.426   4.581  10.870  0.5764 -1.1436  0.3778
  106OSM    O1110818   4.476   4.774  10.722 -0.2943  0.5332 -0.2111
  106OSM    O1210819   4.432   4.821  10.959  0.0299 -0.5022 -0.1573
  106OSM    C1S10820   4.573   4.737  10.613  0.3076 -0.2549 -0.5939
  106OSM    H1S10821   4.595   4.629  10.604  1.1917 -0.2581  1.0489
  106OSM    H1T10822   4.676   4.778  10.625  1.0875 -0.8270 -4.3149
  106OSM     NF10823   4.627   4.867  10.416 -0.0564 -0.7782  0.3250
  106OSM    HNF10824   4.600   4.961  10.436 -2.0723 -1.2963  0.2049
  106OSM    C2S10825   4.528   4.776  10.469 -0.4776  0.4330 -0.0272
  106OSM    H2S10826   4.524   4.681  10.413  0.6548  1.6550 -2.3603
  106OSM    C3S10827   4.381   4.825  10.479  0.1328  0.3218  0.8738
  106OSM    H3S10828   4.389   4.926  10.523 -1.9863  0.9413 -0.0332
  106OSM     O310829   4.289   4.745  10.549  0.0316 -0.8611 -0.3510
  106OSM    HO310830   4.345   4.730  10.625  2.2930  1.1447 -1.5092
  106OSM    C4S10831   4.334   4.850  10.330  0.0471 -0.2471 -0.2984
  106OSM    H4S10832   4.396   4.924  10.275  0.6789 -1.8522 -1.8271
  106OSM    C5S10833   4.249   4.764  10.262  0.0689  0.0558 -0.7499
  106OSM    H5S10834   4.203   4.681  10.318  1.4831  1.4114  2.7000
  106OSM    C6S10835   4.210   4.778  10.118 -0.3729  0.0864  0.2633
  106OSM    H6S10836   4.104   4.795  10.091 -0.3763 -1.5647 -0.9001
  106OSM    H6T10837   4.225   4.677  10.074  1.9252  0.8893 -0.9453
  106OSM    C7S10838   4.292   4.880  10.040 -0.2631  0.1677  0.1960
  106OSM    H7S10839   4.396   4.841  10.042 -0.3272 -0.1952 -1.6221
  106OSM    H7T10840   4.308   4.977  10.093  1.6222  0.3717 -0.6512
  106OSM    C8S10841   4.252   4.901   9.895  0.0480 -0.5606 -0.3921
  106OSM    H8S10842   4.312   4.976   9.840  3.0308 -2.5990 -0.1362
  106OSM    H8T10843   4.143   4.922   9.904 -0.1105 -0.6887 -1.8298
  106OSM    C9S10844   4.268   4.775   9.808 -0.0772  0.9661  0.1612
  106OSM    H9S10845   4.182   4.708   9.830  1.4949 -1.7474 -1.4389
  106OSM    H9T10846   4.364   4.725   9.832 -0.2993 -0.4516 -1.6589
  106OSM   C10S10847   4.267   4.813   9.655  0.2388  0.2263  0.3584
  106OSM   H10S10848   4.285   4.713   9.609 -0.0856 -0.9388  2.6243
  106OSM   H10T10849   4.355   4.876   9.631  0.0112  0.4544  0.1278
  106OSM   C11S10850   4.139   4.876   9.610 -0.8094 -0.1259  0.2912
  106OSM   H11S10851   4.140   4.975   9.661  0.3411 -0.7295  1.4925
  106OSM   H11T10852   4.050   4.817   9.640 -1.8986  0.7845 -1.0109
  106OSM   C12S10853   4.128   4.909   9.463  0.3975 -0.0788  0.4663
  106OSM   H12S10854   4.019   4.921   9.443 -0.3687 -1.8211  2.9932
  106OSM   H12T10855   4.158   4.823   9.399 -1.0230  0.3881 -0.8898
  106OSM   C13S10856   4.212   5.033   9.418 -0.1006 -0.2760  0.2834
  106OSM   H13S10857   4.292   5.060   9.491  1.8695  2.0432 -2.5177
  106OSM   H13T10858   4.149   5.124   9.432  1.5111  0.6077  2.3833
  106OSM   C14S10859   4.266   5.007   9.282 -0.8834 -0.6575  1.0957
  106OSM   H14S10860   4.186   4.980   9.210  0.6709 -1.0106 -0.5678
  106OSM   H14T10861   4.331   4.917   9.284 -0.0252 -0.0795  0.1782
  106OSM   C15S10862   4.336   5.132   9.221  0.0252  0.0822 -0.2513
  106OSM   H15S10863   4.427   5.157   9.280  0.4315  0.6909 -1.1198
  106OSM   H15T10864   4.251   5.204   9.233 -0.5528 -0.9762  2.8169
  106OSM   C16S10865   4.385   5.125   9.079 -0.0578  0.1262 -0.1796
  106OSM   H16S10866   4.306   5.071   9.023  1.7046 -1.7786 -0.9317
  106OSM   H16T10867   4.471   5.058   9.059  0.4517  0.7899 -0.2879
  106OSM   C17S10868   4.417   5.263   9.016 -0.2581  0.1357 -0.0886
  106OSM   H17S10869   4.503   5.299   9.076  0.5749 -0.5714 -0.8288
  106OSM   H17T10870   4.326   5.324   9.029 -0.3365  0.2421 -1.0371
  106OSM   C18S10871   4.457   5.268   8.862  0.5454 -0.2681  0.2351
  106OSM   H18S10872   4.455   5.376   8.833  1.4583 -0.3968 -0.3293
  106OSM   H18T10873   4.381   5.211   8.804 -0.1392 -0.2637  1.0967
  106OSM   H18U10874   4.562   5.235   8.849  0.4171  0.2708 -2.8200
  106OSM    C1F10875   4.751   4.833  10.381  0.5167  0.5498 -0.6493
  106OSM     OF10876   4.793   4.717  10.403 -0.4179 -0.3794  0.0129
  106OSM    C2F10877   4.838   4.924  10.311  0.3550 -0.6069 -0.1126
  106OSM    H2F10878   4.847   5.018  10.369 -0.0243 -1.2082  0.9371
  106OSM    H2G10879   4.779   4.956  10.222 -1.0261 -0.2281  0.9168
  106OSM    C3F10880   4.975   4.864  10.266  0.6906 -0.4156 -0.1478
  106OSM    H3F10881   4.973   4.765  10.217 -2.7388 -2.1062  2.9489
  106OSM    H3G10882   5.027   4.856  10.364 -0.5842 -0.4786  0.5551
  106OSM    C4F10883   5.046   4.965  10.176 -0.0364  0.5597 -0.9551
  106OSM    H4F10884   5.041   5.060  10.233 -2.1000 -1.5283  2.7279
  106OSM    H4G10885   4.982   4.970  10.085 -0.8335 -0.6360 -0.4860
  106OSM    C5F10886   5.201   4.936  10.137  0.1131 -0.3892 -0.4281
  106OSM    H5F10887   5.223   4.868  10.222  1.1573  0.5310  0.0688
  106OSM    H5G10888   5.250   5.036  10.140  1.5471 -1.0245 -1.7700
  106OSM    C6F10889   5.227   4.876  10.000  0.5375 -0.2332 -0.0748
  106OSM    H6F10890   5.163   4.785  10.002  0.5273 -0.2256 -0.0512
  106OSM    H6G10891   5.335   4.853   9.984  0.4994 -0.0697 -0.5704
  106OSM    C7F10892   5.173   4.960   9.889  0.3855  0.2783  0.4548
  106OSM    H7F10893   5.243   5.043   9.863  2.6807 -1.3419  1.1072
  106OSM    H7G10894   5.069   4.998   9.898  0.4316  0.2531  1.1158
  106OSM    C8F10895   5.175   4.874   9.763  0.2155 -0.3505  0.8925
  106OSM    H8F10896   5.113   4.787   9.794  0.5153 -0.6854  0.5507
  106OSM    H8G10897   5.273   4.825   9.748  0.0195 -2.0303  4.1277
  106OSM    C9F10898   5.099   4.951   9.658 -0.9542 -0.7312  0.4233
  106OSM    H9F10899   4.992   4.925   9.651 -1.0478 -0.6640  1.4505
  106OSM   C10F10900   5.141   5.050   9.574  0.7395 -0.1424 -0.3991
  106OSM   H10F10901   5.066   5.099   9.510  0.5466 -1.2232 -1.0173
  106OSM   C11F10902   5.280   5.117   9.558  0.3857 -0.3458 -0.4898
  106OSM   H11F10903   5.361   5.051   9.596 -0.0673 -0.6055  0.0416
  106OSM   H11G10904   5.281   5.202   9.629 -1.4520  0.0238 -0.8577
  106OSM   C12F10905   5.321   5.171   9.422 -0.6538  0.3123  0.1375
  106OSM   H12F10906   5.415   5.229   9.432  1.1487 -2.0369 -1.6868
  106OSM   H12G10907   5.235   5.226   9.380 -2.2173  0.6120  3.3884
  106OSM   C13F10908   5.369   5.062   9.330  0.4473  0.3511  0.3117
  106OSM   H13F10909   5.272   5.024   9.292  0.4742 -0.0815  0.6746
  106OSM   H13G10910   5.435   4.985   9.375 -0.2463 -0.6158 -0.3019
  106OSM   C14F10911   5.440   5.115   9.206  0.0101  0.6578 -0.1436
  106OSM   H14F10912   5.464   5.027   9.143  1.7286 -0.5699  2.0925
  106OSM   H14G10913   5.537   5.160   9.235  1.2107 -0.0083 -2.8400
  106OSM   C15F10914   5.355   5.211   9.115 -0.5693 -0.1315 -0.4451
  106OSM   H15F10915   5.412   5.216   9.020 -0.8504  0.2890 -0.5952
  106OSM   H15G10916   5.345   5.316   9.150 -0.1041  0.6825 -2.6143
  106OSM   C16F10917   5.223   5.152   9.078 -0.1615 -0.1076  0.5310
  106OSM   H16F10918   5.168   5.156   9.174  0.4441  0.6277  0.8488
  106OSM   H16G10919   5.239   5.044   9.055 -1.2716 -0.5642  1.7469
  106OSM   C17F10920   5.149   5.227   8.971  0.1344  0.1537 -0.7151
  106OSM   H17F10921   5.206   5.213   8.876  1.3773  1.3467 -0.1822
  106OSM   H17G10922   5.175   5.334   8.988  0.9448 -0.2767  0.9847
  106OSM   C18F10923   4.997   5.203   8.968 -0.4187 -0.0710  0.6465
  106OSM   H18F10924   4.964   5.243   9.067  0.9031 -0.0574  1.1161
  106OSM   H18G10925   4.962   5.100   8.951  1.7616 -0.7211 -0.2488
  106OSM   H18H10926   4.957   5.264   8.885  1.7030 -0.1654 -0.5265
  107OSM      N10927   5.002   1.600  11.297  0.4161  0.3806 -0.2718
  107OSM    C1510928   5.058   1.542  11.173  0.8096 -0.2719 -0.3431
  107OSM   H15A10929   4.999   1.560  11.084  0.3457 -0.2866 -0.0387
  107OSM   H15B10930   5.069   1.435  11.185 -4.0074 -0.7129  2.4223
  107OSM   H15C10931   5.155   1.588  11.157 -0.0062  1.3115 -0.8830
  107OSM    C1410932   4.857   1.549  11.312  0.2459  0.2757 -0.4703
  107OSM   H14A10933   4.860   1.441  11.316 -0.7280  0.2066 -1.1783
  107OSM   H14B10934   4.798   1.589  11.231  1.8073  0.3397 -1.6281
  107OSM   H14C10935   4.811   1.575  11.406  1.2160  0.1202  0.0527
  107OSM    C1310936   5.079   1.542  11.420  0.7604 -0.4038  1.0046
  107OSM   H13A10937   5.184   1.567  11.423  0.8570 -0.1292 -1.7710
  107OSM   H13B10938   5.072   1.434  11.417  0.2921 -0.4001  1.7969
  107OSM   H13C10939   5.030   1.578  11.509 -1.0052  1.4037 -0.5902
  107OSM    C1210940   5.006   1.754  11.300 -0.8939 -0.1550  0.1398
  107OSM   H12A10941   5.108   1.790  11.305 -0.9266  0.4077 -2.0945
  107OSM   H12B10942   4.952   1.791  11.386 -1.0909  0.3280 -0.1856
  107OSM    C1110943   4.941   1.833  11.184  0.4072  0.3121  0.2636
  107OSM   H11A10944   4.983   1.796  11.088  0.0036  1.6466 -0.4480
  107OSM   H11B10945   4.954   1.944  11.188 -2.4097  0.6920  0.7000
  107OSM      P10946   4.730   1.789  11.052 -0.3768  0.7597 -0.2555
  107OSM    O1310947   4.819   1.707  10.971 -0.1014  0.9586 -0.3778
  107OSM    O1410948   4.596   1.736  11.070  0.4516  0.4820  0.2304
  107OSM    O1110949   4.710   1.934  10.985  0.4077 -0.3853 -0.3626
  107OSM    O1210950   4.799   1.822  11.186 -0.6979  0.1107 -0.3778
  107OSM    C1S10951   4.823   1.981  10.903 -0.2595 -0.1089 -0.0944
  107OSM    H1S10952   4.923   1.940  10.929 -0.2739  0.1531  0.3903
  107OSM    H1T10953   4.841   2.090  10.917  0.0684 -0.3062  1.1802
  107OSM     NF10954   4.912   2.025  10.666 -0.0543  0.0672 -0.1375
  107OSM    HNF10955   4.906   2.121  10.638 -2.8540 -0.5836 -2.2821
  107OSM    C2S10956   4.802   1.975  10.744  0.2736 -0.1232  0.0219
  107OSM    H2S10957   4.799   1.868  10.714  1.1691  0.3506 -1.9233
  107OSM    C3S10958   4.663   2.045  10.699  0.6173 -0.0200  0.2005
  107OSM    H3S10959   4.673   2.150  10.733  1.3163 -0.4285  1.3129
  107OSM     O310960   4.547   1.998  10.770 -0.1243 -0.6749  0.0753
  107OSM    HO310961   4.574   1.962  10.854  1.7173  0.4539  0.0295
  107OSM    C4S10962   4.642   2.030  10.555 -0.0764  0.4250 -0.2064
  107OSM    H4S10963   4.680   2.112  10.493  3.3036 -1.0274 -0.2391
  107OSM    C5S10964   4.582   1.926  10.489  0.5487 -0.7171  0.3682
  107OSM    H5S10965   4.545   1.837  10.542  0.5644  0.2802  2.1269
  107OSM    C6S10966   4.557   1.913  10.337  0.3452  0.0351  0.2425
  107OSM    H6S10967   4.448   1.900  10.318  0.0568  0.1042  1.7350
  107OSM    H6T10968   4.589   1.808  10.318  0.8311  0.5585 -2.2709
  107OSM    C7S10969   4.628   1.992  10.232 -0.1078  0.6007 -0.1758
  107OSM    H7S10970   4.735   2.004  10.260  0.0027 -1.3310  0.3729
  107OSM    H7T10971   4.587   2.095  10.234  1.1704  1.1369 -0.1456
  107OSM    C8S10972   4.622   1.936  10.092  0.2596  0.2099  0.4348
  107OSM    H8S10973   4.669   1.836  10.079 -1.5710 -0.3398 -3.1968
  107OSM    H8T10974   4.665   2.009  10.021 -0.8658 -0.5123 -1.0543
  107OSM    C9S10975   4.477   1.922  10.037  0.0968 -0.3830 -0.0954
  107OSM    H9S10976   4.416   2.011  10.065  1.5722  0.4094  0.7226
  107OSM    H9T10977   4.432   1.831  10.080 -0.2738 -1.5283 -2.7129
  107OSM   C10S10978   4.471   1.900   9.883 -0.4268 -0.6741  1.4686
  107OSM   H10S10979   4.562   1.840   9.858 -0.8029  0.3997 -3.3993
  107OSM   H10T10980   4.485   1.996   9.829  1.2081 -1.8390 -0.3408
  107OSM   C11S10981   4.352   1.820   9.827  0.1333  0.0815 -0.1812
  107OSM   H11S10982   4.260   1.868   9.866  1.2747  1.7174  0.5889
  107OSM   H11T10983   4.356   1.717   9.868 -0.5045 -0.0356 -0.4067
  107OSM   C12S10984   4.355   1.817   9.672 -0.7538  0.1690 -0.5933
  107OSM   H12S10985   4.306   1.726   9.630  2.8479 -2.0463 -0.4386
  107OSM   H12T10986   4.460   1.813   9.635  0.3927  2.8663  1.9368
  107OSM   C13S10987   4.301   1.944   9.602  0.0792 -0.0368  0.1861
  107OSM   H13S10988   4.363   2.029   9.639  0.8157 -0.8476  0.8574
  107OSM   H13T10989   4.195   1.951   9.633  0.0108 -1.8336  0.4455
  107OSM   C14S10990   4.316   1.939   9.447 -0.6372 -0.1507  0.5127
  107OSM   H14S10991   4.276   2.032   9.401  0.7215 -0.7380 -2.0191
  107OSM   H14T10992   4.255   1.850   9.419 -0.4398  0.1653 -1.0483
  107OSM   C15S10993   4.459   1.918   9.390  0.4552 -0.0384  0.2920
  107OSM   H15S10994   4.482   1.811   9.412  0.9590  0.4092  2.1736
  107OSM   H15T10995   4.535   1.985   9.436 -0.3733  1.2414 -0.1493
  107OSM   C16S10996   4.465   1.933   9.238 -0.6202 -0.1758  0.0888
  107OSM   H16S10997   4.570   1.907   9.213 -1.4495 -2.4422 -1.3922
  107OSM   H16T10998   4.447   2.039   9.211  1.7676 -0.0111 -1.1168
  107OSM   C17S10999   4.364   1.846   9.161  0.0140  0.0053 -0.8112
  107OSM   H17S11000   4.275   1.912   9.151  0.9334  1.5752  0.8147
  107OSM   H17T11001   4.351   1.752   9.218 -1.9003  0.3947 -0.5532
  107OSM   C18S11002   4.408   1.797   9.018 -0.0286 -0.7938  0.1510
  107OSM   H18S11003   4.449   1.885   8.964 -0.5672 -1.3552 -1.2076
  107OSM   H18T11004   4.319   1.756   8.967 -0.0226 -1.2608  0.5121
  107OSM   H18U11005   4.485   1.717   9.019  0.5765 -0.2178  0.7024
  107OSM    C1F11006   5.018   1.954  10.628 -0.2027 -0.2984  0.0377
  107OSM     OF11007   5.042   1.837  10.669 -0.5540 -0.1419 -0.1967
  107OSM    C2F11008   5.108   2.032  10.536  0.6727  0.3730  0.4952
  107OSM    H2F11009   5.186   2.079  10.599 -0.4146  0.6525  1.6697
  107OSM    H2G11010   5.042   2.106  10.486 -1.2144 -1.0500  0.7679
  107OSM    C3F11011   5.164   1.946  10.423 -0.6422 -0.8414  0.2840
  107OSM    H3F11012   5.224   1.857  10.454 -0.6973 -0.9202  0.1668
  107OSM    H3G11013   5.235   2.015  10.373 -3.2603  0.8663 -1.3343
  107OSM    C4F11014   5.057   1.914  10.313  0.1503 -0.0560 -0.9505
  107OSM    H4F11015   4.988   1.999  10.293  0.2413  0.3866  0.5004
  107OSM    H4G11016   4.985   1.841  10.355  1.1822 -0.9474 -0.6854
  107OSM    C5F11017   5.112   1.859  10.184 -0.2409  0.5569 -0.0674
  107OSM    H5F11018   5.168   1.766  10.210 -0.6487  0.7495  1.6011
  107OSM    H5G11019   5.195   1.926  10.154  2.4922 -3.1471 -1.6037
  107OSM    C6F11020   5.008   1.849  10.072 -0.5138 -0.1118 -0.1287
  107OSM    H6F11021   4.969   1.950  10.047  0.2036  0.8215  2.3079
  107OSM    H6G11022   4.917   1.793  10.100 -1.2327  2.3738  3.0067
  107OSM    C7F11023   5.076   1.788   9.946 -0.4264  0.3194 -0.3283
  107OSM    H7F11024   5.126   1.698   9.989  0.0171  0.5759 -0.2969
  107OSM    H7G11025   5.144   1.862   9.898 -2.2222  1.7086 -0.8506
  107OSM    C8F11026   4.979   1.732   9.840  0.1014  0.3923  0.3862
  107OSM    H8F11027   4.910   1.668   9.899 -0.1130  0.9232  0.7265
  107OSM    H8G11028   5.035   1.673   9.764  3.4085  2.9335  0.6130
  107OSM    C9F11029   4.899   1.845   9.782  0.0581  0.1473  0.4435
  107OSM    H9F11030   4.875   1.918   9.861  2.8709  1.1331  0.5133
  107OSM   C10F11031   4.853   1.858   9.659 -0.5941  0.3559 -0.3733
  107OSM   H10F11032   4.788   1.945   9.645 -0.2780  0.4975 -0.9786
  107OSM   C11F11033   4.866   1.772   9.536  0.2157 -0.2472 -0.0081
  107OSM   H11F11034   4.774   1.719   9.504 -0.1972 -0.8766  2.0340
  107OSM   H11G11035   4.952   1.702   9.540  0.3770 -0.0217  2.8501
  107OSM   C12F11036   4.890   1.873   9.423  0.9613  0.0466  0.2703
  107OSM   H12F11037   4.982   1.933   9.442 -0.6793  2.3248  1.5622
  107OSM   H12G11038   4.807   1.947   9.418 -0.4985 -1.5466 -0.0401
  107OSM   C13F11039   4.914   1.807   9.286 -0.4922  0.6130  0.2040
  107OSM   H13F11040   4.827   1.743   9.262 -0.5099  1.1932 -1.4108
  107OSM   H13G11041   5.010   1.751   9.287  0.1431  1.6402 -0.6527
  107OSM   C14F11042   4.913   1.900   9.168  0.4734 -0.1600  0.2150
  107OSM   H14F11043   4.979   1.986   9.194  0.1930 -0.8510  3.8500
  107OSM   H14G11044   4.812   1.944   9.158 -0.5053 -1.6415  2.5836
  107OSM   C15F11045   4.956   1.830   9.044 -0.0677  0.1538  0.5245
  107OSM   H15F11046   4.890   1.743   9.023  2.4916 -2.0782  1.0912
  107OSM   H15G11047   5.049   1.777   9.073  0.0166  0.0393  0.0460
  107OSM   C16F11048   4.951   1.925   8.922 -0.9923  0.2482  0.1955
  107OSM   H16F11049   5.012   2.014   8.947  0.4881 -0.6040 -0.2919
  107OSM   H16G11050   4.849   1.969   8.912 -0.5836  1.4002  1.0054
  107OSM   C17F11051   4.986   1.857   8.790  0.1645  0.1522 -0.4407
  107OSM   H17F11052   4.960   1.917   8.701 -0.9312 -0.0334 -0.2634
  107OSM   H17G11053   4.915   1.772   8.783  1.7656 -1.2760 -0.2037
  107OSM   C18F11054   5.134   1.814   8.788  0.4017 -0.2152 -0.3495
  107OSM   H18F11055   5.157   1.747   8.873 -1.3421  0.4179  0.6737
  107OSM   H18G11056   5.203   1.901   8.777 -0.1544  0.8326  3.3561
  107OSM   H18H11057   5.153   1.742   8.705  0.7555  0.0726 -0.5258
  108OSM      N11058   2.161   4.925  11.145 -0.2542  0.4475  0.1948
  108OSM    C1511059   2.058   4.811  11.133  0.5404  0.5313 -0.1100
  108OSM   H15A11060   2.059   4.752  11.223 -1.0676  2.1280  1.0327
  108OSM   H15B11061   2.088   4.738  11.060 -0.4452 -0.8387  0.8049
  108OSM   H15C11062   1.959   4.850  11.113  1.0574  1.8415 -0.2079
  108OSM    C1411063   2.183   4.979  11.005  0.2996  0.0563 -0.4425
  108OSM   H14A11064   2.087   5.005  10.961  0.5623 -0.8952 -1.6069
  108OSM   H14B11065   2.220   4.901  10.941  1.2446  0.2460 -0.1343
  108OSM   H14C11066   2.250   5.064  11.004  1.1928 -0.6231  0.2444
  108OSM    C1311067   2.108   5.026  11.233 -0.5154 -0.4654  0.4281
  108OSM   H13A11068   2.080   4.984  11.329  1.8345 -0.7684  1.0255
  108OSM   H13B11069   2.023   5.071  11.184 -0.0620 -3.0073 -3.0056
  108OSM   H13C11070   2.183   5.102  11.250  1.2917 -2.3242  1.1660
  108OSM    C1211071   2.297   4.862  11.182  0.4405  0.2173 -0.6593
  108OSM   H12A11072   2.364   4.947  11.186 -1.6783  1.9178  1.1334
  108OSM   H12B11073   2.328   4.795  11.103 -0.5642 -0.4573 -0.5007
  108OSM    C1111074   2.310   4.785  11.315  0.1445 -0.3963  0.7828
  108OSM   H11A11075   2.280   4.857  11.394  1.9137 -0.5730  1.6413
  108OSM   H11B11076   2.420   4.770  11.322  0.4843  0.9687 -1.0468
  108OSM      P11077   2.303   4.533  11.255 -0.2421 -0.2612 -0.2184
  108OSM    O1311078   2.403   4.490  11.358 -0.0870 -0.1918  0.0583
  108OSM    O1411079   2.201   4.441  11.198 -0.1468  0.0575 -0.3265
  108OSM    O1111080   2.380   4.592  11.134  0.6565 -0.0947 -0.3381
  108OSM    O1211081   2.231   4.662  11.309  0.4944  0.1362 -0.3276
  108OSM    C1S11082   2.454   4.509  11.045  0.0617 -0.2616 -0.0725
  108OSM    H1S11083   2.377   4.447  10.994 -1.5585 -0.2741  2.2107
  108OSM    H1T11084   2.528   4.445  11.098 -0.5100  0.4643  1.6701
  108OSM     NF11085   2.576   4.490  10.840  0.2664 -0.1686  0.7498
  108OSM    HNF11086   2.664   4.451  10.868  0.3685 -1.3230 -1.0255
  108OSM    C2S11087   2.534   4.585  10.940  0.7011 -0.6479  0.6218
  108OSM    H2S11088   2.461   4.648  10.885  0.8280 -1.8297 -0.9769
  108OSM    C3S11089   2.654   4.663  10.996  0.2503  0.2945 -0.2670
  108OSM    H3S11090   2.735   4.589  11.011  0.9582  1.3854  1.7033
  108OSM     O311091   2.626   4.727  11.121  0.2591  0.4775  0.4107
  108OSM    HO311092   2.542   4.686  11.144  0.2398  0.8091  0.9520
  108OSM    C4S11093   2.706   4.758  10.893 -0.9211 -0.2970  0.0280
  108OSM    H4S11094   2.657   4.853  10.867  1.0009  1.4110  2.2823
  108OSM    C5S11095   2.826   4.735  10.835  0.2197 -0.4511 -0.4643
  108OSM    H5S11096   2.881   4.644  10.861 -1.5485 -2.2696 -2.5804
  108OSM    C6S11097   2.892   4.833  10.737  0.2546 -0.5723 -0.2547
  108OSM    H6S11098   3.001   4.821  10.750  0.5777 -0.1324 -2.2064
  108OSM    H6T11099   2.864   4.940  10.753 -1.6973 -0.6771 -2.3258
  108OSM    C7S11100   2.852   4.804  10.594  0.4214  0.2455  0.2732
  108OSM    H7S11101   2.745   4.829  10.582  0.0680 -1.2811  0.0606
  108OSM    H7T11102   2.861   4.695  10.578  0.8573  0.5183 -1.6093
  108OSM    C8S11103   2.919   4.894  10.488 -0.2846 -0.5085  0.7197
  108OSM    H8S11104   2.939   4.843  10.391  0.4998 -0.9858  1.1186
  108OSM    H8T11105   3.016   4.919  10.536  0.7477 -1.7257 -0.6397
  108OSM    C9S11106   2.841   5.024  10.456 -0.1854  0.1700 -1.1476
  108OSM    H9S11107   2.835   5.079  10.553  1.9657  0.9936 -1.4220
  108OSM    H9T11108   2.734   5.011  10.433 -0.8730  2.0030  0.6410
  108OSM   C10S11109   2.908   5.118  10.353  0.0149 -0.0802  0.0661
  108OSM   H10S11110   3.019   5.108  10.349 -0.1368 -1.5980 -1.4836
  108OSM   H10T11111   2.873   5.221  10.377 -1.3111 -0.5251  0.0997
  108OSM   C11S11112   2.876   5.095  10.201  0.4215  0.6187  0.3437
  108OSM   H11S11113   2.766   5.091  10.186  0.4512  1.1772 -0.0360
  108OSM   H11T11114   2.924   5.002  10.164  2.5313  2.0250 -0.6035
  108OSM   C12S11115   2.927   5.208  10.112 -0.0870 -0.3033 -0.0058
  108OSM   H12S11116   3.038   5.203  10.120 -0.1991 -1.5998  0.9410
  108OSM   H12T11117   2.890   5.299  10.164  2.6925  1.1242 -0.3105
  108OSM   C13S11118   2.868   5.198   9.969 -0.0356 -0.5971 -0.1494
  108OSM   H13S11119   2.758   5.195   9.956  0.1696 -1.4341 -1.8481
  108OSM   H13T11120   2.902   5.097   9.941  2.2630 -0.0758  0.5431
  108OSM   C14S11121   2.927   5.309   9.888  0.5561 -0.5538  0.3050
  108OSM   H14S11122   3.037   5.307   9.899  0.7909  1.3370 -1.3017
  108OSM   H14T11123   2.896   5.406   9.933  1.6175  0.4578 -1.0828
  108OSM   C15S11124   2.913   5.298   9.734 -0.0966  0.1245 -0.0475
  108OSM   H15S11125   2.803   5.301   9.715 -0.0755  0.3965 -0.1311
  108OSM   H15T11126   2.947   5.197   9.700 -1.5357 -0.0289 -1.1531
  108OSM   C16S11127   2.970   5.410   9.659 -0.6460  0.5739  0.2933
  108OSM   H16S11128   3.081   5.410   9.671 -0.3060  0.2964 -2.3170
  108OSM   H16T11129   2.949   5.505   9.712  1.0193 -0.5964  3.3623
  108OSM   C17S11130   2.933   5.407   9.515 -0.7309 -0.2081  0.3223
  108OSM   H17S11131   2.822   5.417   9.513 -0.6673  0.4115 -1.1153
  108OSM   H17T11132   2.956   5.309   9.470  0.0877 -0.0065  0.2918
  108OSM   C18S11133   3.009   5.515   9.437  0.4175  0.1221 -1.3025
  108OSM   H18S11134   2.998   5.610   9.493  1.5236 -0.9834  0.9490
  108OSM   H18T11135   2.975   5.523   9.332  0.9516 -1.6368 -1.6562
  108OSM   H18U11136   3.116   5.484   9.444  0.3269 -0.0068 -0.4006
  108OSM    C1F11137   2.508   4.432  10.749  0.0215  0.1442  0.4298
  108OSM     OF11138   2.390   4.463  10.732  0.2680 -0.3775 -0.1724
  108OSM    C2F11139   2.570   4.312  10.680  0.4105 -0.7921 -0.4737
  108OSM    H2F11140   2.540   4.222  10.738  0.9522 -1.2345 -0.8709
  108OSM    H2G11141   2.681   4.314  10.694  0.3493 -2.2000  0.4854
  108OSM    C3F11142   2.520   4.317  10.536  0.1542 -0.4975  0.0808
  108OSM    H3F11143   2.410   4.332  10.534  0.1508 -0.5994 -1.1320
  108OSM    H3G11144   2.552   4.218  10.496  0.0924 -0.4892  0.0108
  108OSM    C4F11145   2.581   4.429  10.445  0.4371  0.5808  0.2018
  108OSM    H4F11146   2.691   4.412  10.440  0.2752 -0.2718 -2.8884
  108OSM    H4G11147   2.562   4.531  10.484  1.9630  0.2512  1.9117
  108OSM    C5F11148   2.541   4.436  10.298  0.0359  0.0928 -0.2094
  108OSM    H5F11149   2.615   4.510  10.262 -0.1221  0.8255  0.8975
  108OSM    H5G11150   2.444   4.490  10.288  0.0571  0.4351  1.1623
  108OSM    C6F11151   2.525   4.312  10.218  0.1482  0.1792  0.1926
  108OSM    H6F11152   2.484   4.232  10.284 -1.9153 -0.3063 -1.5467
  108OSM    H6G11153   2.630   4.282  10.196 -0.2376 -0.8959 -0.2905
  108OSM    C7F11154   2.430   4.342  10.095 -0.3659 -0.0532 -0.4286
  108OSM    H7F11155   2.449   4.445  10.059 -1.6557 -0.5195 -2.6288
  108OSM    H7G11156   2.327   4.331  10.135 -0.3678 -1.4582 -0.7538
  108OSM    C8F11157   2.446   4.238   9.980 -0.4002  0.2235 -0.3239
  108OSM    H8F11158   2.425   4.136  10.019 -1.0898 -0.2988 -1.9643
  108OSM    H8G11159   2.553   4.234   9.953 -0.5865 -1.0748 -0.9471
  108OSM    C9F11160   2.351   4.270   9.870  0.6336  0.6475 -0.3020
  108OSM    H9F11161   2.247   4.250   9.900  0.7937  1.2570  0.6785
  108OSM   C10F11162   2.379   4.344   9.759  0.2942 -0.1990 -0.7335
  108OSM   H10F11163   2.303   4.344   9.680  0.3402  1.0912 -0.7999
  108OSM   C11F11164   2.517   4.390   9.736  0.3427 -0.3987 -0.8945
  108OSM   H11F11165   2.574   4.311   9.684  2.2213 -0.2986  0.8984
  108OSM   H11G11166   2.569   4.408   9.832 -0.7545  2.5011 -0.7459
  108OSM   C12F11167   2.525   4.517   9.645  0.2791 -0.2435  0.6793
  108OSM   H12F11168   2.633   4.525   9.618  0.7041 -3.4959  1.0277
  108OSM   H12G11169   2.490   4.612   9.691 -0.1075  1.0941 -2.1551
  108OSM   C13F11170   2.464   4.473   9.508 -0.0148 -0.1144  0.4572
  108OSM   H13F11171   2.354   4.487   9.516 -0.0031 -0.2733  0.8954
  108OSM   H13G11172   2.488   4.365   9.509 -2.4781 -0.7283  1.1260
  108OSM   C14F11173   2.515   4.554   9.386 -0.2740  0.8406  0.2965
  108OSM   H14F11174   2.480   4.502   9.295  0.0853  0.5523  0.3226
  108OSM   H14G11175   2.626   4.552   9.380 -0.3110  0.1371 -0.2112
  108OSM   C15F11176   2.467   4.694   9.372  0.3808  0.8710  0.2442
  108OSM   H15F11177   2.487   4.751   9.466 -1.4180  2.7051 -0.4214
  108OSM   H15G11178   2.358   4.694   9.354  0.6012  0.4854 -1.1511
  108OSM   C16F11179   2.526   4.766   9.247  0.2584  0.1441  0.3049
  108OSM   H16F11180   2.637   4.763   9.248  0.3490  1.9919 -0.2143
  108OSM   H16G11181   2.488   4.869   9.264 -2.2415 -0.7628  0.6556
  108OSM   C17F11182   2.488   4.717   9.107  0.3828 -0.6410 -0.9525
  108OSM   H17F11183   2.378   4.705   9.118  0.5428 -1.1426  0.3767
  108OSM   H17G11184   2.532   4.621   9.074 -1.5659 -0.7629 -3.4140
  108OSM   C18F11185   2.507   4.820   9.002  1.0133 -0.0430  0.3474
  108OSM   H18F11186   2.434   4.903   9.014  0.6638  0.3146 -3.1908
  108OSM   H18G11187   2.490   4.780   8.900  0.6198  2.8549 -0.8272
  108OSM   H18H11188   2.608   4.868   8.998  1.2638 -0.5846 -3.5628
  109OSM      N11189   1.323   0.607  10.875  0.1366 -0.8010 -0.4670
  109OSM    C1511190   1.206   0.693  10.894  0.3852 -0.0612  0.2873
  109OSM   H15A11191   1.220   0.780  10.955 -0.7751  0.4075 -0.0923
  109OSM   H15B11192   1.117   0.640  10.923 -0.9206  1.2726 -1.0917
  109OSM   H15C11193   1.178   0.729  10.796  1.1001  1.0598  0.4709
  109OSM    C1411194   1.445   0.694  10.855  0.2224 -0.6442  0.1483
  109OSM   H14A11195   1.532   0.632  10.838 -0.3362 -1.6610  0.9420
  109OSM   H14B11196   1.471   0.735  10.951  2.1749 -0.0260 -0.5896
  109OSM   H14C11197   1.428   0.771  10.781 -0.7930 -0.5548  0.4537
  109OSM    C1311198   1.342   0.544  11.008  0.0691 -0.1702  0.5935
  109OSM   H13A11199   1.272   0.463  11.021 -0.3295  0.1072  0.2171
  109OSM   H13B11200   1.321   0.623  11.078  0.2817  0.6525 -0.2518
  109OSM   H13C11201   1.445   0.513  11.017  0.1796  0.5334  1.9348
  109OSM    C1211202   1.310   0.511  10.765  0.8650 -0.1371  0.6705
  109OSM   H12A11203   1.286   0.570  10.678  1.5372  0.9388  1.1884
  109OSM   H12B11204   1.224   0.449  10.785  0.2339  0.5349  0.0880
  109OSM    C1111205   1.417   0.406  10.741  0.3496 -0.5666  0.1106
  109OSM   H11A11206   1.513   0.457  10.718  1.0420 -2.0370 -0.3828
  109OSM   H11B11207   1.379   0.362  10.647 -1.1002  0.1175  0.3444
  109OSM      P11208   1.546   0.286  10.932  0.1035  0.3324  0.0747
  109OSM    O1311209   1.616   0.416  10.953  0.1945  0.1082 -0.2395
  109OSM    O1411210   1.501   0.205  11.051  0.1338  0.6971 -0.4608
  109OSM    O1111211   1.627   0.197  10.835  0.5831  0.4366  0.1397
  109OSM    O1211212   1.411   0.311  10.849  0.5403  0.2681 -0.1546
  109OSM    C1S11213   1.598   0.060  10.796 -0.3006 -0.3331 -0.6534
  109OSM    H1S11214   1.531   0.011  10.870  0.3424 -0.2472 -0.0027
  109OSM    H1T11215   1.690  -0.003  10.789 -0.2717 -0.6247  1.5808
  109OSM     NF11216   1.473  -0.075  10.628 -0.6309  0.2305 -0.0526
  109OSM    HNF11217   1.519  -0.128  10.558  0.7512 -1.2802  1.8944
  109OSM    C2S11218   1.522   0.053  10.665 -0.2151  0.2815 -0.3153
  109OSM    H2S11219   1.438   0.126  10.673  0.1372  0.8324 -1.4485
  109OSM    C3S11220   1.612   0.117  10.562  0.2123 -0.0574  0.9811
  109OSM    H3S11221   1.710   0.066  10.574  0.8931  0.1544 -2.4306
  109OSM     O311222   1.628   0.256  10.575 -0.0132 -0.2905  0.0846
  109OSM    HO311223   1.647   0.268  10.668  0.1464 -0.6587  0.0985
  109OSM    C4S11224   1.558   0.090  10.428 -0.2521  0.5326 -0.5329
  109OSM    H4S11225   1.453   0.116  10.407 -0.3832  1.3618  0.9876
  109OSM    C5S11226   1.611   0.012  10.335 -0.0368  0.4371 -0.0419
  109OSM    H5S11227   1.704  -0.046  10.346  0.1301  1.0051  1.7887
  109OSM    C6S11228   1.534  -0.012  10.206  0.7048  0.6991  0.2237
  109OSM    H6S11229   1.582   0.034  10.117  2.0864  0.9044  1.0497
  109OSM    H6T11230   1.433   0.032  10.197  0.0498 -1.0816 -1.9339
  109OSM    C7S11231   1.502  -0.165  10.180 -0.3002 -0.0303 -0.0880
  109OSM    H7S11232   1.449  -0.210  10.266 -3.7449  4.5477  0.5410
  109OSM    H7T11233   1.596  -0.222  10.164 -0.5761 -0.4145 -0.3548
  109OSM    C8S11234   1.416  -0.178  10.056  0.2925 -0.4377  0.0359
  109OSM    H8S11235   1.324  -0.119  10.074 -0.9516 -2.5927  1.2518
  109OSM    H8T11236   1.375  -0.282  10.059  0.0633 -0.3576 -0.3191
  109OSM    C9S11237   1.487  -0.151   9.924  0.3185  0.3051 -0.5374
  109OSM    H9S11238   1.538  -0.243   9.887 -1.6566 -1.6879  1.3925
  109OSM    H9T11239   1.568  -0.076   9.938 -0.3953  0.6263  2.7095
  109OSM   C10S11240   1.385  -0.119   9.813 -0.4548 -0.9054 -0.3033
  109OSM   H10S11241   1.340  -0.019   9.830 -0.3031 -1.1889  2.0118
  109OSM   H10T11242   1.309  -0.200   9.816  1.3676 -2.6922 -0.3112
  109OSM   C11S11243   1.438  -0.117   9.671 -0.3121 -0.0724 -0.8179
  109OSM   H11S11244   1.515  -0.196   9.659  1.6256  1.6459 -0.3395
  109OSM   H11T11245   1.503  -0.028   9.657 -1.9223  0.9419 -2.2042
  109OSM   C12S11246   1.332  -0.110   9.560 -0.0490  0.1804 -0.2166
  109OSM   H12S11247   1.269  -0.020   9.579  1.5288  0.8827  2.2953
  109OSM   H12T11248   1.265  -0.195   9.585 -1.4729  1.8445  2.0476
  109OSM   C13S11249   1.394  -0.107   9.422  0.5340 -0.4984  0.0098
  109OSM   H13S11250   1.470  -0.188   9.414  1.0928  0.1427 -1.6296
  109OSM   H13T11251   1.458  -0.017   9.411  1.5255 -0.9149  1.9063
  109OSM   C14S11252   1.285  -0.139   9.317 -0.5754  0.8963  0.5472
  109OSM   H14S11253   1.197  -0.078   9.348  0.1276  2.2567 -0.0795
  109OSM   H14T11254   1.249  -0.244   9.314  1.3980  0.1652  0.9872
  109OSM   C15S11255   1.333  -0.096   9.178  0.9938  0.0378  0.3226
  109OSM   H15S11256   1.432  -0.140   9.154  0.7259 -0.5177  0.2176
  109OSM   H15T11257   1.349   0.014   9.175  0.1290  0.1741  0.4694
  109OSM   C16S11258   1.233  -0.129   9.064 -0.3316  1.0498 -0.5066
  109OSM   H16S11259   1.133  -0.085   9.085 -0.6173 -0.6855  2.3660
  109OSM   H16T11260   1.211  -0.238   9.067 -2.1102  1.3392 -1.6243
  109OSM   C17S11261   1.286  -0.079   8.928  1.4944 -0.4998 -0.2221
  109OSM   H17S11262   1.385  -0.123   8.904  0.7385 -2.1804 -0.4278
  109OSM   H17T11263   1.297   0.031   8.921  0.6788 -0.4771 -1.4979
  109OSM   C18S11264   1.192  -0.131   8.822  0.3102 -0.3454  0.3470
  109OSM   H18S11265   1.085  -0.114   8.847  0.3433  0.4386 -0.0300
  109OSM   H18T11266   1.199  -0.241   8.809 -0.3298 -0.4666  0.9988
  109OSM   H18U11267   1.215  -0.082   8.725  1.1736  0.4131  0.9132
  109OSM    C1F11268   1.376  -0.142  10.702  0.0995  0.0025  0.6985
  109OSM     OF11269   1.327  -0.097  10.803 -0.1746  0.4296  0.5902
  109OSM    C2F11270   1.343  -0.286  10.661 -0.6533  0.4807  0.4432
  109OSM    H2F11271   1.394  -0.350  10.736  0.0799 -0.4617 -0.8342
  109OSM    H2G11272   1.395  -0.305  10.565 -0.6694  0.2214  0.4864
  109OSM    C3F11273   1.196  -0.308  10.645 -0.2137  0.0586  0.2447
  109OSM    H3F11274   1.143  -0.262  10.732  0.1681  1.6163 -0.3157
  109OSM    H3G11275   1.187  -0.419  10.651  1.0081 -0.0222  0.9259
  109OSM    C4F11276   1.147  -0.244  10.509  0.7475  0.5127 -0.5805
  109OSM    H4F11277   1.182  -0.143  10.478 -1.1653  1.2074 -0.5854
  109OSM    H4G11278   1.043  -0.226  10.543  1.1559 -1.3486  1.9531
  109OSM    C5F11279   1.149  -0.339  10.387 -0.4849  0.6852  0.4277
  109OSM    H5F11280   1.108  -0.432  10.432  1.4765 -0.9288 -0.9240
  109OSM    H5G11281   1.249  -0.371  10.350 -1.3069 -0.7516 -0.6703
  109OSM    C6F11282   1.062  -0.278  10.278 -0.5165 -0.8368  0.8636
  109OSM    H6F11283   1.117  -0.186  10.247 -0.2674 -0.3829  2.5716
  109OSM    H6G11284   0.961  -0.249  10.313 -1.5574 -1.3897 -1.4574
  109OSM    C7F11285   1.028  -0.382  10.164 -0.5650 -0.2025 -0.3270
  109OSM    H7F11286   0.967  -0.460  10.216 -1.1299  0.1082 -0.5128
  109OSM    H7G11287   1.129  -0.420  10.140 -0.1176  1.0241 -0.4197
  109OSM    C8F11288   0.963  -0.316  10.042 -0.2543  0.4572 -0.1924
  109OSM    H8F11289   1.006  -0.366   9.952  0.0482 -0.5789  0.5115
  109OSM    H8G11290   1.021  -0.222  10.030 -0.0535  0.6691  2.0571
  109OSM    C9F11291   0.809  -0.288  10.046 -0.4785  0.4823 -0.0201
  109OSM    H9F11292   0.774  -0.223  10.127 -1.2239  1.8302 -1.3764
  109OSM   C10F11293   0.724  -0.354   9.964 -0.4850  0.0674 -0.0376
  109OSM   H10F11294   0.618  -0.324   9.970 -0.6352 -0.6320  1.4553
  109OSM   C11F11295   0.736  -0.456   9.862 -0.1389 -0.0422  0.3440
  109OSM   H11F11296   0.640  -0.496   9.825 -0.2318  0.9737 -0.5820
  109OSM   H11G11297   0.792  -0.540   9.909 -0.5747  0.0289  0.9858
  109OSM   C12F11298   0.818  -0.417   9.738 -0.5437 -0.6081  0.5163
  109OSM   H12F11299   0.834  -0.506   9.674 -1.5369  0.0059 -0.6287
  109OSM   H12G11300   0.918  -0.378   9.766 -0.4922 -0.5798  0.2955
  109OSM   C13F11301   0.742  -0.327   9.644  0.5701 -0.2669 -0.1235
  109OSM   H13F11302   0.717  -0.235   9.701 -0.2180 -0.0087 -0.8674
  109OSM   H13G11303   0.646  -0.380   9.624  0.3652  0.8956 -2.6089
  109OSM   C14F11304   0.812  -0.294   9.507 -0.1960 -0.0391  0.2201
  109OSM   H14F11305   0.921  -0.305   9.525 -0.3256 -0.9323  0.5345
  109OSM   H14G11306   0.783  -0.188   9.496  0.6182  0.4350  2.1935
  109OSM   C15F11307   0.761  -0.383   9.388 -0.3878 -0.3167  0.1207
  109OSM   H15F11308   0.654  -0.358   9.367 -0.9440 -1.8614  0.9636
  109OSM   H15G11309   0.776  -0.488   9.420  1.8308 -1.2337 -3.3450
  109OSM   C16F11310   0.829  -0.357   9.254 -0.7926 -0.3496  0.1323
  109OSM   H16F11311   0.793  -0.438   9.187 -3.0995 -0.3517  1.2717
  109OSM   H16G11312   0.939  -0.349   9.258 -0.7174 -1.4123  3.6784
  109OSM   C17F11313   0.763  -0.233   9.195 -0.1081 -0.4249 -0.0851
  109OSM   H17F11314   0.768  -0.148   9.267 -2.3046  2.0650 -2.6459
  109OSM   H17G11315   0.654  -0.244   9.176 -0.6566  0.9119  1.9641
  109OSM   C18F11316   0.838  -0.192   9.065 -0.2702 -0.0151 -0.2343
  109OSM   H18F11317   0.851  -0.280   8.999  0.0323 -0.9012  0.9860
  109OSM   H18G11318   0.943  -0.162   9.083 -0.1140 -0.3332 -0.6073
  109OSM   H18H11319   0.786  -0.114   9.005  0.9163  0.1747 -1.0349
  110OSM      N11320   5.044   6.377  11.092 -0.3524  1.0202  0.0682
  110OSM    C1511321   5.029   6.259  10.999 -0.3984  0.3365  0.1579
  110OSM   H15A11322   4.995   6.289  10.902  3.3190  3.5412 -0.3937
  110OSM   H15B11323   4.973   6.187  11.056  0.7674  0.3794  1.4358
  110OSM   H15C11324   5.129   6.222  10.978 -0.2783  0.0678  1.1274
  110OSM    C1411325   4.913   6.455  11.094 -0.4241  0.1732 -0.7450
  110OSM   H14A11326   4.829   6.397  11.128 -1.7357  1.5687 -1.4509
  110OSM   H14B11327   4.886   6.480  10.992 -0.5130 -1.4830 -1.1518
  110OSM   H14C11328   4.927   6.545  11.153  0.8081 -0.6335  0.2503
  110OSM    C1311329   5.090   6.342  11.234 -0.5767  0.0326 -1.2207
  110OSM   H13A11330   5.185   6.293  11.245 -0.8066 -0.3831 -1.0300
  110OSM   H13B11331   5.017   6.288  11.294  1.1670  0.1812  1.1976
  110OSM   H13C11332   5.099   6.441  11.278  0.6312 -0.1293 -1.0669
  110OSM    C1211333   5.153   6.472  11.037  0.8113  0.7226 -0.0558
  110OSM   H12A11334   5.247   6.420  11.045 -0.1260 -0.9840  0.5492
  110OSM   H12B11335   5.161   6.565  11.091 -0.0383 -0.2127  1.7769
  110OSM    C1111336   5.129   6.516  10.886 -0.0340 -0.4600  0.2514
  110OSM   H11A11337   5.099   6.422  10.835  0.0823  0.2153 -1.1026
  110OSM   H11B11338   5.227   6.548  10.847 -0.4188  1.8266  1.0258
  110OSM      P11339   5.058   6.766  10.905 -0.3380 -0.1867  0.3019
  110OSM    O1311340   4.962   6.806  11.004  0.4869 -0.4649  0.4341
  110OSM    O1411341   5.199   6.794  10.932  0.6120  0.2280 -0.5303
  110OSM    O1111342   5.028   6.839  10.768 -0.1636  0.1486 -0.2065
  110OSM    O1211343   5.030   6.616  10.867 -0.3289  0.4239  0.4364
  110OSM    C1S11344   4.891   6.881  10.742  0.0442 -0.1423  0.6044
  110OSM    H1S11345   4.850   6.931  10.832  1.7095  0.6827  0.9329
  110OSM    H1T11346   4.828   6.791  10.727 -0.7271  0.4574  0.1683
  110OSM     NF11347   4.752   7.030  10.611  0.5651  0.8246 -0.2005
  110OSM    HNF11348   4.696   6.994  10.537 -1.0080  2.3032  0.2107
  110OSM    C2S11349   4.884   6.980  10.628 -0.4211 -0.2585 -0.2255
  110OSM    H2S11350   4.948   7.069  10.646  0.5645 -1.0396  0.2570
  110OSM    C3S11351   4.948   6.924  10.497  0.2265  0.7617  0.2431
  110OSM    H3S11352   4.886   6.837  10.469  1.6645 -0.5368  0.9753
  110OSM     O311353   5.085   6.875  10.513  0.1143  0.2985 -0.1665
  110OSM    HO311354   5.090   6.867  10.608  2.1788 -0.7250 -0.3248
  110OSM    C4S11355   4.943   7.023  10.390 -0.2462  0.2517  0.0260
  110OSM    H4S11356   4.849   7.030  10.334  0.8301 -0.0504 -1.9296
  110OSM    C5S11357   5.041   7.112  10.366  0.6871 -0.2966  0.5329
  110OSM    H5S11358   5.132   7.117  10.428  0.8507  0.4846  0.2437
  110OSM    C6S11359   5.033   7.216  10.257  0.0113 -0.3959  0.0014
  110OSM    H6S11360   5.124   7.206  10.195 -0.0958 -1.4446 -0.0108
  110OSM    H6T11361   5.037   7.318  10.301 -1.9925 -1.1495  2.1897
  110OSM    C7S11362   4.905   7.226  10.176 -0.7040 -0.2611 -0.0761
  110OSM    H7S11363   4.825   7.253  10.248  1.0043 -0.6138  2.0807
  110OSM    H7T11364   4.891   7.131  10.121  1.7262 -1.9313  1.9842
  110OSM    C8S11365   4.921   7.333  10.068 -0.2721 -0.9083  0.5794
  110OSM    H8S11366   4.965   7.420  10.121  0.6119 -0.9628 -0.0318
  110OSM    H8T11367   4.822   7.357  10.023 -0.2037 -0.6479  0.5626
  110OSM    C9S11368   5.023   7.292   9.959  0.7440 -0.6423 -0.8878
  110OSM    H9S11369   5.019   7.182   9.947  0.3237 -0.8180  0.7031
  110OSM    H9T11370   5.125   7.326   9.984  1.2182 -0.1023 -3.3021
  110OSM   C10S11371   4.969   7.340   9.824  0.4320 -0.4407  0.5042
  110OSM   H10S11372   4.986   7.450   9.828  1.5593 -0.5771  0.0389
  110OSM   H10T11373   4.861   7.314   9.826  0.6229 -1.3280  3.6100
  110OSM   C11S11374   5.040   7.275   9.703  0.4502  0.4260  0.0671
  110OSM   H11S11375   5.043   7.165   9.722 -0.7085 -0.0613 -2.2087
  110OSM   H11T11376   5.144   7.312   9.705  0.7379 -0.2264 -1.3018
  110OSM   C12S11377   4.981   7.305   9.573 -0.1384 -0.1780 -0.1629
  110OSM   H12S11378   4.995   7.411   9.542 -2.9478 -0.0991 -1.4947
  110OSM   H12T11379   4.873   7.282   9.558  0.0878 -1.8860  0.5580
  110OSM   C13S11380   5.052   7.225   9.465  0.0948 -0.6168  0.3898
  110OSM   H13S11381   5.044   7.119   9.498  0.4806 -0.4225  1.1162
  110OSM   H13T11382   5.162   7.235   9.469  0.1087  0.2044 -1.2212
  110OSM   C14S11383   4.991   7.247   9.321 -0.0361 -0.3275 -0.2960
  110OSM   H14S11384   5.066   7.232   9.240  1.2423  0.2859  0.7439
  110OSM   H14T11385   4.948   7.349   9.317 -0.6453 -0.6052 -1.0160
  110OSM   C15S11386   4.888   7.137   9.292  0.6701 -0.6142  0.3578
  110OSM   H15S11387   4.810   7.147   9.370 -0.4662  0.6527 -0.8853
  110OSM   H15T11388   4.938   7.039   9.282  1.8509  0.1971 -2.9256
  110OSM   C16S11389   4.821   7.168   9.152  0.5687 -0.4670  0.1446
  110OSM   H16S11390   4.888   7.149   9.066  1.6867  1.9247  0.4166
  110OSM   H16T11391   4.802   7.277   9.153  0.6425 -0.4531  0.0223
  110OSM   C17S11392   4.688   7.096   9.139 -0.0774  0.9247 -0.5684
  110OSM   H17S11393   4.610   7.133   9.210 -1.3511 -1.8572 -0.3889
  110OSM   H17T11394   4.700   6.988   9.162 -0.9476  0.9821  0.2188
  110OSM   C18S11395   4.610   7.106   9.002 -0.1568 -0.6337 -0.4349
  110OSM   H18S11396   4.503   7.085   9.026 -0.0238 -0.9499 -0.0941
  110OSM   H18T11397   4.664   7.027   8.946  3.1345  0.0749  1.4683
  110OSM   H18U11398   4.616   7.202   8.947 -1.9177  0.4104  1.0906
  110OSM    C1F11399   4.692   7.116  10.698 -0.4849 -0.5374  0.4722
  110OSM     OF11400   4.757   7.167  10.791  0.4598 -0.2517  0.3116
  110OSM    C2F11401   4.548   7.142  10.678 -0.2511  0.5553 -1.2962
  110OSM    H2F11402   4.490   7.130  10.773 -0.9949  0.9348 -1.6978
  110OSM    H2G11403   4.515   7.070  10.601  2.3793 -1.5233 -0.6359
  110OSM    C3F11404   4.515   7.282  10.624 -0.2366  0.1776  1.0803
  110OSM    H3F11405   4.522   7.365  10.697  2.0816 -0.1779  1.3304
  110OSM    H3G11406   4.412   7.281  10.580  0.8498 -1.0438 -1.6963
  110OSM    C4F11407   4.596   7.318  10.495  0.3302  0.7120 -0.3704
  110OSM    H4F11408   4.622   7.223  10.443 -1.1234  1.4834 -2.6642
  110OSM    H4G11409   4.692   7.363  10.527  1.4556 -1.2400 -0.8304
  110OSM    C5F11410   4.510   7.396  10.390 -0.0885  0.3858  1.1672
  110OSM    H5F11411   4.475   7.498  10.417 -0.9215  0.7768 -1.1637
  110OSM    H5G11412   4.420   7.333  10.374  0.7188 -0.1484 -2.1615
  110OSM    C6F11413   4.582   7.411  10.250  0.0465  0.5672  0.3192
  110OSM    H6F11414   4.583   7.314  10.195 -2.5108  0.8126 -0.3269
  110OSM    H6G11415   4.687   7.443  10.262  0.6740 -2.2157  3.7508
  110OSM    C7F11416   4.508   7.512  10.155 -0.1482 -0.0169 -0.4459
  110OSM    H7F11417   4.576   7.531  10.070 -1.3108  1.2330 -1.1425
  110OSM    H7G11418   4.497   7.615  10.197  3.2926  0.2661  0.0003
  110OSM    C8F11419   4.369   7.462  10.114 -0.3181 -0.0985 -0.7096
  110OSM    H8F11420   4.322   7.549  10.063  0.7987  0.8790 -0.0987
  110OSM    H8G11421   4.302   7.453  10.202  0.7303 -1.3807 -0.0104
  110OSM    C9F11422   4.366   7.339  10.031  0.6174 -0.5055  0.3851
  110OSM    H9F11423   4.428   7.256  10.069 -0.5089 -2.2320 -1.3657
  110OSM   C10F11424   4.294   7.322   9.917  1.0156  0.7193  0.3620
  110OSM   H10F11425   4.301   7.224   9.868 -1.1060 -0.2316  1.7887
  110OSM   C11F11426   4.202   7.410   9.835 -0.1247  0.1200 -0.0291
  110OSM   H11F11427   4.230   7.517   9.842 -0.4473  0.2650 -0.9111
  110OSM   H11G11428   4.100   7.410   9.881  0.6406 -2.8218  1.9448
  110OSM   C12F11429   4.201   7.372   9.682  0.2472 -0.9971 -0.6057
  110OSM   H12F11430   4.304   7.389   9.644  0.2557  1.7621  0.4112
  110OSM   H12G11431   4.144   7.456   9.637  1.1407  0.4344  0.7897
  110OSM   C13F11432   4.142   7.243   9.646 -0.0666  1.0316  0.9721
  110OSM   H13F11433   4.041   7.259   9.689 -1.0886 -3.9445  0.9935
  110OSM   H13G11434   4.198   7.156   9.685  2.0903  0.8408 -2.1975
  110OSM   C14F11435   4.130   7.219   9.492  0.3035 -0.6870  0.1082
  110OSM   H14F11436   4.234   7.214   9.453  0.4446 -2.4555  0.6031
  110OSM   H14G11437   4.089   7.310   9.444 -0.4531 -0.1821  1.6727
  110OSM   C15F11438   4.065   7.090   9.446 -0.9818  0.8763  0.2619
  110OSM   H15F11439   3.956   7.090   9.469 -1.2029  2.9948 -0.5496
  110OSM   H15G11440   4.112   7.003   9.498 -3.3366 -1.0739 -0.6790
  110OSM   C16F11441   4.072   7.068   9.291 -0.8153  0.7180  0.5233
  110OSM   H16F11442   4.025   6.971   9.264  0.3558 -0.1433  1.4537
  110OSM   H16G11443   4.179   7.067   9.264 -0.3278  1.8191  2.2500
  110OSM   C17F11444   3.992   7.171   9.208  0.2365  0.5770 -0.3443
  110OSM   H17F11445   4.017   7.275   9.239  2.2741  0.1766 -0.4698
  110OSM   H17G11446   3.883   7.153   9.219  0.3990  0.1414  0.7340
  110OSM   C18F11447   4.022   7.162   9.058 -0.1426  0.2633  0.0871
  110OSM   H18F11448   4.126   7.191   9.034 -0.2524 -0.7203 -1.7820
  110OSM   H18G11449   3.956   7.240   9.013 -0.6381  1.5938  2.9406
  110OSM   H18H11450   4.012   7.061   9.013 -0.9594  1.0281 -1.5645
  111OSM      N11451   4.597   2.363  11.045 -0.5111 -0.5534  0.3124
  111OSM    C1511452   4.707   2.273  11.105 -0.8351 -0.0222  0.3656
  111OSM   H15A11453   4.797   2.291  11.048 -2.3739 -2.0931 -3.0197
  111OSM   H15B11454   4.682   2.169  11.098  1.2190 -0.4429 -2.4956
  111OSM   H15C11455   4.727   2.295  11.209  1.4687  1.6390 -0.3300
  111OSM    C1411456   4.535   2.284  10.941 -0.0657  0.2926 -0.3660
  111OSM   H14A11457   4.476   2.203  10.981 -0.3775 -0.0655 -1.4956
  111OSM   H14B11458   4.612   2.258  10.869  0.8077  0.4342  0.4999
  111OSM   H14C11459   4.459   2.347  10.897  0.1753  1.0086  0.2262
  111OSM    C1311460   4.498   2.392  11.153 -0.4735 -0.1536 -0.2934
  111OSM   H13A11461   4.469   2.300  11.200  0.0082 -0.2494 -0.1746
  111OSM   H13B11462   4.404   2.435  11.121 -0.1470  0.4585 -0.4621
  111OSM   H13C11463   4.545   2.451  11.231 -0.3878  0.4904 -0.8216
  111OSM    C1211464   4.662   2.490  10.983 -0.1641 -0.0246  0.0332
  111OSM   H12A11465   4.734   2.468  10.906  0.8647 -1.0653  1.2416
  111OSM   H12B11466   4.723   2.546  11.053  2.4868 -0.0194 -2.1059
  111OSM    C1111467   4.570   2.597  10.905 -0.3274 -0.0829  1.1325
  111OSM   H11A11468   4.514   2.543  10.825  0.6182 -2.3980  1.9413
  111OSM   H11B11469   4.635   2.670  10.852 -1.2415 -0.2338 -0.2427
  111OSM      P11470   4.339   2.692  11.005 -0.5983 -0.0507  0.2965
  111OSM    O1311471   4.295   2.578  11.089 -0.3530 -0.4188 -0.3763
  111OSM    O1411472   4.314   2.826  11.058 -0.2476 -0.0957  0.7898
  111OSM    O1111473   4.298   2.680  10.851 -0.2413 -1.0591 -0.2985
  111OSM    O1211474   4.494   2.672  10.995 -0.6444 -0.6108 -0.3559
  111OSM    C1S11475   4.336   2.790  10.760  0.2872 -0.4301  0.4203
  111OSM    H1S11476   4.446   2.792  10.752  0.5488  3.7520  2.2959
  111OSM    H1T11477   4.302   2.884  10.809  0.3814 -1.0950  1.8076
  111OSM     NF11478   4.318   2.867  10.534 -0.0376 -0.7351 -0.4076
  111OSM    HNF11479   4.268   2.954  10.539 -1.5266 -1.5761  0.1233
  111OSM    C2S11480   4.272   2.766  10.620  0.1146  0.3170 -0.0433
  111OSM    H2S11481   4.303   2.666  10.583 -1.3098  0.1690 -0.9132
  111OSM    C3S11482   4.119   2.755  10.633  0.0177  0.6445  0.7123
  111OSM    H3S11483   4.073   2.850  10.666  1.1483  1.4786 -0.0627
  111OSM     O311484   4.080   2.655  10.728  0.1631 -0.3078 -0.2891
  111OSM    HO311485   4.160   2.623  10.770 -1.7047 -1.0929  2.9657
  111OSM    C4S11486   4.058   2.713  10.504  0.6256 -0.0246  0.6166
  111OSM    H4S11487   4.068   2.607  10.478  0.2458  0.0082  0.3168
  111OSM    C5S11488   3.992   2.796  10.419  0.0454 -0.0539  0.7107
  111OSM    H5S11489   4.003   2.903  10.442  1.4960  0.5263 -2.2270
  111OSM    C6S11490   3.929   2.740  10.291 -0.0672  1.0249  0.6674
  111OSM    H6S11491   3.971   2.788  10.200 -0.2614 -0.4854 -0.2482
  111OSM    H6T11492   3.823   2.772  10.302  0.1002  1.2703  1.5935
  111OSM    C7S11493   3.936   2.582  10.270  0.1585  0.0367  0.1005
  111OSM    H7S11494   3.920   2.531  10.368  0.6060 -1.2495 -0.4677
  111OSM    H7T11495   4.042   2.563  10.243  0.0203 -0.0218 -0.4258
  111OSM    C8S11496   3.850   2.529  10.153  0.1479 -0.2273 -0.0397
  111OSM    H8S11497   3.744   2.549  10.178  0.4381  0.4427  0.6647
  111OSM    H8T11498   3.859   2.418  10.149  2.9137 -0.0499 -2.5265
  111OSM    C9S11499   3.878   2.595  10.014  0.0976 -0.2728  0.7217
  111OSM    H9S11500   3.986   2.609   9.992  0.1719 -2.5133 -0.6075
  111OSM    H9T11501   3.834   2.697  10.006  0.3944 -0.3204 -2.9878
  111OSM   C10S11502   3.828   2.508   9.900 -0.1876 -0.2769 -0.5413
  111OSM   H10S11503   3.726   2.463   9.904 -0.8686  1.1044 -1.3094
  111OSM   H10T11504   3.901   2.425   9.891  0.3884  0.0105  1.2302
  111OSM   C11S11505   3.828   2.588   9.764  0.0354  0.0334 -0.2390
  111OSM   H11S11506   3.934   2.619   9.749 -0.3858  2.6673  1.5282
  111OSM   H11T11507   3.767   2.680   9.777 -1.6858 -1.0860 -0.1020
  111OSM   C12S11508   3.775   2.521   9.635  0.0444 -0.3927  0.2847
  111OSM   H12S11509   3.665   2.510   9.642 -0.0121 -0.0052  0.0260
  111OSM   H12T11510   3.826   2.423   9.624  1.4568  0.5434 -2.2239
  111OSM   C13S11511   3.812   2.612   9.509 -0.0071 -0.2338 -0.1566
  111OSM   H13S11512   3.915   2.651   9.501  1.1313 -2.6192  1.6391
  111OSM   H13T11513   3.748   2.699   9.536  1.8033  1.0543  0.1673
  111OSM   C14S11514   3.767   2.548   9.385  1.0057  0.9291  0.5985
  111OSM   H14S11515   3.665   2.515   9.415  0.7070  2.4119  1.3045
  111OSM   H14T11516   3.823   2.453   9.372 -0.8976 -0.2084  0.1980
  111OSM   C15S11517   3.765   2.640   9.261 -0.1072 -0.1462  0.0651
  111OSM   H15S11518   3.704   2.731   9.282  0.8361  0.2878  1.0493
  111OSM   H15T11519   3.718   2.594   9.172  1.9975  0.9269 -1.6932
  111OSM   C16S11520   3.905   2.678   9.219 -0.0232  0.0349  0.1129
  111OSM   H16S11521   3.969   2.588   9.232 -0.2395 -0.0804  0.3852
  111OSM   H16T11522   3.947   2.747   9.294  3.1676 -1.1896 -0.3681
  111OSM   C17S11523   3.912   2.726   9.073  0.1660 -0.1692  0.3989
  111OSM   H17S11524   3.854   2.821   9.079  0.7122  0.5347 -3.2125
  111OSM   H17T11525   3.875   2.652   9.000  1.2920  0.6266 -1.0227
  111OSM   C18S11526   4.052   2.766   9.031 -0.0944 -0.2230  0.3110
  111OSM   H18S11527   4.040   2.786   8.922 -0.9381 -0.3797  0.3697
  111OSM   H18T11528   4.118   2.676   9.040 -0.9505 -0.9559 -0.4847
  111OSM   H18U11529   4.080   2.861   9.081  2.1045 -0.1466 -0.9361
  111OSM    C1F11530   4.439   2.870  10.481  1.1690  0.7108  0.4428
  111OSM     OF11531   4.515   2.774  10.503  0.3130 -0.5388 -0.6961
  111OSM    C2F11532   4.467   2.985  10.383 -0.2353  0.6566  0.1663
  111OSM    H2F11533   4.568   2.973  10.339 -1.1470 -0.0610 -1.8912
  111OSM    H2G11534   4.463   3.075  10.448 -0.4611 -0.2228  1.3944
  111OSM    C3F11535   4.360   2.981  10.268  0.5222 -0.8012  0.0529
  111OSM    H3F11536   4.257   2.982  10.307  0.9246 -0.2851  1.1345
  111OSM    H3G11537   4.365   2.879  10.224 -0.7114 -0.4538 -0.9578
  111OSM    C4F11538   4.384   3.084  10.157 -0.0606  0.0120  0.0569
  111OSM    H4F11539   4.492   3.093  10.132 -0.1789  1.2546 -0.0753
  111OSM    H4G11540   4.360   3.188  10.188 -0.0205  0.4755 -1.3952
  111OSM    C5F11541   4.301   3.061  10.025 -0.1922 -0.3061 -0.1745
  111OSM    H5F11542   4.334   3.138   9.952 -3.0289 -0.4427 -1.7078
  111OSM    H5G11543   4.191   3.078  10.024 -0.3954 -1.2973  1.2239
  111OSM    C6F11544   4.331   2.923   9.962 -0.3530  0.1087 -0.5573
  111OSM    H6F11545   4.322   2.834  10.027  2.6297 -0.8040 -1.2103
  111OSM    H6G11546   4.438   2.919   9.932  0.3822  0.9710  1.6989
  111OSM    C7F11547   4.244   2.895   9.837  0.0055  0.3327 -0.2380
  111OSM    H7F11548   4.135   2.902   9.856 -0.3071  0.5698 -1.9701
  111OSM    H7G11549   4.277   2.791   9.815  2.7218  0.9053  0.8039
  111OSM    C8F11550   4.274   2.980   9.721  0.0531 -0.1986  0.5305
  111OSM    H8F11551   4.247   3.082   9.754 -0.6370  0.3877 -1.7079
  111OSM    H8G11552   4.195   2.975   9.643  0.1802 -0.3158  0.4085
  111OSM    C9F11553   4.409   2.982   9.660 -0.2284  0.4332 -0.2541
  111OSM    H9F11554   4.489   3.013   9.729 -0.2334  0.1111 -0.1006
  111OSM   C10F11555   4.443   2.954   9.534 -0.0712  0.6638  0.0973
  111OSM   H10F11556   4.550   2.952   9.507 -0.5331 -0.6518 -1.9056
  111OSM   C11F11557   4.354   2.902   9.429 -0.2128  0.2062  0.3348
  111OSM   H11F11558   4.279   2.981   9.402 -0.5990  0.4701  2.0833
  111OSM   H11G11559   4.305   2.809   9.465 -0.2796 -0.2197 -0.8089
  111OSM   C12F11560   4.440   2.864   9.299 -0.0347  0.0504 -0.0502
  111OSM   H12F11561   4.513   2.945   9.278 -0.1996  1.4804  4.0324
  111OSM   H12G11562   4.370   2.850   9.214 -1.2945 -0.6921  1.0850
  111OSM   C13F11563   4.500   2.726   9.320 -0.3052  0.2455 -0.0413
  111OSM   H13F11564   4.407   2.665   9.331 -0.1429  0.0441  0.2415
  111OSM   H13G11565   4.553   2.721   9.418  1.0529 -1.8753 -0.8021
  111OSM   C14F11566   4.604   2.679   9.211  0.0927  0.4291  0.1095
  111OSM   H14F11567   4.642   2.584   9.251  1.6068  1.8989  2.3595
  111OSM   H14G11568   4.684   2.756   9.209  0.6239 -0.0738  1.1775
  111OSM   C15F11569   4.544   2.656   9.072 -0.1422 -0.0099  0.0609
  111OSM   H15F11570   4.436   2.635   9.084 -0.2525  0.9763  0.9200
  111OSM   H15G11571   4.590   2.577   9.009 -0.3276 -0.3118  0.3008
  111OSM   C16F11572   4.542   2.784   8.985  0.2196 -0.0837 -0.5470
  111OSM   H16F11573   4.648   2.815   8.985  0.4536 -0.6967  1.4426
  111OSM   H16G11574   4.468   2.853   9.030 -1.5255  0.6470 -4.1940
  111OSM   C17F11575   4.496   2.761   8.841  0.8367  0.3229 -0.3641
  111OSM   H17F11576   4.502   2.859   8.788  0.4386 -0.2689 -1.5404
  111OSM   H17G11577   4.388   2.736   8.847  0.4328  1.9838 -0.3299
  111OSM   C18F11578   4.571   2.653   8.754  0.3340 -0.1991 -0.4779
  111OSM   H18F11579   4.527   2.620   8.658  1.5714 -1.7380 -0.5582
  111OSM   H18G11580   4.590   2.563   8.818 -0.4687 -0.9410 -1.2478
  111OSM   H18H11581   4.672   2.694   8.733  0.9868 -0.5083  1.7713
  112OSM      N11582   3.508   0.725  11.090 -0.4757  0.2635  0.0728
  112OSM    C1511583   3.416   0.617  11.128  0.1808  0.2566 -1.0526
  112OSM   H15A11584   3.315   0.648  11.106  0.0788  0.1988 -0.6797
  112OSM   H15B11585   3.421   0.605  11.235  3.6707  1.1119 -1.0035
  112OSM   H15C11586   3.446   0.523  11.084 -0.7095 -0.2233 -0.6588
  112OSM    C1411587   3.647   0.680  11.140  0.2623 -0.1001  0.0758
  112OSM   H14A11588   3.728   0.740  11.099  1.9462 -1.0009  1.9151
  112OSM   H14B11589   3.676   0.579  11.115 -0.2313 -0.3875  0.6695
  112OSM   H14C11590   3.656   0.689  11.247  0.7858 -0.4024  0.0622
  112OSM    C1311591   3.537   0.718  10.942  0.0542 -0.5133  0.0332
  112OSM   H13A11592   3.612   0.791  10.915 -1.3585  1.0308  0.0801
  112OSM   H13B11593   3.452   0.738  10.878  1.7350  1.0526 -1.8450
  112OSM   H13C11594   3.571   0.620  10.912  0.6630  0.2045 -1.7979
  112OSM    C1211595   3.482   0.863  11.144 -0.7732  0.4964 -0.9143
  112OSM   H12A11596   3.572   0.919  11.124  1.5628 -3.7295 -3.6508
  112OSM   H12B11597   3.473   0.860  11.252  0.7521 -1.7785 -0.7836
  112OSM    C1111598   3.361   0.939  11.092 -0.0428  0.2392 -0.0083
  112OSM   H11A11599   3.392   0.945  10.986 -0.2483  0.3383 -0.0634
  112OSM   H11B11600   3.365   1.043  11.130  1.6130 -0.2138  1.1787
  112OSM      P11601   3.117   0.914  11.034 -0.1818 -0.1048  0.0888
  112OSM    O1311602   2.991   0.853  11.073  0.2529  0.0054  0.1668
  112OSM    O1411603   3.107   1.058  11.023 -0.0343  0.2219 -0.0037
  112OSM    O1111604   3.156   0.860  10.890 -0.2742  0.0360  0.3279
  112OSM    O1211605   3.238   0.868  11.120  0.1477  0.0845 -0.2942
  112OSM    C1S11606   3.135   0.720  10.859 -0.2056 -0.2508  0.9991
  112OSM    H1S11607   3.038   0.687  10.903 -0.7088  0.9194  0.8125
  112OSM    H1T11608   3.211   0.659  10.912  2.2434  0.8897 -1.0322
  112OSM     NF11609   3.079   0.566  10.668 -0.3202  0.4319  0.1203
  112OSM    HNF11610   3.133   0.497  10.621  0.8675  1.3286  0.1357
  112OSM    C2S11611   3.139   0.691  10.708  0.0056 -0.0401 -0.0525
  112OSM    H2S11612   3.074   0.771  10.665 -0.5711 -0.6337 -0.2979
  112OSM    C3S11613   3.289   0.713  10.667 -0.0879 -0.0234 -0.1476
  112OSM    H3S11614   3.357   0.645  10.722 -1.2801 -1.0539  0.0807
  112OSM     O311615   3.338   0.848  10.688 -0.4549  0.0035 -0.8798
  112OSM    HO311616   3.275   0.881  10.752  1.0867 -1.2281  1.4251
  112OSM    C4S11617   3.292   0.697  10.518 -0.3459  0.9800  0.1235
  112OSM    H4S11618   3.359   0.615  10.487 -1.6874 -0.2553  0.3678
  112OSM    C5S11619   3.221   0.769  10.427  0.6883  0.2854  1.0411
  112OSM    H5S11620   3.142   0.842  10.451 -0.3874 -0.4873 -0.0278
  112OSM    C6S11621   3.219   0.757  10.274  0.0707 -0.0737  0.0157
  112OSM    H6S11622   3.217   0.859  10.231  2.3031 -0.0406 -0.0999
  112OSM    H6T11623   3.128   0.702  10.240  0.8243 -0.0648 -2.1835
  112OSM    C7S11624   3.352   0.693  10.215  0.0926 -0.1687  0.3635
  112OSM    H7S11625   3.356   0.582  10.220 -0.4161 -0.1907  0.3705
  112OSM    H7T11626   3.439   0.735  10.270  0.6732 -0.1737 -0.5303
  112OSM    C8S11627   3.380   0.740  10.066 -0.5582  0.1261  0.0697
  112OSM    H8S11628   3.476   0.700  10.029  0.1375  1.4589  0.3533
  112OSM    H8T11629   3.392   0.850  10.057  0.0490 -0.0609 -1.6338
  112OSM    C9S11630   3.265   0.702   9.970 -0.4703 -0.4736  0.0279
  112OSM    H9S11631   3.167   0.734  10.011 -0.9568 -0.2862 -1.2209
  112OSM    H9T11632   3.255   0.592   9.959  0.8070 -0.4152 -2.4121
  112OSM   C10S11633   3.281   0.765   9.838 -0.2368 -0.1186 -0.4894
  112OSM   H10S11634   3.356   0.713   9.774 -1.1359  0.5113 -2.1315
  112OSM   H10T11635   3.331   0.863   9.855  1.0424 -0.3203 -2.6919
  112OSM   C11S11636   3.148   0.783   9.756 -0.4889 -0.3612  0.2113
  112OSM   H11S11637   3.081   0.865   9.786  0.0808  0.1716  0.0532
  112OSM   H11T11638   3.084   0.692   9.753 -0.6795 -0.2765 -3.3971
  112OSM   C12S11639   3.172   0.817   9.612 -0.1824 -0.2651  0.8936
  112OSM   H12S11640   3.202   0.732   9.548 -0.1117  1.2039 -1.1313
  112OSM   H12T11641   3.257   0.889   9.611  0.4603 -1.0147 -0.8707
  112OSM   C13S11642   3.044   0.891   9.551  0.6906 -0.1667 -0.5055
  112OSM   H13S11643   3.025   0.996   9.583 -1.4191  0.0686 -2.2938
  112OSM   H13T11644   2.958   0.838   9.595 -1.1288  1.1930 -2.2238
  112OSM   C14S11645   3.036   0.897   9.399  0.3534  0.6022 -1.1227
  112OSM   H14S11646   2.944   0.957   9.384  0.4970  0.8987 -0.8157
  112OSM   H14T11647   3.009   0.796   9.362  0.4185  0.1501  0.0200
  112OSM   C15S11648   3.159   0.945   9.332 -0.2142  0.4349  0.1324
  112OSM   H15S11649   3.241   0.871   9.347 -0.1045  0.3421 -0.8211
  112OSM   H15T11650   3.188   1.042   9.377 -0.9366  1.8540 -2.2714
  112OSM   C16S11651   3.136   0.983   9.184 -0.0759 -0.3678  0.0037
  112OSM   H16S11652   3.046   1.049   9.181 -0.4719 -0.8619  0.6129
  112OSM   H16T11653   3.110   0.888   9.134  0.4062 -0.8517  0.6529
  112OSM   C17S11654   3.254   1.035   9.103 -0.0410 -0.0634  0.5167
  112OSM   H17S11655   3.341   0.969   9.124  0.3624  0.5909  0.9308
  112OSM   H17T11656   3.290   1.133   9.142 -0.0428 -0.2365  0.9609
  112OSM   C18S11657   3.227   1.039   8.951 -0.1872 -0.0157 -0.7653
  112OSM   H18S11658   3.206   0.934   8.921  0.0678 -0.3242  0.0925
  112OSM   H18T11659   3.320   1.071   8.899 -0.0877  3.3903  1.2251
  112OSM   H18U11660   3.139   1.101   8.924 -1.2514  0.4674  3.1826
  112OSM    C1F11661   2.953   0.533  10.681  0.1295 -0.7179  1.4364
  112OSM     OF11662   2.877   0.607  10.745  0.9486  0.6720 -0.0881
  112OSM    C2F11663   2.903   0.401  10.619 -0.2461  0.3049  0.1955
  112OSM    H2F11664   2.846   0.351  10.700  0.9818 -2.2164 -0.3916
  112OSM    H2G11665   2.985   0.334  10.584 -0.6032  0.7038 -1.4947
  112OSM    C3F11666   2.801   0.420  10.502 -0.7918 -0.4947 -0.4026
  112OSM    H3F11667   2.739   0.506  10.535 -0.5115 -1.2154  2.2394
  112OSM    H3G11668   2.739   0.330  10.478  0.3091 -0.9524 -1.6766
  112OSM    C4F11669   2.883   0.453  10.375 -0.4087 -0.4355 -0.4069
  112OSM    H4F11670   2.972   0.389  10.360 -0.6074 -1.1878  1.3191
  112OSM    H4G11671   2.930   0.553  10.381 -3.3746  1.0062  0.8756
  112OSM    C5F11672   2.784   0.434  10.257  0.1625 -0.1202  0.4925
  112OSM    H5F11673   2.702   0.509  10.258  0.0778 -0.1639 -1.0073
  112OSM    H5G11674   2.726   0.340  10.250 -2.5906  1.4157  1.0657
  112OSM    C6F11675   2.849   0.472  10.122 -0.4127  0.4892  0.0414
  112OSM    H6F11676   2.927   0.398  10.093  0.1002  2.1099 -3.1245
  112OSM    H6G11677   2.907   0.567  10.122  0.1248  0.1804 -1.4344
  112OSM    C7F11678   2.738   0.486  10.015 -0.4193 -1.0589 -0.2578
  112OSM    H7F11679   2.679   0.580  10.019  0.6052 -0.3643 -0.9000
  112OSM    H7G11680   2.662   0.406  10.028 -0.8300 -1.0606 -2.3069
  112OSM    C8F11681   2.801   0.502   9.874  0.5155  0.2508 -0.4057
  112OSM    H8F11682   2.882   0.427   9.859 -0.6299 -0.8585 -1.2224
  112OSM    H8G11683   2.851   0.602   9.878  0.6685  0.1337  1.8454
  112OSM    C9F11684   2.692   0.502   9.765  0.3778  0.9415  0.5969
  112OSM    H9F11685   2.611   0.577   9.770 -2.1477 -1.3427 -2.1576
  112OSM   C10F11686   2.672   0.420   9.654 -0.4019 -0.0839 -0.9480
  112OSM   H10F11687   2.572   0.423   9.608  0.1325  2.1743 -2.1019
  112OSM   C11F11688   2.767   0.316   9.604  0.6095 -0.3261 -0.4424
  112OSM   H11F11689   2.699   0.243   9.556  0.4828 -2.1356  2.2764
  112OSM   H11G11690   2.819   0.266   9.688  0.8950  0.0442 -0.3984
  112OSM   C12F11691   2.882   0.366   9.512 -0.3612 -0.2926  0.0342
  112OSM   H12F11692   2.931   0.281   9.460 -0.8416 -0.2200 -0.5531
  112OSM   H12G11693   2.952   0.428   9.573 -1.3670  1.1498 -0.2180
  112OSM   C13F11694   2.840   0.460   9.394  0.4271  0.3203 -0.1585
  112OSM   H13F11695   2.924   0.525   9.361  0.7194  0.1848  0.3006
  112OSM   H13G11696   2.759   0.532   9.419 -0.0463 -0.8070  1.7534
  112OSM   C14F11697   2.794   0.385   9.265 -0.4707  0.4491 -0.1429
  112OSM   H14F11698   2.727   0.302   9.294  1.4948 -1.9872 -2.1106
  112OSM   H14G11699   2.884   0.333   9.227  0.0439  0.2393  1.3010
  112OSM   C15F11700   2.730   0.468   9.144 -0.2899  0.0838 -0.5128
  112OSM   H15F11701   2.807   0.541   9.111  0.0354  0.9489  1.9310
  112OSM   H15G11702   2.637   0.523   9.171  0.4252  1.6009 -1.0466
  112OSM   C16F11703   2.695   0.373   9.027 -0.9701 -0.4642  0.1105
  112OSM   H16F11704   2.613   0.411   8.963 -1.0678  0.6237  0.8522
  112OSM   H16G11705   2.655   0.279   9.070  0.2414 -1.3118 -0.5365
  112OSM   C17F11706   2.810   0.332   8.938  0.2421 -0.0993  1.6435
  112OSM   H17F11707   2.899   0.285   8.986  1.6092 -0.1416 -0.7657
  112OSM   H17G11708   2.839   0.424   8.883  0.1894 -0.5742  0.8030
  112OSM   C18F11709   2.767   0.248   8.816  0.2665  0.6118  0.6158
  112OSM   H18F11710   2.720   0.155   8.856 -0.4608  0.0073 -1.5319
  112OSM   H18G11711   2.851   0.210   8.754 -2.7265 -1.3181 -2.5568
  112OSM   H18H11712   2.690   0.295   8.751  3.1436  2.6804 -1.5434
  113OSM      N11713   2.863   4.023  11.294 -0.2968  0.0022 -0.9531
  113OSM    C1511714   2.931   3.914  11.383  0.1746 -0.3412  0.0635
  113OSM   H15A11715   2.949   3.825  11.325  0.0995 -0.3452  0.0460
  113OSM   H15B11716   2.875   3.890  11.472  1.6790 -1.3111  0.7871
  113OSM   H15C11717   3.019   3.958  11.427  0.3662  0.1269 -0.7624
  113OSM    C1411718   2.742   3.960  11.232  0.2474  0.1166 -0.4517
  113OSM   H14A11719   2.672   3.906  11.294  1.6318  1.5893  2.5610
  113OSM   H14B11720   2.775   3.882  11.164  1.6764  1.4553 -1.3528
  113OSM   H14C11721   2.682   4.028  11.172 -0.7717  1.3047  1.7957
  113OSM    C1311722   2.812   4.137  11.370 -0.5121 -0.2771 -0.0492
  113OSM   H13A11723   2.740   4.182  11.302 -1.1978 -2.1232 -0.6105
  113OSM   H13B11724   2.892   4.203  11.401 -0.1723 -0.2587 -0.9274
  113OSM   H13C11725   2.757   4.109  11.458 -0.5776  0.0247  0.0087
  113OSM    C1211726   2.969   4.077  11.195  0.4725 -0.0960  0.9153
  113OSM   H12A11727   2.909   4.123  11.117 -0.8629 -0.0932  1.9186
  113OSM   H12B11728   3.025   3.998  11.147  2.0651  2.1848 -1.3097
  113OSM    C1111729   3.081   4.169  11.252 -0.0697  0.1039 -0.0871
  113OSM   H11A11730   3.163   4.186  11.179  0.1697 -3.2626 -0.8069
  113OSM   H11B11731   3.124   4.102  11.330 -1.8979 -2.9203 -1.4848
  113OSM      P11732   3.005   4.423  11.225 -0.0733  0.1353 -0.0368
  113OSM    O1311733   2.881   4.401  11.146 -0.1623 -0.0392 -0.4252
  113OSM    O1411734   2.994   4.544  11.314 -0.2864  0.8964 -0.2163
  113OSM    O1111735   3.129   4.444  11.129  0.3538 -0.2652  0.4077
  113OSM    O1211736   3.036   4.293  11.306  0.2895 -0.1522  0.1178
  113OSM    C1S11737   3.132   4.365  11.003 -0.1942 -0.7906  0.5524
  113OSM    H1S11738   3.050   4.290  11.002 -2.3284  1.4318  0.3639
  113OSM    H1T11739   3.221   4.298  11.008 -0.6860 -1.5613 -0.5804
  113OSM     NF11740   3.140   4.378  10.755 -0.2582  0.3861  0.0269
  113OSM    HNF11741   3.217   4.380  10.693 -0.8643 -0.9542 -0.8251
  113OSM    C2S11742   3.139   4.457  10.879  0.2800  0.8201  0.6184
  113OSM    H2S11743   3.046   4.517  10.871  0.1754  0.4412 -1.4862
  113OSM    C3S11744   3.262   4.553  10.885  1.2089  0.4088 -0.3769
  113OSM    H3S11745   3.349   4.487  10.865  1.0226 -0.4500  1.4260
  113OSM     O311746   3.279   4.621  11.008 -0.2648  0.4720 -0.1402
  113OSM    HO311747   3.212   4.573  11.057 -0.3820 -0.4331 -1.1532
  113OSM    C4S11748   3.252   4.668  10.784 -0.0681  0.8073 -0.0289
  113OSM    H4S11749   3.238   4.766  10.833 -1.1755 -0.2395  1.8792
  113OSM    C5S11750   3.290   4.659  10.651 -0.3329  0.2791  0.2817
  113OSM    H5S11751   3.352   4.581  10.605 -1.6431 -0.7843  0.2728
  113OSM    C6S11752   3.296   4.781  10.567  1.0630 -0.2335 -0.2130
  113OSM    H6S11753   3.396   4.830  10.579  0.2479  1.0456  1.9651
  113OSM    H6T11754   3.219   4.854  10.600  1.9943  0.1971  1.0677
  113OSM    C7S11755   3.270   4.747  10.423  0.7627 -0.6559  0.2944
  113OSM    H7S11756   3.173   4.692  10.414  0.6280 -0.4514  0.4734
  113OSM    H7T11757   3.344   4.672  10.387  1.7946  0.9193 -0.9888
  113OSM    C8S11758   3.273   4.867  10.328 -0.3186 -0.0432  0.5062
  113OSM    H8S11759   3.377   4.907  10.326  0.6609 -2.4240 -1.1150
  113OSM    H8T11760   3.193   4.939  10.352 -0.7893 -0.5152  0.3836
  113OSM    C9S11761   3.247   4.841  10.177 -0.2332 -0.1150  0.0138
  113OSM    H9S11762   3.146   4.800  10.155  0.5074 -2.0795  0.0605
  113OSM    H9T11763   3.318   4.760  10.149  0.5869  0.8784 -0.9201
  113OSM   C10S11764   3.274   4.966  10.095  0.5740  0.2914  0.2638
  113OSM   H10S11765   3.378   4.991  10.125  0.1932 -1.1113  3.0101
  113OSM   H10T11766   3.208   5.045  10.137  1.8411  1.7461 -0.3918
  113OSM   C11S11767   3.251   4.944   9.942 -0.4125  0.5959 -0.1124
  113OSM   H11S11768   3.154   4.891   9.940  0.2277 -0.6090 -1.8098
  113OSM   H11T11769   3.330   4.870   9.914 -0.0705  0.0716  2.0236
  113OSM   C12S11770   3.255   5.070   9.853  0.5722  0.8937 -0.4575
  113OSM   H12S11771   3.363   5.091   9.838  1.3488 -2.8387 -0.9167
  113OSM   H12T11772   3.192   5.150   9.898  0.4271  0.4893  0.0595
  113OSM   C13S11773   3.188   5.030   9.718  0.2012 -0.1786  0.4316
  113OSM   H13S11774   3.077   5.027   9.726  0.0556  1.4628 -0.6228
  113OSM   H13T11775   3.210   4.930   9.674  4.7076 -0.0233  1.8251
  113OSM   C14S11776   3.214   5.123   9.599 -0.1172 -0.6504  0.1038
  113OSM   H14S11777   3.322   5.148   9.597  0.0020 -0.8748  1.9325
  113OSM   H14T11778   3.142   5.207   9.607 -0.8425 -1.3725  1.9184
  113OSM   C15S11779   3.179   5.067   9.457  0.4104 -0.0153  0.1534
  113OSM   H15S11780   3.071   5.042   9.449  0.1807  1.5040 -3.0149
  113OSM   H15T11781   3.218   4.963   9.446  0.5223 -0.1017  1.2258
  113OSM   C16S11782   3.216   5.171   9.351 -0.1756  0.7638 -1.0510
  113OSM   H16S11783   3.322   5.154   9.322 -0.3723  1.3120 -2.1321
  113OSM   H16T11784   3.196   5.275   9.385  3.0348  0.8834  0.9065
  113OSM   C17S11785   3.130   5.141   9.229 -0.0886 -0.1607  0.0842
  113OSM   H17S11786   3.022   5.157   9.251 -0.3235 -1.5061  0.0208
  113OSM   H17T11787   3.144   5.034   9.203  0.3677  0.2771 -1.6378
  113OSM   C18S11788   3.183   5.226   9.106  0.5091  0.5466 -0.1512
  113OSM   H18S11789   3.185   5.334   9.130  0.6908  0.6211 -0.4935
  113OSM   H18T11790   3.109   5.220   9.022  1.2780  2.8150 -1.0654
  113OSM   H18U11791   3.285   5.203   9.070  0.4390 -0.5590  0.3333
  113OSM    C1F11792   3.037   4.313  10.720 -0.7148  0.4171 -0.1336
  113OSM     OF11793   2.931   4.315  10.778 -0.0746 -0.4935 -0.5306
  113OSM    C2F11794   3.050   4.231  10.597 -0.1504 -1.0893  0.4094
  113OSM    H2F11795   3.031   4.125  10.626 -2.9675 -0.3858  1.4234
  113OSM    H2G11796   3.148   4.234  10.544 -1.7527  1.1345 -2.7617
  113OSM    C3F11797   2.954   4.271  10.482  0.7539  0.1706  0.1513
  113OSM    H3F11798   2.846   4.254  10.499  0.7363  1.8663  2.0559
  113OSM    H3G11799   2.981   4.193  10.407  2.0314  1.0574 -0.3436
  113OSM    C4F11800   2.975   4.413  10.428 -0.4251  0.3054 -0.2977
  113OSM    H4F11801   3.085   4.432  10.430 -0.4035  0.1912 -0.4690
  113OSM    H4G11802   2.936   4.488  10.500  0.0720  0.7609 -0.4936
  113OSM    C5F11803   2.924   4.417  10.278 -0.9743  1.1815  0.2374
  113OSM    H5F11804   2.813   4.405  10.279 -1.1303  2.5020  0.2262
  113OSM    H5G11805   2.974   4.333  10.225 -0.7313  1.2116  0.4171
  113OSM    C6F11806   2.964   4.544  10.218 -0.1115 -0.9940  0.5190
  113OSM    H6F11807   3.074   4.562  10.227 -0.6760  2.9395  1.8326
  113OSM    H6G11808   2.925   4.628  10.280  0.8987  0.3040 -0.5412
  113OSM    C7F11809   2.913   4.564  10.072  0.4026  0.7418  0.3336
  113OSM    H7F11810   2.803   4.548  10.076  0.5229 -0.4193 -0.4786
  113OSM    H7G11811   2.954   4.481  10.011 -1.3249  1.1246 -1.4605
  113OSM    C8F11812   2.947   4.692  10.008  0.0574  0.0693 -0.0869
  113OSM    H8F11813   3.056   4.689   9.988 -0.2558 -0.2595 -1.9733
  113OSM    H8G11814   2.936   4.781  10.073  1.4382 -0.8156  1.4304
  113OSM    C9F11815   2.872   4.720   9.881  1.0519  0.5496  0.4345
  113OSM    H9F11816   2.770   4.758   9.895 -0.6625 -2.2115 -3.0163
  113OSM   C10F11817   2.911   4.693   9.753 -0.6474 -0.3249 -0.0534
  113OSM   H10F11818   2.848   4.713   9.665 -2.3271 -2.5635  0.5727
  113OSM   C11F11819   3.047   4.643   9.716 -0.4051 -0.2995 -0.6151
  113OSM   H11F11820   3.109   4.619   9.805  2.1278  0.0190 -2.1632
  113OSM   H11G11821   3.094   4.728   9.662  0.2958 -0.2244  0.0960
  113OSM   C12F11822   3.050   4.517   9.637  0.4598 -0.0252 -0.3228
  113OSM   H12F11823   3.011   4.439   9.706  3.6402 -0.0546  1.6588
  113OSM   H12G11824   3.153   4.479   9.618  1.3678  0.8866  2.2925
  113OSM   C13F11825   2.998   4.518   9.500 -0.1387  0.8910  0.1828
  113OSM   H13F11826   2.891   4.546   9.508 -0.4253 -0.3314  0.8323
  113OSM   H13G11827   2.987   4.413   9.467 -0.1922  0.3910  1.7165
  113OSM   C14F11828   3.072   4.615   9.407 -0.7042  0.5848  0.3690
  113OSM   H14F11829   3.180   4.592   9.417  0.0002  3.0761 -0.7454
  113OSM   H14G11830   3.040   4.716   9.441 -3.3205  0.3977 -1.2711
  113OSM   C15F11831   3.040   4.597   9.254  0.7924 -0.4744  0.9877
  113OSM   H15F11832   3.126   4.549   9.204  0.9403  0.1330  0.6507
  113OSM   H15G11833   3.044   4.705   9.229 -1.9921 -0.4670  0.2257
  113OSM   C16F11834   2.905   4.534   9.211 -0.0312 -0.0549 -0.5256
  113OSM   H16F11835   2.814   4.576   9.260 -0.3864 -1.5751  0.1661
  113OSM   H16G11836   2.901   4.427   9.242 -0.0057  0.0885 -0.0188
  113OSM   C17F11837   2.885   4.534   9.059  0.9036  0.2651 -0.2677
  113OSM   H17F11838   2.787   4.487   9.035  1.5992 -1.3264 -0.1071
  113OSM   H17G11839   2.956   4.468   9.004  0.5570 -0.7412  0.4627
  113OSM   C18F11840   2.881   4.676   9.007  0.4145 -0.1184 -0.1919
  113OSM   H18F11841   2.973   4.732   9.035  3.1267 -2.8161 -2.8102
  113OSM   H18G11842   2.792   4.727   9.050 -0.1202  0.8255 -2.2819
  113OSM   H18H11843   2.865   4.683   8.897  0.7332 -0.4088 -0.2575
  114OSM      N11844   2.543   6.398  11.130 -0.2914 -0.6562  0.1841
  114OSM    C1511845   2.668   6.328  11.099  0.1733  0.3298 -0.9169
  114OSM   H15A11846   2.734   6.329  11.183  1.4989  1.2026 -1.9330
  114OSM   H15B11847   2.712   6.362  11.006 -0.3035  0.1675 -1.2089
  114OSM   H15C11848   2.643   6.225  11.080 -1.0926  0.2920  0.7261
  114OSM    C1411849   2.467   6.318  11.228 -0.8962  0.1382 -0.2097
  114OSM   H14A11850   2.372   6.362  11.254 -0.4657  1.7484 -1.2572
  114OSM   H14B11851   2.515   6.309  11.325 -0.6703 -2.6149 -0.4899
  114OSM   H14C11852   2.449   6.220  11.188 -3.3875  0.6711 -0.5178
  114OSM    C1311853   2.578   6.531  11.184  0.6391  0.0294  0.1928
  114OSM   H13A11854   2.644   6.600  11.133  0.4923  0.6531  0.8211
  114OSM   H13B11855   2.631   6.532  11.278  1.1213  1.0909 -0.0684
  114OSM   H13C11856   2.490   6.581  11.221  0.2678  0.1704 -0.8318
  114OSM    C1211857   2.461   6.417  11.003  0.4350 -0.1468  0.1030
  114OSM   H12A11858   2.453   6.314  10.970 -0.3619 -0.7409  1.9737
  114OSM   H12B11859   2.516   6.470  10.927 -0.7314 -1.2225 -1.5554
  114OSM    C1111860   2.320   6.485  11.023  0.1505  0.3395 -0.2713
  114OSM   H11A11861   2.278   6.527  10.929 -0.5004 -0.6874 -0.4496
  114OSM   H11B11862   2.331   6.571  11.093  0.9296  0.5209 -0.5998
  114OSM      P11863   2.151   6.287  10.979 -0.0408 -0.1848  0.6110
  114OSM    O1311864   2.138   6.150  11.030 -0.3388 -0.4226 -0.5923
  114OSM    O1411865   2.023   6.355  10.943  0.3305 -0.0421 -0.3733
  114OSM    O1111866   2.235   6.296  10.850 -0.0745 -0.1499  0.3059
  114OSM    O1211867   2.225   6.390  11.079 -0.0006  0.3062 -0.3121
  114OSM    C1S11868   2.312   6.188  10.791 -0.2737  0.1256 -0.4487
  114OSM    H1S11869   2.264   6.088  10.805  0.3372  0.1550  2.6938
  114OSM    H1T11870   2.414   6.171  10.831  0.7823  2.3351 -2.0168
  114OSM     NF11871   2.383   6.094  10.568  0.2915  0.1839  0.0384
  114OSM    HNF11872   2.472   6.100  10.524 -0.3008 -1.9189 -1.6282
  114OSM    C2S11873   2.328   6.207  10.636  0.0999  0.3130 -0.4822
  114OSM    H2S11874   2.221   6.208  10.606  0.0873  0.5624 -0.4291
  114OSM    C3S11875   2.397   6.346  10.601 -0.1765 -0.0135 -0.5191
  114OSM    H3S11876   2.505   6.343  10.627 -0.3770 -2.2164  0.2020
  114OSM     O311877   2.339   6.462  10.673 -0.1969  0.2315  0.2122
  114OSM    HO311878   2.298   6.423  10.751  1.6430  1.7491  2.0349
  114OSM    C4S11879   2.378   6.372  10.454  0.4810 -0.3263 -0.3022
  114OSM    H4S11880   2.287   6.333  10.406  0.1438 -0.3550  0.3544
  114OSM    C5S11881   2.479   6.434  10.381  1.0138  0.6670  0.6300
  114OSM    H5S11882   2.576   6.450  10.430  2.0136 -1.6081 -0.4815
  114OSM    C6S11883   2.480   6.464  10.228  0.3056 -0.0551 -1.2002
  114OSM    H6S11884   2.570   6.412  10.188  0.1015 -1.7596  0.4525
  114OSM    H6T11885   2.496   6.573  10.213  1.0388  0.0375  0.1703
  114OSM    C7S11886   2.357   6.433  10.136  0.0528 -0.1014 -0.1093
  114OSM    H7S11887   2.266   6.479  10.181 -1.3797 -3.0676  0.2786
  114OSM    H7T11888   2.338   6.326  10.111 -0.7881  0.2453 -1.0204
  114OSM    C8S11889   2.374   6.501  10.000  0.1513  0.5461  0.3092
  114OSM    H8S11890   2.484   6.516   9.997  0.1717  0.6532  1.4620
  114OSM    H8T11891   2.320   6.597   9.986 -3.9603 -1.1845  2.5418
  114OSM    C9S11892   2.323   6.409   9.892 -0.3834  0.5607  0.1445
  114OSM    H9S11893   2.214   6.401   9.910  0.0446 -1.5889  2.3490
  114OSM    H9T11894   2.365   6.307   9.904 -0.0997  0.5740 -0.6983
  114OSM   C10S11895   2.351   6.446   9.749 -1.0681  0.2624  0.5897
  114OSM   H10S11896   2.406   6.358   9.708  1.8922  1.9686  0.6229
  114OSM   H10T11897   2.422   6.532   9.747 -1.6906  0.7914  1.0459
  114OSM   C11S11898   2.228   6.489   9.667 -0.1700  0.1941 -0.2847
  114OSM   H11S11899   2.161   6.554   9.727 -0.0880  0.3494 -0.3602
  114OSM   H11T11900   2.159   6.408   9.636 -0.7640  1.1526 -1.5069
  114OSM   C12S11901   2.251   6.583   9.538 -0.5945 -0.2307 -0.7237
  114OSM   H12S11902   2.319   6.663   9.573  1.0380 -2.1667  0.7374
  114OSM   H12T11903   2.153   6.629   9.511 -1.2590 -1.1543  0.0493
  114OSM   C13S11904   2.295   6.501   9.417 -0.2964  0.1271 -0.1596
  114OSM   H13S11905   2.208   6.449   9.373 -0.0393 -0.8574  0.4698
  114OSM   H13T11906   2.383   6.436   9.437 -1.4768 -2.2369 -2.1651
  114OSM   C14S11907   2.349   6.598   9.304  0.0649 -0.3048 -0.9805
  114OSM   H14S11908   2.429   6.662   9.345 -1.0225  1.8336 -2.0611
  114OSM   H14T11909   2.272   6.674   9.279 -1.6262 -1.9387 -0.9911
  114OSM   C15S11910   2.385   6.517   9.186 -1.0346 -0.0158 -0.2074
  114OSM   H15S11911   2.299   6.448   9.168 -1.0003 -0.2473  0.4853
  114OSM   H15T11912   2.475   6.460   9.218  0.3707  1.5068 -1.3179
  114OSM   C16S11913   2.426   6.589   9.059 -0.0886 -0.0910 -0.0966
  114OSM   H16S11914   2.497   6.671   9.082 -0.1533  0.2273 -1.0034
  114OSM   H16T11915   2.328   6.633   9.028  0.2909  1.4962  0.8284
  114OSM   C17S11916   2.482   6.499   8.951 -0.4158 -0.0196  0.1474
  114OSM   H17S11917   2.413   6.417   8.922  0.8614 -0.3630 -2.2090
  114OSM   H17T11918   2.566   6.439   8.992 -0.8439 -0.7762 -0.0622
  114OSM   C18S11919   2.517   6.576   8.826 -1.1796  0.0354 -0.4387
  114OSM   H18S11920   2.555   6.497   8.759 -1.3761  0.8301 -1.5056
  114OSM   H18T11921   2.596   6.654   8.841  1.1040 -2.1605 -0.2793
  114OSM   H18U11922   2.427   6.609   8.772 -0.6502  0.1102 -1.2940
  114OSM    C1F11923   2.320   5.970  10.571 -0.0514  0.0277 -0.1537
  114OSM     OF11924   2.223   5.946  10.643  0.1990 -0.0736 -0.2106
  114OSM    C2F11925   2.386   5.861  10.488 -0.1993 -0.5666 -0.6974
  114OSM    H2F11926   2.384   5.766  10.545  0.6374 -0.9425 -1.2745
  114OSM    H2G11927   2.487   5.901  10.462  0.2767 -3.0082 -2.9524
  114OSM    C3F11928   2.305   5.849  10.351  0.0466  0.2786 -0.4810
  114OSM    H3F11929   2.202   5.820  10.381  0.2693  0.0654  0.1008
  114OSM    H3G11930   2.343   5.758  10.299 -0.7390 -0.6280  0.4648
  114OSM    C4F11931   2.311   5.962  10.256  0.8959  0.1684 -0.1662
  114OSM    H4F11932   2.407   5.980  10.203 -0.1344  3.0721 -1.2389
  114OSM    H4G11933   2.284   6.046  10.323 -0.7426 -0.7233  0.3607
  114OSM    C5F11934   2.200   5.962  10.146  0.8240 -0.0536 -0.2581
  114OSM    H5F11935   2.215   6.052  10.083  1.0412 -1.2694 -2.0277
  114OSM    H5G11936   2.100   5.953  10.193  0.6218 -0.0295 -0.6808
  114OSM    C6F11937   2.213   5.846  10.045 -0.1501 -0.1239 -0.1473
  114OSM    H6F11938   2.197   5.745  10.089 -1.1184  0.6548  1.3837
  114OSM    H6G11939   2.317   5.834  10.008  0.5386 -0.9575  1.9363
  114OSM    C7F11940   2.112   5.863   9.927  0.6649  0.5787  0.4034
  114OSM    H7F11941   2.007   5.865   9.963  0.2322 -1.7385 -0.5699
  114OSM    H7G11942   2.117   5.769   9.868 -0.5126  0.3169  0.6965
  114OSM    C8F11943   2.132   5.983   9.834 -0.5922  0.3653 -0.1214
  114OSM    H8F11944   2.100   6.068   9.898 -0.9952  0.0071  0.1571
  114OSM    H8G11945   2.064   5.966   9.748  0.4446 -2.4108 -0.4892
  114OSM    C9F11946   2.261   6.023   9.778 -0.2141  0.0778 -0.4849
  114OSM    H9F11947   2.338   6.039   9.854 -0.3835  0.3324 -0.3647
  114OSM   C10F11948   2.280   6.055   9.647  0.3264 -0.2389 -0.0639
  114OSM   H10F11949   2.382   6.091   9.624  0.7579  2.1660  4.3811
  114OSM   C11F11950   2.180   6.066   9.534  0.5057  0.4467  0.5822
  114OSM   H11F11951   2.191   6.168   9.493 -0.5491 -0.1005 -1.1763
  114OSM   H11G11952   2.075   6.068   9.570  0.8115  1.9745  1.4582
  114OSM   C12F11953   2.209   5.957   9.429  0.2014  0.0954  0.1934
  114OSM   H12F11954   2.173   5.861   9.472 -0.1459 -0.3279 -0.9980
  114OSM   H12G11955   2.316   5.945   9.404  0.5959  0.2065  1.7251
  114OSM   C13F11956   2.128   5.979   9.291 -0.5591 -0.2378 -0.2102
  114OSM   H13F11957   2.020   5.998   9.312 -0.5680  2.1223 -2.0165
  114OSM   H13G11958   2.132   5.896   9.217 -1.2834  0.5834 -1.2021
  114OSM   C14F11959   2.189   6.097   9.215 -0.1081 -0.1188  0.6050
  114OSM   H14F11960   2.299   6.078   9.212 -0.4166 -1.9997 -1.0975
  114OSM   H14G11961   2.163   6.182   9.281 -0.4243  0.6044 -0.4250
  114OSM   C15F11962   2.129   6.110   9.076  0.0110  0.4279  0.9555
  114OSM   H15F11963   2.020   6.097   9.088  0.1062  0.3008  1.7790
  114OSM   H15G11964   2.159   6.030   9.005 -1.4109 -1.2728  2.1870
  114OSM   C16F11965   2.167   6.233   8.994 -0.2503 -0.5569  0.3598
  114OSM   H16F11966   2.277   6.234   8.982 -0.3731 -1.1090 -0.9658
  114OSM   H16G11967   2.146   6.325   9.052 -2.4731 -2.5509  3.0155
  114OSM   C17F11968   2.103   6.236   8.856 -0.2318  0.1903  1.0942
  114OSM   H17F11969   1.994   6.227   8.877 -0.0860 -0.0922  1.7734
  114OSM   H17G11970   2.141   6.152   8.794 -1.5366 -0.4801  1.1706
  114OSM   C18F11971   2.124   6.367   8.781 -0.4087  0.5188 -0.4893
  114OSM   H18F11972   2.087   6.455   8.837 -0.1307 -0.2485  0.9525
  114OSM   H18G11973   2.093   6.357   8.674 -0.3800 -0.3934 -0.4181
  114OSM   H18H11974   2.233   6.388   8.777  0.4793 -3.3419 -0.9218
  115OSM      N11975   5.866   6.696  11.155 -0.9962 -0.8474  0.2418
  115OSM    C1511976   6.010   6.666  11.187  0.7515 -0.5223 -0.3700
  115OSM   H15A11977   6.020   6.636  11.290 -2.7073 -2.9574 -0.5791
  115OSM   H15B11978   6.071   6.751  11.159  0.5386 -0.2629 -0.0527
  115OSM   H15C11979   6.043   6.581  11.129  1.5383  1.7209 -3.4789
  115OSM    C1411980   5.830   6.833  11.204 -0.4457  0.1377  0.4441
  115OSM   H14A11981   5.825   6.827  11.312 -2.2038  2.8388  0.6166
  115OSM   H14B11982   5.736   6.871  11.166  0.5521  0.3719 -1.9859
  115OSM   H14C11983   5.910   6.901  11.178  0.1771 -0.5988  0.3890
  115OSM    C1311984   5.853   6.701  11.002 -0.0611 -1.1155 -0.2268
  115OSM   H13A11985   5.907   6.622  10.953 -2.1343 -0.8496 -3.2759
  115OSM   H13B11986   5.879   6.800  10.966  0.5744 -1.2828 -0.2223
  115OSM   H13C11987   5.747   6.683  10.987 -0.5945  0.2389  1.5329
  115OSM    C1211988   5.764   6.593  11.197 -0.4680 -0.1915 -0.0242
  115OSM   H12A11989   5.788   6.571  11.301 -1.0338  3.8346  1.1211
  115OSM   H12B11990   5.788   6.509  11.133  0.9905  1.1500 -1.2984
  115OSM    C1111991   5.615   6.620  11.188  0.6711  0.7333  0.6183
  115OSM   H11A11992   5.596   6.724  11.222  1.3852  0.6862  1.1906
  115OSM   H11B11993   5.560   6.545  11.250 -1.1227 -2.1560 -3.9314
  115OSM      P11994   5.550   6.458  10.992 -0.1006  0.0083  0.2043
  115OSM    O1311995   5.673   6.379  11.019 -0.4447  0.8769 -0.4780
  115OSM    O1411996   5.422   6.399  11.049 -0.3326  0.3636  0.3359
  115OSM    O1111997   5.538   6.469  10.835  0.1595 -0.1578 -0.1370
  115OSM    O1211998   5.571   6.605  11.057 -0.3451  0.4911 -0.2177
  115OSM    C1S11999   5.501   6.589  10.772 -0.3325 -0.2570 -0.2616
  115OSM    H1S12000   5.572   6.673  10.787 -2.0315  1.2276 -0.2447
  115OSM    H1T12001   5.405   6.623  10.816  0.9678 -0.5641  3.0756
  115OSM     NF12002   5.490   6.705  10.550 -0.0976 -0.0297 -0.1119
  115OSM    HNF12003   5.416   6.719  10.484  0.0420  1.5513  0.0148
  115OSM    C2S12004   5.492   6.573  10.618 -0.1209  0.6001  0.0705
  115OSM    H2S12005   5.580   6.524  10.570 -1.0938  0.4339 -1.6367
  115OSM    C3S12006   5.377   6.478  10.594  0.2512 -1.1616 -0.4067
  115OSM    H3S12007   5.275   6.516  10.619 -0.3768 -2.7850 -0.3309
  115OSM     O312008   5.376   6.356  10.668  0.0998 -1.0606 -0.0300
  115OSM    HO312009   5.432   6.374  10.744 -0.2014 -0.8970  0.1563
  115OSM    C4S12010   5.365   6.437  10.449  0.4988  0.4207 -0.0739
  115OSM    H4S12011   5.286   6.480  10.386  0.3155 -0.0497 -0.1669
  115OSM    C5S12012   5.437   6.345  10.387 -0.1815  0.1748 -0.1088
  115OSM    H5S12013   5.515   6.295  10.446  0.6346  1.3250 -0.1823
  115OSM    C6S12014   5.446   6.292  10.247  0.6765 -0.8274  0.1540
  115OSM    H6S12015   5.392   6.198  10.224 -0.8124  0.1197 -0.3907
  115OSM    H6T12016   5.551   6.270  10.221  1.3562 -0.7995  2.6479
  115OSM    C7S12017   5.389   6.387  10.139  0.4846  0.4562  0.2849
  115OSM    H7S12018   5.454   6.477  10.150  1.5913 -0.3277  0.3912
  115OSM    H7T12019   5.282   6.411  10.154 -0.1644 -1.4691 -0.8212
  115OSM    C8S12020   5.411   6.329   9.999  0.2267 -0.4383  0.8842
  115OSM    H8S12021   5.356   6.233   9.988 -0.7757  0.2500 -0.5618
  115OSM    H8T12022   5.519   6.313   9.977  0.5582  2.3541  0.1067
  115OSM    C9S12023   5.352   6.416   9.886  0.0695  0.3478 -0.0797
  115OSM    H9S12024   5.383   6.522   9.895  1.0086  0.3337 -2.4538
  115OSM    H9T12025   5.241   6.406   9.887  0.0978 -0.0622 -0.5603
  115OSM   C10S12026   5.402   6.368   9.748 -0.0405  0.0778 -0.1308
  115OSM   H10S12027   5.397   6.258   9.734 -0.5242  0.4573 -3.9712
  115OSM   H10T12028   5.513   6.378   9.741  0.0996 -1.6015 -1.0132
  115OSM   C11S12029   5.332   6.435   9.624  0.3413 -0.1840  0.0824
  115OSM   H11S12030   5.363   6.542   9.623  0.3053 -0.1710 -1.4550
  115OSM   H11T12031   5.224   6.432   9.650 -0.2497 -2.1294 -2.2707
  115OSM   C12S12032   5.366   6.372   9.492  0.4952  0.2621 -0.1348
  115OSM   H12S12033   5.352   6.262   9.487  1.3323  0.1431  0.0392
  115OSM   H12T12034   5.474   6.379   9.469  0.2735 -2.3219 -2.4914
  115OSM   C13S12035   5.303   6.440   9.360  0.2847 -0.0989 -0.7504
  115OSM   H13S12036   5.313   6.551   9.365 -0.5939 -0.0305 -0.3134
  115OSM   H13T12037   5.193   6.423   9.371  0.5941 -0.9503  1.4651
  115OSM   C14S12038   5.350   6.385   9.225  0.3512 -0.1528  0.0741
  115OSM   H14S12039   5.364   6.275   9.233 -0.4140 -0.3346 -0.9115
  115OSM   H14T12040   5.447   6.428   9.192  0.7267 -1.3846 -0.4578
  115OSM   C15S12041   5.252   6.408   9.109  0.1093  0.3079 -0.2196
  115OSM   H15S12042   5.223   6.516   9.112 -0.3599  0.1690  1.0054
  115OSM   H15T12043   5.164   6.350   9.142  0.9389  1.4705  4.8980
  115OSM   C16S12044   5.321   6.379   8.980  0.2901 -0.5473 -0.1601
  115OSM   H16S12045   5.356   6.274   8.973  1.7233 -0.2872  2.0504
  115OSM   H16T12046   5.404   6.453   8.980  0.2939 -0.5335 -1.3756
  115OSM   C17S12047   5.221   6.402   8.866 -0.0874 -0.1768  0.4020
  115OSM   H17S12048   5.191   6.509   8.869 -2.5811 -0.8438  1.6421
  115OSM   H17T12049   5.137   6.338   8.901 -0.8630  0.0866 -0.9310
  115OSM   C18S12050   5.259   6.361   8.724  0.2523  0.1292  0.3816
  115OSM   H18S12051   5.183   6.405   8.654  1.7399  2.6414  0.2192
  115OSM   H18T12052   5.273   6.252   8.711 -1.7585 -0.2533  1.0413
  115OSM   H18U12053   5.349   6.417   8.692 -0.9456  0.7104 -2.3252
  115OSM    C1F12054   5.594   6.789  10.539  0.8062  0.1745 -0.4843
  115OSM     OF12055   5.695   6.781  10.605 -0.0330 -0.0996 -0.0204
  115OSM    C2F12056   5.580   6.886  10.426  0.7201 -0.3463 -0.4548
  115OSM    H2F12057   5.503   6.846  10.358  0.2559 -1.9543  0.9524
  115OSM    H2G12058   5.675   6.880  10.369  1.4005 -0.2564  0.6280
  115OSM    C3F12059   5.559   7.032  10.476 -0.5536 -0.0116  0.6144
  115OSM    H3F12060   5.658   7.049  10.524  0.9708 -1.7460 -1.6448
  115OSM    H3G12061   5.479   7.044  10.552 -0.5069 -3.2227  1.3254
  115OSM    C4F12062   5.544   7.139  10.367 -0.4130 -0.0699 -0.0868
  115OSM    H4F12063   5.627   7.147  10.294 -1.1914 -0.3358 -1.0256
  115OSM    H4G12064   5.550   7.236  10.422  0.3435 -0.2555  0.1598
  115OSM    C5F12065   5.402   7.143  10.306 -0.1513 -0.3078  0.0395
  115OSM    H5F12066   5.342   7.222  10.358 -0.2135 -0.8531  0.8067
  115OSM    H5G12067   5.352   7.046  10.326 -1.2312  0.1532 -0.3575
  115OSM    C6F12068   5.395   7.166  10.158  0.1095 -1.2371  0.1381
  115OSM    H6F12069   5.297   7.167  10.106  0.4191  0.7642 -0.4624
  115OSM    H6G12070   5.465   7.095  10.109  0.7230  0.6550 -1.8710
  115OSM    C7F12071   5.462   7.309  10.120 -0.7441  0.3104  0.1497
  115OSM    H7F12072   5.558   7.321  10.175 -1.4707  1.2655  1.2648
  115OSM    H7G12073   5.388   7.384  10.157 -3.7419 -2.3614  0.0631
  115OSM    C8F12074   5.477   7.331   9.966  0.2523  0.1957  0.2770
  115OSM    H8F12075   5.497   7.437   9.940  1.3423 -0.2677 -0.8556
  115OSM    H8G12076   5.381   7.307   9.915 -0.4455  1.1193  1.1113
  115OSM    C9F12077   5.591   7.254   9.908 -0.4912 -0.0571 -0.5126
  115OSM    H9F12078   5.682   7.261   9.969 -0.0245 -0.5928 -1.1315
  115OSM   C10F12079   5.599   7.169   9.803 -0.2036  0.2032  0.3454
  115OSM   H10F12080   5.690   7.117   9.772 -0.4546  0.5374 -1.0103
  115OSM   C11F12081   5.479   7.154   9.707  0.5977  0.4756  0.0768
  115OSM   H11F12082   5.439   7.256   9.691  3.5637  1.7619  0.3827
  115OSM   H11G12083   5.402   7.089   9.753  0.6475 -2.2292 -3.2271
  115OSM   C12F12084   5.506   7.084   9.576  0.3393  1.0223  0.2057
  115OSM   H12F12085   5.518   6.975   9.594 -2.1754  0.2685 -1.9904
  115OSM   H12G12086   5.603   7.127   9.543  2.0776 -0.8167  2.5875
  115OSM   C13F12087   5.392   7.085   9.469 -0.3653 -0.2447 -0.3153
  115OSM   H13F12088   5.374   7.190   9.437 -1.7542 -0.9756 -2.1117
  115OSM   H13G12089   5.296   7.048   9.512  0.3801 -1.2084  0.5819
  115OSM   C14F12090   5.428   6.998   9.345  0.2639 -0.4311 -0.1101
  115OSM   H14F12091   5.420   6.890   9.372  0.1942 -0.3819  0.0642
  115OSM   H14G12092   5.534   7.022   9.324  0.6498 -0.5136  1.6044
  115OSM   C15F12093   5.329   7.026   9.240 -0.1598  0.0788 -0.4616
  115OSM   H15F12094   5.327   7.131   9.205 -2.7207 -0.3561 -1.8385
  115OSM   H15G12095   5.225   7.009   9.275 -0.1011 -0.9115 -0.7388
  115OSM   C16F12096   5.354   6.945   9.111  0.1250 -0.5055  0.5047
  115OSM   H16F12097   5.365   6.836   9.131 -0.2205 -0.7128 -0.3896
  115OSM   H16G12098   5.458   6.966   9.079  0.6895  0.6808  2.8802
  115OSM   C17F12099   5.251   6.954   9.003 -0.3290  0.3646  0.2596
  115OSM   H17F12100   5.289   6.887   8.923  1.2147 -0.2249  1.4385
  115OSM   H17G12101   5.252   7.057   8.961  0.0053  0.3489  0.2270
  115OSM   C18F12102   5.107   6.904   9.036 -0.2822 -0.2218 -0.4822
  115OSM   H18F12103   5.053   6.909   8.939 -1.5341  2.9094  0.2434
  115OSM   H18G12104   5.061   6.966   9.116 -1.9381 -0.8775 -0.8687
  115OSM   H18H12105   5.112   6.806   9.088 -0.9788  0.0795  0.1697
  116OSM      N12106   1.813   0.263  11.244 -0.2173  0.1711 -0.4989
  116OSM    C1512107   1.930   0.237  11.331 -0.3659 -0.4081  0.4868
  116OSM   H15A12108   1.994   0.162  11.286 -0.9299 -0.0368 -0.9689
  116OSM   H15B12109   1.893   0.232  11.432  1.2063 -0.6202  1.0805
  116OSM   H15C12110   1.987   0.329  11.330  1.2127 -1.3278  1.5873
  116OSM    C1412111   1.728   0.143  11.242 -0.2799  0.7028  0.2256
  116OSM   H14A12112   1.637   0.159  11.186 -0.4816  1.7137  0.8230
  116OSM   H14B12113   1.696   0.115  11.341  1.8570 -0.3885  0.6676
  116OSM   H14C12114   1.779   0.055  11.205 -2.7927 -0.6034 -0.4028
  116OSM    C1312115   1.729   0.374  11.296  0.2671  0.3666 -0.4325
  116OSM   H13A12116   1.779   0.469  11.280  1.4957 -0.4468 -1.6566
  116OSM   H13B12117   1.722   0.368  11.404 -0.3445 -0.0197 -0.4897
  116OSM   H13C12118   1.630   0.387  11.256  1.0592  2.8799 -1.8486
  116OSM    C1212119   1.858   0.295  11.100 -0.1799  0.6955 -0.4972
  116OSM   H12A12120   1.908   0.391  11.091 -1.8805  1.5605 -1.1851
  116OSM   H12B12121   1.771   0.304  11.037 -2.5475 -3.2442  1.8363
  116OSM    C1112122   1.947   0.183  11.024 -0.0344  0.2646  0.3321
  116OSM   H11A12123   1.949   0.213  10.917  1.5461 -1.0664 -0.0568
  116OSM   H11B12124   1.899   0.082  11.032 -0.8888  0.7734  2.6100
  116OSM      P12125   2.157   0.062  11.102  0.1200 -0.2217  0.1007
  116OSM    O1312126   2.286   0.094  11.167 -1.2079  0.0597  0.8547
  116OSM    O1412127   2.079  -0.042  11.169  0.2151  0.1565  0.0238
  116OSM    O1112128   2.187   0.024  10.952  0.3456  0.3819 -0.0934
  116OSM    O1212129   2.073   0.189  11.091  0.1996  0.0792  0.2365
  116OSM    C1S12130   2.222   0.113  10.852  0.5078 -0.1325  0.4966
  116OSM    H1S12131   2.330   0.138  10.863  0.4858  0.3144 -0.2732
  116OSM    H1T12132   2.175   0.213  10.860 -1.5279 -1.0127  0.3178
  116OSM     NF12133   2.242   0.169  10.626 -0.4159  0.3700 -0.4469
  116OSM    HNF12134   2.173   0.225  10.582 -0.0952  1.1595  0.0302
  116OSM    C2S12135   2.196   0.066  10.709 -0.9333  0.1489 -0.1344
  116OSM    H2S12136   2.259  -0.023  10.688 -1.5259 -0.2186 -0.3888
  116OSM    C3S12137   2.045   0.033  10.693  0.0646  0.0747 -0.0505
  116OSM    H3S12138   1.985   0.125  10.710  0.3450  0.0942  0.8746
  116OSM     O312139   1.996  -0.062  10.793  0.4764 -0.8959 -0.5103
  116OSM    HO312140   2.058  -0.070  10.866 -0.2805 -0.7969  0.1552
  116OSM    C4S12141   2.011  -0.008  10.554  0.3692 -0.5134 -0.1570
  116OSM    H4S12142   1.984   0.073  10.484  0.1617 -0.1331  0.3611
  116OSM    C5S12143   1.995  -0.126  10.507  0.4193 -0.0373 -0.0558
  116OSM    H5S12144   2.026  -0.211  10.569  0.9316  0.4332  0.3541
  116OSM    C6S12145   1.958  -0.164  10.368 -0.0769 -0.5924 -0.8725
  116OSM    H6S12146   1.850  -0.189  10.356 -0.3452  0.6753 -1.1527
  116OSM    H6T12147   2.015  -0.255  10.340  0.1611 -0.7168 -0.0181
  116OSM    C7S12148   1.980  -0.062  10.256  0.3490  0.3828  0.2333
  116OSM    H7S12149   2.086  -0.028  10.251  0.3930  0.4521  1.3090
  116OSM    H7T12150   1.931   0.036  10.275  0.7961  0.7306 -0.3713
  116OSM    C8S12151   1.946  -0.129  10.118  0.6220 -0.0329  0.0029
  116OSM    H8S12152   1.837  -0.150  10.110  0.5844  0.6597 -2.0869
  116OSM    H8T12153   2.002  -0.225  10.115  1.5666  0.4545  1.3118
  116OSM    C9S12154   1.976  -0.032   9.997 -0.1816 -0.1778 -0.6867
  116OSM    H9S12155   2.084  -0.044   9.974 -0.1529  1.2561 -1.3735
  116OSM    H9T12156   1.959   0.070  10.036  0.3235 -0.6300  0.8034
  116OSM   C10S12157   1.904  -0.076   9.871  0.1081  0.6132 -0.5927
  116OSM   H10S12158   1.794  -0.079   9.885  0.2814 -0.1063  0.8139
  116OSM   H10T12159   1.938  -0.174   9.831 -3.1953 -1.3519  0.9691
  116OSM   C11S12160   1.919   0.028   9.770  0.5428 -0.4752  0.1281
  116OSM   H11S12161   2.027   0.033   9.742  0.4568  0.8604 -0.0338
  116OSM   H11T12162   1.883   0.123   9.815 -0.7152 -0.4346 -0.9238
  116OSM   C12S12163   1.832   0.018   9.646  0.3634  0.2954  0.1315
  116OSM   H12S12164   1.724   0.010   9.670  0.4948 -0.1634  0.5881
  116OSM   H12T12165   1.858  -0.078   9.597  0.4446 -0.1313  0.9926
  116OSM   C13S12166   1.846   0.133   9.538 -0.0243 -0.0781  0.2161
  116OSM   H13S12167   1.949   0.173   9.527  0.0656 -0.2905  0.2778
  116OSM   H13T12168   1.779   0.220   9.555 -1.5191 -1.3061  0.7359
  116OSM   C14S12169   1.813   0.071   9.391  0.1682 -0.1501 -0.8948
  116OSM   H14S12170   1.714   0.022   9.399  0.7164 -1.1065  0.2835
  116OSM   H14T12171   1.885  -0.012   9.373 -2.0378 -2.3179 -0.1799
  116OSM   C15S12172   1.840   0.168   9.278  0.1025 -0.0595 -1.1397
  116OSM   H15S12173   1.938   0.215   9.305  0.0934 -0.7572  0.1716
  116OSM   H15T12174   1.761   0.246   9.274 -0.3110 -0.4629 -0.8853
  116OSM   C16S12175   1.871   0.108   9.136 -0.7015 -0.0544 -0.6992
  116OSM   H16S12176   1.935   0.018   9.149 -1.8968 -0.9924 -1.0583
  116OSM   H16T12177   1.931   0.177   9.073  1.1214 -0.9642 -0.0367
  116OSM   C17S12178   1.741   0.065   9.063 -0.1589 -0.0124  0.5679
  116OSM   H17S12179   1.666   0.145   9.086 -0.9410 -0.2899 -0.9132
  116OSM   H17T12180   1.701  -0.019   9.123 -1.3785  1.1584  1.4741
  116OSM   C18S12181   1.769   0.027   8.914  0.2351  0.4113 -0.8056
  116OSM   H18S12182   1.827  -0.068   8.910  1.8482  1.4155 -2.8390
  116OSM   H18T12183   1.833   0.105   8.868 -0.8364  1.8433  0.0308
  116OSM   H18U12184   1.672   0.027   8.860 -0.5512  0.0266  0.5544
  116OSM    C1F12185   2.377   0.186  10.601  0.2375 -0.6103  0.1357
  116OSM     OF12186   2.455   0.108  10.648 -0.7042 -0.4922 -0.6213
  116OSM    C2F12187   2.409   0.312  10.528 -0.1787  0.0544  0.5555
  116OSM    H2F12188   2.466   0.384  10.590 -0.7232  1.2161 -0.2671
  116OSM    H2G12189   2.322   0.374  10.501 -1.1318 -1.0595  0.9857
  116OSM    C3F12190   2.484   0.276  10.397  0.1360  0.1102  0.1657
  116OSM    H3F12191   2.574   0.212  10.412 -0.1712 -0.1792  0.8148
  116OSM    H3G12192   2.533   0.371  10.365  0.1735 -0.6084 -2.0468
  116OSM    C4F12193   2.397   0.229  10.280  0.0196  0.4063 -0.4547
  116OSM    H4F12194   2.323   0.309  10.264  0.6026  1.2235  0.7702
  116OSM    H4G12195   2.337   0.141  10.313 -0.7938  1.6843  1.6979
  116OSM    C5F12196   2.467   0.204  10.146  0.0999 -1.3087  0.2914
  116OSM    H5F12197   2.556   0.139  10.162  1.3605  0.0145 -1.0138
  116OSM    H5G12198   2.503   0.303  10.112 -0.5978 -0.6995  1.2865
  116OSM    C6F12199   2.373   0.151  10.033 -0.3733  0.2344 -0.1548
  116OSM    H6F12200   2.296   0.228  10.008 -0.3307  0.0432 -0.8970
  116OSM    H6G12201   2.314   0.060  10.056  1.1362 -1.3009 -2.0703
  116OSM    C7F12202   2.458   0.132   9.909 -0.4015 -0.3151 -0.5549
  116OSM    H7F12203   2.538   0.055   9.917 -0.9025 -0.6914  1.3476
  116OSM    H7G12204   2.514   0.227   9.896 -0.4879 -0.0014  1.0941
  116OSM    C8F12205   2.382   0.098   9.778  0.1818 -0.0950  0.4541
  116OSM    H8F12206   2.340  -0.005   9.785 -0.0026  0.0242  1.2722
  116OSM    H8G12207   2.457   0.099   9.697  0.3185  2.1925  0.5601
  116OSM    C9F12208   2.272   0.194   9.735  0.2736 -0.6520 -0.1313
  116OSM    H9F12209   2.212   0.227   9.821  1.0233 -0.9962  0.5317
  116OSM   C10F12210   2.248   0.239   9.609  0.5026  0.1818  0.0261
  116OSM   H10F12211   2.161   0.305   9.592 -2.3408 -2.3823  3.2336
  116OSM   C11F12212   2.325   0.198   9.489 -0.1595 -0.1280  0.5708
  116OSM   H11F12213   2.363   0.094   9.499  2.0886  0.4786 -0.8046
  116OSM   H11G12214   2.413   0.265   9.481  0.2669 -0.7877 -0.4048
  116OSM   C12F12215   2.239   0.194   9.361 -0.0495 -0.4983  0.4419
  116OSM   H12F12216   2.180   0.288   9.355 -0.2288 -0.6799 -0.9142
  116OSM   H12G12217   2.167   0.110   9.362 -0.4119 -0.3064 -1.8670
  116OSM   C13F12218   2.330   0.201   9.238 -0.2839  0.4360 -0.1302
  116OSM   H13F12219   2.390   0.107   9.233 -1.6026 -0.4138 -0.3821
  116OSM   H13G12220   2.399   0.288   9.237  1.3657 -0.8299 -1.1910
  116OSM   C14F12221   2.242   0.222   9.113 -0.6209 -0.5746  0.0067
  116OSM   H14F12222   2.183   0.314   9.135 -0.5939 -0.4765 -0.3336
  116OSM   H14G12223   2.179   0.131   9.104 -1.7382 -0.0017  1.5534
  116OSM   C15F12224   2.324   0.255   8.978  0.6486  0.6470 -0.5070
  116OSM   H15F12225   2.412   0.189   8.968  1.6998  1.3794  2.6755
  116OSM   H15G12226   2.380   0.351   8.987  0.2933  0.6794  2.2992
  116OSM   C16F12227   2.225   0.245   8.862 -0.2823 -0.8425  0.1855
  116OSM   H16F12228   2.262   0.302   8.774 -0.6638 -0.6539  0.1475
  116OSM   H16G12229   2.132   0.296   8.895 -1.9294 -1.9598 -2.4023
  116OSM   C17F12230   2.190   0.098   8.839  0.7913  0.3796  0.2597
  116OSM   H17F12231   2.129   0.061   8.925  2.5827 -0.0610  1.3850
  116OSM   H17G12232   2.282   0.035   8.839 -0.2173 -1.2247 -1.5703
  116OSM   C18F12233   2.119   0.070   8.709  0.7458 -0.2890  0.0791
  116OSM   H18F12234   2.068  -0.028   8.706 -2.8468  1.3948  0.5674
  116OSM   H18G12235   2.187   0.080   8.621 -1.9784 -0.1074 -2.1628
  116OSM   H18H12236   2.036   0.144   8.709  1.3007  0.4560  2.9813
  117OSM      N12237   2.936   3.472  11.608 -0.2372 -0.1790  0.0468
  117OSM    C1512238   2.834   3.566  11.651  0.1252 -0.4291 -0.4167
  117OSM   H15A12239   2.779   3.598  11.564  0.2522  1.7336  0.2575
  117OSM   H15B12240   2.874   3.652  11.702  0.9725 -1.1351  0.1426
  117OSM   H15C12241   2.763   3.525  11.721  2.2847 -1.9870  0.9947
  117OSM    C1412242   3.017   3.434  11.731 -0.4704 -1.0326  0.1859
  117OSM   H14A12243   2.959   3.391  11.811 -0.7458 -0.1562  0.4618
  117OSM   H14B12244   3.065   3.522  11.771  1.1558 -1.6380 -0.3209
  117OSM   H14C12245   3.100   3.367  11.712  0.6986  0.1707  0.8910
  117OSM    C1312246   2.862   3.349  11.568  0.8912  0.2240  0.1239
  117OSM   H13A12247   2.840   3.282  11.650 -0.4022 -3.4628 -2.9255
  117OSM   H13B12248   2.918   3.282  11.504 -1.1842 -0.6893 -0.8447
  117OSM   H13C12249   2.766   3.370  11.524 -0.1686 -3.2976  0.4604
  117OSM    C1212250   3.031   3.519  11.501  0.7752 -0.3425 -0.1881
  117OSM   H12A12251   3.114   3.452  11.489  2.6411  1.6220  1.0295
  117OSM   H12B12252   3.077   3.615  11.519  0.8816 -0.2159 -1.0888
  117OSM    C1112253   2.976   3.531  11.361  0.4172 -0.0372 -0.9295
  117OSM   H11A12254   2.934   3.432  11.331  1.3418 -0.5015 -0.7193
  117OSM   H11B12255   3.058   3.546  11.288 -0.2760 -0.7106 -1.8827
  117OSM      P12256   2.728   3.602  11.321  0.2232  0.3137  0.1794
  117OSM    O1312257   2.700   3.460  11.287  0.6248  0.1357 -0.1739
  117OSM    O1412258   2.647   3.648  11.434 -0.5353  0.3797 -0.6596
  117OSM    O1112259   2.689   3.685  11.191 -0.3858  0.7450 -0.1667
  117OSM    O1212260   2.881   3.634  11.345  0.1736 -0.5358  0.1402
  117OSM    C1S12261   2.734   3.652  11.060  0.3176 -0.6881  0.4403
  117OSM    H1S12262   2.752   3.543  11.055  0.1692 -0.7749  1.6102
  117OSM    H1T12263   2.827   3.707  11.034  1.0937 -0.9588  2.4608
  117OSM     NF12264   2.713   3.726  10.836  0.3082  0.5032 -0.0565
  117OSM    HNF12265   2.710   3.826  10.828  0.9458  0.5970  0.8533
  117OSM    C2S12266   2.632   3.681  10.953 -0.0258 -0.1094  0.7529
  117OSM    H2S12267   2.582   3.591  10.911  0.8653 -0.3825  0.2404
  117OSM    C3S12268   2.520   3.777  10.995 -0.1007 -0.4978  0.0080
  117OSM    H3S12269   2.567   3.867  11.040 -1.3017 -0.8593  2.1255
  117OSM     O312270   2.426   3.716  11.092 -0.2376  0.3678  0.6032
  117OSM    HO312271   2.486   3.655  11.135  1.3636 -0.9426 -3.0452
  117OSM    C4S12272   2.442   3.820  10.869  0.2683 -0.5420  0.4876
  117OSM    H4S12273   2.378   3.737  10.833  1.0753 -1.4857  1.1570
  117OSM    C5S12274   2.441   3.941  10.814 -0.2058 -0.0731  0.0832
  117OSM    H5S12275   2.496   4.024  10.859  0.5969 -0.6549  0.2078
  117OSM    C6S12276   2.355   3.977  10.694  1.2220 -0.7936  0.0916
  117OSM    H6S12277   2.388   4.077  10.657 -0.6202  0.2026  1.0210
  117OSM    H6T12278   2.251   3.992  10.731  1.9660 -0.7274  2.3205
  117OSM    C7S12279   2.357   3.888  10.569  0.0176 -0.3563  1.1585
  117OSM    H7S12280   2.309   3.802  10.619 -2.5843  0.3498  0.0467
  117OSM    H7T12281   2.461   3.857  10.548  0.0599  0.0086  0.8188
  117OSM    C8S12282   2.279   3.936  10.441 -0.3705 -0.0280 -0.4178
  117OSM    H8S12283   2.320   4.036  10.418 -0.3540  0.2132  0.6182
  117OSM    H8T12284   2.170   3.942  10.462 -0.5713 -4.1523  0.6698
  117OSM    C9S12285   2.290   3.844  10.325  0.5124  0.4204 -0.8549
  117OSM    H9S12286   2.223   3.756  10.340 -1.0001  1.5855 -0.5749
  117OSM    H9T12287   2.393   3.808  10.302  0.9241  1.3191 -0.4572
  117OSM   C10S12288   2.239   3.903  10.195  0.4076 -0.8086  0.4703
  117OSM   H10S12289   2.315   3.980  10.174  0.0979 -0.0172  2.1262
  117OSM   H10T12290   2.148   3.963  10.219  2.9031  4.1281 -1.1211
  117OSM   C11S12291   2.223   3.801  10.078 -0.6435 -0.0206 -0.0713
  117OSM   H11S12292   2.129   3.747  10.101 -3.1414  3.1049 -2.0042
  117OSM   H11T12293   2.313   3.737  10.064 -0.6291 -0.1919  0.7512
  117OSM   C12S12294   2.198   3.872   9.942  0.4821 -0.1568  0.6321
  117OSM   H12S12295   2.265   3.961   9.937  1.1557 -0.6688  0.5033
  117OSM   H12T12296   2.091   3.903   9.947  0.9409  1.4899  0.7203
  117OSM   C13S12297   2.212   3.791   9.811 -0.5768 -0.2193  0.3342
  117OSM   H13S12298   2.138   3.709   9.806 -0.7673 -0.1025  1.0411
  117OSM   H13T12299   2.313   3.751   9.790  0.4462  1.3911  1.8838
  117OSM   C14S12300   2.160   3.876   9.697  0.3941 -0.4862 -0.4863
  117OSM   H14S12301   2.218   3.969   9.711  1.9725 -1.5276  0.2045
  117OSM   H14T12302   2.054   3.903   9.717 -0.5152 -2.9095 -1.5476
  117OSM   C15S12303   2.176   3.811   9.567 -0.0894 -0.7785  0.2190
  117OSM   H15S12304   2.124   3.866   9.486  4.1504  1.7859 -1.1175
  117OSM   H15T12305   2.143   3.705   9.564 -1.0231 -0.4973  0.1698
  117OSM   C16S12306   2.328   3.809   9.532  0.5779  0.1384  0.3897
  117OSM   H16S12307   2.377   3.717   9.569  2.4666  0.9643  0.0778
  117OSM   H16T12308   2.362   3.903   9.582  0.5545  0.3248  0.0589
  117OSM   C17S12309   2.366   3.814   9.377  0.6154 -0.2672  0.0869
  117OSM   H17S12310   2.329   3.719   9.332  0.2498 -1.4964  2.8066
  117OSM   H17T12311   2.475   3.808   9.359  1.0178  2.1263  1.2960
  117OSM   C18S12312   2.322   3.936   9.297 -0.0635  0.5727 -0.2585
  117OSM   H18S12313   2.352   4.030   9.348  0.3358 -0.3069  1.2059
  117OSM   H18T12314   2.212   3.935   9.284 -0.2228 -0.0228  1.0114
  117OSM   H18U12315   2.372   3.926   9.198  3.2047 -1.3557  1.4049
  117OSM    C1F12316   2.780   3.651  10.747  0.1027  0.5763  0.1046
  117OSM     OF12317   2.790   3.528  10.754  0.1556 -0.3064  0.5444
  117OSM    C2F12318   2.853   3.719  10.632 -0.9160 -0.2459 -0.1108
  117OSM    H2F12319   2.911   3.638  10.583 -0.4432 -0.0091  0.0534
  117OSM    H2G12320   2.924   3.791  10.677 -2.1036  1.8368 -1.3994
  117OSM    C3F12321   2.754   3.785  10.535  0.1427 -0.0792  0.7967
  117OSM    H3F12322   2.708   3.872  10.586  1.2236  1.3431 -0.5433
  117OSM    H3G12323   2.685   3.709  10.492  0.5528  0.3340 -0.6522
  117OSM    C4F12324   2.831   3.853  10.426  0.6549 -0.8422  0.5201
  117OSM    H4F12325   2.862   3.783  10.345  1.9806  0.0414  0.2345
  117OSM    H4G12326   2.912   3.910  10.476  2.1621 -1.1511 -1.3926
  117OSM    C5F12327   2.740   3.954  10.347 -0.7987  0.0532  0.7665
  117OSM    H5F12328   2.713   4.038  10.415  0.1130 -0.9861  2.4751
  117OSM    H5G12329   2.645   3.900  10.325 -0.3552 -0.4232  0.0025
  117OSM    C6F12330   2.815   3.999  10.220  0.1199  0.4687 -0.2875
  117OSM    H6F12331   2.922   3.990  10.248 -0.3301  0.1760  1.4908
  117OSM    H6G12332   2.807   4.109  10.206 -0.6075  0.4887  0.2275
  117OSM    C7F12333   2.779   3.940  10.085  0.0330 -0.2336 -0.0014
  117OSM    H7F12334   2.673   3.962  10.059 -0.4276 -1.2861  0.9500
  117OSM    H7G12335   2.797   3.831  10.094 -0.5285 -0.2934  0.4662
  117OSM    C8F12336   2.871   3.990   9.971 -0.7543 -0.8034  0.6781
  117OSM    H8F12337   2.863   3.915   9.890  1.8005 -0.3211 -0.0990
  117OSM    H8G12338   2.975   3.988  10.010 -0.1884 -0.0010 -0.7153
  117OSM    C9F12339   2.844   4.134   9.933  0.7839  0.9779  0.3567
  117OSM    H9F12340   2.825   4.203  10.017 -0.1758  0.2568  0.7499
  117OSM   C10F12341   2.840   4.184   9.803  0.0314 -0.5063 -0.3547
  117OSM   H10F12342   2.837   4.294   9.800 -0.0494 -0.4582  0.9901
  117OSM   C11F12343   2.868   4.112   9.675  0.0261 -0.0905  0.3588
  117OSM   H11F12344   2.881   4.004   9.697  3.2328  0.2873  0.7242
  117OSM   H11G12345   2.954   4.147   9.614 -2.5911  3.0102 -1.9199
  117OSM   C12F12346   2.754   4.131   9.573 -0.0946 -0.4494  0.2805
  117OSM   H12F12347   2.747   4.241   9.560 -0.1940 -0.0232  3.2758
  117OSM   H12G12348   2.661   4.095   9.623 -0.1896  2.6138  2.6033
  117OSM   C13F12349   2.780   4.062   9.437  0.4960 -0.2877  0.2498
  117OSM   H13F12350   2.771   3.952   9.455 -3.2760 -0.0471  0.6245
  117OSM   H13G12351   2.874   4.098   9.389  0.1116  0.9546  0.3967
  117OSM   C14F12352   2.666   4.085   9.333 -0.0534 -0.1231  0.2866
  117OSM   H14F12353   2.679   4.191   9.300  3.4472 -0.0740  1.4091
  117OSM   H14G12354   2.565   4.074   9.377 -1.9271  0.2298 -3.4502
  117OSM   C15F12355   2.685   3.984   9.218  0.0057  0.5326  0.2513
  117OSM   H15F12356   2.600   4.003   9.149 -0.3551 -1.0079  0.2283
  117OSM   H15G12357   2.652   3.888   9.263  0.0840  0.0191 -0.7455
  117OSM   C16F12358   2.819   3.979   9.144 -0.2998 -0.2341  0.2254
  117OSM   H16F12359   2.808   3.917   9.053 -1.3284  1.4053 -0.8101
  117OSM   H16G12360   2.906   3.934   9.198  1.1719  2.0945 -0.0606
  117OSM   C17F12361   2.855   4.120   9.092 -0.0475 -0.3925 -0.0949
  117OSM   H17F12362   2.875   4.186   9.179 -4.0113  0.6441  0.2413
  117OSM   H17G12363   2.766   4.172   9.049  0.5562  1.1741  0.4762
  117OSM   C18F12364   2.970   4.114   8.994  0.6995  0.0009 -0.3828
  117OSM   H18F12365   2.959   4.045   8.908  0.3308 -0.4308 -0.0019
  117OSM   H18G12366   3.059   4.073   9.046 -1.0565 -3.0576  0.4833
  117OSM   H18H12367   2.992   4.212   8.947 -0.9775  0.2051 -0.8170
  118OSM      N12368   2.403   5.661  11.017 -0.3896 -0.4731 -0.4173
  118OSM    C1512369   2.305   5.680  11.120 -0.0614  0.2847 -1.0116
  118OSM   H15A12370   2.312   5.590  11.180 -0.5111  1.3964  0.7709
  118OSM   H15B12371   2.202   5.672  11.089 -0.5533 -0.9602  0.7969
  118OSM   H15C12372   2.312   5.772  11.175 -1.6451  0.2871 -0.7808
  118OSM    C1412373   2.386   5.788  10.926 -0.0317 -0.1586 -0.3670
  118OSM   H14A12374   2.436   5.873  10.970  0.0255 -0.3908  0.0177
  118OSM   H14B12375   2.281   5.813  10.917 -1.0345 -4.0354 -1.3350
  118OSM   H14C12376   2.431   5.771  10.829 -1.6794  1.9950 -1.6001
  118OSM    C1312377   2.540   5.652  11.067  0.5135  0.1784 -0.3616
  118OSM   H13A12378   2.607   5.672  10.985  0.5296 -0.3783 -0.4842
  118OSM   H13B12379   2.562   5.554  11.106 -1.1401 -0.6409 -1.3811
  118OSM   H13C12380   2.553   5.728  11.143 -1.3247 -0.8690  1.1113
  118OSM    C1212381   2.374   5.536  10.935  0.1752 -0.2991 -0.1846
  118OSM   H12A12382   2.451   5.521  10.862  0.4292 -1.1330  0.2502
  118OSM   H12B12383   2.287   5.557  10.874  1.0392 -0.9100 -1.6941
  118OSM    C1112384   2.365   5.408  11.015 -0.6549 -0.4222  0.1499
  118OSM   H11A12385   2.310   5.329  10.959  0.8639 -1.9922  0.7868
  118OSM   H11B12386   2.305   5.407  11.108 -1.2764  0.8851 -0.2173
  118OSM      P12387   2.544   5.210  11.048  0.4287 -0.3522  0.0866
  118OSM    O1312388   2.687   5.197  11.027 -0.0172 -0.0865  0.2049
  118OSM    O1412389   2.499   5.142  11.165 -0.0313  0.2423  0.0630
  118OSM    O1112390   2.469   5.149  10.924 -0.1355  0.5636  0.1907
  118OSM    O1212391   2.495   5.364  11.055 -0.2186 -0.1701 -0.0281
  118OSM    C1S12392   2.472   5.207  10.792 -0.4747  0.0431  0.3372
  118OSM    H1S12393   2.532   5.300  10.786 -0.1413 -0.1729  0.2848
  118OSM    H1T12394   2.377   5.251  10.755  0.2678  0.6994 -0.8566
  118OSM     NF12395   2.528   5.183  10.556  0.0597  0.4741 -1.0272
  118OSM    HNF12396   2.449   5.169  10.496 -0.9868 -1.3535  0.6661
  118OSM    C2S12397   2.521   5.108  10.682  0.0783  0.1757 -0.2107
  118OSM    H2S12398   2.624   5.074  10.704 -0.4973  0.0646  2.7227
  118OSM    C3S12399   2.428   4.988  10.684  0.5890  0.4499  0.4683
  118OSM    H3S12400   2.324   5.024  10.672  0.3274 -0.5254 -0.3289
  118OSM     O312401   2.436   4.905  10.808  0.6456 -0.8136 -0.0691
  118OSM    HO312402   2.475   4.964  10.873  0.2661 -0.5708 -0.0637
  118OSM    C4S12403   2.450   4.895  10.570  0.5761  0.1675  0.2351
  118OSM    H4S12404   2.534   4.826  10.586 -0.6666 -1.2776  0.7434
  118OSM    C5S12405   2.367   4.873  10.463 -0.2967  0.3577  0.5065
  118OSM    H5S12406   2.266   4.916  10.461 -0.9957 -1.2192 -1.3768
  118OSM    C6S12407   2.408   4.780  10.356  0.0239  0.5317 -0.0414
  118OSM    H6S12408   2.322   4.711  10.341  0.6981 -0.6664  1.3336
  118OSM    H6T12409   2.501   4.727  10.385 -1.3036 -0.6989  2.2355
  118OSM    C7S12410   2.456   4.844  10.223  0.1862  0.9578 -0.4285
  118OSM    H7S12411   2.505   4.770  10.156 -1.1214 -0.3127 -0.0221
  118OSM    H7T12412   2.550   4.901  10.242  0.0702  1.4628 -1.3248
  118OSM    C8S12413   2.357   4.931  10.157 -0.0550  0.6835  0.7668
  118OSM    H8S12414   2.371   5.027  10.211  0.1544  0.2411  1.5234
  118OSM    H8T12415   2.263   4.889  10.199 -0.2316  0.9718  0.6618
  118OSM    C9S12416   2.367   4.931  10.005 -0.4878  0.4560 -0.6766
  118OSM    H9S12417   2.284   4.995   9.967 -0.3706  0.4428 -0.9631
  118OSM    H9T12418   2.363   4.826   9.969  1.9937 -0.2875  0.9985
  118OSM   C10S12419   2.497   4.992   9.960  0.0438 -0.1772 -0.3939
  118OSM   H10S12420   2.585   4.933   9.992 -0.5936 -0.4689  0.8847
  118OSM   H10T12421   2.508   5.096   9.999 -0.0009  0.1035 -1.1087
  118OSM   C11S12422   2.491   4.981   9.800 -0.3960  0.0745 -0.6033
  118OSM   H11S12423   2.397   5.025   9.761 -1.2382 -0.7591  0.4359
  118OSM   H11T12424   2.495   4.873   9.772  2.3649 -0.2402  0.6912
  118OSM   C12S12425   2.621   5.036   9.740  0.1005 -0.3840  0.6265
  118OSM   H12S12426   2.707   4.979   9.782  0.9802 -1.5589 -2.4882
  118OSM   H12T12427   2.645   5.143   9.751  2.4466 -0.8649  0.6736
  118OSM   C13S12428   2.628   5.005   9.589 -0.0428  1.0703 -0.5905
  118OSM   H13S12429   2.523   5.022   9.557 -0.3234 -0.2019 -0.4059
  118OSM   H13T12430   2.656   4.900   9.568 -1.8236  0.7884 -1.8397
  118OSM   C14S12431   2.720   5.105   9.509 -0.1077 -0.0079 -0.1427
  118OSM   H14S12432   2.825   5.080   9.537  0.2736  1.4362 -0.2465
  118OSM   H14T12433   2.708   5.204   9.558 -0.3126  0.0191 -0.2465
  118OSM   C15S12434   2.708   5.110   9.361  0.1264 -0.2500 -0.2334
  118OSM   H15S12435   2.693   5.006   9.325 -2.1744 -0.0309 -0.0609
  118OSM   H15T12436   2.798   5.154   9.314 -1.1508 -0.0493 -2.6594
  118OSM   C16S12437   2.582   5.183   9.312 -1.0997 -0.2728 -0.0554
  118OSM   H16S12438   2.584   5.292   9.334  0.0297  0.4491 -3.2253
  118OSM   H16T12439   2.500   5.142   9.375 -0.0999 -1.4580  0.5286
  118OSM   C17S12440   2.550   5.157   9.165  0.1261  0.0189 -0.5312
  118OSM   H17S12441   2.456   5.202   9.127  1.5279  1.0872 -3.0333
  118OSM   H17T12442   2.527   5.049   9.152  0.9276 -0.4475  1.5511
  118OSM   C18S12443   2.655   5.202   9.056  0.8220  0.2557  0.2297
  118OSM   H18S12444   2.615   5.179   8.955  0.7303  0.8729  0.1211
  118OSM   H18T12445   2.749   5.146   9.078  1.0828  0.3724 -0.5752
  118OSM   H18U12446   2.697   5.304   9.062  4.2626 -0.8841 -1.6605
  118OSM    C1F12447   2.624   5.275  10.536  0.3130  0.7966  0.0206
  118OSM     OF12448   2.702   5.302  10.627 -0.5801 -0.5338  0.5365
  118OSM    C2F12449   2.614   5.332  10.400  0.0702 -0.0719  0.2451
  118OSM    H2F12450   2.511   5.331  10.360  0.2989  0.6530 -0.3935
  118OSM    H2G12451   2.680   5.271  10.334  0.6249 -0.5492  1.2100
  118OSM    C3F12452   2.652   5.478  10.413  0.6365 -0.6903  0.8581
  118OSM    H3F12453   2.751   5.477  10.464  1.0774 -2.7236  0.0382
  118OSM    H3G12454   2.578   5.538  10.470  1.1544  1.3663 -0.5030
  118OSM    C4F12455   2.684   5.545  10.275  0.6621  0.6397 -0.6041
  118OSM    H4F12456   2.778   5.510  10.227  0.8451  0.9365 -0.4697
  118OSM    H4G12457   2.691   5.654  10.297 -3.9074  0.9209  0.5791
  118OSM    C5F12458   2.571   5.530  10.171 -0.3453  0.1973  0.2589
  118OSM    H5F12459   2.482   5.582  10.212 -1.4644  0.2325 -2.0357
  118OSM    H5G12460   2.542   5.425  10.150 -2.4742  0.8264 -0.1797
  118OSM    C6F12461   2.628   5.609  10.050  0.0313 -0.9540  0.5860
  118OSM    H6F12462   2.717   5.555  10.012 -2.3120 -4.2160 -0.7639
  118OSM    H6G12463   2.647   5.715  10.076  1.8249 -1.4353  1.3650
  118OSM    C7F12464   2.518   5.609   9.949 -0.0640 -0.3771  0.2073
  118OSM    H7F12465   2.426   5.655   9.990  0.7269  0.8178  0.7042
  118OSM    H7G12466   2.502   5.503   9.920  2.6600 -0.6739 -0.5511
  118OSM    C8F12467   2.566   5.685   9.821  0.1857 -0.3247 -0.5997
  118OSM    H8F12468   2.665   5.651   9.784  1.2810  1.5442  0.5250
  118OSM    H8G12469   2.585   5.788   9.856 -3.3465  0.4020 -0.4144
  118OSM    C9F12470   2.460   5.701   9.715  0.3823 -0.7255  0.5942
  118OSM    H9F12471   2.368   5.752   9.747 -0.6717 -0.2484 -2.7673
  118OSM   C10F12472   2.477   5.663   9.587  0.2551  0.2128 -0.0921
  118OSM   H10F12473   2.397   5.694   9.518  0.7838  0.7365 -0.4714
  118OSM   C11F12474   2.597   5.595   9.532  0.0444 -0.6781 -0.4322
  118OSM   H11F12475   2.578   5.486   9.547 -1.4184 -0.1635  2.1114
  118OSM   H11G12476   2.681   5.624   9.598 -1.5372  4.2261 -0.1741
  118OSM   C12F12477   2.628   5.637   9.386 -0.7300 -0.2109  0.2369
  118OSM   H12F12478   2.719   5.576   9.364 -0.5852 -0.5649  1.6721
  118OSM   H12G12479   2.654   5.745   9.381 -0.6031 -0.2256  0.5195
  118OSM   C13F12480   2.515   5.604   9.282  0.2718 -0.4361 -1.1087
  118OSM   H13F12481   2.423   5.584   9.342 -0.3695  0.0818 -1.9045
  118OSM   H13G12482   2.554   5.509   9.241  3.2920  1.7240 -3.6318
  118OSM   C14F12483   2.485   5.704   9.175 -0.0787 -0.0124  0.3207
  118OSM   H14F12484   2.573   5.706   9.108 -1.5343  1.1611 -1.6421
  118OSM   H14G12485   2.468   5.807   9.213 -2.1229  1.2901 -3.5947
  118OSM   C15F12486   2.353   5.665   9.111 -0.3599 -0.3346  0.1789
  118OSM   H15F12487   2.271   5.662   9.186  0.7612 -3.3353  1.4315
  118OSM   H15G12488   2.370   5.556   9.096 -0.5729 -0.2231 -1.0499
  118OSM   C16F12489   2.314   5.739   8.991 -0.1335  0.5225  0.9073
  118OSM   H16F12490   2.395   5.720   8.918 -2.1192 -2.4579 -0.6919
  118OSM   H16G12491   2.322   5.847   9.017 -1.7187  0.6694  0.8500
  118OSM   C17F12492   2.183   5.695   8.930 -0.1758 -0.3633 -0.3900
  118OSM   H17F12493   2.108   5.738   8.999  0.3145  1.0768 -0.7162
  118OSM   H17G12494   2.188   5.584   8.930  0.4780 -0.3469 -1.0960
  118OSM   C18F12495   2.150   5.743   8.794  0.6587  0.6486  0.4668
  118OSM   H18F12496   2.232   5.719   8.723  0.0570 -0.5796  0.1537
  118OSM   H18G12497   2.137   5.853   8.798 -1.4841  0.5408 -1.6345
  118OSM   H18H12498   2.056   5.706   8.749  0.4027  2.3373 -0.4604
  119OSM      N12499   3.533   4.431  11.259 -0.2113  0.1190  0.6031
  119OSM    C1512500   3.533   4.527  11.366 -0.4680 -0.0237 -0.7553
  119OSM   H15A12501   3.525   4.481  11.464 -0.8367 -0.8469 -1.1579
  119OSM   H15B12502   3.455   4.601  11.354  2.6135  3.2926 -2.2584
  119OSM   H15C12503   3.624   4.584  11.368 -0.9610  0.8698  2.3914
  119OSM    C1412504   3.639   4.324  11.283  0.7350 -0.1125  0.1031
  119OSM   H14A12505   3.737   4.368  11.292 -0.1348  1.8576  0.5708
  119OSM   H14B12506   3.651   4.256  11.200  0.2540  0.1786 -0.2125
  119OSM   H14C12507   3.611   4.283  11.379  0.0972 -0.2164 -0.1208
  119OSM    C1312508   3.400   4.365  11.258 -0.0540 -0.0344 -0.2311
  119OSM   H13A12509   3.388   4.305  11.347  1.5400  2.1135  1.5174
  119OSM   H13B12510   3.385   4.294  11.177 -2.4389  0.5794 -0.4093
  119OSM   H13C12511   3.319   4.435  11.244  1.3889  1.2458 -2.9832
  119OSM    C1212512   3.558   4.503  11.124  0.1275  0.1373  0.2893
  119OSM   H12A12513   3.645   4.566  11.121 -0.3220  1.1840  3.9792
  119OSM   H12B12514   3.472   4.568  11.113 -0.3611 -0.5217  0.0950
  119OSM    C1112515   3.559   4.407  10.997  0.5840 -0.2836 -0.0616
  119OSM   H11A12516   3.580   4.482  10.918  1.3107 -0.9388 -0.4997
  119OSM   H11B12517   3.462   4.354  11.001  0.8527 -0.7148  1.3158
  119OSM      P12518   3.694   4.183  10.939 -0.3030  0.5390 -0.4740
  119OSM    O1312519   3.842   4.157  10.929 -0.5544  0.3268 -0.9304
  119OSM    O1412520   3.615   4.076  11.011  0.3829 -0.1858  0.4305
  119OSM    O1112521   3.631   4.194  10.792 -0.5693 -0.0829 -0.1976
  119OSM    O1212522   3.672   4.322  11.005 -0.5046 -0.6190  0.2479
  119OSM    C1S12523   3.694   4.293  10.703 -0.3586  0.5942 -0.2418
  119OSM    H1S12524   3.802   4.302  10.727 -0.8967  0.8724  2.4485
  119OSM    H1T12525   3.656   4.395  10.729  1.4009  0.3632  4.0245
  119OSM     NF12526   3.747   4.314  10.455 -0.4344 -0.1503  0.1815
  119OSM    HNF12527   3.713   4.397  10.411  1.5618  0.3079 -0.6066
  119OSM    C2S12528   3.656   4.261  10.559 -0.6814 -0.5217  0.4964
  119OSM    H2S12529   3.655   4.150  10.555  1.7986 -0.5569 -1.8734
  119OSM    C3S12530   3.512   4.320  10.536  0.4965 -0.1314 -0.6862
  119OSM    H3S12531   3.513   4.429  10.555  2.3317 -0.3316  0.7025
  119OSM     O312532   3.422   4.278  10.639  0.3839  0.4668  0.6460
  119OSM    HO312533   3.463   4.235  10.715 -3.2974 -2.1823  1.4317
  119OSM    C4S12534   3.451   4.293  10.403  0.3115 -0.0007 -0.3228
  119OSM    H4S12535   3.416   4.190  10.388  0.2483  0.0404 -0.4556
  119OSM    C5S12536   3.424   4.391  10.312 -0.3879  0.3061 -0.2444
  119OSM    H5S12537   3.472   4.487  10.335  2.3002 -1.2881  1.3486
  119OSM    C6S12538   3.352   4.375  10.180 -0.3600  0.5987  0.6022
  119OSM    H6S12539   3.425   4.376  10.096  0.8895  0.3905  1.6520
  119OSM    H6T12540   3.288   4.465  10.171 -0.3196  0.5440 -0.3412
  119OSM    C7S12541   3.259   4.250  10.154  0.2713 -0.0750 -0.3382
  119OSM    H7S12542   3.183   4.258  10.235 -0.0998 -0.3529 -0.6605
  119OSM    H7T12543   3.316   4.156  10.167  0.3618  0.1575  1.1317
  119OSM    C8S12544   3.195   4.238  10.015  0.4910 -0.3768  0.3655
  119OSM    H8S12545   3.133   4.329  10.006  1.8246  0.4571 -1.0653
  119OSM    H8T12546   3.128   4.150  10.023  0.8580 -0.6942  0.0430
  119OSM    C9S12547   3.288   4.222   9.893  0.0958  0.2112  0.2632
  119OSM    H9S12548   3.347   4.130   9.916  0.7990 -0.5968 -3.9597
  119OSM    H9T12549   3.371   4.295   9.889  1.4269 -1.2783 -2.8876
  119OSM   C10S12550   3.214   4.199   9.762 -0.6798 -0.3600 -0.0292
  119OSM   H10S12551   3.129   4.270   9.757 -0.1178  0.4383  1.2962
  119OSM   H10T12552   3.174   4.096   9.755 -1.4697 -0.0531 -0.2016
  119OSM   C11S12553   3.301   4.213   9.636  0.2969  0.0737 -0.0597
  119OSM   H11S12554   3.388   4.145   9.653 -1.0377 -1.1967  2.2638
  119OSM   H11T12555   3.336   4.318   9.647  1.5579 -0.2257 -0.9415
  119OSM   C12S12556   3.215   4.195   9.506 -0.7201  0.0688 -0.2824
  119OSM   H12S12557   3.118   4.250   9.509 -1.0055 -0.4539  1.6177
  119OSM   H12T12558   3.183   4.089   9.499 -5.3857  1.2458  0.0329
  119OSM   C13S12559   3.295   4.238   9.382 -0.4425 -0.0677 -0.7791
  119OSM   H13S12560   3.393   4.187   9.374 -0.5127 -0.1058 -1.5255
  119OSM   H13T12561   3.310   4.347   9.400 -1.0450 -0.2397  0.9268
  119OSM   C14S12562   3.218   4.212   9.253  0.2959 -0.1158 -0.3229
  119OSM   H14S12563   3.126   4.272   9.267 -0.4573 -1.8078  2.8499
  119OSM   H14T12564   3.187   4.105   9.260  0.3682 -0.0657  0.8429
  119OSM   C15S12565   3.293   4.246   9.122  0.2131 -0.9052 -0.2096
  119OSM   H15S12566   3.340   4.344   9.144  0.1698 -0.1069 -3.1641
  119OSM   H15T12567   3.223   4.268   9.039 -0.9526 -0.8563  0.7594
  119OSM   C16S12568   3.374   4.128   9.075  0.4441 -0.9453 -0.1002
  119OSM   H16S12569   3.311   4.038   9.095 -0.3407 -0.3873  0.0083
  119OSM   H16T12570   3.470   4.141   9.129 -0.3995  1.0334  1.0147
  119OSM   C17S12571   3.409   4.148   8.933 -0.1012  0.1701 -0.1489
  119OSM   H17S12572   3.442   4.254   8.921  1.5644  0.0625  2.5385
  119OSM   H17T12573   3.315   4.140   8.874 -0.1783  0.2333 -0.0340
  119OSM   C18S12574   3.515   4.056   8.877  0.5090 -0.6673  0.4637
  119OSM   H18S12575   3.491   3.947   8.878  0.5337 -0.6801  0.0174
  119OSM   H18T12576   3.610   4.061   8.933  0.3928 -0.5851  0.6554
  119OSM   H18U12577   3.548   4.092   8.777  0.5165 -1.5452  0.1363
  119OSM    C1F12578   3.879   4.272  10.445 -0.6552  0.6508 -0.2013
  119OSM     OF12579   3.921   4.172  10.500 -0.3365  0.3818  0.0964
  119OSM    C2F12580   3.966   4.355  10.362 -0.2325  0.8815 -0.0798
  119OSM    H2F12581   4.049   4.399  10.421  0.5796 -1.7998  0.9428
  119OSM    H2G12582   3.907   4.428  10.303 -0.9275  0.3322 -0.0794
  119OSM    C3F12583   4.030   4.262  10.262 -0.5265 -0.1133 -0.7818
  119OSM    H3F12584   3.967   4.186  10.210  0.9184 -2.9617  1.3237
  119OSM    H3G12585   4.094   4.191  10.318 -0.1349  0.2835 -0.7215
  119OSM    C4F12586   4.119   4.323  10.161 -0.9837  0.6969  0.2710
  119OSM    H4F12587   4.198   4.249  10.138 -2.3379 -0.4135 -0.9893
  119OSM    H4G12588   4.171   4.411  10.205  0.5699 -0.4820  0.8554
  119OSM    C5F12589   4.054   4.349  10.025  0.0238  0.0754 -0.3376
  119OSM    H5F12590   3.976   4.427  10.017  0.5508  0.4520 -2.3603
  119OSM    H5G12591   3.996   4.263   9.985 -0.4814  0.4788 -0.4814
  119OSM    C6F12592   4.158   4.387   9.916 -0.0487 -0.1028  0.2808
  119OSM    H6F12593   4.239   4.312   9.923  0.0557  0.1363  2.1562
  119OSM    H6G12594   4.208   4.480   9.951 -0.3176 -0.9645  3.1902
  119OSM    C7F12595   4.099   4.383   9.779  0.4000  0.5426 -0.2524
  119OSM    H7F12596   4.025   4.465   9.773  0.1633  0.2324 -3.5235
  119OSM    H7G12597   4.050   4.286   9.754  0.5867 -0.4399  2.7987
  119OSM    C8F12598   4.198   4.415   9.661  0.5738 -0.8344 -0.2125
  119OSM    H8F12599   4.245   4.514   9.674 -1.2787 -0.0171  0.5766
  119OSM    H8G12600   4.135   4.412   9.569  1.3309  0.0541 -0.7639
  119OSM    C9F12601   4.296   4.303   9.629  0.3669 -0.8782 -0.5157
  119OSM    H9F12602   4.261   4.199   9.644  2.8876 -1.4221  3.1696
  119OSM   C10F12603   4.429   4.310   9.614 -0.1541  0.6231 -0.7498
  119OSM   H10F12604   4.481   4.217   9.586 -0.5122  1.1800 -3.5951
  119OSM   C11F12605   4.512   4.430   9.616 -0.3535 -0.0048 -0.7635
  119OSM   H11F12606   4.618   4.406   9.642 -0.3051 -0.3107 -1.2290
  119OSM   H11G12607   4.482   4.499   9.697  1.8703 -0.0373  0.1678
  119OSM   C12F12608   4.515   4.512   9.483  0.3810  0.0386 -0.4932
  119OSM   H12F12609   4.583   4.598   9.499  0.3432  0.0580 -0.4385
  119OSM   H12G12610   4.416   4.561   9.473  0.2546  0.2678  1.5455
  119OSM   C13F12611   4.558   4.434   9.357  0.1316  0.6140  0.6390
  119OSM   H13F12612   4.467   4.399   9.304  0.0580  2.7350 -0.7729
  119OSM   H13G12613   4.615   4.345   9.391 -0.2569  0.7652  1.7210
  119OSM   C14F12614   4.643   4.508   9.252  0.0076 -0.5270  0.4324
  119OSM   H14F12615   4.696   4.429   9.194 -0.0496  1.1499 -2.0769
  119OSM   H14G12616   4.720   4.569   9.305 -1.0599  1.9776 -0.7507
  119OSM   C15F12617   4.576   4.586   9.137  0.2691  0.4646 -0.1478
  119OSM   H15F12618   4.544   4.515   9.057 -2.1875 -0.4632  1.5417
  119OSM   H15G12619   4.654   4.654   9.099 -1.7498  1.6741 -2.4231
  119OSM   C16F12620   4.461   4.674   9.176  0.4045  0.0072 -0.0405
  119OSM   H16F12621   4.491   4.765   9.232 -2.1432  0.8180  0.1140
  119OSM   H16G12622   4.387   4.620   9.238 -0.7946  0.3740 -1.1077
  119OSM   C17F12623   4.380   4.723   9.057 -0.0629  0.0973 -0.2773
  119OSM   H17F12624   4.303   4.797   9.089 -1.3500 -0.8898 -0.9566
  119OSM   H17G12625   4.333   4.631   9.016 -0.0608 -0.1236  0.2112
  119OSM   C18F12626   4.452   4.791   8.931 -0.0448  1.1700  0.1765
  119OSM   H18F12627   4.379   4.844   8.867 -2.4088 -2.2996 -0.2776
  119OSM   H18G12628   4.490   4.707   8.868 -1.5959  0.5870 -0.0209
  119OSM   H18H12629   4.534   4.856   8.969 -0.8634  1.3993  1.6274
  120OSM      N12630   1.974   0.996  11.032 -0.9913 -0.4642  0.3265
  120OSM    C1512631   1.965   0.888  11.137  0.2869 -0.4760  0.5990
  120OSM   H15A12632   2.053   0.888  11.200  0.6625  1.4671  0.1500
  120OSM   H15B12633   1.952   0.792  11.089 -1.8358  0.2506 -0.3921
  120OSM   H15C12634   1.881   0.914  11.201  0.3920 -1.8958  1.3662
  120OSM    C1412635   1.969   1.131  11.097  0.3551  0.6235 -0.3878
  120OSM   H14A12636   1.981   1.208  11.022  2.9399  0.2617 -0.4458
  120OSM   H14B12637   2.046   1.142  11.172  0.6762  1.3030 -0.8033
  120OSM   H14C12638   1.880   1.151  11.154 -0.0348 -0.3266 -0.6479
  120OSM    C1312639   2.105   0.986  10.964 -0.0277 -0.2192  0.0852
  120OSM   H13A12640   2.119   1.073  10.902 -1.1579 -0.4518 -0.5296
  120OSM   H13B12641   2.118   0.892  10.913 -1.1521 -1.4914  1.9971
  120OSM   H13C12642   2.179   1.001  11.041 -1.7789  0.1685  1.7649
  120OSM    C1212643   1.856   0.980  10.941 -0.4159  1.2072  0.7265
  120OSM   H12A12644   1.839   1.064  10.876  1.0378  1.8703  1.1694
  120OSM   H12B12645   1.770   0.974  11.006 -0.5244 -0.3342  0.4733
  120OSM    C1112646   1.853   0.850  10.856 -0.2447 -0.0310  0.5767
  120OSM   H11A12647   1.926   0.866  10.774 -1.5978  1.7448 -0.3417
  120OSM   H11B12648   1.757   0.842  10.802  0.7084  0.2511 -1.2726
  120OSM      P12649   2.004   0.637  10.889 -0.2836 -0.3468 -0.2219
  120OSM    O1312650   2.114   0.715  10.839 -0.4662  1.2234  0.2305
  120OSM    O1412651   2.029   0.564  11.017 -0.0965  0.6979 -0.2308
  120OSM    O1112652   1.964   0.547  10.771  0.4209 -0.5571  0.5008
  120OSM    O1212653   1.875   0.728  10.922  0.2010  0.6266 -0.5668
  120OSM    C1S12654   1.835   0.537  10.723  0.1193  0.3022 -0.4685
  120OSM    H1S12655   1.757   0.608  10.759 -0.1598 -0.9542  1.6214
  120OSM    H1T12656   1.796   0.434  10.743  0.1472  0.1190 -1.3388
  120OSM     NF12657   1.717   0.555  10.507  0.3978 -0.0828  0.2935
  120OSM    HNF12658   1.663   0.477  10.475  1.4863  0.2260 -2.5577
  120OSM    C2S12659   1.850   0.530  10.569  0.0767  0.1016 -0.2306
  120OSM    H2S12660   1.914   0.617  10.543  0.3449  0.6340  1.9880
  120OSM    C3S12661   1.937   0.400  10.533  0.7318 -0.0672  0.3547
  120OSM    H3S12662   1.899   0.308  10.583 -2.4608 -1.4338 -4.0191
  120OSM     O312663   2.074   0.410  10.574  0.0021 -0.5373  0.8907
  120OSM    HO312664   2.079   0.487  10.631 -0.1702 -0.8775  1.3625
  120OSM    C4S12665   1.924   0.364  10.386  0.3742  0.1399  0.1746
  120OSM    H4S12666   1.834   0.306  10.361  0.0113  0.0790  1.5503
  120OSM    C5S12667   2.009   0.392  10.288 -0.1257  0.4716 -0.1763
  120OSM    H5S12668   2.093   0.458  10.314 -0.2494  0.6762 -0.2982
  120OSM    C6S12669   1.980   0.348  10.148 -0.5035  0.2791  0.1074
  120OSM    H6S12670   1.913   0.259  10.148  3.2764 -2.8759  1.8744
  120OSM    H6T12671   2.079   0.320  10.107 -1.1258 -3.7955  0.9208
  120OSM    C7S12672   1.930   0.460  10.063  0.1083  0.3128  0.4229
  120OSM    H7S12673   1.994   0.550  10.054  1.9466 -0.8834  1.0359
  120OSM    H7T12674   1.833   0.506  10.095 -0.0517 -1.5801  2.9850
  120OSM    C8S12675   1.921   0.426   9.910  0.0360  0.2038 -0.0516
  120OSM    H8S12676   1.858   0.334   9.918  0.0043  0.3630  4.5912
  120OSM    H8T12677   2.019   0.410   9.861  0.2845  0.5296  0.3279
  120OSM    C9S12678   1.856   0.542   9.825  0.4337  1.1508  0.4316
  120OSM    H9S12679   1.909   0.640   9.828  0.5203  1.2355 -1.9288
  120OSM    H9T12680   1.753   0.566   9.858  0.0864  0.3052 -0.0236
  120OSM   C10S12681   1.848   0.494   9.672 -1.1696 -0.0891  0.2192
  120OSM   H10S12682   1.818   0.387   9.675  0.3144 -0.5333  0.2935
  120OSM   H10T12683   1.951   0.490   9.630 -0.3625 -0.5127  2.1348
  120OSM   C11S12684   1.758   0.588   9.594 -0.5873 -0.4219  0.3472
  120OSM   H11S12685   1.806   0.688   9.595 -0.1596 -0.6265  0.3895
  120OSM   H11T12686   1.659   0.601   9.645 -0.6848 -0.0195  0.0564
  120OSM   C12S12687   1.742   0.559   9.448 -0.4569 -0.2495  0.7556
  120OSM   H12S12688   1.690   0.645   9.402  2.2877  0.6208 -0.9444
  120OSM   H12T12689   1.686   0.467   9.422  0.0329 -0.0571 -1.1242
  120OSM   C13S12690   1.880   0.550   9.376 -0.3530  0.2451 -0.7092
  120OSM   H13S12691   1.941   0.463   9.408 -0.4733 -0.0051 -1.1527
  120OSM   H13T12692   1.937   0.643   9.397 -0.2418  0.2840 -1.1654
  120OSM   C14S12693   1.871   0.542   9.223  0.1954 -0.8355 -0.2631
  120OSM   H14S12694   1.793   0.467   9.197  1.1084 -2.3311  1.1550
  120OSM   H14T12695   1.965   0.510   9.173  1.5191 -0.8740  2.0642
  120OSM   C15S12696   1.839   0.677   9.156 -0.0606  0.5785 -0.1927
  120OSM   H15S12697   1.925   0.747   9.165  1.0303 -0.9181  1.8009
  120OSM   H15T12698   1.745   0.722   9.194 -0.9746  1.4165 -3.2219
  120OSM   C16S12699   1.807   0.648   9.007  0.0215  0.6278  0.6539
  120OSM   H16S12700   1.732   0.567   9.002 -0.4241  1.0845 -0.1851
  120OSM   H16T12701   1.899   0.629   8.948  0.3133  1.3543  0.8678
  120OSM   C17S12702   1.732   0.759   8.927  0.0460  0.6275 -0.0960
  120OSM   H17S12703   1.740   0.737   8.818  3.1450  0.1405  0.1328
  120OSM   H17T12704   1.791   0.851   8.949 -0.2833  1.8163 -3.5150
  120OSM   C18S12705   1.589   0.776   8.967  0.0895  0.0437  0.2353
  120OSM   H18S12706   1.591   0.778   9.078  1.3987  1.3768  0.2253
  120OSM   H18T12707   1.523   0.696   8.928  0.1103  0.2351 -0.2090
  120OSM   H18U12708   1.547   0.875   8.938 -1.1899 -0.5303  0.0573
  120OSM    C1F12709   1.650   0.666  10.506  0.3111  0.1063  0.3729
  120OSM     OF12710   1.685   0.764  10.575  0.7633 -0.4565  0.4013
  120OSM    C2F12711   1.519   0.660  10.440  0.2110 -0.6730  0.2335
  120OSM    H2F12712   1.454   0.744  10.471  2.0617  2.1598 -2.8893
  120OSM    H2G12713   1.469   0.569  10.479 -2.4966  0.8428  0.5040
  120OSM    C3F12714   1.524   0.639  10.286 -0.0433  0.0312 -0.0028
  120OSM    H3F12715   1.426   0.591  10.264  0.4654 -0.5293 -1.1287
  120OSM    H3G12716   1.597   0.564  10.251 -0.5930 -0.5040 -0.0178
  120OSM    C4F12717   1.521   0.765  10.193 -0.1156  0.7962 -0.0254
  120OSM    H4F12718   1.601   0.834  10.228  0.9974 -1.0906  1.4100
  120OSM    H4G12719   1.423   0.815  10.210  0.1385  0.9168  1.2151
  120OSM    C5F12720   1.520   0.726  10.046 -0.5548  0.2983 -0.0932
  120OSM    H5F12721   1.438   0.652  10.033  0.1422 -0.3158 -1.1223
  120OSM    H5G12722   1.611   0.666  10.026 -0.5446 -0.0749  1.0092
  120OSM    C6F12723   1.501   0.846   9.950 -0.5553  0.7939  0.3240
  120OSM    H6F12724   1.596   0.897   9.924 -1.0533  1.2212 -0.7241
  120OSM    H6G12725   1.429   0.916   9.999 -1.6739 -0.4267  0.5046
  120OSM    C7F12726   1.436   0.800   9.819  0.2291  0.1832  0.0546
  120OSM    H7F12727   1.343   0.741   9.834  0.4488 -0.3086 -0.4922
  120OSM    H7G12728   1.502   0.735   9.759 -2.3329 -2.4614 -0.0931
  120OSM    C8F12729   1.405   0.922   9.727  0.4505 -0.4982  0.0541
  120OSM    H8F12730   1.502   0.968   9.700  0.4437 -0.2622  0.4413
  120OSM    H8G12731   1.350   0.993   9.792 -0.6338 -1.2878  0.0453
  120OSM    C9F12732   1.335   0.897   9.590  0.2096 -1.4490 -0.1079
  120OSM    H9F12733   1.228   0.870   9.598 -0.4932  1.1593  0.2934
  120OSM   C10F12734   1.382   0.912   9.470 -0.4888  0.2503  0.4918
  120OSM   H10F12735   1.317   0.888   9.385  1.7372  2.5274 -2.0396
  120OSM   C11F12736   1.521   0.950   9.428 -0.9259  0.3498  0.1999
  120OSM   H11F12737   1.564   0.858   9.382 -0.3064  1.2473 -1.0866
  120OSM   H11G12738   1.580   0.980   9.517 -0.6986  2.3607 -0.5794
  120OSM   C12F12739   1.532   1.078   9.335 -0.1152  0.1804 -1.0400
  120OSM   H12F12740   1.639   1.107   9.339 -0.4043  1.1582  1.2549
  120OSM   H12G12741   1.480   1.166   9.379  0.4718  1.1421 -2.2285
  120OSM   C13F12742   1.488   1.059   9.192  0.0752 -0.5358  0.2710
  120OSM   H13F12743   1.377   1.067   9.188  0.1151  0.1736  0.5117
  120OSM   H13G12744   1.516   0.956   9.158 -1.7934 -0.9872 -0.0057
  120OSM   C14F12745   1.549   1.164   9.097  0.0873 -0.4027 -0.0351
  120OSM   H14F12746   1.660   1.168   9.101  0.0260  1.5796  2.9617
  120OSM   H14G12747   1.512   1.259   9.141  1.0228 -0.7460  1.5683
  120OSM   C15F12748   1.499   1.140   8.956 -0.2956  0.3866 -0.4965
  120OSM   H15F12749   1.403   1.084   8.949 -1.1245  1.7861 -0.7274
  120OSM   H15G12750   1.581   1.092   8.899 -2.5291  0.2011 -3.8553
  120OSM   C16F12751   1.467   1.265   8.878 -0.5907 -1.2070 -0.4253
  120OSM   H16F12752   1.542   1.346   8.890  0.5706 -2.3492  0.2425
  120OSM   H16G12753   1.373   1.301   8.925 -0.1744  0.1381 -0.5877
  120OSM   C17F12754   1.437   1.262   8.729  0.5051  0.3385 -0.1061
  120OSM   H17F12755   1.372   1.175   8.705  2.4517 -1.5840  1.2289
  120OSM   H17G12756   1.530   1.227   8.679  0.8371  0.0871  0.6752
  120OSM   C18F12757   1.375   1.390   8.680 -0.0052 -0.7588 -0.4355
  120OSM   H18F12758   1.359   1.368   8.572 -0.3032  0.2998 -0.6126
  120OSM   H18G12759   1.447   1.472   8.699 -2.6428  1.7291 -0.5417
  120OSM   H18H12760   1.278   1.416   8.726 -1.3675  0.1165 -3.5387
  121OSM      N12761   0.441   4.519  11.553  0.5873  0.2404  0.1484
  121OSM    C1512762   0.398   4.374  11.548  0.5146 -0.2384  0.0197
  121OSM   H15A12763   0.453   4.313  11.617 -0.2492 -1.4002 -0.3721
  121OSM   H15B12764   0.414   4.341  11.447 -2.8812 -2.2343  0.0061
  121OSM   H15C12765   0.293   4.368  11.571  0.3945 -0.5520 -0.5947
  121OSM    C1412766   0.379   4.581  11.671 -0.1051  0.4257 -0.0248
  121OSM   H14A12767   0.432   4.667  11.710  1.0260  0.5381 -1.7565
  121OSM   H14B12768   0.388   4.514  11.756  0.3480 -0.4424 -0.7432
  121OSM   H14C12769   0.273   4.589  11.649  0.3112  1.4066 -1.8451
  121OSM    C1312770   0.588   4.525  11.569  0.3161  0.3309 -0.5017
  121OSM   H13A12771   0.632   4.467  11.489 -1.7549  1.0131 -2.2217
  121OSM   H13B12772   0.620   4.474  11.659 -1.4982 -1.2677 -0.7008
  121OSM   H13C12773   0.627   4.626  11.566  1.0713  0.0296 -0.9357
  121OSM    C1212774   0.402   4.596  11.431  0.3907 -0.7368  0.6653
  121OSM   H12A12775   0.449   4.693  11.434 -2.8640  1.0432 -0.0869
  121OSM   H12B12776   0.298   4.628  11.434 -0.0880 -1.7394 -2.2411
  121OSM    C1112777   0.428   4.533  11.291  0.4324 -0.5752  0.5453
  121OSM   H11A12778   0.529   4.487  11.289  0.5664 -0.3526 -2.0958
  121OSM   H11B12779   0.440   4.608  11.210  3.5235 -0.9687  0.5062
  121OSM      P12780   0.186   4.477  11.221  0.0521 -0.4375 -0.2417
  121OSM    O1312781   0.094   4.379  11.275  0.4209 -0.0111 -0.2687
  121OSM    O1412782   0.155   4.617  11.257 -0.2059  0.3207 -0.2748
  121OSM    O1112783   0.192   4.465  11.060  0.7114 -0.7463 -0.0293
  121OSM    O1212784   0.327   4.435  11.267  0.4202  0.4136  0.1071
  121OSM    C1S12785   0.299   4.392  11.009 -0.5966  1.0987 -0.4159
  121OSM    H1S12786   0.284   4.285  11.035 -1.2984  0.7552 -2.1196
  121OSM    H1T12787   0.400   4.424  11.044 -0.5839  0.9466 -0.3082
  121OSM     NF12788   0.397   4.292  10.801 -0.0492  0.1312 -0.5392
  121OSM    HNF12789   0.486   4.316  10.763  0.4498  1.5421  1.3739
  121OSM    C2S12790   0.306   4.400  10.853 -0.2435 -0.2553  0.5402
  121OSM    H2S12791   0.208   4.383  10.805 -0.3932 -0.4769  0.9230
  121OSM    C3S12792   0.343   4.547  10.815 -0.0758  1.0812 -0.1664
  121OSM    H3S12793   0.445   4.559  10.857 -0.3746  1.2036  0.5418
  121OSM     O312794   0.258   4.647  10.880  0.0629  0.1620  0.4796
  121OSM    HO312795   0.237   4.607  10.965 -2.3718 -1.0940 -0.5970
  121OSM    C4S12796   0.346   4.561  10.667 -0.1539  0.5634 -0.7198
  121OSM    H4S12797   0.448   4.549  10.627 -0.1739 -2.3284 -0.0463
  121OSM    C5S12798   0.236   4.584  10.591 -0.3715  0.0290  0.3491
  121OSM    H5S12799   0.133   4.591  10.631 -1.4868  1.7097 -2.5265
  121OSM    C6S12800   0.231   4.597  10.438 -0.6291 -0.1576  0.7004
  121OSM    H6S12801   0.210   4.705  10.423 -0.2186  0.0863  1.7669
  121OSM    H6T12802   0.148   4.540  10.391 -0.9117  0.1025  0.8799
  121OSM    C7S12803   0.346   4.553  10.349 -0.0764 -0.1912 -0.0982
  121OSM    H7S12804   0.442   4.595  10.387 -2.4908  3.1670  2.8824
  121OSM    H7T12805   0.325   4.605  10.253 -1.7531  0.1703  0.4390
  121OSM    C8S12806   0.350   4.401  10.332  0.2159 -0.4230 -0.6914
  121OSM    H8S12807   0.247   4.368  10.306 -1.2795  0.1004  3.7083
  121OSM    H8T12808   0.363   4.349  10.430  0.6076 -1.6861 -1.3906
  121OSM    C9S12809   0.470   4.345  10.244  0.5136 -0.5588  0.3361
  121OSM    H9S12810   0.465   4.235  10.229 -3.7825 -0.5449  0.4165
  121OSM    H9T12811   0.563   4.368  10.299 -0.5938  2.1245  1.2125
  121OSM   C10S12812   0.482   4.419  10.106  0.1827 -0.4234 -0.5420
  121OSM   H10S12813   0.486   4.529  10.116  1.3519 -0.0560 -3.7500
  121OSM   H10T12814   0.391   4.402  10.044  0.9991 -0.6401 -1.7101
  121OSM   C11S12815   0.600   4.370  10.024 -0.2862 -0.4789 -0.7686
  121OSM   H11S12816   0.587   4.260  10.022 -2.1633 -0.3150  0.3298
  121OSM   H11T12817   0.696   4.391  10.077  0.4723  0.2450 -2.3286
  121OSM   C12S12818   0.606   4.438   9.889 -0.2496  0.2487 -0.2812
  121OSM   H12S12819   0.607   4.547   9.912  2.3680  0.5902 -1.6251
  121OSM   H12T12820   0.523   4.412   9.820  0.0917 -2.3145  0.1858
  121OSM   C13S12821   0.732   4.413   9.806 -0.7167  0.0549  0.1127
  121OSM   H13S12822   0.753   4.305   9.791  1.0678  0.2913  0.6551
  121OSM   H13T12823   0.829   4.449   9.847  0.4977 -1.3419 -1.4097
  121OSM   C14S12824   0.707   4.455   9.657 -0.0489 -0.0101  0.4798
  121OSM   H14S12825   0.602   4.444   9.624 -0.3159  0.8484  1.0033
  121OSM   H14T12826   0.771   4.402   9.583 -0.7865 -3.1154  1.9055
  121OSM   C15S12827   0.748   4.605   9.636  0.4206  0.3447  0.6124
  121OSM   H15S12828   0.858   4.612   9.629  0.2473  1.4888 -3.2295
  121OSM   H15T12829   0.711   4.657   9.727 -1.8111  0.1805 -0.1272
  121OSM   C16S12830   0.686   4.666   9.506  0.2287  0.0671 -0.3805
  121OSM   H16S12831   0.578   4.637   9.505 -0.0072  0.9184 -0.4356
  121OSM   H16T12832   0.749   4.629   9.422 -1.1433 -3.1576 -0.1449
  121OSM   C17S12833   0.679   4.820   9.502 -0.1045 -0.3579  0.0804
  121OSM   H17S12834   0.726   4.868   9.591  0.4954 -1.8348  0.5980
  121OSM   H17T12835   0.571   4.842   9.500 -0.2170 -0.9500 -1.1485
  121OSM   C18S12836   0.759   4.889   9.386  0.8390  0.1869 -0.0930
  121OSM   H18S12837   0.868   4.868   9.399  0.7139 -1.6574 -1.5256
  121OSM   H18T12838   0.739   4.998   9.390 -2.1297 -0.3271  1.3561
  121OSM   H18U12839   0.741   4.842   9.287 -2.2146  0.1196  0.4133
  121OSM    C1F12840   0.366   4.166  10.829  0.7255  0.1024 -0.2501
  121OSM     OF12841   0.255   4.127  10.858  0.1091 -0.8197  0.2465
  121OSM    C2F12842   0.478   4.062  10.822 -0.1562  0.4030  0.7539
  121OSM    H2F12843   0.464   3.994  10.909  0.0605 -0.4229  0.1508
  121OSM    H2G12844   0.578   4.110  10.822  1.0567 -1.9379 -1.3662
  121OSM    C3F12845   0.454   3.976  10.693  1.2675 -0.1931 -0.2162
  121OSM    H3F12846   0.438   4.041  10.605 -0.1036 -0.8885 -0.5100
  121OSM    H3G12847   0.348   3.942  10.700  0.7836  1.5002  2.7773
  121OSM    C4F12848   0.557   3.869  10.663  0.0156 -0.5544 -0.4155
  121OSM    H4F12849   0.515   3.799  10.588  0.1841 -0.2531 -0.7881
  121OSM    H4G12850   0.580   3.816  10.759 -1.0068 -1.9038 -0.8841
  121OSM    C5F12851   0.692   3.922  10.614  0.6318  0.5401 -0.6073
  121OSM    H5F12852   0.755   3.832  10.597 -0.6334 -0.4230 -0.3228
  121OSM    H5G12853   0.744   3.984  10.690 -1.0264 -2.1682  3.0153
  121OSM    C6F12854   0.683   3.995  10.482 -0.8826  0.3931 -0.1343
  121OSM    H6F12855   0.617   4.082  10.503  0.3913  1.0122  1.5026
  121OSM    H6G12856   0.644   3.930  10.400  1.8830  0.0184 -1.2614
  121OSM    C7F12857   0.811   4.063  10.425  0.0078 -0.0145 -0.2928
  121OSM    H7F12858   0.865   3.972  10.390  0.1226 -0.2845  0.5652
  121OSM    H7G12859   0.863   4.114  10.509 -0.0792 -0.0860 -0.1950
  121OSM    C8F12860   0.780   4.169  10.322 -0.1203  0.5971  0.6985
  121OSM    H8F12861   0.719   4.252  10.362  1.3684  1.9156  0.3390
  121OSM    H8G12862   0.727   4.119  10.238  1.3194 -1.6683  1.0515
  121OSM    C9F12863   0.913   4.205  10.262  0.9430  0.5715 -0.9876
  121OSM    H9F12864   0.972   4.278  10.319 -0.3696  1.6749 -1.0018
  121OSM   C10F12865   0.966   4.139  10.165 -0.4176 -0.4992  0.3616
  121OSM   H10F12866   1.061   4.176  10.122  0.7572 -2.4725  1.1384
  121OSM   C11F12867   0.911   4.021  10.090 -0.1491  0.8113  1.1788
  121OSM   H11F12868   0.829   3.975  10.149 -0.6460  0.6872  0.4017
  121OSM   H11G12869   0.992   3.945  10.091  0.8008  1.7601 -0.4292
  121OSM   C12F12870   0.868   4.056   9.949 -0.0181  0.7050  0.4137
  121OSM   H12F12871   0.821   4.157   9.944  0.2937  0.8686  0.7403
  121OSM   H12G12872   0.791   3.983   9.917  2.0170  0.6714 -6.0065
  121OSM   C13F12873   0.970   4.033   9.826  0.5374 -0.8634  0.1312
  121OSM   H13F12874   1.011   3.930   9.836  4.2254  0.4920  0.3201
  121OSM   H13G12875   1.042   4.116   9.838 -3.1812  2.8505 -1.0893
  121OSM   C14F12876   0.912   4.036   9.684 -0.4180 -0.0588 -0.3775
  121OSM   H14F12877   0.900   4.143   9.658  0.3927  0.5395  1.5053
  121OSM   H14G12878   0.810   3.993   9.694  0.1842 -1.1653  1.5047
  121OSM   C15F12879   1.005   3.960   9.582  0.3575  0.0939  0.9299
  121OSM   H15F12880   1.027   3.866   9.637  1.5990 -1.0908 -1.4617
  121OSM   H15G12881   1.106   4.007   9.574  1.0883 -1.4767  0.5144
  121OSM   C16F12882   0.940   3.941   9.448  0.7056  0.4059  0.4652
  121OSM   H16F12883   0.920   4.048   9.425  2.5615  0.5712 -0.5010
  121OSM   H16G12884   0.854   3.872   9.465  1.3186 -0.4798  0.0129
  121OSM   C17F12885   1.028   3.869   9.347  0.0969  0.0313  0.1055
  121OSM   H17F12886   1.044   3.764   9.380  2.0328  1.2353  3.4904
  121OSM   H17G12887   1.133   3.906   9.340 -0.5281  1.5830 -4.9068
  121OSM   C18F12888   0.983   3.898   9.203 -0.1610 -0.2681  0.5368
  121OSM   H18F12889   0.984   4.005   9.172  2.2757 -1.0548 -2.6891
  121OSM   H18G12890   0.886   3.848   9.182 -0.2515 -0.0882  0.5221
  121OSM   H18H12891   1.054   3.853   9.130 -0.2338  0.9181 -0.3003
  122OSM      N12892   1.341   2.812  11.531 -0.1044  0.0263 -0.2197
  122OSM    C1512893   1.209   2.852  11.484  0.3692  0.0169  0.1327
  122OSM   H15A12894   1.211   2.852  11.376  0.7195 -0.5838  0.1312
  122OSM   H15B12895   1.182   2.943  11.534 -2.3867 -1.2749  1.2095
  122OSM   H15C12896   1.142   2.773  11.516 -0.0051  0.6364  0.8886
  122OSM    C1412897   1.433   2.918  11.488  0.0833  0.1805  0.5872
  122OSM   H14A12898   1.437   3.012  11.541  2.5530  1.2266 -1.2565
  122OSM   H14B12899   1.414   2.944  11.385 -2.1679 -0.9937  0.6467
  122OSM   H14C12900   1.529   2.868  11.488 -0.0577 -0.1260 -0.7328
  122OSM    C1312901   1.347   2.801  11.684  0.4668 -0.3321  0.2141
  122OSM   H13A12902   1.444   2.788  11.729  0.3879 -2.4748 -0.1705
  122OSM   H13B12903   1.291   2.716  11.719  0.5777 -0.8420 -0.8267
  122OSM   H13C12904   1.307   2.894  11.723  1.9010  0.0709  0.8042
  122OSM    C1212905   1.394   2.684  11.472  0.3963 -0.8412  0.9322
  122OSM   H12A12906   1.326   2.606  11.504 -0.9763 -0.6265 -1.2749
  122OSM   H12B12907   1.493   2.663  11.511  1.0019 -1.6366 -0.9331
  122OSM    C1112908   1.424   2.664  11.316 -0.0680 -0.0584 -0.1878
  122OSM   H11A12909   1.469   2.562  11.312 -0.3884 -0.5782  4.2215
  122OSM   H11B12910   1.506   2.729  11.280  0.4870 -0.1679  0.8207
  122OSM      P12911   1.254   2.775  11.135  0.1146  0.4480 -0.2782
  122OSM    O1312912   1.126   2.728  11.091  0.6094  0.3124  0.0946
  122OSM    O1412913   1.267   2.909  11.190 -0.3513 -0.3009  0.4834
  122OSM    O1112914   1.359   2.754  11.016  0.7195  0.0693 -0.3257
  122OSM    O1212915   1.304   2.669  11.241  0.1005 -0.0935 -0.1004
  122OSM    C1S12916   1.378   2.623  10.966  0.2751  0.0841 -0.4576
  122OSM    H1S12917   1.283   2.564  10.965  0.4689 -0.2276 -0.5480
  122OSM    H1T12918   1.463   2.565  11.008 -1.6544 -2.2974  0.4532
  122OSM     NF12919   1.391   2.507  10.748 -0.6032 -0.9293  0.0597
  122OSM    HNF12920   1.467   2.442  10.741 -1.1524 -1.6427  0.5276
  122OSM    C2S12921   1.417   2.633  10.816  0.7167 -0.0277  0.5422
  122OSM    H2S12922   1.336   2.697  10.774 -2.8629 -2.1038  3.6124
  122OSM    C3S12923   1.555   2.702  10.804  0.8391  0.5439  0.4858
  122OSM    H3S12924   1.629   2.647  10.867 -3.3180 -2.2318  3.5269
  122OSM     O312925   1.565   2.826  10.870 -0.3528  0.1885  0.0395
  122OSM    HO312926   1.507   2.815  10.945 -1.6727 -3.8010 -1.2997
  122OSM    C4S12927   1.588   2.723  10.659 -0.6770 -0.3071  0.0041
  122OSM    H4S12928   1.507   2.764  10.597  0.5668 -0.5354 -1.8529
  122OSM    C5S12929   1.711   2.719  10.609  0.7575  0.6084  0.0022
  122OSM    H5S12930   1.791   2.683  10.675  1.2939  1.8548  0.0566
  122OSM    C6S12931   1.742   2.743  10.466 -0.5908 -0.1777  0.5003
  122OSM    H6S12932   1.791   2.655  10.418 -0.3112  0.8407 -1.1436
  122OSM    H6T12933   1.818   2.824  10.467 -1.2584  0.4808  2.4811
  122OSM    C7S12934   1.634   2.803  10.370 -0.0642 -0.9278 -0.8946
  122OSM    H7S12935   1.607   2.900  10.417 -0.1414 -1.3881  0.0377
  122OSM    H7T12936   1.543   2.739  10.369 -1.3654  0.7564  1.1124
  122OSM    C8S12937   1.694   2.805  10.224  0.7350  0.2450 -1.1887
  122OSM    H8S12938   1.750   2.711  10.206 -0.7577 -1.0080  0.4160
  122OSM    H8T12939   1.769   2.885  10.206  0.2352  0.4045 -2.6975
  122OSM    C9S12940   1.582   2.824  10.120 -0.5005 -0.5450  0.1057
  122OSM    H9S12941   1.541   2.927  10.120  0.5247 -0.1271  0.0048
  122OSM    H9T12942   1.501   2.751  10.145  0.4664 -1.2242  1.3589
  122OSM   C10S12943   1.633   2.789   9.977  0.3283 -0.0279 -1.0143
  122OSM   H10S12944   1.674   2.687   9.994  0.2965 -0.0381 -0.9982
  122OSM   H10T12945   1.722   2.850   9.952  2.1220 -2.0704 -0.0198
  122OSM   C11S12946   1.513   2.781   9.875  0.0383 -0.5090 -0.5847
  122OSM   H11S12947   1.473   2.883   9.863  0.2061 -0.6260 -2.3766
  122OSM   H11T12948   1.433   2.718   9.921  0.7738 -0.7349  0.4369
  122OSM   C12S12949   1.547   2.738   9.733  0.0793 -0.5998  0.2407
  122OSM   H12S12950   1.585   2.633   9.736  0.1909 -0.5327  2.7280
  122OSM   H12T12951   1.629   2.799   9.690  1.6031 -0.7226  2.8085
  122OSM   C13S12952   1.427   2.753   9.647 -0.1954  0.3103 -0.4434
  122OSM   H13S12953   1.376   2.852   9.657 -2.4535 -0.6968 -1.3423
  122OSM   H13T12954   1.354   2.678   9.684  2.1699 -0.8715  2.1793
  122OSM   C14S12955   1.454   2.730   9.502  0.2989  0.3256  0.3856
  122OSM   H14S12956   1.489   2.626   9.481  0.7025  0.9894 -2.7701
  122OSM   H14T12957   1.542   2.790   9.472 -0.7044  0.8437 -1.7136
  122OSM   C15S12958   1.338   2.763   9.406 -0.2428 -0.1709 -0.2744
  122OSM   H15S12959   1.301   2.866   9.427 -2.5034 -1.0266  0.2326
  122OSM   H15T12960   1.253   2.695   9.430 -0.2709 -0.8274 -2.1278
  122OSM   C16S12961   1.377   2.740   9.259  0.1557  0.1033 -0.1026
  122OSM   H16S12962   1.416   2.636   9.250  0.5678  0.2355  0.1263
  122OSM   H16T12963   1.450   2.818   9.230 -1.8991  1.9806 -0.4760
  122OSM   C17S12964   1.251   2.740   9.176  0.8416  0.3286  0.2183
  122OSM   H17S12965   1.216   2.845   9.178  0.7004  0.3628 -1.7549
  122OSM   H17T12966   1.175   2.676   9.226 -0.3644  1.1431 -0.5388
  122OSM   C18S12967   1.274   2.697   9.035  0.0978  0.2315  0.1731
  122OSM   H18S12968   1.282   2.586   9.034  1.3498  0.2927  0.5906
  122OSM   H18T12969   1.368   2.740   8.995  0.0720 -0.4715 -0.6671
  122OSM   H18U12970   1.189   2.726   8.970 -0.0993 -0.8817 -0.0935
  122OSM    C1F12971   1.260   2.461  10.733 -0.6295  0.1442  0.3266
  122OSM     OF12972   1.166   2.533  10.757  0.2607  0.0046  0.4249
  122OSM    C2F12973   1.250   2.319  10.678 -0.4849  0.3425  0.3220
  122OSM    H2F12974   1.183   2.245  10.726 -0.1258 -0.5804 -0.5782
  122OSM    H2G12975   1.354   2.281  10.684 -0.5257  0.4888  3.4122
  122OSM    C3F12976   1.193   2.327  10.530 -0.0767  0.0570 -0.4723
  122OSM    H3F12977   1.263   2.394  10.476  0.5672  0.3228  0.6469
  122OSM    H3G12978   1.087   2.359  10.526 -0.8565 -2.0578  1.1721
  122OSM    C4F12979   1.203   2.190  10.451 -0.2811 -0.0491  0.4112
  122OSM    H4F12980   1.163   2.109  10.517 -0.7954  2.1844  3.0590
  122OSM    H4G12981   1.308   2.160  10.435 -0.5186  0.5058 -2.8444
  122OSM    C5F12982   1.139   2.208  10.314 -0.1738  0.6662  0.1349
  122OSM    H5F12983   1.177   2.299  10.262 -1.1323  0.4065 -1.0845
  122OSM    H5G12984   1.029   2.222  10.317 -0.4379 -1.2654  1.5549
  122OSM    C6F12985   1.177   2.092  10.215  0.0738  0.1007 -0.6712
  122OSM    H6F12986   1.148   1.992  10.255 -2.8515  2.1881  3.0614
  122OSM    H6G12987   1.284   2.086  10.185 -0.0786  1.4869 -1.5959
  122OSM    C7F12988   1.087   2.105  10.095  0.0241  0.6533  0.2113
  122OSM    H7F12989   1.108   2.200  10.041 -0.0764  0.8249  0.4774
  122OSM    H7G12990   0.978   2.106  10.114  0.1398  0.7910  0.8884
  122OSM    C8F12991   1.113   1.996   9.988 -0.7275  0.0475  0.3764
  122OSM    H8F12992   1.223   1.981   9.984 -0.7435 -0.1078  0.5261
  122OSM    H8G12993   1.086   2.040   9.889  2.9306  1.1546 -0.2740
  122OSM    C9F12994   1.049   1.868  10.034  0.0332 -0.3386  0.6673
  122OSM    H9F12995   1.072   1.856  10.141  1.3598  0.5272  0.4921
  122OSM   C10F12996   0.992   1.766   9.971  0.1227 -1.0309  0.1453
  122OSM   H10F12997   0.965   1.687  10.043  3.0871  0.9610  3.8100
  122OSM   C11F12998   0.968   1.756   9.820 -0.0470 -0.9706  0.1822
  122OSM   H11F12999   1.019   1.665   9.782  2.0015  0.1927 -0.0028
  122OSM   H11G13000   1.005   1.839   9.756  0.3054 -1.2170  0.0679
  122OSM   C12F13001   0.819   1.743   9.774 -0.6269 -0.3378 -0.4716
  122OSM   H12F13002   0.770   1.841   9.794 -1.7490 -1.2382  1.4348
  122OSM   H12G13003   0.766   1.675   9.843  2.0066  0.3738  2.4546
  122OSM   C13F13004   0.822   1.718   9.622 -0.2666 -0.4395 -0.6524
  122OSM   H13F13005   0.881   1.627   9.599 -0.6469 -1.1961  1.1638
  122OSM   H13G13006   0.864   1.811   9.579 -1.6648  1.7246  2.3105
  122OSM   C14F13007   0.683   1.702   9.557 -0.5463 -0.2401 -0.0455
  122OSM   H14F13008   0.616   1.640   9.622 -0.1478 -2.3358 -1.5515
  122OSM   H14G13009   0.679   1.644   9.463  0.8518 -1.6862  0.7396
  122OSM   C15F13010   0.612   1.836   9.543  0.4143 -0.1791  0.1464
  122OSM   H15F13011   0.628   1.886   9.641 -0.4404  0.6484 -0.1181
  122OSM   H15G13012   0.504   1.819   9.525 -0.0106  0.6278  1.6875
  122OSM   C16F13013   0.665   1.922   9.425 -0.0262  0.1257 -0.0369
  122OSM   H16F13014   0.659   1.879   9.323 -0.2655  0.8349 -0.3256
  122OSM   H16G13015   0.772   1.946   9.444 -1.0950  3.1192  3.2528
  122OSM   C17F13016   0.603   2.057   9.421  0.3404 -0.8515 -0.5262
  122OSM   H17F13017   0.622   2.105   9.520 -1.1257 -2.2111  0.4479
  122OSM   H17G13018   0.492   2.053   9.416  0.0414  0.9915  2.1981
  122OSM   C18F13019   0.651   2.147   9.301  0.2837  0.1586 -0.1687
  122OSM   H18F13020   0.761   2.134   9.302  0.1842 -0.7925  1.6050
  122OSM   H18G13021   0.627   2.254   9.321  1.0689  0.5822 -1.3272
  122OSM   H18H13022   0.599   2.119   9.207 -0.5089  2.6385 -0.5476
  123OSM      N13023   1.344   6.464   5.717 -0.2586  0.1121  0.3226
  123OSM    C1513024   1.379   6.315   5.719 -0.8352 -0.0596  0.2016
  123OSM   H15A13025   1.384   6.268   5.816  0.1567  0.9505  0.6595
  123OSM   H15B13026   1.472   6.291   5.669 -0.3258  1.6244  0.2870
  123OSM   H15C13027   1.311   6.255   5.660 -0.0307 -0.3328 -0.4821
  123OSM    C1413028   1.349   6.530   5.578 -0.3911  0.2902 -0.2146
  123OSM   H14A13029   1.270   6.489   5.517  0.0612 -0.4326 -0.3279
  123OSM   H14B13030   1.447   6.512   5.536 -1.0465 -0.4134 -1.5146
  123OSM   H14C13031   1.326   6.635   5.580 -1.3077  0.1295 -1.2313
  123OSM    C1313032   1.198   6.455   5.752  0.1073 -0.3045  0.3571
  123OSM   H13A13033   1.152   6.392   5.677  2.8234 -1.1394 -0.7134
  123OSM   H13B13034   1.156   6.554   5.753  1.0367  0.1679 -1.7683
  123OSM   H13C13035   1.195   6.420   5.855  0.5212 -0.0734  0.4472
  123OSM    C1213036   1.413   6.553   5.817  0.4343 -0.2781  0.4906
  123OSM   H12A13037   1.377   6.653   5.803 -0.8537 -0.9957 -1.9891
  123OSM   H12B13038   1.519   6.556   5.794  0.6081 -0.3210  1.2618
  123OSM    C1113039   1.392   6.520   5.964  0.2778 -0.0639  0.0697
  123OSM   H11A13040   1.470   6.563   6.030 -0.1165  0.6151  0.0944
  123OSM   H11B13041   1.422   6.413   5.961  0.8657  0.1101 -1.3024
  123OSM      P13042   1.214   6.696   6.033  0.0226  0.0771  0.4425
  123OSM    O1313043   1.292   6.794   5.951  0.0774  0.3152  0.7009
  123OSM    O1413044   1.069   6.695   6.005  0.6625  0.0193  0.0917
  123OSM    O1113045   1.244   6.716   6.190  0.2418 -0.2473  0.0588
  123OSM    O1213046   1.259   6.548   6.010 -0.3800  0.0206  0.6464
  123OSM    C1S13047   1.265   6.618   6.288 -0.7627  0.0341 -0.2511
  123OSM    H1S13048   1.345   6.553   6.247 -0.6429  0.9901 -1.6003
  123OSM    H1T13049   1.169   6.564   6.305 -0.7871  0.0592 -0.3096
  123OSM     NF13050   1.293   6.571   6.546  0.3022  0.2633 -0.7552
  123OSM    HNF13051   1.221   6.585   6.613 -0.3683  0.8544 -1.5816
  123OSM    C2S13052   1.294   6.673   6.436 -0.9510  0.1567  0.5403
  123OSM    H2S13053   1.397   6.715   6.430 -0.6026 -0.8932 -1.3482
  123OSM    C3S13054   1.196   6.791   6.463 -1.3545  0.0247  0.6103
  123OSM    H3S13055   1.094   6.749   6.448  0.3084 -5.2891  1.7381
  123OSM     O313056   1.216   6.901   6.374  0.4497 -0.3211  0.0677
  123OSM    HO313057   1.234   6.854   6.292 -0.4432 -1.0123  0.2475
  123OSM    C4S13058   1.212   6.840   6.606 -0.3624  0.7307 -0.0901
  123OSM    H4S13059   1.312   6.869   6.643 -0.1864 -2.0527  1.9210
  123OSM    C5S13060   1.111   6.859   6.696 -0.5241 -0.4471 -0.5899
  123OSM    H5S13061   1.007   6.843   6.662 -0.2384 -0.8378 -1.3115
  123OSM    C6S13062   1.146   6.928   6.826  0.3450  1.6610  0.0464
  123OSM    H6S13063   1.062   6.993   6.857 -0.5936  0.9165 -0.8287
  123OSM    H6T13064   1.239   6.988   6.826  3.0007 -2.0447  2.0058
  123OSM    C7S13065   1.170   6.815   6.929 -0.7613 -0.5529 -0.5453
  123OSM    H7S13066   1.262   6.768   6.890  0.1238  2.0166 -1.7645
  123OSM    H7T13067   1.088   6.741   6.929 -0.5469 -0.7973 -1.3065
  123OSM    C8S13068   1.193   6.874   7.076 -0.2005  0.3924  0.2878
  123OSM    H8S13069   1.113   6.946   7.106 -0.7017 -0.9605  2.4353
  123OSM    H8T13070   1.290   6.927   7.074  0.3386 -0.5541  0.7479
  123OSM    C9S13071   1.206   6.761   7.186 -0.4073  0.0395 -0.1655
  123OSM    H9S13072   1.306   6.714   7.169  0.2234  1.4051 -0.3917
  123OSM    H9T13073   1.133   6.679   7.168  1.1657 -1.2753 -0.8072
  123OSM   C10S13074   1.205   6.822   7.322  0.3203 -0.3394  0.0896
  123OSM   H10S13075   1.098   6.848   7.333  0.3937  0.1253 -0.2813
  123OSM   H10T13076   1.274   6.910   7.323  0.6389 -0.5826  0.8211
  123OSM   C11S13077   1.229   6.719   7.441 -0.4615 -0.1735 -0.0333
  123OSM   H11S13078   1.320   6.660   7.416 -0.5601 -1.6037  2.6473
  123OSM   H11T13079   1.146   6.646   7.444 -0.3776 -0.2343  0.8634
  123OSM   C12S13080   1.255   6.796   7.571 -0.5428 -0.2896 -0.0617
  123OSM   H12S13081   1.175   6.866   7.604 -0.2925 -0.4422  0.8945
  123OSM   H12T13082   1.354   6.848   7.569 -0.6480 -0.0978 -1.4788
  123OSM   C13S13083   1.263   6.694   7.680 -0.8021 -0.0509  0.2679
  123OSM   H13S13084   1.352   6.628   7.672 -0.8641 -0.0440 -0.5738
  123OSM   H13T13085   1.168   6.636   7.673  0.2439 -1.6832 -1.0457
  123OSM   C14S13086   1.285   6.746   7.822  0.5522  0.5283  0.3255
  123OSM   H14S13087   1.209   6.823   7.848 -0.0133 -0.0892  0.5469
  123OSM   H14T13088   1.383   6.798   7.828  0.0575  1.3619  1.5511
  123OSM   C15S13089   1.273   6.631   7.922  0.9280 -0.1221 -0.3264
  123OSM   H15S13090   1.341   6.544   7.907  1.4880 -0.0589  1.5324
  123OSM   H15T13091   1.167   6.598   7.913 -0.8095  4.3296  1.2191
  123OSM   C16S13092   1.289   6.687   8.065  0.0649  0.0365  0.2513
  123OSM   H16S13093   1.206   6.755   8.094 -1.6231 -2.0723  0.5978
  123OSM   H16T13094   1.383   6.745   8.078 -1.3970  2.7704 -0.6225
  123OSM   C17S13095   1.283   6.580   8.177 -0.1210  0.1737  0.0889
  123OSM   H17S13096   1.360   6.501   8.168 -0.0294  0.3477 -0.6526
  123OSM   H17T13097   1.187   6.524   8.175 -0.0671 -0.0519  1.7258
  123OSM   C18S13098   1.288   6.643   8.309  0.3596  0.2741  0.1442
  123OSM   H18S13099   1.370   6.717   8.310  1.9281 -1.3897 -0.6253
  123OSM   H18T13100   1.322   6.565   8.381  1.2470  0.6689  0.1630
  123OSM   H18U13101   1.188   6.685   8.334 -0.2869 -0.5615 -0.9338
  123OSM    C1F13102   1.370   6.458   6.561 -0.2088  0.0682  0.0089
  123OSM     OF13103   1.465   6.432   6.485  0.5119 -0.3421  0.0265
  123OSM    C2F13104   1.328   6.365   6.672  0.4276  0.0598  0.8947
  123OSM    H2F13105   1.282   6.275   6.627  1.5073  0.5001 -1.1969
  123OSM    H2G13106   1.247   6.417   6.728  0.3961  1.8859 -0.7115
  123OSM    C3F13107   1.448   6.319   6.764 -0.4702  0.0765  0.1375
  123OSM    H3F13108   1.526   6.273   6.700  0.0854  3.4128 -1.8262
  123OSM    H3G13109   1.415   6.239   6.833  0.6868 -0.2460  0.3285
  123OSM    C4F13110   1.518   6.433   6.848  0.0866 -0.4674  0.0764
  123OSM    H4F13111   1.570   6.506   6.782 -0.8735 -0.3380 -0.5588
  123OSM    H4G13112   1.592   6.396   6.921  0.1431  0.1475  0.3395
  123OSM    C5F13113   1.410   6.514   6.928 -0.0998  0.1186 -0.4544
  123OSM    H5F13114   1.339   6.567   6.861  0.6527  0.5278 -0.9332
  123OSM    H5G13115   1.460   6.590   6.992  1.8891  0.5412 -2.4075
  123OSM    C6F13116   1.330   6.428   7.029 -0.3942 -0.1239  0.0387
  123OSM    H6F13117   1.253   6.362   6.984 -0.0085 -0.6496  0.1316
  123OSM    H6G13118   1.264   6.496   7.086  0.0019  0.4720 -0.2055
  123OSM    C7F13119   1.416   6.345   7.122 -0.4332  0.4136  0.2231
  123OSM    H7F13120   1.494   6.414   7.162 -0.1968  0.8178 -0.9098
  123OSM    H7G13121   1.470   6.267   7.065 -1.0411  0.9406 -1.1197
  123OSM    C8F13122   1.344   6.280   7.239  0.1041  0.1718  0.3925
  123OSM    H8F13123   1.391   6.184   7.268 -3.0752 -1.4222  0.6837
  123OSM    H8G13124   1.249   6.235   7.201  0.0527 -1.6794  2.5039
  123OSM    C9F13125   1.323   6.376   7.352  0.2432 -0.1934 -0.7339
  123OSM    H9F13126   1.270   6.468   7.322 -1.6592 -0.6943  0.8971
  123OSM   C10F13127   1.349   6.355   7.484 -0.3860 -0.1910 -0.1487
  123OSM   H10F13128   1.328   6.436   7.555  0.5404 -0.6551  0.6853
  123OSM   C11F13129   1.411   6.223   7.536  0.5610  0.6892 -0.0825
  123OSM   H11F13130   1.496   6.260   7.598  0.0569  2.4768 -0.4111
  123OSM   H11G13131   1.441   6.160   7.450  1.0285  0.5455  0.1804
  123OSM   C12F13132   1.325   6.136   7.628 -0.4754 -0.2159  0.1521
  123OSM   H12F13133   1.353   6.031   7.601 -0.5922 -0.2036 -0.0148
  123OSM   H12G13134   1.217   6.140   7.603 -0.5904 -1.3427  0.3857
  123OSM   C13F13135   1.325   6.161   7.782  0.6421 -0.0425 -0.8952
  123OSM   H13F13136   1.306   6.267   7.811  1.1378 -0.4712  1.1665
  123OSM   H13G13137   1.434   6.156   7.802  0.6980  0.1102 -1.1544
  123OSM   C14F13138   1.212   6.078   7.842 -0.1990 -0.4232  0.3467
  123OSM   H14F13139   1.209   5.972   7.807  0.7864 -0.5692  0.6613
  123OSM   H14G13140   1.121   6.128   7.803  1.9332  1.9010 -2.0969
  123OSM   C15F13141   1.227   6.081   7.991 -0.3376 -0.1242  0.4152
  123OSM   H15F13142   1.221   6.182   8.036  2.7262 -0.1520  1.0890
  123OSM   H15G13143   1.336   6.059   8.002 -0.2962  0.2326  0.7339
  123OSM   C16F13144   1.140   5.988   8.071 -0.2354 -0.7228 -0.5088
  123OSM   H16F13145   1.161   5.883   8.040  0.0849 -0.1578 -2.2863
  123OSM   H16G13146   1.036   6.016   8.042 -1.5905 -1.6810  2.8733
  123OSM   C17F13147   1.153   5.995   8.222 -0.8756 -0.3087 -1.1903
  123OSM   H17F13148   1.176   6.096   8.261  0.0832 -0.6443 -0.8587
  123OSM   H17G13149   1.240   5.928   8.239 -0.0079  1.1453  0.4449
  123OSM   C18F13150   1.031   5.939   8.304 -0.7441  0.8227  0.0009
  123OSM   H18F13151   1.012   5.835   8.272 -0.2134  0.4828  0.7586
  123OSM   H18G13152   0.940   5.998   8.281 -1.2027 -0.0897 -0.6116
  123OSM   H18H13153   1.047   5.955   8.413 -0.1009  0.0103  0.0311
  124OSM      N13154   4.123   4.295   6.474  0.5752 -0.1231  0.1199
  124OSM    C1513155   4.172   4.437   6.496  0.0132  0.1967 -0.2422
  124OSM   H15A13156   4.092   4.509   6.499 -1.7317 -1.6431 -0.6799
  124OSM   H15B13157   4.246   4.463   6.421  1.1250  1.7973  1.3186
  124OSM   H15C13158   4.238   4.447   6.581  0.5440  1.7186 -0.8008
  124OSM    C1413159   4.044   4.262   6.601 -0.1366 -0.0166 -0.6868
  124OSM   H14A13160   4.110   4.277   6.685  0.8599  0.0731 -1.4585
  124OSM   H14B13161   4.016   4.158   6.596 -0.6049  0.1661 -2.5131
  124OSM   H14C13162   3.960   4.328   6.615  0.7733  0.9396  0.4488
  124OSM    C1313163   4.029   4.290   6.359  0.2389  0.5635 -0.7330
  124OSM   H13A13164   4.081   4.320   6.269 -1.1245 -0.6967 -2.0052
  124OSM   H13B13165   3.963   4.374   6.374  0.1091  0.3319  0.0319
  124OSM   H13C13166   3.980   4.196   6.343  1.4270 -0.4883  1.3121
  124OSM    C1213167   4.227   4.183   6.456 -0.2707 -0.6020 -0.0601
  124OSM   H12A13168   4.171   4.091   6.452  2.1880 -2.1476 -1.0001
  124OSM   H12B13169   4.283   4.172   6.547 -2.3203 -1.5480  1.1555
  124OSM    C1113170   4.315   4.188   6.331 -0.0499  0.1101  0.1242
  124OSM   H11A13171   4.254   4.189   6.238  0.4930 -0.8935 -0.2432
  124OSM   H11B13172   4.363   4.089   6.325 -3.9596 -2.5392  4.8376
  124OSM      P13173   4.539   4.287   6.406 -0.0181 -0.2905  0.2914
  124OSM    O1313174   4.655   4.275   6.312 -0.5095 -0.0053 -0.0403
  124OSM    O1413175   4.536   4.404   6.504  0.1862  0.5275 -0.1766
  124OSM    O1113176   4.529   4.146   6.480  0.0713 -0.5457 -0.5344
  124OSM    O1213177   4.406   4.300   6.325 -0.2770  0.3301 -0.0153
  124OSM    C1S13178   4.645   4.078   6.518 -0.3879 -0.1627  0.3993
  124OSM    H1S13179   4.736   4.125   6.473 -0.0001 -1.0650  0.2129
  124OSM    H1T13180   4.656   3.969   6.499  0.6109 -0.2002  1.0872
  124OSM     NF13181   4.799   4.024   6.701  0.2231 -0.4459 -0.1723
  124OSM    HNF13182   4.802   3.928   6.726 -1.3137 -0.4833 -0.0342
  124OSM    C2S13183   4.670   4.087   6.673 -0.6171  0.1058  0.2808
  124OSM    H2S13184   4.672   4.193   6.706  1.2099 -0.0854  0.9255
  124OSM    C3S13185   4.550   4.011   6.722  0.0590  0.4988 -0.4854
  124OSM    H3S13186   4.546   3.908   6.680 -0.7768 -1.1623  3.3175
  124OSM     O313187   4.421   4.063   6.701  0.9216 -0.0989  0.1902
  124OSM    HO313188   4.442   4.120   6.627 -0.3973  0.1274 -0.0452
  124OSM    C4S13189   4.560   3.986   6.872 -0.1568 -0.1093 -0.3488
  124OSM    H4S13190   4.602   3.888   6.899 -0.1359 -0.8454 -2.8460
  124OSM    C5S13191   4.537   4.072   6.970 -0.7263 -0.4798 -0.2983
  124OSM    H5S13192   4.487   4.166   6.942  1.1421 -0.2072 -3.0330
  124OSM    C6S13193   4.564   4.035   7.117 -0.3308  0.2217  0.8365
  124OSM    H6S13194   4.466   4.015   7.166  0.0194  1.1064  1.9311
  124OSM    H6T13195   4.611   4.123   7.166 -1.3678  0.1831  1.9491
  124OSM    C7S13196   4.645   3.906   7.166  0.1464  0.0532 -0.1774
  124OSM    H7S13197   4.738   3.913   7.105  0.4468  1.0954  0.3637
  124OSM    H7T13198   4.611   3.809   7.126 -0.3427 -0.7230  2.0054
  124OSM    C8S13199   4.686   3.888   7.312 -0.2075  0.0001  0.2522
  124OSM    H8S13200   4.600   3.892   7.382  0.1739  0.3660  0.6989
  124OSM    H8T13201   4.748   3.978   7.330 -0.2651  0.2825 -0.8830
  124OSM    C9S13202   4.770   3.758   7.337  0.3772 -0.3502  0.2944
  124OSM    H9S13203   4.864   3.773   7.281  0.6893  1.0893  1.1473
  124OSM    H9T13204   4.719   3.665   7.305  0.1226 -0.8341  1.9790
  124OSM   C10S13205   4.806   3.730   7.490  0.2207 -0.3316  0.7614
  124OSM   H10S13206   4.714   3.690   7.537 -1.4516  0.7240 -1.4125
  124OSM   H10T13207   4.835   3.828   7.533 -4.1132  1.4186  0.2161
  124OSM   C11S13208   4.923   3.631   7.497 -0.3210  0.0397  0.4701
  124OSM   H11S13209   5.013   3.695   7.489 -0.2470  0.0682  1.3867
  124OSM   H11T13210   4.921   3.563   7.409 -0.8626  2.0521 -1.1410
  124OSM   C12S13211   4.931   3.545   7.618 -0.0365  0.2160 -0.0960
  124OSM   H12S13212   5.009   3.470   7.592 -0.2445 -0.1523  0.3395
  124OSM   H12T13213   4.835   3.489   7.615  0.6024 -0.9288 -2.5019
  124OSM   C13S13214   4.959   3.614   7.750 -0.0536  0.8064 -0.1525
  124OSM   H13S13215   4.920   3.718   7.742 -0.3262  0.7125 -0.0734
  124OSM   H13T13216   5.068   3.626   7.763  0.1314 -0.7456 -0.0712
  124OSM   C14S13217   4.901   3.525   7.869  0.0174  0.1243  0.5161
  124OSM   H14S13218   4.954   3.428   7.859 -1.4118 -0.6844  0.6207
  124OSM   H14T13219   4.794   3.518   7.843  0.1633  0.5145 -0.1935
  124OSM   C15S13220   4.925   3.580   8.013 -0.0771  0.2301 -0.9599
  124OSM   H15S13221   4.884   3.683   8.016  1.2505  0.8162  2.6090
  124OSM   H15T13222   5.035   3.585   8.030  0.2256 -2.5033 -1.6457
  124OSM   C16S13223   4.864   3.500   8.127 -0.0798 -0.4505  0.1193
  124OSM   H16S13224   4.891   3.393   8.109 -1.4988 -1.0174  1.1203
  124OSM   H16T13225   4.753   3.507   8.132 -0.0225 -0.1587  3.9273
  124OSM   C17S13226   4.926   3.529   8.270  1.1323  0.7920  0.4718
  124OSM   H17S13227   5.036   3.521   8.260  1.0912  2.0212 -1.2725
  124OSM   H17T13228   4.893   3.449   8.340  0.5859 -1.0639 -1.7977
  124OSM   C18S13229   4.889   3.666   8.329  0.3601 -0.5819 -0.2156
  124OSM   H18S13230   4.778   3.672   8.332  0.3985 -0.1835  1.1940
  124OSM   H18T13231   4.934   3.746   8.267  2.2810 -0.6011  1.0572
  124OSM   H18U13232   4.929   3.667   8.433  1.0515  0.3016 -0.4742
  124OSM    C1F13233   4.911   4.090   6.675 -0.6338 -0.0535 -0.4787
  124OSM     OF13234   4.908   4.198   6.620  0.1250 -0.2284  0.0842
  124OSM    C2F13235   5.043   4.021   6.716  0.4145  0.3511  0.4156
  124OSM    H2F13236   5.123   4.097   6.710  0.1709  1.0687  4.1518
  124OSM    H2G13237   5.046   3.929   6.654  0.6493  0.2103  0.6376
  124OSM    C3F13238   5.030   3.967   6.859  0.0026 -0.3800 -0.5526
  124OSM    H3F13239   4.958   3.882   6.862 -1.0662  0.5272  0.6268
  124OSM    H3G13240   4.988   4.048   6.923  2.3926  0.3752  0.1709
  124OSM    C4F13241   5.167   3.936   6.926 -0.5453  0.0735 -0.1991
  124OSM    H4F13242   5.251   3.980   6.868 -2.3098 -0.9313 -3.7715
  124OSM    H4G13243   5.178   3.826   6.922 -3.0731 -0.2194 -0.7930
  124OSM    C5F13244   5.175   3.990   7.064  0.0804 -0.5816  0.0015
  124OSM    H5F13245   5.134   4.093   7.069 -0.5967 -0.8318 -0.2632
  124OSM    H5G13246   5.279   3.988   7.104  0.2315  0.3467 -0.3249
  124OSM    C6F13247   5.086   3.910   7.167 -0.1069  0.5593  0.3104
  124OSM    H6F13248   5.132   3.813   7.194 -1.1706  0.6633  2.7947
  124OSM    H6G13249   4.983   3.895   7.129  0.1404 -0.4627  0.0220
  124OSM    C7F13250   5.077   3.986   7.301 -0.2222 -0.3761 -0.1191
  124OSM    H7F13251   4.992   3.940   7.355 -1.3838  0.5049 -1.1473
  124OSM    H7G13252   5.045   4.091   7.286 -1.5598 -0.4848  1.6349
  124OSM    C8F13253   5.209   3.976   7.380  0.6256  0.6198 -0.0726
  124OSM    H8F13254   5.195   4.050   7.461 -1.1965  0.2279  0.0208
  124OSM    H8G13255   5.298   4.007   7.321  0.9295  1.3816  0.7735
  124OSM    C9F13256   5.244   3.836   7.432  0.2646 -0.4004 -0.4855
  124OSM    H9F13257   5.269   3.761   7.356 -0.9060 -1.3597  0.0369
  124OSM   C10F13258   5.259   3.802   7.563 -0.3508 -0.5014 -0.3632
  124OSM   H10F13259   5.279   3.697   7.590  2.0317 -0.2949 -1.1590
  124OSM   C11F13260   5.246   3.882   7.689  0.4949  0.1234 -0.2215
  124OSM   H11F13261   5.144   3.856   7.723 -0.7074 -0.2814 -3.7212
  124OSM   H11G13262   5.258   3.991   7.671 -0.6794  0.2918 -0.0631
  124OSM   C12F13263   5.346   3.843   7.801  0.3201 -0.7534  0.1020
  124OSM   H12F13264   5.448   3.868   7.767  0.6686  2.1697  2.8115
  124OSM   H12G13265   5.352   3.736   7.829 -0.9195 -0.1447  3.0992
  124OSM   C13F13266   5.321   3.924   7.928 -0.2734  0.0524 -0.0175
  124OSM   H13F13267   5.238   3.878   7.986 -1.8786  0.8515 -1.5694
  124OSM   H13G13268   5.289   4.027   7.904  1.4493  0.5839 -0.1461
  124OSM   C14F13269   5.450   3.929   8.012  0.0868 -0.0006 -0.0688
  124OSM   H14F13270   5.525   3.989   7.955  0.8059  0.5013  1.3665
  124OSM   H14G13271   5.496   3.828   8.012  2.6947  0.9428 -4.1075
  124OSM   C15F13272   5.436   3.985   8.148  0.6675 -0.1495 -0.3686
  124OSM   H15F13273   5.345   4.048   8.155 -0.4163 -1.7753  0.7465
  124OSM   H15G13274   5.523   4.046   8.182  0.0727 -1.4919  4.1058
  124OSM   C16F13275   5.438   3.872   8.254  0.4832 -1.0349 -0.0143
  124OSM   H16F13276   5.440   3.921   8.354 -0.3279  0.8499 -0.8703
  124OSM   H16G13277   5.537   3.822   8.257  0.7666 -0.5136 -0.4687
  124OSM   C17F13278   5.335   3.763   8.233 -0.7066 -0.5220  0.2519
  124OSM   H17F13279   5.375   3.703   8.149  0.4318  0.5688 -0.0091
  124OSM   H17G13280   5.246   3.820   8.198 -0.5330 -0.6982 -0.4975
  124OSM   C18F13281   5.322   3.680   8.358 -0.3950 -0.4939 -0.3999
  124OSM   H18F13282   5.414   3.625   8.384 -0.3821  0.2743  1.3021
  124OSM   H18G13283   5.228   3.621   8.356 -0.5587 -0.2309 -0.8460
  124OSM   H18H13284   5.315   3.748   8.446 -0.7848 -2.3936  1.0940
  125OSM      N13285   3.486   4.724   6.444 -0.2351 -0.3548 -0.4776
  125OSM    C1513286   3.477   4.590   6.381  0.3242  0.3693 -0.0680
  125OSM   H15A13287   3.403   4.585   6.304 -1.3891 -0.1863  1.5472
  125OSM   H15B13288   3.453   4.516   6.456  0.1540  0.3488 -0.1441
  125OSM   H15C13289   3.573   4.564   6.340  0.4036  0.3434  0.1303
  125OSM    C1413290   3.585   4.792   6.353 -0.3390 -0.8994 -0.2387
  125OSM   H14A13291   3.686   4.753   6.360  0.6242  1.3635 -0.7825
  125OSM   H14B13292   3.581   4.894   6.386 -1.2222 -1.1510  0.4565
  125OSM   H14C13293   3.561   4.797   6.247 -1.1523 -1.7095 -0.1053
  125OSM    C1313294   3.349   4.781   6.422  0.1604 -0.2251  0.9717
  125OSM   H13A13295   3.285   4.752   6.504 -0.4548 -0.2270  0.4995
  125OSM   H13B13296   3.308   4.764   6.324 -0.2842  1.3444  0.8523
  125OSM   H13C13297   3.342   4.889   6.424 -0.7839 -0.2768  1.0050
  125OSM    C1213298   3.526   4.717   6.582 -0.4321 -0.4883 -0.9410
  125OSM   H12A13299   3.619   4.665   6.593 -1.0116 -2.0851 -2.9144
  125OSM   H12B13300   3.459   4.652   6.637 -2.0899  0.7733 -1.3618
  125OSM    C1113301   3.536   4.849   6.657  0.2627  0.1949  0.2017
  125OSM   H11A13302   3.558   4.824   6.763  0.0865  2.7107  0.9017
  125OSM   H11B13303   3.438   4.903   6.659  0.8764  1.4691  3.6768
  125OSM      P13304   3.773   4.940   6.641  0.1550 -0.0991  0.2336
  125OSM    O1313305   3.832   4.805   6.623 -0.1415  0.2840 -0.4328
  125OSM    O1413306   3.848   5.052   6.577  0.7124 -0.5849 -0.2154
  125OSM    O1113307   3.765   4.987   6.800  0.5740  0.9806 -0.4285
  125OSM    O1213308   3.629   4.933   6.589 -0.4814  0.5385 -0.3354
  125OSM    C1S13309   3.741   5.124   6.834  0.5767  1.0142  0.9327
  125OSM    H1S13310   3.632   5.137   6.850  0.4428  1.7254 -0.4210
  125OSM    H1T13311   3.768   5.195   6.753 -2.1869  1.0367 -0.0800
  125OSM     NF13312   3.776   5.304   7.010 -0.8373  0.1320 -0.1646
  125OSM    HNF13313   3.818   5.393   6.992  1.0685 -0.6012  0.3703
  125OSM    C2S13314   3.829   5.175   6.954 -0.6066  0.0894 -0.5650
  125OSM    H2S13315   3.829   5.105   7.040 -1.7870  1.0800  0.2681
  125OSM    C3S13316   3.971   5.191   6.901  0.5371 -0.1978  0.1452
  125OSM    H3S13317   3.978   5.285   6.842 -3.0847  1.0982  1.5070
  125OSM     O313318   4.015   5.086   6.812 -0.1622 -0.5536 -0.0908
  125OSM    HO313319   3.941   5.038   6.774 -0.9731  0.1842  0.4992
  125OSM    C4S13320   4.061   5.221   7.020 -0.2962  0.1985 -0.6205
  125OSM    H4S13321   4.091   5.326   7.032  1.0988 -0.3282  1.1272
  125OSM    C5S13322   4.104   5.130   7.111 -0.4615 -0.6551  0.5523
  125OSM    H5S13323   4.058   5.030   7.107  0.6600 -1.1548 -1.0979
  125OSM    C6S13324   4.186   5.161   7.234  0.4932 -0.5128  0.4548
  125OSM    H6S13325   4.287   5.116   7.226  1.2659  1.3019 -0.7138
  125OSM    H6T13326   4.132   5.113   7.318  1.0544 -1.1457  0.4652
  125OSM    C7S13327   4.195   5.312   7.269 -0.0975  0.6660 -0.0699
  125OSM    H7S13328   4.095   5.356   7.286 -0.6185 -0.8055  0.8822
  125OSM    H7T13329   4.235   5.381   7.192  0.7280  0.1330 -0.1371
  125OSM    C8S13330   4.272   5.340   7.403  0.2755  0.1294  0.0163
  125OSM    H8S13331   4.375   5.300   7.397  0.2010 -0.0473 -0.0836
  125OSM    H8T13332   4.217   5.298   7.490 -1.6083  0.5116 -0.9434
  125OSM    C9S13333   4.270   5.487   7.443  0.2709  0.1373  0.0754
  125OSM    H9S13334   4.167   5.523   7.426 -0.7036 -3.3748 -2.5872
  125OSM    H9T13335   4.337   5.549   7.379  1.6698 -1.8981 -0.5256
  125OSM   C10S13336   4.338   5.513   7.574  0.1937  0.3214 -0.3905
  125OSM   H10S13337   4.370   5.619   7.583 -1.3664  0.6829  1.6559
  125OSM   H10T13338   4.429   5.449   7.582  0.3907  0.6118 -0.3050
  125OSM   C11S13339   4.251   5.473   7.695  0.0110 -0.4389 -0.4997
  125OSM   H11S13340   4.245   5.362   7.688 -2.3446 -0.3936 -0.1166
  125OSM   H11T13341   4.149   5.515   7.680 -0.6465 -1.9636 -0.4809
  125OSM   C12S13342   4.298   5.496   7.837 -0.6108 -1.3675 -0.8110
  125OSM   H12S13343   4.310   5.606   7.847  0.6044 -1.3904 -1.6696
  125OSM   H12T13344   4.398   5.447   7.837  1.0243  1.6946 -1.4448
  125OSM   C13S13345   4.221   5.445   7.953  0.1144 -0.2883  0.3466
  125OSM   H13S13346   4.224   5.335   7.937 -1.0319 -0.0127 -2.1651
  125OSM   H13T13347   4.115   5.479   7.951  0.0415 -0.0855  3.1432
  125OSM   C14S13348   4.288   5.478   8.087 -0.4559 -0.8497 -0.0514
  125OSM   H14S13349   4.273   5.588   8.094 -0.2424 -0.6404 -2.2543
  125OSM   H14T13350   4.398   5.460   8.089 -0.1086  0.9012 -1.2016
  125OSM   C15S13351   4.232   5.413   8.212  0.3787  0.0687 -0.1513
  125OSM   H15S13352   4.274   5.310   8.220 -2.2362 -1.0550  0.3633
  125OSM   H15T13353   4.123   5.400   8.191  0.4643  0.3259 -0.7651
  125OSM   C16S13354   4.265   5.475   8.352 -0.2739 -0.1534  0.7844
  125OSM   H16S13355   4.256   5.584   8.335  0.0115 -0.1945  0.3693
  125OSM   H16T13356   4.370   5.462   8.385 -0.0188 -0.9856 -0.2928
  125OSM   C17S13357   4.170   5.426   8.458  0.1476 -0.4658  0.2849
  125OSM   H17S13358   4.064   5.439   8.429  0.0762  1.4713  1.2535
  125OSM   H17T13359   4.184   5.500   8.541  1.2905 -0.7505  0.3564
  125OSM   C18S13360   4.198   5.288   8.517  0.3467 -0.4656 -0.2875
  125OSM   H18S13361   4.154   5.283   8.619  1.1016  1.1509  0.1419
  125OSM   H18T13362   4.306   5.281   8.538  0.1316 -0.0428  1.0448
  125OSM   H18U13363   4.166   5.205   8.451 -0.6004 -2.2321  2.2458
  125OSM    C1F13364   3.662   5.305   7.085  0.0989  0.1497 -0.3177
  125OSM     OF13365   3.621   5.203   7.137 -0.0447 -0.3711  0.2618
  125OSM    C2F13366   3.588   5.431   7.100 -0.1706 -0.3217  0.0525
  125OSM    H2F13367   3.515   5.415   7.183  1.0573 -1.0600  1.0232
  125OSM    H2G13368   3.542   5.438   6.999 -0.8397 -0.8851  0.3087
  125OSM    C3F13369   3.673   5.550   7.148 -0.2374 -0.2397 -0.4260
  125OSM    H3F13370   3.613   5.643   7.140 -1.2831 -0.9939 -1.9019
  125OSM    H3G13371   3.753   5.570   7.074 -0.3164  0.7459 -0.2564
  125OSM    C4F13372   3.729   5.541   7.298  0.5929 -0.6722 -0.5388
  125OSM    H4F13373   3.812   5.469   7.318  0.7165  0.5227  4.5304
  125OSM    H4G13374   3.646   5.509   7.366 -0.1508  1.4716 -0.3585
  125OSM    C5F13375   3.799   5.674   7.337  0.1797  0.3043 -0.3426
  125OSM    H5F13376   3.735   5.761   7.310 -0.3613 -0.6573 -2.2762
  125OSM    H5G13377   3.890   5.687   7.275  1.7038  1.2173  1.9176
  125OSM    C6F13378   3.836   5.678   7.492  0.2463 -0.5677 -0.0121
  125OSM    H6F13379   3.918   5.751   7.509  0.3541 -0.5455 -0.6077
  125OSM    H6G13380   3.888   5.583   7.518 -0.0732 -0.1626  2.2750
  125OSM    C7F13381   3.721   5.689   7.588 -0.1728 -0.5610 -0.4547
  125OSM    H7F13382   3.673   5.589   7.593 -0.3027 -0.4324  2.2909
  125OSM    H7G13383   3.646   5.766   7.562 -0.9401 -0.6141  1.4866
  125OSM    C8F13384   3.763   5.720   7.733  0.1486  0.1783 -0.4809
  125OSM    H8F13385   3.673   5.762   7.783  1.9916  1.5949  1.8556
  125OSM    H8G13386   3.835   5.804   7.739 -0.3277  0.5658 -0.0874
  125OSM    C9F13387   3.825   5.605   7.821  0.2969 -0.2014 -0.5973
  125OSM    H9F13388   3.926   5.567   7.799  0.8917  1.0798 -0.2213
  125OSM   C10F13389   3.767   5.557   7.932 -0.1038 -0.5974 -0.0719
  125OSM   H10F13390   3.820   5.477   7.986  0.0187 -1.2042 -1.0624
  125OSM   C11F13391   3.634   5.602   7.985  0.7357  0.1969 -0.5452
  125OSM   H11F13392   3.569   5.658   7.915 -1.6269 -1.0619  0.4907
  125OSM   H11G13393   3.647   5.674   8.068 -0.2557  0.0122 -0.2084
  125OSM   C12F13394   3.563   5.473   8.036  0.1232  0.5160  0.3264
  125OSM   H12F13395   3.470   5.514   8.081 -0.7137 -1.1138  0.1704
  125OSM   H12G13396   3.617   5.424   8.120  0.8112 -0.1772 -0.5081
  125OSM   C13F13397   3.531   5.368   7.927 -0.0203 -0.5015  0.0837
  125OSM   H13F13398   3.483   5.279   7.974  0.2575 -0.2081  0.9361
  125OSM   H13G13399   3.631   5.345   7.884  0.9138  2.1231  0.7176
  125OSM   C14F13400   3.427   5.406   7.818  0.4156 -0.0234  0.1921
  125OSM   H14F13401   3.453   5.507   7.778  1.2086 -0.0461  0.6322
  125OSM   H14G13402   3.333   5.427   7.873  0.6047  1.8421 -0.1286
  125OSM   C15F13403   3.415   5.306   7.705 -0.3156 -0.2848 -0.0947
  125OSM   H15F13404   3.375   5.206   7.731 -0.4226 -0.6326 -1.4879
  125OSM   H15G13405   3.520   5.293   7.670 -0.3115  1.1004 -0.6853
  125OSM   C16F13406   3.326   5.354   7.589 -0.1145 -0.5563  0.2192
  125OSM   H16F13407   3.373   5.451   7.562  0.2896 -0.8747 -0.2249
  125OSM   H16G13408   3.222   5.366   7.627  0.0875  1.7667  0.1764
  125OSM   C17F13409   3.325   5.270   7.464 -0.1684 -0.3852  0.1679
  125OSM   H17F13410   3.291   5.177   7.516 -1.5756 -1.0490 -1.8013
  125OSM   H17G13411   3.429   5.253   7.431 -0.9736 -0.7780 -2.3438
  125OSM   C18F13412   3.242   5.319   7.353 -0.2095  0.0175 -0.1358
  125OSM   H18F13413   3.137   5.345   7.379 -0.2272 -0.3563  0.1730
  125OSM   H18G13414   3.240   5.247   7.268  1.6322  0.4614 -0.5813
  125OSM   H18H13415   3.295   5.401   7.300 -0.2745 -0.0280 -0.2737
  126OSM      N13416   2.227   4.007   6.300 -0.6366  0.0615 -0.1850
  126OSM    C1513417   2.167   4.137   6.263  0.1919 -0.3223  0.5307
  126OSM   H15A13418   2.159   4.200   6.350 -0.2711 -1.0524  1.0254
  126OSM   H15B13419   2.061   4.129   6.244 -0.3333  1.9418  2.1017
  126OSM   H15C13420   2.213   4.176   6.173 -1.8301  0.3268 -0.2618
  126OSM    C1413421   2.196   3.908   6.194  0.0820 -0.6786  0.8100
  126OSM   H14A13422   2.230   3.945   6.099  0.3208 -0.0730  1.1284
  126OSM   H14B13423   2.088   3.896   6.201  0.0037 -0.9818 -0.5749
  126OSM   H14C13424   2.242   3.811   6.208 -1.1515 -1.7845 -1.9568
  126OSM    C1313425   2.374   4.025   6.305 -0.4524  0.8111 -0.3285
  126OSM   H13A13426   2.413   4.077   6.391 -1.0665  0.1202  0.3811
  126OSM   H13B13427   2.416   4.091   6.231 -0.6888  2.2083  0.7412
  126OSM   H13C13428   2.420   3.929   6.284 -1.2853  0.2161  0.4446
  126OSM    C1213429   2.179   3.947   6.433  0.0014 -0.5597  0.1909
  126OSM   H12A13430   2.229   3.852   6.440 -0.8960 -1.0968 -0.4518
  126OSM   H12B13431   2.074   3.925   6.429 -0.3338  0.9363 -0.0458
  126OSM    C1113432   2.204   4.042   6.557 -0.4227 -0.4926 -0.5440
  126OSM   H11A13433   2.311   4.069   6.549 -0.3988 -1.0779 -2.9928
  126OSM   H11B13434   2.194   3.978   6.648 -1.0278 -1.8773 -1.5560
  126OSM      P13435   1.986   4.173   6.629  0.1477 -0.1324 -0.2158
  126OSM    O1313436   1.951   4.316   6.616  0.7756  0.0967  0.1200
  126OSM    O1413437   1.898   4.066   6.584 -0.2779  0.2087 -0.9136
  126OSM    O1113438   2.020   4.152   6.779  0.2796  0.8252  0.6138
  126OSM    O1213439   2.125   4.161   6.556 -0.3357  0.3243  0.2918
  126OSM    C1S13440   2.138   4.221   6.836  0.7444 -0.1340  0.1970
  126OSM    H1S13441   2.161   4.315   6.781  1.9713 -0.6842 -0.2814
  126OSM    H1T13442   2.230   4.159   6.834  0.3914 -0.6730 -1.8010
  126OSM     NF13443   2.175   4.380   7.029  0.3321  0.6252  0.2386
  126OSM    HNF13444   2.269   4.361   7.059  0.5158 -1.3118 -1.3934
  126OSM    C2S13445   2.096   4.261   6.985  0.6255 -0.1128 -0.0803
  126OSM    H2S13446   1.988   4.286   6.980  0.7121  0.1942 -0.5045
  126OSM    C3S13447   2.116   4.131   7.071  0.6923  0.3503  0.3487
  126OSM    H3S13448   2.221   4.093   7.077  0.3459 -0.6834  0.0373
  126OSM     O313449   2.052   4.023   7.004 -0.3089  0.3521  0.5112
  126OSM    HO313450   2.032   4.060   6.918  1.5681  0.5167  0.1072
  126OSM    C4S13451   2.051   4.135   7.208 -0.4353 -0.0132  0.4412
  126OSM    H4S13452   1.941   4.141   7.202 -0.4504 -0.9212 -0.4874
  126OSM    C5S13453   2.120   4.130   7.320  0.2521  0.6119 -1.4632
  126OSM    H5S13454   2.228   4.108   7.316  0.8464  2.8528  0.0795
  126OSM    C6S13455   2.077   4.130   7.466  0.0811 -0.0307 -0.4914
  126OSM    H6S13456   2.030   4.035   7.497  1.5292 -0.8685 -0.7446
  126OSM    H6T13457   1.998   4.205   7.486 -0.3617 -1.3665  3.5755
  126OSM    C7S13458   2.189   4.166   7.573 -0.2769 -0.2381 -0.2570
  126OSM    H7S13459   2.246   4.255   7.539 -0.5507 -0.4857 -1.4389
  126OSM    H7T13460   2.247   4.073   7.591 -0.1221  0.3582  2.7181
  126OSM    C8S13461   2.116   4.190   7.709 -0.8053  0.1256 -0.0687
  126OSM    H8S13462   2.198   4.186   7.785 -2.8226  1.4858  2.3179
  126OSM    H8T13463   2.032   4.123   7.736 -0.1257  0.0766  2.1734
  126OSM    C9S13464   2.054   4.328   7.717  1.0485  0.9002 -0.6321
  126OSM    H9S13465   1.977   4.353   7.642 -1.8974 -2.8003  0.8114
  126OSM    H9T13466   2.143   4.393   7.705  0.8431  1.1427 -0.8483
  126OSM   C10S13467   1.988   4.362   7.853  0.4989 -0.0426  0.1445
  126OSM   H10S13468   1.889   4.312   7.861  0.0240  0.4605 -2.1035
  126OSM   H10T13469   1.969   4.471   7.863  2.4229  0.4249 -0.7320
  126OSM   C11S13470   2.079   4.332   7.974  0.3771  0.2807 -0.0239
  126OSM   H11S13471   2.175   4.387   7.963  0.8309 -0.4240  0.3721
  126OSM   H11T13472   2.095   4.222   7.974  0.2427  0.2475 -1.1443
  126OSM   C12S13473   2.016   4.365   8.113  0.1904  0.0992 -0.5011
  126OSM   H12S13474   1.924   4.304   8.125  1.2082 -1.4745 -0.3957
  126OSM   H12T13475   1.978   4.470   8.105  0.2362  0.4319  2.5607
  126OSM   C13S13476   2.107   4.345   8.231 -0.2899 -0.2007 -0.2841
  126OSM   H13S13477   2.200   4.404   8.238  0.0458 -0.6131 -1.0572
  126OSM   H13T13478   2.147   4.241   8.223 -1.1338 -0.5001 -0.8483
  126OSM   C14S13479   2.052   4.377   8.368 -0.0593  0.4062  0.4642
  126OSM   H14S13480   2.132   4.371   8.446 -0.0937 -0.1113  0.4655
  126OSM   H14T13481   1.978   4.297   8.389 -0.4280  0.0421 -2.0053
  126OSM   C15S13482   1.991   4.511   8.371 -0.0594 -0.0822  0.1586
  126OSM   H15S13483   1.882   4.495   8.362  0.0112 -0.3685 -0.2193
  126OSM   H15T13484   2.016   4.564   8.276 -0.6922 -0.2726 -0.1146
  126OSM   C16S13485   2.015   4.591   8.505  0.1213 -0.7764 -0.3218
  126OSM   H16S13486   1.961   4.687   8.488  1.7678  0.2584  0.0465
  126OSM   H16T13487   2.119   4.629   8.508 -0.2611  0.4237  3.8759
  126OSM   C17S13488   1.997   4.515   8.638 -0.1488 -0.1634  0.4176
  126OSM   H17S13489   2.092   4.460   8.649  1.6263  3.0306  2.5948
  126OSM   H17T13490   1.917   4.442   8.613  1.1268 -0.7358 -2.3464
  126OSM   C18S13491   1.958   4.615   8.745  0.1412 -0.5533 -0.7891
  126OSM   H18S13492   2.041   4.688   8.739 -0.5126  0.1362 -1.9495
  126OSM   H18T13493   1.942   4.568   8.845  2.0632  1.6527  0.6322
  126OSM   H18U13494   1.865   4.670   8.721 -0.2656  0.5086  2.6534
  126OSM    C1F13495   2.129   4.502   7.013 -0.3243 -0.4886 -0.5620
  126OSM     OF13496   2.039   4.526   6.937 -0.4545  0.8624  0.0833
  126OSM    C2F13497   2.198   4.603   7.100 -0.2827 -0.1401 -0.0610
  126OSM    H2F13498   2.222   4.692   7.038  0.1653  0.1806  0.5648
  126OSM    H2G13499   2.284   4.551   7.147 -1.2288 -0.0948  1.8291
  126OSM    C3F13500   2.119   4.646   7.227  0.1348  0.1494  0.2225
  126OSM    H3F13501   2.105   4.555   7.289 -1.6597  0.4056  0.2450
  126OSM    H3G13502   2.016   4.685   7.210 -0.8673 -2.4801 -0.3942
  126OSM    C4F13503   2.180   4.752   7.317  0.1769 -0.3231 -0.1749
  126OSM    H4F13504   2.184   4.854   7.274 -0.4177  0.3177  1.2107
  126OSM    H4G13505   2.280   4.720   7.353 -0.7140 -0.8772  1.9625
  126OSM    C5F13506   2.093   4.761   7.448  0.4165 -0.3908  0.1288
  126OSM    H5F13507   2.090   4.653   7.475  0.7876 -1.1400 -2.5285
  126OSM    H5G13508   1.992   4.797   7.417  1.1969  1.4065 -0.4495
  126OSM    C6F13509   2.151   4.847   7.558  0.5973 -0.6478 -0.6674
  126OSM    H6F13510   2.116   4.950   7.535 -1.5805 -1.6130 -2.0412
  126OSM    H6G13511   2.259   4.837   7.583  0.6941  1.0672 -0.2929
  126OSM    C7F13512   2.083   4.812   7.693 -0.1003 -0.4137 -0.1450
  126OSM    H7F13513   2.113   4.710   7.726 -1.3276 -0.4392  1.0201
  126OSM    H7G13514   1.972   4.816   7.683 -0.3623  0.5207  2.5018
  126OSM    C8F13515   2.107   4.905   7.816  0.5625  0.5426  0.5923
  126OSM    H8F13516   2.102   5.008   7.775  0.7445  0.9702  1.6087
  126OSM    H8G13517   2.207   4.895   7.864  0.5103  1.2073  0.8536
  126OSM    C9F13518   2.007   4.876   7.934  0.1451  0.5522  0.2067
  126OSM    H9F13519   1.903   4.861   7.898  1.2602 -0.5125 -2.9388
  126OSM   C10F13520   2.038   4.855   8.063  0.1483 -0.6332 -0.2765
  126OSM   H10F13521   1.960   4.844   8.139  0.4178 -0.4713  0.0234
  126OSM   C11F13522   2.175   4.855   8.127 -1.0053  0.4386  0.3656
  126OSM   H11F13523   2.254   4.895   8.061 -2.1446  1.3332 -0.5061
  126OSM   H11G13524   2.207   4.751   8.148 -0.0790  0.9928  1.8172
  126OSM   C12F13525   2.189   4.928   8.258  0.4512 -0.2212 -0.4005
  126OSM   H12F13526   2.107   4.902   8.328 -0.7596  3.9462 -0.0277
  126OSM   H12G13527   2.167   5.036   8.246 -0.6149 -0.4104 -0.1994
  126OSM   C13F13528   2.322   4.912   8.328  0.0408  0.6803 -0.0868
  126OSM   H13F13529   2.373   4.815   8.310 -0.4308  0.5071 -0.5093
  126OSM   H13G13530   2.314   4.921   8.439  0.9987 -0.8627  0.1398
  126OSM   C14F13531   2.419   5.021   8.283  0.7236  0.1149  0.3880
  126OSM   H14F13532   2.381   5.115   8.328 -0.3407 -0.7611  1.4027
  126OSM   H14G13533   2.408   5.017   8.173 -1.5328 -2.8691  0.5872
  126OSM   C15F13534   2.564   4.997   8.321 -0.6043 -0.4476  0.4957
  126OSM   H15F13535   2.615   5.075   8.260 -0.0805 -2.1040 -1.2807
  126OSM   H15G13536   2.602   4.902   8.278  0.9246  0.9438 -1.4162
  126OSM   C16F13537   2.583   5.004   8.467 -0.0395 -0.4296  0.0203
  126OSM   H16F13538   2.645   4.917   8.497  1.0673  0.4304  0.2765
  126OSM   H16G13539   2.493   5.009   8.532  0.7510 -1.4568  1.2423
  126OSM   C17F13540   2.662   5.118   8.528  0.4020  0.3725  0.6797
  126OSM   H17F13541   2.612   5.216   8.512 -0.9541 -0.6003 -1.5615
  126OSM   H17G13542   2.759   5.135   8.478  0.2419  0.9777  0.5623
  126OSM   C18F13543   2.699   5.091   8.677  0.5382  0.5367  0.6345
  126OSM   H18F13544   2.607   5.093   8.741  0.1275  2.4097  0.0571
  126OSM   H18G13545   2.750   5.169   8.738 -0.9988  1.8859  0.2609
  126OSM   H18H13546   2.742   4.989   8.681 -0.3451  0.0862 -0.6873
  127OSM      N13547   2.646   3.756   6.621  0.1029  0.0067  0.3999
  127OSM    C1513548   2.758   3.848   6.588  0.0283  0.0637  0.0824
  127OSM   H15A13549   2.843   3.796   6.545 -1.2951 -0.0922 -2.5812
  127OSM   H15B13550   2.795   3.895   6.678  0.1356 -3.2815  1.9323
  127OSM   H15C13551   2.733   3.928   6.520  1.3278 -0.5876 -1.2460
  127OSM    C1413552   2.613   3.676   6.498  0.2210 -0.2699 -0.0758
  127OSM   H14A13553   2.705   3.652   6.446  0.2207  2.3608 -1.4726
  127OSM   H14B13554   2.542   3.733   6.440 -0.1365  0.7457  1.3175
  127OSM   H14C13555   2.569   3.586   6.537 -0.3770  0.0391 -0.0372
  127OSM    C1313556   2.696   3.669   6.740  0.3510 -0.0478  0.7433
  127OSM   H13A13557   2.726   3.728   6.825  1.9399 -0.1839  0.3157
  127OSM   H13B13558   2.786   3.617   6.710  0.3564  0.2707  0.1946
  127OSM   H13C13559   2.612   3.607   6.764 -2.0815  2.4753 -0.6104
  127OSM    C1213560   2.524   3.835   6.669 -0.5154 -0.5507  0.1610
  127OSM   H12A13561   2.493   3.904   6.592 -0.8081 -0.0854  0.6921
  127OSM   H12B13562   2.547   3.890   6.759 -3.6967  0.7676  0.3058
  127OSM    C1113563   2.400   3.753   6.720 -0.4792 -0.8524  0.4765
  127OSM   H11A13564   2.345   3.820   6.789 -1.4327  1.6259 -2.4977
  127OSM   H11B13565   2.447   3.666   6.770 -0.1278  0.1823  2.0068
  127OSM      P13566   2.248   3.571   6.594 -0.1078 -0.1439 -0.1520
  127OSM    O1313567   2.151   3.585   6.484  0.1614  0.3110 -0.4712
  127OSM    O1413568   2.349   3.460   6.597  0.3922 -0.1316  0.3391
  127OSM    O1113569   2.167   3.558   6.730  0.1811 -0.4814 -0.1279
  127OSM    O1213570   2.322   3.714   6.605 -0.0606 -0.2356 -0.0702
  127OSM    C1S13571   2.080   3.662   6.786 -0.1159 -0.0070  0.6415
  127OSM    H1S13572   1.981   3.652   6.738  0.8877 -1.7222 -1.1912
  127OSM    H1T13573   2.118   3.765   6.768 -0.6703  0.4189  1.7685
  127OSM     NF13574   1.965   3.756   6.984  0.0420  0.0302 -0.5497
  127OSM    HNF13575   2.012   3.835   7.023 -0.1143 -0.9128  1.6931
  127OSM    C2S13576   2.060   3.657   6.944  0.9066 -0.3955  0.2743
  127OSM    H2S13577   2.026   3.554   6.964  3.0226 -1.0807  0.5999
  127OSM    C3S13578   2.198   3.675   7.011  0.6109 -0.3926  0.3019
  127OSM    H3S13579   2.229   3.776   6.976 -0.2007 -0.1326  0.2985
  127OSM     O313580   2.297   3.584   6.962  0.0476 -0.7150 -0.6050
  127OSM    HO313581   2.271   3.566   6.872  1.8501  0.7178 -1.4719
  127OSM    C4S13582   2.193   3.663   7.162 -0.0140  0.6698  0.0924
  127OSM    H4S13583   2.208   3.561   7.202  2.3582  0.9262 -0.0471
  127OSM    C5S13584   2.179   3.763   7.252 -0.5358  0.0802 -0.2948
  127OSM    H5S13585   2.182   3.868   7.218 -0.7457 -0.0573 -0.7361
  127OSM    C6S13586   2.172   3.764   7.407 -0.0334  0.0135 -0.4683
  127OSM    H6S13587   2.066   3.767   7.440  0.4686 -0.4453  1.2660
  127OSM    H6T13588   2.218   3.854   7.453 -0.3855  0.3876 -0.8435
  127OSM    C7S13589   2.236   3.636   7.474  0.0010 -0.2476 -0.1300
  127OSM    H7S13590   2.341   3.618   7.442  0.6591  0.5121  1.4890
  127OSM    H7T13591   2.171   3.556   7.433  0.2541 -0.3243 -0.3830
  127OSM    C8S13592   2.220   3.621   7.632  0.2977  0.4534  0.3703
  127OSM    H8S13593   2.257   3.520   7.663 -1.3520 -0.4562 -0.4955
  127OSM    H8T13594   2.116   3.621   7.669 -0.3714  1.9404 -1.3786
  127OSM    C9S13595   2.289   3.725   7.714  0.2641 -0.1918 -0.4434
  127OSM    H9S13596   2.241   3.824   7.706  0.6923  0.0664  0.0434
  127OSM    H9T13597   2.389   3.741   7.667  0.8065  1.1248  1.0529
  127OSM   C10S13598   2.306   3.686   7.862 -0.4126 -0.2398 -0.1898
  127OSM   H10S13599   2.374   3.599   7.873 -0.4318  0.0010  2.6211
  127OSM   H10T13600   2.218   3.645   7.916 -0.4477 -0.1041 -0.1421
  127OSM   C11S13601   2.370   3.802   7.951 -0.1229 -1.3956 -0.2923
  127OSM   H11S13602   2.322   3.902   7.948 -1.2854 -1.9327 -0.0437
  127OSM   H11T13603   2.474   3.799   7.912 -0.2320 -1.1961 -0.6054
  127OSM   C12S13604   2.383   3.758   8.095  0.2362 -0.0537 -0.0353
  127OSM   H12S13605   2.422   3.654   8.094 -0.4768 -0.3558 -2.2312
  127OSM   H12T13606   2.283   3.763   8.144  0.2259 -2.7686  0.3742
  127OSM   C13S13607   2.476   3.853   8.175  0.1596 -0.2342  0.0889
  127OSM   H13S13608   2.430   3.953   8.160  1.1927  0.1346 -0.7965
  127OSM   H13T13609   2.574   3.861   8.123 -0.5542  1.6978 -1.0353
  127OSM   C14S13610   2.492   3.814   8.324  0.7896 -0.6902 -0.4498
  127OSM   H14S13611   2.557   3.725   8.339  1.5386  0.0384  0.8685
  127OSM   H14T13612   2.393   3.784   8.363  0.6797  0.6350  0.3313
  127OSM   C15S13613   2.542   3.922   8.414  0.8297 -0.1949 -0.0729
  127OSM   H15S13614   2.490   4.019   8.403 -0.2164 -1.0116 -3.3618
  127OSM   H15T13615   2.649   3.946   8.393  1.0825 -0.6630  0.6430
  127OSM   C16S13616   2.539   3.880   8.560  0.3598  0.7630  0.2770
  127OSM   H16S13617   2.618   3.808   8.590 -0.2102  1.2591  3.3744
  127OSM   H16T13618   2.443   3.837   8.596  1.1588 -1.7583 -0.4252
  127OSM   C17S13619   2.573   4.008   8.642  0.7263 -0.1090  0.7040
  127OSM   H17S13620   2.521   4.098   8.604  0.4549 -0.0509  1.1990
  127OSM   H17T13621   2.681   4.032   8.649  0.3406  1.3536  2.2841
  127OSM   C18S13622   2.540   3.989   8.796  0.0017 -0.7909 -0.4479
  127OSM   H18S13623   2.565   4.087   8.842 -1.3369  0.3566 -2.0557
  127OSM   H18T13624   2.606   3.910   8.838 -0.3391 -1.2004 -0.6720
  127OSM   H18U13625   2.431   3.975   8.817  0.0902 -1.7687 -0.5961
  127OSM    C1F13626   1.828   3.742   6.956  0.6230 -0.1643 -0.0678
  127OSM     OF13627   1.786   3.632   6.917 -0.3795  0.6640 -0.3008
  127OSM    C2F13628   1.744   3.870   6.978 -0.2700 -0.2892  0.6566
  127OSM    H2F13629   1.678   3.883   6.890 -1.6919  2.1395  1.9618
  127OSM    H2G13630   1.813   3.956   6.988 -1.6079  0.6392  2.7612
  127OSM    C3F13631   1.664   3.860   7.105  0.1972  0.5595  0.1180
  127OSM    H3F13632   1.608   3.765   7.101 -0.1906  0.8339 -1.5937
  127OSM    H3G13633   1.590   3.942   7.112  0.8136  1.1691 -0.3155
  127OSM    C4F13634   1.755   3.861   7.228  0.9268  0.2624  0.7095
  127OSM    H4F13635   1.799   3.963   7.233 -1.0142  1.1459  0.7689
  127OSM    H4G13636   1.833   3.784   7.239  0.5071 -0.2366  0.1993
  127OSM    C5F13637   1.669   3.861   7.358  0.2505 -0.0208 -0.0848
  127OSM    H5F13638   1.617   3.763   7.364 -1.7497  0.8734 -1.5188
  127OSM    H5G13639   1.580   3.928   7.358 -0.3156 -0.7454  1.0679
  127OSM    C6F13640   1.742   3.883   7.490  0.4205 -0.1296 -0.3048
  127OSM    H6F13641   1.701   3.970   7.545  0.2556 -1.7719  2.3029
  127OSM    H6G13642   1.849   3.904   7.466  0.1267  0.0054 -1.5675
  127OSM    C7F13643   1.739   3.764   7.598  0.2960  0.6939 -0.2583
  127OSM    H7F13644   1.738   3.666   7.545  2.2129  0.7056 -0.3605
  127OSM    H7G13645   1.640   3.769   7.648  0.4284 -0.4654  0.1585
  127OSM    C8F13646   1.853   3.749   7.688 -0.1219  0.0906  0.7646
  127OSM    H8F13647   1.947   3.742   7.630 -0.7174  0.4376 -0.2708
  127OSM    H8G13648   1.843   3.650   7.739 -0.1100  0.0445  0.6779
  127OSM    C9F13649   1.868   3.865   7.784 -0.1466  0.6006  0.0782
  127OSM    H9F13650   1.858   3.961   7.731  0.8259  0.0197 -1.2316
  127OSM   C10F13651   1.875   3.868   7.917 -0.3615 -0.0685 -0.0462
  127OSM   H10F13652   1.875   3.967   7.965 -1.7819 -0.3759  0.6333
  127OSM   C11F13653   1.894   3.749   8.011 -0.0825  0.6138  0.2667
  127OSM   H11F13654   1.953   3.668   7.964  0.1586  0.9729 -0.0514
  127OSM   H11G13655   1.795   3.704   8.035  0.1718 -0.2777 -0.3127
  127OSM   C12F13656   1.955   3.790   8.151 -0.0912 -0.5793 -0.3544
  127OSM   H12F13657   1.896   3.880   8.180  1.4547  0.7902 -1.3610
  127OSM   H12G13658   2.060   3.826   8.152 -0.4414  0.5441  1.6766
  127OSM   C13F13659   1.943   3.692   8.265  0.1254 -0.5985  0.1131
  127OSM   H13F13660   1.968   3.590   8.227  2.1877  0.4870 -1.5923
  127OSM   H13G13661   1.836   3.679   8.293  0.6177 -0.1945  2.4407
  127OSM   C14F13662   2.018   3.732   8.392  0.1925 -0.0485  0.3820
  127OSM   H14F13663   2.121   3.737   8.352  0.1170  0.6363  0.2543
  127OSM   H14G13664   2.004   3.653   8.469  2.2820 -0.2693  0.5967
  127OSM   C15F13665   1.981   3.867   8.444 -0.7747 -0.1712  0.0514
  127OSM   H15F13666   1.874   3.871   8.474 -1.0985 -0.7948 -0.9739
  127OSM   H15G13667   1.993   3.958   8.382  1.1418  1.1687  2.1975
  127OSM   C16F13668   2.064   3.911   8.569  0.1084 -0.9303  0.6531
  127OSM   H16F13669   2.166   3.868   8.557  0.7896  0.5274  0.9885
  127OSM   H16G13670   2.021   3.868   8.662  0.5460 -1.5552  0.5734
  127OSM   C17F13671   2.069   4.068   8.581  0.2906 -0.3439 -0.1332
  127OSM   H17F13672   1.964   4.105   8.586  0.9606  1.9660 -1.5641
  127OSM   H17G13673   2.121   4.118   8.497  1.2234 -1.6241 -0.3539
  127OSM   C18F13674   2.147   4.113   8.706 -0.3843 -0.9407 -0.3806
  127OSM   H18F13675   2.146   4.224   8.720 -4.8828 -0.7015 -0.9496
  127OSM   H18G13676   2.253   4.085   8.695  0.1157  1.2575 -1.8190
  127OSM   H18H13677   2.105   4.066   8.798  0.0064 -0.1329  0.2271
  128OSM      N13678   5.180   0.427   6.532  0.8681  0.3024 -0.0775
  128OSM    C1513679   5.175   0.329   6.418  0.2418 -0.2858  0.0459
  128OSM   H15A13680   5.207   0.363   6.321 -2.4577 -0.3928 -0.9857
  128OSM   H15B13681   5.070   0.301   6.410 -0.5098  1.5829  2.3369
  128OSM   H15C13682   5.224   0.238   6.448  1.8919  0.8225  0.8137
  128OSM    C1413683   5.320   0.445   6.576  0.7761  0.2331  0.2159
  128OSM   H14A13684   5.325   0.533   6.638 -0.6811  1.3724 -1.2116
  128OSM   H14B13685   5.390   0.464   6.496  1.4463  1.9453  1.1469
  128OSM   H14C13686   5.361   0.354   6.617  1.9057  1.5674  2.2029
  128OSM    C1313687   5.131   0.563   6.492  0.1704 -0.0099 -0.0356
  128OSM   H13A13688   5.033   0.568   6.448  0.1181  0.0998  0.0944
  128OSM   H13B13689   5.202   0.615   6.429  1.9500 -2.2728 -0.0461
  128OSM   H13C13690   5.131   0.622   6.582 -1.0235  0.3495 -0.2585
  128OSM    C1213691   5.092   0.380   6.653 -0.6536  0.7032  0.1090
  128OSM   H12A13692   5.079   0.460   6.724  0.2768  1.1457 -0.1977
  128OSM   H12B13693   5.142   0.305   6.713  0.5128  2.2128  1.0938
  128OSM    C1113694   4.959   0.304   6.617  0.1970 -0.1862  0.6352
  128OSM   H11A13695   4.901   0.276   6.708 -0.7161 -2.0755 -0.4706
  128OSM   H11B13696   4.991   0.209   6.569 -0.3370 -0.9132  1.6601
  128OSM      P13697   4.814   0.352   6.388  0.6184  0.1751 -0.4132
  128OSM    O1313698   4.781   0.482   6.327  0.1877 -0.0320  0.1506
  128OSM    O1413699   4.898   0.252   6.315  0.2844 -0.0055  0.2547
  128OSM    O1113700   4.685   0.289   6.439  0.9479  0.5442  0.0316
  128OSM    O1213701   4.875   0.379   6.530  0.5223 -0.0321  0.2324
  128OSM    C1S13702   4.659   0.147   6.471 -0.5148  0.6710  0.2036
  128OSM    H1S13703   4.744   0.083   6.441 -2.1863 -1.3083 -0.5588
  128OSM    H1T13704   4.570   0.103   6.421 -0.1938 -0.9526  1.0021
  128OSM     NF13705   4.587  -0.003   6.653 -0.4984  0.2098  0.4542
  128OSM    HNF13706   4.498  -0.013   6.697 -0.6661  2.4462  0.7321
  128OSM    C2S13707   4.636   0.128   6.624  0.4931  0.0286 -0.3699
  128OSM    H2S13708   4.728   0.141   6.685 -0.2538  1.1541  0.5773
  128OSM    C3S13709   4.543   0.230   6.695  0.0585 -0.5965  0.1132
  128OSM    H3S13710   4.444   0.230   6.644 -0.3096  0.2973  0.7931
  128OSM     O313711   4.593   0.364   6.675 -0.8732 -0.1112 -0.4998
  128OSM    HO313712   4.649   0.367   6.597  1.3559  0.1371  1.0159
  128OSM    C4S13713   4.515   0.194   6.837  0.3394 -0.5767  0.0792
  128OSM    H4S13714   4.415   0.152   6.851  0.0258  0.4448  1.0624
  128OSM    C5S13715   4.593   0.221   6.938 -0.1889 -0.5762 -0.2548
  128OSM    H5S13716   4.682   0.282   6.915 -0.4688 -0.6591 -1.6266
  128OSM    C6S13717   4.569   0.189   7.087  0.6370  0.4262  0.2055
  128OSM    H6S13718   4.539   0.276   7.149  1.0673  1.3188 -0.7983
  128OSM    H6T13719   4.658   0.147   7.137 -0.3806  0.2720  1.9803
  128OSM    C7S13720   4.459   0.077   7.114  0.3777 -0.8242  0.0883
  128OSM    H7S13721   4.505  -0.015   7.070 -0.2672 -0.8772 -0.4799
  128OSM    H7T13722   4.362   0.085   7.061  0.9836 -0.5176 -0.9968
  128OSM    C8S13723   4.439   0.058   7.269  0.0703 -0.7325  0.3090
  128OSM    H8S13724   4.523   0.095   7.333 -0.2804  1.0573 -0.2108
  128OSM    H8T13725   4.442  -0.050   7.294  1.0029 -0.4339  1.6308
  128OSM    C9S13726   4.308   0.121   7.314 -0.4476 -0.2219 -0.1365
  128OSM    H9S13727   4.217   0.102   7.254  0.9173 -0.8506 -2.1122
  128OSM    H9T13728   4.329   0.230   7.310 -0.1040 -0.3175 -1.5230
  128OSM   C10S13729   4.283   0.076   7.453 -0.0690 -0.1644  0.1397
  128OSM   H10S13730   4.371   0.103   7.517  2.7108 -1.9411 -2.6654
  128OSM   H10T13731   4.265  -0.033   7.463 -0.8957 -0.0562 -0.0952
  128OSM   C11S13732   4.174   0.143   7.536 -0.0255  0.4822 -0.7679
  128OSM   H11S13733   4.087   0.150   7.467 -0.1928 -1.7171 -0.8424
  128OSM   H11T13734   4.215   0.246   7.547  0.4170  0.4981 -2.3498
  128OSM   C12S13735   4.135   0.053   7.663  0.3461  0.4496  0.3251
  128OSM   H12S13736   4.230   0.011   7.703 -0.2143 -2.0689 -0.7820
  128OSM   H12T13737   4.070  -0.031   7.631  3.2019 -0.9977 -2.2798
  128OSM   C13S13738   4.082   0.135   7.772  0.7065 -0.1550 -0.1244
  128OSM   H13S13739   3.981   0.178   7.757  0.5610 -0.6511 -0.5863
  128OSM   H13T13740   4.146   0.223   7.795  2.5427 -0.8091 -2.3622
  128OSM   C14S13741   4.067   0.064   7.906 -0.1597  0.3168  0.0692
  128OSM   H14S13742   4.175   0.051   7.931  0.4362  1.1673 -1.8904
  128OSM   H14T13743   4.024  -0.039   7.903  1.0034 -0.1731 -1.1341
  128OSM   C15S13744   3.998   0.152   8.008 -0.6837 -0.1606  0.0874
  128OSM   H15S13745   3.894   0.182   7.982 -0.3104  0.5754 -0.5921
  128OSM   H15T13746   4.063   0.241   8.012  3.1164 -2.4956 -2.6750
  128OSM   C16S13747   4.003   0.092   8.150  0.3207 -0.7106 -0.8472
  128OSM   H16S13748   4.109   0.104   8.180  0.5239  1.7863 -2.2475
  128OSM   H16T13749   3.963  -0.011   8.154 -0.0936 -0.5062  1.7732
  128OSM   C17S13750   3.912   0.182   8.239  0.1301  0.5351  0.3543
  128OSM   H17S13751   3.802   0.176   8.227  0.2086 -0.8135  0.1974
  128OSM   H17T13752   3.946   0.287   8.224  2.7319 -0.4506 -1.2925
  128OSM   C18S13753   3.941   0.154   8.389  0.2466 -0.1507 -0.6238
  128OSM   H18S13754   3.913   0.049   8.414  1.9256 -0.6272 -0.5652
  128OSM   H18T13755   3.884   0.226   8.451  1.2819  1.4982 -1.4962
  128OSM   H18U13756   4.051   0.162   8.405  0.3227  0.0354 -1.2184
  128OSM    C1F13757   4.651  -0.122   6.638 -1.1171 -1.2288 -0.6737
  128OSM     OF13758   4.743  -0.127   6.562 -0.0529  0.2354 -0.3025
  128OSM    C2F13759   4.588  -0.236   6.710  0.9999  0.7446  0.0401
  128OSM    H2F13760   4.558  -0.305   6.628  0.0234 -0.9325  1.7251
  128OSM    H2G13761   4.489  -0.206   6.752 -0.2753  0.2512 -2.4046
  128OSM    C3F13762   4.681  -0.307   6.819 -0.9718 -0.2368  0.0639
  128OSM    H3F13763   4.774  -0.341   6.767 -2.6515 -3.3349 -1.1542
  128OSM    H3G13764   4.632  -0.402   6.849 -0.6219 -0.0411  1.2786
  128OSM    C4F13765   4.714  -0.218   6.944  0.3301 -0.0291  0.5644
  128OSM    H4F13766   4.618  -0.195   6.994 -1.9436 -1.2748 -2.8244
  128OSM    H4G13767   4.773  -0.133   6.904  0.3690  0.9428  2.5911
  128OSM    C5F13768   4.791  -0.302   7.051 -0.0865 -1.0449  0.0834
  128OSM    H5F13769   4.865  -0.365   6.998  1.0751  0.5608 -0.2871
  128OSM    H5G13770   4.712  -0.370   7.090 -1.5501 -0.7411 -2.1283
  128OSM    C6F13771   4.852  -0.204   7.155  0.2564 -0.3196 -0.3727
  128OSM    H6F13772   4.786  -0.114   7.159 -0.4240 -0.7761 -0.9201
  128OSM    H6G13773   4.945  -0.159   7.115 -0.4069  0.2257 -1.3329
  128OSM    C7F13774   4.873  -0.260   7.296  0.1853 -0.4567 -0.9558
  128OSM    H7F13775   4.943  -0.195   7.353 -0.3306 -0.9847  0.3228
  128OSM    H7G13776   4.936  -0.350   7.279 -1.3567 -1.7414 -0.1680
  128OSM    C8F13777   4.741  -0.281   7.377 -0.2892  0.6811  0.0325
  128OSM    H8F13778   4.763  -0.349   7.462 -2.3659  0.1595  0.1965
  128OSM    H8G13779   4.657  -0.335   7.329  0.2437 -0.8113  0.7374
  128OSM    C9F13780   4.694  -0.151   7.432  0.7622  0.0928  0.2673
  128OSM    H9F13781   4.670  -0.084   7.348 -0.9954  0.1851  0.8194
  128OSM   C10F13782   4.690  -0.111   7.559 -0.0310  0.2865 -0.7214
  128OSM   H10F13783   4.645  -0.013   7.580 -0.1762  0.3029 -1.1000
  128OSM   C11F13784   4.726  -0.180   7.686  0.2462  0.0585 -0.7319
  128OSM   H11F13785   4.820  -0.148   7.737 -1.4864 -0.1117  2.9255
  128OSM   H11G13786   4.745  -0.286   7.657 -1.8308  0.1247 -2.6029
  128OSM   C12F13787   4.620  -0.191   7.797 -0.3622 -0.3966 -0.0006
  128OSM   H12F13788   4.647  -0.269   7.871 -1.5067 -2.4699 -1.6655
  128OSM   H12G13789   4.524  -0.218   7.748  0.1725  0.2347 -1.4744
  128OSM   C13F13790   4.596  -0.060   7.880  0.4746  0.2158  0.6609
  128OSM   H13F13791   4.594   0.026   7.809  1.7828 -0.7959 -0.6447
  128OSM   H13G13792   4.679  -0.035   7.949  0.6373  0.6534  0.3160
  128OSM   C14F13793   4.459  -0.066   7.962 -0.3297  0.1226  0.2780
  128OSM   H14F13794   4.453  -0.169   8.003  0.0509  0.6596  1.7393
  128OSM   H14G13795   4.381  -0.052   7.885  2.3085  0.8852 -2.4725
  128OSM   C15F13796   4.445   0.038   8.075  0.0713  0.1666 -0.4435
  128OSM   H15F13797   4.337   0.064   8.076 -0.2373 -0.8240  2.5086
  128OSM   H15G13798   4.490   0.133   8.037  0.0681  0.2720 -0.1890
  128OSM   C16F13799   4.505   0.000   8.210  0.1041 -0.1672  0.3557
  128OSM   H16F13800   4.504   0.091   8.274 -0.2837  0.7852 -0.9817
  128OSM   H16G13801   4.612  -0.028   8.199 -0.4181 -2.1065 -0.2070
  128OSM   C17F13802   4.439  -0.124   8.281  0.4276 -0.7669 -0.3080
  128OSM   H17F13803   4.405  -0.201   8.209 -0.9370  0.8628 -1.5016
  128OSM   H17G13804   4.349  -0.079   8.328  0.6874 -3.3464  3.0326
  128OSM   C18F13805   4.519  -0.182   8.399  0.6821  0.7623 -0.4765
  128OSM   H18F13806   4.615  -0.224   8.361 -0.1479 -0.3073 -1.4600
  128OSM   H18G13807   4.452  -0.261   8.439 -1.3971  1.2214 -2.8121
  128OSM   H18H13808   4.544  -0.099   8.469 -0.1983  0.9075 -0.3241
  129OSM      N13809   0.598   3.781   6.233 -0.4921  0.4556 -0.2994
  129OSM    C1513810   0.505   3.847   6.330  0.4597 -0.2990  0.0398
  129OSM   H15A13811   0.408   3.857   6.283 -0.3925 -2.2976  1.2248
  129OSM   H15B13812   0.554   3.938   6.360 -0.4210  1.0430 -2.2907
  129OSM   H15C13813   0.496   3.789   6.420 -0.6202  0.0373  0.1657
  129OSM    C1413814   0.538   3.657   6.178  0.2367  0.5158  1.1978
  129OSM   H14A13815   0.605   3.597   6.118 -1.0053  0.1034  0.1732
  129OSM   H14B13816   0.451   3.679   6.117  1.0035  1.0611  0.2808
  129OSM   H14C13817   0.516   3.587   6.257 -0.8760 -1.0231 -0.3696
  129OSM    C1313818   0.617   3.877   6.117 -0.1655  0.2129  0.0379
  129OSM   H13A13819   0.675   3.964   6.143 -2.0056  1.3384  0.6556
  129OSM   H13B13820   0.524   3.927   6.092 -0.4950 -1.2140 -1.7599
  129OSM   H13C13821   0.659   3.837   6.027  1.3981 -0.8805  1.1979
  129OSM    C1213822   0.735   3.747   6.306  0.5757 -0.8406  0.2707
  129OSM   H12A13823   0.785   3.841   6.326  0.1428 -0.9494  2.0365
  129OSM   H12B13824   0.782   3.690   6.227  0.4178 -0.3870 -0.1618
  129OSM    C1113825   0.730   3.657   6.429 -0.0956 -0.7702 -0.1578
  129OSM   H11A13826   0.676   3.719   6.503 -0.4035  0.3107 -1.2519
  129OSM   H11B13827   0.835   3.650   6.463  0.4961  0.0561 -1.7117
  129OSM      P13828   0.741   3.422   6.325 -0.0437  0.1303 -0.2447
  129OSM    O1313829   0.658   3.299   6.339 -0.3319  0.3929  0.9299
  129OSM    O1413830   0.782   3.461   6.190  0.3413  0.7517 -0.5500
  129OSM    O1113831   0.879   3.399   6.406  0.0401 -0.8291  0.3807
  129OSM    O1213832   0.656   3.538   6.396  0.0644  0.1646 -0.1568
  129OSM    C1S13833   0.862   3.349   6.537  0.8098 -0.3130  0.2912
  129OSM    H1S13834   0.806   3.254   6.532  1.5636 -0.8585  1.7255
  129OSM    H1T13835   0.802   3.414   6.605  1.3683 -0.3581  0.8304
  129OSM     NF13836   0.964   3.261   6.740  0.1185 -0.0173  0.2979
  129OSM    HNF13837   0.954   3.325   6.816 -1.3794  0.4139 -0.2328
  129OSM    C2S13838   0.997   3.314   6.613  0.1985 -0.1350 -0.2579
  129OSM    H2S13839   1.044   3.235   6.550 -1.4098 -0.5799 -0.9636
  129OSM    C3S13840   1.089   3.439   6.613 -0.5712  0.9011 -0.1823
  129OSM    H3S13841   1.026   3.517   6.663 -2.3328  0.0771 -1.0197
  129OSM     O313842   1.112   3.491   6.484  0.0605 -0.0602 -0.5423
  129OSM    HO313843   1.046   3.449   6.429 -0.2418  1.0622 -1.0704
  129OSM    C4S13844   1.223   3.408   6.684  0.3588 -0.0082  0.5315
  129OSM    H4S13845   1.285   3.323   6.653  1.4121  0.7825  0.4048
  129OSM    C5S13846   1.263   3.495   6.780  0.2866  0.1175  1.0307
  129OSM    H5S13847   1.212   3.591   6.800  1.5938  1.7312 -2.4293
  129OSM    C6S13848   1.396   3.495   6.846  0.1688  0.0532  0.5861
  129OSM    H6S13849   1.428   3.600   6.829 -1.3040  0.3631 -0.4244
  129OSM    H6T13850   1.470   3.423   6.805  0.3414 -1.2265  2.9425
  129OSM    C7S13851   1.381   3.465   6.999  0.6919  0.0628  0.2603
  129OSM    H7S13852   1.329   3.369   7.020  1.0309  0.2917  2.3005
  129OSM    H7T13853   1.324   3.542   7.055  0.7501 -0.4804  1.0969
  129OSM    C8S13854   1.513   3.441   7.066 -0.4263 -0.2317  0.4315
  129OSM    H8S13855   1.578   3.529   7.048 -1.2395  0.4568  0.7906
  129OSM    H8T13856   1.563   3.357   7.013  0.3891 -0.9657  2.2895
  129OSM    C9S13857   1.505   3.413   7.215 -0.6201  0.0318 -0.2141
  129OSM    H9S13858   1.457   3.314   7.222 -3.1434  1.0961 -1.3032
  129OSM    H9T13859   1.456   3.494   7.274  1.4609 -0.6014  2.6328
  129OSM   C10S13860   1.642   3.397   7.285  0.3147  0.0997 -0.9685
  129OSM   H10S13861   1.706   3.481   7.251  0.0829  0.0213 -1.6187
  129OSM   H10T13862   1.690   3.300   7.261  1.1324  0.7800 -2.2122
  129OSM   C11S13863   1.622   3.408   7.445 -0.0503 -0.3500  0.8384
  129OSM   H11S13864   1.600   3.512   7.479  0.1552 -0.5362  1.5712
  129OSM   H11T13865   1.714   3.376   7.498 -1.0807 -4.3521  0.5108
  129OSM   C12S13866   1.512   3.317   7.492  0.6613 -0.4595 -0.2755
  129OSM   H12S13867   1.531   3.210   7.469  0.7589 -0.8129  1.3402
  129OSM   H12T13868   1.419   3.353   7.443 -0.2772 -0.0758  1.6865
  129OSM   C13S13869   1.509   3.328   7.647 -0.3357  0.4617 -0.5397
  129OSM   H13S13870   1.408   3.304   7.685  0.2285 -0.2737  0.5690
  129OSM   H13T13871   1.527   3.429   7.689 -2.1238  0.4305  0.3967
  129OSM   C14S13872   1.610   3.227   7.719  0.4490 -0.5459 -0.0761
  129OSM   H14S13873   1.711   3.271   7.708  1.1544 -1.8598  0.8667
  129OSM   H14T13874   1.609   3.131   7.662  2.0753  1.1864 -3.2624
  129OSM   C15S13875   1.570   3.204   7.861 -0.4219  0.1684 -0.3021
  129OSM   H15S13876   1.646   3.128   7.891 -0.5414 -0.4692 -1.5417
  129OSM   H15T13877   1.473   3.149   7.864  0.7091 -1.9957 -0.9971
  129OSM   C16S13878   1.570   3.331   7.943 -0.4307  0.1301 -0.2952
  129OSM   H16S13879   1.482   3.390   7.909  0.4292  1.4637 -0.2708
  129OSM   H16T13880   1.669   3.379   7.925 -0.0430 -0.0421  1.2307
  129OSM   C17S13881   1.546   3.307   8.089  0.0335  0.5453 -0.3130
  129OSM   H17S13882   1.631   3.251   8.133 -0.6667 -0.2512  0.0443
  129OSM   H17T13883   1.450   3.253   8.087  0.2590  0.1081  0.4766
  129OSM   C18S13884   1.538   3.442   8.156  0.1115 -0.3837 -1.2793
  129OSM   H18S13885   1.469   3.523   8.125 -0.0265 -0.4116 -1.0509
  129OSM   H18T13886   1.640   3.486   8.162  1.0070 -2.4001 -1.0541
  129OSM   H18U13887   1.493   3.428   8.257  0.4383 -3.4688 -1.4806
  129OSM    C1F13888   0.930   3.137   6.762 -0.3781  0.3408 -0.1845
  129OSM     OF13889   0.938   3.048   6.676  0.3595 -0.0463  0.0895
  129OSM    C2F13890   0.878   3.105   6.901 -1.1216 -0.3786  0.7521
  129OSM    H2F13891   0.774   3.066   6.895 -1.4787  0.7408 -0.9361
  129OSM    H2G13892   0.885   3.196   6.965  0.6671  0.0288  0.0517
  129OSM    C3F13893   0.964   2.997   6.976 -0.7006 -0.5790  0.3341
  129OSM    H3F13894   0.952   2.895   6.934  0.3274 -0.7934  0.5281
  129OSM    H3G13895   0.920   2.991   7.078 -1.0731  1.5003  0.3474
  129OSM    C4F13896   1.114   3.041   6.977 -0.8746  0.5581 -0.5664
  129OSM    H4F13897   1.132   3.145   7.011 -0.2851 -0.0811  1.2201
  129OSM    H4G13898   1.163   3.022   6.879 -1.0960 -2.0217 -0.2671
  129OSM    C5F13899   1.201   2.965   7.084  1.5146 -0.1558  0.5220
  129OSM    H5F13900   1.309   2.987   7.074  1.6550  0.0100  2.1137
  129OSM    H5G13901   1.175   2.860   7.058 -1.7959  0.7711 -0.3922
  129OSM    C6F13902   1.167   2.996   7.232 -0.0551  0.0862 -0.3743
  129OSM    H6F13903   1.062   2.963   7.249 -0.1073  0.5754  0.2940
  129OSM    H6G13904   1.162   3.102   7.262 -3.3615 -0.5773  2.0299
  129OSM    C7F13905   1.248   2.925   7.347  0.5627 -0.4703  0.8680
  129OSM    H7F13906   1.354   2.951   7.327  0.9873 -0.0319  3.3815
  129OSM    H7G13907   1.229   2.816   7.332 -1.4338  0.0060 -0.4234
  129OSM    C8F13908   1.209   2.975   7.490  0.4479 -0.6117 -0.5215
  129OSM    H8F13909   1.113   2.925   7.514  1.2973 -2.1802 -0.3149
  129OSM    H8G13910   1.186   3.083   7.476  2.0968 -0.4333 -2.4196
  129OSM    C9F13911   1.312   2.964   7.595 -0.8967  0.4248 -0.1761
  129OSM    H9F13912   1.414   2.988   7.562 -0.8865 -2.1074 -2.3452
  129OSM   C10F13913   1.300   2.913   7.724  0.1838  0.9501  0.4620
  129OSM   H10F13914   1.383   2.906   7.796  0.9834  1.0604 -0.4349
  129OSM   C11F13915   1.172   2.856   7.784  0.7873 -0.6241 -1.0255
  129OSM   H11F13916   1.172   2.746   7.798 -2.5240 -0.7623 -1.2694
  129OSM   H11G13917   1.085   2.882   7.720 -0.3155 -3.5399 -0.8847
  129OSM   C12F13918   1.138   2.919   7.925  0.3447 -0.1177  0.3456
  129OSM   H12F13919   1.031   2.901   7.949  0.6206 -0.3007  1.5389
  129OSM   H12G13920   1.154   3.029   7.924  0.3103 -0.1179 -0.2573
  129OSM   C13F13921   1.230   2.856   8.027 -1.1960  0.5358 -0.2068
  129OSM   H13F13922   1.335   2.854   7.992 -0.7191 -0.3427  1.2171
  129OSM   H13G13923   1.205   2.750   8.047  1.0903  0.1730  1.0759
  129OSM   C14F13924   1.226   2.908   8.174 -0.6712 -0.8756  0.0161
  129OSM   H14F13925   1.273   2.839   8.247  0.7077 -1.0621 -1.0006
  129OSM   H14G13926   1.117   2.919   8.190 -0.5667  1.3104 -0.4131
  129OSM   C15F13927   1.310   3.036   8.193 -0.0593 -0.0541  0.2532
  129OSM   H15F13928   1.249   3.118   8.148  1.8732  1.2232 -0.1741
  129OSM   H15G13929   1.399   3.035   8.127 -0.0643  3.2408  0.0160
  129OSM   C16F13930   1.355   3.083   8.336 -0.2858  0.5998 -0.7405
  129OSM   H16F13931   1.429   3.165   8.332  3.2606 -2.3459 -1.0940
  129OSM   H16G13932   1.413   3.005   8.390 -2.7871  0.2131  1.6183
  129OSM   C17F13933   1.238   3.109   8.426  1.0543 -0.5207 -0.1055
  129OSM   H17F13934   1.270   3.106   8.532  2.6215 -0.1353 -0.5346
  129OSM   H17G13935   1.159   3.033   8.409  0.4419  0.1040 -0.1068
  129OSM   C18F13936   1.176   3.252   8.404 -0.1239 -0.0220  0.1775
  129OSM   H18F13937   1.240   3.315   8.469 -1.1239  0.1650  1.0006
  129OSM   H18G13938   1.071   3.249   8.442 -0.3535 -0.4267 -0.4603
  129OSM   H18H13939   1.177   3.275   8.295 -2.2424 -0.3318  0.0332
  130OSM      N13940   5.437   6.353   6.009  0.0010 -0.1124 -0.0924
  130OSM    C1513941   5.422   6.457   5.893  0.0855 -0.2379  0.2399
  130OSM   H15A13942   5.321   6.494   5.885  0.2865  0.7452  1.9789
  130OSM   H15B13943   5.457   6.409   5.803 -0.5220 -0.7455  0.2682
  130OSM   H15C13944   5.490   6.538   5.914 -1.0481  0.3632  1.7722
  130OSM    C1413945   5.351   6.236   5.977 -0.2541 -0.1361  0.0651
  130OSM   H14A13946   5.246   6.260   5.972  0.2962  2.5239 -4.1795
  130OSM   H14B13947   5.372   6.151   6.040  1.5285  0.3180  0.1583
  130OSM   H14C13948   5.382   6.193   5.883  2.8803 -0.7604  1.2627
  130OSM    C1313949   5.585   6.307   6.024  0.2881 -0.5651  0.8294
  130OSM   H13A13950   5.612   6.287   6.126  0.7111  2.6795  1.4531
  130OSM   H13B13951   5.649   6.388   5.994  0.0995 -1.4433 -2.3461
  130OSM   H13C13952   5.607   6.228   5.953 -1.1211 -0.7754  0.5974
  130OSM    C1213953   5.392   6.418   6.139 -0.4068 -0.0901 -0.7828
  130OSM   H12A13954   5.452   6.505   6.160 -0.6279 -0.2135  0.4991
  130OSM   H12B13955   5.419   6.356   6.224  1.1969  0.1391 -1.0961
  130OSM    C1113956   5.242   6.450   6.154  0.2856 -0.1084  0.1210
  130OSM   H11A13957   5.212   6.502   6.060 -2.7325  0.1143  1.0804
  130OSM   H11B13958   5.232   6.526   6.234 -1.6230  0.6284 -0.7437
  130OSM      P13959   5.157   6.278   6.321  0.1848  0.2593 -0.2923
  130OSM    O1313960   5.022   6.320   6.378 -0.5959  0.1187  0.5501
  130OSM    O1413961   5.173   6.130   6.317 -0.0122 -0.5013 -0.0502
  130OSM    O1113962   5.284   6.333   6.402  0.1465 -0.4555 -0.3709
  130OSM    O1213963   5.173   6.326   6.174  0.1708  0.4038 -0.4811
  130OSM    C1S13964   5.291   6.418   6.514  0.7264  0.2146 -0.1871
  130OSM    H1S13965   5.194   6.464   6.542  0.4918  0.3671 -1.2190
  130OSM    H1T13966   5.369   6.494   6.491  0.5880  0.1229 -0.9732
  130OSM     NF13967   5.331   6.419   6.764  0.2553 -0.0736  0.1581
  130OSM    HNF13968   5.413   6.460   6.803  0.8144  0.7345 -1.7270
  130OSM    C2S13969   5.345   6.345   6.642 -0.3905  0.5871  0.0285
  130OSM    H2S13970   5.286   6.251   6.652  0.2151 -0.0044 -1.5921
  130OSM    C3S13971   5.493   6.307   6.607 -0.3891 -0.3121  0.0256
  130OSM    H3S13972   5.552   6.397   6.581 -1.4582  0.4353  0.0945
  130OSM     O313973   5.498   6.215   6.501 -0.0458 -0.2549  0.2759
  130OSM    HO313974   5.412   6.222   6.459 -0.7158 -1.1001  1.4639
  130OSM    C4S13975   5.555   6.238   6.726 -0.4453  0.1989  1.1735
  130OSM    H4S13976   5.540   6.130   6.730 -1.0597  0.2560  0.6016
  130OSM    C5S13977   5.632   6.293   6.814  0.0014 -0.2816 -0.5312
  130OSM    H5S13978   5.656   6.400   6.814  0.4994 -0.3887 -0.1451
  130OSM    C6S13979   5.677   6.217   6.937 -0.4321 -0.2589 -0.7728
  130OSM    H6S13980   5.646   6.291   7.014  1.9237  0.7184 -0.6958
  130OSM    H6T13981   5.787   6.204   6.943 -0.5514 -1.5913 -1.0729
  130OSM    C7S13982   5.605   6.085   6.963 -0.1937  0.1551  0.7370
  130OSM    H7S13983   5.627   6.020   6.876  0.5865  2.3462 -0.7918
  130OSM    H7T13984   5.495   6.100   6.965 -1.0237 -3.7650 -2.3995
  130OSM    C8S13985   5.655   6.011   7.082 -0.3120 -0.9161 -0.9107
  130OSM    H8S13986   5.766   6.007   7.088 -0.3170 -1.8060 -1.2392
  130OSM    H8T13987   5.623   5.906   7.067  0.8666 -1.5909  0.9363
  130OSM    C9S13988   5.597   6.051   7.223  0.0539  0.1119 -0.7497
  130OSM    H9S13989   5.489   6.025   7.226  0.3468 -1.1107  0.6533
  130OSM    H9T13990   5.608   6.161   7.220 -3.0983  0.4996 -1.7209
  130OSM   C10S13991   5.669   5.998   7.341 -0.6722  0.2123  1.6022
  130OSM   H10S13992   5.763   6.049   7.371 -0.0540 -0.4701  0.8699
  130OSM   H10T13993   5.713   5.898   7.318 -0.0385  0.9573 -0.7699
  130OSM   C11S13994   5.583   6.001   7.468  0.1943 -0.1904  0.3881
  130OSM   H11S13995   5.498   5.930   7.454  0.7283 -0.4605 -1.9194
  130OSM   H11T13996   5.546   6.106   7.476 -0.2563 -0.0328 -2.5186
  130OSM   C12S13997   5.657   5.954   7.580 -0.0804  0.4113 -0.4003
  130OSM   H12S13998   5.756   6.004   7.582 -0.5323  1.3353  1.2837
  130OSM   H12T13999   5.678   5.846   7.568 -0.0634  0.3082  0.4473
  130OSM   C13S14000   5.581   5.959   7.709  0.4378 -0.0791  0.0462
  130OSM   H13S14001   5.485   5.910   7.684  1.0590 -2.0120  1.2319
  130OSM   H13T14002   5.561   6.063   7.740  1.5005  0.4235 -0.8750
  130OSM   C14S14003   5.656   5.884   7.823  0.1196 -0.2879 -0.4191
  130OSM   H14S14004   5.749   5.938   7.852 -0.7703  1.2748 -0.3643
  130OSM   H14T14005   5.692   5.783   7.794  3.9225  0.0455  2.3234
  130OSM   C15S14006   5.570   5.875   7.953 -0.4368 -0.2088 -0.6374
  130OSM   H15S14007   5.488   5.801   7.941  0.4154 -2.4133  4.2853
  130OSM   H15T14008   5.525   5.975   7.967  2.2919  1.2696 -1.6967
  130OSM   C16S14009   5.655   5.827   8.071  0.1561 -0.5613 -0.6018
  130OSM   H16S14010   5.729   5.909   8.088 -1.6114  0.8900  0.3797
  130OSM   H16T14011   5.715   5.735   8.052  0.6699 -0.0699 -1.4949
  130OSM   C17S14012   5.574   5.816   8.198  0.3757 -0.5552  0.2395
  130OSM   H17S14013   5.487   5.748   8.183 -0.9532  1.6985 -4.0165
  130OSM   H17T14014   5.518   5.911   8.210  0.9082  0.4006 -3.4705
  130OSM   C18S14015   5.653   5.780   8.321 -0.4752  0.0560  0.1251
  130OSM   H18S14016   5.692   5.677   8.314 -2.2437 -0.6525  0.0782
  130OSM   H18T14017   5.580   5.770   8.404  0.3570 -0.9662  0.7438
  130OSM   H18U14018   5.732   5.854   8.345 -0.4380  0.6386 -1.6389
  130OSM    C1F14019   5.210   6.450   6.818  0.0053  0.4494 -0.0864
  130OSM     OF14020   5.103   6.409   6.768 -0.4623 -0.1899  0.1319
  130OSM    C2F14021   5.219   6.537   6.939  0.4380  0.3166  0.0008
  130OSM    H2F14022   5.121   6.588   6.948  0.1776 -0.0772 -0.5252
  130OSM    H2G14023   5.290   6.622   6.928  0.7354  0.0299 -0.3246
  130OSM    C3F14024   5.248   6.456   7.070 -0.6189  0.1646  0.9707
  130OSM    H3F14025   5.351   6.415   7.064 -0.4204  0.8088 -0.4676
  130OSM    H3G14026   5.175   6.372   7.074 -0.7413  0.2415  0.4342
  130OSM    C4F14027   5.244   6.536   7.198 -0.3217  0.3816  0.2163
  130OSM    H4F14028   5.142   6.569   7.226 -0.3890  0.0575  0.3587
  130OSM    H4G14029   5.296   6.633   7.181 -0.0848  0.2708  0.3044
  130OSM    C5F14030   5.311   6.476   7.335  0.2265  0.2455  0.8520
  130OSM    H5F14031   5.317   6.561   7.406  0.3180  0.5595  0.4744
  130OSM    H5G14032   5.412   6.434   7.314 -0.1349 -0.9978  1.5143
  130OSM    C6F14033   5.227   6.374   7.407 -0.0098  0.6211 -0.8817
  130OSM    H6F14034   5.194   6.303   7.327 -0.6127 -0.3938  0.2425
  130OSM    H6G14035   5.135   6.422   7.446  0.1567  1.4635 -1.4950
  130OSM    C7F14036   5.295   6.299   7.513  0.4897 -0.0203 -0.5022
  130OSM    H7F14037   5.382   6.247   7.467 -0.6267 -2.1703 -0.3515
  130OSM    H7G14038   5.225   6.215   7.534  1.8126 -2.1512 -3.7803
  130OSM    C8F14039   5.330   6.381   7.634 -0.4111 -0.1815 -1.0638
  130OSM    H8F14040   5.367   6.482   7.605  1.4588 -0.1993  1.0508
  130OSM    H8G14041   5.404   6.327   7.696 -0.7146 -0.1917 -0.7038
  130OSM    C9F14042   5.211   6.414   7.722  0.0297 -0.2289 -0.3927
  130OSM    H9F14043   5.162   6.504   7.681  0.5388 -0.7677 -2.3099
  130OSM   C10F14044   5.170   6.346   7.829  0.5982 -0.1678  0.0044
  130OSM   H10F14045   5.085   6.369   7.895 -0.5256 -2.6008 -0.5042
  130OSM   C11F14046   5.236   6.220   7.881  0.4142  0.1435  0.3297
  130OSM   H11F14047   5.320   6.189   7.815 -1.9450 -2.6956 -1.5710
  130OSM   H11G14048   5.155   6.144   7.872  0.1062  0.4012  0.8568
  130OSM   C12F14049   5.287   6.205   8.025  0.6264 -0.1563 -0.3096
  130OSM   H12F14050   5.328   6.104   8.048 -1.7971 -1.3585 -1.0069
  130OSM   H12G14051   5.199   6.221   8.090  0.3350 -0.0468 -0.7307
  130OSM   C13F14052   5.395   6.309   8.070  0.0340  0.1474 -0.7008
  130OSM   H13F14053   5.362   6.414   8.085  1.0355  0.3457  0.2299
  130OSM   H13G14054   5.471   6.315   7.989  3.5755  1.9559  2.4443
  130OSM   C14F14055   5.467   6.277   8.201  0.2891  0.0313  0.0419
  130OSM   H14F14056   5.542   6.355   8.228  1.2581 -0.1284 -1.9716
  130OSM   H14G14057   5.528   6.185   8.191 -1.1146 -1.2019  2.1655
  130OSM   C15F14058   5.371   6.255   8.315  0.2870 -0.0549  0.5289
  130OSM   H15F14059   5.284   6.191   8.289 -2.0018  2.5231  1.3468
  130OSM   H15G14060   5.330   6.352   8.350  1.8636  1.6895 -2.1326
  130OSM   C16F14061   5.443   6.184   8.433  0.7877 -0.0880  0.2787
  130OSM   H16F14062   5.494   6.096   8.388 -2.9379 -1.4150 -1.8941
  130OSM   H16G14063   5.372   6.146   8.510  3.3017 -1.1974  2.2024
  130OSM   C17F14064   5.558   6.264   8.497  0.0601  0.4690 -1.2167
  130OSM   H17F14065   5.518   6.366   8.513 -2.3815 -0.5356 -0.4284
  130OSM   H17G14066   5.641   6.270   8.423  0.6695  1.3987 -0.4887
  130OSM   C18F14067   5.594   6.202   8.629  0.2105 -0.0401 -0.3721
  130OSM   H18F14068   5.693   6.245   8.655 -0.1715  1.2052 -0.9097
  130OSM   H18G14069   5.601   6.092   8.619 -0.3643 -0.0905 -0.2566
  130OSM   H18H14070   5.519   6.219   8.709 -2.2690 -0.5663 -2.4626
  131OSM      N14071   4.070   2.684   6.229 -0.2370 -0.9060 -0.6216
  131OSM    C1514072   4.206   2.687   6.169 -0.5179 -0.7036 -0.2744
  131OSM   H15A14073   4.229   2.598   6.112  2.1188  0.8814 -1.8980
  131OSM   H15B14074   4.286   2.679   6.241 -0.5810  3.2353  0.4531
  131OSM   H15C14075   4.233   2.771   6.107  1.7473 -1.2375 -0.0895
  131OSM    C1414076   4.065   2.783   6.335  0.0994 -0.7744  0.0463
  131OSM   H14A14077   4.132   2.867   6.329  2.7348 -2.6790  0.8190
  131OSM   H14B14078   4.091   2.726   6.423 -0.4374 -1.2126 -0.0704
  131OSM   H14C14079   3.967   2.829   6.341  0.9164  0.9659  0.8348
  131OSM    C1314080   3.979   2.734   6.118  0.4612 -0.0269  1.2193
  131OSM   H13A14081   3.885   2.771   6.156  0.0955  1.1400 -0.6792
  131OSM   H13B14082   3.953   2.648   6.057  0.4988  0.7254  0.1160
  131OSM   H13C14083   4.036   2.807   6.064 -0.5668 -0.0530  0.0543
  131OSM    C1214084   4.043   2.541   6.266  0.0733  0.7460 -0.0729
  131OSM   H12A14085   3.937   2.525   6.260  0.3475 -1.0400 -0.7153
  131OSM   H12B14086   4.081   2.523   6.365 -0.5367 -0.5046 -0.0577
  131OSM    C1114087   4.099   2.433   6.170  0.0629 -0.2982  0.1038
  131OSM   H11A14088   4.084   2.471   6.066 -2.0101  0.2193  0.5373
  131OSM   H11B14089   4.038   2.340   6.180 -0.6931  0.3960  3.0602
  131OSM      P14090   4.302   2.310   6.273  0.1566  0.1584 -0.2118
  131OSM    O1314091   4.288   2.175   6.218 -0.1049  0.6514 -0.2227
  131OSM    O1414092   4.438   2.352   6.310  0.0493 -0.2620  0.1415
  131OSM    O1114093   4.203   2.326   6.399 -0.0480 -0.2117  0.0697
  131OSM    O1214094   4.245   2.419   6.177  0.5048 -0.4731 -0.2849
  131OSM    C1S14095   4.104   2.232   6.438  0.3280  0.8579 -0.3556
  131OSM    H1S14096   4.110   2.143   6.372  0.2441 -0.0830  0.8685
  131OSM    H1T14097   4.001   2.269   6.422  0.1015  0.3717 -0.0486
  131OSM     NF14098   4.040   2.081   6.619  0.3087 -0.5258 -0.5652
  131OSM    HNF14099   3.974   2.089   6.694  0.2666 -0.2646 -0.6295
  131OSM    C2S14100   4.122   2.197   6.584  0.6327  0.1068 -0.2124
  131OSM    H2S14101   4.230   2.175   6.592  0.6506  0.2231 -0.1162
  131OSM    C3S14102   4.107   2.327   6.678  0.0498 -0.6407 -0.4650
  131OSM    H3S14103   3.999   2.353   6.684  0.3590  0.5833 -0.0957
  131OSM     O314104   4.160   2.452   6.624 -0.6944  0.2868  0.1754
  131OSM    HO314105   4.170   2.423   6.533 -3.6309  2.4706 -1.0013
  131OSM    C4S14106   4.168   2.297   6.817 -0.3107 -0.4811  0.8332
  131OSM    H4S14107   4.262   2.241   6.806 -0.5370 -0.6105 -0.7377
  131OSM    C5S14108   4.116   2.319   6.938 -0.2679  0.1430 -0.0326
  131OSM    H5S14109   4.016   2.366   6.936  0.9805  3.0322 -1.5566
  131OSM    C6S14110   4.174   2.288   7.072  0.2909  0.5368  0.3597
  131OSM    H6S14111   4.087   2.245   7.126 -1.2423  2.4828 -0.4552
  131OSM    H6T14112   4.217   2.378   7.120  3.0795 -0.3989 -0.1971
  131OSM    C7S14113   4.303   2.197   7.071  0.4259  0.7611  0.5426
  131OSM    H7S14114   4.378   2.253   7.011 -2.8126  1.5595 -3.1662
  131OSM    H7T14115   4.280   2.101   7.022 -3.1557  1.6393  0.2069
  131OSM    C8S14116   4.363   2.179   7.209  0.3074  1.0107  0.0293
  131OSM    H8S14117   4.408   2.276   7.241 -2.2722  2.8698 -1.6514
  131OSM    H8T14118   4.440   2.101   7.225  0.5886  1.0468 -1.1227
  131OSM    C9S14119   4.262   2.127   7.315  0.0910  0.1599 -0.3963
  131OSM    H9S14120   4.230   2.024   7.285 -0.2155  0.0124  0.4104
  131OSM    H9T14121   4.169   2.187   7.327  0.8553  1.0399  1.5832
  131OSM   C10S14122   4.326   2.113   7.457 -0.0034 -0.1272  0.4515
  131OSM   H10S14123   4.368   2.210   7.493 -0.2294 -0.5180  1.8107
  131OSM   H10T14124   4.409   2.039   7.456  0.5303  0.4447 -0.7734
  131OSM   C11S14125   4.234   2.047   7.559 -0.1692 -0.0355 -0.4369
  131OSM   H11S14126   4.200   1.947   7.526 -0.5136 -0.5611  1.4360
  131OSM   H11T14127   4.148   2.110   7.590  1.9158  3.3607 -0.9330
  131OSM   C12S14128   4.305   2.031   7.693 -0.6689  0.0180  0.8774
  131OSM   H12S14129   4.341   2.130   7.729  0.3145  0.2001 -0.5446
  131OSM   H12T14130   4.392   1.965   7.673 -0.8506  0.5704 -2.1720
  131OSM   C13S14131   4.210   1.975   7.800  0.2701 -0.5438  0.2084
  131OSM   H13S14132   4.184   1.875   7.760  1.1074 -0.2347 -1.1753
  131OSM   H13T14133   4.126   2.048   7.805  0.3291 -0.5481  1.5943
  131OSM   C14S14134   4.271   1.959   7.937 -0.1837 -0.4601 -0.4992
  131OSM   H14S14135   4.317   2.056   7.966  0.3545  0.0035 -2.7086
  131OSM   H14T14136   4.363   1.896   7.926 -0.3266 -0.8084  0.2414
  131OSM   C15S14137   4.173   1.905   8.040  0.5629 -0.0090 -0.2066
  131OSM   H15S14138   4.140   1.802   8.016 -1.1092  0.0972  1.4042
  131OSM   H15T14139   4.083   1.970   8.040 -0.5438 -1.4059 -2.3415
  131OSM   C16S14140   4.237   1.898   8.175  0.6534  0.5684 -0.7208
  131OSM   H16S14141   4.265   2.001   8.206  1.7901  0.6856 -2.0376
  131OSM   H16T14142   4.329   1.837   8.166 -0.5410 -1.8937  2.0320
  131OSM   C17S14143   4.158   1.846   8.286  0.4558  0.0826  0.0651
  131OSM   H17S14144   4.126   1.743   8.261 -3.4473  1.2795 -0.7352
  131OSM   H17T14145   4.063   1.905   8.284  1.3326  1.5578 -2.6425
  131OSM   C18S14146   4.232   1.838   8.421 -0.4227  0.4304  0.2153
  131OSM   H18S14147   4.167   1.803   8.505  1.2109  0.9749  1.7805
  131OSM   H18T14148   4.283   1.933   8.447  2.0115 -0.7234 -0.1307
  131OSM   H18U14149   4.319   1.770   8.407 -0.4493  0.3271  0.5296
  131OSM    C1F14150   4.062   1.957   6.566 -0.1776 -0.3996  0.3561
  131OSM     OF14151   4.168   1.939   6.506  0.0777 -0.0268  0.1291
  131OSM    C2F14152   3.958   1.854   6.587  0.4252 -0.0339  0.2769
  131OSM    H2F14153   3.910   1.826   6.490  0.2177 -1.0175  0.6553
  131OSM    H2G14154   3.870   1.897   6.639  0.4772 -0.2211  0.5216
  131OSM    C3F14155   4.010   1.726   6.655 -0.2696  0.5214 -0.9169
  131OSM    H3F14156   4.112   1.701   6.619  0.0918  1.2952 -0.4725
  131OSM    H3G14157   3.939   1.648   6.621  1.4000 -0.5708 -2.0333
  131OSM    C4F14158   4.004   1.739   6.813 -0.0748 -0.1496 -0.9093
  131OSM    H4F14159   4.003   1.636   6.855  0.1670  0.0910 -0.3033
  131OSM    H4G14160   3.908   1.786   6.843  0.3819  0.2486 -0.0408
  131OSM    C5F14161   4.123   1.831   6.868  1.3710 -0.5578 -0.1471
  131OSM    H5F14162   4.103   1.934   6.830  0.8469 -0.9407 -0.9498
  131OSM    H5G14163   4.217   1.780   6.841  2.4765  1.7587 -1.0089
  131OSM    C6F14164   4.122   1.841   7.025  0.1789  0.0957  0.5455
  131OSM    H6F14165   4.033   1.899   7.058 -0.3473  0.4806 -1.4149
  131OSM    H6G14166   4.213   1.902   7.040 -0.1169  0.8257 -0.5778
  131OSM    C7F14167   4.131   1.714   7.095  0.5053  0.5520 -0.2887
  131OSM    H7F14168   4.228   1.664   7.074 -0.1824 -0.0915 -2.1621
  131OSM    H7G14169   4.046   1.648   7.066  0.9239  0.2907 -0.9521
  131OSM    C8F14170   4.115   1.730   7.250  0.1484 -0.3006  0.6706
  131OSM    H8F14171   4.019   1.780   7.273  0.8025  1.7713 -0.7341
  131OSM    H8G14172   4.189   1.809   7.276  0.4508 -0.4488  0.2751
  131OSM    C9F14173   4.135   1.605   7.324  0.4938  0.6134  0.6761
  131OSM    H9F14174   4.229   1.551   7.308  2.1240  3.4285  0.1504
  131OSM   C10F14175   4.044   1.556   7.420 -0.1371  0.5444 -0.0940
  131OSM   H10F14176   4.054   1.456   7.464 -0.8544  0.3198 -0.4216
  131OSM   C11F14177   3.913   1.626   7.458 -0.2113 -0.1801 -0.5606
  131OSM   H11F14178   3.840   1.550   7.494  0.0650 -0.7365 -1.1521
  131OSM   H11G14179   3.862   1.664   7.368 -1.8894  0.0992  0.4548
  131OSM   C12F14180   3.937   1.734   7.563 -0.1569  0.2621  0.0126
  131OSM   H12F14181   4.007   1.818   7.542  2.2270 -1.4319  0.7320
  131OSM   H12G14182   3.987   1.683   7.648 -1.5919 -1.3728 -0.0710
  131OSM   C13F14183   3.806   1.807   7.606  0.1204  0.0899 -0.6836
  131OSM   H13F14184   3.718   1.740   7.611  0.3659 -0.1171  1.5635
  131OSM   H13G14185   3.794   1.887   7.530  3.0834  1.6194  0.2827
  131OSM   C14F14186   3.820   1.884   7.736  1.2473  0.3307  0.2253
  131OSM   H14F14187   3.910   1.948   7.735  0.6573  1.3541  3.2222
  131OSM   H14G14188   3.833   1.803   7.811 -0.0686 -0.4836 -0.3775
  131OSM   C15F14189   3.687   1.964   7.753  0.2638 -0.5408  0.0388
  131OSM   H15F14190   3.609   1.919   7.688 -0.3260 -0.2316  0.5135
  131OSM   H15G14191   3.695   2.071   7.725 -1.5258 -1.0088 -2.5867
  131OSM   C16F14192   3.652   1.966   7.899  0.9256 -0.4589 -0.3844
  131OSM   H16F14193   3.648   1.862   7.939  0.6685 -0.8378 -1.3518
  131OSM   H16G14194   3.551   2.010   7.915  1.7450  2.8507 -3.2714
  131OSM   C17F14195   3.750   2.059   7.968 -0.6564 -0.0059 -0.3905
  131OSM   H17F14196   3.709   2.161   7.981  0.3696  0.2703  0.9140
  131OSM   H17G14197   3.840   2.074   7.904 -0.0445 -1.9913 -0.0530
  131OSM   C18F14198   3.800   2.003   8.100 -0.0692  0.2087 -0.4523
  131OSM   H18F14199   3.865   1.915   8.079  1.2100  0.7197  1.1574
  131OSM   H18G14200   3.714   1.977   8.164 -1.0245 -0.2882 -1.8760
  131OSM   H18H14201   3.868   2.074   8.151  0.6094  0.2420 -1.3651
  132OSM      N14202   5.321   2.583   6.282  0.9931  0.5503  0.0529
  132OSM    C1514203   5.255   2.570   6.415  0.2757  0.2868 -0.1656
  132OSM   H15A14204   5.160   2.619   6.429  0.3252  0.7179 -1.2038
  132OSM   H15B14205   5.316   2.624   6.486  0.1800  0.1910 -0.0100
  132OSM   H15C14206   5.246   2.465   6.442 -0.6001  0.6407  0.9667
  132OSM    C1414207   5.356   2.728   6.258  0.3008  0.8137 -0.0126
  132OSM   H14A14208   5.407   2.746   6.164  1.5287 -0.6997  0.3147
  132OSM   H14B14209   5.429   2.750   6.334  2.2880 -1.3413 -1.1521
  132OSM   H14C14210   5.271   2.794   6.261  0.4513  1.3745 -3.4385
  132OSM    C1314211   5.450   2.499   6.286  1.1801 -0.3695  0.0589
  132OSM   H13A14212   5.493   2.499   6.187  0.2607  0.0453 -0.3499
  132OSM   H13B14213   5.435   2.396   6.314 -1.7928  0.2915  1.2817
  132OSM   H13C14214   5.514   2.537   6.364 -0.4158  1.4233  0.5601
  132OSM    C1214215   5.224   2.531   6.177 -0.1641 -0.0142  1.0209
  132OSM   H12A14216   5.280   2.525   6.084  0.5171  0.8453  1.3561
  132OSM   H12B14217   5.139   2.596   6.166 -1.8387 -2.4862 -2.6797
  132OSM    C1114218   5.158   2.392   6.187  0.5192  0.0454  0.7550
  132OSM   H11A14219   5.100   2.380   6.093 -0.6660 -0.9941  1.5825
  132OSM   H11B14220   5.090   2.377   6.273 -1.2300 -1.2116 -0.7450
  132OSM      P14221   5.290   2.188   6.291 -0.5204  0.1695 -0.0619
  132OSM    O1314222   5.245   2.065   6.228 -0.1625 -0.0734  0.3716
  132OSM    O1414223   5.430   2.202   6.339 -0.2128  0.0100 -0.5845
  132OSM    O1114224   5.196   2.226   6.415  0.2606 -0.5863 -0.1677
  132OSM    O1214225   5.263   2.295   6.184  0.8453 -1.2811 -0.3676
  132OSM    C1S14226   5.212   2.140   6.534 -0.0469  0.2195  0.0873
  132OSM    H1S14227   5.319   2.129   6.560  0.4007 -0.4302 -1.8919
  132OSM    H1T14228   5.173   2.037   6.519  0.3564 -0.1410  1.3912
  132OSM     NF14229   5.167   2.138   6.771  0.3163  0.1838  0.3271
  132OSM    HNF14230   5.147   2.042   6.789 -1.9245  0.7714  1.4079
  132OSM    C2S14231   5.125   2.204   6.651 -0.4425  1.2909 -0.5633
  132OSM    H2S14232   5.128   2.314   6.663 -2.3111  1.1481  1.8642
  132OSM    C3S14233   4.971   2.186   6.616  0.1325 -0.0093  0.6580
  132OSM    H3S14234   4.954   2.076   6.607 -0.0250  0.0183  0.6353
  132OSM     O314235   4.932   2.249   6.489 -0.0391 -0.3278 -0.1418
  132OSM    HO314236   5.019   2.261   6.451  1.2237 -1.7721  2.1135
  132OSM    C4S14237   4.883   2.239   6.720 -0.4918 -0.2270 -0.2924
  132OSM    H4S14238   4.889   2.349   6.730  1.2121 -0.4152  1.2774
  132OSM    C5S14239   4.811   2.163   6.811 -0.0636 -0.2160 -0.2710
  132OSM    H5S14240   4.798   2.054   6.798 -3.5288 -0.6654  4.3349
  132OSM    C6S14241   4.737   2.210   6.928  1.1202 -0.1900 -0.3534
  132OSM    H6S14242   4.753   2.151   7.021 -1.3983  1.5486  1.3137
  132OSM    H6T14243   4.628   2.210   6.905  1.2904  2.0920 -1.3650
  132OSM    C7S14244   4.771   2.355   6.971 -0.0272 -0.1962 -0.6425
  132OSM    H7S14245   4.735   2.430   6.897  0.0883 -0.4964 -1.0095
  132OSM    H7T14246   4.876   2.379   6.996 -0.6111  0.5895  1.2005
  132OSM    C8S14247   4.703   2.398   7.100 -0.2620  0.2165 -0.0220
  132OSM    H8S14248   4.593   2.387   7.094 -0.8193  2.4686  3.4041
  132OSM    H8T14249   4.717   2.506   7.120 -0.4055  0.3634 -0.6918
  132OSM    C9S14250   4.735   2.323   7.234 -0.6682  0.3246  0.8953
  132OSM    H9S14251   4.845   2.318   7.244 -0.4432 -0.1806 -1.2571
  132OSM    H9T14252   4.690   2.222   7.223  0.2098 -0.1480  1.5566
  132OSM   C10S14253   4.675   2.394   7.350 -0.0702 -0.6251  0.0270
  132OSM   H10S14254   4.565   2.396   7.338 -0.0932  1.6119  0.2953
  132OSM   H10T14255   4.700   2.502   7.358 -0.0302 -0.6023 -0.3681
  132OSM   C11S14256   4.705   2.324   7.477 -0.9681  0.2450 -0.2431
  132OSM   H11S14257   4.815   2.326   7.494 -1.2932 -0.4915  2.3978
  132OSM   H11T14258   4.667   2.220   7.481  1.0470 -0.7969 -4.0561
  132OSM   C12S14259   4.666   2.405   7.599  0.3118 -0.1759  0.1807
  132OSM   H12S14260   4.555   2.404   7.601  0.2420  0.5083 -1.4073
  132OSM   H12T14261   4.702   2.510   7.586  0.4713  0.0067  1.8673
  132OSM   C13S14262   4.722   2.354   7.727 -0.6115 -0.2278  0.5554
  132OSM   H13S14263   4.832   2.367   7.731 -0.6404  1.1654 -1.6773
  132OSM   H13T14264   4.706   2.245   7.737 -0.3524 -0.1443  2.1309
  132OSM   C14S14265   4.665   2.420   7.851  0.0524  0.3574  0.5709
  132OSM   H14S14266   4.586   2.495   7.827  1.1502  1.0364 -1.1115
  132OSM   H14T14267   4.746   2.475   7.903 -0.3139  0.7427  0.7380
  132OSM   C15S14268   4.619   2.308   7.951  0.2077 -0.8563  0.2388
  132OSM   H15S14269   4.559   2.231   7.898  1.2880 -1.0705 -0.7108
  132OSM   H15T14270   4.542   2.345   8.022  0.4847 -1.7117  1.0121
  132OSM   C16S14271   4.734   2.256   8.039  0.5904  0.1575  0.5773
  132OSM   H16S14272   4.748   2.345   8.103 -0.6930  0.3122  0.6685
  132OSM   H16T14273   4.829   2.251   7.982  0.2293  2.9234 -0.3847
  132OSM   C17S14274   4.710   2.138   8.129 -0.6274  0.7307 -0.6538
  132OSM   H17S14275   4.799   2.112   8.191  0.4090 -0.8258 -2.6463
  132OSM   H17T14276   4.717   2.048   8.065 -0.8724  0.6327 -0.5446
  132OSM   C18S14277   4.570   2.128   8.193 -0.2703 -0.0365 -0.2729
  132OSM   H18S14278   4.551   2.035   8.251 -1.4100 -0.1666 -0.8284
  132OSM   H18T14279   4.498   2.122   8.109 -0.6234 -0.1971  0.0405
  132OSM   H18U14280   4.550   2.218   8.255  0.5856  0.7829 -1.1438
  132OSM    C1F14281   5.282   2.170   6.824  0.0815  0.5054 -0.0913
  132OSM     OF14282   5.337   2.258   6.766 -0.1413  0.2408  0.4230
  132OSM    C2F14283   5.344   2.089   6.937 -0.3434  0.2444  0.3773
  132OSM    H2F14284   5.452   2.096   6.914 -0.6456 -1.0393 -1.6886
  132OSM    H2G14285   5.317   1.981   6.936  1.0403 -0.1673 -2.7289
  132OSM    C3F14286   5.310   2.154   7.074  0.1570 -0.3153 -0.2573
  132OSM    H3F14287   5.202   2.182   7.073  0.0376 -0.5217  2.1112
  132OSM    H3G14288   5.368   2.247   7.088 -0.0974  0.2606 -2.5786
  132OSM    C4F14289   5.346   2.063   7.195 -0.0457  1.0822 -0.3916
  132OSM    H4F14290   5.447   2.023   7.173 -0.2990 -0.4531  1.0250
  132OSM    H4G14291   5.295   1.964   7.189 -0.2122  1.0486  1.1569
  132OSM    C5F14292   5.314   2.125   7.327  0.3255 -0.4364  0.6728
  132OSM    H5F14293   5.205   2.149   7.326  0.7126  1.5319 -1.2305
  132OSM    H5G14294   5.371   2.220   7.331  0.2266 -0.3511  0.1174
  132OSM    C6F14295   5.354   2.044   7.453  0.4962  0.3873  0.0282
  132OSM    H6F14296   5.464   2.034   7.450  0.4121 -0.6328 -0.0396
  132OSM    H6G14297   5.306   1.944   7.448 -1.3959  1.0728  2.2826
  132OSM    C7F14298   5.305   2.105   7.585  0.0583  0.6372 -0.4303
  132OSM    H7F14299   5.195   2.110   7.577 -0.0863 -2.4340 -1.4624
  132OSM    H7G14300   5.342   2.210   7.591  0.5974  0.4130  0.5563
  132OSM    C8F14301   5.345   2.040   7.723 -0.1894 -0.3409 -0.1178
  132OSM    H8F14302   5.296   1.941   7.716 -0.5157 -0.3726  2.1006
  132OSM    H8G14303   5.296   2.099   7.803  1.0035  1.4885 -0.6544
  132OSM    C9F14304   5.496   2.026   7.732  0.2518  0.4974 -0.6179
  132OSM    H9F14305   5.544   2.124   7.747 -0.5020  0.7542  0.1583
  132OSM   C10F14306   5.569   1.911   7.726 -0.0256 -0.3079 -0.1425
  132OSM   H10F14307   5.676   1.911   7.750 -0.0621 -0.1250  0.0185
  132OSM   C11F14308   5.511   1.765   7.720  0.0937  0.5498  0.2823
  132OSM   H11F14309   5.589   1.699   7.677 -0.1845  1.1290 -1.1739
  132OSM   H11G14310   5.430   1.751   7.645  0.9665 -1.8329 -0.3225
  132OSM   C12F14311   5.478   1.719   7.860  0.0935 -0.4073  0.1447
  132OSM   H12F14312   5.436   1.617   7.852 -2.2474  0.5959 -1.7645
  132OSM   H12G14313   5.397   1.783   7.903  0.9291  1.7395 -1.3093
  132OSM   C13F14314   5.593   1.733   7.964 -0.2860  0.1209 -0.3229
  132OSM   H13F14315   5.610   1.840   7.988  2.2262 -0.0284 -1.1639
  132OSM   H13G14316   5.694   1.704   7.927 -0.1639  0.0732  0.0472
  132OSM   C14F14317   5.557   1.659   8.086  0.1818 -0.1717 -0.2792
  132OSM   H14F14318   5.553   1.549   8.067 -2.6519 -0.3694  0.9496
  132OSM   H14G14319   5.454   1.695   8.109  0.8760  2.7705 -1.4064
  132OSM   C15F14320   5.640   1.699   8.210 -0.4719  0.0230 -0.2099
  132OSM   H15F14321   5.576   1.659   8.292 -0.4441  0.7106  0.1551
  132OSM   H15G14322   5.654   1.809   8.220 -0.7395 -0.0191  0.6909
  132OSM   C16F14323   5.774   1.625   8.212  0.7188  0.6821 -0.3811
  132OSM   H16F14324   5.825   1.644   8.115  0.3954 -2.0842 -1.1630
  132OSM   H16G14325   5.748   1.517   8.220  0.0569  0.6551 -2.3814
  132OSM   C17F14326   5.869   1.663   8.329  0.1118 -0.6383 -0.0412
  132OSM   H17F14327   5.818   1.635   8.424 -0.9335 -0.4066 -0.5235
  132OSM   H17G14328   5.890   1.772   8.334  0.0822 -0.5032 -2.2075
  132OSM   C18F14329   6.000   1.586   8.331 -0.0865  0.0685 -0.7830
  132OSM   H18F14330   6.062   1.596   8.422  0.3928  2.1367 -1.2904
  132OSM   H18G14331   6.060   1.622   8.245  0.3296 -0.3064 -0.6528
  132OSM   H18H14332   5.969   1.482   8.308 -0.1541  0.0994 -0.8334
  133OSM      N14333   2.713   2.433   6.199 -0.1050  0.1154 -0.9996
  133OSM    C1514334   2.812   2.361   6.111 -0.5475 -0.3678  0.1755
  133OSM   H15A14335   2.802   2.254   6.126 -2.5197 -0.3307 -0.5542
  133OSM   H15B14336   2.912   2.393   6.134 -1.0692  1.3339  0.2238
  133OSM   H15C14337   2.804   2.381   6.005 -0.0360  1.5076  0.4606
  133OSM    C1414338   2.724   2.580   6.171 -0.1031 -0.3809  0.4745
  133OSM   H14A14339   2.716   2.614   6.069  1.8557  1.7753  0.9740
  133OSM   H14B14340   2.812   2.612   6.225  0.0293 -0.4969  0.3282
  133OSM   H14C14341   2.639   2.633   6.211 -0.0004  0.7795 -0.7988
  133OSM    C1314342   2.575   2.383   6.164  0.1879 -0.6104 -0.5799
  133OSM   H13A14343   2.559   2.379   6.057 -1.0031  0.0923 -0.4441
  133OSM   H13B14344   2.502   2.458   6.191 -0.7097 -0.6860 -2.5850
  133OSM   H13C14345   2.544   2.292   6.213 -1.3005 -0.1979 -0.7046
  133OSM    C1214346   2.734   2.398   6.346  0.4065 -0.3941 -0.0472
  133OSM   H12A14347   2.721   2.292   6.358 -1.3795 -0.2647 -0.5639
  133OSM   H12B14348   2.657   2.449   6.401  0.9996  1.0545 -0.4907
  133OSM    C1114349   2.867   2.446   6.413 -0.5575 -0.5011 -0.7539
  133OSM   H11A14350   2.957   2.407   6.361 -0.6087 -1.4533 -0.1557
  133OSM   H11B14351   2.859   2.393   6.511 -1.4333 -2.6388 -1.9288
  133OSM      P14352   2.990   2.662   6.499 -0.2084 -0.0816  0.2383
  133OSM    O1314353   3.089   2.710   6.397 -0.2519 -1.2128  0.2675
  133OSM    O1414354   2.929   2.766   6.586  0.5730  0.0487 -0.0058
  133OSM    O1114355   3.057   2.559   6.592  0.7616  0.1635  0.1538
  133OSM    O1214356   2.872   2.589   6.426 -0.2172  0.3110 -0.3885
  133OSM    C1S14357   3.161   2.591   6.680 -0.3745 -0.2030  0.3257
  133OSM    H1S14358   3.137   2.690   6.726  0.2379  0.0775  0.0559
  133OSM    H1T14359   3.255   2.595   6.622 -1.8304 -0.2486 -2.1869
  133OSM     NF14360   3.255   2.540   6.898 -0.0260  0.2883  0.4353
  133OSM    HNF14361   3.345   2.499   6.913 -0.9486 -2.1362 -0.1249
  133OSM    C2S14362   3.173   2.487   6.788  0.1093  0.3046  0.3648
  133OSM    H2S14363   3.071   2.455   6.820  1.2176 -1.6721  2.2260
  133OSM    C3S14364   3.228   2.356   6.723  0.3492 -0.4330  0.3419
  133OSM    H3S14365   3.333   2.372   6.692 -0.5157  0.8073 -2.2550
  133OSM     O314366   3.170   2.326   6.595 -0.2382 -0.1780  0.4317
  133OSM    HO314367   3.143   2.413   6.566  0.1826 -0.0304  0.4773
  133OSM    C4S14368   3.203   2.238   6.812  0.3379  0.4045  0.6675
  133OSM    H4S14369   3.096   2.215   6.827  0.1934 -0.0677 -0.8549
  133OSM    C5S14370   3.293   2.164   6.869 -0.7144 -0.1674  0.3151
  133OSM    H5S14371   3.397   2.184   6.842 -1.9055  2.3474 -3.1224
  133OSM    C6S14372   3.255   2.051   6.963 -0.2939  0.5507  0.0928
  133OSM    H6S14373   3.336   2.039   7.038  3.0319 -0.4979 -3.3798
  133OSM    H6T14374   3.253   1.953   6.910 -0.6164  0.3565  0.4633
  133OSM    C7S14375   3.117   2.069   7.033 -0.4950  0.4374 -0.3119
  133OSM    H7S14376   3.038   2.079   6.955 -0.6444 -2.4517 -0.6260
  133OSM    H7T14377   3.122   2.164   7.090 -1.3187  0.8430 -0.8848
  133OSM    C8S14378   3.076   1.954   7.120 -0.5384  0.3843  0.3342
  133OSM    H8S14379   3.057   1.871   7.048  1.3332  1.1196 -1.1046
  133OSM    H8T14380   2.982   1.978   7.174  0.1617  3.4322  0.3665
  133OSM    C9S14381   3.192   1.900   7.218 -0.5092 -0.0051 -0.5785
  133OSM    H9S14382   3.277   1.854   7.164 -0.2182  1.2590 -1.2513
  133OSM    H9T14383   3.139   1.829   7.285 -1.0116 -0.3176 -1.3006
  133OSM   C10S14384   3.238   2.005   7.316  0.6245 -0.0028  0.0591
  133OSM   H10S14385   3.295   2.089   7.271 -0.0054  1.1433  1.3208
  133OSM   H10T14386   3.309   1.961   7.389 -0.2353 -0.2856  0.7430
  133OSM   C11S14387   3.122   2.051   7.409 -0.4050  0.6064 -0.0790
  133OSM   H11S14388   3.062   1.963   7.441  0.0207  0.1434 -0.5375
  133OSM   H11T14389   3.051   2.112   7.350 -1.1824  0.5274  0.7432
  133OSM   C12S14390   3.174   2.125   7.533 -0.8131 -0.6862  0.3484
  133OSM   H12S14391   3.211   2.222   7.492  2.0694 -2.0334 -0.4512
  133OSM   H12T14392   3.257   2.066   7.575  0.6428  0.7328 -0.4427
  133OSM   C13S14393   3.052   2.139   7.629  0.4381  0.2760  0.2402
  133OSM   H13S14394   3.029   2.038   7.667  3.1696 -0.1167  1.0380
  133OSM   H13T14395   2.961   2.176   7.576 -1.2610 -0.9681  2.1524
  133OSM   C14S14396   3.072   2.221   7.759 -0.8332  0.3847 -0.1438
  133OSM   H14S14397   3.097   2.323   7.723  1.6990 -0.2942 -0.4450
  133OSM   H14T14398   3.160   2.187   7.816 -2.2194 -1.9703  0.7545
  133OSM   C15S14399   2.953   2.211   7.849  0.2730  0.2258  0.5660
  133OSM   H15S14400   2.918   2.107   7.858  0.6909  0.0360  0.0820
  133OSM   H15T14401   2.870   2.272   7.809  0.9275  0.8174  0.0772
  133OSM   C16S14402   2.974   2.275   7.988  0.8820  0.0449 -0.1258
  133OSM   H16S14403   2.882   2.267   8.049  1.1801 -0.4010  0.2685
  133OSM   H16T14404   2.993   2.383   7.975  3.4300  0.0011  2.4293
  133OSM   C17S14405   3.090   2.222   8.073 -0.5369 -0.0765  0.2842
  133OSM   H17S14406   3.185   2.256   8.027 -0.6088 -2.8682 -2.2402
  133OSM   H17T14407   3.091   2.111   8.069  2.4129 -0.0875 -0.8284
  133OSM   C18S14408   3.077   2.265   8.218 -0.5375 -0.6188 -0.0317
  133OSM   H18S14409   3.173   2.256   8.275 -0.4191  0.7490  0.0061
  133OSM   H18T14410   3.006   2.196   8.269  0.0988 -1.5496 -0.3734
  133OSM   H18U14411   3.043   2.370   8.225 -0.1093 -0.5780  2.4761
  133OSM    C1F14412   3.213   2.639   6.979 -0.3407  0.3427  0.1011
  133OSM     OF14413   3.095   2.676   6.980  0.3408  0.1432 -0.2092
  133OSM    C2F14414   3.318   2.696   7.072  0.1830  0.2725  0.1667
  133OSM    H2F14415   3.385   2.759   7.010 -2.6080  1.7288 -1.5569
  133OSM    H2G14416   3.358   2.603   7.118  1.7179  0.0774 -1.4388
  133OSM    C3F14417   3.264   2.787   7.185  0.4482  0.5172  0.4597
  133OSM    H3F14418   3.172   2.744   7.230  0.4757 -0.4650 -0.3828
  133OSM    H3G14419   3.237   2.883   7.136 -0.6536  0.2507  0.5241
  133OSM    C4F14420   3.370   2.823   7.292 -0.9822  0.2713  0.2585
  133OSM    H4F14421   3.458   2.876   7.250 -0.9837 -0.1417 -0.2766
  133OSM    H4G14422   3.401   2.729   7.342  0.2727 -0.5308 -1.9017
  133OSM    C5F14423   3.313   2.920   7.391 -0.1270  0.2973  0.1663
  133OSM    H5F14424   3.215   2.897   7.437 -0.0383 -0.0558  0.1821
  133OSM    H5G14425   3.297   3.015   7.335 -1.5609  0.3027  0.5552
  133OSM    C6F14426   3.413   2.932   7.504  0.8292 -0.2869  0.0967
  133OSM    H6F14427   3.496   2.992   7.462  0.9962 -1.2561 -1.0273
  133OSM    H6G14428   3.448   2.829   7.526  1.4356 -0.2555 -0.6685
  133OSM    C7F14429   3.357   2.992   7.631 -0.1674 -0.3699 -0.1889
  133OSM    H7F14430   3.283   2.921   7.673  1.6324 -1.9346  0.4719
  133OSM    H7G14431   3.310   3.089   7.602  0.2006  0.8485  2.8858
  133OSM    C8F14432   3.467   3.015   7.743 -0.7116 -0.0192 -0.2746
  133OSM    H8F14433   3.560   3.065   7.710  1.0075 -1.8050  1.6307
  133OSM    H8G14434   3.488   2.908   7.765 -0.2478 -0.4581 -2.5743
  133OSM    C9F14435   3.414   3.092   7.864  0.1930 -0.2830 -0.0481
  133OSM    H9F14436   3.328   3.158   7.847  0.9014  0.2161 -1.9021
  133OSM   C10F14437   3.460   3.089   7.989 -0.7431 -0.6323  0.2539
  133OSM   H10F14438   3.424   3.152   8.071  1.9315  0.5042  0.6501
  133OSM   C11F14439   3.578   3.008   8.027  0.2349 -0.0408 -0.1688
  133OSM   H11F14440   3.641   2.997   7.936  1.5192  4.5683 -0.0475
  133OSM   H11G14441   3.542   2.912   8.070 -0.4148  0.1172 -0.3452
  133OSM   C12F14442   3.670   3.070   8.129 -0.3573 -0.5981  0.0354
  133OSM   H12F14443   3.758   3.002   8.140 -1.1712 -2.3672 -3.1612
  133OSM   H12G14444   3.626   3.067   8.231  0.0165  1.4945  0.3062
  133OSM   C13F14445   3.732   3.204   8.087  0.3684 -0.1223 -0.0249
  133OSM   H13F14446   3.663   3.265   8.025  1.5848  1.3468 -0.0044
  133OSM   H13G14447   3.821   3.183   8.023  1.0412  0.8071  0.5786
  133OSM   C14F14448   3.760   3.294   8.211 -0.0325 -0.0990  0.2453
  133OSM   H14F14449   3.834   3.235   8.269  0.0827  1.2358  1.5194
  133OSM   H14G14450   3.665   3.308   8.268 -0.6848  5.3251 -1.5933
  133OSM   C15F14451   3.812   3.435   8.168 -0.6417 -0.3591 -0.0185
  133OSM   H15F14452   3.740   3.482   8.097  1.8984  2.4778 -0.9473
  133OSM   H15G14453   3.900   3.409   8.105 -1.5318 -0.7487 -1.1297
  133OSM   C16F14454   3.844   3.527   8.285 -0.1279  0.2437 -0.2060
  133OSM   H16F14455   3.927   3.498   8.352 -1.0643 -0.3754  0.7075
  133OSM   H16G14456   3.761   3.514   8.357  1.3568  1.9344  1.9133
  133OSM   C17F14457   3.846   3.681   8.260 -0.4682  0.3264 -0.5797
  133OSM   H17F14458   3.774   3.695   8.176 -0.2757  0.2624 -0.7566
  133OSM   H17G14459   3.946   3.703   8.219  0.4377 -0.6852  0.9905
  133OSM   C18F14460   3.807   3.760   8.380 -0.0791  0.0028  0.5102
  133OSM   H18F14461   3.874   3.720   8.460  3.8324  1.8969 -1.4995
  133OSM   H18G14462   3.700   3.748   8.405 -0.3435 -0.6001 -0.8206
  133OSM   H18H14463   3.850   3.859   8.354  2.0365 -0.9735  0.0255
  134OSM      N14464   6.482   0.558   6.239 -0.3786  0.3750 -0.6530
  134OSM    C1514465   6.353   0.627   6.213  0.1503  0.0105  0.2649
  134OSM   H15A14466   6.286   0.595   6.291  0.9855  0.8608  1.3615
  134OSM   H15B14467   6.311   0.605   6.116  2.5415  0.1962 -0.8986
  134OSM   H15C14468   6.362   0.734   6.216 -1.5809  0.1778  0.5369
  134OSM    C1414469   6.460   0.415   6.201 -0.5486 -0.3123 -0.3542
  134OSM   H14A14470   6.549   0.358   6.226 -0.1521  0.4712  0.0525
  134OSM   H14B14471   6.432   0.409   6.097  1.1970  0.3625 -0.9040
  134OSM   H14C14472   6.371   0.377   6.249 -1.9143 -1.9032 -3.8310
  134OSM    C1314473   6.593   0.628   6.162  0.0180  0.7297 -0.2285
  134OSM   H13A14474   6.579   0.616   6.055  1.0406  0.8819 -0.3915
  134OSM   H13B14475   6.688   0.583   6.183 -0.2694 -0.0899 -0.6236
  134OSM   H13C14476   6.587   0.733   6.188 -0.9344  0.5614  0.2814
  134OSM    C1214477   6.512   0.583   6.387 -0.2356 -0.0346  0.4130
  134OSM   H12A14478   6.500   0.690   6.400  0.6637 -0.2092  3.8262
  134OSM   H12B14479   6.614   0.556   6.413 -0.6934 -2.8076 -0.3639
  134OSM    C1114480   6.424   0.517   6.492 -0.4587  0.0043 -0.2391
  134OSM   H11A14481   6.448   0.532   6.599 -2.4192 -2.4967  0.6668
  134OSM   H11B14482   6.443   0.409   6.470 -0.3703 -0.0441  0.0680
  134OSM      P14483   6.179   0.444   6.514  0.2537  0.2518 -0.3954
  134OSM    O1314484   6.048   0.494   6.465 -0.3970  0.8964  0.4242
  134OSM    O1414485   6.212   0.311   6.458 -0.0851 -0.2458 -0.0862
  134OSM    O1114486   6.188   0.422   6.672  0.8437  0.1697  0.0737
  134OSM    O1214487   6.287   0.556   6.479  0.0988  0.2466 -0.7223
  134OSM    C1S14488   6.164   0.534   6.755 -0.0391  0.0859 -0.5419
  134OSM    H1S14489   6.058   0.567   6.749  0.0001  0.4971  0.7677
  134OSM    H1T14490   6.240   0.614   6.741  0.4096 -0.2842 -0.2444
  134OSM     NF14491   6.128   0.606   6.994 -0.7307 -0.1317  0.2177
  134OSM    HNF14492   6.193   0.663   7.043 -0.2179 -0.2132 -0.3534
  134OSM    C2S14493   6.187   0.503   6.909 -0.0919  0.5616 -0.1312
  134OSM    H2S14494   6.135   0.410   6.941  3.7115 -0.9286  2.4985
  134OSM    C3S14495   6.343   0.475   6.938  0.5562 -0.1492 -0.4011
  134OSM    H3S14496   6.394   0.569   6.908 -0.9488  0.7715 -0.1865
  134OSM     O314497   6.404   0.378   6.849  0.4135 -0.7415  0.2358
  134OSM    HO314498   6.337   0.365   6.781  0.1032  3.1296 -0.4556
  134OSM    C4S14499   6.381   0.443   7.086  1.2582 -0.5082 -0.6843
  134OSM    H4S14500   6.387   0.540   7.139  1.7124 -0.6279 -0.5055
  134OSM    C5S14501   6.416   0.334   7.163 -0.1019  0.1508  0.3803
  134OSM    H5S14502   6.428   0.238   7.111 -2.3334 -0.6357  1.2091
  134OSM    C6S14503   6.450   0.324   7.316  0.4055 -0.5044 -0.0848
  134OSM    H6S14504   6.555   0.288   7.320  0.8906  0.7026 -1.1529
  134OSM    H6T14505   6.384   0.245   7.358 -0.1776 -1.2478 -2.2199
  134OSM    C7S14506   6.459   0.458   7.388  0.8996  0.3524  0.1597
  134OSM    H7S14507   6.363   0.514   7.385  1.1968  0.9778  1.4271
  134OSM    H7T14508   6.534   0.520   7.335  1.4946 -1.5982 -1.3899
  134OSM    C8S14509   6.495   0.454   7.534 -0.4370 -0.4319 -0.4711
  134OSM    H8S14510   6.551   0.548   7.554 -0.3607 -0.6080  0.1653
  134OSM    H8T14511   6.579   0.383   7.551  1.1969  1.2427 -1.2357
  134OSM    C9S14512   6.384   0.438   7.633 -0.0579  0.3242 -0.6487
  134OSM    H9S14513   6.340   0.336   7.629  1.0062 -0.1337 -0.8634
  134OSM    H9T14514   6.305   0.510   7.600  0.4846  1.3390  0.2048
  134OSM   C10S14515   6.433   0.497   7.772 -0.6090 -0.3587  0.2570
  134OSM   H10S14516   6.395   0.601   7.769 -2.6942 -1.0889  0.0120
  134OSM   H10T14517   6.544   0.488   7.776 -0.4605 -0.1342 -2.0766
  134OSM   C11S14518   6.349   0.429   7.877 -0.5128  0.6866 -0.4043
  134OSM   H11S14519   6.366   0.320   7.875 -0.1569  0.7087  0.6308
  134OSM   H11T14520   6.241   0.455   7.867 -0.4879  2.6521  2.7859
  134OSM   C12S14521   6.397   0.489   8.006  0.2471 -0.1033  0.4287
  134OSM   H12S14522   6.414   0.599   8.000 -0.4704 -0.0058  0.0747
  134OSM   H12T14523   6.489   0.430   8.027 -0.2870 -0.4428  1.9158
  134OSM   C13S14524   6.311   0.461   8.132 -0.1260 -0.0775 -0.2225
  134OSM   H13S14525   6.335   0.359   8.170  4.2283  1.1367  0.7912
  134OSM   H13T14526   6.202   0.464   8.112 -0.1840 -1.1086 -0.1278
  134OSM   C14S14527   6.342   0.559   8.249 -0.0970  0.5446  0.4520
  134OSM   H14S14528   6.342   0.659   8.200 -0.6453 -0.0213 -0.7644
  134OSM   H14T14529   6.446   0.546   8.284 -0.7687 -1.9172  1.7240
  134OSM   C15S14530   6.251   0.552   8.374 -0.3319  0.9002 -0.1741
  134OSM   H15S14531   6.152   0.586   8.337  1.0543  2.0388 -3.1304
  134OSM   H15T14532   6.289   0.631   8.443 -0.6537  0.7816  0.1434
  134OSM   C16S14533   6.265   0.416   8.452  0.3201 -0.3045 -1.0812
  134OSM   H16S14534   6.368   0.385   8.479 -0.2997 -0.9545  0.6620
  134OSM   H16T14535   6.212   0.333   8.401 -1.1752  0.2149 -0.4517
  134OSM   C17S14536   6.193   0.426   8.583  0.7954  0.0831  0.1946
  134OSM   H17S14537   6.094   0.477   8.580  0.2237 -1.0233 -0.1456
  134OSM   H17T14538   6.259   0.496   8.639  0.8111  0.6448 -0.5032
  134OSM   C18S14539   6.172   0.292   8.651  0.0619 -0.2037  1.1601
  134OSM   H18S14540   6.117   0.223   8.585  0.8992 -1.1150  1.3906
  134OSM   H18T14541   6.107   0.297   8.741  0.0315 -0.7687  1.1732
  134OSM   H18U14542   6.270   0.243   8.669 -0.5164 -2.3829 -1.1463
  134OSM    C1F14543   5.997   0.593   7.015  0.5096 -0.1203 -0.1141
  134OSM     OF14544   5.922   0.523   6.948 -0.1938 -0.1358 -0.1211
  134OSM    C2F14545   5.954   0.667   7.137  0.1618 -0.4302  0.1996
  134OSM    H2F14546   5.850   0.696   7.115  0.1202 -0.1342  0.7721
  134OSM    H2G14547   6.007   0.764   7.142  0.4990 -0.5490 -0.8850
  134OSM    C3F14548   5.954   0.579   7.261 -0.7092  0.6067 -0.5834
  134OSM    H3F14549   6.059   0.542   7.268 -0.1479  2.0683 -0.8939
  134OSM    H3G14550   5.886   0.492   7.253 -1.4462  1.2889 -2.0138
  134OSM    C4F14551   5.916   0.660   7.383 -0.0400  0.0329  0.2993
  134OSM    H4F14552   5.808   0.681   7.395 -0.1618  0.0816 -0.8415
  134OSM    H4G14553   5.967   0.756   7.364  0.0585 -0.2952 -1.2043
  134OSM    C5F14554   5.984   0.627   7.518  0.4608  0.5314  0.2825
  134OSM    H5F14555   6.093   0.623   7.498  0.3197 -0.0450 -0.4032
  134OSM    H5G14556   5.962   0.523   7.551 -2.2370  0.9111 -0.0675
  134OSM    C6F14557   5.938   0.730   7.619  0.0271  0.7792  0.1754
  134OSM    H6F14558   5.834   0.706   7.650  0.8048 -2.3441  0.7932
  134OSM    H6G14559   5.946   0.834   7.582  0.0742  1.0720  0.9754
  134OSM    C7F14560   6.021   0.712   7.738 -0.4824 -0.0017 -0.2417
  134OSM    H7F14561   6.119   0.753   7.707 -0.4232 -0.5457 -0.7936
  134OSM    H7G14562   6.034   0.604   7.760  2.0274  0.2854 -0.0868
  134OSM    C8F14563   5.963   0.781   7.854 -0.3644 -0.1839 -0.4026
  134OSM    H8F14564   5.867   0.735   7.884 -0.6187 -0.1449 -1.1310
  134OSM    H8G14565   5.948   0.889   7.830  0.4768  0.2347  0.8072
  134OSM    C9F14566   6.059   0.780   7.973 -0.7439 -0.0647 -0.1846
  134OSM    H9F14567   6.139   0.855   7.959 -1.4666  1.3578  2.5035
  134OSM   C10F14568   6.059   0.709   8.088 -0.1118 -0.1247 -0.5709
  134OSM   H10F14569   6.140   0.724   8.160 -0.9084  0.6184  0.2086
  134OSM   C11F14570   5.949   0.609   8.117 -0.6339  0.2297 -0.0330
  134OSM   H11F14571   5.965   0.535   8.199  0.0991  0.3855 -0.0328
  134OSM   H11G14572   5.931   0.539   8.033 -1.1648 -0.5478  0.6967
  134OSM   C12F14573   5.815   0.677   8.159  0.5102 -0.0554  0.0069
  134OSM   H12F14574   5.732   0.604   8.147  0.0612  0.2640  1.0381
  134OSM   H12G14575   5.800   0.770   8.100 -3.6461  0.5046  1.5922
  134OSM   C13F14576   5.815   0.709   8.311  0.3658 -0.4735  0.3780
  134OSM   H13F14577   5.809   0.625   8.383  0.4500  0.3172  1.3407
  134OSM   H13G14578   5.717   0.758   8.330 -1.1282 -1.5487 -3.5961
  134OSM   C14F14579   5.926   0.812   8.344 -0.2111 -0.2371 -0.0194
  134OSM   H14F14580   5.922   0.892   8.268 -0.6194 -1.0751 -0.8974
  134OSM   H14G14581   6.027   0.767   8.332  0.6699  1.4680  0.6227
  134OSM   C15F14582   5.925   0.888   8.482  0.1698  0.0750 -0.0541
  134OSM   H15F14583   5.825   0.935   8.500 -1.0872 -2.6113  0.5275
  134OSM   H15G14584   6.006   0.964   8.483  0.9177 -0.7132  1.2041
  134OSM   C16F14585   5.953   0.798   8.604  0.8667  0.1927  0.5493
  134OSM   H16F14586   6.047   0.743   8.583  0.0114 -0.9384 -0.4254
  134OSM   H16G14587   5.876   0.721   8.627  0.9954  0.5721  2.5092
  134OSM   C17F14588   5.975   0.886   8.729 -0.5186 -0.1426 -0.2531
  134OSM   H17F14589   5.880   0.936   8.759 -0.8707  0.6127 -2.3965
  134OSM   H17G14590   6.049   0.968   8.711  0.5549 -0.8054  1.0442
  134OSM   C18F14591   6.036   0.798   8.841 -0.2133  0.3624 -0.0692
  134OSM   H18F14592   6.132   0.756   8.804  0.1967 -0.3700  1.7181
  134OSM   H18G14593   5.975   0.706   8.850  0.8404 -0.7767 -3.0024
  134OSM   H18H14594   6.059   0.854   8.933  1.3858  2.2042 -1.5099
  135OSM      N14595   5.826   0.215   6.234 -0.0873 -0.0947  0.2688
  135OSM    C1514596   5.960   0.284   6.272  0.2253  0.4435 -0.3384
  135OSM   H15A14597   6.011   0.314   6.182  2.0695  1.9979  1.1230
  135OSM   H15B14598   6.025   0.220   6.331  0.1392 -0.8355 -1.5901
  135OSM   H15C14599   5.950   0.372   6.334 -0.3617  0.4921 -0.4993
  135OSM    C1414600   5.757   0.280   6.120  0.7377 -0.0199 -0.2839
  135OSM   H14A14601   5.752   0.388   6.123 -0.6012  0.0043 -2.0472
  135OSM   H14B14602   5.656   0.249   6.099  1.2371 -0.8616 -1.5558
  135OSM   H14C14603   5.814   0.258   6.031 -1.8383 -2.4569 -1.4999
  135OSM    C1314604   5.869   0.083   6.187 -0.1216  0.8212 -0.4163
  135OSM   H13A14605   5.918   0.048   6.276 -0.9682  1.1681  0.2062
  135OSM   H13B14606   5.937   0.096   6.104  1.2951 -0.7674  0.4340
  135OSM   H13C14607   5.790   0.016   6.156 -1.3101  0.9853  2.0384
  135OSM    C1214608   5.742   0.197   6.355 -0.2563  0.1593 -0.1633
  135OSM   H12A14609   5.669   0.125   6.321  1.1533 -0.4539 -2.1029
  135OSM   H12B14610   5.681   0.284   6.373 -2.2105 -1.3140  0.7267
  135OSM    C1114611   5.807   0.148   6.484  0.0703 -0.3197  0.3117
  135OSM   H11A14612   5.728   0.160   6.561  1.2897  0.8488  1.4493
  135OSM   H11B14613   5.882   0.217   6.529  0.7532 -0.7923 -0.0768
  135OSM      P14614   5.762  -0.106   6.489  0.1608  0.6527 -0.5109
  135OSM    O1314615   5.639  -0.054   6.427 -0.2323 -0.2813 -0.5562
  135OSM    O1414616   5.824  -0.234   6.443 -0.2327 -0.7007  0.3237
  135OSM    O1114617   5.736  -0.108   6.648 -0.4705 -0.0947  0.2414
  135OSM    O1214618   5.864   0.019   6.470 -0.3713 -0.0561 -0.7317
  135OSM    C1S14619   5.834  -0.081   6.739 -0.3639  0.3265 -0.0438
  135OSM    H1S14620   5.908  -0.012   6.693  0.4608 -0.2169  0.4276
  135OSM    H1T14621   5.883  -0.176   6.768 -0.4727  0.5160  0.7985
  135OSM     NF14622   5.894  -0.019   6.967 -0.5196 -0.0283 -0.0908
  135OSM    HNF14623   5.896  -0.099   7.027  1.7967 -0.2590 -0.4012
  135OSM    C2S14624   5.785  -0.019   6.868  0.2475 -0.0236 -1.0159
  135OSM    H2S14625   5.751   0.086   6.856 -0.8704 -0.0938  1.0252
  135OSM    C3S14626   5.663  -0.098   6.925  0.1551  0.1157  0.8900
  135OSM    H3S14627   5.700  -0.202   6.933  1.2322  0.2674 -1.5495
  135OSM     O314628   5.548  -0.100   6.837 -0.1186  0.2720 -0.2693
  135OSM    HO314629   5.590  -0.099   6.751 -1.2928 -1.3611 -0.9093
  135OSM    C4S14630   5.628  -0.042   7.065  0.1265  0.1951 -0.1856
  135OSM    H4S14631   5.653  -0.111   7.147 -1.7099 -2.0800 -1.4201
  135OSM    C5S14632   5.560   0.077   7.090 -1.5592  0.4759  0.4065
  135OSM    H5S14633   5.533   0.133   7.000 -1.9055  1.8254  1.3260
  135OSM    C6S14634   5.534   0.134   7.228 -0.6248 -0.2385 -0.6987
  135OSM    H6S14635   5.425   0.158   7.237 -0.1316  1.7538  0.6922
  135OSM    H6T14636   5.585   0.231   7.244  0.3942 -0.6344 -1.4712
  135OSM    C7S14637   5.572   0.034   7.351  0.4896 -0.2190  0.7479
  135OSM    H7S14638   5.673  -0.010   7.335 -0.2196 -2.4254  1.9711
  135OSM    H7T14639   5.504  -0.052   7.331 -0.9543  0.8168  1.0541
  135OSM    C8S14640   5.552   0.083   7.494 -0.1158 -0.0106  0.2689
  135OSM    H8S14641   5.453   0.132   7.501 -1.2873 -2.0798 -0.8771
  135OSM    H8T14642   5.633   0.158   7.508  0.3606 -0.4568 -0.0270
  135OSM    C9S14643   5.579  -0.030   7.596  0.1801 -0.0769  0.3888
  135OSM    H9S14644   5.684  -0.065   7.591  0.4528  0.7853 -0.1527
  135OSM    H9T14645   5.512  -0.117   7.578 -1.2343  1.4283 -2.1565
  135OSM   C10S14646   5.554   0.012   7.738  0.1626  0.3730  0.4395
  135OSM   H10S14647   5.450   0.051   7.745 -0.9759 -2.1002 -1.3817
  135OSM   H10T14648   5.627   0.094   7.759  0.3676  0.4311 -0.4495
  135OSM   C11S14649   5.571  -0.103   7.842  0.3578  0.6747  0.3057
  135OSM   H11S14650   5.678  -0.124   7.861 -0.2378 -4.7262 -0.7164
  135OSM   H11T14651   5.540  -0.200   7.796  4.4445 -0.0640 -1.2953
  135OSM   C12S14652   5.513  -0.067   7.980 -0.1266 -0.0728 -0.5551
  135OSM   H12S14653   5.415  -0.120   7.984  0.1804 -0.6097 -0.1251
  135OSM   H12T14654   5.493   0.042   7.986 -0.4338 -0.1428 -0.3014
  135OSM   C13S14655   5.582  -0.118   8.107  0.3789 -0.1107 -0.2929
  135OSM   H13S14656   5.681  -0.069   8.096  0.1061  1.1503  2.1027
  135OSM   H13T14657   5.578  -0.229   8.102  2.2136 -0.1506 -1.8587
  135OSM   C14S14658   5.504  -0.075   8.233 -0.4023 -0.4290 -0.3918
  135OSM   H14S14659   5.406  -0.127   8.249 -0.8400  0.8432  1.4880
  135OSM   H14T14660   5.471   0.030   8.218  0.0226  0.3029  2.9344
  135OSM   C15S14661   5.589  -0.091   8.358  0.6146 -0.1377 -0.0907
  135OSM   H15S14662   5.673  -0.018   8.359  0.1748  0.3753 -0.3052
  135OSM   H15T14663   5.634  -0.192   8.369  0.4748 -0.5279 -2.5782
  135OSM   C16S14664   5.493  -0.073   8.472  0.1913 -1.1347 -0.0824
  135OSM   H16S14665   5.431  -0.162   8.495 -1.3897  0.1057  0.6567
  135OSM   H16T14666   5.424   0.012   8.456 -1.5831 -2.2483  1.2867
  135OSM   C17S14667   5.551  -0.046   8.609  0.1427 -0.2163  0.6419
  135OSM   H17S14668   5.624   0.038   8.615 -0.3581  0.2849 -0.1956
  135OSM   H17T14669   5.598  -0.141   8.644 -0.0325 -1.3331 -1.9583
  135OSM   C18S14670   5.442  -0.004   8.706 -0.1641 -0.7468  0.2227
  135OSM   H18S14671   5.348  -0.063   8.703 -0.2992 -0.6039  1.3672
  135OSM   H18T14672   5.416   0.103   8.687  1.7547  0.2001  2.3906
  135OSM   H18U14673   5.478   0.004   8.810  0.4623  1.0212 -0.0837
  135OSM    C1F14674   6.006   0.061   6.950  0.0379  0.0607  0.6839
  135OSM     OF14675   6.000   0.159   6.874  0.4412 -0.2313  0.5095
  135OSM    C2F14676   6.126   0.021   7.030 -0.0751 -0.1428  0.1017
  135OSM    H2F14677   6.219   0.014   6.970  0.0481  1.4960  0.0721
  135OSM    H2G14678   6.109  -0.083   7.067  1.8983 -0.2970  0.7159
  135OSM    C3F14679   6.144   0.106   7.159 -0.0799 -0.6638 -0.5246
  135OSM    H3F14680   6.154   0.212   7.128  0.6753 -1.2136 -2.2996
  135OSM    H3G14681   6.240   0.061   7.192  0.4136 -0.6726 -1.9221
  135OSM    C4F14682   6.030   0.094   7.262 -0.2460  0.3773  0.5174
  135OSM    H4F14683   6.005  -0.010   7.292 -1.0891  1.1541  2.7165
  135OSM    H4G14684   5.937   0.133   7.214  0.8157 -0.4576 -2.4274
  135OSM    C5F14685   6.063   0.175   7.394 -0.0831  0.5240  0.7269
  135OSM    H5F14686   6.102   0.278   7.380  1.5443 -0.4758 -4.2092
  135OSM    H5G14687   6.135   0.107   7.446 -2.3490 -2.3890  0.2912
  135OSM    C6F14688   5.938   0.178   7.480 -0.3743  0.1997 -0.3998
  135OSM    H6F14689   5.889   0.079   7.462  0.5941 -1.0046  2.9194
  135OSM    H6G14690   5.873   0.253   7.430 -0.5871  1.2102  1.3436
  135OSM    C7F14691   5.945   0.209   7.628 -0.3431  0.8532  0.5725
  135OSM    H7F14692   5.843   0.230   7.666 -1.1984 -0.4418 -0.9332
  135OSM    H7G14693   6.007   0.301   7.638 -0.7149  1.1258  0.3572
  135OSM    C8F14694   6.017   0.093   7.708 -0.0985 -0.2352 -0.9667
  135OSM    H8F14695   6.090   0.039   7.644  2.2299 -0.0555  1.3337
  135OSM    H8G14696   5.935   0.022   7.731 -0.8692  0.6188 -1.0508
  135OSM    C9F14697   6.098   0.141   7.830  1.0159 -0.2719  0.2811
  135OSM    H9F14698   6.192   0.192   7.804  0.7946 -0.0134 -0.0163
  135OSM   C10F14699   6.070   0.116   7.954  0.5350  0.1359 -0.1074
  135OSM   H10F14700   6.128   0.170   8.030 -0.5232 -0.4768  1.1827
  135OSM   C11F14701   5.950   0.050   8.008 -0.6178  1.2788  1.0759
  135OSM   H11F14702   5.970  -0.035   8.078 -0.3088  0.7977  0.4105
  135OSM   H11G14703   5.896  -0.003   7.926  1.9657 -0.9238  0.6710
  135OSM   C12F14704   5.868   0.162   8.067  0.7495  0.3033  0.0488
  135OSM   H12F14705   5.766   0.121   8.080  0.8618 -2.0391 -4.3208
  135OSM   H12G14706   5.852   0.245   7.995  2.3455 -0.0456 -0.7738
  135OSM   C13F14707   5.929   0.231   8.195  0.5146  0.1631  0.6087
  135OSM   H13F14708   5.996   0.316   8.169  0.2393 -0.1424 -1.2688
  135OSM   H13G14709   5.989   0.165   8.262 -1.0006 -1.5351  0.3775
  135OSM   C14F14710   5.816   0.278   8.288 -0.3012 -0.2531 -0.2881
  135OSM   H14F14711   5.739   0.197   8.289  0.8854 -1.4256  1.9778
  135OSM   H14G14712   5.776   0.371   8.242  0.5250 -0.5965 -1.7391
  135OSM   C15F14713   5.859   0.309   8.431 -0.4285 -0.1271  0.2794
  135OSM   H15F14714   5.937   0.389   8.433  0.6033 -1.1068  0.0646
  135OSM   H15G14715   5.901   0.218   8.479  0.7952  1.1017  1.6639
  135OSM   C16F14716   5.748   0.356   8.532  0.1104 -0.7220 -0.6203
  135OSM   H16F14717   5.687   0.270   8.568  1.5197 -1.3330  0.4043
  135OSM   H16G14718   5.676   0.425   8.483 -0.1301 -0.2115  0.4352
  135OSM   C17F14719   5.797   0.414   8.662 -0.2507  0.0887 -0.2912
  135OSM   H17F14720   5.844   0.511   8.637  0.1003  0.7221  2.5320
  135OSM   H17G14721   5.879   0.356   8.711  0.8128  1.8642  0.1152
  135OSM   C18F14722   5.683   0.435   8.760  0.7468  0.7181  0.7112
  135OSM   H18F14723   5.633   0.336   8.771 -1.8443  2.0775  1.9712
  135OSM   H18G14724   5.612   0.509   8.719 -0.4491  0.5175  2.3185
  135OSM   H18H14725   5.716   0.481   8.856  2.3629  0.0333  0.5266
  136OSM      N14726   4.484   0.376   6.103 -0.4780 -1.6502 -1.1273
  136OSM    C1514727   4.528   0.239   6.127  0.0343  0.2117 -0.5651
  136OSM   H15A14728   4.536   0.189   6.032  1.5421 -0.8074  0.0630
  136OSM   H15B14729   4.470   0.171   6.188  1.2430 -0.1698  0.1822
  136OSM   H15C14730   4.629   0.232   6.163 -0.4133 -1.0249  0.5110
  136OSM    C1414731   4.563   0.431   5.987 -0.8146  0.1400  0.3656
  136OSM   H14A14732   4.556   0.360   5.907 -0.9878 -1.2547  1.5789
  136OSM   H14B14733   4.669   0.439   6.009 -0.6814  0.5695 -0.4118
  136OSM   H14C14734   4.524   0.523   5.945  0.2394 -0.0154 -1.0238
  136OSM    C1314735   4.348   0.381   6.051 -0.0198 -0.5237 -0.3469
  136OSM   H13A14736   4.280   0.362   6.133 -1.7349  1.9735 -1.0942
  136OSM   H13B14737   4.336   0.310   5.971  0.0486 -0.1658 -0.6738
  136OSM   H13C14738   4.315   0.475   6.010 -2.9769 -2.6882 -3.5878
  136OSM    C1214739   4.511   0.462   6.225  0.3533 -0.2890  0.8341
  136OSM   H12A14740   4.488   0.564   6.199 -0.5384 -0.3478  1.3359
  136OSM   H12B14741   4.618   0.471   6.241  0.5986 -0.5113 -0.5274
  136OSM    C1114742   4.435   0.442   6.359  0.3590 -0.4033  0.2823
  136OSM   H11A14743   4.478   0.501   6.443 -0.9817  2.7215 -1.0962
  136OSM   H11B14744   4.428   0.335   6.389  0.7168 -0.8401 -1.0971
  136OSM      P14745   4.267   0.637   6.349  0.0610 -0.0920 -0.0851
  136OSM    O1314746   4.389   0.721   6.370  0.5739 -0.2189 -0.4644
  136OSM    O1414747   4.178   0.668   6.236  0.1658 -0.1858  0.4080
  136OSM    O1114748   4.180   0.644   6.487  0.2417  0.1096  0.2427
  136OSM    O1214749   4.307   0.484   6.340  0.0346  0.0884  0.0280
  136OSM    C1S14750   4.137   0.524   6.542  0.0837  0.0649 -0.0557
  136OSM    H1S14751   4.223   0.464   6.580  1.1545  0.2798 -1.9828
  136OSM    H1T14752   4.092   0.456   6.466 -2.5167  0.9731  0.5694
  136OSM     NF14753   4.023   0.424   6.731  0.3006  0.0025 -0.9598
  136OSM    HNF14754   3.955   0.355   6.708 -0.4379  1.1835 -2.5227
  136OSM    C2S14755   4.031   0.546   6.651  0.9330 -0.1883  0.6888
  136OSM    H2S14756   4.065   0.631   6.714  0.4539 -0.0709  0.7878
  136OSM    C3S14757   3.894   0.577   6.576 -0.4141  0.5178 -0.5452
  136OSM    H3S14758   3.867   0.488   6.515 -1.8047  0.4824  0.0927
  136OSM     O314759   3.895   0.690   6.481 -0.3221 -0.1943  0.2191
  136OSM    HO314760   3.989   0.698   6.461 -0.5323 -1.2091 -1.4197
  136OSM    C4S14761   3.783   0.594   6.673  0.5054 -0.2982 -0.5237
  136OSM    H4S14762   3.732   0.500   6.699 -0.6664  0.8130  1.4614
  136OSM    C5S14763   3.745   0.698   6.749 -0.0577 -0.7600  0.3066
  136OSM    H5S14764   3.795   0.793   6.726 -1.5335 -0.3601 -1.5074
  136OSM    C6S14765   3.634   0.693   6.855 -0.2707  0.0276  0.2999
  136OSM    H6S14766   3.571   0.604   6.832  1.0306 -1.1347  1.0687
  136OSM    H6T14767   3.576   0.787   6.846  1.1826  1.0350  1.1410
  136OSM    C7S14768   3.698   0.675   6.992 -0.8533  0.1574  0.2110
  136OSM    H7S14769   3.790   0.737   6.998  0.4704 -0.9484 -4.3287
  136OSM    H7T14770   3.743   0.574   6.999 -0.3294  0.3984  0.3418
  136OSM    C8S14771   3.601   0.713   7.108 -0.4862  0.2748  0.3423
  136OSM    H8S14772   3.509   0.651   7.101 -2.3774  2.5261  3.0362
  136OSM    H8T14773   3.579   0.822   7.106 -1.0914  0.2605  2.8637
  136OSM    C9S14774   3.659   0.682   7.249 -0.5708  0.7940  0.2987
  136OSM    H9S14775   3.747   0.750   7.253  1.1002 -1.2712  0.0560
  136OSM    H9T14776   3.701   0.580   7.259 -0.1051  1.0550  1.0591
  136OSM   C10S14777   3.550   0.703   7.351  0.3450 -0.3408 -0.4446
  136OSM   H10S14778   3.465   0.633   7.367  1.5944 -1.2619  3.0664
  136OSM   H10T14779   3.491   0.794   7.326 -1.4392 -0.9795  1.2349
  136OSM   C11S14780   3.601   0.750   7.492 -0.2340  0.0260 -0.5594
  136OSM   H11S14781   3.646   0.851   7.492  1.8139 -0.8282 -1.0112
  136OSM   H11T14782   3.684   0.678   7.508 -0.4968 -0.4838 -1.3830
  136OSM   C12S14783   3.504   0.755   7.608 -0.0531  0.1326  0.3846
  136OSM   H12S14784   3.437   0.666   7.617 -1.3121  0.9706 -0.4063
  136OSM   H12T14785   3.440   0.846   7.606 -0.5497 -0.2208 -0.2545
  136OSM   C13S14786   3.579   0.762   7.742  0.8591  0.2283  0.0225
  136OSM   H13S14787   3.660   0.838   7.738  0.7257  0.2963 -2.6356
  136OSM   H13T14788   3.640   0.673   7.770 -1.0978 -1.2403 -0.1711
  136OSM   C14S14789   3.481   0.791   7.851 -0.1017  0.5902  0.1421
  136OSM   H14S14790   3.416   0.702   7.865  1.9909 -1.4136 -2.0339
  136OSM   H14T14791   3.411   0.868   7.811  1.5975  1.4891 -1.2283
  136OSM   C15S14792   3.551   0.825   7.986  0.0345  0.1521  0.9252
  136OSM   H15S14793   3.632   0.894   7.954  0.6347 -0.0582  1.9612
  136OSM   H15T14794   3.599   0.731   8.020  1.2676 -0.7800 -2.8663
  136OSM   C16S14795   3.473   0.878   8.109 -1.1211 -0.5271  0.6053
  136OSM   H16S14796   3.556   0.891   8.183 -0.2703  6.5298 -0.8836
  136OSM   H16T14797   3.391   0.806   8.127 -1.5329 -0.9055 -2.3231
  136OSM   C17S14798   3.419   1.016   8.088  0.6021  0.0832  0.8045
  136OSM   H17S14799   3.315   1.032   8.123  0.8554  1.3646  1.0466
  136OSM   H17T14800   3.410   1.043   7.980  0.3610 -0.6108  0.6469
  136OSM   C18S14801   3.512   1.119   8.158 -0.3100  0.4689 -0.1884
  136OSM   H18S14802   3.489   1.107   8.266 -1.2214  0.9600 -0.3134
  136OSM   H18T14803   3.477   1.223   8.138 -3.9339  0.0873  3.0528
  136OSM   H18U14804   3.621   1.110   8.141 -0.3102 -1.5067  0.6725
  136OSM    C1F14805   4.121   0.397   6.819  0.8428 -0.1884 -0.2440
  136OSM     OF14806   4.211   0.481   6.843  0.3507  0.0639  0.5868
  136OSM    C2F14807   4.127   0.258   6.883 -0.3439 -0.6709 -0.5414
  136OSM    H2F14808   4.220   0.202   6.859  0.3407 -1.2329  2.9546
  136OSM    H2G14809   4.047   0.205   6.827 -0.5222  1.7074 -2.7675
  136OSM    C3F14810   4.122   0.272   7.035  0.2435 -0.3391  0.6279
  136OSM    H3F14811   4.198   0.336   7.084 -0.7950  1.4213  0.0291
  136OSM    H3G14812   4.150   0.169   7.067  1.5529  0.2377  1.4256
  136OSM    C4F14813   3.985   0.310   7.084 -0.2601 -0.1139  0.4076
  136OSM    H4F14814   3.901   0.246   7.049 -0.5013 -0.2492  1.2194
  136OSM    H4G14815   3.964   0.416   7.054  0.5145  0.1372  0.7421
  136OSM    C5F14816   3.989   0.317   7.240  0.1102 -0.1803  0.0548
  136OSM    H5F14817   4.029   0.418   7.262 -2.6965  1.2125 -0.7349
  136OSM    H5G14818   4.061   0.245   7.283 -0.2433 -0.9094 -0.5533
  136OSM    C6F14819   3.845   0.314   7.294  0.2512 -0.1925  0.1369
  136OSM    H6F14820   3.807   0.210   7.285 -0.5099  0.1919 -1.3938
  136OSM    H6G14821   3.791   0.389   7.233  1.9191  0.3649 -0.7076
  136OSM    C7F14822   3.831   0.367   7.437 -0.2739  0.0370 -0.2032
  136OSM    H7F14823   3.879   0.468   7.437 -1.1126  0.4452 -0.3454
  136OSM    H7G14824   3.880   0.293   7.504 -0.8554  0.3094  0.5315
  136OSM    C8F14825   3.692   0.393   7.485  0.1626  0.3103 -0.0849
  136OSM    H8F14826   3.640   0.450   7.405 -0.7371  0.9261  0.9141
  136OSM    H8G14827   3.696   0.456   7.577 -0.5015 -0.1198  0.2443
  136OSM    C9F14828   3.621   0.265   7.511  0.0910  0.0854  0.3535
  136OSM    H9F14829   3.624   0.193   7.428  0.2986  0.0343  0.4055
  136OSM   C10F14830   3.547   0.225   7.616  0.0024 -0.7643  0.3781
  136OSM   H10F14831   3.518   0.120   7.633  0.3058 -1.0174 -0.5904
  136OSM   C11F14832   3.526   0.316   7.735  0.7520  0.8001 -0.4595
  136OSM   H11F14833   3.426   0.297   7.779  1.1876 -2.0770 -0.5545
  136OSM   H11G14834   3.519   0.424   7.709 -0.7767  0.4719 -1.5084
  136OSM   C12F14835   3.621   0.275   7.853  0.4355 -1.0764 -0.0141
  136OSM   H12F14836   3.725   0.274   7.815  0.5043 -1.4849  0.1792
  136OSM   H12G14837   3.595   0.176   7.898 -1.3518 -0.5043  0.3181
  136OSM   C13F14838   3.613   0.368   7.971  0.1422  0.3414  0.3000
  136OSM   H13F14839   3.653   0.464   7.931 -0.3329 -0.0011 -1.0158
  136OSM   H13G14840   3.695   0.332   8.038 -0.4818 -1.9334 -0.0684
  136OSM   C14F14841   3.483   0.396   8.040 -0.0808 -0.2061  0.0077
  136OSM   H14F14842   3.418   0.460   7.976 -0.2055  2.1960  2.3509
  136OSM   H14G14843   3.500   0.460   8.130 -2.8044 -1.2142  1.3599
  136OSM   C15F14844   3.407   0.278   8.090  0.1050  0.3879 -0.8291
  136OSM   H15F14845   3.369   0.211   8.010 -1.0649  0.4225 -0.3154
  136OSM   H15G14846   3.310   0.313   8.129 -0.2362 -0.8331 -0.5251
  136OSM   C16F14847   3.478   0.193   8.190  0.3602 -0.1807 -0.3205
  136OSM   H16F14848   3.574   0.153   8.152  0.3070 -0.0237 -0.6176
  136OSM   H16G14849   3.423   0.097   8.202 -1.5472  0.8661 -0.3352
  136OSM   C17F14850   3.495   0.259   8.327  0.2548  0.5324 -0.2332
  136OSM   H17F14851   3.393   0.261   8.371  0.4027 -2.3674  0.4131
  136OSM   H17G14852   3.547   0.357   8.319 -0.0380  0.6970 -0.1464
  136OSM   C18F14853   3.557   0.172   8.431  0.6706  0.0068  0.0730
  136OSM   H18F14854   3.668   0.175   8.426  0.8609  0.0267  2.8178
  136OSM   H18G14855   3.525   0.068   8.408  0.6498  0.0708 -0.1873
  136OSM   H18H14856   3.524   0.200   8.534  1.9963  1.3658  0.1578
  137OSM      N14857   0.227   5.000   6.388 -0.2660  0.5274 -0.8828
  137OSM    C1514858   0.284   4.913   6.272  0.1118  0.0025  0.0321
  137OSM   H15A14859   0.229   4.822   6.250  0.9251 -0.4490 -0.1926
  137OSM   H15B14860   0.385   4.880   6.291 -0.1113 -0.0625  1.1602
  137OSM   H15C14861   0.274   4.962   6.176  0.8742 -2.8378 -1.6288
  137OSM    C1414862   0.284   5.134   6.388 -0.2798 -0.7224  0.4388
  137OSM   H14A14863   0.268   5.174   6.289 -1.2106 -0.6079  0.6307
  137OSM   H14B14864   0.386   5.142   6.423 -0.1926  2.8620 -0.2006
  137OSM   H14C14865   0.219   5.197   6.447  0.5505 -0.9995  1.6833
  137OSM    C1314866   0.078   5.008   6.379  0.5453 -0.3348  0.6205
  137OSM   H13A14867   0.051   5.067   6.292  0.6969 -0.8094  0.2467
  137OSM   H13B14868   0.038   5.053   6.469  1.4742  0.6760  0.5480
  137OSM   H13C14869   0.039   4.908   6.368 -0.0357 -0.4621  3.1440
  137OSM    C1214870   0.271   4.921   6.509 -0.1502  0.3033  0.4089
  137OSM   H12A14871   0.245   4.818   6.489  1.0229  0.0378  0.1808
  137OSM   H12B14872   0.200   4.947   6.586 -2.1198 -1.3639 -0.7264
  137OSM    C1114873   0.414   4.935   6.565  0.3874  0.8017  0.0034
  137OSM   H11A14874   0.416   4.882   6.663 -0.7996 -1.3596 -1.0779
  137OSM   H11B14875   0.454   5.035   6.592  3.0575 -0.5979  1.7104
  137OSM      P14876   0.564   4.732   6.479 -0.3865 -0.1286 -0.1500
  137OSM    O1314877   0.485   4.624   6.424  0.5454  0.3260  0.3296
  137OSM    O1414878   0.705   4.739   6.427 -0.1246  0.4399 -0.1814
  137OSM    O1114879   0.564   4.706   6.634  0.1011 -0.2604  0.0773
  137OSM    O1214880   0.496   4.873   6.471 -0.1493  0.2664  0.4864
  137OSM    C1S14881   0.681   4.729   6.714 -0.1475  0.5700  0.4209
  137OSM    H1S14882   0.741   4.816   6.681 -0.1014 -0.4820 -2.6208
  137OSM    H1T14883   0.750   4.644   6.693 -1.3504 -0.1091 -1.0151
  137OSM     NF14884   0.765   4.746   6.945  0.0651  0.4009 -0.1357
  137OSM    HNF14885   0.813   4.667   6.983  0.7581  1.1403  0.5452
  137OSM    C2S14886   0.647   4.727   6.867 -0.2349 -0.2207  0.0887
  137OSM    H2S14887   0.580   4.814   6.881  2.1019  2.1978 -2.6086
  137OSM    C3S14888   0.568   4.595   6.908  0.2488  0.0630  0.1582
  137OSM    H3S14889   0.631   4.507   6.882 -0.1084  0.5326 -2.6106
  137OSM     O314890   0.449   4.580   6.836 -0.2264  1.0157 -0.6389
  137OSM    HO314891   0.453   4.635   6.757  1.5638  2.1523  0.1919
  137OSM    C4S14892   0.548   4.594   7.055  0.3442 -0.4691  0.1382
  137OSM    H4S14893   0.529   4.689   7.106  1.9203 -0.5965  1.0452
  137OSM    C5S14894   0.550   4.475   7.126 -0.5611 -0.2054 -0.6577
  137OSM    H5S14895   0.562   4.378   7.075 -0.2104 -0.4373 -0.1333
  137OSM    C6S14896   0.531   4.473   7.276  0.0315 -0.6442 -0.2106
  137OSM    H6S14897   0.625   4.468   7.336 -0.5741 -1.5504  0.6962
  137OSM    H6T14898   0.482   4.373   7.282 -0.1375 -0.5600 -0.1564
  137OSM    C7S14899   0.434   4.579   7.339 -0.3736  0.6494 -0.2107
  137OSM    H7S14900   0.334   4.581   7.290 -0.7457  0.7194  0.5348
  137OSM    H7T14901   0.483   4.678   7.338 -1.0207  0.9741 -0.1640
  137OSM    C8S14902   0.396   4.540   7.482  0.0488  0.3630 -0.2243
  137OSM    H8S14903   0.343   4.443   7.474 -0.6500  0.5909  1.3877
  137OSM    H8T14904   0.310   4.603   7.512 -0.4467 -0.5080  0.2204
  137OSM    C9S14905   0.504   4.534   7.596  0.3186 -0.7211  0.3905
  137OSM    H9S14906   0.549   4.636   7.593  1.1820 -1.0785  0.6302
  137OSM    H9T14907   0.570   4.456   7.552 -0.4338 -0.8343 -0.5675
  137OSM   C10S14908   0.458   4.504   7.743 -0.0350 -0.1794  0.0881
  137OSM   H10S14909   0.391   4.589   7.769  1.8341  2.1655 -2.2898
  137OSM   H10T14910   0.547   4.492   7.808  0.4108 -0.1923 -0.5169
  137OSM   C11S14911   0.392   4.373   7.752  1.3686  0.9157  0.0361
  137OSM   H11S14912   0.475   4.301   7.738  0.6850  0.3227 -1.1120
  137OSM   H11T14913   0.319   4.348   7.672  0.5699 -0.2530  1.0607
  137OSM   C12S14914   0.316   4.346   7.885 -0.7038  0.0171  0.3636
  137OSM   H12S14915   0.266   4.247   7.885 -2.1652  0.7134  1.8232
  137OSM   H12T14916   0.235   4.421   7.898 -0.8090 -0.1403  0.6348
  137OSM   C13S14917   0.401   4.336   8.015 -0.4483  0.0356 -0.5387
  137OSM   H13S14918   0.443   4.437   8.037 -1.1085 -0.1895  2.1773
  137OSM   H13T14919   0.480   4.259   8.011 -2.6361 -2.2619 -2.0352
  137OSM   C14S14920   0.311   4.302   8.135  0.3469 -0.4267  0.2067
  137OSM   H14S14921   0.269   4.199   8.126 -1.6968  0.3284  0.4883
  137OSM   H14T14922   0.217   4.362   8.130 -0.8133 -1.9832  1.7826
  137OSM   C15S14923   0.379   4.325   8.269  0.3907 -0.6256 -0.1014
  137OSM   H15S14924   0.439   4.418   8.262  0.9080 -1.0305 -1.2140
  137OSM   H15T14925   0.454   4.246   8.294 -1.3709 -1.4618  3.2788
  137OSM   C16S14926   0.288   4.331   8.395 -0.1810  0.2154  0.2083
  137OSM   H16S14927   0.223   4.241   8.391  1.2977 -0.8857  0.1013
  137OSM   H16T14928   0.219   4.419   8.397 -1.8214 -1.0074 -0.1479
  137OSM   C17S14929   0.383   4.342   8.518 -0.2374  0.0308  0.2234
  137OSM   H17S14930   0.439   4.248   8.539 -0.2556  0.3932  2.0472
  137OSM   H17T14931   0.308   4.359   8.598  0.1050 -0.7059  0.7137
  137OSM   C18S14932   0.484   4.462   8.520 -0.1863 -0.3376 -0.2184
  137OSM   H18S14933   0.435   4.560   8.503  1.4561  0.2786 -1.7200
  137OSM   H18T14934   0.556   4.467   8.435  0.6642  1.8849  0.5560
  137OSM   H18U14935   0.543   4.462   8.614  0.1672 -0.0174 -0.4363
  137OSM    C1F14936   0.837   4.851   6.966  0.3387 -0.6785 -0.4692
  137OSM     OF14937   0.805   4.961   6.916  0.1278  0.8502  0.2724
  137OSM    C2F14938   0.972   4.839   7.043 -0.2077 -0.6635  0.7182
  137OSM    H2F14939   0.994   4.940   7.083  1.3708 -0.3386 -0.8020
  137OSM    H2G14940   1.060   4.831   6.976 -0.8370 -1.1140 -0.0798
  137OSM    C3F14941   0.977   4.739   7.155 -0.1271 -0.0730  0.7478
  137OSM    H3F14942   1.085   4.720   7.173  0.1027 -0.3525 -0.7959
  137OSM    H3G14943   0.925   4.645   7.128 -2.9445  0.7340  2.8316
  137OSM    C4F14944   0.909   4.791   7.281  0.0054 -0.1460  0.2235
  137OSM    H4F14945   0.811   4.841   7.265  1.3116  2.8558  0.9245
  137OSM    H4G14946   0.962   4.883   7.313  0.0888  0.3097 -1.1555
  137OSM    C5F14947   0.898   4.688   7.396 -0.5446 -0.3495  0.1227
  137OSM    H5F14948   1.002   4.663   7.425 -0.5196 -0.6381 -0.2198
  137OSM    H5G14949   0.850   4.598   7.353  2.6846 -1.8628 -0.5761
  137OSM    C6F14950   0.834   4.752   7.518 -0.1317  0.4906  0.0234
  137OSM    H6F14951   0.725   4.735   7.507 -0.3276  1.8771 -0.2867
  137OSM    H6G14952   0.867   4.857   7.526  1.2811  0.0102  0.7990
  137OSM    C7F14953   0.881   4.695   7.654 -0.3323 -0.2447 -0.8116
  137OSM    H7F14954   0.984   4.729   7.681 -0.5764 -1.0463  1.2895
  137OSM    H7G14955   0.886   4.585   7.646 -1.0262 -0.2874 -0.6978
  137OSM    C8F14956   0.787   4.738   7.771 -0.3262 -0.2289  0.6901
  137OSM    H8F14957   0.809   4.660   7.847  0.3092 -2.0520 -1.2748
  137OSM    H8G14958   0.683   4.725   7.733 -1.2750  2.5911  2.0986
  137OSM    C9F14959   0.816   4.880   7.824  0.3147  0.0110  0.3877
  137OSM    H9F14960   0.871   4.943   7.751  0.5651  0.5298  1.0087
  137OSM   C10F14961   0.753   4.929   7.933  0.0264 -0.6592 -0.0412
  137OSM   H10F14962   0.767   5.035   7.962 -0.2508 -1.0519  1.6601
  137OSM   C11F14963   0.642   4.862   8.013 -0.4372 -0.1197  0.2345
  137OSM   H11F14964   0.584   4.782   7.962  0.6270 -1.4837  1.1037
  137OSM   H11G14965   0.573   4.944   8.043 -1.1976 -0.7350  0.1938
  137OSM   C12F14966   0.694   4.800   8.139 -0.1645 -0.2106 -0.4340
  137OSM   H12F14967   0.738   4.874   8.210 -1.4570  0.8762 -0.7075
  137OSM   H12G14968   0.774   4.731   8.105 -0.5490 -1.1928  0.6232
  137OSM   C13F14969   0.595   4.713   8.219 -0.2390 -0.2219  0.3687
  137OSM   H13F14970   0.646   4.696   8.315 -0.7132  0.9865  0.8496
  137OSM   H13G14971   0.590   4.617   8.162 -2.9593  0.7596 -1.2913
  137OSM   C14F14972   0.448   4.754   8.247 -0.9967 -0.0253  0.2834
  137OSM   H14F14973   0.401   4.654   8.247  2.9475 -2.0820  0.7304
  137OSM   H14G14974   0.395   4.806   8.165 -0.2879 -0.5984 -0.5588
  137OSM   C15F14975   0.435   4.821   8.380 -0.2446  0.0229  0.8185
  137OSM   H15F14976   0.509   4.904   8.387  0.0934  0.0014 -1.6942
  137OSM   H15G14977   0.455   4.745   8.458 -2.5015 -1.1976  0.2836
  137OSM   C16F14978   0.293   4.879   8.408 -0.3226  0.2526  0.4239
  137OSM   H16F14979   0.303   4.921   8.511  0.3255  2.2425 -0.3936
  137OSM   H16G14980   0.215   4.801   8.412 -0.3648  0.2825  0.1463
  137OSM   C17F14981   0.254   4.993   8.309  0.2636 -0.5222 -0.9385
  137OSM   H17F14982   0.248   4.959   8.203 -2.8677 -1.2402 -0.6136
  137OSM   H17G14983   0.342   5.061   8.308 -0.0488  0.0411 -4.6045
  137OSM   C18F14984   0.121   5.073   8.341 -0.5654 -0.4984  0.4209
  137OSM   H18F14985   0.039   4.999   8.333  0.0886 -1.1585 -0.2762
  137OSM   H18G14986   0.096   5.153   8.268  1.3360 -0.3680 -0.1308
  137OSM   H18H14987   0.124   5.121   8.441 -3.1270  2.3972 -0.7112
  138OSM      N14988   1.885   0.145   5.858  0.1848  0.2008  0.7416
  138OSM    C1514989   1.797   0.242   5.791 -0.6292 -0.6603  0.2995
  138OSM   H15A14990   1.809   0.244   5.684  2.1455  1.0974  0.5393
  138OSM   H15B14991   1.815   0.344   5.823 -1.5653 -0.2114 -0.5348
  138OSM   H15C14992   1.695   0.213   5.809 -1.0541 -1.5462 -3.0226
  138OSM    C1414993   2.020   0.175   5.790  0.2529  0.2659  0.4300
  138OSM   H14A14994   2.047   0.276   5.817 -0.1035  0.7765 -1.0228
  138OSM   H14B14995   2.021   0.168   5.682  1.1539 -0.1048  0.4556
  138OSM   H14C14996   2.100   0.115   5.832  1.5525  0.7012 -1.2890
  138OSM    C1314997   1.893   0.173   6.007 -1.4215  0.1259  0.0652
  138OSM   H13A14998   1.918   0.277   6.016  1.9421 -0.4734 -1.2209
  138OSM   H13B14999   1.977   0.113   6.038 -0.0035  1.9738 -0.0446
  138OSM   H13C15000   1.806   0.147   6.067 -0.4822  1.7160  2.2791
  138OSM    C1215001   1.834   0.005   5.827 -0.2162 -0.6500 -0.7576
  138OSM   H12A15002   1.905  -0.058   5.878 -1.5123 -1.2659  0.3634
  138OSM   H12B15003   1.840  -0.007   5.719 -0.5152  0.1961 -0.8732
  138OSM    C1115004   1.697  -0.045   5.874 -0.8428  0.1170  0.1494
  138OSM   H11A15005   1.695  -0.147   5.831 -1.8575 -0.7000  2.0214
  138OSM   H11B15006   1.613   0.009   5.826  0.2744  3.0544  1.2190
  138OSM      P15007   1.770  -0.158   6.091  0.2185 -0.1135  0.1206
  138OSM    O1315008   1.742  -0.284   6.023 -0.1529  0.2870 -0.1257
  138OSM    O1415009   1.912  -0.125   6.115  0.0689  0.9522  0.1717
  138OSM    O1115010   1.690  -0.161   6.231  0.1427  0.2400  0.4399
  138OSM    O1215011   1.700  -0.040   6.019 -0.3002  0.3245 -0.1015
  138OSM    C1S15012   1.687  -0.047   6.321  0.2018  1.0824 -0.7150
  138OSM    H1S15013   1.592   0.006   6.299  0.0652  0.4589 -1.6984
  138OSM    H1T15014   1.764   0.029   6.297  1.0983  0.5421  0.3512
  138OSM     NF15015   1.725   0.044   6.548  0.3363 -0.4083 -0.0323
  138OSM    HNF15016   1.813   0.073   6.586 -1.1531  1.7830  2.0098
  138OSM    C2S15017   1.713  -0.080   6.468 -0.7584 -0.5746  0.1334
  138OSM    H2S15018   1.629  -0.140   6.511 -0.6661 -0.8888 -0.1225
  138OSM    C3S15019   1.835  -0.183   6.472  0.0583  0.2111 -0.8990
  138OSM    H3S15020   1.930  -0.152   6.424  0.7953 -0.1991  0.2565
  138OSM     O315021   1.798  -0.305   6.414  0.0689  0.7231  0.4378
  138OSM    HO315022   1.726  -0.279   6.357 -0.5642  0.8326  1.2767
  138OSM    C4S15023   1.866  -0.216   6.619  0.1029 -0.0466  0.5854
  138OSM    H4S15024   1.776  -0.257   6.667 -0.2188 -1.9957 -1.4870
  138OSM    C5S15025   1.984  -0.217   6.684  0.2302  0.4215 -0.4780
  138OSM    H5S15026   2.076  -0.185   6.632  1.5758  0.7540  1.9126
  138OSM    C6S15027   1.995  -0.255   6.830 -0.6897 -0.2654  0.2854
  138OSM    H6S15028   2.045  -0.172   6.884 -2.9481 -0.0318  2.1774
  138OSM    H6T15029   2.077  -0.327   6.847  0.4798  0.7950 -0.6238
  138OSM    C7S15030   1.879  -0.306   6.904  0.4667  0.2726 -0.0115
  138OSM    H7S15031   1.827  -0.397   6.868 -1.1497  0.2044  2.2585
  138OSM    H7T15032   1.795  -0.233   6.902  1.1720  1.1492  1.1336
  138OSM    C8S15033   1.907  -0.329   7.054 -0.0962 -0.1584  0.1498
  138OSM    H8S15034   1.983  -0.253   7.080 -0.5226  0.9439 -1.6379
  138OSM    H8T15035   1.949  -0.432   7.062 -0.2091 -0.1987  0.2364
  138OSM    C9S15036   1.787  -0.318   7.150  0.0280  0.9846 -0.8160
  138OSM    H9S15037   1.706  -0.386   7.118  1.9197 -2.2738  0.7852
  138OSM    H9T15038   1.742  -0.219   7.126  0.3897  1.0070 -1.4284
  138OSM   C10S15039   1.824  -0.334   7.298  0.2385  1.2047  0.0886
  138OSM   H10S15040   1.907  -0.265   7.326 -0.1375  1.1101  1.4711
  138OSM   H10T15041   1.858  -0.438   7.314  0.1177  1.2179  0.4189
  138OSM   C11S15042   1.710  -0.313   7.389  0.4665 -0.2031 -0.5697
  138OSM   H11S15043   1.630  -0.384   7.360 -1.2751  0.8246  1.4940
  138OSM   H11T15044   1.660  -0.214   7.388  0.8633  0.0048 -0.3958
  138OSM   C12S15045   1.731  -0.356   7.535 -0.2347 -0.0799  0.7224
  138OSM   H12S15046   1.754  -0.464   7.530  0.0356  0.0267 -1.5567
  138OSM   H12T15047   1.638  -0.350   7.595 -0.4039 -3.0654  0.9125
  138OSM   C13S15048   1.840  -0.273   7.607 -0.3872  0.0319 -0.2602
  138OSM   H13S15049   1.800  -0.171   7.628 -0.4743 -0.3123  1.4349
  138OSM   H13T15050   1.942  -0.272   7.563  0.6620 -0.3616  2.0179
  138OSM   C14S15051   1.860  -0.340   7.745 -0.0516 -0.0319 -0.2069
  138OSM   H14S15052   1.940  -0.281   7.795 -0.2151 -1.2436  1.5644
  138OSM   H14T15053   1.900  -0.441   7.726 -0.2195 -0.0447 -0.4902
  138OSM   C15S15054   1.746  -0.343   7.851 -0.4454 -0.9402 -0.3237
  138OSM   H15S15055   1.672  -0.425   7.846 -0.5445 -0.8834  0.2108
  138OSM   H15T15056   1.686  -0.250   7.845  2.1766  0.7688 -3.5300
  138OSM   C16S15057   1.791  -0.370   7.994  0.2840 -0.1160  0.3555
  138OSM   H16S15058   1.877  -0.301   8.011 -1.4429  1.6060  2.8234
  138OSM   H16T15059   1.826  -0.475   8.005  0.0748 -0.2612 -0.3329
  138OSM   C17S15060   1.685  -0.345   8.104  0.6026  0.6272 -0.1433
  138OSM   H17S15061   1.635  -0.246   8.091 -1.4548 -0.2541  0.6731
  138OSM   H17T15062   1.742  -0.340   8.199  1.9514  0.7861 -0.9446
  138OSM   C18S15063   1.567  -0.447   8.103 -0.0184 -0.2278  0.4354
  138OSM   H18S15064   1.502  -0.422   8.017  0.7145 -0.2691 -0.1384
  138OSM   H18T15065   1.515  -0.433   8.200  1.1265  1.1895  0.8838
  138OSM   H18U15066   1.591  -0.555   8.091 -0.2365 -0.1900 -0.3725
  138OSM    C1F15067   1.621   0.126   6.580 -0.1605 -0.6096  0.0818
  138OSM     OF15068   1.526   0.129   6.497 -0.0283 -0.0332 -0.1315
  138OSM    C2F15069   1.630   0.202   6.707  0.2133 -0.5719 -0.2178
  138OSM    H2F15070   1.553   0.282   6.702 -1.8258 -2.4297 -0.3335
  138OSM    H2G15071   1.730   0.249   6.713 -0.9224  1.8202  1.9696
  138OSM    C3F15072   1.613   0.108   6.835 -0.3369 -0.3128 -0.1128
  138OSM    H3F15073   1.693   0.032   6.843 -0.4326 -0.3680  0.3730
  138OSM    H3G15074   1.513   0.059   6.828 -0.3830 -0.5391  1.6264
  138OSM    C4F15075   1.610   0.187   6.969  1.0473  0.4627  0.1681
  138OSM    H4F15076   1.535   0.137   7.033 -2.0757  2.9827 -1.2094
  138OSM    H4G15077   1.565   0.283   6.936  2.1017  0.6062 -0.9391
  138OSM    C5F15078   1.740   0.207   7.040 -0.1815  0.2397  0.3057
  138OSM    H5F15079   1.727   0.302   7.095 -0.6763 -0.0555  0.7031
  138OSM    H5G15080   1.823   0.228   6.968 -0.2747  1.6913  0.6079
  138OSM    C6F15081   1.770   0.094   7.135 -0.0636  0.2034  0.0927
  138OSM    H6F15082   1.877   0.099   7.166 -0.0561 -5.0356  2.0231
  138OSM    H6G15083   1.759  -0.008   7.091  1.1733 -0.0409  0.2936
  138OSM    C7F15084   1.674   0.104   7.251 -0.2645 -0.4404  0.2321
  138OSM    H7F15085   1.572   0.058   7.245 -1.4536  2.0179  0.3953
  138OSM    H7G15086   1.657   0.213   7.262 -0.2155 -0.0626 -2.6642
  138OSM    C8F15087   1.740   0.070   7.389  0.3152 -1.1257  0.1117
  138OSM    H8F15088   1.824   0.142   7.401  0.3413 -1.0609 -0.4569
  138OSM    H8G15089   1.787  -0.029   7.374 -0.2365 -1.4186  0.2962
  138OSM    C9F15090   1.628   0.074   7.498 -0.2529  0.6695 -0.1087
  138OSM    H9F15091   1.529   0.031   7.478 -0.2445  0.7246 -0.2743
  138OSM   C10F15092   1.647   0.121   7.626  0.6151  0.3346  0.3001
  138OSM   H10F15093   1.561   0.107   7.693 -0.3800 -0.4413 -1.0791
  138OSM   C11F15094   1.763   0.192   7.685  0.6483  1.2054  0.0088
  138OSM   H11F15095   1.748   0.296   7.720 -2.2098  0.0369  2.6659
  138OSM   H11G15096   1.833   0.191   7.598  0.8860 -0.8768  0.1817
  138OSM   C12F15097   1.826   0.124   7.804  0.7321 -0.2527 -0.3134
  138OSM   H12F15098   1.927   0.159   7.831 -0.1850 -0.4193  4.0103
  138OSM   H12G15099   1.834   0.014   7.789  2.1736 -0.1364 -0.4956
  138OSM   C13F15100   1.739   0.152   7.935 -1.1274  0.1330 -0.0105
  138OSM   H13F15101   1.634   0.125   7.913 -0.5271 -0.8831 -1.8661
  138OSM   H13G15102   1.746   0.259   7.963 -1.2748 -0.1675  1.2222
  138OSM   C14F15103   1.800   0.086   8.060  0.4545  0.6962 -0.3823
  138OSM   H14F15104   1.905   0.122   8.059  1.2602 -1.4600  0.0475
  138OSM   H14G15105   1.797  -0.025   8.061 -1.1067  0.6937 -0.9852
  138OSM   C15F15106   1.723   0.128   8.186  0.5176  0.5706  0.5470
  138OSM   H15F15107   1.762   0.066   8.269  2.6273  0.7982 -0.2095
  138OSM   H15G15108   1.618   0.101   8.158  1.5915 -0.1579 -3.4962
  138OSM   C16F15109   1.730   0.272   8.238  0.0141 -0.1719 -0.0820
  138OSM   H16F15110   1.701   0.354   8.170 -0.2053 -0.1628  0.0226
  138OSM   H16G15111   1.836   0.287   8.270 -0.2646 -0.4601  1.0234
  138OSM   C17F15112   1.646   0.282   8.366  0.7438 -0.1327  0.7113
  138OSM   H17F15113   1.688   0.200   8.428  1.0377 -0.3822  0.1832
  138OSM   H17G15114   1.540   0.265   8.338 -0.1270  0.9661  3.0774
  138OSM   C18F15115   1.658   0.414   8.441 -0.9730  0.1295 -0.2224
  138OSM   H18F15116   1.630   0.505   8.383  1.8554  0.7423 -0.7675
  138OSM   H18G15117   1.759   0.419   8.487  0.3110  0.3400 -2.8526
  138OSM   H18H15118   1.592   0.387   8.526  0.1055 -1.9288  0.0381
  139OSM      N15119   5.535   1.796   6.253 -0.0923 -0.3733  0.0507
  139OSM    C1515120   5.678   1.829   6.271 -0.0973  0.5883 -0.3939
  139OSM   H15A15121   5.721   1.777   6.356 -0.1717  2.5753  0.9193
  139OSM   H15B15122   5.706   1.932   6.287  0.9778  0.3086 -0.3738
  139OSM   H15C15123   5.723   1.792   6.180  1.6198 -1.0240  1.0241
  139OSM    C1415124   5.485   1.859   6.131 -0.0857  0.2642  0.1651
  139OSM   H14A15125   5.395   1.812   6.096 -0.9403  0.9878  1.2913
  139OSM   H14B15126   5.559   1.835   6.057  0.6648 -0.7486  1.2178
  139OSM   H14C15127   5.470   1.966   6.136  3.9986  1.0204 -0.4189
  139OSM    C1315128   5.529   1.645   6.243  0.0300 -0.3223 -0.1552
  139OSM   H13A15129   5.427   1.608   6.242  0.1251 -0.6089 -2.2313
  139OSM   H13B15130   5.579   1.605   6.330 -1.0786  0.7818  1.0338
  139OSM   H13C15131   5.573   1.614   6.150 -2.2873 -2.7449 -0.5873
  139OSM    C1215132   5.446   1.830   6.373  0.2056  0.7085  0.5922
  139OSM   H12A15133   5.348   1.797   6.343  0.3387 -0.4432  1.3541
  139OSM   H12B15134   5.434   1.935   6.395 -2.6693  0.0378  2.7666
  139OSM    C1115135   5.487   1.765   6.506  1.0621 -0.1446  0.0626
  139OSM   H11A15136   5.594   1.787   6.521  0.5566  1.7735  1.2365
  139OSM   H11B15137   5.484   1.654   6.509  2.4229 -0.1918  2.8877
  139OSM      P15138   5.249   1.770   6.635 -0.0015  0.3242 -0.0686
  139OSM    O1315139   5.195   1.825   6.760  0.2258 -0.4562 -0.0905
  139OSM    O1415140   5.171   1.801   6.511 -0.0777 -0.3118 -0.2529
  139OSM    O1115141   5.264   1.610   6.644 -0.3930 -0.4750 -0.5969
  139OSM    O1215142   5.402   1.820   6.616 -0.1896  0.8030 -0.1991
  139OSM    C1S15143   5.360   1.551   6.739  0.2254 -0.4596 -0.9005
  139OSM    H1S15144   5.441   1.618   6.773 -1.8507  2.2046 -0.8909
  139OSM    H1T15145   5.398   1.451   6.709 -0.3013 -0.9210 -0.0838
  139OSM     NF15146   5.354   1.477   6.991 -0.4587  0.1381 -0.4689
  139OSM    HNF15147   5.386   1.384   7.008 -0.7762  0.0986 -0.0741
  139OSM    C2S15148   5.280   1.502   6.872  0.0241 -0.1933 -1.1432
  139OSM    H2S15149   5.218   1.593   6.890 -0.2831 -0.5923 -0.1616
  139OSM    C3S15150   5.184   1.387   6.834 -0.4425 -0.1220 -0.7424
  139OSM    H3S15151   5.249   1.304   6.799 -0.7951 -1.1019  0.8262
  139OSM     O315152   5.099   1.421   6.727  0.1088 -0.0750 -0.0762
  139OSM    HO315153   5.144   1.502   6.700 -0.0504 -0.0681 -0.3244
  139OSM    C4S15154   5.088   1.342   6.940 -0.3710 -0.5837 -0.1386
  139OSM    H4S15155   5.029   1.418   6.993  1.7390 -0.0738  1.6145
  139OSM    C5S15156   5.055   1.215   6.967  0.1835 -0.0233 -0.7829
  139OSM    H5S15157   5.105   1.134   6.912  2.1188  0.2715  0.4192
  139OSM    C6S15158   4.955   1.170   7.071  0.4401  0.7317 -0.3879
  139OSM    H6S15159   4.999   1.091   7.136  0.9605  0.8438 -0.5938
  139OSM    H6T15160   4.868   1.127   7.017  0.8051  0.2355 -0.5921
  139OSM    C7S15161   4.894   1.265   7.178 -0.7600 -0.5251  0.7273
  139OSM    H7S15162   4.820   1.336   7.135  0.5318  1.4771  1.6810
  139OSM    H7T15163   4.973   1.333   7.215 -1.0304  0.4414 -0.3986
  139OSM    C8S15164   4.830   1.184   7.284  0.2781  0.3297  0.2644
  139OSM    H8S15165   4.899   1.115   7.337 -0.2668 -1.8521 -1.6670
  139OSM    H8T15166   4.748   1.118   7.247 -1.6868  1.6282  2.0785
  139OSM    C9S15167   4.774   1.273   7.400 -0.7287  0.6029  0.5052
  139OSM    H9S15168   4.680   1.327   7.375 -0.6530  0.6856  0.4012
  139OSM    H9T15169   4.852   1.338   7.445  1.0165 -0.4322 -0.8840
  139OSM   C10S15170   4.739   1.175   7.521 -0.5276 -0.3545  0.2024
  139OSM   H10S15171   4.826   1.108   7.540 -0.2061 -1.0473 -3.0891
  139OSM   H10T15172   4.662   1.103   7.485  0.5973 -1.0720 -0.8815
  139OSM   C11S15173   4.700   1.239   7.659  1.1773 -0.4343 -0.0106
  139OSM   H11S15174   4.606   1.295   7.637  1.3365 -0.3049 -0.3860
  139OSM   H11T15175   4.765   1.325   7.684  2.8969 -1.4691 -0.7889
  139OSM   C12S15176   4.681   1.128   7.763  0.5616  0.2428 -0.2555
  139OSM   H12S15177   4.755   1.054   7.725  0.9700 -0.4167  1.6811
  139OSM   H12T15178   4.583   1.076   7.753  1.5701 -1.6584 -0.6536
  139OSM   C13S15179   4.695   1.183   7.906 -0.4538  0.5866 -0.6188
  139OSM   H13S15180   4.630   1.272   7.922  0.1447  0.7442  1.2788
  139OSM   H13T15181   4.803   1.210   7.901 -0.6863  1.4860 -0.8869
  139OSM   C14S15182   4.653   1.074   8.007  0.2769 -0.1316  0.3411
  139OSM   H14S15183   4.674   0.976   7.958 -2.4533 -0.1887 -0.9035
  139OSM   H14T15184   4.543   1.083   8.017  0.4489  0.7419  1.6260
  139OSM   C15S15185   4.738   1.094   8.139  0.1514 -0.2035 -0.3364
  139OSM   H15S15186   4.833   1.149   8.126  1.4270 -2.3290 -0.5989
  139OSM   H15T15187   4.770   0.992   8.170  3.5028  0.5451 -0.9435
  139OSM   C16S15188   4.651   1.147   8.262 -0.0885  0.3446  0.0990
  139OSM   H16S15189   4.553   1.095   8.254  0.6297 -0.9516 -0.5820
  139OSM   H16T15190   4.641   1.257   8.248  0.8218  0.5061  0.6555
  139OSM   C17S15191   4.710   1.117   8.396  0.4244  0.1291 -0.7891
  139OSM   H17S15192   4.730   1.008   8.396 -1.3999 -0.2626 -2.4259
  139OSM   H17T15193   4.628   1.123   8.471 -1.2056 -2.3453 -2.2366
  139OSM   C18S15194   4.842   1.196   8.424 -0.4066  0.5503 -0.5133
  139OSM   H18S15195   4.835   1.306   8.427 -0.5453  0.5319  0.0264
  139OSM   H18T15196   4.922   1.168   8.352 -0.1500  0.1404 -0.0774
  139OSM   H18U15197   4.877   1.167   8.526 -0.5311  3.5267  0.4629
  139OSM    C1F15198   5.407   1.575   7.055 -0.4526 -0.2936 -0.1739
  139OSM     OF15199   5.395   1.689   7.016  0.0568 -0.5719  0.3211
  139OSM    C2F15200   5.485   1.547   7.182 -0.5468  0.6175 -0.2998
  139OSM    H2F15201   5.461   1.611   7.270 -0.6794 -1.5878  1.3544
  139OSM    H2G15202   5.595   1.555   7.168 -0.4979  1.1805  0.3906
  139OSM    C3F15203   5.467   1.402   7.236  0.5584  0.5538 -0.1126
  139OSM    H3F15204   5.543   1.401   7.317  0.4156  0.9865  0.0295
  139OSM    H3G15205   5.502   1.315   7.177  2.0012 -0.6531  2.3697
  139OSM    C4F15206   5.334   1.375   7.315 -0.0218  0.2925 -0.4691
  139OSM    H4F15207   5.242   1.381   7.253 -0.4185 -1.4090 -0.0916
  139OSM    H4G15208   5.313   1.454   7.390 -0.9596 -1.5125  1.2589
  139OSM    C5F15209   5.338   1.247   7.398  0.6581 -0.0002 -0.0426
  139OSM    H5F15210   5.428   1.245   7.463  0.6300  4.4027  0.4341
  139OSM    H5G15211   5.325   1.155   7.337  0.6157 -1.2156  1.7019
  139OSM    C6F15212   5.215   1.227   7.496 -0.2230 -0.2870 -0.0375
  139OSM    H6F15213   5.197   1.123   7.529 -0.3352 -0.1085  0.4610
  139OSM    H6G15214   5.119   1.261   7.453 -1.3123 -1.8045  1.0869
  139OSM    C7F15215   5.231   1.310   7.621 -0.2361 -0.0475  0.6049
  139OSM    H7F15216   5.237   1.414   7.583 -0.4559 -0.9305 -2.0621
  139OSM    H7G15217   5.325   1.291   7.677 -0.0228  0.8513  0.5574
  139OSM    C8F15218   5.108   1.295   7.705  0.1360 -0.1986  0.1450
  139OSM    H8F15219   5.025   1.336   7.644  0.2202  0.8021  0.6697
  139OSM    H8G15220   5.127   1.372   7.783  3.3038 -1.6236  0.9227
  139OSM    C9F15221   5.089   1.161   7.760  0.7330  0.3109  0.0881
  139OSM    H9F15222   5.062   1.078   7.692 -1.1155  1.6519 -0.9067
  139OSM   C10F15223   5.088   1.133   7.891 -0.4949  0.5714 -0.5177
  139OSM   H10F15224   5.071   1.027   7.912 -1.2364  1.2130  2.7941
  139OSM   C11F15225   5.111   1.213   8.020 -0.0741 -0.0629  0.1360
  139OSM   H11F15226   5.076   1.160   8.112  0.5573  0.9402  0.9774
  139OSM   H11G15227   5.050   1.306   8.024 -1.7802 -1.1405  3.6585
  139OSM   C12F15228   5.251   1.280   8.042 -0.0162  0.1012 -0.2509
  139OSM   H12F15229   5.285   1.340   7.954 -0.0827 -2.8409 -2.4612
  139OSM   H12G15230   5.323   1.198   8.061 -2.1416 -1.9498 -0.6055
  139OSM   C13F15231   5.261   1.371   8.165  0.8596  0.1320 -0.1948
  139OSM   H13F15232   5.199   1.462   8.149 -0.9473 -0.9652  0.3308
  139OSM   H13G15233   5.364   1.409   8.181  0.7348  1.2848 -1.8252
  139OSM   C14F15234   5.226   1.304   8.301 -0.4504  0.5126 -0.0174
  139OSM   H14F15235   5.306   1.232   8.327  0.3186  1.2103 -0.4066
  139OSM   H14G15236   5.132   1.247   8.282 -0.0789 -0.8154  1.8643
  139OSM   C15F15237   5.206   1.398   8.418 -0.1400 -0.2055  0.0577
  139OSM   H15F15238   5.104   1.439   8.400  0.0132 -0.0744 -0.5223
  139OSM   H15G15239   5.273   1.486   8.412  0.9905 -1.0511  0.0026
  139OSM   C16F15240   5.222   1.335   8.553 -0.1634 -0.4798 -0.1986
  139OSM   H16F15241   5.325   1.292   8.546 -0.7170 -1.8637 -0.1653
  139OSM   H16G15242   5.148   1.253   8.555 -0.0868 -0.5455  0.7073
  139OSM   C17F15243   5.195   1.420   8.677 -0.1047  0.0692 -0.0974
  139OSM   H17F15244   5.092   1.462   8.679 -0.1823 -0.0322  2.9152
  139OSM   H17G15245   5.257   1.512   8.680 -1.8307  1.3659 -1.5096
  139OSM   C18F15246   5.211   1.353   8.821  0.3773  0.0311 -0.5106
  139OSM   H18F15247   5.309   1.303   8.833  0.7977  1.1476  1.0101
  139OSM   H18G15248   5.140   1.267   8.819  0.6548 -0.2104 -0.0820
  139OSM   H18H15249   5.188   1.426   8.902 -1.3915  1.0019 -1.8003
  140OSM      N15250   0.225   4.218   6.417 -0.9218  0.1940 -0.4030
  140OSM    C1515251   0.248   4.323   6.524  0.8468 -0.4714 -0.2782
  140OSM   H15A15252   0.174   4.312   6.602  1.5600 -2.3985  0.1704
  140OSM   H15B15253   0.234   4.417   6.473  2.0429 -0.6848 -1.0522
  140OSM   H15C15254   0.346   4.312   6.570 -0.0554 -0.0175  1.8788
  140OSM    C1415255   0.207   4.088   6.493 -0.6270 -0.6409  0.2756
  140OSM   H14A15256   0.181   4.011   6.421  1.6532 -1.1179 -0.1306
  140OSM   H14B15257   0.133   4.097   6.571  1.4779 -0.7544  2.3941
  140OSM   H14C15258   0.294   4.071   6.555  0.3023  0.1425 -0.7724
  140OSM    C1315259   0.106   4.253   6.330  1.0306 -0.9187 -0.6775
  140OSM   H13A15260   0.079   4.189   6.247 -0.8441  0.7127 -1.3959
  140OSM   H13B15261   0.130   4.349   6.287 -0.9148 -1.0988 -2.3469
  140OSM   H13C15262   0.017   4.260   6.390  1.9276  1.6348  0.4832
  140OSM    C1215263   0.350   4.204   6.329  0.1857 -0.0160  0.2763
  140OSM   H12A15264   0.354   4.290   6.264  1.7695 -0.2188  0.0542
  140OSM   H12B15265   0.332   4.119   6.264 -1.8598  1.0718 -0.6531
  140OSM    C1115266   0.484   4.193   6.398 -1.0393  0.3681 -0.1588
  140OSM   H11A15267   0.488   4.290   6.452 -1.4881  0.4503 -0.2672
  140OSM   H11B15268   0.565   4.190   6.322  0.6913 -0.1416  1.6315
  140OSM      P15269   0.633   4.073   6.592  0.1455  0.0711  0.2022
  140OSM    O1315270   0.708   3.960   6.548 -0.0571  0.2554  0.1617
  140OSM    O1415271   0.704   4.203   6.609 -0.2434  0.3484  0.3100
  140OSM    O1115272   0.567   4.040   6.736  0.1451  0.1003  0.0508
  140OSM    O1215273   0.501   4.092   6.500  0.0679 -0.2299 -0.0471
  140OSM    C1S15274   0.485   3.923   6.745  0.4078 -0.3641  0.2207
  140OSM    H1S15275   0.556   3.838   6.753  0.2761 -0.3947  1.1629
  140OSM    H1T15276   0.430   3.901   6.651  1.2121 -0.2737 -0.2844
  140OSM     NF15277   0.344   3.803   6.914  0.5095 -1.1986 -0.2910
  140OSM    HNF15278   0.249   3.785   6.887 -0.5877  0.9133  1.8168
  140OSM    C2S15279   0.393   3.934   6.869  0.6275 -0.4289 -0.0782
  140OSM    H2S15280   0.457   3.966   6.954 -0.1888  0.4028  0.2308
  140OSM    C3S15281   0.283   4.042   6.851  0.1065 -0.2966 -0.2934
  140OSM    H3S15282   0.202   4.013   6.781 -1.6111  2.2989  0.4616
  140OSM     O315283   0.323   4.163   6.793 -0.7316 -0.6950 -0.3458
  140OSM    HO315284   0.415   4.151   6.768 -0.1041  2.2109  0.1088
  140OSM    C4S15285   0.210   4.071   6.984 -0.7706  0.0561  0.1809
  140OSM    H4S15286   0.109   4.026   6.985 -0.7192 -0.0967  2.0060
  140OSM    C5S15287   0.258   4.147   7.084 -0.1822  0.2432  0.1523
  140OSM    H5S15288   0.358   4.193   7.080  0.1473 -0.4603  0.1557
  140OSM    C6S15289   0.190   4.153   7.222 -0.2305 -0.5253  0.3628
  140OSM    H6S15290   0.128   4.244   7.239  1.6559  0.6392  1.2657
  140OSM    H6T15291   0.262   4.160   7.306 -0.7578 -0.5777  0.8292
  140OSM    C7S15292   0.089   4.038   7.263 -0.7991  0.8338  0.3749
  140OSM    H7S15293   0.024   4.007   7.179  0.3927 -0.9988  0.0814
  140OSM    H7T15294   0.026   4.089   7.339  3.1621  2.7071  2.6716
  140OSM    C8S15295   0.164   3.917   7.317 -0.9105 -0.2155 -0.1601
  140OSM    H8S15296   0.233   3.949   7.398  0.4192  0.7227 -1.6049
  140OSM    H8T15297   0.233   3.878   7.239 -0.5213  0.4900 -0.1861
  140OSM    C9S15298   0.076   3.799   7.362 -0.1989 -0.0266 -0.0621
  140OSM    H9S15299   0.018   3.754   7.279 -4.0851  2.2105  1.1878
  140OSM    H9T15300  -0.010   3.841   7.419 -0.8296 -1.4075  0.0653
  140OSM   C10S15301   0.151   3.693   7.444 -0.4627 -0.8634 -0.8970
  140OSM   H10S15302   0.085   3.642   7.517  0.6515 -0.7317  0.2519
  140OSM   H10T15303   0.211   3.746   7.522 -0.8183 -3.2611  1.1307
  140OSM   C11S15304   0.231   3.584   7.370 -0.0125  0.4386  0.5627
  140OSM   H11S15305   0.294   3.629   7.290  0.0395 -2.1935 -1.0031
  140OSM   H11T15306   0.164   3.516   7.314  0.3088 -0.0921  0.8086
  140OSM   C12S15307   0.330   3.491   7.451 -0.2432 -0.1082 -0.0358
  140OSM   H12S15308   0.413   3.549   7.496 -1.0026 -0.2144  1.5496
  140OSM   H12T15309   0.378   3.415   7.386  1.5116  1.5418 -0.7691
  140OSM   C13S15310   0.249   3.408   7.553 -0.8793  0.2519  1.1230
  140OSM   H13S15311   0.163   3.362   7.499 -0.9087  1.4506  0.1065
  140OSM   H13T15312   0.210   3.475   7.633 -2.7487  1.2700 -0.5433
  140OSM   C14S15313   0.340   3.306   7.617 -0.1984 -0.8499 -0.2915
  140OSM   H14S15314   0.417   3.360   7.676 -1.1576  1.0775 -0.7380
  140OSM   H14T15315   0.376   3.237   7.537  0.5067  0.7406 -1.4155
  140OSM   C15S15316   0.265   3.222   7.718  1.2520  0.5536  0.0670
  140OSM   H15S15317   0.324   3.133   7.747 -1.3043 -0.7781  1.5063
  140OSM   H15T15318   0.169   3.185   7.677  0.5649  0.7665  1.4174
  140OSM   C16S15319   0.230   3.300   7.847 -0.0406  0.5224  0.1957
  140OSM   H16S15320   0.203   3.405   7.824 -1.2218  0.0701 -0.5853
  140OSM   H16T15321   0.319   3.288   7.912  1.7070 -0.0678 -2.1366
  140OSM   C17S15322   0.110   3.236   7.922 -0.0224  0.4152 -0.4758
  140OSM   H17S15323   0.008   3.229   7.877 -0.1855 -0.6405  0.0138
  140OSM   H17T15324   0.088   3.305   8.006  1.5526 -1.6012  1.7391
  140OSM   C18S15325   0.138   3.106   7.997 -0.0185 -0.0881 -0.2537
  140OSM   H18S15326   0.221   3.124   8.069 -2.3707 -2.1374  3.2511
  140OSM   H18T15327   0.180   3.024   7.935  2.9257  0.5753  0.6766
  140OSM   H18U15328   0.044   3.082   8.052 -0.1547  3.2090  1.1937
  140OSM    C1F15329   0.416   3.705   6.966  0.2379  0.3535  0.3929
  140OSM     OF15330   0.534   3.718   6.992  0.0416 -0.1897  0.0991
  140OSM    C2F15331   0.342   3.568   6.972  0.5044 -0.0052  0.2864
  140OSM    H2F15332   0.328   3.514   6.876 -0.0870 -3.9668  2.3981
  140OSM    H2G15333   0.246   3.573   7.027  0.9880  0.1249  1.1323
  140OSM    C3F15334   0.432   3.472   7.051  0.4572 -0.1621 -0.1714
  140OSM    H3F15335   0.477   3.513   7.144 -1.1230  0.1650  0.4753
  140OSM    H3G15336   0.515   3.447   6.982 -0.0081 -2.6733  0.0903
  140OSM    C4F15337   0.370   3.335   7.086 -0.5058  0.3782  0.1839
  140OSM    H4F15338   0.337   3.286   6.992 -0.0165  0.9737 -0.3054
  140OSM    H4G15339   0.283   3.344   7.155 -1.0491  0.1807 -0.4736
  140OSM    C5F15340   0.478   3.254   7.150  0.6133 -0.4652  0.2032
  140OSM    H5F15341   0.519   3.300   7.243 -1.6631  0.3336  0.8842
  140OSM    H5G15342   0.563   3.256   7.078 -0.0077  1.6532 -0.5495
  140OSM    C6F15343   0.433   3.108   7.183  0.4801 -0.8012 -0.5037
  140OSM    H6F15344   0.398   3.065   7.087  2.4847  0.3217 -1.7877
  140OSM    H6G15345   0.348   3.119   7.254  1.6655  1.5091  0.6472
  140OSM    C7F15346   0.536   3.006   7.237 -0.2422 -0.0308 -0.5708
  140OSM    H7F15347   0.566   3.041   7.338 -1.9263  2.4490 -0.8392
  140OSM    H7G15348   0.621   3.004   7.166  1.3299  1.1860  1.2063
  140OSM    C8F15349   0.482   2.864   7.263 -0.7939 -0.5496 -0.0450
  140OSM    H8F15350   0.565   2.791   7.269  0.5546  0.5674 -3.0367
  140OSM    H8G15351   0.435   2.827   7.169 -2.9516  2.0895 -0.1383
  140OSM    C9F15352   0.400   2.843   7.387  0.4374  0.2134 -0.0625
  140OSM    H9F15353   0.292   2.858   7.376  0.1492 -1.4838  0.1818
  140OSM   C10F15354   0.446   2.814   7.511 -0.8247  0.2505  0.2290
  140OSM   H10F15355   0.370   2.807   7.590 -3.5416  1.0815 -2.1382
  140OSM   C11F15356   0.587   2.793   7.554 -0.3213 -0.3069 -0.4890
  140OSM   H11F15357   0.657   2.837   7.480  0.1064  1.3313  0.8270
  140OSM   H11G15358   0.618   2.688   7.571  1.1854 -0.0795 -1.6201
  140OSM   C12F15359   0.625   2.865   7.682  0.3244 -0.1104  0.3905
  140OSM   H12F15360   0.604   2.974   7.674 -1.3451 -0.3319  1.2934
  140OSM   H12G15361   0.734   2.853   7.701  0.0785 -1.9568  0.7818
  140OSM   C13F15362   0.557   2.805   7.808 -0.5489  0.0564  0.9487
  140OSM   H13F15363   0.598   2.704   7.831  1.8066  0.2068 -1.9281
  140OSM   H13G15364   0.447   2.803   7.797 -0.5164 -2.3040  0.5559
  140OSM   C14F15365   0.585   2.886   7.932 -0.2357 -0.0599  0.4814
  140OSM   H14F15366   0.543   2.988   7.920 -1.3509 -0.6214 -0.5096
  140OSM   H14G15367   0.693   2.889   7.961 -0.1622 -0.4091  0.2608
  140OSM   C15F15368   0.505   2.831   8.050 -0.1284 -0.0204 -0.3434
  140OSM   H15F15369   0.537   2.727   8.075 -2.6157 -0.2279  2.5124
  140OSM   H15G15370   0.394   2.832   8.042 -0.4540  0.0844  2.7382
  140OSM   C16F15371   0.524   2.916   8.178 -0.0415  0.2871  0.6867
  140OSM   H16F15372   0.476   3.009   8.143 -1.5231  0.3042  2.5822
  140OSM   H16G15373   0.631   2.943   8.188 -0.1258  1.1665 -0.6457
  140OSM   C17F15374   0.455   2.862   8.298 -0.2353  0.0657 -0.0321
  140OSM   H17F15375   0.522   2.791   8.352 -0.7605 -0.9203 -0.6547
  140OSM   H17G15376   0.358   2.817   8.269  0.2739 -2.8748  2.2891
  140OSM   C18F15377   0.432   2.975   8.410 -0.6431  0.4114 -0.0654
  140OSM   H18F15378   0.364   2.932   8.487 -1.4610 -0.9419 -1.4688
  140OSM   H18G15379   0.373   3.051   8.355  0.1379  0.8341 -0.3278
  140OSM   H18H15380   0.530   3.012   8.448 -0.5134  2.2334 -2.0170
  141OSM      N15381   1.617   6.140   6.231 -0.3444 -0.3636 -0.1493
  141OSM    C1515382   1.628   5.989   6.227  0.1214 -0.6982  0.5670
  141OSM   H15A15383   1.676   5.952   6.317  0.3296 -1.4957  0.1368
  141OSM   H15B15384   1.679   5.963   6.135  3.7819  3.6132  1.0050
  141OSM   H15C15385   1.530   5.944   6.220  0.2264 -1.0810  1.4046
  141OSM    C1415386   1.750   6.201   6.227 -0.2059 -0.0424  0.6397
  141OSM   H14A15387   1.804   6.162   6.143 -1.5444 -2.0443  0.6329
  141OSM   H14B15388   1.803   6.173   6.317 -3.4308 -0.2970  2.6267
  141OSM   H14C15389   1.758   6.309   6.218  2.0048 -0.2405 -0.3417
  141OSM    C1315390   1.550   6.189   6.108  1.0423 -0.1422 -1.2271
  141OSM   H13A15391   1.448   6.154   6.107  0.7918  0.0667  2.2956
  141OSM   H13B15392   1.604   6.155   6.021  2.2450  0.6316 -0.8056
  141OSM   H13C15393   1.538   6.297   6.107  2.2076  0.0293 -0.0093
  141OSM    C1215394   1.543   6.185   6.356 -0.5557 -0.2220  0.3117
  141OSM   H12A15395   1.559   6.290   6.374 -0.7254 -0.3291  1.1215
  141OSM   H12B15396   1.585   6.141   6.445  0.2990 -0.0449  0.0036
  141OSM    C1115397   1.390   6.166   6.346 -0.4060 -0.3582  0.1276
  141OSM   H11A15398   1.340   6.239   6.278 -0.1670 -0.1049  0.2231
  141OSM   H11B15399   1.361   6.201   6.448  0.3491  1.5263 -0.2567
  141OSM      P15400   1.215   6.008   6.235  0.1514  0.1800 -0.1014
  141OSM    O1315401   1.232   6.098   6.115  0.6037  0.5385 -0.3278
  141OSM    O1415402   1.199   5.862   6.223 -0.0477  0.5352 -0.0565
  141OSM    O1115403   1.087   6.064   6.314 -0.0843  0.3166  0.1706
  141OSM    O1215404   1.346   6.034   6.329 -0.3479 -0.1564 -0.1498
  141OSM    C1S15405   1.048   6.011   6.443 -0.7275  0.0871 -0.3460
  141OSM    H1S15406   1.128   5.952   6.494 -0.9221  0.4245  0.3700
  141OSM    H1T15407   0.960   5.943   6.439 -0.1161 -0.7371 -0.1934
  141OSM     NF15408   0.985   6.084   6.675  0.1101 -0.6991 -0.8809
  141OSM    HNF15409   0.892   6.060   6.701  0.2013  0.0036  0.1549
  141OSM    C2S15410   1.007   6.127   6.539 -0.3955  0.1323  0.2226
  141OSM    H2S15411   1.090   6.201   6.534 -0.0222 -0.1401  1.9305
  141OSM    C3S15412   0.883   6.195   6.480  0.5208 -0.8675  0.2287
  141OSM    H3S15413   0.798   6.124   6.466 -2.2636  2.0680  0.9630
  141OSM     O315414   0.901   6.250   6.349 -0.2810 -0.3690  0.3648
  141OSM    HO315415   0.979   6.205   6.318  1.0856  1.6282  0.7202
  141OSM    C4S15416   0.832   6.293   6.573  0.7353  1.2220 -0.3827
  141OSM    H4S15417   0.755   6.251   6.639  1.7415 -0.5940 -0.3031
  141OSM    C5S15418   0.872   6.415   6.597  0.1425  0.4744  0.3772
  141OSM    H5S15419   0.965   6.454   6.553 -0.2629 -1.4130 -2.4058
  141OSM    C6S15420   0.803   6.500   6.696 -0.4437  0.3429 -0.3504
  141OSM    H6S15421   0.728   6.444   6.756  0.5620 -1.2413 -0.5258
  141OSM    H6T15422   0.750   6.584   6.645 -0.9273 -0.1800 -0.7234
  141OSM    C7S15423   0.901   6.566   6.797  0.4506 -0.6334  0.2351
  141OSM    H7S15424   0.841   6.640   6.854 -0.0436 -0.8426 -0.0136
  141OSM    H7T15425   0.978   6.628   6.745  2.2861 -3.0444 -0.0843
  141OSM    C8S15426   0.970   6.472   6.905  0.2240 -0.2919  0.8714
  141OSM    H8S15427   1.060   6.517   6.952  1.4965 -2.5352  0.7328
  141OSM    H8T15428   1.000   6.371   6.870  1.9208 -0.0370  1.4925
  141OSM    C9S15429   0.872   6.454   7.017 -0.4131 -0.5642 -0.5692
  141OSM    H9S15430   0.784   6.392   6.988 -1.7600 -0.8459  3.4204
  141OSM    H9T15431   0.845   6.550   7.068  0.4779 -0.8781  0.5540
  141OSM   C10S15432   0.934   6.362   7.124 -0.4475 -0.3624  0.2118
  141OSM   H10S15433   1.034   6.399   7.153  0.8600 -2.7434 -0.9283
  141OSM   H10T15434   0.938   6.255   7.094  0.1306 -0.7807  1.6989
  141OSM   C11S15435   0.857   6.375   7.258 -0.1826  0.0254 -0.1556
  141OSM   H11S15436   0.753   6.338   7.246  0.5193 -3.2089  2.2935
  141OSM   H11T15437   0.860   6.476   7.305  0.5862 -0.6508  1.3246
  141OSM   C12S15438   0.915   6.285   7.366 -0.0773  0.2445 -0.0747
  141OSM   H12S15439   1.026   6.290   7.362 -0.0611  2.9295  1.5183
  141OSM   H12T15440   0.892   6.178   7.348  0.4830  0.0669  0.2396
  141OSM   C13S15441   0.856   6.334   7.498  0.4630 -0.0833  0.0869
  141OSM   H13S15442   0.745   6.332   7.490  0.5570  0.6392 -2.2279
  141OSM   H13T15443   0.896   6.437   7.511  0.5223 -0.0183 -0.5801
  141OSM   C14S15444   0.915   6.253   7.614  0.4246  0.1709  0.0334
  141OSM   H14S15445   1.025   6.242   7.618  0.2276 -1.9540  0.7917
  141OSM   H14T15446   0.885   6.147   7.600  1.0733 -0.2003  1.3011
  141OSM   C15S15447   0.872   6.295   7.759 -0.5655 -0.6687  0.2604
  141OSM   H15S15448   0.897   6.219   7.835 -0.6558  0.3205  1.3026
  141OSM   H15T15449   0.762   6.307   7.753 -0.4538  2.5013  2.1526
  141OSM   C16S15450   0.945   6.429   7.798 -0.2886 -0.0550 -0.3322
  141OSM   H16S15451   0.933   6.504   7.717  0.9948  0.6521  0.1069
  141OSM   H16T15452   1.055   6.412   7.801 -0.1280  0.8428 -0.7630
  141OSM   C17S15453   0.873   6.487   7.923 -0.2221  0.2033  0.3472
  141OSM   H17S15454   0.765   6.463   7.922 -0.4314  1.1267  0.3178
  141OSM   H17T15455   0.891   6.596   7.923  2.3336 -0.1248 -1.2634
  141OSM   C18S15456   0.927   6.433   8.059  0.2074 -0.2262 -0.1888
  141OSM   H18S15457   1.029   6.474   8.079  0.4325 -1.8803  2.4896
  141OSM   H18T15458   0.923   6.323   8.052  1.5992 -0.4760  1.9793
  141OSM   H18U15459   0.854   6.479   8.129 -1.4025 -0.7679 -1.4509
  141OSM    C1F15460   1.083   6.042   6.751 -0.5941  0.1523 -0.5397
  141OSM     OF15461   1.200   6.049   6.717 -0.6059  0.0192 -0.1923
  141OSM    C2F15462   1.042   5.974   6.871 -0.0158 -0.7303 -0.7014
  141OSM    H2F15463   1.040   5.863   6.861  1.5446 -1.0782  1.8956
  141OSM    H2G15464   0.951   6.015   6.919  1.0873  2.0921 -0.8365
  141OSM    C3F15465   1.144   5.999   6.995  0.8194 -0.8442  0.0914
  141OSM    H3F15466   1.186   6.101   6.988  2.5661 -1.6109 -1.1609
  141OSM    H3G15467   1.222   5.923   6.976 -0.3327 -2.2199  0.6712
  141OSM    C4F15468   1.080   5.981   7.132  0.2204  0.0699 -0.1405
  141OSM    H4F15469   0.992   6.049   7.141  0.9313  1.1300 -1.0019
  141OSM    H4G15470   1.152   6.017   7.209 -0.2315  2.8627 -0.8993
  141OSM    C5F15471   1.043   5.835   7.148 -0.0874  0.3920 -0.4349
  141OSM    H5F15472   1.127   5.768   7.120  0.1391  0.4796  0.0204
  141OSM    H5G15473   0.964   5.811   7.074  0.4982 -0.8085 -0.6880
  141OSM    C6F15474   0.998   5.810   7.295 -0.4590  1.3835 -0.4684
  141OSM    H6F15475   0.926   5.726   7.303 -0.5406  1.4928 -0.0217
  141OSM    H6G15476   0.956   5.903   7.339 -0.6049  0.1402  2.2392
  141OSM    C7F15477   1.109   5.787   7.398  0.3079  0.6161  0.5397
  141OSM    H7F15478   1.168   5.880   7.386  0.0036  0.9212  1.3258
  141OSM    H7G15479   1.169   5.694   7.385 -2.1134 -1.0235  0.6045
  141OSM    C8F15480   1.072   5.791   7.544 -0.7037  0.1932 -0.1099
  141OSM    H8F15481   1.016   5.886   7.556 -0.2214  0.5050 -0.3138
  141OSM    H8G15482   1.153   5.813   7.616  0.3820 -2.4311 -0.4458
  141OSM    C9F15483   0.986   5.676   7.600  0.2194  0.7355 -0.3284
  141OSM    H9F15484   0.989   5.578   7.550  0.8515  0.0332  1.0171
  141OSM   C10F15485   0.901   5.683   7.703 -0.1873 -0.0090 -0.0342
  141OSM   H10F15486   0.840   5.595   7.728 -2.7591  1.9974  1.1503
  141OSM   C11F15487   0.879   5.811   7.779  0.4925 -0.6772 -0.0569
  141OSM   H11F15488   0.834   5.894   7.721  1.3917  1.0371  1.5891
  141OSM   H11G15489   0.966   5.846   7.838 -1.4959 -1.0027  3.3466
  141OSM   C12F15490   0.769   5.771   7.888 -0.3274  0.1163  0.6943
  141OSM   H12F15491   0.810   5.685   7.944  0.6514 -0.2945 -0.5936
  141OSM   H12G15492   0.675   5.745   7.834 -0.6674  0.8053  0.9373
  141OSM   C13F15493   0.741   5.883   7.991 -0.1173  0.5499  0.0976
  141OSM   H13F15494   0.721   5.984   7.949 -2.2992  0.1537  0.0306
  141OSM   H13G15495   0.834   5.898   8.049 -0.7005 -2.8752  2.2186
  141OSM   C14F15496   0.625   5.825   8.070  0.0569  0.0171 -0.5924
  141OSM   H14F15497   0.670   5.739   8.124  0.8237  1.2074  0.7164
  141OSM   H14G15498   0.535   5.796   8.012 -1.5120  2.6149  0.3816
  141OSM   C15F15499   0.581   5.924   8.175 -0.3295  0.3268  0.5485
  141OSM   H15F15500   0.500   5.989   8.137  0.0264 -0.5195 -1.8006
  141OSM   H15G15501   0.667   5.986   8.210  0.0631  1.7431 -2.6093
  141OSM   C16F15502   0.523   5.854   8.294  0.2211  0.3078 -0.4380
  141OSM   H16F15503   0.591   5.780   8.342 -2.5730 -1.3944  1.2280
  141OSM   H16G15504   0.448   5.777   8.266 -0.1634 -0.3279  2.0372
  141OSM   C17F15505   0.465   5.949   8.399 -0.6608 -0.6020 -0.3518
  141OSM   H17F15506   0.380   6.014   8.368  0.7359  1.7065  0.4230
  141OSM   H17G15507   0.548   6.011   8.438 -0.3681 -2.2213  1.7889
  141OSM   C18F15508   0.402   5.876   8.517  0.2068 -0.6345  0.1994
  141OSM   H18F15509   0.479   5.811   8.564 -1.2649 -1.9893  0.8317
  141OSM   H18G15510   0.325   5.799   8.494 -0.5567 -0.2300  1.3327
  141OSM   H18H15511   0.369   5.945   8.598 -0.9125 -1.2135  0.2538
  142OSM      N15512   0.468   1.577   6.213 -0.8855  0.0482  0.1993
  142OSM    C1515513   0.365   1.667   6.157  0.0038  0.5468  0.1186
  142OSM   H15A15514   0.336   1.642   6.056 -2.4707  2.2405  0.3045
  142OSM   H15B15515   0.397   1.770   6.159  0.7984  0.4294 -2.9090
  142OSM   H15C15516   0.272   1.656   6.212 -1.4095  0.8856 -2.0661
  142OSM    C1415517   0.418   1.435   6.220  1.2882  0.9330  0.7229
  142OSM   H14A15518   0.339   1.419   6.293 -0.4748 -2.2709 -1.6662
  142OSM   H14B15519   0.498   1.370   6.251 -0.2758 -1.6200 -0.3483
  142OSM   H14C15520   0.376   1.404   6.126 -0.0407 -0.5808  1.7495
  142OSM    C1315521   0.593   1.578   6.116  0.2406  0.7706  0.2179
  142OSM   H13A15522   0.562   1.543   6.018 -0.5935 -2.2831  1.4325
  142OSM   H13B15523   0.665   1.511   6.163 -0.1371 -0.4486 -0.8782
  142OSM   H13C15524   0.629   1.679   6.123 -1.0912  1.1961  1.4923
  142OSM    C1215525   0.513   1.614   6.355 -0.3955 -0.5808  0.4037
  142OSM   H12A15526   0.562   1.711   6.349 -0.8008 -0.4472 -2.5738
  142OSM   H12B15527   0.589   1.544   6.385  0.3956 -1.8202 -3.7512
  142OSM    C1115528   0.409   1.630   6.466 -0.9807  0.2958 -0.2381
  142OSM   H11A15529   0.340   1.713   6.440 -1.7803 -0.4346 -0.4812
  142OSM   H11B15530   0.457   1.657   6.562 -2.7681 -1.1752  1.1327
  142OSM      P15531   0.395   1.383   6.563 -0.0008 -0.4964  0.1258
  142OSM    O1315532   0.319   1.269   6.512  0.3204  0.0329 -0.2938
  142OSM    O1415533   0.544   1.372   6.563  0.5827  0.2252 -0.4162
  142OSM    O1115534   0.342   1.428   6.708  0.0531  0.0303  0.0912
  142OSM    O1215535   0.336   1.511   6.487  0.3640  0.3886  0.0153
  142OSM    C1S15536   0.296   1.321   6.796 -0.4581 -0.4712  0.4846
  142OSM    H1S15537   0.336   1.222   6.764 -1.1928 -1.1088  1.4834
  142OSM    H1T15538   0.186   1.324   6.786 -0.5354  1.7226  1.4245
  142OSM     NF15539   0.331   1.227   7.025 -0.0155 -0.4279  0.3130
  142OSM    HNF15540   0.241   1.234   7.067 -0.9357 -1.7907 -1.3001
  142OSM    C2S15541   0.356   1.343   6.941  0.2869 -0.4055 -0.1801
  142OSM    H2S15542   0.466   1.362   6.932 -0.0477  1.7666 -0.2734
  142OSM    C3S15543   0.290   1.474   6.999  0.0421  0.0442 -0.3971
  142OSM    H3S15544   0.181   1.457   6.989  0.1990 -1.4900  0.2008
  142OSM     O315545   0.310   1.590   6.918 -0.5353 -0.2142 -0.1751
  142OSM    HO315546   0.360   1.552   6.845 -0.1164  0.1590 -0.0865
  142OSM    C4S15547   0.332   1.501   7.143 -0.1976 -0.5277 -0.4050
  142OSM    H4S15548   0.440   1.518   7.152 -0.2876  0.7267 -1.2995
  142OSM    C5S15549   0.246   1.499   7.256 -0.6045  0.3000 -0.2539
  142OSM    H5S15550   0.143   1.472   7.234 -0.1305 -0.8145 -1.1553
  142OSM    C6S15551   0.289   1.514   7.402  0.6820 -0.2843 -0.2227
  142OSM    H6S15552   0.231   1.598   7.445 -1.8335 -1.4079 -1.2525
  142OSM    H6T15553   0.396   1.541   7.414  0.7523  0.0083 -1.3924
  142OSM    C7S15554   0.270   1.380   7.488  0.0301 -0.3811 -0.2179
  142OSM    H7S15555   0.333   1.310   7.429  1.2153  0.1023  0.4488
  142OSM    H7T15556   0.165   1.341   7.489  0.1787 -0.7859  0.4560
  142OSM    C8S15557   0.326   1.410   7.628  0.1087  0.1394  0.4277
  142OSM    H8S15558   0.289   1.513   7.650  1.3966  0.5293  0.8805
  142OSM    H8T15559   0.436   1.421   7.612 -0.0979  2.9263  0.4281
  142OSM    C9S15560   0.292   1.314   7.742 -0.2067 -0.2836  0.1239
  142OSM    H9S15561   0.368   1.323   7.822 -0.2238 -2.5332  0.4524
  142OSM    H9T15562   0.310   1.214   7.696 -0.4283  0.4982 -1.7650
  142OSM   C10S15563   0.152   1.338   7.793 -0.6247  0.1878 -0.7353
  142OSM   H10S15564   0.073   1.343   7.715 -0.8030 -3.4845 -0.9926
  142OSM   H10T15565   0.149   1.424   7.863  1.9051 -1.9168  2.2467
  142OSM   C11S15566   0.106   1.216   7.874 -0.1846 -0.2935 -0.8004
  142OSM   H11S15567   0.175   1.186   7.956 -2.3730  0.6404  1.5022
  142OSM   H11T15568   0.102   1.130   7.803 -2.1809 -0.7069 -0.2312
  142OSM   C12S15569  -0.035   1.225   7.940 -0.6723  0.5962  0.3914
  142OSM   H12S15570  -0.054   1.122   7.977  1.2271  0.5682  1.4472
  142OSM   H12T15571  -0.114   1.246   7.865  0.1691  0.6747 -0.5118
  142OSM   C13S15572  -0.033   1.323   8.059 -0.1885  0.6245  0.4781
  142OSM   H13S15573  -0.133   1.320   8.107 -1.2618  1.0479 -1.5695
  142OSM   H13T15574  -0.017   1.426   8.022  2.3240  0.5657  1.2769
  142OSM   C14S15575   0.060   1.302   8.181  0.6316  0.2075 -0.1033
  142OSM   H14S15576   0.154   1.356   8.157 -1.4321  3.6572 -1.2194
  142OSM   H14T15577   0.087   1.197   8.203 -0.8178  0.0530  1.0800
  142OSM   C15S15578   0.009   1.374   8.309  0.2329 -0.1517 -0.5268
  142OSM   H15S15579  -0.092   1.342   8.341  0.9542  0.6130  2.9150
  142OSM   H15T15580  -0.003   1.482   8.286 -0.6770 -0.4452 -1.4591
  142OSM   C16S15581   0.104   1.371   8.434  0.2529  0.0965 -0.1675
  142OSM   H16S15582   0.056   1.436   8.511  1.1432 -0.3937  0.8193
  142OSM   H16T15583   0.200   1.424   8.416  2.0415 -3.3107 -1.3713
  142OSM   C17S15584   0.118   1.233   8.505 -0.2379  0.0656 -0.0000
  142OSM   H17S15585   0.183   1.170   8.440 -1.7496 -0.1357 -1.4071
  142OSM   H17T15586   0.022   1.178   8.513 -0.1454 -0.0959 -0.0117
  142OSM   C18S15587   0.182   1.242   8.635 -0.1545 -0.5064  0.0942
  142OSM   H18S15588   0.125   1.319   8.692 -3.0405 -0.5828 -2.4394
  142OSM   H18T15589   0.286   1.275   8.618 -0.8008  1.1461 -0.8353
  142OSM   H18U15590   0.189   1.145   8.690  1.9652 -1.2961 -1.4442
  142OSM    C1F15591   0.401   1.116   7.011 -0.1854 -0.6694  1.3827
  142OSM     OF15592   0.488   1.125   6.927  0.3040  0.3304  0.9223
  142OSM    C2F15593   0.374   0.994   7.084 -0.8327 -0.2935 -0.6563
  142OSM    H2F15594   0.294   0.939   7.029 -0.3039 -1.9614  0.1462
  142OSM    H2G15595   0.337   1.027   7.183  1.3127  0.0127  0.0926
  142OSM    C3F15596   0.502   0.901   7.093  0.2560  0.7382 -0.0437
  142OSM    H3F15597   0.581   0.951   7.154 -0.4651 -0.3783  1.9246
  142OSM    H3G15598   0.548   0.877   6.995 -0.3962 -0.7059 -0.0252
  142OSM    C4F15599   0.480   0.772   7.169  0.6772 -0.2557 -0.9074
  142OSM    H4F15600   0.524   0.688   7.111 -1.0538 -0.2434 -2.3293
  142OSM    H4G15601   0.373   0.743   7.177  1.3005 -2.0981  4.5813
  142OSM    C5F15602   0.526   0.770   7.316 -0.5222 -0.2247 -1.1942
  142OSM    H5F15603   0.487   0.859   7.370 -2.6268 -0.5956 -1.9947
  142OSM    H5G15604   0.637   0.772   7.323 -0.5601 -0.2476 -0.5550
  142OSM    C6F15605   0.486   0.636   7.393 -0.3104 -0.2128  0.6462
  142OSM    H6F15606   0.546   0.550   7.356 -0.3259 -0.0839  0.3189
  142OSM    H6G15607   0.378   0.626   7.368 -1.2505  4.0568  2.2050
  142OSM    C7F15608   0.498   0.640   7.545 -0.7993  0.1193  0.1458
  142OSM    H7F15609   0.589   0.694   7.576 -0.3644 -1.0561  0.9857
  142OSM    H7G15610   0.500   0.537   7.587 -3.4109 -0.3746 -0.7097
  142OSM    C8F15611   0.388   0.714   7.623 -0.3404  0.5148 -0.3778
  142OSM    H8F15612   0.289   0.698   7.575 -0.4071  1.8192 -0.7035
  142OSM    H8G15613   0.401   0.823   7.607  0.2401  0.5697  0.4200
  142OSM    C9F15614   0.376   0.680   7.764 -0.3822  0.2282  0.0113
  142OSM    H9F15615   0.308   0.596   7.783 -0.4552  0.1280 -0.6800
  142OSM   C10F15616   0.431   0.746   7.872  0.1924 -0.3689 -0.0654
  142OSM   H10F15617   0.414   0.707   7.974  0.9908 -0.8807 -0.1131
  142OSM   C11F15618   0.513   0.870   7.873  0.0309  0.2402 -0.7262
  142OSM   H11F15619   0.541   0.912   7.773  2.7311 -1.3294 -0.7416
  142OSM   H11G15620   0.612   0.851   7.920 -0.4289  0.4355  0.3486
  142OSM   C12F15621   0.453   0.982   7.970 -0.4556 -0.6862  0.2935
  142OSM   H12F15622   0.359   1.032   7.940  1.1298  2.6130  0.3342
  142OSM   H12G15623   0.531   1.061   7.983 -0.2048 -1.2465  2.6553
  142OSM   C13F15624   0.439   0.939   8.116 -0.3594 -0.3345  0.3741
  142OSM   H13F15625   0.508   0.854   8.134  0.8307  0.6733  0.6925
  142OSM   H13G15626   0.336   0.900   8.130 -0.3596 -0.0845  1.1230
  142OSM   C14F15627   0.476   1.050   8.225  0.3978 -0.1681  0.2504
  142OSM   H14F15628   0.395   1.126   8.229  0.3095 -0.1948 -0.7628
  142OSM   H14G15629   0.572   1.097   8.195 -0.8584  1.1324 -1.9549
  142OSM   C15F15630   0.484   0.994   8.361  0.1181  0.4565  0.2131
  142OSM   H15F15631   0.565   0.919   8.364  2.9148  2.9857 -3.1063
  142OSM   H15G15632   0.387   0.944   8.382 -0.1154  0.5952 -0.4966
  142OSM   C16F15633   0.502   1.101   8.473  0.5848  0.7098  0.0417
  142OSM   H16F15634   0.417   1.171   8.463  0.7059  0.8544  0.0152
  142OSM   H16G15635   0.586   1.169   8.446 -0.0312  1.6546  0.4449
  142OSM   C17F15636   0.516   1.059   8.620  0.0071 -0.1297  0.2080
  142OSM   H17F15637   0.598   0.986   8.640 -0.9090 -0.9151  1.2091
  142OSM   H17G15638   0.421   1.008   8.648 -1.0549  2.2874  1.3341
  142OSM   C18F15639   0.545   1.170   8.716  0.4185  0.0733  0.2583
  142OSM   H18F15640   0.533   1.137   8.822  1.7722 -1.8734 -0.1530
  142OSM   H18G15641   0.473   1.252   8.697  0.6145  0.2123  0.1245
  142OSM   H18H15642   0.647   1.211   8.704  1.9235 -3.4088 -0.0698
  143OSM      N15643   1.376   2.132   6.320  0.6329  0.0137  0.4035
  143OSM    C1515644   1.490   2.036   6.335  0.4004 -0.6654 -0.2791
  143OSM   H15A15645   1.582   2.070   6.379 -0.4722 -0.5309  1.5019
  143OSM   H15B15646   1.510   1.982   6.243  1.5108  1.4076 -1.3136
  143OSM   H15C15647   1.450   1.961   6.401  0.1904 -1.7534 -1.5803
  143OSM    C1415648   1.352   2.194   6.453  0.8159 -0.4866 -0.0255
  143OSM   H14A15649   1.270   2.264   6.448  2.0345  0.9189 -2.5600
  143OSM   H14B15650   1.436   2.259   6.473  0.9166 -0.6127 -0.0377
  143OSM   H14C15651   1.341   2.125   6.535  1.0124 -0.8572 -0.3059
  143OSM    C1315652   1.412   2.241   6.229  0.6353 -0.4651  0.3907
  143OSM   H13A15653   1.493   2.305   6.261 -0.6225  2.2974 -1.5515
  143OSM   H13B15654   1.329   2.306   6.207  1.0453 -0.3022 -0.7273
  143OSM   H13C15655   1.444   2.206   6.132 -0.6701 -1.6236  0.3482
  143OSM    C1215656   1.238   2.073   6.277  0.1264 -0.0307 -0.4700
  143OSM   H12A15657   1.248   2.041   6.174 -0.2293 -0.7194 -0.2908
  143OSM   H12B15658   1.166   2.153   6.281  0.4836  0.2461  0.8401
  143OSM    C1115659   1.186   1.956   6.372  0.1358 -1.0179  0.5019
  143OSM   H11A15660   1.087   1.925   6.332 -0.1147  1.5055 -1.0792
  143OSM   H11B15661   1.177   2.004   6.471 -2.5839 -3.7521  1.7377
  143OSM      P15662   1.261   1.724   6.273  0.3198  0.2525 -0.3506
  143OSM    O1315663   1.210   1.779   6.144  0.0508  0.0281  0.6345
  143OSM    O1415664   1.391   1.649   6.266 -0.4632 -0.1644 -0.0254
  143OSM    O1115665   1.160   1.624   6.337 -0.3051  0.1750 -0.3289
  143OSM    O1215666   1.276   1.845   6.379 -0.7434 -0.0458  0.2983
  143OSM    C1S15667   1.177   1.589   6.475  0.0533  0.3097  1.3080
  143OSM    H1S15668   1.268   1.633   6.522 -0.0567  0.5264  1.3198
  143OSM    H1T15669   1.173   1.480   6.492 -2.0794  0.0573 -0.3661
  143OSM     NF15670   1.075   1.604   6.700  0.9669  0.4885 -0.5233
  143OSM    HNF15671   1.026   1.524   6.734 -1.0087  1.5283 -0.7736
  143OSM    C2S15672   1.058   1.639   6.557  0.6651 -0.4881 -0.4183
  143OSM    H2S15673   1.050   1.750   6.553 -0.3863 -0.4594  1.2096
  143OSM    C3S15674   0.925   1.582   6.496 -0.5526 -0.3251 -0.7201
  143OSM    H3S15675   0.941   1.472   6.494 -1.3147 -0.4432 -0.6262
  143OSM     O315676   0.888   1.631   6.365 -0.9817 -0.4770  0.1984
  143OSM    HO315677   0.972   1.665   6.334 -0.1362  0.8219  3.4149
  143OSM    C4S15678   0.817   1.606   6.599 -0.0412  0.3080 -0.5610
  143OSM    H4S15679   0.785   1.518   6.657 -0.3207  1.0040  0.3597
  143OSM    C5S15680   0.753   1.725   6.630 -0.0924  0.5678 -0.4012
  143OSM    H5S15681   0.785   1.819   6.583  1.9953 -0.6328 -1.5540
  143OSM    C6S15682   0.652   1.740   6.746  0.0482  0.6136  0.7367
  143OSM    H6S15683   0.588   1.650   6.745 -1.3232  1.5620  0.2517
  143OSM    H6T15684   0.577   1.820   6.725 -0.4037 -0.1171 -0.5380
  143OSM    C7S15685   0.720   1.778   6.878 -0.7444 -0.3499 -0.1516
  143OSM    H7S15686   0.748   1.886   6.870 -1.7202 -0.1955 -2.0328
  143OSM    H7T15687   0.813   1.724   6.902 -1.2775 -1.4849 -0.5768
  143OSM    C8S15688   0.618   1.752   6.991  0.1415 -0.7069 -0.1616
  143OSM    H8S15689   0.598   1.643   6.979 -1.4816 -0.4131 -0.2867
  143OSM    H8T15690   0.536   1.820   6.961  0.7779 -0.1600 -0.6799
  143OSM    C9S15691   0.682   1.780   7.138 -0.5899  0.0669  0.0758
  143OSM    H9S15692   0.740   1.873   7.121 -1.4787  0.3902 -1.3290
  143OSM    H9T15693   0.751   1.695   7.153 -2.2442 -1.4477 -0.5137
  143OSM   C10S15694   0.575   1.779   7.257 -0.9060 -0.0429 -0.0374
  143OSM   H10S15695   0.505   1.693   7.248 -0.9723  0.1344 -1.5813
  143OSM   H10T15696   0.512   1.870   7.251 -1.0798 -0.0991  0.7841
  143OSM   C11S15697   0.639   1.773   7.395  0.1305 -0.3941 -0.0486
  143OSM   H11S15698   0.741   1.818   7.389 -1.2504  3.3722  1.5355
  143OSM   H11T15699   0.653   1.670   7.433  1.0900 -0.1391  0.3313
  143OSM   C12S15700   0.568   1.866   7.497 -1.1803 -0.8139  0.5425
  143OSM   H12S15701   0.458   1.853   7.504 -1.3387  0.4332  0.7451
  143OSM   H12T15702   0.573   1.973   7.467 -2.2550 -0.1814  2.4202
  143OSM   C13S15703   0.629   1.846   7.634 -0.5371 -0.6410 -0.1904
  143OSM   H13S15704   0.578   1.915   7.704  0.1389 -1.1081  0.7774
  143OSM   H13T15705   0.732   1.888   7.636 -0.9376  0.4401 -0.9682
  143OSM   C14S15706   0.621   1.704   7.685  0.4202 -0.0074 -0.0569
  143OSM   H14S15707   0.704   1.645   7.640 -0.4738 -1.5844  0.2555
  143OSM   H14T15708   0.523   1.663   7.650 -2.5939  3.6993  3.0764
  143OSM   C15S15709   0.617   1.686   7.835 -0.3619  0.0287 -0.5347
  143OSM   H15S15710   0.607   1.784   7.884 -2.4339  0.5437 -1.8832
  143OSM   H15T15711   0.717   1.656   7.874  0.4304  1.0106 -1.7376
  143OSM   C16S15712   0.512   1.582   7.873 -0.7047  0.2631  0.1293
  143OSM   H16S15713   0.529   1.477   7.841 -1.1361  0.8396 -2.2330
  143OSM   H16T15714   0.415   1.612   7.827  0.9972  0.9868 -3.3654
  143OSM   C17S15715   0.471   1.581   8.021 -0.0035 -0.7335 -0.3074
  143OSM   H17S15716   0.361   1.573   8.029 -0.0569 -0.9171 -1.1008
  143OSM   H17T15717   0.509   1.679   8.056  1.5615 -1.5886  0.4689
  143OSM   C18S15718   0.529   1.466   8.108  0.6817  0.2165  0.5814
  143OSM   H18S15719   0.500   1.486   8.213 -2.4810  0.6573 -0.2484
  143OSM   H18T15720   0.639   1.456   8.096  0.4963 -1.1052 -0.2560
  143OSM   H18U15721   0.480   1.372   8.074 -1.0880  1.3485 -0.1903
  143OSM    C1F15722   1.142   1.668   6.791 -0.2749 -0.0668 -0.2137
  143OSM     OF15723   1.204   1.770   6.762 -0.2563  0.1171 -0.2652
  143OSM    C2F15724   1.158   1.620   6.932 -0.3234 -0.4388  0.1556
  143OSM    H2F15725   1.267   1.601   6.937  0.3160  1.4115 -3.2627
  143OSM    H2G15726   1.122   1.516   6.948 -0.1407 -0.6105 -0.5136
  143OSM    C3F15727   1.101   1.713   7.037  0.4122 -0.0284 -0.3202
  143OSM    H3F15728   0.991   1.721   7.021 -0.0430 -1.4034  1.6559
  143OSM    H3G15729   1.145   1.812   7.014  1.5913 -1.0071 -2.6326
  143OSM    C4F15730   1.132   1.667   7.182  0.0625 -0.3228  0.2042
  143OSM    H4F15731   1.223   1.711   7.228 -0.8718  0.4966  1.3123
  143OSM    H4G15732   1.158   1.559   7.181  2.2357  0.1171 -2.1778
  143OSM    C5F15733   1.020   1.689   7.284  0.1877 -0.3563  0.4866
  143OSM    H5F15734   0.926   1.641   7.251 -2.4494  3.9294  1.0961
  143OSM    H5G15735   1.000   1.798   7.289 -1.2631 -0.6315  1.0977
  143OSM    C6F15736   1.050   1.634   7.426  0.4740  0.1946  0.0937
  143OSM    H6F15737   1.130   1.696   7.472 -0.2135 -0.6929  2.6281
  143OSM    H6G15738   1.075   1.526   7.421 -0.0103  0.1016 -0.4516
  143OSM    C7F15739   0.932   1.641   7.525  0.5970  0.7067  0.0915
  143OSM    H7F15740   0.853   1.571   7.492  0.0652  1.6467 -0.6883
  143OSM    H7G15741   0.902   1.745   7.550 -1.3812  0.0248  0.7284
  143OSM    C8F15742   0.982   1.577   7.663  0.9531 -0.4809  0.6504
  143OSM    H8F15743   1.030   1.478   7.653  0.3330 -0.7094 -0.1172
  143OSM    H8G15744   0.888   1.559   7.720 -0.6266 -0.3463 -1.7785
  143OSM    C9F15745   1.071   1.666   7.742  0.1639  1.0400 -0.4007
  143OSM    H9F15746   1.023   1.756   7.782 -0.0043  0.5419  0.5407
  143OSM   C10F15747   1.194   1.641   7.784 -0.3811 -0.3330 -0.1605
  143OSM   H10F15748   1.242   1.719   7.846 -1.3471  0.2338 -0.1056
  143OSM   C11F15749   1.280   1.514   7.768  0.7820  0.1646 -0.1171
  143OSM   H11F15750   1.350   1.525   7.682 -0.0509  1.9400 -0.6071
  143OSM   H11G15751   1.217   1.429   7.735 -1.9413  1.6333  0.9593
  143OSM   C12F15752   1.367   1.461   7.884  0.2699  0.5706  0.1534
  143OSM   H12F15753   1.451   1.532   7.893  1.1672 -0.6609  2.3215
  143OSM   H12G15754   1.397   1.360   7.847 -1.4523 -0.9118  2.4563
  143OSM   C13F15755   1.300   1.459   8.020 -0.1168  0.4439  0.0766
  143OSM   H13F15756   1.333   1.369   8.076  3.3213  2.1518  1.0751
  143OSM   H13G15757   1.191   1.467   8.001  0.2778  2.8695 -1.6057
  143OSM   C14F15758   1.337   1.575   8.112  0.3590  0.0421 -0.4817
  143OSM   H14F15759   1.303   1.670   8.066  0.7558  0.2359 -0.3839
  143OSM   H14G15760   1.448   1.578   8.120  0.3551 -2.1659  1.3026
  143OSM   C15F15761   1.284   1.555   8.259  0.5693 -0.1737  0.3749
  143OSM   H15F15762   1.324   1.629   8.331 -1.9021  0.3471  1.3271
  143OSM   H15G15763   1.319   1.453   8.286  0.7503 -0.8425 -2.1108
  143OSM   C16F15764   1.131   1.554   8.268 -0.1221 -0.1960 -0.0203
  143OSM   H16F15765   1.097   1.479   8.194 -0.7876 -0.3307  0.4124
  143OSM   H16G15766   1.095   1.653   8.235 -0.3646  0.3277  1.7020
  143OSM   C17F15767   1.078   1.514   8.415 -0.4205 -0.1919  0.3275
  143OSM   H17F15768   1.116   1.411   8.429 -0.8553 -0.7730 -2.2258
  143OSM   H17G15769   0.968   1.505   8.413 -0.4292 -0.0223 -1.5393
  143OSM   C18F15770   1.146   1.598   8.527 -0.0336 -0.6644  0.5250
  143OSM   H18F15771   1.106   1.702   8.523 -0.2285 -0.7613 -0.2546
  143OSM   H18G15772   1.256   1.597   8.512 -0.3037 -0.4133 -1.8822
  143OSM   H18H15773   1.121   1.551   8.624  0.0784 -0.6294  0.5716
  144OSM      N15774   4.238   3.452   6.314 -0.5896  0.4772 -0.3354
  144OSM    C1515775   4.124   3.355   6.288  0.3538  0.2178  0.0974
  144OSM   H15A15776   4.154   3.263   6.239 -1.1444 -0.1472 -0.1837
  144OSM   H15B15777   4.057   3.406   6.221 -0.0335 -1.0146 -0.4798
  144OSM   H15C15778   4.069   3.304   6.366 -0.2890 -2.0932 -1.7683
  144OSM    C1415779   4.309   3.477   6.184 -0.0105 -0.5197  0.0774
  144OSM   H14A15780   4.237   3.518   6.115  0.8799 -0.5344 -0.8757
  144OSM   H14B15781   4.350   3.385   6.148  0.2217 -0.1471 -0.6183
  144OSM   H14C15782   4.389   3.550   6.181 -0.3612 -0.1602 -0.9189
  144OSM    C1315783   4.177   3.576   6.366  0.0051  0.3846  0.6716
  144OSM   H13A15784   4.129   3.568   6.462 -3.2494  0.9699 -0.7643
  144OSM   H13B15785   4.091   3.609   6.309 -0.0107 -0.3238  0.2752
  144OSM   H13C15786   4.246   3.659   6.374  1.1743 -0.3164 -1.3431
  144OSM    C1215787   4.328   3.390   6.418 -0.6059  0.4949 -0.3938
  144OSM   H12A15788   4.351   3.289   6.387 -1.2677  0.1473  0.2039
  144OSM   H12B15789   4.274   3.391   6.512 -0.8965  2.1697 -0.5455
  144OSM    C1115790   4.465   3.463   6.441 -0.2471 -0.7514  0.4475
  144OSM   H11A15791   4.497   3.428   6.541 -0.0282 -2.2634 -0.1301
  144OSM   H11B15792   4.459   3.574   6.452 -0.3330 -0.5411 -1.4539
  144OSM      P15793   4.625   3.294   6.333  0.3274 -0.1280 -0.3856
  144OSM    O1315794   4.522   3.213   6.276  0.0761 -0.1815 -0.1319
  144OSM    O1415795   4.757   3.298   6.273  0.2246  0.6653 -0.1064
  144OSM    O1115796   4.643   3.245   6.483 -0.4356 -0.1438  0.0699
  144OSM    O1215797   4.562   3.437   6.341 -0.1146  0.4428  0.0292
  144OSM    C1S15798   4.737   3.306   6.577  0.0442  0.1590 -0.0382
  144OSM    H1S15799   4.715   3.414   6.586  0.8286  0.3815 -0.7495
  144OSM    H1T15800   4.840   3.301   6.537 -0.2210 -0.0860 -0.7078
  144OSM     NF15801   4.850   3.296   6.785  0.1109  0.0742  0.4312
  144OSM    HNF15802   4.924   3.238   6.818  0.0085 -0.1600  0.2530
  144OSM    C2S15803   4.732   3.240   6.718 -0.2082 -0.4435  0.0165
  144OSM    H2S15804   4.641   3.280   6.769  0.2988 -0.0856  0.6537
  144OSM    C3S15805   4.713   3.079   6.707  0.7475  0.3035 -0.6650
  144OSM    H3S15806   4.804   3.040   6.655  0.1476 -0.4367 -1.1921
  144OSM     O315807   4.601   3.038   6.635  0.4410 -0.0657  0.1506
  144OSM    HO315808   4.589   3.113   6.576  1.1223 -1.9149 -2.5202
  144OSM    C4S15809   4.708   3.029   6.849 -0.7310  0.8182 -0.8942
  144OSM    H4S15810   4.799   2.994   6.900 -1.3359  0.7842  0.1968
  144OSM    C5S15811   4.601   3.023   6.923  0.1532  0.1843 -0.3922
  144OSM    H5S15812   4.507   3.033   6.868 -0.0835  1.9147  0.2899
  144OSM    C6S15813   4.599   2.965   7.066  0.1412 -0.4017 -0.2346
  144OSM    H6S15814   4.506   2.919   7.104 -1.1002  1.7843 -0.4541
  144OSM    H6T15815   4.613   3.050   7.135 -1.9955  0.4188 -0.7346
  144OSM    C7S15816   4.715   2.864   7.108  0.2177  0.4060  0.6837
  144OSM    H7S15817   4.810   2.921   7.108 -0.0579  0.9789 -1.5048
  144OSM    H7T15818   4.732   2.784   7.032  1.2941  0.8247  0.4705
  144OSM    C8S15819   4.697   2.787   7.241 -0.1946 -0.3173  0.1191
  144OSM    H8S15820   4.786   2.720   7.242 -1.1805 -1.6836 -0.6103
  144OSM    H8T15821   4.603   2.728   7.241  0.5262 -1.5039 -0.1791
  144OSM    C9S15822   4.694   2.880   7.364  0.3961  0.1127 -0.1896
  144OSM    H9S15823   4.615   2.953   7.337  0.1810 -0.7001 -1.9116
  144OSM    H9T15824   4.797   2.921   7.373  0.3856 -0.0278  0.5958
  144OSM   C10S15825   4.659   2.798   7.489  0.3797 -0.3630  0.1855
  144OSM   H10S15826   4.753   2.760   7.535  2.4100  3.7213 -0.1100
  144OSM   H10T15827   4.595   2.713   7.456 -1.7215  0.5821  1.6531
  144OSM   C11S15828   4.570   2.857   7.604  0.3692 -0.0674 -0.1507
  144OSM   H11S15829   4.475   2.895   7.561 -0.0957 -0.8173  0.2001
  144OSM   H11T15830   4.621   2.943   7.651 -2.3799  1.3040  0.5146
  144OSM   C12S15831   4.540   2.752   7.709 -0.1836  0.2721  0.2422
  144OSM   H12S15832   4.634   2.694   7.707 -1.2870 -1.6309 -1.5369
  144OSM   H12T15833   4.455   2.691   7.670 -3.1050  3.6403  0.7870
  144OSM   C13S15834   4.500   2.812   7.853 -0.4559 -0.1642 -0.7394
  144OSM   H13S15835   4.401   2.860   7.834 -0.7426 -1.1576 -1.9383
  144OSM   H13T15836   4.565   2.894   7.889  0.3496 -0.5533 -1.2825
  144OSM   C14S15837   4.471   2.711   7.968 -0.5805 -0.3896 -0.1704
  144OSM   H14S15838   4.564   2.656   7.989 -0.6042  0.2810  1.9052
  144OSM   H14T15839   4.396   2.634   7.941 -0.4059 -0.8541  0.6400
  144OSM   C15S15840   4.419   2.775   8.101 -0.1679 -1.0316 -0.0810
  144OSM   H15S15841   4.313   2.801   8.084 -0.2558 -0.2508  1.5085
  144OSM   H15T15842   4.479   2.864   8.129 -0.7639  0.5422 -3.3071
  144OSM   C16S15843   4.404   2.674   8.207  0.0627 -0.3877  1.0135
  144OSM   H16S15844   4.353   2.577   8.185  0.0688 -0.1575 -0.0491
  144OSM   H16T15845   4.341   2.722   8.284 -0.9394  0.9643 -0.5765
  144OSM   C17S15846   4.533   2.621   8.277 -0.4063 -0.0516  0.9865
  144OSM   H17S15847   4.596   2.561   8.208 -0.8557  1.4963 -0.8636
  144OSM   H17T15848   4.498   2.535   8.338  1.5202 -1.2323  0.5104
  144OSM   C18S15849   4.618   2.723   8.352 -0.4054 -0.7342 -0.3426
  144OSM   H18S15850   4.701   2.670   8.403  0.1568  0.0321 -0.4424
  144OSM   H18T15851   4.558   2.779   8.427 -1.1615 -1.3555 -0.4693
  144OSM   H18U15852   4.671   2.793   8.284 -0.1586  1.4104  1.8972
  144OSM    C1F15853   4.853   3.429   6.813  0.3450 -0.2711  0.4050
  144OSM     OF15854   4.747   3.496   6.797 -0.3272 -0.5227 -0.0038
  144OSM    C2F15855   4.985   3.495   6.852  0.3693 -0.0982 -1.0525
  144OSM    H2F15856   5.019   3.567   6.775  1.4704  0.3766 -0.1471
  144OSM    H2G15857   5.068   3.422   6.856 -0.7457 -1.3455  2.3805
  144OSM    C3F15858   4.956   3.559   6.991  0.2750 -0.3469  0.0114
  144OSM    H3F15859   4.868   3.626   6.994 -1.1345 -2.1398  1.5071
  144OSM    H3G15860   5.041   3.624   7.022 -1.0317  1.5295 -0.2124
  144OSM    C4F15861   4.921   3.452   7.100 -0.1833  0.0426 -0.3679
  144OSM    H4F15862   4.836   3.392   7.062  0.6510 -0.6366 -1.1895
  144OSM    H4G15863   4.894   3.505   7.195  1.4499  1.8017 -0.8218
  144OSM    C5F15864   5.042   3.364   7.128 -0.3629 -0.3341  0.4140
  144OSM    H5F15865   5.134   3.426   7.133 -1.1750  0.8829  0.4542
  144OSM    H5G15866   5.061   3.293   7.044  1.7740  1.7502 -0.9870
  144OSM    C6F15867   5.016   3.284   7.263  0.2410 -0.0357  0.5048
  144OSM    H6F15868   4.919   3.232   7.252 -0.1568  0.8189 -0.1294
  144OSM    H6G15869   5.009   3.362   7.341  0.7093  1.0237 -0.4770
  144OSM    C7F15870   5.119   3.168   7.293  0.6418  0.2061  0.4355
  144OSM    H7F15871   5.224   3.206   7.299  0.6847  0.3343 -0.9416
  144OSM    H7G15872   5.121   3.086   7.219 -2.2432 -0.5856  1.1127
  144OSM    C8F15873   5.067   3.099   7.421 -0.2239  0.3993  0.5806
  144OSM    H8F15874   5.136   3.016   7.446 -0.4991 -0.7964 -2.2174
  144OSM    H8G15875   4.965   3.058   7.404 -0.3038  0.9227 -0.2716
  144OSM    C9F15876   5.057   3.177   7.553  0.7080  1.2413  0.9361
  144OSM    H9F15877   5.056   3.286   7.545 -1.6702  1.4097  2.7377
  144OSM   C10F15878   5.068   3.123   7.679 -0.7163 -0.8305  0.3892
  144OSM   H10F15879   5.052   3.192   7.764 -0.7765 -0.5679  0.1642
  144OSM   C11F15880   5.086   2.979   7.713 -0.3059 -0.1604  0.2551
  144OSM   H11F15881   5.191   2.966   7.746 -0.4117 -1.1895  0.2222
  144OSM   H11G15882   5.085   2.901   7.634  0.8012 -0.9945  1.0292
  144OSM   C12F15883   4.985   2.943   7.822  0.8348  0.3966 -0.2713
  144OSM   H12F15884   4.887   2.947   7.769  0.5975  1.3366  0.2216
  144OSM   H12G15885   4.985   3.019   7.903  0.7130  0.0325  0.0698
  144OSM   C13F15886   5.006   2.807   7.883  0.0676  0.0458  1.0457
  144OSM   H13F15887   5.093   2.818   7.951  1.2630 -0.3087 -0.3681
  144OSM   H13G15888   5.029   2.737   7.800  0.2683  0.7495  0.5002
  144OSM   C14F15889   4.879   2.761   7.951 -0.3245 -0.3557 -0.5886
  144OSM   H14F15890   4.808   2.743   7.868  0.4477  1.4198 -1.7058
  144OSM   H14G15891   4.839   2.841   8.017  0.6783 -0.7637  0.5688
  144OSM   C15F15892   4.904   2.646   8.042 -0.0742 -0.1898  0.4633
  144OSM   H15F15893   4.926   2.563   7.971 -1.3170  1.6412 -2.2201
  144OSM   H15G15894   4.808   2.620   8.091 -0.8474  0.1147 -0.8689
  144OSM   C16F15895   5.006   2.669   8.153  0.9828  0.5399  0.4763
  144OSM   H16F15896   4.977   2.755   8.216  0.4264  0.7022  0.0058
  144OSM   H16G15897   5.111   2.676   8.117  0.7811  0.7628 -0.0875
  144OSM   C17F15898   4.992   2.554   8.250  0.1825  0.3278  0.2339
  144OSM   H17F15899   4.989   2.462   8.188 -0.9484  1.1837 -1.0476
  144OSM   H17G15900   4.898   2.551   8.309  1.6459  0.4772  2.7306
  144OSM   C18F15901   5.111   2.541   8.340  0.5577  0.5615  0.6505
  144OSM   H18F15902   5.096   2.457   8.412 -1.2167  0.6646  0.4299
  144OSM   H18G15903   5.111   2.627   8.410  1.4961  0.7951  0.3709
  144OSM   H18H15904   5.205   2.530   8.282 -0.0281  0.4993 -0.3158
  145SAPE     N15905   3.987   0.008  10.918 -0.8333 -0.4346  0.1036
  145SAPE   HN115906   3.978   0.057  11.010  2.0845  2.4452 -0.9659
  145SAPE   HN215907   3.991  -0.091  10.948 -0.0448 -0.3224  0.3934
  145SAPE   HN315908   4.080   0.028  10.877 -0.0179 -0.1366  1.9802
  145SAPE   C1215909   3.868   0.032  10.830 -0.1328 -0.3481  0.2324
  145SAPE  H12A15910   3.881   0.124  10.770 -2.0979  0.4939  1.0285
  145SAPE  H12B15911   3.775   0.043  10.890 -0.0387 -0.5702  0.4188
  145SAPE   C1115912   3.859  -0.086  10.738 -0.1700  0.0305  0.5565
  145SAPE  H11A15913   3.958  -0.095  10.688 -0.5677  1.0515 -0.4581
  145SAPE  H11B15914   3.794  -0.068  10.650  1.1899  1.4112 -0.2024
  145SAPE     P15915   3.693  -0.284  10.828  0.0640  0.1492 -0.0739
  145SAPE   O1315916   3.707  -0.408  10.911  0.1416  0.2378  0.0196
  145SAPE   O1415917   3.604  -0.176  10.874 -0.3469  0.4159 -0.3688
  145SAPE   O1215918   3.836  -0.213  10.805 -0.0026 -0.0080 -0.2485
  145SAPE   O1115919   3.647  -0.328  10.689 -0.1985 -0.0912  0.3106
  145SAPE    C115920   3.683  -0.452  10.627 -0.7167 -0.0778  0.0477
  145SAPE    HA15921   3.710  -0.536  10.696  3.3981  1.2928  0.3586
  145SAPE    HB15922   3.599  -0.491  10.565 -0.3524 -0.8147  0.0056
  145SAPE    C215923   3.810  -0.427  10.545 -0.6083  0.1284  0.3362
  145SAPE    HS15924   3.881  -0.370  10.610  2.2266  1.3014 -3.4151
  145SAPE   O2115925   3.770  -0.347  10.432  0.4300  0.2573  0.1954
  145SAPE   C2115926   3.862  -0.253  10.402 -0.3500 -0.0392  0.8948
  145SAPE   O2215927   3.961  -0.230  10.464 -0.6651 -0.3996 -0.2880
  145SAPE   C2215928   3.814  -0.171  10.281 -0.0472  0.1842 -0.5809
  145SAPE   H2R15929   3.706  -0.194  10.267 -0.0761 -0.7545  1.0179
  145SAPE   H2S15930   3.813  -0.064  10.310 -1.0521  0.1236 -0.3585
  145SAPE    C315931   3.892  -0.552  10.508  0.6095 -0.4830 -0.3984
  145SAPE    HX15932   3.915  -0.605  10.603 -1.7810 -0.6168  0.1666
  145SAPE    HY15933   3.981  -0.508  10.458  0.0740  0.3575 -0.6287
  145SAPE   O3115934   3.823  -0.636  10.413 -0.5964 -0.3737 -0.8044
  145SAPE   C3115935   3.768  -0.750  10.459 -0.2503 -0.4558 -0.6412
  145SAPE   O3215936   3.770  -0.784  10.574  0.5034  0.1473 -0.3794
  145SAPE   C3215937   3.699  -0.826  10.339 -0.3527 -0.2480 -0.5123
  145SAPE   H2X15938   3.767  -0.911  10.315  0.1889  0.0235  0.0133
  145SAPE   H2Y15939   3.686  -0.763  10.249  0.1688  0.3770 -0.1653
  145SAPE   C2315940   3.901  -0.193  10.158  0.2592 -0.0715 -0.7804
  145SAPE   H3R15941   4.005  -0.161  10.182  0.8508  0.1690 -3.3644
  145SAPE   H3S15942   3.866  -0.135  10.070 -1.0458  0.7849  0.2702
  145SAPE   C2415943   3.920  -0.341  10.106  0.4870  0.3900  0.0464
  145SAPE   H4R15944   4.005  -0.395  10.153  2.4905  1.5909 -1.9911
  145SAPE   H4S15945   3.959  -0.332  10.002 -0.0624 -1.8576 -0.3986
  145SAPE   C2515946   3.800  -0.431  10.120 -0.0597 -0.0085  0.2860
  145SAPE   H5R15947   3.775  -0.455  10.224 -0.3819  0.1065  0.2383
  145SAPE   C2615948   3.724  -0.487  10.028 -0.7659  1.0907  0.1671
  145SAPE   H6R15949   3.652  -0.565  10.053  0.0783  0.0634 -0.5282
  145SAPE   C2715950   3.740  -0.467   9.879 -0.0066  0.2790 -0.0095
  145SAPE   H7R15951   3.739  -0.358   9.857 -0.9226  0.2557 -0.0859
  145SAPE   H7S15952   3.661  -0.519   9.822 -0.4678  1.1120 -0.1416
  145SAPE   C2815953   3.858  -0.537   9.821 -0.4336 -0.9586  0.0029
  145SAPE   H8R15954   3.921  -0.597   9.889 -0.3830 -1.8536 -0.8035
  145SAPE   C2915955   3.873  -0.556   9.686 -0.3835  0.2296  0.1116
  145SAPE   H9R15956   3.962  -0.606   9.646 -0.4748  0.7117 -0.7016
  145SAPE  C21015957   3.769  -0.510   9.589  0.3538  0.0312 -0.2795
  145SAPE  H10R15958   3.721  -0.413   9.610  0.2829 -0.4331  1.9709
  145SAPE  H10S15959   3.689  -0.586   9.578  0.3781  0.2961 -2.7058
  145SAPE  C21115960   3.842  -0.505   9.458 -1.2064 -0.2753 -0.0450
  145SAPE  H11R15961   3.949  -0.527   9.458 -1.3599 -1.0987 -1.3647
  145SAPE  C21215962   3.783  -0.452   9.347  0.0139 -0.9539  0.0732
  145SAPE  H12R15963   3.841  -0.447   9.254  0.6054  0.2872  0.4793
  145SAPE  C21315964   3.642  -0.405   9.329  0.1990 -0.4897  0.4609
  145SAPE  H13R15965   3.656  -0.299   9.298 -1.4070 -0.6492 -0.8963
  145SAPE  H13S15966   3.586  -0.400   9.425  0.3105  2.7197  0.4815
  145SAPE  C21415967   3.559  -0.485   9.232  0.9803  0.0868 -0.3666
  145SAPE  H14R15968   3.567  -0.594   9.245 -0.2604  0.3072  3.3477
  145SAPE  C21515969   3.474  -0.445   9.136 -0.2044  0.1897 -0.1472
  145SAPE  H15R15970   3.416  -0.521   9.080 -0.4873  0.9014 -0.8419
  145SAPE  C21615971   3.440  -0.302   9.108  0.1417  0.1791 -0.0946
  145SAPE  H16R15972   3.484  -0.225   9.176  2.6877 -0.7009 -0.6376
  145SAPE  H16S15973   3.330  -0.287   9.114 -0.2909 -2.5676  0.0311
  145SAPE  C21715974   3.462  -0.239   8.971  0.1900  0.3233 -0.1066
  145SAPE  H17R15975   3.568  -0.263   8.947  0.3180 -3.3184  3.2245
  145SAPE  H17S15976   3.449  -0.129   8.975 -0.3836  0.3065 -1.1774
  145SAPE  C21815977   3.363  -0.310   8.869  0.1196 -0.7279 -0.1289
  145SAPE  H18R15978   3.255  -0.305   8.896  0.3998 -0.5751  1.0237
  145SAPE  H18S15979   3.395  -0.416   8.866  1.1489 -0.4116 -2.4123
  145SAPE  C21915980   3.380  -0.261   8.725  0.3011 -0.0515  0.0284
  145SAPE  H19R15981   3.469  -0.319   8.693 -0.6540 -1.7761  0.3463
  145SAPE  H19S15982   3.404  -0.153   8.716  0.8601 -0.2660 -1.2387
  145SAPE  C22015983   3.260  -0.296   8.633 -0.7124  0.2989 -0.2367
  145SAPE  H20R15984   3.172  -0.228   8.642 -1.4275 -0.5335 -0.7639
  145SAPE  H20S15985   3.219  -0.399   8.641  0.5918 -0.3686 -1.6689
  145SAPE  H20T15986   3.286  -0.289   8.526 -1.6814  2.4464 -0.3897
  145SAPE   C3315987   3.558  -0.878  10.373  0.5207  0.4747 -0.3826
  145SAPE   H3X15988   3.566  -0.919  10.476 -2.0178  2.2194  0.6227
  145SAPE   H3Y15989   3.547  -0.968  10.310  1.0798 -1.7367  2.4833
  145SAPE   C3415990   3.444  -0.765  10.386 -0.5614  0.1114  0.5685
  145SAPE   H4X15991   3.466  -0.700  10.474  0.8242 -0.9272  1.0234
  145SAPE   H4Y15992   3.346  -0.817  10.399  0.1342 -1.3139  0.2547
  145SAPE   C3515993   3.434  -0.689  10.249 -0.1594 -0.3699 -0.3594
  145SAPE   H5X15994   3.529  -0.635  10.230  0.2669 -0.5275  1.1486
  145SAPE   H5Y15995   3.351  -0.616  10.265 -0.9656 -1.6213  1.7289
  145SAPE   C3615996   3.401  -0.788  10.133  0.6984 -0.9385 -0.2441
  145SAPE   H6X15997   3.309  -0.848  10.151  0.9877 -0.6678  2.6272
  145SAPE   H6Y15998   3.483  -0.863  10.128  0.8061 -0.9966  1.5972
  145SAPE   C3715999   3.400  -0.712  10.004  0.0885  0.5214  0.3582
  145SAPE   H7X16000   3.500  -0.665   9.995 -0.0259  0.4978 -1.3602
  145SAPE   H7Y16001   3.324  -0.631  10.009 -0.9301 -0.4833  4.2411
  145SAPE   C3816002   3.382  -0.805   9.883 -0.2128  0.4740 -0.0414
  145SAPE   H8X16003   3.293  -0.871   9.891  0.6618 -0.9538 -1.4968
  145SAPE   H8Y16004   3.470  -0.873   9.876  0.7831  1.3348  2.8438
  145SAPE   C3916005   3.373  -0.729   9.746  0.6000  0.5177  0.2365
  145SAPE   H9X16006   3.452  -0.656   9.717 -0.2792  0.8898 -1.3117
  145SAPE   H9Y16007   3.282  -0.665   9.744  0.3247  0.2659 -4.0668
  145SAPE  C31016008   3.354  -0.816   9.627 -0.0807  0.1503  0.4205
  145SAPE  H10X16009   3.258  -0.873   9.633 -0.5728  0.4214 -2.7949
  145SAPE  H10Y16010   3.426  -0.899   9.614 -1.2733 -0.5750 -2.5286
  145SAPE  C31116011   3.351  -0.736   9.494  0.2608 -0.1531 -0.4698
  145SAPE  H11X16012   3.450  -0.684   9.497  0.0200  0.2774  0.4063
  145SAPE  H11Y16013   3.280  -0.651   9.491 -0.8361 -0.9594  1.1448
  145SAPE  C31216014   3.339  -0.823   9.370 -0.0088  0.1196  0.5867
  145SAPE  H12X16015   3.418  -0.902   9.370  0.7595  0.6604 -3.2410
  145SAPE  H12Y16016   3.355  -0.762   9.278  2.3756 -1.6691 -0.2994
  145SAPE  C31316017   3.198  -0.884   9.345  0.5134  0.1667 -0.3109
  145SAPE  H13X16018   3.135  -0.792   9.341  0.6823  0.3083  0.1965
  145SAPE  H13Y16019   3.163  -0.942   9.434  1.0048  1.5330  0.8111
  145SAPE  C31416020   3.191  -0.972   9.215  0.3113 -0.7260 -0.0226
  145SAPE  H14X16021   3.239  -1.068   9.243 -1.5336 -1.5484  0.5089
  145SAPE  H14Y16022   3.263  -0.930   9.142  1.6090  0.9078  2.0588
  145SAPE  C31516023   3.057  -1.005   9.164 -0.1482 -0.2200  1.1164
  145SAPE  H15X16024   3.007  -0.918   9.116  3.0755  1.1300 -0.0470
  145SAPE  H15Y16025   2.988  -1.032   9.247 -0.4588 -1.1363  0.5747
  145SAPE  C31616026   3.067  -1.124   9.072  0.0566 -0.3543  0.1112
  145SAPE  H16X16027   3.090  -1.208   9.140  0.1806  1.3360  2.2754
  145SAPE  H16Y16028   3.164  -1.118   9.018  1.3269  1.5843  2.3765
  145SAPE  C31716029   2.953  -1.163   8.981  0.1259  0.6211 -0.7837
  145SAPE  H17X16030   2.975  -1.267   8.950  1.6606  0.3647  0.9992
  145SAPE  H17Y16031   2.957  -1.107   8.885  2.0271 -0.6315 -1.4793
  145SAPE  C31816032   2.817  -1.154   9.058 -0.0341 -1.0693  0.1012
  145SAPE  H18X16033   2.733  -1.161   8.985 -1.9437  2.1863  1.7318
  145SAPE  H18Y16034   2.808  -1.054   9.106 -1.0497 -2.0941  2.1786
  145SAPE  H18Z16035   2.812  -1.226   9.142  0.2228 -0.0898  0.9771
  146SAPE     N16036   3.290   5.161  11.074 -0.1374  0.3063  0.3973
  146SAPE   HN116037   3.345   5.116  11.150 -0.2875  1.5669  1.2881
  146SAPE   HN216038   3.213   5.092  11.063 -1.3220  1.6861 -0.2475
  146SAPE   HN316039   3.346   5.170  10.987  0.2279  0.2338  0.6236
  146SAPE   C1216040   3.223   5.280  11.117  1.0855 -0.4644 -0.1428
  146SAPE  H12A16041   3.311   5.338  11.152  1.5341 -0.3221 -1.4906
  146SAPE  H12B16042   3.144   5.258  11.193  1.4224  0.1320  0.3940
  146SAPE   C1116043   3.168   5.352  10.994 -0.4361 -0.2536 -0.4280
  146SAPE  H11A16044   3.144   5.456  11.027  5.2909  0.4055  2.8679
  146SAPE  H11B16045   3.071   5.309  10.960 -1.2228  2.3761 -1.8007
  146SAPE     P16046   3.313   5.480  10.818 -0.0142 -0.0347 -0.0311
  146SAPE   O1316047   3.300   5.592  10.909  0.5945 -0.1757 -0.1536
  146SAPE   O1416048   3.447   5.457  10.760 -0.1223 -0.2659 -0.2649
  146SAPE   O1216049   3.265   5.352  10.893  0.6899  0.0010  0.8179
  146SAPE   O1116050   3.223   5.508  10.695 -0.3428  0.0728 -0.6787
  146SAPE    C116051   3.092   5.460  10.675 -0.1521  0.1755 -0.7955
  146SAPE    HA16052   3.088   5.357  10.716 -1.8403 -0.0449 -1.4626
  146SAPE    HB16053   3.013   5.519  10.727 -0.2938 -0.5648 -0.1511
  146SAPE    C216054   3.056   5.446  10.529 -0.0070 -0.4648 -0.5550
  146SAPE    HS16055   2.968   5.380  10.513  0.9373 -1.7943 -0.5223
  146SAPE   O2116056   3.154   5.387  10.452 -0.2091  0.0696 -0.4814
  146SAPE   C2116057   3.205   5.268  10.481 -0.1444  0.3829  0.4155
  146SAPE   O2216058   3.153   5.187  10.558 -0.6496  0.0454 -0.9582
  146SAPE   C2216059   3.329   5.249  10.396  0.1237  0.6213 -0.5074
  146SAPE   H2R16060   3.293   5.172  10.324  1.0224 -0.8436  0.5524
  146SAPE   H2S16061   3.342   5.339  10.333  0.9769 -0.8249 -2.4967
  146SAPE    C316062   3.024   5.586  10.463 -0.4247  0.0281 -0.1673
  146SAPE    HX16063   3.106   5.654  10.494  0.3368 -1.5556  1.4525
  146SAPE    HY16064   2.931   5.623  10.512 -0.5029  2.1814 -1.7874
  146SAPE   O3116065   3.009   5.577  10.319 -0.0705  0.3552 -0.0422
  146SAPE   C3116066   3.122   5.578  10.245  0.2669 -0.6641  0.6536
  146SAPE   O3216067   3.232   5.611  10.288  0.0317  0.5796  0.5268
  146SAPE   C3216068   3.082   5.539  10.102 -0.0161 -0.1499  0.4528
  146SAPE   H2X16069   2.989   5.591  10.068  0.3772  0.8741  0.9019
  146SAPE   H2Y16070   3.061   5.430  10.099 -1.6912  0.1669 -1.1204
  146SAPE   C2316071   3.460   5.213  10.466  0.1865 -0.2250  0.6364
  146SAPE   H3R16072   3.437   5.128  10.533 -0.8278  0.3859  1.0942
  146SAPE   H3S16073   3.490   5.303  10.523 -0.8726 -1.4437  3.2876
  146SAPE   C2416074   3.568   5.171  10.360  0.0738 -0.6929 -0.8011
  146SAPE   H4R16075   3.536   5.086  10.297 -1.1923 -0.4331 -0.5318
  146SAPE   H4S16076   3.653   5.134  10.422 -1.3889  0.7915  2.3208
  146SAPE   C2516077   3.626   5.289  10.288  0.5059  0.2593  0.0763
  146SAPE   H5R16078   3.636   5.379  10.350  1.4079 -0.0671  0.4204
  146SAPE   C2616079   3.620   5.301  10.155  0.2761  0.1074 -0.6365
  146SAPE   H6R16080   3.647   5.397  10.108 -1.1396 -0.3786 -2.5730
  146SAPE   C2716081   3.581   5.206  10.043 -0.6249  0.0595 -0.6711
  146SAPE   H7R16082   3.562   5.263   9.950  0.6455 -1.3535 -1.8397
  146SAPE   H7S16083   3.483   5.160  10.067 -0.6379 -0.3129 -1.4254
  146SAPE   C2816084   3.684   5.098  10.015  0.1997 -0.6484 -0.2101
  146SAPE   H8R16085   3.713   5.035  10.100 -1.5440 -2.1976 -0.6710
  146SAPE   C2916086   3.734   5.075   9.891 -0.7392 -0.9028 -0.1712
  146SAPE   H9R16087   3.816   5.001   9.885  1.6686  1.6111 -0.2722
  146SAPE  C21016088   3.719   5.148   9.758  0.5396  0.2885 -0.1412
  146SAPE  H10R16089   3.685   5.252   9.778  0.2324  0.3960 -1.2052
  146SAPE  H10S16090   3.626   5.115   9.708 -0.3184  2.4519 -0.0753
  146SAPE  C21116091   3.841   5.159   9.672  0.2594  0.0992 -0.3083
  146SAPE  H11R16092   3.858   5.073   9.605 -1.7793 -1.1787  0.6800
  146SAPE  C21216093   3.938   5.251   9.678 -0.7302 -0.4767 -0.4466
  146SAPE  H12R16094   4.011   5.251   9.596 -1.8820  0.2457 -1.4941
  146SAPE  C21316095   3.941   5.372   9.769  0.0966  0.7064  0.6043
  146SAPE  H13R16096   3.841   5.392   9.812  0.1846  3.3438 -0.2368
  146SAPE  H13S16097   3.971   5.468   9.722  1.5622 -0.2723 -0.5484
  146SAPE  C21416098   4.029   5.335   9.887  1.0352 -0.2547 -0.1222
  146SAPE  H14R16099   4.008   5.238   9.936  1.2141 -1.9352 -3.1047
  146SAPE  C21516100   4.140   5.400   9.923  0.0024  0.8253  0.0615
  146SAPE  H15R16101   4.206   5.364  10.004  1.1095  0.5034 -0.9590
  146SAPE  C21616102   4.205   5.522   9.859 -0.6846  0.0216 -0.0415
  146SAPE  H16R16103   4.277   5.574   9.926  0.3161 -0.4870 -0.6896
  146SAPE  H16S16104   4.121   5.594   9.854 -1.2884 -0.7539 -1.5467
  146SAPE  C21716105   4.263   5.515   9.716  0.1150  0.1985  0.3773
  146SAPE  H17R16106   4.258   5.615   9.667 -0.8058  1.3614  2.7065
  146SAPE  H17S16107   4.193   5.450   9.659 -1.4151  2.5437 -0.5637
  146SAPE  C21816108   4.408   5.475   9.720  0.0365 -0.1247  0.6388
  146SAPE  H18R16109   4.427   5.383   9.779  2.2309 -1.5209 -1.9828
  146SAPE  H18S16110   4.466   5.554   9.772  1.2757 -1.6788  1.7182
  146SAPE  C21916111   4.466   5.452   9.583 -0.4992 -0.0411 -0.2984
  146SAPE  H19R16112   4.573   5.480   9.584  0.2376 -2.5253 -1.5231
  146SAPE  H19S16113   4.421   5.520   9.507  2.4880  0.6754 -1.5972
  146SAPE  C22016114   4.444   5.303   9.542  0.5512  0.3084  0.7996
  146SAPE  H20R16115   4.340   5.270   9.562  0.5697 -1.0803 -1.0799
  146SAPE  H20S16116   4.512   5.235   9.598  0.1749 -0.7254  0.0171
  146SAPE  H20T16117   4.455   5.282   9.433 -0.9823  0.5528  0.5743
  146SAPE   C3316118   3.193   5.573  10.001  0.4582 -0.4913  1.2551
  146SAPE   H3X16119   3.231   5.677   9.998  1.3524 -0.8324 -0.4312
  146SAPE   H3Y16120   3.140   5.553   9.905  0.2121  0.1962  1.2434
  146SAPE   C3416121   3.312   5.476  10.010 -0.4988 -0.4343  0.1380
  146SAPE   H4X16122   3.273   5.376   9.982  0.0005 -0.0589 -2.1268
  146SAPE   H4Y16123   3.350   5.463  10.113  2.1483 -1.6823 -0.9216
  146SAPE   C3516124   3.420   5.533   9.916  0.1514  0.1050  0.4354
  146SAPE   H5X16125   3.516   5.478   9.921 -0.8620 -1.6943  1.0482
  146SAPE   H5Y16126   3.444   5.641   9.931  0.2242  0.1310  0.1383
  146SAPE   C3616127   3.368   5.520   9.772  0.4947  0.5707  0.3921
  146SAPE   H6X16128   3.285   5.591   9.754 -0.5981 -0.8344 -0.2618
  146SAPE   H6Y16129   3.330   5.417   9.756 -0.7049  0.8681  1.2145
  146SAPE   C3716130   3.468   5.557   9.666  0.6237  1.0557  0.8269
  146SAPE   H7X16131   3.556   5.492   9.684 -0.6513 -0.7021  1.0140
  146SAPE   H7Y16132   3.498   5.664   9.663  2.8065  0.5026 -2.6902
  146SAPE   C3816133   3.408   5.544   9.521 -0.3065  0.3829  0.4939
  146SAPE   H8X16134   3.340   5.631   9.508 -0.9017 -0.0845  0.4250
  146SAPE   H8Y16135   3.348   5.454   9.499 -0.3895  0.6006 -0.1947
  146SAPE   C3916136   3.518   5.555   9.411  0.0585  0.0870 -0.2731
  146SAPE   H9X16137   3.581   5.645   9.432  0.8259 -0.4617 -0.1989
  146SAPE   H9Y16138   3.455   5.558   9.319 -0.0848 -3.2493 -0.3957
  146SAPE  C31016139   3.613   5.440   9.402 -0.6402 -0.0987 -0.3348
  146SAPE  H10X16140   3.689   5.437   9.482 -1.4890 -1.5206  0.4710
  146SAPE  H10Y16141   3.669   5.451   9.307 -0.5404 -2.8958 -0.7037
  146SAPE  C31116142   3.552   5.300   9.384 -0.5504 -0.3628  0.3804
  146SAPE  H11X16143   3.493   5.303   9.291  0.7801 -0.7659 -0.5114
  146SAPE  H11Y16144   3.482   5.265   9.463  0.5944 -2.5048  0.5437
  146SAPE  C31216145   3.665   5.197   9.363  0.1826  0.3813  0.2297
  146SAPE  H12X16146   3.615   5.098   9.367  0.4147  0.2767  0.6388
  146SAPE  H12Y16147   3.732   5.187   9.451  2.4294 -4.5723 -1.6768
  146SAPE  C31316148   3.746   5.221   9.239  0.0624  0.3272 -0.6033
  146SAPE  H13X16149   3.846   5.179   9.263 -0.3348  0.5500  1.6981
  146SAPE  H13Y16150   3.775   5.328   9.240  2.0338 -0.1703 -0.4456
  146SAPE  C31416151   3.683   5.168   9.111  0.2133 -0.9222  0.5081
  146SAPE  H14X16152   3.579   5.207   9.106  0.2336 -0.9375 -0.1637
  146SAPE  H14Y16153   3.683   5.057   9.117  2.0887 -1.0395 -0.7747
  146SAPE  C31516154   3.759   5.215   8.982  0.3524 -0.1161  0.6678
  146SAPE  H15X16155   3.865   5.184   8.994  0.7932  1.4514  1.1148
  146SAPE  H15Y16156   3.769   5.324   8.966  1.1229 -0.6554 -3.5151
  146SAPE  C31616157   3.697   5.149   8.861  0.5872 -0.6756 -0.2628
  146SAPE  H16X16158   3.596   5.195   8.854  0.5838 -0.7341 -0.5970
  146SAPE  H16Y16159   3.685   5.039   8.866  1.8988 -0.7996  1.2436
  146SAPE  C31716160   3.772   5.185   8.732  0.4010 -0.0868 -0.2994
  146SAPE  H17X16161   3.878   5.151   8.729  0.5072  0.1206  0.7770
  146SAPE  H17Y16162   3.779   5.296   8.726  2.5256 -0.0271  1.6993
  146SAPE  C31816163   3.707   5.128   8.606 -0.5196 -0.0244 -0.4072
  146SAPE  H18X16164   3.765   5.169   8.520 -0.1361 -0.3080 -0.2792
  146SAPE  H18Y16165   3.605   5.172   8.605  0.1750  1.6716 -1.5321
  146SAPE  H18Z16166   3.713   5.018   8.611 -1.0056 -0.0068  1.0312
  147SAPE     N16167   4.742   0.472  11.050 -0.2666 -0.0988 -0.0323
  147SAPE   HN116168   4.646   0.440  11.075 -0.5320  0.8654  0.2091
  147SAPE   HN216169   4.746   0.438  10.951  0.2993 -0.1139 -0.0078
  147SAPE   HN316170   4.804   0.409  11.105 -0.6587 -1.1640 -0.7757
  147SAPE   C1216171   4.761   0.622  11.067 -0.1957 -0.0244  0.7319
  147SAPE  H12A16172   4.870   0.640  11.058 -0.2635 -0.0189 -0.2032
  147SAPE  H12B16173   4.723   0.651  11.168 -3.8245 -2.8976  0.4138
  147SAPE   C1116174   4.678   0.703  10.968  0.3606  0.2145  0.5578
  147SAPE  H11A16175   4.568   0.702  10.982  0.0934 -0.0872 -1.2883
  147SAPE  H11B16176   4.695   0.654  10.870 -0.6383  1.4694 -0.2721
  147SAPE     P16177   4.664   0.958  11.035  0.2064 -0.1661  0.2035
  147SAPE   O1316178   4.525   0.931  11.073 -0.4372 -0.0002 -0.5189
  147SAPE   O1416179   4.758   0.997  11.142 -0.1093 -0.2805 -0.7470
  147SAPE   O1216180   4.729   0.839  10.961 -0.0150  0.1226 -0.0201
  147SAPE   O1116181   4.657   1.078  10.933 -0.1413 -0.2620  0.2605
  147SAPE    C116182   4.760   1.110  10.841  0.5006  0.4004 -0.6529
  147SAPE    HA16183   4.815   1.204  10.866  1.8385 -0.6180  0.4310
  147SAPE    HB16184   4.838   1.032  10.851 -0.3655 -0.3170  1.0398
  147SAPE    C216185   4.714   1.121  10.699  0.1224 -0.4985 -0.1138
  147SAPE    HS16186   4.802   1.105  10.633 -0.2556  0.1745 -0.7946
  147SAPE   O2116187   4.661   1.256  10.685 -1.0800  0.3920  0.1595
  147SAPE   C2116188   4.741   1.352  10.641  1.0973 -0.1288 -0.4353
  147SAPE   O2216189   4.862   1.336  10.620  0.0975  0.8065 -0.9154
  147SAPE   C2216190   4.659   1.468  10.591  0.3227 -0.5211 -0.0816
  147SAPE   H2R16191   4.552   1.440  10.577 -0.2250  2.0360 -1.6588
  147SAPE   H2S16192   4.668   1.558  10.655 -0.2949 -0.0784 -0.5929
  147SAPE    C316193   4.613   1.012  10.658  0.1928  0.2028 -0.4087
  147SAPE    HX16194   4.542   1.004  10.743 -0.7259  0.2823 -1.1549
  147SAPE    HY16195   4.665   0.913  10.655 -0.1322  0.0120  0.1162
  147SAPE   O3116196   4.561   1.039  10.529  0.4100  0.0598  0.2988
  147SAPE   C3116197   4.430   1.025  10.530  0.5465  0.0196  0.2852
  147SAPE   O3216198   4.360   0.988  10.620  0.0462 -0.3471 -0.4007
  147SAPE   C3216199   4.376   1.081  10.397 -0.1126 -0.2009 -0.0685
  147SAPE   H2X16200   4.414   1.027  10.308  1.4747  2.8719 -1.3983
  147SAPE   H2Y16201   4.414   1.185  10.385  0.1173 -0.0360  1.8765
  147SAPE   C2316202   4.710   1.513  10.452  0.3381  0.3277  0.2424
  147SAPE   H3R16203   4.820   1.523  10.443  0.0341  3.7813 -1.0891
  147SAPE   H3S16204   4.672   1.617  10.438 -2.3189 -0.2612  2.1446
  147SAPE   C2416205   4.660   1.429  10.331  0.0037  0.0599 -0.1646
  147SAPE   H4R16206   4.626   1.327  10.360  0.1703  0.0553  0.0231
  147SAPE   H4S16207   4.754   1.431  10.272  0.0711  1.6886 -0.0354
  147SAPE   C2516208   4.533   1.480  10.267 -0.2201 -0.2420  0.9136
  147SAPE   H5R16209   4.463   1.534  10.332  2.1788  2.0938  1.7321
  147SAPE   C2616210   4.499   1.480  10.135  0.2655  0.5336  0.3626
  147SAPE   H6R16211   4.412   1.544  10.111 -0.1970 -0.5106 -0.8573
  147SAPE   C2716212   4.593   1.424  10.027 -0.2460 -0.5002  0.3062
  147SAPE   H7R16213   4.532   1.361   9.959  0.6932 -0.9793 -0.1225
  147SAPE   H7S16214   4.661   1.350  10.074 -0.1958 -0.1257  0.8284
  147SAPE   C2816215   4.655   1.538   9.943  0.1846 -0.5054  0.1966
  147SAPE   H8R16216   4.682   1.626  10.003 -0.1455 -0.7732  0.7491
  147SAPE   C2916217   4.665   1.554   9.806  0.3132 -0.0351 -0.3440
  147SAPE   H9R16218   4.700   1.645   9.756 -1.1548  0.3215 -0.7810
  147SAPE  C21016219   4.621   1.443   9.711  0.0786  0.0074  0.0252
  147SAPE  H10R16220   4.636   1.347   9.765 -2.2020  1.1860  2.9579
  147SAPE  H10S16221   4.693   1.425   9.628 -1.8018 -2.3570 -1.2092
  147SAPE  C21116222   4.480   1.451   9.648 -0.2725  0.3963 -0.2409
  147SAPE  H11R16223   4.403   1.507   9.703 -1.2472 -1.1244  0.0114
  147SAPE  C21216224   4.443   1.404   9.525 -0.1848  0.1765  0.1275
  147SAPE  H12R16225   4.341   1.425   9.491  0.4340  2.6339 -0.3992
  147SAPE  C21316226   4.530   1.336   9.423 -0.3055 -0.0465 -0.2036
  147SAPE  H13R16227   4.474   1.244   9.394  0.4390 -0.5073 -0.1974
  147SAPE  H13S16228   4.627   1.301   9.464 -1.1057 -1.5332  0.4987
  147SAPE  C21416229   4.570   1.426   9.307  0.4106 -0.3870 -0.4534
  147SAPE  H14R16230   4.671   1.469   9.315 -0.3710  1.2551  1.7796
  147SAPE  C21516231   4.506   1.439   9.188  0.4483 -0.0597  0.9898
  147SAPE  H15R16232   4.535   1.517   9.117 -0.8637  0.6521  1.2108
  147SAPE  C21616233   4.384   1.363   9.141 -0.6830 -0.2775  0.6431
  147SAPE  H16R16234   4.303   1.439   9.144  0.0593  0.5278  0.6960
  147SAPE  H16S16235   4.355   1.292   9.221 -2.2914 -2.7652 -2.0075
  147SAPE  C21716236   4.400   1.305   8.998 -0.1865  0.5198 -0.1561
  147SAPE  H17R16237   4.440   1.371   8.918 -1.7595 -0.7020 -2.0660
  147SAPE  H17S16238   4.297   1.267   8.978  0.3442 -0.0713 -1.9310
  147SAPE  C21816239   4.486   1.183   8.990 -0.0153  0.0954 -0.1295
  147SAPE  H18R16240   4.465   1.139   9.090  1.9522  4.1684  2.3068
  147SAPE  H18S16241   4.596   1.197   8.985 -0.1884  2.3063  1.1639
  147SAPE  C21916242   4.435   1.083   8.886  0.8343 -0.6455 -0.9169
  147SAPE  H19R16243   4.469   1.130   8.792  0.6213  2.6200  0.5050
  147SAPE  H19S16244   4.324   1.082   8.879  0.3975  1.3092  3.0246
  147SAPE  C22016245   4.497   0.941   8.906 -0.5947  0.5725 -0.1062
  147SAPE  H20R16246   4.479   0.889   8.810  2.2308 -1.3428  0.2874
  147SAPE  H20S16247   4.457   0.882   8.992  0.8792 -0.4620 -0.0975
  147SAPE  H20T16248   4.604   0.959   8.930 -1.2547  1.8797  2.1521
  147SAPE   C3316249   4.225   1.096  10.381  0.1356  0.3129 -0.3516
  147SAPE   H3X16250   4.190   1.154  10.469 -1.2918 -2.5852  1.1076
  147SAPE   H3Y16251   4.178   0.997  10.395  0.7593  0.1230  0.4641
  147SAPE   C3416252   4.173   1.174  10.256 -0.4548  0.4222 -0.1283
  147SAPE   H4X16253   4.224   1.273  10.259 -1.1856  0.8051 -0.1002
  147SAPE   H4Y16254   4.066   1.191  10.277 -0.6289  1.8045 -1.8199
  147SAPE   C3516255   4.195   1.102  10.122 -0.3493  0.0779  0.0744
  147SAPE   H5X16256   4.100   1.112  10.066 -1.2729 -0.3611  1.4879
  147SAPE   H5Y16257   4.212   0.997  10.156 -4.3955 -0.0083  2.6057
  147SAPE   C3616258   4.324   1.158  10.055 -0.0704 -0.8065  0.2498
  147SAPE   H6X16259   4.414   1.143  10.118  2.9611  2.7576 -2.7598
  147SAPE   H6Y16260   4.325   1.266  10.029  0.4825 -0.9666 -0.4165
  147SAPE   C3716261   4.361   1.091   9.920  0.1417 -0.6671  1.0519
  147SAPE   H7X16262   4.401   0.990   9.943  1.7269  0.0566  1.6014
  147SAPE   H7Y16263   4.445   1.151   9.878  2.4247 -2.4209  2.8594
  147SAPE   C3816264   4.240   1.086   9.822 -0.4606  0.1538 -0.5605
  147SAPE   H8X16265   4.177   1.177   9.839 -2.4902 -1.5991  2.0576
  147SAPE   H8Y16266   4.171   1.004   9.853  0.1370 -0.5035 -0.9485
  147SAPE   C3916267   4.277   1.058   9.674  0.0166 -0.0883 -0.0386
  147SAPE   H9X16268   4.314   0.955   9.660 -3.3098 -1.2708 -1.1595
  147SAPE   H9Y16269   4.359   1.126   9.643  0.1623  0.1346  0.7864
  147SAPE  C31016270   4.166   1.068   9.566  0.7653 -0.3125 -0.1197
  147SAPE  H10X16271   4.113   1.166   9.566  1.0103 -0.1161  2.1645
  147SAPE  H10Y16272   4.092   0.988   9.588 -0.6578  0.9411 -0.1487
  147SAPE  C31116273   4.223   1.035   9.426 -0.0735  0.3499 -0.1756
  147SAPE  H11X16274   4.281   0.941   9.434  0.0064  0.3756 -0.4480
  147SAPE  H11Y16275   4.296   1.118   9.418  0.4521 -0.2862 -2.6609
  147SAPE  C31216276   4.119   1.027   9.314 -0.1273 -0.2906 -0.5516
  147SAPE  H12X16277   4.167   1.075   9.227  0.2029  0.9888  0.3121
  147SAPE  H12Y16278   4.033   1.092   9.342  1.1971  0.5225  1.9992
  147SAPE  C31316279   4.071   0.889   9.284  0.0581  0.2127  0.8296
  147SAPE  H13X16280   3.982   0.876   9.349  0.7597 -0.4049  1.6919
  147SAPE  H13Y16281   4.145   0.812   9.314  1.2348 -0.0890 -2.4727
  147SAPE  C31416282   4.037   0.859   9.133  0.3995 -0.1837  0.1654
  147SAPE  H14X16283   3.936   0.892   9.101  1.7507  1.0370 -3.4127
  147SAPE  H14Y16284   4.030   0.749   9.119 -0.1024 -0.4405  2.1454
  147SAPE  C31516285   4.139   0.910   9.033 -0.5566 -0.1815 -0.4909
  147SAPE  H15X16286   4.242   0.890   9.069  1.1801  2.5264 -3.5147
  147SAPE  H15Y16287   4.115   1.018   9.024 -1.6573 -0.0244  2.9069
  147SAPE  C31616288   4.132   0.820   8.913 -0.0636 -0.4501  0.5626
  147SAPE  H16X16289   4.130   0.713   8.941  0.4523 -1.0521 -1.5437
  147SAPE  H16Y16290   4.224   0.839   8.855  0.2093 -1.7046  0.5543
  147SAPE  C31716291   4.001   0.830   8.826 -0.6102  0.3666 -0.0711
  147SAPE  H17X16292   3.987   0.940   8.810  0.5500  0.4093 -0.8993
  147SAPE  H17Y16293   3.920   0.783   8.885  0.2311 -1.1505 -0.0850
  147SAPE  C31816294   4.010   0.744   8.698  0.2356  0.7114 -0.1531
  147SAPE  H18X16295   4.038   0.640   8.724 -1.0014  0.1705 -0.8794
  147SAPE  H18Y16296   4.097   0.777   8.637  1.1634 -0.0131  0.7455
  147SAPE  H18Z16297   3.925   0.736   8.626 -0.4821  0.2476  0.7190
  148SAPE     N16298   5.589   2.473  11.137  0.3538  0.1386  0.2726
  148SAPE   HN116299   5.593   2.379  11.182 -1.2409  0.1593  0.5368
  148SAPE   HN216300   5.673   2.525  11.169  0.4981 -1.1041  2.1439
  148SAPE   HN316301   5.505   2.514  11.183 -0.9022 -2.7829  0.8818
  148SAPE   C1216302   5.598   2.465  10.990  1.0038 -0.2744  0.1350
  148SAPE  H12A16303   5.704   2.481  10.959  0.2100  0.6782 -2.3146
  148SAPE  H12B16304   5.546   2.552  10.944  1.1645 -0.3438 -0.1840
  148SAPE   C1116305   5.547   2.333  10.926  0.9341 -0.0819 -0.7302
  148SAPE  H11A16306   5.599   2.244  10.968  0.3147  0.3257  0.9920
  148SAPE  H11B16307   5.578   2.328  10.820  0.3060 -0.5487 -0.9000
  148SAPE     P16308   5.321   2.242  10.826  0.8961 -0.0456  0.5332
  148SAPE   O1316309   5.384   2.110  10.799 -0.1773  0.0350 -0.0506
  148SAPE   O1416310   5.173   2.244  10.861  0.4780  0.1816  0.4026
  148SAPE   O1216311   5.402   2.324  10.935 -0.3215 -0.7107  0.1320
  148SAPE   O1116312   5.348   2.331  10.701 -0.1571 -0.2093  0.0819
  148SAPE    C116313   5.311   2.465  10.674  0.3959  0.4372 -0.0400
  148SAPE    HA16314   5.293   2.513  10.773 -0.5985  0.4065 -0.1901
  148SAPE    HB16315   5.398   2.515  10.627  0.7670  0.7292  0.9205
  148SAPE    C216316   5.190   2.473  10.585 -0.5619  0.2887 -0.1108
  148SAPE    HS16317   5.107   2.413  10.627  1.0066  0.3363  3.4419
  148SAPE   O2116318   5.238   2.429  10.450 -0.2482  0.1078 -0.2459
  148SAPE   C2116319   5.150   2.378  10.372 -0.2531 -0.4513  0.1103
  148SAPE   O2216320   5.040   2.339  10.415 -0.8219  0.7435  0.3165
  148SAPE   C2216321   5.206   2.352  10.237 -0.2144 -0.1429  0.9336
  148SAPE   H2R16322   5.221   2.447  10.181 -0.4207 -0.7455 -0.1711
  148SAPE   H2S16323   5.312   2.320  10.247 -0.1477 -0.9227 -1.6218
  148SAPE    C316324   5.145   2.624  10.589 -0.5878 -0.1605  0.7496
  148SAPE    HX16325   5.230   2.688  10.556 -0.1904 -0.7851  0.5439
  148SAPE    HY16326   5.143   2.659  10.694  0.6627  0.7248  0.5114
  148SAPE   O3116327   5.020   2.651  10.515  0.6805  0.5031 -0.2764
  148SAPE   C3116328   5.022   2.685  10.382 -0.0022  0.2106 -0.0069
  148SAPE   O3216329   5.117   2.685  10.312  0.2277  0.1846  0.0480
  148SAPE   C3216330   4.890   2.737  10.333  0.1359  0.2207 -0.1755
  148SAPE   H2X16331   4.921   2.838  10.297  0.7109 -0.1734 -0.7977
  148SAPE   H2Y16332   4.826   2.746  10.424  0.3665  1.3208 -0.1043
  148SAPE   C2316333   5.116   2.253  10.160  0.1282 -0.0508 -0.2842
  148SAPE   H3R16334   5.096   2.175  10.236 -1.3765  2.5309  2.1302
  148SAPE   H3S16335   5.170   2.213  10.071 -1.5621  1.4392 -2.0910
  148SAPE   C2416336   4.985   2.304  10.095 -0.3347 -0.1486  0.9565
  148SAPE   H4R16337   4.921   2.352  10.172 -1.0822 -0.4572  0.5410
  148SAPE   H4S16338   4.934   2.210  10.065  0.9527 -0.1268 -1.5098
  148SAPE   C2516339   5.005   2.398   9.973  0.7462 -0.4812  0.3136
  148SAPE   H5R16340   5.027   2.502  10.001  0.6197 -0.6048  0.8848
  148SAPE   C2616341   4.977   2.361   9.844 -0.9720  0.3324  0.8199
  148SAPE   H6R16342   4.988   2.433   9.762  1.2595 -0.1456  0.6392
  148SAPE   C2716343   4.936   2.227   9.786 -0.5502 -0.2308 -0.6074
  148SAPE   H7R16344   4.826   2.241   9.773 -0.5188 -0.2655 -0.9200
  148SAPE   H7S16345   4.952   2.149   9.862 -1.7767 -0.9198 -1.0322
  148SAPE   C2816346   5.014   2.186   9.660  0.5400 -0.9590 -0.1580
  148SAPE   H8R16347   5.087   2.105   9.671  0.5210 -0.9300  0.1793
  148SAPE   C2916348   4.996   2.239   9.536  0.1349 -0.6073  0.0978
  148SAPE   H9R16349   5.055   2.199   9.453  1.1163 -0.1289  0.5439
  148SAPE  C21016350   4.900   2.351   9.497  0.0342  0.8995  0.1821
  148SAPE  H10R16351   4.837   2.378   9.585 -0.0924  0.4842  0.2242
  148SAPE  H10S16352   4.830   2.305   9.424 -1.4625  2.5095  0.5476
  148SAPE  C21116353   4.982   2.469   9.448  0.1559  0.8776  0.1666
  148SAPE  H11R16354   5.047   2.501   9.530  0.8770 -0.4014  0.1191
  148SAPE  C21216355   4.974   2.525   9.325  0.2898 -1.0490 -0.2580
  148SAPE  H12R16356   5.027   2.620   9.310 -0.9004 -0.1122  1.1063
  148SAPE  C21316357   4.883   2.463   9.214 -0.2170 -0.0045 -0.4508
  148SAPE  H13R16358   4.834   2.541   9.151 -0.9610 -0.9626 -1.1031
  148SAPE  H13S16359   4.797   2.406   9.255 -0.0407  0.5476  0.7154
  148SAPE  C21416360   4.962   2.367   9.129  0.4086 -0.2409 -0.5183
  148SAPE  H14R16361   5.026   2.294   9.180 -0.0300  0.0934  0.5371
  148SAPE  C21516362   4.966   2.380   8.996 -0.3346  0.5222 -0.4768
  148SAPE  H15R16363   5.032   2.313   8.938 -0.6828 -0.0972 -0.1616
  148SAPE  C21616364   4.893   2.476   8.909  0.0750  0.4803  0.0808
  148SAPE  H16R16365   4.970   2.548   8.871  0.8852  0.2130  1.1522
  148SAPE  H16S16366   4.820   2.540   8.962  0.3372  1.4304 -0.6749
  148SAPE  C21716367   4.826   2.408   8.787 -0.6998  0.2248 -0.5788
  148SAPE  H17R16368   4.778   2.482   8.721  0.1079  1.0356 -0.2803
  148SAPE  H17S16369   4.741   2.348   8.826  0.5582 -2.8832 -2.2469
  148SAPE  C21816370   4.907   2.318   8.695 -0.3192  0.4456 -0.5902
  148SAPE  H18R16371   4.983   2.259   8.750 -0.5718 -0.2241 -0.9468
  148SAPE  H18S16372   4.975   2.382   8.635 -0.2449  1.3582  0.4348
  148SAPE  C21916373   4.822   2.232   8.603 -0.8126  0.0828  0.0712
  148SAPE  H19R16374   4.725   2.219   8.655 -1.0757 -1.2800 -0.7193
  148SAPE  H19S16375   4.871   2.133   8.601 -0.5291  0.1919  1.1839
  148SAPE  C22016376   4.806   2.295   8.465  0.0774  0.9283 -0.3644
  148SAPE  H20R16377   4.901   2.309   8.408 -0.2394  0.4619 -1.0206
  148SAPE  H20S16378   4.759   2.395   8.478 -0.1703  0.9842 -1.5778
  148SAPE  H20T16379   4.739   2.244   8.393 -0.4774  0.6370  0.3586
  148SAPE   C3316380   4.826   2.639  10.227 -0.3122  0.3569  0.0643
  148SAPE   H3X16381   4.813   2.538  10.273 -1.4463  0.0440 -0.8996
  148SAPE   H3Y16382   4.879   2.617  10.132  1.6208 -0.5783  1.2850
  148SAPE   C3416383   4.686   2.677  10.186  0.1418 -0.1505  0.2944
  148SAPE   H4X16384   4.624   2.699  10.275  0.8820  0.0374  0.7705
  148SAPE   H4Y16385   4.636   2.589  10.139 -0.8544  0.7882 -0.4529
  148SAPE   C3516386   4.665   2.781  10.082 -0.4984  0.3520  0.3964
  148SAPE   H5X16387   4.662   2.877  10.139 -2.6639  0.7613 -0.3176
  148SAPE   H5Y16388   4.563   2.782  10.039  0.8426 -0.8111 -3.2296
  148SAPE   C3616389   4.764   2.802   9.970  0.0473 -0.5548 -0.4787
  148SAPE   H6X16390   4.863   2.840  10.004  0.2665  1.3821 -2.9453
  148SAPE   H6Y16391   4.716   2.875   9.902 -2.8020 -1.3615  0.5442
  148SAPE   C3716392   4.779   2.686   9.874  0.0879  0.0462 -0.0492
  148SAPE   H7X16393   4.675   2.658   9.849 -0.0956 -1.3602  2.0299
  148SAPE   H7Y16394   4.819   2.601   9.935  0.9065  1.4117  1.4035
  148SAPE   C3816395   4.866   2.713   9.746 -0.0388 -0.0846 -0.2472
  148SAPE   H8X16396   4.888   2.616   9.696  0.9234 -0.4814  0.9046
  148SAPE   H8Y16397   4.968   2.751   9.769  0.3453 -0.8355 -0.6564
  148SAPE   C3916398   4.801   2.813   9.641 -0.3736  0.2916 -0.2710
  148SAPE   H9X16399   4.794   2.916   9.681 -1.7102  0.4862 -0.9249
  148SAPE   H9Y16400   4.704   2.771   9.605  0.7841 -0.7706 -2.3421
  148SAPE  C31016401   4.876   2.825   9.510 -0.5446  0.0256  0.6886
  148SAPE  H10X16402   4.852   2.743   9.439 -2.7360  1.0348  0.1844
  148SAPE  H10Y16403   4.987   2.813   9.514 -0.6546 -1.1949  0.3739
  148SAPE  C31116404   4.833   2.949   9.427 -0.2264  0.4106 -0.5156
  148SAPE  H11X16405   4.859   3.033   9.494 -2.1397  1.3255 -0.8625
  148SAPE  H11Y16406   4.725   2.947   9.401  0.3403 -0.0342 -3.2235
  148SAPE  C31216407   4.913   2.960   9.298 -0.4383  0.2272 -0.4623
  148SAPE  H12X16408   4.896   2.863   9.246 -1.3919 -2.9439  4.9689
  148SAPE  H12Y16409   5.017   2.969   9.338 -0.8639 -2.7142  1.6304
  148SAPE  C31316410   4.869   3.077   9.208 -0.7497 -0.3170  0.0533
  148SAPE  H13X16411   4.870   3.170   9.270 -2.1760  0.1745 -0.6057
  148SAPE  H13Y16412   4.765   3.059   9.173 -0.8209 -0.1039  0.1527
  148SAPE  C31416413   4.955   3.108   9.081  0.2182  0.1176  0.0901
  148SAPE  H14X16414   5.062   3.115   9.110 -0.0631  0.3587  1.1374
  148SAPE  H14Y16415   4.913   3.202   9.040 -0.5860  0.1922  1.0336
  148SAPE  C31516416   4.946   2.995   8.979 -0.6539 -0.0501 -0.7028
  148SAPE  H15X16417   4.844   2.992   8.937 -0.3102  1.5044 -1.7399
  148SAPE  H15Y16418   4.972   2.900   9.030  1.9924  1.3418  0.8077
  148SAPE  C31616419   5.044   3.008   8.858  0.4134  0.6859 -0.1322
  148SAPE  H16X16420   5.148   2.995   8.895  0.4829  1.9490  0.1560
  148SAPE  H16Y16421   5.028   3.104   8.805  1.0780  0.1662 -1.3131
  148SAPE  C31716422   5.019   2.905   8.757 -0.0981 -0.3078  0.5629
  148SAPE  H17X16423   4.928   2.927   8.696 -0.1523 -3.5016 -0.6874
  148SAPE  H17Y16424   5.009   2.804   8.800  0.7387 -0.2793  0.8311
  148SAPE  C31816425   5.133   2.901   8.649  0.7805 -0.3371 -0.6117
  148SAPE  H18X16426   5.116   2.819   8.577 -0.5201 -1.0962  0.5252
  148SAPE  H18Y16427   5.231   2.888   8.701  0.4107 -0.0350  0.1695
  148SAPE  H18Z16428   5.133   2.997   8.593 -0.1256 -0.6176 -1.1049
  149SAPE     N16429   0.616   5.231  11.322 -0.3135  0.3504 -0.1754
  149SAPE   HN116430   0.659   5.159  11.384  1.5868  0.5272 -1.2152
  149SAPE   HN216431   0.690   5.297  11.290  0.0322 -0.0918 -0.3010
  149SAPE   HN316432   0.543   5.282  11.376 -0.4403 -0.9010  0.8911
  149SAPE   C1216433   0.567   5.158  11.189  0.4768 -0.6326 -0.2132
  149SAPE  H12A16434   0.543   5.242  11.121 -1.3354  0.0250  1.1408
  149SAPE  H12B16435   0.468   5.112  11.212  0.0035  0.0940 -0.7382
  149SAPE   C1116436   0.681   5.078  11.137 -0.3505  0.6116  0.6100
  149SAPE  H11A16437   0.761   5.154  11.137 -1.0322  1.3453  0.9446
  149SAPE  H11B16438   0.659   5.038  11.035  1.5751  0.6600  0.1456
  149SAPE     P16439   0.634   4.853  11.265  0.2315 -0.3406  0.5839
  149SAPE   O1316440   0.716   4.746  11.332  0.3444 -0.1709  0.1820
  149SAPE   O1416441   0.517   4.906  11.342 -0.1535  0.3004 -0.3885
  149SAPE   O1216442   0.723   4.978  11.226 -0.0913  0.5985 -0.1067
  149SAPE   O1116443   0.584   4.810  11.120 -0.0028 -0.6854  0.0366
  149SAPE    C116444   0.634   4.701  11.045  0.4865 -0.5089 -0.0052
  149SAPE    HA16445   0.704   4.642  11.108  0.8692  1.2119  1.2557
  149SAPE    HB16446   0.548   4.634  11.028  0.5849 -0.1168 -2.3968
  149SAPE    C216447   0.686   4.748  10.909 -0.1704  0.2066  0.4822
  149SAPE    HS16448   0.781   4.803  10.929  1.1375 -0.4698 -3.0879
  149SAPE   O2116449   0.586   4.834  10.849  0.0394 -0.2765  0.4136
  149SAPE   C2116450   0.627   4.930  10.771 -0.2297 -0.3401  0.2683
  149SAPE   O2216451   0.743   4.951  10.749  0.4466 -0.2126 -0.1151
  149SAPE   C2216452   0.514   4.998  10.690 -0.3973  0.2106  0.0329
  149SAPE   H2R16453   0.439   4.929  10.646  0.1704 -0.6123  0.3467
  149SAPE   H2S16454   0.451   5.051  10.765 -0.0912  0.0470  0.4114
  149SAPE    C316455   0.726   4.640  10.802  0.1153 -0.5529  0.6820
  149SAPE    HX16456   0.638   4.614  10.740  0.2115 -0.2018  0.3941
  149SAPE    HY16457   0.769   4.546  10.844 -0.3669 -0.6284  1.0199
  149SAPE   O3116458   0.824   4.705  10.710  0.9079 -0.2411  0.0234
  149SAPE   C3116459   0.822   4.664  10.580  0.4918 -0.3688 -0.4335
  149SAPE   O3216460   0.747   4.577  10.545 -0.2505  0.1261  0.9005
  149SAPE   C3216461   0.914   4.752  10.495 -0.2372  0.0120 -0.8096
  149SAPE   H2X16462   0.901   4.850  10.546  2.1342 -1.2097  2.5080
  149SAPE   H2Y16463   0.881   4.742  10.390  2.4035 -0.6163 -1.6513
  149SAPE   C2316464   0.555   5.102  10.583 -0.2116  0.1547  0.2118
  149SAPE   H3R16465   0.646   5.155  10.618 -1.7169  2.8578  0.2556
  149SAPE   H3S16466   0.479   5.182  10.586 -1.9886 -1.4004 -1.0800
  149SAPE   C2416467   0.567   5.060  10.434  0.7679 -0.1063  0.1093
  149SAPE   H4R16468   0.653   4.990  10.426  0.8386  0.1291 -1.5175
  149SAPE   H4S16469   0.603   5.148  10.377  0.4048  1.4040  2.1037
  149SAPE   C2516470   0.445   4.983  10.387 -0.2413 -0.2063 -0.8544
  149SAPE   H5R16471   0.425   4.886  10.435 -1.0467  0.6376  0.6242
  149SAPE   C2616472   0.357   5.020  10.291 -0.4247 -1.1270  0.0333
  149SAPE   H6R16473   0.272   4.951  10.280 -1.6252  0.0058  1.7456
  149SAPE   C2716474   0.358   5.140  10.199  0.1078 -0.3380 -0.0006
  149SAPE   H7R16475   0.384   5.101  10.098 -0.2558 -0.9719  0.1486
  149SAPE   H7S16476   0.436   5.215  10.225 -1.5906  1.7138 -0.5361
  149SAPE   C2816477   0.221   5.195  10.186 -0.0275  0.3718  0.7632
  149SAPE   H8R16478   0.165   5.154  10.101  2.2565 -2.1868  0.3334
  149SAPE   C2916479   0.172   5.307  10.241  0.8573  1.1763 -0.3270
  149SAPE   H9R16480   0.069   5.332  10.215 -0.6484 -1.0564  2.8320
  149SAPE  C21016481   0.261   5.392  10.334  0.7643 -0.6865  0.6296
  149SAPE  H10R16482   0.357   5.408  10.280 -0.1097  1.5272 -0.3920
  149SAPE  H10S16483   0.284   5.333  10.425 -3.6160 -3.9300 -0.0284
  149SAPE  C21116484   0.195   5.526  10.363 -0.1072 -0.2584 -0.6357
  149SAPE  H11R16485   0.147   5.530  10.462  1.7288 -0.3867  0.3157
  149SAPE  C21216486   0.190   5.640  10.288  1.0424 -0.2581 -0.4925
  149SAPE  H12R16487   0.135   5.729  10.322  0.1922 -0.8888 -0.1807
  149SAPE  C21316488   0.252   5.659  10.157 -0.6900  0.0146  0.5058
  149SAPE  H13R16489   0.349   5.606  10.144  0.6267  2.8119 -2.6188
  149SAPE  H13S16490   0.287   5.764  10.152  1.4566 -0.6827 -0.3616
  149SAPE  C21416491   0.162   5.632  10.039 -0.1912 -0.2744 -0.1478
  149SAPE  H14R16492   0.076   5.701  10.036  1.3381  1.7828  0.7684
  149SAPE  C21516493   0.189   5.550   9.934  0.6040  1.1895 -0.0998
  149SAPE  H15R16494   0.110   5.530   9.859  1.2259  0.3592 -0.5433
  149SAPE  C21616495   0.314   5.463   9.927 -0.0019  0.2915 -0.1782
  149SAPE  H16R16496   0.293   5.366   9.878  0.9186 -0.0507  0.0685
  149SAPE  H16S16497   0.355   5.425  10.024 -0.1398 -2.6985 -1.2107
  149SAPE  C21716498   0.423   5.520   9.835  0.6505 -0.2686  0.3739
  149SAPE  H17R16499   0.510   5.453   9.851 -0.5820 -1.7784  0.9769
  149SAPE  H17S16500   0.454   5.621   9.869  1.1886 -0.6526  1.0376
  149SAPE  C21816501   0.392   5.507   9.689  0.5421 -0.5360  0.1023
  149SAPE  H18R16502   0.315   5.583   9.663 -0.2292 -1.1105  0.6718
  149SAPE  H18S16503   0.345   5.408   9.669  3.1273 -2.5049  2.7948
  149SAPE  C21916504   0.518   5.531   9.600  0.2193 -0.2100  0.3173
  149SAPE  H19R16505   0.580   5.439   9.598 -0.6228 -0.8123  1.1584
  149SAPE  H19S16506   0.568   5.616   9.652  0.8247 -0.3838  0.0248
  149SAPE  C22016507   0.490   5.573   9.459 -0.2471 -0.4183 -0.1882
  149SAPE  H20R16508   0.573   5.556   9.387  0.6064 -1.0046  0.9014
  149SAPE  H20S16509   0.451   5.677   9.459 -1.6561 -0.8972  1.1307
  149SAPE  H20T16510   0.405   5.506   9.432 -1.2585  0.8796 -0.3252
  149SAPE   C3316511   1.062   4.705  10.512 -1.0115  0.2352 -0.1798
  149SAPE   H3X16512   1.072   4.669  10.616 -1.1468 -0.3169 -0.3555
  149SAPE   H3Y16513   1.142   4.782  10.508 -0.3926 -0.3923  0.0041
  149SAPE   C3416514   1.077   4.597  10.408 -0.2891 -0.6520  1.2197
  149SAPE   H4X16515   0.985   4.535  10.406  0.0514 -1.2585 -2.0713
  149SAPE   H4Y16516   1.159   4.531  10.443  0.4743 -1.5052 -1.8719
  149SAPE   C3516517   1.127   4.629  10.266  0.5350  0.3078 -0.0004
  149SAPE   H5X16518   1.222   4.687  10.269 -0.3141  1.6948  1.7502
  149SAPE   H5Y16519   1.046   4.694  10.226  0.7075  1.4601  1.4217
  149SAPE   C3616520   1.135   4.503  10.174  0.1550 -0.1304 -0.3824
  149SAPE   H6X16521   1.043   4.443  10.194  0.3211 -0.5218 -0.7566
  149SAPE   H6Y16522   1.219   4.442  10.215 -1.4676 -1.1274  1.6328
  149SAPE   C3716523   1.145   4.539  10.024 -0.9516 -0.9228  0.1480
  149SAPE   H7X16524   1.218   4.621  10.007 -0.6757 -0.6855  2.2415
  149SAPE   H7Y16525   1.059   4.594   9.981  0.4838  0.8682 -0.5695
  149SAPE   C3816526   1.177   4.421   9.926 -0.7272 -0.1199  0.5542
  149SAPE   H8X16527   1.105   4.337   9.932  0.7075 -1.3655  1.1516
  149SAPE   H8Y16528   1.276   4.375   9.948 -1.2331 -2.5485 -1.8016
  149SAPE   C3916529   1.174   4.487   9.784  0.2175 -1.1449 -0.6312
  149SAPE   H9X16530   1.276   4.526   9.764 -0.5152  2.2450  1.5075
  149SAPE   H9Y16531   1.101   4.570   9.778  0.8094 -0.6862 -2.0539
  149SAPE  C31016532   1.140   4.390   9.679 -0.5499  0.0548  0.6573
  149SAPE  H10X16533   1.040   4.344   9.691 -0.0979 -1.4703 -1.0277
  149SAPE  H10Y16534   1.208   4.304   9.694  2.3018  1.5689 -2.3427
  149SAPE  C31116535   1.150   4.449   9.536 -0.6178 -0.5932  0.1799
  149SAPE  H11X16536   1.255   4.473   9.508 -0.7394  1.5301  1.3577
  149SAPE  H11Y16537   1.103   4.549   9.535  1.6234  0.5114 -1.4027
  149SAPE  C31216538   1.087   4.361   9.426  0.2514 -0.3721 -0.7907
  149SAPE  H12X16539   0.979   4.352   9.451  0.7228 -3.0031  0.7060
  149SAPE  H12Y16540   1.126   4.257   9.437 -2.2452 -1.5621 -2.1549
  149SAPE  C31316541   1.112   4.400   9.278  0.7311  0.1545  0.3017
  149SAPE  H13X16542   1.220   4.403   9.254  0.8790 -1.2117  0.7278
  149SAPE  H13Y16543   1.080   4.506   9.263  0.7225  0.1197  0.0820
  149SAPE  C31416544   1.053   4.294   9.178  0.7037 -0.0692 -0.4818
  149SAPE  H14X16545   1.116   4.204   9.193 -0.1837 -0.5956  0.2018
  149SAPE  H14Y16546   1.080   4.327   9.076 -0.4985  0.4434 -0.6480
  149SAPE  C31516547   0.901   4.275   9.195 -0.1052  0.4336  0.1604
  149SAPE  H15X16548   0.885   4.239   9.299  1.8177 -0.7941  0.0805
  149SAPE  H15Y16549   0.863   4.193   9.130  1.6596 -1.8324  1.7746
  149SAPE  C31616550   0.807   4.398   9.186 -0.4044 -0.3604 -0.1833
  149SAPE  H16X16551   0.862   4.480   9.237  2.3738 -0.7749 -2.2845
  149SAPE  H16Y16552   0.718   4.370   9.247  0.8648 -1.9793  1.0028
  149SAPE  C31716553   0.770   4.453   9.042 -0.4019  0.1623 -0.0838
  149SAPE  H17X16554   0.702   4.381   8.991  0.5875  0.1477 -1.4075
  149SAPE  H17Y16555   0.865   4.462   8.987  0.0966  0.3805  0.7877
  149SAPE  C31816556   0.701   4.591   9.057 -0.4069 -0.0204  0.8833
  149SAPE  H18X16557   0.747   4.672   9.118 -1.1544  0.7886  0.4105
  149SAPE  H18Y16558   0.598   4.580   9.097 -1.3519  1.6159 -0.9116
  149SAPE  H18Z16559   0.673   4.629   8.956 -0.8362 -1.0714  0.5982
  150SAPE     N16560   4.215   4.441  10.871 -0.1431 -0.2693  0.2482
  150SAPE   HN116561   4.144   4.443  10.947  1.1591  1.8259  1.5261
  150SAPE   HN216562   4.278   4.362  10.892 -0.7067 -0.6227  0.6394
  150SAPE   HN316563   4.274   4.527  10.878  0.0205 -0.4627  1.5710
  150SAPE   C1216564   4.146   4.429  10.736 -0.0651 -0.5315 -0.5608
  150SAPE  H12A16565   4.082   4.339  10.732 -2.7510  1.3022 -2.3678
  150SAPE  H12B16566   4.231   4.426  10.664 -0.4040 -0.0406 -0.9861
  150SAPE   C1116567   4.040   4.540  10.703 -0.1406 -0.0467  0.3052
  150SAPE  H11A16568   3.992   4.510  10.607 -0.1079  0.0990  0.2424
  150SAPE  H11B16569   4.079   4.642  10.684  0.0417 -0.3800 -1.2326
  150SAPE     P16570   3.939   4.652  10.910 -0.4229 -0.5133  0.1559
  150SAPE   O1316571   3.848   4.622  11.019 -0.0723  0.3442 -0.5513
  150SAPE   O1416572   4.079   4.687  10.953  0.5461 -0.4167 -0.1125
  150SAPE   O1216573   3.937   4.534  10.798  0.3351 -1.2423 -0.6645
  150SAPE   O1116574   3.882   4.774  10.826  0.2507  0.0889  0.3797
  150SAPE    C116575   3.757   4.771  10.752  0.2584 -0.2175 -0.6019
  150SAPE    HA16576   3.691   4.686  10.781  0.3421 -0.4184 -0.9885
  150SAPE    HB16577   3.706   4.868  10.768  3.0150  1.1083  0.9776
  150SAPE    C216578   3.791   4.770  10.600  0.4686  0.0918  0.3810
  150SAPE    HS16579   3.823   4.669  10.567  0.2179 -0.1733  0.9300
  150SAPE   O2116580   3.880   4.877  10.579  0.6175  0.2979  0.7010
  150SAPE   C2116581   3.955   4.870  10.476 -0.6274 -0.2068 -0.3886
  150SAPE   O2216582   3.970   4.769  10.411 -0.1901 -0.4403 -0.3581
  150SAPE   C2216583   4.031   5.003  10.462 -0.6219 -0.2657  0.6201
  150SAPE   H2R16584   4.001   5.069  10.546  0.4889 -0.0024  0.8218
  150SAPE   H2S16585   4.136   4.972  10.481 -1.2081 -1.3719  2.2432
  150SAPE    C316586   3.651   4.794  10.527  0.2173  0.2817  0.0586
  150SAPE    HX16587   3.600   4.877  10.580 -3.1395 -1.3827 -0.3077
  150SAPE    HY16588   3.594   4.702  10.549  0.1749 -0.0852 -1.4713
  150SAPE   O3116589   3.660   4.820  10.389 -0.4596 -0.4754  0.0440
  150SAPE   C3116590   3.666   4.713  10.310  0.0015  0.0857  0.2268
  150SAPE   O3216591   3.689   4.599  10.353 -0.4632  0.0490 -0.3509
  150SAPE   C3216592   3.688   4.761  10.169 -0.9685  0.2818 -0.2418
  150SAPE   H2X16593   3.782   4.819  10.174 -2.0512  1.9884  1.8856
  150SAPE   H2Y16594   3.605   4.829  10.140 -0.1355  1.2507 -0.4212
  150SAPE   C2316595   4.017   5.055  10.322  0.4433 -0.4836  0.5803
  150SAPE   H3R16596   3.911   5.087  10.316  0.5258 -0.0293  1.4113
  150SAPE   H3S16597   4.035   4.975  10.247 -0.7305 -0.7825  0.6010
  150SAPE   C2416598   4.121   5.168  10.293  0.6193  0.8015  0.2653
  150SAPE   H4R16599   4.106   5.202  10.188 -0.8145  0.4581  0.3301
  150SAPE   H4S16600   4.225   5.130  10.288  1.0514  1.6862  2.0520
  150SAPE   C2516601   4.123   5.286  10.388  0.1888  0.0989  0.0267
  150SAPE   H5R16602   4.026   5.322  10.426 -0.4968 -1.2408 -0.3857
  150SAPE   C2616603   4.230   5.362  10.429  0.3003  0.2310 -0.6186
  150SAPE   H6R16604   4.195   5.441  10.496 -3.1425 -0.2470 -1.6886
  150SAPE   C2716605   4.375   5.351  10.387 -0.4857 -0.4294  0.2749
  150SAPE   H7R16606   4.410   5.252  10.352  2.0167  0.4872 -0.0664
  150SAPE   H7S16607   4.444   5.369  10.473 -0.1180 -0.6278  0.0250
  150SAPE   C2816608   4.410   5.451  10.275  0.1096  0.2502  0.7101
  150SAPE   H8R16609   4.395   5.557  10.300 -0.3130  0.7683 -1.5416
  150SAPE   C2916610   4.457   5.413  10.152  0.3087 -0.5753  0.6272
  150SAPE   H9R16611   4.479   5.493  10.080  1.0094 -1.4983 -0.2030
  150SAPE  C21016612   4.482   5.277  10.102  0.2879  0.6198  0.1670
  150SAPE  H10R16613   4.470   5.271   9.992 -1.6398 -0.0742  0.3809
  150SAPE  H10S16614   4.427   5.192  10.146  1.8230 -0.0265  0.9111
  150SAPE  C21116615   4.627   5.235  10.121  0.7468 -0.3453 -0.4831
  150SAPE  H11R16616   4.678   5.255  10.216  1.1254  0.2716 -0.8054
  150SAPE  C21216617   4.699   5.173  10.022  0.1489 -0.2876 -0.4517
  150SAPE  H12R16618   4.806   5.153  10.041 -0.0882 -0.2937  0.9680
  150SAPE  C21316619   4.657   5.131   9.883 -0.5712 -0.0908  0.2588
  150SAPE  H13R16620   4.643   5.221   9.819  1.6309  0.3454  0.2972
  150SAPE  H13S16621   4.559   5.079   9.889  0.4575 -2.1020  0.4979
  150SAPE  C21416622   4.755   5.041   9.814  0.0947  0.2901 -0.0834
  150SAPE  H14R16623   4.826   5.087   9.745 -1.1983  1.5323 -0.6328
  150SAPE  C21516624   4.763   4.906   9.835  0.9508 -0.3264  0.7786
  150SAPE  H15R16625   4.830   4.848   9.770  0.1088  1.5987 -1.9960
  150SAPE  C21616626   4.681   4.825   9.927  1.1723  0.0083  0.0563
  150SAPE  H16R16627   4.586   4.788   9.882  0.7478 -0.7013  1.4703
  150SAPE  H16S16628   4.652   4.873  10.023  1.7547 -2.4868  1.5736
  150SAPE  C21716629   4.755   4.698   9.968  0.5131 -0.4995  0.8611
  150SAPE  H17R16630   4.843   4.734  10.025  0.6647  0.0128  0.3145
  150SAPE  H17S16631   4.777   4.634   9.880  0.1451 -1.7407  1.6436
  150SAPE  C21816632   4.693   4.609  10.079  0.0423  0.0237 -0.9903
  150SAPE  H18R16633   4.680   4.658  10.178 -0.3297  0.2184 -1.1342
  150SAPE  H18S16634   4.763   4.525  10.099 -0.4935 -0.3936 -0.8279
  150SAPE  C21916635   4.552   4.552  10.047 -0.1305 -0.0520  0.1387
  150SAPE  H19R16636   4.557   4.506   9.946  2.6292 -2.0326  1.0596
  150SAPE  H19S16637   4.470   4.627  10.052 -1.4887 -1.3082 -2.0513
  150SAPE  C22016638   4.510   4.437  10.143 -0.0082 -0.0607 -0.2507
  150SAPE  H20R16639   4.444   4.359  10.100  1.8618 -0.5535 -2.4628
  150SAPE  H20S16640   4.454   4.479  10.229 -1.3792  0.9086 -1.5657
  150SAPE  H20T16641   4.598   4.390  10.192 -0.6807 -1.3465 -0.2464
  150SAPE   C3316642   3.702   4.641  10.076 -0.2956 -0.9108  0.0387
  150SAPE   H3X16643   3.625   4.561  10.087  1.7218 -2.9776 -0.2084
  150SAPE   H3Y16644   3.799   4.588  10.066 -1.6690 -3.3531 -1.2873
  150SAPE   C3416645   3.665   4.677   9.930  0.0173 -0.1734  0.1097
  150SAPE   H4X16646   3.705   4.775   9.896  1.0719  0.0042  1.7295
  150SAPE   H4Y16647   3.554   4.670   9.925  0.0754 -0.1351 -1.6124
  150SAPE   C3516648   3.719   4.572   9.828 -0.1336 -0.3576  0.5289
  150SAPE   H5X16649   3.656   4.483   9.845  0.8091 -0.8479  1.6176
  150SAPE   H5Y16650   3.827   4.548   9.842 -0.1214 -0.6097  0.0059
  150SAPE   C3616651   3.706   4.616   9.679  0.0126  0.2463 -0.1756
  150SAPE   H6X16652   3.723   4.536   9.603 -2.5758  1.9227 -2.7227
  150SAPE   H6Y16653   3.785   4.690   9.655  1.6557 -1.3694  0.0597
  150SAPE   C3716654   3.568   4.673   9.645 -0.3575  0.1167 -0.3605
  150SAPE   H7X16655   3.540   4.758   9.712  2.6979  0.1539  1.0501
  150SAPE   H7Y16656   3.487   4.599   9.660 -0.4481  0.5128  1.3405
  150SAPE   C3816657   3.584   4.731   9.502 -0.0572 -0.1820 -0.1383
  150SAPE   H8X16658   3.607   4.640   9.443 -0.4925 -0.7800  0.5921
  150SAPE   H8Y16659   3.678   4.790   9.497  0.0173 -0.1849  1.0100
  150SAPE   C3916660   3.466   4.811   9.452  0.0481  0.3258 -0.3477
  150SAPE   H9X16661   3.458   4.904   9.512 -2.5017  1.8226 -2.7368
  150SAPE   H9Y16662   3.367   4.759   9.458  0.2913 -0.1572 -0.4682
  150SAPE  C31016663   3.476   4.860   9.308 -0.0593  0.7719  0.8492
  150SAPE  H10X16664   3.570   4.917   9.290  1.2169 -1.5296 -0.2596
  150SAPE  H10Y16665   3.394   4.933   9.288  0.8211  1.9308  1.3211
  150SAPE  C31116666   3.459   4.744   9.211  0.2087  0.3762 -0.7796
  150SAPE  H11X16667   3.369   4.684   9.236  0.1942  0.1816 -1.2913
  150SAPE  H11Y16668   3.545   4.676   9.192 -1.1676 -2.1617  1.2743
  150SAPE  C31216669   3.430   4.801   9.072 -0.9410 -0.1964  1.1383
  150SAPE  H12X16670   3.519   4.858   9.040 -1.7874  0.7367  0.3764
  150SAPE  H12Y16671   3.344   4.871   9.064  0.5533  1.4860 -1.2605
  150SAPE  C31316672   3.420   4.691   8.963 -0.2936  0.0792 -0.1517
  150SAPE  H13X16673   3.328   4.701   8.900  0.2174 -0.0285 -0.9351
  150SAPE  H13Y16674   3.411   4.594   9.017  1.6413  0.2127  0.4829
  150SAPE  C31416675   3.537   4.654   8.874 -0.1020 -0.1992  0.1161
  150SAPE  H14X16676   3.508   4.563   8.817 -0.2451  0.3639 -0.7365
  150SAPE  H14Y16677   3.634   4.645   8.928  0.1295  0.0150 -0.2535
  150SAPE  C31516678   3.555   4.761   8.764 -0.2969 -0.4209 -0.2181
  150SAPE  H15X16679   3.662   4.761   8.733 -0.9331  0.3344 -2.6505
  150SAPE  H15Y16680   3.543   4.866   8.800  1.6109 -0.5332  0.9419
  150SAPE  C31616681   3.470   4.742   8.627  0.3985  0.0037  0.1321
  150SAPE  H16X16682   3.363   4.755   8.651  0.5709 -0.8260  1.4349
  150SAPE  H16Y16683   3.468   4.634   8.601  0.2099  0.0382  0.0071
  150SAPE  C31716684   3.515   4.832   8.511 -0.3396  0.3909  0.3028
  150SAPE  H17X16685   3.623   4.809   8.498 -0.4299 -0.7426  1.3543
  150SAPE  H17Y16686   3.515   4.939   8.539  0.6231  0.0455  1.7489
  150SAPE  C31816687   3.434   4.809   8.386 -0.1177 -0.4579 -0.3330
  150SAPE  H18X16688   3.419   4.701   8.366 -0.7662 -0.3484 -0.4422
  150SAPE  H18Y16689   3.462   4.853   8.288 -2.8799  0.6114 -0.7404
  150SAPE  H18Z16690   3.332   4.847   8.407 -0.1367  0.1073 -1.3809
  151SAPE     N16691   0.424   6.071  10.758  0.5567  0.2933 -0.2037
  151SAPE   HN116692   0.411   5.972  10.730 -1.0346  0.5106 -0.2964
  151SAPE   HN216693   0.491   6.086  10.836  0.9777 -1.0104 -0.2995
  151SAPE   HN316694   0.332   6.105  10.793  1.6813  1.2452  2.0587
  151SAPE   C1216695   0.442   6.162  10.651 -0.2277  0.1609  0.6845
  151SAPE  H12A16696   0.525   6.124  10.587 -1.0474  0.2323 -0.4599
  151SAPE  H12B16697   0.479   6.264  10.676  0.2313 -0.0957  1.0783
  151SAPE   C1116698   0.313   6.185  10.569 -0.1906  0.2403 -1.0347
  151SAPE  H11A16699   0.309   6.093  10.506 -2.2183  0.8034 -1.8187
  151SAPE  H11B16700   0.324   6.275  10.504  0.2093  1.4279  0.6174
  151SAPE     P16701   0.044   6.188  10.623 -0.0531  0.0483  0.2656
  151SAPE   O1316702  -0.009   6.076  10.700  0.0747  0.1070  0.4069
  151SAPE   O1416703  -0.013   6.319  10.653 -0.2487 -0.4274  0.3610
  151SAPE   O1216704   0.200   6.201  10.660 -0.4322  0.4577 -0.2631
  151SAPE   O1116705   0.047   6.156  10.468 -0.0305 -0.2840 -0.2158
  151SAPE    C116706   0.017   6.266  10.376 -0.1418  0.1421  0.6573
  151SAPE    HA16707   0.037   6.368  10.415 -0.9214  1.5371 -2.2672
  151SAPE    HB16708   0.083   6.256  10.287  1.2873 -0.3460  1.7267
  151SAPE    C216709  -0.128   6.248  10.323 -0.1092 -0.8605 -0.8814
  151SAPE    HS16710  -0.202   6.253  10.406  0.4363 -0.4580 -0.4095
  151SAPE   O2116711  -0.134   6.132  10.246 -0.0769 -0.2941 -0.2732
  151SAPE   C2116712  -0.172   6.015  10.309 -0.3926 -0.5186 -0.2717
  151SAPE   O2216713  -0.218   6.007  10.420  0.0756 -0.0550  0.1849
  151SAPE   C2216714  -0.144   5.894  10.223 -0.2566 -0.4223  0.2078
  151SAPE   H2R16715  -0.059   5.930  10.162 -1.8183  1.8828 -0.7297
  151SAPE   H2S16716  -0.107   5.825  10.302  0.8905  0.3953  0.4006
  151SAPE    C316717  -0.160   6.377  10.242  0.0110  0.0477 -0.2671
  151SAPE    HX16718  -0.266   6.365  10.208  0.4124 -0.5082 -1.3871
  151SAPE    HY16719  -0.103   6.380  10.147  0.3059  0.5947 -0.0752
  151SAPE   O3116720  -0.123   6.501  10.306  0.1234  0.3261 -0.3474
  151SAPE   C3116721  -0.220   6.541  10.401  0.3587 -0.1231  0.8953
  151SAPE   O3216722  -0.322   6.483  10.431 -0.0965  0.4779  0.0336
  151SAPE   C3216723  -0.169   6.666  10.473  0.7567 -0.8431  0.5657
  151SAPE   H2X16724  -0.104   6.727  10.407 -2.1955  1.5248 -0.3536
  151SAPE   H2Y16725  -0.091   6.623  10.539  1.4666  0.9781  0.9726
  151SAPE   C2316726  -0.257   5.837  10.135  0.1559 -0.2102  0.9559
  151SAPE   H3R16727  -0.314   5.921  10.089  0.1321 -1.0491 -0.6197
  151SAPE   H3S16728  -0.331   5.779  10.195  0.1841 -0.2215  0.9789
  151SAPE   C2416729  -0.197   5.758  10.016  0.0284  0.5275  0.1936
  151SAPE   H4R16730  -0.143   5.675  10.066  0.0924  0.4257 -0.0408
  151SAPE   H4S16731  -0.113   5.814   9.969  0.8715  0.5118  1.6063
  151SAPE   C2516732  -0.298   5.707   9.915 -0.7296  1.0991 -0.5694
  151SAPE   H5R16733  -0.374   5.635   9.951  0.2738 -0.3025 -1.1712
  151SAPE   C2616734  -0.301   5.730   9.783  0.2121 -0.0782 -0.7401
  151SAPE   H6R16735  -0.380   5.675   9.729 -2.8806 -1.0673  4.1103
  151SAPE   C2716736  -0.199   5.799   9.698 -0.0001  0.4256  0.5993
  151SAPE   H7R16737  -0.126   5.719   9.670 -0.1297  0.4191  0.2739
  151SAPE   H7S16738  -0.137   5.881   9.741  0.0773  0.3645  0.6046
  151SAPE   C2816739  -0.267   5.860   9.580 -0.6217 -0.4797  0.0794
  151SAPE   H8R16740  -0.330   5.947   9.601  0.2460  0.8256 -2.3238
  151SAPE   C2916741  -0.264   5.811   9.457 -0.1329  0.0689 -0.4649
  151SAPE   H9R16742  -0.322   5.877   9.390  0.0894  0.5761 -0.1680
  151SAPE  C21016743  -0.198   5.694   9.395  0.1095  0.0488  1.3147
  151SAPE  H10R16744  -0.248   5.692   9.296  0.6128  0.2927  1.0492
  151SAPE  H10S16745  -0.246   5.605   9.439 -1.5741 -0.3330 -1.1146
  151SAPE  C21116746  -0.050   5.672   9.385 -0.9269 -0.1103  0.4320
  151SAPE  H11R16747   0.001   5.695   9.479 -0.4364  2.8382 -0.4173
  151SAPE  C21216748   0.018   5.615   9.289  0.2140  1.0366  0.3644
  151SAPE  H12R16749   0.126   5.599   9.308 -0.1604  0.6508  2.4343
  151SAPE  C21316750  -0.044   5.553   9.164  0.0201 -0.1156  0.2502
  151SAPE  H13R16751  -0.080   5.633   9.096 -0.4949 -0.9917 -0.5309
  151SAPE  H13S16752  -0.133   5.496   9.196  1.2578 -1.4305  1.4805
  151SAPE  C21416753   0.050   5.467   9.075 -0.1751  0.2844 -0.2234
  151SAPE  H14R16754   0.119   5.527   9.015 -1.8856 -0.3342 -2.9738
  151SAPE  C21516755   0.041   5.329   9.058  0.0717 -0.4606 -0.2599
  151SAPE  H15R16756   0.120   5.286   8.995  0.3662  0.5119 -0.5793
  151SAPE  C21616757  -0.056   5.234   9.127 -0.0195 -0.5796  0.2035
  151SAPE  H16R16758  -0.098   5.272   9.223  0.7815 -0.5505  0.5484
  151SAPE  H16S16759   0.008   5.152   9.166 -1.7339 -2.8690 -1.5191
  151SAPE  C21716760  -0.159   5.169   9.042 -0.0117 -0.2824  0.0523
  151SAPE  H17R16761  -0.121   5.134   8.943 -1.1945 -0.1503 -0.4666
  151SAPE  H17S16762  -0.224   5.251   9.004  0.1429  0.7333  1.8729
  151SAPE  C21816763  -0.242   5.055   9.111  0.4063 -0.4417  0.2017
  151SAPE  H18R16764  -0.276   5.084   9.213  1.3580 -0.6565  0.5946
  151SAPE  H18S16765  -0.178   4.965   9.109  3.2813  1.4360  1.0008
  151SAPE  C21916766  -0.367   5.012   9.022  0.7733  0.0146  0.4553
  151SAPE  H19R16767  -0.444   4.955   9.079 -0.1712  1.6885  0.9163
  151SAPE  H19S16768  -0.342   4.943   8.938 -2.2011 -0.0210 -0.5251
  151SAPE  C22016769  -0.450   5.129   8.972 -0.4750  0.0019 -0.2044
  151SAPE  H20R16770  -0.470   5.180   9.068 -1.8181 -1.9142  0.6030
  151SAPE  H20S16771  -0.553   5.104   8.940  0.0711 -0.1466 -1.9460
  151SAPE  H20T16772  -0.403   5.186   8.889 -0.0078 -0.6021 -0.3680
  151SAPE   C3316773  -0.279   6.738  10.560  0.7819 -0.2007  0.7644
  151SAPE   H3X16774  -0.312   6.679  10.649 -3.2213  0.1347 -0.2910
  151SAPE   H3Y16775  -0.366   6.765  10.496  1.4872 -0.0487 -0.1516
  151SAPE   C3416776  -0.220   6.869  10.627  0.1173  0.0390  0.0297
  151SAPE   H4X16777  -0.146   6.836  10.703  0.4604  0.7830  0.0217
  151SAPE   H4Y16778  -0.298   6.922  10.687  1.8358  0.7997  1.6911
  151SAPE   C3516779  -0.149   6.969  10.530  0.0140 -0.3350  0.5884
  151SAPE   H5X16780  -0.051   6.922  10.504  0.4061  0.7994 -0.0493
  151SAPE   H5Y16781  -0.139   7.063  10.590 -2.0399 -0.0990  0.6063
  151SAPE   C3616782  -0.235   6.998  10.403  0.3229 -0.6913  0.4138
  151SAPE   H6X16783  -0.325   7.059  10.424  2.0415  1.6290  1.3897
  151SAPE   H6Y16784  -0.260   6.904  10.350  0.7677  0.0465 -1.1482
  151SAPE   C3716785  -0.165   7.082  10.296 -0.2720  0.3089 -0.0650
  151SAPE   H7X16786  -0.062   7.047  10.276 -0.2570 -0.3131  1.0241
  151SAPE   H7Y16787  -0.155   7.183  10.342  0.8669 -1.1028  3.1196
  151SAPE   C3816788  -0.235   7.097  10.169  0.4759  0.4061  0.1065
  151SAPE   H8X16789  -0.177   7.168  10.106  1.0398  1.2296  1.5311
  151SAPE   H8Y16790  -0.333   7.147  10.176  0.9530  1.2803  0.7247
  151SAPE   C3916791  -0.234   6.965  10.091  0.1518 -0.0077 -0.2273
  151SAPE   H9X16792  -0.294   6.890  10.147 -0.8695 -1.4983 -3.0613
  151SAPE   H9Y16793  -0.133   6.922  10.076  1.2866  2.2357  0.5594
  151SAPE  C31016794  -0.300   6.985   9.949 -0.8684  0.1803  0.3027
  151SAPE  H10X16795  -0.205   7.021   9.903 -0.8249 -0.4892 -0.1573
  151SAPE  H10Y16796  -0.371   7.071   9.948 -1.1118  0.0303 -2.1119
  151SAPE  C31116797  -0.339   6.867   9.872  0.7722  0.3886  0.3836
  151SAPE  H11X16798  -0.428   6.821   9.919 -1.5536 -0.2117 -4.0428
  151SAPE  H11Y16799  -0.275   6.776   9.863 -1.6690 -1.5422  1.4974
  151SAPE  C31216800  -0.374   6.915   9.733  0.2158  0.4204  0.2688
  151SAPE  H12X16801  -0.282   6.941   9.676 -0.0599 -2.2368 -1.5899
  151SAPE  H12Y16802  -0.435   7.008   9.740  0.0484  0.2863  0.6130
  151SAPE  C31316803  -0.447   6.814   9.645  0.1425  0.2066 -0.1191
  151SAPE  H13X16804  -0.543   6.777   9.687  0.3410 -0.3648 -0.1509
  151SAPE  H13Y16805  -0.386   6.721   9.644  1.3280  0.9596 -1.3172
  151SAPE  C31416806  -0.458   6.860   9.501  0.0574  0.5157  0.0703
  151SAPE  H14X16807  -0.355   6.883   9.469  1.1044 -2.6338  0.8438
  151SAPE  H14Y16808  -0.524   6.947   9.481  0.8165  1.0709 -0.0460
  151SAPE  C31516809  -0.490   6.743   9.408  0.5508 -0.0744 -0.0594
  151SAPE  H15X16810  -0.590   6.699   9.431  1.3313 -2.9374 -1.5736
  151SAPE  H15Y16811  -0.424   6.654   9.415 -0.5675 -0.8382  1.4190
  151SAPE  C31616812  -0.485   6.789   9.256 -0.3268  0.0472 -0.0006
  151SAPE  H16X16813  -0.395   6.748   9.205 -1.4793 -2.3374 -0.2735
  151SAPE  H16Y16814  -0.487   6.900   9.252 -2.4015  0.0615  0.3503
  151SAPE  C31716815  -0.606   6.759   9.164  0.1020  0.0431 -0.2930
  151SAPE  H17X16816  -0.661   6.855   9.150  0.3867  0.5386  1.6355
  151SAPE  H17Y16817  -0.674   6.682   9.208  1.5466 -1.0082  0.1638
  151SAPE  C31816818  -0.573   6.712   9.022 -0.6849  0.6853  1.1709
  151SAPE  H18X16819  -0.664   6.729   8.962 -0.0756 -0.1400 -0.0239
  151SAPE  H18Y16820  -0.541   6.606   9.012  0.7428  1.1849  0.2205
  151SAPE  H18Z16821  -0.493   6.767   8.967 -0.4795 -0.7864 -0.0647
  152SAPE     N16822   0.922   6.701  10.894  0.3629  0.5211  0.2387
  152SAPE   HN116823   0.941   6.609  10.939 -0.6395  0.6452  0.9400
  152SAPE   HN216824   1.008   6.747  10.857 -0.1521  2.2751  1.0833
  152SAPE   HN316825   0.901   6.775  10.965 -0.6889 -2.2141  3.0199
  152SAPE   C1216826   0.824   6.688  10.782  0.4676  0.5510  0.1968
  152SAPE  H12A16827   0.734   6.635  10.819  0.7616 -0.2514 -0.2153
  152SAPE  H12B16828   0.871   6.628  10.701 -2.2803 -0.9130 -0.4664
  152SAPE   C1116829   0.775   6.824  10.725 -0.0947  0.2514 -0.1060
  152SAPE  H11A16830   0.728   6.813  10.626  2.0044  0.4467 -1.1743
  152SAPE  H11B16831   0.874   6.871  10.707 -0.1762  0.1476 -0.8377
  152SAPE     P16832   0.717   7.055  10.846  0.4806 -0.2948 -0.2338
  152SAPE   O1316833   0.625   7.107  10.949 -0.0109  0.2672  0.7377
  152SAPE   O1416834   0.864   7.066  10.880 -0.1215  0.2635  0.2227
  152SAPE   O1216835   0.694   6.900  10.819  0.3776  0.4481 -0.7662
  152SAPE   O1116836   0.699   7.131  10.711  0.0120 -0.3933  0.3327
  152SAPE    C116837   0.588   7.183  10.654  0.7744  0.2239  0.3300
  152SAPE    HA16838   0.503   7.200  10.724  1.4524  0.7701  1.0392
  152SAPE    HB16839   0.614   7.286  10.622  0.6875  0.8729  2.1925
  152SAPE    C216840   0.556   7.097  10.531 -0.0112  0.0491  0.1811
  152SAPE    HS16841   0.470   7.147  10.482  0.5256  0.7486 -0.0642
  152SAPE   O2116842   0.535   6.953  10.563  0.3254 -0.3500 -0.2425
  152SAPE   C2116843   0.406   6.936  10.585  0.3952  0.0917 -0.0184
  152SAPE   O2216844   0.319   7.012  10.614  0.0429  0.1889  0.3203
  152SAPE   C2216845   0.395   6.779  10.577  0.5380 -0.0427 -0.5960
  152SAPE   H2R16846   0.460   6.728  10.504 -1.7039 -1.0798 -1.9848
  152SAPE   H2S16847   0.441   6.746  10.672 -1.2690 -0.1178  0.3004
  152SAPE    C316848   0.674   7.096  10.427  0.7400 -0.5030  0.2495
  152SAPE    HX16849   0.754   7.024  10.455  0.6074 -1.2147 -1.1253
  152SAPE    HY16850   0.708   7.201  10.436 -2.3231  0.5060  1.4220
  152SAPE   O3116851   0.633   7.064  10.292  0.0647 -0.7537 -0.4192
  152SAPE   C3116852   0.662   6.944  10.240 -0.2277  0.3436  0.2414
  152SAPE   O3216853   0.716   6.850  10.298 -0.4151  0.6558 -0.3566
  152SAPE   C3216854   0.612   6.936  10.098 -0.5611 -0.3987 -0.7146
  152SAPE   H2X16855   0.541   7.015  10.064  1.0072  1.0740 -0.7225
  152SAPE   H2Y16856   0.548   6.846  10.097 -1.0613 -0.0996  1.1102
  152SAPE   C2316857   0.249   6.712  10.568  0.0198 -0.7605 -0.0298
  152SAPE   H3R16858   0.174   6.760  10.634  0.0232  0.3446 -0.8092
  152SAPE   H3S16859   0.261   6.611  10.613  0.3698 -1.8205 -2.3418
  152SAPE   C2416860   0.207   6.685  10.421  0.1016  0.1819  0.0284
  152SAPE   H4R16861   0.138   6.598  10.421 -0.7451  0.7789 -2.2229
  152SAPE   H4S16862   0.302   6.648  10.376 -0.5129 -0.3112 -0.9202
  152SAPE   C2516863   0.159   6.807  10.346  0.1683  0.3488  0.0220
  152SAPE   H5R16864   0.107   6.891  10.395 -2.8089 -1.7101  0.6809
  152SAPE   C2616865   0.165   6.806  10.210 -0.1360  0.8229  0.3613
  152SAPE   H6R16866   0.134   6.896  10.154  0.9784 -0.6063 -2.8261
  152SAPE   C2716867   0.232   6.705  10.126  0.0252  0.3293 -0.9376
  152SAPE   H7R16868   0.181   6.607  10.136 -0.5075  0.4735 -2.0886
  152SAPE   H7S16869   0.334   6.698  10.168 -0.8593  0.4797  1.3737
  152SAPE   C2816870   0.257   6.747   9.986  0.0617  0.5772  0.2794
  152SAPE   H8R16871   0.273   6.854   9.966 -0.5925  0.1413 -3.1272
  152SAPE   C2916872   0.272   6.661   9.882 -0.0557 -0.5591  0.2443
  152SAPE   H9R16873   0.292   6.702   9.782  1.5547 -2.9880 -0.5122
  152SAPE  C21016874   0.246   6.513   9.874 -0.4716 -0.0561 -0.5651
  152SAPE  H10R16875   0.145   6.497   9.828 -1.3006  1.0205  0.7999
  152SAPE  H10S16876   0.255   6.469   9.975  2.4287 -0.5441 -0.9625
  152SAPE  C21116877   0.347   6.428   9.800  0.8449 -0.2131  0.1936
  152SAPE  H11R16878   0.419   6.379   9.867 -0.8086 -0.8368  1.5851
  152SAPE  C21216879   0.366   6.418   9.667 -0.3171 -0.1900  0.0616
  152SAPE  H12R16880   0.451   6.352   9.643 -1.0047 -0.6582 -1.1577
  152SAPE  C21316881   0.289   6.493   9.560 -0.8323  0.1582 -0.2782
  152SAPE  H13R16882   0.216   6.565   9.602 -0.9987 -0.7112  0.9696
  152SAPE  H13S16883   0.223   6.426   9.501  0.1556 -1.3059  0.2299
  152SAPE  C21416884   0.396   6.554   9.461  0.2947 -0.0210  0.0956
  152SAPE  H14R16885   0.477   6.614   9.505 -1.2736  2.4170 -0.1407
  152SAPE  C21516886   0.387   6.563   9.326  0.1662 -0.0417  0.6831
  152SAPE  H15R16887   0.472   6.605   9.270  1.2790 -2.7329  0.1947
  152SAPE  C21616888   0.274   6.514   9.237 -0.6429  0.5853 -0.0724
  152SAPE  H16R16889   0.252   6.599   9.170  0.6317  0.4548 -0.6655
  152SAPE  H16S16890   0.190   6.480   9.303  2.5333 -0.4464  3.8225
  152SAPE  C21716891   0.322   6.384   9.160  0.3286 -0.2938 -0.0347
  152SAPE  H17R16892   0.227   6.329   9.142 -0.9153  0.9170  2.3494
  152SAPE  H17S16893   0.390   6.315   9.215  0.2638 -0.9641 -0.7765
  152SAPE  C21816894   0.376   6.402   9.014  0.4962 -0.2522  0.2761
  152SAPE  H18R16895   0.471   6.459   9.016  0.1089  0.3865  1.0621
  152SAPE  H18S16896   0.307   6.464   8.953 -1.1470 -2.9847 -0.8114
  152SAPE  C21916897   0.410   6.267   8.946 -0.6576 -0.2355  0.4737
  152SAPE  H19R16898   0.315   6.212   8.928 -0.4005 -0.3271 -0.7255
  152SAPE  H19S16899   0.474   6.210   9.017 -2.0965  0.1922  2.1561
  152SAPE  C22016900   0.498   6.285   8.817  0.1687 -0.6258  0.2794
  152SAPE  H20R16901   0.431   6.330   8.741 -1.8127 -0.3305  2.1302
  152SAPE  H20S16902   0.526   6.185   8.777  1.5017  0.0922 -0.6740
  152SAPE  H20T16903   0.584   6.355   8.830  1.0452 -1.2054 -1.9320
  152SAPE   C3316904   0.728   6.910  10.002 -0.0438 -0.2075  0.4634
  152SAPE   H3X16905   0.799   6.834  10.041  1.3451  0.3680 -0.8302
  152SAPE   H3Y16906   0.789   7.002   9.990  0.2443 -0.2312  1.5966
  152SAPE   C3416907   0.675   6.863   9.864  0.3234 -0.1557 -0.8158
  152SAPE   H4X16908   0.611   6.949   9.834  1.3612  0.3146 -1.7823
  152SAPE   H4Y16909   0.619   6.770   9.883  0.5814  0.4433  4.2435
  152SAPE   C3516910   0.781   6.842   9.753  0.2378 -0.9377 -0.4051
  152SAPE   H5X16911   0.829   6.749   9.790  0.8119 -0.9155 -1.0676
  152SAPE   H5Y16912   0.848   6.931   9.754  1.1685 -1.4809 -3.5899
  152SAPE   C3616913   0.722   6.836   9.617  0.2187  0.2633 -0.4619
  152SAPE   H6X16914   0.635   6.905   9.610  0.6221  0.7949 -0.2471
  152SAPE   H6Y16915   0.679   6.734   9.607 -2.6710  1.1389  1.4623
  152SAPE   C3716916   0.823   6.867   9.505  0.6081  0.0927  1.1034
  152SAPE   H7X16917   0.907   6.795   9.493  1.9444  1.6577  0.6556
  152SAPE   H7Y16918   0.861   6.969   9.528  2.0002  0.3479 -1.8741
  152SAPE   C3816919   0.748   6.890   9.368 -0.4914  0.1815  0.3129
  152SAPE   H8X16920   0.665   6.961   9.390  0.5368  1.3834  0.4155
  152SAPE   H8Y16921   0.706   6.790   9.342  1.0749 -1.2372  2.8420
  152SAPE   C3916922   0.846   6.919   9.251 -0.3388  0.1561  0.1929
  152SAPE   H9X16923   0.916   6.833   9.237 -2.9364 -1.7618 -2.1400
  152SAPE   H9Y16924   0.899   7.011   9.284  1.7938 -1.6457  2.1468
  152SAPE  C31016925   0.773   6.939   9.113  0.1408  0.1432  0.3882
  152SAPE  H10X16926   0.720   7.037   9.113  1.2193  0.7863  1.9789
  152SAPE  H10Y16927   0.696   6.864   9.090  0.9409 -0.5204 -0.1857
  152SAPE  C31116928   0.873   6.939   9.000  0.5162  0.3934  0.3620
  152SAPE  H11X16929   0.894   6.833   8.974 -2.4474  0.0305 -0.9772
  152SAPE  H11Y16930   0.971   6.987   9.020  1.2326 -0.4106 -1.0778
  152SAPE  C31216931   0.817   7.004   8.880 -0.1993 -0.0843  0.7240
  152SAPE  H12X16932   0.828   7.115   8.880  1.2178 -0.1514 -1.6270
  152SAPE  H12Y16933   0.711   6.980   8.858 -0.0269 -0.2480  0.0460
  152SAPE  C31316934   0.900   6.958   8.757  0.4407 -0.1946  0.5144
  152SAPE  H13X16935   0.862   6.861   8.719  2.1647 -0.4401 -0.7067
  152SAPE  H13Y16936   1.009   6.965   8.779  0.4946  1.4538 -0.1500
  152SAPE  C31416937   0.872   7.061   8.644  0.2466 -0.3254 -0.0304
  152SAPE  H14X16938   0.920   7.159   8.661 -0.5828  0.5945 -2.5416
  152SAPE  H14Y16939   0.763   7.079   8.645  0.2225 -0.3968 -0.6502
  152SAPE  C31516940   0.925   7.020   8.507  0.7127 -0.0419  0.7594
  152SAPE  H15X16941   0.894   7.100   8.437  0.8448  0.7211  1.5602
  152SAPE  H15Y16942   0.878   6.921   8.488 -0.7727  0.6929  0.5024
  152SAPE  C31616943   1.074   6.991   8.510 -0.4164  0.1066  0.2808
  152SAPE  H16X16944   1.096   6.958   8.406  0.8220  2.7556 -0.3963
  152SAPE  H16Y16945   1.116   6.913   8.577 -0.2906  0.9790  1.2420
  152SAPE  C31716946   1.160   7.123   8.531  0.3135 -0.3395 -0.3009
  152SAPE  H17X16947   1.147   7.164   8.633 -2.5048  0.4477 -0.8922
  152SAPE  H17Y16948   1.113   7.199   8.465 -1.2463 -1.4627 -0.5309
  152SAPE  C31816949   1.303   7.101   8.505  0.0549 -0.3199 -0.1611
  152SAPE  H18X16950   1.368   7.191   8.497 -1.3235  0.8568  1.1065
  152SAPE  H18Y16951   1.319   7.043   8.412 -0.9083  1.0977 -1.2606
  152SAPE  H18Z16952   1.348   7.031   8.578  1.2280  0.3774 -0.1866
  153SAPE     N16953   0.982   2.740  10.836 -0.1139  0.6755 -0.3303
  153SAPE   HN116954   0.914   2.663  10.849  1.2948 -0.8238 -1.3526
  153SAPE   HN216955   1.056   2.716  10.767  0.0544  4.8985 -1.8987
  153SAPE   HN316956   1.023   2.754  10.930 -0.7204  0.4362 -0.0279
  153SAPE   C1216957   0.911   2.861  10.773 -0.6093  0.0499 -0.1977
  153SAPE  H12A16958   0.878   2.813  10.678 -0.5538  0.7197 -0.5626
  153SAPE  H12B16959   0.982   2.945  10.761 -2.0902  1.4780  0.7363
  153SAPE   C1116960   0.800   2.911  10.859  0.7682 -0.2831  0.5286
  153SAPE  H11A16961   0.722   2.832  10.867 -0.1060  0.4241 -0.7404
  153SAPE  H11B16962   0.743   2.994  10.813 -0.7025 -0.9153  1.1450
  153SAPE     P16963   0.842   3.085  11.050 -0.1678  0.5995 -0.1205
  153SAPE   O1316964   0.712   3.137  11.017  0.4025  0.4183  0.5033
  153SAPE   O1416965   0.886   3.088  11.193 -0.0047 -0.5245 -0.4876
  153SAPE   O1216966   0.855   2.941  10.990 -0.3254  0.0626  0.1948
  153SAPE   O1116967   0.952   3.162  10.972 -0.2593 -0.3484 -0.4933
  153SAPE    C116968   1.091   3.127  10.970  0.1426  0.1564 -0.7071
  153SAPE    HA16969   1.144   3.174  11.055 -0.7644  0.1124 -0.1060
  153SAPE    HB16970   1.106   3.018  10.982 -0.1802  0.3357  1.8618
  153SAPE    C216971   1.170   3.172  10.832 -0.2498  0.3408  0.6367
  153SAPE    HS16972   1.188   3.281  10.841  2.2156  0.1387 -0.8876
  153SAPE   O2116973   1.091   3.137  10.718 -0.1881  0.7334 -0.5127
  153SAPE   C2116974   1.088   3.224  10.622 -0.3704 -0.6831  0.3203
  153SAPE   O2216975   1.157   3.329  10.612 -0.0547  0.3702 -0.2192
  153SAPE   C2216976   0.976   3.193  10.525  0.5250  0.0907 -0.6870
  153SAPE   H2R16977   0.972   3.083  10.515 -1.0386  0.0976 -0.4744
  153SAPE   H2S16978   0.882   3.230  10.571  0.0337 -1.2984 -0.5516
  153SAPE    C316979   1.310   3.104  10.839  0.5903  0.2167  0.0044
  153SAPE    HX16980   1.292   2.996  10.821  1.8387 -0.0729  0.3978
  153SAPE    HY16981   1.354   3.124  10.939 -0.5803  0.4616  0.4744
  153SAPE   O3116982   1.409   3.159  10.749  0.2500 -0.1914 -0.4327
  153SAPE   C3116983   1.437   3.102  10.627 -0.0166 -0.1251  1.2034
  153SAPE   O3216984   1.400   2.988  10.600 -0.0017 -0.5526 -0.0788
  153SAPE   C3216985   1.538   3.185  10.539  0.3795  0.5868  0.1358
  153SAPE   H2X16986   1.612   3.106  10.512 -0.8108 -1.4408  2.3481
  153SAPE   H2Y16987   1.601   3.253  10.600  1.0337  1.5244 -1.5225
  153SAPE   C2316988   0.982   3.268  10.392 -0.1544 -0.2172 -0.1168
  153SAPE   H3R16989   1.024   3.369  10.410 -0.8874  0.4521 -2.0115
  153SAPE   H3S16990   0.881   3.285  10.348 -0.4240 -1.3620  0.0039
  153SAPE   C2416991   1.066   3.198  10.293 -0.3316 -0.0450  0.4594
  153SAPE   H4R16992   1.011   3.105  10.270  0.4093 -0.5200  0.5750
  153SAPE   H4S16993   1.159   3.162  10.341 -1.4320 -2.0345  1.2271
  153SAPE   C2516994   1.089   3.288  10.174 -0.1790 -0.1459  1.2729
  153SAPE   H5R16995   1.104   3.393  10.204 -1.4307 -0.4819  3.2085
  153SAPE   C2616996   1.085   3.246  10.043 -0.0002 -0.0050 -0.5628
  153SAPE   H6R16997   1.119   3.321   9.970 -1.9237  0.6715 -0.8296
  153SAPE   C2716998   1.067   3.110   9.990 -0.0546 -0.6626 -0.0046
  153SAPE   H7R16999   1.043   3.039  10.072  0.1885  0.3649  0.9798
  153SAPE   H7S17000   1.168   3.078   9.954  0.8580  1.2279  0.7339
  153SAPE   C2817001   0.951   3.111   9.892  0.0650  0.0057 -0.6735
  153SAPE   H8R17002   0.854   3.074   9.928  0.4596 -0.1493  0.2564
  153SAPE   C2917003   0.958   3.135   9.762 -0.9665 -0.5355  0.1985
  153SAPE   H9R17004   0.868   3.130   9.698 -0.6810 -1.2588 -0.1525
  153SAPE  C21017005   1.075   3.183   9.677 -0.1484 -0.3010  0.5203
  153SAPE  H10R17006   1.155   3.227   9.740 -0.4487  1.4943 -0.3002
  153SAPE  H10S17007   1.033   3.266   9.617 -0.6892 -0.9163  0.0298
  153SAPE  C21117008   1.122   3.082   9.578  0.3741  0.0119 -0.5584
  153SAPE  H11R17009   1.185   3.011   9.634 -1.3199 -1.6629 -0.7112
  153SAPE  C21217010   1.089   3.057   9.451 -0.5328 -0.4590  0.2708
  153SAPE  H12R17011   1.124   2.960   9.411  0.4409  0.0918 -0.2526
  153SAPE  C21317012   0.990   3.132   9.364 -0.1153 -0.2567 -0.3933
  153SAPE  H13R17013   1.015   3.120   9.257 -2.4501  0.9996 -1.1629
  153SAPE  H13S17014   1.003   3.242   9.371 -0.8153 -0.0320 -2.1018
  153SAPE  C21417015   0.844   3.107   9.392  0.3195 -0.1818  0.1881
  153SAPE  H14R17016   0.798   3.172   9.469  1.1657  1.4172 -0.6114
  153SAPE  C21517017   0.772   3.014   9.325  0.0361 -0.0616  0.4948
  153SAPE  H15R17018   0.667   2.989   9.342  0.4004 -1.6191  0.5941
  153SAPE  C21617019   0.828   2.931   9.215  0.2414  0.0336  0.2908
  153SAPE  H16R17020   0.773   2.835   9.211  0.2424 -0.1059  2.4550
  153SAPE  H16S17021   0.935   2.905   9.232  0.7713  0.7227 -1.6532
  153SAPE  C21717022   0.821   3.007   9.076 -0.0878 -0.7515  0.5208
  153SAPE  H17R17023   0.877   2.950   8.999 -2.6499  0.2944 -2.3124
  153SAPE  H17S17024   0.877   3.103   9.072 -0.4068 -0.6122 -2.6670
  153SAPE  C21817025   0.683   3.019   9.030 -0.7354 -0.2675  0.0858
  153SAPE  H18R17026   0.626   3.053   9.119  1.5126 -0.4479  1.6582
  153SAPE  H18S17027   0.656   2.918   8.992  0.4365 -1.0543  1.2611
  153SAPE  C21917028   0.656   3.127   8.921 -0.3641 -0.2613 -0.1945
  153SAPE  H19R17029   0.730   3.210   8.924  0.6426 -1.0684 -1.5130
  153SAPE  H19S17030   0.558   3.178   8.931 -0.3233  0.0981 -1.4569
  153SAPE  C22017031   0.663   3.059   8.782 -0.3588  0.0402 -0.1141
  153SAPE  H20R17032   0.590   2.975   8.776  0.8322 -0.9259 -2.3803
  153SAPE  H20S17033   0.770   3.035   8.768  1.3772  6.0198  0.1234
  153SAPE  H20T17034   0.627   3.131   8.705 -2.0066 -0.4007  0.1977
  153SAPE   C3317035   1.486   3.262  10.410  0.6159  0.3457 -0.4641
  153SAPE   H3X17036   1.574   3.330  10.404  2.9148 -1.8990  3.3610
  153SAPE   H3Y17037   1.392   3.317  10.430  1.4245  1.1975  1.2879
  153SAPE   C3417038   1.471   3.181  10.282  0.4180  0.0480  0.0629
  153SAPE   H4X17039   1.368   3.141  10.276 -0.0123  0.8879  1.3971
  153SAPE   H4Y17040   1.543   3.097  10.271  0.0336 -0.1528 -1.0855
  153SAPE   C3517041   1.475   3.278  10.168  0.0299 -0.0795 -0.7164
  153SAPE   H5X17042   1.565   3.343  10.165  0.3777 -0.5879 -2.2286
  153SAPE   H5Y17043   1.387   3.344  10.175  1.3221  1.6990 -0.6953
  153SAPE   C3617044   1.474   3.197  10.038  0.1710  0.2613  0.4620
  153SAPE   H6X17045   1.376   3.145  10.034 -0.6787  1.7291  1.3353
  153SAPE   H6Y17046   1.548   3.115  10.029 -2.0608 -1.7970  0.0317
  153SAPE   C3717047   1.480   3.274   9.908  0.4740 -0.9708 -0.6321
  153SAPE   H7X17048   1.580   3.322   9.897 -0.6141  1.1224 -1.9930
  153SAPE   H7Y17049   1.400   3.350   9.904 -0.3510 -1.8627 -2.5317
  153SAPE   C3817050   1.450   3.180   9.786  0.4156 -0.0422  0.6272
  153SAPE   H8X17051   1.347   3.142   9.800  0.1430  0.6558  0.5977
  153SAPE   H8Y17052   1.514   3.089   9.787  0.8175  0.2032 -0.8673
  153SAPE   C3917053   1.477   3.244   9.649  0.1876 -0.2646 -0.4339
  153SAPE   H9X17054   1.564   3.312   9.663 -0.7914  0.6908  1.5208
  153SAPE   H9Y17055   1.393   3.311   9.622 -0.1952 -0.9508 -1.0029
  153SAPE  C31017056   1.497   3.142   9.539  0.2768 -0.3926 -0.3946
  153SAPE  H10X17057   1.419   3.064   9.555  0.4504 -0.3978  0.4977
  153SAPE  H10Y17058   1.591   3.088   9.562  0.0699  0.1480  2.0061
  153SAPE  C31117059   1.505   3.217   9.410  0.2119  0.1630  0.4018
  153SAPE  H11X17060   1.579   3.300   9.416 -0.1898  0.4754  1.2258
  153SAPE  H11Y17061   1.405   3.255   9.382 -0.5663 -0.8094  1.7070
  153SAPE  C31217062   1.530   3.118   9.295 -0.4043 -0.7357 -0.2984
  153SAPE  H12X17063   1.493   3.172   9.205 -4.2133 -0.0173  1.4767
  153SAPE  H12Y17064   1.471   3.026   9.312 -0.5636 -0.2467  2.2533
  153SAPE  C31317065   1.670   3.060   9.281 -0.5943  0.4063  0.1138
  153SAPE  H13X17066   1.660   2.993   9.193  2.0910  1.6679 -1.2915
  153SAPE  H13Y17067   1.680   2.998   9.372  1.1635  0.6725  0.1415
  153SAPE  C31417068   1.794   3.156   9.267 -0.2992  0.5867 -0.0978
  153SAPE  H14X17069   1.895   3.111   9.252  0.7625  2.7482  0.1998
  153SAPE  H14Y17070   1.809   3.205   9.365 -0.3743  0.1666  0.1265
  153SAPE  C31517071   1.767   3.270   9.172 -0.3831  0.7210 -0.1330
  153SAPE  H15X17072   1.691   3.333   9.223  0.8142  2.1823 -0.0526
  153SAPE  H15Y17073   1.718   3.228   9.082  0.1399 -0.9311  0.3240
  153SAPE  C31617074   1.894   3.347   9.138  0.6068 -0.2676 -0.0587
  153SAPE  H16X17075   1.941   3.384   9.232  1.0112  2.3216 -1.1909
  153SAPE  H16Y17076   1.870   3.441   9.084 -0.4271 -0.3529  0.2413
  153SAPE  C31717077   1.991   3.263   9.048  0.3454 -0.2863 -0.9256
  153SAPE  H17X17078   1.939   3.190   8.982  0.7599 -1.4158 -0.0381
  153SAPE  H17Y17079   2.065   3.205   9.108 -0.0103 -1.1845 -1.3358
  153SAPE  C31817080   2.065   3.361   8.952 -0.2300 -0.0276  0.1163
  153SAPE  H18X17081   2.108   3.286   8.882 -0.5304  0.1425 -0.2554
  153SAPE  H18Y17082   2.145   3.420   9.003 -0.5560  0.8691 -0.3911
  153SAPE  H18Z17083   1.994   3.425   8.896  0.3065 -0.7168 -1.4183
  154SAPE     N17084   2.396   2.774  11.070 -0.5834  0.1996 -0.1486
  154SAPE   HN117085   2.298   2.761  11.102 -0.6237 -0.2740 -0.4658
  154SAPE   HN217086   2.396   2.737  10.973 -0.7565 -0.2838  0.0347
  154SAPE   HN317087   2.449   2.709  11.131 -0.7585 -0.1518 -0.3714
  154SAPE   C1217088   2.459   2.911  11.103  0.5386 -0.7144 -0.2069
  154SAPE  H12A17089   2.566   2.910  11.072  1.2171  2.1150  1.5933
  154SAPE  H12B17090   2.448   2.923  11.213  0.8134  1.2549 -0.3511
  154SAPE   C1117091   2.380   3.020  11.030  0.3845 -0.6650  0.5711
  154SAPE  H11A17092   2.389   2.997  10.922  0.6037 -0.2114  0.4900
  154SAPE  H11B17093   2.428   3.116  11.058 -0.3033  0.7785 -2.7045
  154SAPE     P17094   2.139   3.118  11.024 -0.0771 -0.2841 -0.3097
  154SAPE   O1317095   2.025   3.116  11.120  0.2353  0.1022  0.0956
  154SAPE   O1417096   2.213   3.249  10.996  0.4184 -0.1414  0.2002
  154SAPE   O1217097   2.238   3.013  11.073 -0.1658 -0.0810 -0.6381
  154SAPE   O1117098   2.094   3.052  10.889  0.7776  0.0013  0.3120
  154SAPE    C117099   2.024   2.925  10.896 -0.3654 -0.2004 -0.4642
  154SAPE    HA17100   2.022   2.884  10.999  1.1287  1.1267  0.1401
  154SAPE    HB17101   1.921   2.936  10.857  0.5213 -0.2230 -3.0555
  154SAPE    C217102   2.104   2.827  10.808 -0.5139  0.3873  0.4336
  154SAPE    HS17103   2.209   2.825  10.845 -0.2922 -3.6839  0.0344
  154SAPE   O2117104   2.103   2.873  10.667 -0.3753 -0.6293  0.4140
  154SAPE   C2117105   2.219   2.874  10.602  0.0973  0.3820  0.1469
  154SAPE   O2217106   2.326   2.823  10.636 -0.1547 -0.1202  0.0691
  154SAPE   C2217107   2.197   2.949  10.472  0.4509 -0.0943  0.6625
  154SAPE   H2R17108   2.088   2.960  10.452  0.5966  0.9163  0.3868
  154SAPE   H2S17109   2.238   3.051  10.485 -0.6280  0.1525  2.6422
  154SAPE    C317110   2.065   2.681  10.823 -0.5045 -0.0166 -0.2472
  154SAPE    HX17111   1.955   2.679  10.840 -0.2670  0.5719  1.5809
  154SAPE    HY17112   2.108   2.643  10.918  0.2537 -1.9883 -1.3218
  154SAPE   O3117113   2.100   2.602  10.704 -0.6330  0.0573 -0.5064
  154SAPE   C3117114   2.048   2.481  10.714 -0.0316 -0.3731  0.9629
  154SAPE   O3217115   1.987   2.429  10.807 -0.4714 -0.5514 -0.1255
  154SAPE   C3217116   2.083   2.415  10.584 -0.4322  0.3666  0.4474
  154SAPE   H2X17117   2.001   2.450  10.517  0.1504  2.1657  0.6099
  154SAPE   H2Y17118   2.084   2.306  10.604  2.9203 -0.3467 -2.5609
  154SAPE   C2317119   2.275   2.892  10.346  0.2220 -0.1314 -0.1697
  154SAPE   H3R17120   2.372   2.850  10.378 -0.2040  0.1818  1.6232
  154SAPE   H3S17121   2.304   2.973  10.275 -1.7329  1.3823  0.6295
  154SAPE   C2417122   2.201   2.780  10.271  0.4843  0.6655 -0.1445
  154SAPE   H4R17123   2.187   2.688  10.332 -0.1780  0.5858 -0.4122
  154SAPE   H4S17124   2.272   2.739  10.195  0.2831 -0.5939  0.3229
  154SAPE   C2517125   2.067   2.823  10.207  0.4117 -0.4953  0.3612
  154SAPE   H5R17126   2.031   2.922  10.238  2.0978  0.5790 -0.9636
  154SAPE   C2617127   2.008   2.768  10.097 -0.7311  0.2577 -0.1345
  154SAPE   H6R17128   1.923   2.820  10.051  0.2300  1.9927 -0.0378
  154SAPE   C2717129   2.039   2.640  10.028 -0.5390 -0.3496 -0.3426
  154SAPE   H7R17130   1.942   2.590  10.005 -0.2207 -1.1503  0.0139
  154SAPE   H7S17131   2.090   2.569  10.096  0.6792  1.5043  0.7507
  154SAPE   C2817132   2.118   2.666   9.904 -0.4870  0.4887 -0.0043
  154SAPE   H8R17133   2.224   2.687   9.926 -0.5180  2.8037 -1.6765
  154SAPE   C2917134   2.072   2.653   9.772 -0.4235  0.3839 -0.3571
  154SAPE   H9R17135   2.138   2.662   9.685  0.0068  0.1784 -0.0593
  154SAPE  C21017136   1.938   2.610   9.738 -0.6908  0.1153 -0.7273
  154SAPE  H10R17137   1.909   2.663   9.645 -1.7340  1.2565  0.2042
  154SAPE  H10S17138   1.870   2.654   9.814 -0.3323  0.7224 -0.7514
  154SAPE  C21117139   1.913   2.464   9.721  0.8153  0.1290  0.4522
  154SAPE  H11R17140   1.941   2.398   9.805 -0.6808 -1.1017  0.0393
  154SAPE  C21217141   1.845   2.401   9.618 -0.7323 -0.3495  0.5573
  154SAPE  H12R17142   1.827   2.293   9.623 -3.0857  0.0204  1.0550
  154SAPE  C21317143   1.781   2.470   9.493  0.6714  0.4519 -0.6270
  154SAPE  H13R17144   1.733   2.565   9.526  0.3480 -0.3370  1.3570
  154SAPE  H13S17145   1.704   2.400   9.454  1.3064 -0.5461 -0.1387
  154SAPE  C21417146   1.879   2.481   9.376  0.6961 -0.5524 -0.5214
  154SAPE  H14R17147   1.926   2.386   9.347  0.5644 -1.0337  0.7760
  154SAPE  C21517148   1.907   2.592   9.307 -0.3395 -0.2752  0.5196
  154SAPE  H15R17149   1.992   2.589   9.237  0.2057  1.4295  1.0593
  154SAPE  C21617150   1.865   2.733   9.334  0.0577 -0.3902 -0.3289
  154SAPE  H16R17151   1.801   2.734   9.425  2.2818 -1.5077  1.3164
  154SAPE  H16S17152   1.805   2.775   9.250  0.8827  0.6990 -0.3974
  154SAPE  C21717153   1.985   2.823   9.363  0.3522  0.4326 -0.2794
  154SAPE  H17R17154   2.033   2.792   9.458 -2.0906 -2.1173  0.2183
  154SAPE  H17S17155   1.955   2.927   9.389  0.1083 -0.3130  2.8062
  154SAPE  C21817156   2.098   2.831   9.259  0.9214 -0.4285  0.4194
  154SAPE  H18R17157   2.151   2.733   9.262  0.0625 -1.0139 -2.0423
  154SAPE  H18S17158   2.167   2.917   9.275 -0.7064  1.5720 -2.3777
  154SAPE  C21917159   2.048   2.844   9.116  0.4176 -0.5941 -0.8236
  154SAPE  H19R17160   1.963   2.915   9.127 -0.3823 -1.6393 -0.1083
  154SAPE  H19S17161   1.997   2.760   9.065 -0.1695  0.8911 -2.8227
  154SAPE  C22017162   2.153   2.885   9.014  0.1558 -0.8440  0.0447
  154SAPE  H20R17163   2.223   2.956   9.065 -1.4702  0.4852  0.5113
  154SAPE  H20S17164   2.097   2.941   8.936  0.0058  2.1763  2.1265
  154SAPE  H20T17165   2.199   2.795   8.968  2.3646  0.6839 -0.9800
  154SAPE   C3317166   2.219   2.455  10.510 -0.1718 -0.7966  0.3317
  154SAPE   H3X17167   2.306   2.433  10.575 -0.2023 -0.7407  0.3918
  154SAPE   H3Y17168   2.213   2.563  10.484 -2.2026 -0.9638 -0.0453
  154SAPE   C3417169   2.239   2.380  10.375 -0.2981 -0.7368  0.1103
  154SAPE   H4X17170   2.162   2.419  10.305 -0.8108 -0.9216  0.5618
  154SAPE   H4Y17171   2.216   2.272  10.388 -1.9981 -0.5645 -1.0618
  154SAPE   C3517172   2.366   2.397  10.298  0.7295 -0.3343 -0.1356
  154SAPE   H5X17173   2.446   2.372  10.371 -0.0346 -2.7068 -0.0091
  154SAPE   H5Y17174   2.373   2.502  10.263 -0.3772 -0.2014  0.0082
  154SAPE   C3617175   2.393   2.311  10.175 -0.0360  0.3381 -0.4500
  154SAPE   H6X17176   2.353   2.209  10.190 -0.5690  0.7364  0.9569
  154SAPE   H6Y17177   2.502   2.296  10.161 -0.3836 -0.7143 -2.3896
  154SAPE   C3717178   2.332   2.375  10.049  0.1129 -0.6446 -0.5614
  154SAPE   H7X17179   2.347   2.484  10.038  0.0270 -0.8207 -3.0028
  154SAPE   H7Y17180   2.223   2.366  10.067  0.2096  0.0214  0.4118
  154SAPE   C3817181   2.358   2.295   9.921 -0.5325 -0.0481 -0.0702
  154SAPE   H8X17182   2.342   2.185   9.928  2.5247 -0.7975 -2.7635
  154SAPE   H8Y17183   2.464   2.301   9.888 -0.6316  2.8449 -0.0756
  154SAPE   C3917184   2.257   2.351   9.811 -0.5703  0.5511  0.3084
  154SAPE   H9X17185   2.304   2.442   9.768  0.3637 -0.1657 -0.2045
  154SAPE   H9Y17186   2.164   2.379   9.866 -0.8096  1.0177 -0.3249
  154SAPE  C31017187   2.222   2.259   9.697 -0.3065  0.4446  0.2817
  154SAPE  H10X17188   2.148   2.310   9.631  0.8464  1.9716  0.0938
  154SAPE  H10Y17189   2.175   2.171   9.745 -1.9114  0.9199 -0.3438
  154SAPE  C31117190   2.346   2.212   9.611  0.0904 -0.2839  0.2932
  154SAPE  H11X17191   2.313   2.133   9.541 -0.2765 -3.8402  4.0876
  154SAPE  H11Y17192   2.407   2.157   9.686 -0.0195 -2.9798 -1.4933
  154SAPE  C31217193   2.414   2.325   9.532  0.2011  0.1370  0.3847
  154SAPE  H12X17194   2.500   2.289   9.472  0.5256 -0.4191  1.1690
  154SAPE  H12Y17195   2.457   2.400   9.602  0.4883 -0.5621  0.9671
  154SAPE  C31317196   2.323   2.403   9.438  0.2828  0.5606  0.0117
  154SAPE  H13X17197   2.356   2.505   9.408 -1.2381  0.7740 -1.0483
  154SAPE  H13Y17198   2.220   2.411   9.478  0.2020  2.6002 -0.4874
  154SAPE  C31417199   2.297   2.325   9.307 -0.8254  0.5845 -0.4845
  154SAPE  H14X17200   2.246   2.229   9.331  0.0842 -0.0564 -1.0519
  154SAPE  H14Y17201   2.396   2.309   9.260 -0.9473 -0.5564 -0.4016
  154SAPE  C31517202   2.209   2.391   9.204 -0.6050  0.5187  0.1251
  154SAPE  H15X17203   2.220   2.502   9.203  1.1574  0.4093  1.8559
  154SAPE  H15Y17204   2.102   2.365   9.218 -0.1715 -0.6149  1.5080
  154SAPE  C31617205   2.250   2.358   9.059  0.2659 -0.3875 -0.1406
  154SAPE  H16X17206   2.268   2.249   9.052 -2.0802 -0.7574 -1.2366
  154SAPE  H16Y17207   2.348   2.410   9.048 -1.0940  2.7353  1.2633
  154SAPE  C31717208   2.156   2.423   8.960  0.4190  0.2037 -0.8102
  154SAPE  H17X17209   2.212   2.417   8.864  1.6638  0.2728 -0.1104
  154SAPE  H17Y17210   2.135   2.526   8.998 -0.6682 -0.8067  1.5288
  154SAPE  C31817211   2.019   2.358   8.948 -0.3502  0.3219 -0.3973
  154SAPE  H18X17212   1.958   2.362   9.041 -0.2089 -0.4950 -0.2652
  154SAPE  H18Y17213   2.029   2.254   8.912  0.4107 -0.4309  1.8086
  154SAPE  H18Z17214   1.958   2.419   8.878  0.5200  1.8779  0.1538
  155SAPE     N17215   4.083   3.165  11.290 -0.3132  0.1889 -0.0173
  155SAPE   HN117216   4.108   3.256  11.333 -2.3692  2.3354 -2.9624
  155SAPE   HN217217   4.164   3.102  11.278 -0.1445  0.2938  0.5401
  155SAPE   HN317218   4.044   3.192  11.197  0.0978  0.4542 -0.1167
  155SAPE   C1217219   3.985   3.114  11.385  0.1949 -0.0266  0.1744
  155SAPE  H12A17220   4.041   3.092  11.478  0.9080 -0.6767 -0.3995
  155SAPE  H12B17221   3.948   3.019  11.340 -2.8217  2.3139 -2.8882
  155SAPE   C1117222   3.862   3.201  11.395  0.6126 -0.4305 -0.3198
  155SAPE  H11A17223   3.898   3.292  11.446  2.5171 -0.8407 -0.8354
  155SAPE  H11B17224   3.788   3.158  11.466 -0.8867  1.1992 -0.8147
  155SAPE     P17225   3.706   3.141  11.186 -0.2896 -0.1619  0.0478
  155SAPE   O1317226   3.737   3.001  11.214 -0.0638  0.6706 -0.0241
  155SAPE   O1417227   3.572   3.193  11.229 -0.3978  0.2302 -0.3832
  155SAPE   O1217228   3.806   3.238  11.271 -0.2834  0.1260  0.0768
  155SAPE   O1117229   3.728   3.172  11.034 -0.3449 -0.1525  0.5431
  155SAPE    C117230   3.668   3.284  10.961  1.1009 -0.6599  0.2932
  155SAPE    HA17231   3.687   3.373  11.024 -0.9729  0.4768 -0.5964
  155SAPE    HB17232   3.729   3.298  10.869  0.4429  1.7991  0.1757
  155SAPE    C217233   3.516   3.285  10.930 -0.8736 -0.8920  0.6056
  155SAPE    HS17234   3.466   3.321  11.023 -1.0713  1.4454 -0.3423
  155SAPE   O2117235   3.475   3.157  10.885  0.2892  0.2242  0.5994
  155SAPE   C2117236   3.346   3.113  10.902 -0.8219  0.0121 -0.5501
  155SAPE   O2217237   3.263   3.160  10.978 -0.0088 -0.5994 -0.0878
  155SAPE   C2217238   3.325   2.991  10.811 -0.6782 -0.4505  0.5996
  155SAPE   H2R17239   3.415   2.926  10.821  0.4061  0.9300  0.0127
  155SAPE   H2S17240   3.241   2.933  10.855 -1.0490 -0.3297  0.0549
  155SAPE    C317241   3.478   3.396  10.829 -0.1402 -0.2759 -0.2906
  155SAPE    HX17242   3.508   3.490  10.881 -1.5670  0.7734 -1.3015
  155SAPE    HY17243   3.367   3.398  10.824 -0.1105 -0.2210 -4.0667
  155SAPE   O3117244   3.560   3.382  10.712 -0.3712 -0.4905  0.5072
  155SAPE   C3117245   3.501   3.443  10.603  0.0601 -0.3287 -0.7314
  155SAPE   O3217246   3.402   3.507  10.606  0.0938 -0.4567  0.1984
  155SAPE   C3217247   3.597   3.431  10.485 -0.2141 -0.2063  0.2139
  155SAPE   H2X17248   3.647   3.332  10.494 -0.5267 -0.3119  0.8541
  155SAPE   H2Y17249   3.669   3.514  10.502 -1.8405  1.0365  1.4137
  155SAPE   C2317250   3.298   3.027  10.659 -0.3226 -0.4639  0.3542
  155SAPE   H3R17251   3.253   3.128  10.654  4.1318  1.8119  1.0136
  155SAPE   H3S17252   3.217   2.963  10.618 -0.7871 -0.4822  1.2740
  155SAPE   C2417253   3.435   3.046  10.582  0.6805  0.0266  0.2565
  155SAPE   H4R17254   3.504   3.120  10.628 -1.2142  1.5844  0.7344
  155SAPE   H4S17255   3.415   3.110  10.493  0.3836 -0.8837 -0.3451
  155SAPE   C2517256   3.507   2.916  10.557  0.6651  0.4221 -0.9783
  155SAPE   H5R17257   3.487   2.842  10.636  1.6230 -0.0786 -1.1915
  155SAPE   C2617258   3.589   2.877  10.455 -0.0515  0.0872  0.0909
  155SAPE   H6R17259   3.628   2.774  10.448 -0.4291  0.0502 -2.0279
  155SAPE   C2717260   3.606   2.965  10.326  0.4033 -0.3052 -0.6492
  155SAPE   H7R17261   3.510   3.006  10.289 -1.6728 -0.3401  3.9751
  155SAPE   H7S17262   3.639   2.892  10.249 -2.8235 -3.9990  1.0933
  155SAPE   C2817263   3.710   3.074  10.347 -0.2178 -0.2793  0.6351
  155SAPE   H8R17264   3.705   3.128  10.442  1.1348  1.7977 -0.3942
  155SAPE   C2917265   3.810   3.097  10.253  0.1642 -0.0373  0.0655
  155SAPE   H9R17266   3.876   3.182  10.277  1.7457 -0.7855 -1.4227
  155SAPE  C21017267   3.825   3.041  10.115  0.3463  0.0874 -0.0062
  155SAPE  H10R17268   3.798   2.934  10.100 -0.4273  0.5796 -2.4922
  155SAPE  H10S17269   3.928   3.057  10.077 -0.1444  0.8877 -1.0425
  155SAPE  C21117270   3.743   3.113  10.013  0.3335  0.0664 -0.1811
  155SAPE  H11R17271   3.698   3.207  10.047 -3.0945 -1.7232  0.6874
  155SAPE  C21217272   3.721   3.085   9.886 -0.1373  0.3087 -0.3024
  155SAPE  H12R17273   3.644   3.138   9.829 -1.6168 -0.6767  0.7116
  155SAPE  C21317274   3.786   2.974   9.814  0.4871  0.3693 -0.6042
  155SAPE  H13R17275   3.701   2.910   9.782 -0.0355  0.0944  1.2244
  155SAPE  H13S17276   3.854   2.912   9.876  0.9407 -0.6762 -2.0915
  155SAPE  C21417277   3.857   3.022   9.691 -1.0700  0.9775 -0.0483
  155SAPE  H14R17278   3.965   3.031   9.707 -1.1141  0.8197  0.3550
  155SAPE  C21517279   3.807   3.043   9.568 -0.7887  0.3965  0.0321
  155SAPE  H15R17280   3.877   3.088   9.496  0.1399  2.1170  1.8834
  155SAPE  C21617281   3.679   3.026   9.515  0.5161 -0.0483 -0.0729
  155SAPE  H16R17282   3.604   3.020   9.597  0.3438 -1.3670 -0.3134
  155SAPE  H16S17283   3.676   2.940   9.445 -0.4534  1.8471 -2.5078
  155SAPE  C21717284   3.625   3.138   9.426 -0.4104 -0.9144 -0.3005
  155SAPE  H17R17285   3.628   3.240   9.470 -0.0356 -1.0205 -0.0733
  155SAPE  H17S17286   3.517   3.120   9.408 -1.1030  1.7961  0.5925
  155SAPE  C21817287   3.693   3.150   9.295  0.4674  0.5141  0.5490
  155SAPE  H18R17288   3.803   3.138   9.294  0.6831  2.2457 -0.5017
  155SAPE  H18S17289   3.674   3.251   9.254  1.0230  0.1643 -0.6419
  155SAPE  C21917290   3.639   3.049   9.195 -0.1522 -0.1811 -0.0676
  155SAPE  H19R17291   3.528   3.049   9.203 -0.1779 -0.7453 -0.4103
  155SAPE  H19S17292   3.663   2.947   9.229  2.3210 -0.6240 -2.8059
  155SAPE  C22017293   3.691   3.062   9.049  0.1779  0.0929  0.8992
  155SAPE  H20R17294   3.628   3.003   8.978 -0.3669  1.3363  0.3204
  155SAPE  H20S17295   3.797   3.028   9.041  0.1318  0.0964  0.1544
  155SAPE  H20T17296   3.689   3.166   9.009  0.9975  0.2852  1.3534
  155SAPE   C3317297   3.526   3.464  10.349  0.1658  0.6450 -0.5040
  155SAPE   H3X17298   3.476   3.562  10.365  0.1952  0.9017 -1.8559
  155SAPE   H3Y17299   3.452   3.391  10.310  1.2106  0.7469 -2.8875
  155SAPE   C3417300   3.621   3.495  10.238 -0.3650  0.3633  0.2583
  155SAPE   H4X17301   3.681   3.404  10.218 -1.6062 -0.5132  0.3683
  155SAPE   H4Y17302   3.676   3.586  10.270 -1.8828  0.9092  1.4395
  155SAPE   C3517303   3.553   3.535  10.104 -0.0881  0.1553 -0.2623
  155SAPE   H5X17304   3.505   3.633  10.124 -1.7620 -0.6200 -0.3100
  155SAPE   H5Y17305   3.468   3.468  10.080  0.7712 -1.4585  0.9381
  155SAPE   C3617306   3.643   3.554   9.985  0.0196 -0.4983  0.6209
  155SAPE   H6X17307   3.704   3.464   9.963  2.4476  1.3059 -0.4452
  155SAPE   H6Y17308   3.709   3.640  10.008 -1.0714  0.9094 -1.1676
  155SAPE   C3717309   3.568   3.581   9.859  0.5326  0.4573  0.2021
  155SAPE   H7X17310   3.516   3.680   9.861 -0.0572  0.1553 -0.0045
  155SAPE   H7Y17311   3.496   3.497   9.854  1.7559 -0.9159  3.4778
  155SAPE   C3817312   3.653   3.585   9.729 -0.5818 -0.2488 -0.0085
  155SAPE   H8X17313   3.708   3.489   9.721 -2.0157 -1.0985 -0.0142
  155SAPE   H8Y17314   3.731   3.663   9.738 -0.7158 -0.3143  1.9596
  155SAPE   C3917315   3.570   3.619   9.604 -0.3015  0.1815  0.4741
  155SAPE   H9X17316   3.554   3.728   9.596  1.8943  0.4513 -1.3377
  155SAPE   H9Y17317   3.473   3.565   9.613 -0.7188  1.0690  1.3696
  155SAPE  C31017318   3.640   3.573   9.478  0.4321  0.0787 -0.2950
  155SAPE  H10X17319   3.561   3.549   9.403  0.4037 -1.8667  0.3058
  155SAPE  H10Y17320   3.698   3.480   9.495  0.0399 -0.3578 -1.2316
  155SAPE  C31117321   3.732   3.683   9.429 -0.2682 -0.0750  0.0445
  155SAPE  H11X17322   3.828   3.688   9.486  0.4619  1.4308 -1.2279
  155SAPE  H11Y17323   3.683   3.783   9.429  0.2487  0.2083 -1.6121
  155SAPE  C31217324   3.773   3.679   9.279  1.0522 -0.0966  1.4207
  155SAPE  H12X17325   3.702   3.627   9.212  2.2441 -0.2813  0.2474
  155SAPE  H12Y17326   3.868   3.620   9.281  1.4013  0.3349 -0.3851
  155SAPE  C31317327   3.809   3.811   9.217 -0.0595  0.4310 -0.2875
  155SAPE  H13X17328   3.881   3.870   9.278  0.2529  0.2856 -0.5148
  155SAPE  H13Y17329   3.728   3.884   9.194 -1.7590 -0.9413  1.0274
  155SAPE  C31417330   3.880   3.770   9.083  0.0355 -0.0702  0.0541
  155SAPE  H14X17331   3.815   3.703   9.022  0.3342 -0.0438 -0.2981
  155SAPE  H14Y17332   3.974   3.717   9.110  0.2140  0.2446  0.0513
  155SAPE  C31517333   3.911   3.896   9.013  0.9008 -0.1791  0.9962
  155SAPE  H15X17334   3.956   3.962   9.090  2.1324 -1.6938  1.6196
  155SAPE  H15Y17335   3.821   3.949   8.974  1.8630 -0.0364 -1.1880
  155SAPE  C31617336   4.005   3.887   8.889 -0.1777 -0.1675 -0.5685
  155SAPE  H16X17337   3.951   3.854   8.797 -0.3156  2.6980 -1.6354
  155SAPE  H16Y17338   4.096   3.824   8.900  0.5413  0.5493 -2.0486
  155SAPE  C31717339   4.064   4.026   8.869  0.2613 -0.1951  0.3103
  155SAPE  H17X17340   4.107   4.049   8.969  1.4769 -3.1097  0.5598
  155SAPE  H17Y17341   3.983   4.099   8.846  2.7591  2.9791  0.8103
  155SAPE  C31817342   4.175   4.061   8.761  0.2208 -0.3382  0.1772
  155SAPE  H18X17343   4.128   4.050   8.661 -1.2726 -3.0515  1.0599
  155SAPE  H18Y17344   4.247   3.977   8.755  1.2773  0.5842 -0.2550
  155SAPE  H18Z17345   4.219   4.161   8.780  2.5282 -1.0380 -1.1235
  156SAPE     N17346   0.910   5.800  11.107  0.1675  0.5945 -0.0886
  156SAPE   HN117347   0.897   5.900  11.133  0.9191  0.6039  0.2814
  156SAPE   HN217348   0.876   5.738  11.182  2.1874  0.7588  1.0390
  156SAPE   HN317349   1.013   5.785  11.098  0.1332  0.8862 -1.0857
  156SAPE   C1217350   0.839   5.771  10.976 -0.2020 -0.2573 -0.4855
  156SAPE  H12A17351   0.734   5.799  10.999 -0.3933 -1.0365 -0.3810
  156SAPE  H12B17352   0.848   5.662  10.960  0.3681 -0.2114 -0.4802
  156SAPE   C1117353   0.903   5.848  10.854 -0.4066 -0.4363  1.1361
  156SAPE  H11A17354   0.842   5.820  10.765  0.9692 -0.3806  0.1489
  156SAPE  H11B17355   1.007   5.811  10.856  0.1405  0.9811  0.3268
  156SAPE     P17356   0.795   6.093  10.841  0.1727  0.2081 -0.0136
  156SAPE   O1317357   0.666   6.056  10.897  0.3170  0.3706  0.1753
  156SAPE   O1417358   0.856   6.223  10.863  0.6125 -0.9188 -0.6472
  156SAPE   O1217359   0.907   5.990  10.865  0.1784  0.3535 -0.2500
  156SAPE   O1117360   0.777   6.078  10.688 -0.2152  0.0745  0.2147
  156SAPE    C117361   0.871   6.081  10.581  0.1339  0.7171  0.4146
  156SAPE    HA17362   0.900   6.187  10.565  2.5350  0.1519  0.6110
  156SAPE    HB17363   0.965   6.027  10.607  1.3791  1.9919 -1.1813
  156SAPE    C217364   0.812   6.019  10.450 -0.0508 -0.0208 -0.0344
  156SAPE    HS17365   0.893   6.014  10.373  1.3605  0.6315  1.3446
  156SAPE   O2117366   0.702   6.106  10.403  0.0323  0.4836  0.3419
  156SAPE   C2117367   0.682   6.101  10.270  0.3280 -0.4758  0.3006
  156SAPE   O2217368   0.765   6.064  10.188 -0.3029 -0.1472 -0.3698
  156SAPE   C2217369   0.526   6.143  10.239  0.2223  0.0525  0.1296
  156SAPE   H2R17370   0.482   6.190  10.329 -1.3969 -1.6927  0.2967
  156SAPE   H2S17371   0.534   6.217  10.156 -2.5316 -0.4540 -0.6942
  156SAPE    C317372   0.763   5.875  10.477 -0.3768 -0.7144 -0.4008
  156SAPE    HX17373   0.698   5.892  10.566 -0.8162 -1.6513 -0.5337
  156SAPE    HY17374   0.845   5.811  10.515 -2.0206 -1.9368  1.3085
  156SAPE   O3117375   0.690   5.819  10.366  0.6904 -0.7643  0.7293
  156SAPE   C3117376   0.767   5.757  10.280  0.5664 -0.3185  0.7792
  156SAPE   O3217377   0.886   5.728  10.294  0.1115 -0.6486  0.5864
  156SAPE   C3217378   0.673   5.723  10.158  0.3101  0.3542 -0.5479
  156SAPE   H2X17379   0.600   5.806  10.151 -0.3133  0.2716  3.2793
  156SAPE   H2Y17380   0.612   5.636  10.189 -1.0750  1.5789  0.2813
  156SAPE   C2317381   0.439   6.033  10.168 -0.0962  0.2134  0.3996
  156SAPE   H3R17382   0.439   5.943  10.233  0.7454 -0.0747  0.0122
  156SAPE   H3S17383   0.475   6.002  10.067  0.8152  0.8113  0.5291
  156SAPE   C2417384   0.291   6.069  10.158 -0.0257  0.3063 -0.0844
  156SAPE   H4R17385   0.264   6.113  10.256  0.7695 -0.0780  0.3135
  156SAPE   H4S17386   0.227   5.980  10.143 -1.8190  1.2182  1.7845
  156SAPE   C2517387   0.269   6.171  10.049  0.3474  0.9397  0.4867
  156SAPE   H5R17388   0.303   6.271  10.078  1.4553  0.4796  0.8215
  156SAPE   C2617389   0.221   6.139   9.923  0.1707  0.0875  0.0359
  156SAPE   H6R17390   0.216   6.216   9.846 -2.4207 -1.9188 -1.9962
  156SAPE   C2717391   0.189   6.002   9.869 -1.2251  1.1144 -0.4423
  156SAPE   H7R17392   0.116   6.005   9.785 -0.8911  1.6412 -0.7164
  156SAPE   H7S17393   0.134   5.961   9.957 -0.4593 -0.2540 -0.5752
  156SAPE   C2817394   0.303   5.906   9.838  0.2686 -0.4377 -0.2921
  156SAPE   H8R17395   0.352   5.855   9.922 -1.9945 -1.1174  0.7030
  156SAPE   C2917396   0.356   5.891   9.715 -0.2211  0.2539  0.7342
  156SAPE   H9R17397   0.445   5.827   9.707  0.7880  1.7674 -1.0100
  156SAPE  C21017398   0.294   5.942   9.586 -0.6690 -0.3807  0.7194
  156SAPE  H10R17399   0.231   6.033   9.596  0.8678  1.2613 -2.7379
  156SAPE  H10S17400   0.227   5.856   9.561  1.5014 -1.3671 -2.2599
  156SAPE  C21117401   0.384   5.988   9.475  0.2200 -0.0812  0.2906
  156SAPE  H11R17402   0.445   6.076   9.497 -0.0954  0.4446 -0.8697
  156SAPE  C21217403   0.398   5.948   9.347 -0.4162  0.3262  0.8695
  156SAPE  H12R17404   0.479   5.991   9.286  0.4402  0.3727  2.0021
  156SAPE  C21317405   0.324   5.835   9.270  0.1706  0.2941 -0.8222
  156SAPE  H13R17406   0.229   5.802   9.317  0.1021  0.5513 -0.7805
  156SAPE  H13S17407   0.384   5.741   9.276  0.0170  0.2489  0.1374
  156SAPE  C21417408   0.287   5.869   9.128 -0.0435  0.2083 -0.1439
  156SAPE  H14R17409   0.188   5.917   9.123 -0.7973 -1.1125  1.3523
  156SAPE  C21517410   0.363   5.860   9.020  0.7479 -0.7002 -0.0060
  156SAPE  H15R17411   0.307   5.862   8.926  0.9053  0.0968 -0.0874
  156SAPE  C21617412   0.504   5.812   9.000  0.2216 -0.0133 -0.5275
  156SAPE  H16R17413   0.489   5.716   8.947  1.6238  0.1800 -1.3198
  156SAPE  H16S17414   0.556   5.781   9.093  0.6647  3.3326  0.4708
  156SAPE  C21717415   0.585   5.909   8.920  0.3786 -0.1375 -0.3647
  156SAPE  H17R17416   0.619   5.981   8.997  0.9122 -1.5824  0.8078
  156SAPE  H17S17417   0.515   5.951   8.845 -1.0517  0.1445  1.0600
  156SAPE  C21817418   0.711   5.843   8.855 -0.5546  0.1935 -0.2412
  156SAPE  H18R17419   0.694   5.797   8.755 -2.1759  1.8707 -0.8013
  156SAPE  H18S17420   0.744   5.767   8.928  1.2887  0.0224 -1.1746
  156SAPE  C21917421   0.830   5.934   8.818  0.3168  0.1324  0.3707
  156SAPE  H19R17422   0.921   5.871   8.809  0.5398  0.5038 -0.0449
  156SAPE  H19S17423   0.842   6.000   8.906 -2.6188 -0.3834  1.2612
  156SAPE  C22017424   0.810   6.011   8.685  0.0801 -0.1971  0.2564
  156SAPE  H20R17425   0.793   5.946   8.597  1.8348  2.0436 -1.8756
  156SAPE  H20S17426   0.909   6.060   8.673  2.4280 -4.3271  1.0786
  156SAPE  H20T17427   0.720   6.075   8.693  0.6614  0.5667  0.8686
  156SAPE   C3317428   0.750   5.704  10.025  0.3417  0.2851 -0.2789
  156SAPE   H3X17429   0.685   5.626   9.980 -0.6419  0.4225  0.8377
  156SAPE   H3Y17430   0.853   5.669  10.049  1.6378  3.2118 -1.1742
  156SAPE   C3417431   0.757   5.827   9.929  0.2300 -0.7217 -1.1501
  156SAPE   H4X17432   0.813   5.910   9.976 -1.3193 -1.3423  2.0596
  156SAPE   H4Y17433   0.656   5.871   9.920  0.5270  0.8887  2.0391
  156SAPE   C3517434   0.803   5.793   9.789  0.5152  0.3621 -0.4159
  156SAPE   H5X17435   0.741   5.706   9.761  0.0796  0.8251 -0.9053
  156SAPE   H5Y17436   0.911   5.769   9.795 -0.0011 -1.8078  1.2912
  156SAPE   C3617437   0.778   5.902   9.688 -0.7852 -0.0644  0.4063
  156SAPE   H6X17438   0.829   5.995   9.723 -0.2739 -0.4544  0.7051
  156SAPE   H6Y17439   0.671   5.926   9.669 -0.9925 -0.8803  0.5135
  156SAPE   C3717440   0.845   5.871   9.551 -0.6912 -0.0059  0.3743
  156SAPE   H7X17441   0.944   5.821   9.555 -0.4634  0.3863 -0.2072
  156SAPE   H7Y17442   0.863   5.968   9.499  1.2737  0.1706  1.2765
  156SAPE   C3817443   0.768   5.767   9.470 -0.0503  0.0542 -0.1212
  156SAPE   H8X17444   0.672   5.809   9.434 -0.1193  0.7336  0.8263
  156SAPE   H8Y17445   0.748   5.679   9.535 -1.2121 -0.6493 -1.3651
  156SAPE   C3917446   0.840   5.694   9.349 -0.1119  0.1463  1.1190
  156SAPE   H9X17447   0.785   5.615   9.294  0.8180  0.2549 -0.0098
  156SAPE   H9Y17448   0.932   5.660   9.400  0.6252  1.3079  0.6124
  156SAPE  C31017449   0.881   5.796   9.242 -0.1913 -0.2570  1.1941
  156SAPE  H10X17450   0.950   5.874   9.279 -0.6354  1.7255 -1.8127
  156SAPE  H10Y17451   0.789   5.849   9.209 -0.4448 -0.8981  0.8323
  156SAPE  C31117452   0.957   5.734   9.124 -0.3343  0.8550  0.7142
  156SAPE  H11X17453   0.940   5.788   9.029 -0.6583 -0.6806 -0.1387
  156SAPE  H11Y17454   0.919   5.631   9.107 -1.4708  1.2663  0.6543
  156SAPE  C31217455   1.110   5.725   9.146  0.2507  0.8904  0.1502
  156SAPE  H12X17456   1.125   5.719   9.256  0.0542  2.6259  0.2953
  156SAPE  H12Y17457   1.156   5.821   9.116  0.1213  1.0487  0.4568
  156SAPE  C31317458   1.190   5.608   9.074  0.1914 -0.1560 -0.3188
  156SAPE  H13X17459   1.141   5.515   9.109  3.5279 -1.6862  0.6428
  156SAPE  H13Y17460   1.292   5.602   9.117 -0.0729  0.9517  0.5191
  156SAPE  C31417461   1.177   5.640   8.930  0.4416 -0.1832  0.3241
  156SAPE  H14X17462   1.077   5.683   8.911  0.8206  0.3219 -0.5773
  156SAPE  H14Y17463   1.187   5.544   8.874 -1.7154 -0.8243  0.9339
  156SAPE  C31517464   1.278   5.745   8.884  0.2561  0.0480  0.0753
  156SAPE  H15X17465   1.382   5.707   8.894  1.3372  2.7381 -0.1291
  156SAPE  H15Y17466   1.278   5.838   8.945  3.5528  0.9605 -1.1159
  156SAPE  C31617467   1.240   5.786   8.740  0.2559 -0.3817  0.7271
  156SAPE  H16X17468   1.131   5.808   8.731  0.5747  1.3338  0.6636
  156SAPE  H16Y17469   1.242   5.702   8.667 -4.0556  0.9209 -1.2447
  156SAPE  C31717470   1.324   5.910   8.676 -0.1577  0.8233  0.3315
  156SAPE  H17X17471   1.311   5.992   8.750  0.4058 -0.5348  2.0079
  156SAPE  H17Y17472   1.274   5.924   8.578  1.5585  2.6094 -0.3686
  156SAPE  C31817473   1.471   5.879   8.657 -0.5790  0.2390  0.0894
  156SAPE  H18X17474   1.462   5.784   8.601 -2.1786 -0.0070  0.7158
  156SAPE  H18Y17475   1.535   5.857   8.745  2.4803 -0.3689 -2.1270
  156SAPE  H18Z17476   1.527   5.959   8.603  0.0539  0.4728  1.0648
  157SAPE     N17477   0.532   0.457  11.176  0.2402 -0.5393 -0.5236
  157SAPE   HN117478   0.429   0.457  11.183  0.0433  1.7213 -2.2743
  157SAPE   HN217479   0.565   0.424  11.083 -1.4663 -0.8676 -1.0338
  157SAPE   HN317480   0.574   0.400  11.252  1.6770 -1.6752 -2.1022
  157SAPE   C1217481   0.563   0.603  11.183  0.2610 -1.2204  0.6002
  157SAPE  H12A17482   0.668   0.621  11.151 -0.5158 -1.8926 -2.6702
  157SAPE  H12B17483   0.535   0.645  11.282  0.4046 -0.0647  0.1733
  157SAPE   C1117484   0.490   0.682  11.067 -0.2418 -0.6409 -0.0235
  157SAPE  H11A17485   0.519   0.639  10.969  2.7358 -0.6032  0.7636
  157SAPE  H11B17486   0.520   0.788  11.078 -2.1274 -0.3452  3.6845
  157SAPE     P17487   0.255   0.728  10.969 -0.3153  0.0004 -0.0588
  157SAPE   O1317488   0.251   0.621  10.868  0.0682  0.0343 -0.4445
  157SAPE   O1417489   0.121   0.768  11.030 -0.5860  0.6726 -0.5084
  157SAPE   O1217490   0.351   0.678  11.088  0.5607  0.2613 -0.7982
  157SAPE   O1117491   0.326   0.850  10.895  0.3907 -0.3287 -0.2797
  157SAPE    C117492   0.289   0.986  10.925  0.1878  0.1370  0.7422
  157SAPE    HA17493   0.265   1.000  11.032 -0.9168  0.4739  0.4679
  157SAPE    HB17494   0.373   1.055  10.901 -1.8958  3.5178  2.4445
  157SAPE    C217495   0.164   1.031  10.842 -0.4667 -1.0280 -0.5989
  157SAPE    HS17496   0.081   0.976  10.891  0.5674 -2.9364 -0.9013
  157SAPE   O2117497   0.185   1.018  10.697 -0.3011  0.3924  0.2173
  157SAPE   C2117498   0.115   0.907  10.649 -0.9287 -0.1870  0.6954
  157SAPE   O2217499   0.056   0.826  10.720  0.1876 -0.9921  0.1390
  157SAPE   C2217500   0.122   0.900  10.501 -0.5875  0.3690 -0.3664
  157SAPE   H2R17501   0.214   0.951  10.464  0.5654 -1.0992  0.3433
  157SAPE   H2S17502   0.127   0.792  10.474 -1.7413  0.2465 -0.1398
  157SAPE    C317503   0.141   1.186  10.857 -0.9841  0.6512  0.5794
  157SAPE    HX17504   0.221   1.243  10.806 -1.3847  1.4039  0.7893
  157SAPE    HY17505   0.141   1.218  10.963  1.5068  1.6551  0.3474
  157SAPE   O3117506   0.022   1.226  10.790 -0.5916 -0.4901 -0.3439
  157SAPE   C3117507  -0.090   1.256  10.868 -0.7165  0.0338 -0.1793
  157SAPE   O3217508  -0.087   1.265  10.990 -0.6186  0.3980  0.6647
  157SAPE   C3217509  -0.217   1.232  10.783 -0.2610  0.5559  0.3131
  157SAPE   H2X17510  -0.304   1.294  10.815  0.2447  0.9171  1.0267
  157SAPE   H2Y17511  -0.241   1.124  10.789  1.1364  0.2573  0.9012
  157SAPE   C2317512  -0.010   0.944  10.436  0.4115  0.4860  0.9546
  157SAPE   H3R17513   0.005   1.054  10.426 -0.4611  0.5955  0.8401
  157SAPE   H3S17514  -0.099   0.923  10.499 -0.1225 -0.8880 -0.2179
  157SAPE   C2417515  -0.031   0.880  10.300 -0.7747 -0.0758 -0.4155
  157SAPE   H4R17516  -0.128   0.919  10.262 -0.0806 -0.1033 -2.3263
  157SAPE   H4S17517  -0.026   0.770  10.312  1.8923 -0.0095 -0.2624
  157SAPE   C2517518   0.081   0.921  10.205 -0.2172 -0.0449  0.7364
  157SAPE   H5R17519   0.181   0.896  10.245  0.2509 -2.3502 -1.6085
  157SAPE   C2617520   0.070   0.971  10.075  0.5886  0.7134  0.2254
  157SAPE   H6R17521   0.157   1.006  10.017 -0.3039 -0.8138 -2.1992
  157SAPE   C2717522  -0.055   0.996   9.996 -0.4004  0.2861  0.7578
  157SAPE   H7R17523  -0.145   0.963  10.053  1.8174 -1.1434  3.7138
  157SAPE   H7S17524  -0.045   0.922   9.914 -1.0075  0.8577  0.1514
  157SAPE   C2817525  -0.067   1.128   9.933  0.1570 -0.8163 -0.2452
  157SAPE   H8R17526  -0.083   1.205  10.010 -0.2509  0.9731 -2.0125
  157SAPE   C2917527  -0.054   1.157   9.805 -0.5750  0.7388  0.2013
  157SAPE   H9R17528  -0.045   1.265   9.784  2.1020  0.3128 -1.2824
  157SAPE  C21017529  -0.048   1.057   9.689  0.2398 -0.7230 -1.1598
  157SAPE  H10R17530   0.028   0.978   9.705  1.1203 -0.1534 -2.3346
  157SAPE  H10S17531  -0.011   1.111   9.599  1.0271 -2.0362 -1.6452
  157SAPE  C21117532  -0.175   0.985   9.647  0.0260  0.1987  0.8517
  157SAPE  H11R17533  -0.251   0.969   9.724 -1.6485  0.8240 -0.5917
  157SAPE  C21217534  -0.189   0.925   9.527  0.0747  0.2871  0.6802
  157SAPE  H12R17535  -0.288   0.884   9.505  0.1482 -0.6237  1.9212
  157SAPE  C21317536  -0.090   0.920   9.415 -0.5558 -0.1066  0.2368
  157SAPE  H13R17537  -0.048   0.817   9.413  0.8041  0.4348 -2.2993
  157SAPE  H13S17538   0.000   0.983   9.428 -1.1982  0.4713  2.3295
  157SAPE  C21417539  -0.160   0.953   9.283  0.0613  0.4237  0.3208
  157SAPE  H14R17540  -0.182   1.061   9.279 -0.0426  0.3910 -0.0029
  157SAPE  C21517541  -0.203   0.879   9.183 -0.0803 -0.1266  0.3252
  157SAPE  H15R17542  -0.251   0.928   9.097  2.2535 -0.5361 -1.2852
  157SAPE  C21617543  -0.196   0.729   9.178  0.0648  0.1209  0.0114
  157SAPE  H16R17544  -0.287   0.684   9.222  0.7639  0.6520  2.1505
  157SAPE  H16S17545  -0.105   0.694   9.231 -1.2958 -0.4652  2.0462
  157SAPE  C21717546  -0.174   0.692   9.033 -0.3433  1.0275 -0.0219
  157SAPE  H17R17547  -0.069   0.714   9.007  0.0442  0.3154  0.8601
  157SAPE  H17S17548  -0.240   0.751   8.966 -0.6775  2.5868  1.6088
  157SAPE  C21817549  -0.185   0.543   8.993  0.8717 -0.2086  0.0760
  157SAPE  H18R17550  -0.259   0.498   9.061  0.8741  0.4177  0.4985
  157SAPE  H18S17551  -0.085   0.496   9.011  0.4666 -0.4623  1.8042
  157SAPE  C21917552  -0.238   0.518   8.850 -0.4995 -0.4235  1.2084
  157SAPE  H19R17553  -0.165   0.577   8.790  0.0948  0.0620  2.3714
  157SAPE  H19S17554  -0.345   0.548   8.849 -0.2088  0.9047 -1.7102
  157SAPE  C22017555  -0.225   0.374   8.801 -0.2239 -0.2404 -0.3960
  157SAPE  H20R17556  -0.255   0.377   8.694 -0.1866  4.1586 -0.4504
  157SAPE  H20S17557  -0.293   0.302   8.852  0.5671 -2.2196 -1.9989
  157SAPE  H20T17558  -0.118   0.345   8.802 -0.3867 -0.8635  1.2544
  157SAPE   C3317559  -0.184   1.263  10.633 -0.5388 -0.0855  0.1121
  157SAPE   H3X17560  -0.116   1.189  10.585 -1.9732 -0.4843 -1.4189
  157SAPE   H3Y17561  -0.129   1.359  10.643  0.0560 -0.4175  0.0608
  157SAPE   C3417562  -0.313   1.279  10.554  0.1253  0.6439 -0.2430
  157SAPE   H4X17563  -0.386   1.350  10.599  2.3468  2.9943 -0.1325
  157SAPE   H4Y17564  -0.365   1.181  10.555 -0.9236  1.1758  1.0426
  157SAPE   C3517565  -0.279   1.314  10.410 -0.0199 -0.1766 -0.7909
  157SAPE   H5X17566  -0.180   1.264  10.398 -0.2911 -1.0083  0.2481
  157SAPE   H5Y17567  -0.260   1.423  10.403  1.3301 -0.1894  1.6300
  157SAPE   C3617568  -0.383   1.261  10.301 -0.0856 -0.2235  0.2830
  157SAPE   H6X17569  -0.463   1.338  10.292 -2.4781 -2.4400  1.2406
  157SAPE   H6Y17570  -0.429   1.171  10.349 -1.1836 -0.6415 -1.4486
  157SAPE   C3717571  -0.324   1.235  10.166  0.5337  0.1268 -0.0770
  157SAPE   H7X17572  -0.236   1.167  10.173 -1.8409 -3.1986 -0.4988
  157SAPE   H7Y17573  -0.291   1.333  10.125 -1.6647  2.1402  2.5983
  157SAPE   C3817574  -0.429   1.173  10.071  0.4020 -0.6078  0.0717
  157SAPE   H8X17575  -0.518   1.239  10.067  1.1462  0.4677  0.7090
  157SAPE   H8Y17576  -0.457   1.077  10.120  0.0582 -0.5330  0.0268
  157SAPE   C3917577  -0.391   1.148   9.926 -0.4460  0.0068 -0.1540
  157SAPE   H9X17578  -0.341   1.049   9.920  0.4714  0.3762  0.9711
  157SAPE   H9Y17579  -0.324   1.226   9.885 -1.2697  0.3082 -0.9523
  157SAPE  C31017580  -0.522   1.138   9.849 -0.0701  0.0237  0.1103
  157SAPE  H10X17581  -0.576   1.235   9.838 -0.3550 -0.0684  0.6708
  157SAPE  H10Y17582  -0.582   1.067   9.910  0.2654  0.1303  0.5652
  157SAPE  C31117583  -0.514   1.081   9.704 -0.2976 -0.3281  0.8806
  157SAPE  H11X17584  -0.487   0.974   9.715 -0.6937 -0.3789  1.4139
  157SAPE  H11Y17585  -0.443   1.143   9.646 -1.1247  0.3360  0.5424
  157SAPE  C31217586  -0.641   1.079   9.619 -0.1324  0.0300  0.6215
  157SAPE  H12X17587  -0.669   1.181   9.584  2.1422 -0.2267 -2.3061
  157SAPE  H12Y17588  -0.717   1.038   9.688  1.7214 -0.7737  2.2695
  157SAPE  C31317589  -0.620   1.006   9.486  0.2826  0.4487 -0.2984
  157SAPE  H13X17590  -0.612   0.897   9.507 -0.6529  0.7394  1.7976
  157SAPE  H13Y17591  -0.526   1.037   9.434  0.2191 -1.5346 -1.7527
  157SAPE  C31417592  -0.745   1.029   9.393  0.2514 -0.1618  0.8970
  157SAPE  H14X17593  -0.842   0.989   9.431 -1.3452  1.1672 -1.5136
  157SAPE  H14Y17594  -0.728   0.980   9.295 -2.6443 -0.8765  0.6423
  157SAPE  C31517595  -0.779   1.167   9.346  0.0436  0.3955  0.3543
  157SAPE  H15X17596  -0.683   1.223   9.342  1.2859 -1.6879 -1.1823
  157SAPE  H15Y17597  -0.853   1.208   9.418  1.0983 -3.4628  4.0162
  157SAPE  C31617598  -0.827   1.174   9.195 -0.2551  0.1840 -0.8607
  157SAPE  H16X17599  -0.904   1.096   9.180 -0.6186  0.1177  1.0469
  157SAPE  H16Y17600  -0.742   1.148   9.128  1.4815  0.3984  1.1175
  157SAPE  C31717601  -0.873   1.321   9.155  0.2953  0.1292 -0.4956
  157SAPE  H17X17602  -0.794   1.389   9.194  0.1614 -0.1626  0.2933
  157SAPE  H17Y17603  -0.962   1.352   9.214  0.3220  0.0070 -0.3913
  157SAPE  C31817604  -0.913   1.345   9.011 -0.6361 -0.7857  0.3599
  157SAPE  H18X17605  -0.910   1.453   8.986 -1.4915 -0.9292 -0.4574
  157SAPE  H18Y17606  -1.019   1.316   8.994 -1.7501  2.2799  1.3703
  157SAPE  H18Z17607  -0.848   1.290   8.940  0.7269 -1.0914  1.8087
  158SAPE     N17608   1.458   1.615  10.894  0.1643 -0.4617 -0.2787
  158SAPE   HN117609   1.536   1.553  10.924  1.9795  0.7242 -2.3073
  158SAPE   HN217610   1.500   1.689  10.834  0.3769  0.3472  0.8297
  158SAPE   HN317611   1.423   1.654  10.984  2.2511  1.7004 -0.2828
  158SAPE   C1217612   1.349   1.548  10.818 -0.1307  0.2194 -0.3588
  158SAPE  H12A17613   1.327   1.453  10.872  0.1581 -0.8605 -2.0716
  158SAPE  H12B17614   1.386   1.525  10.716 -0.3379  2.2235 -0.9374
  158SAPE   C1117615   1.229   1.634  10.806  0.6665 -0.4723 -0.5873
  158SAPE  H11A17616   1.148   1.591  10.743  0.8492  1.9903 -2.6492
  158SAPE  H11B17617   1.249   1.737  10.769  0.8313  0.9580  3.0428
  158SAPE     P17618   1.045   1.584  10.998  0.2467  0.0988  0.5427
  158SAPE   O1317619   1.078   1.450  11.058 -0.3510 -0.0869  0.8188
  158SAPE   O1417620   0.988   1.675  11.094  0.0874  0.0936  0.6229
  158SAPE   O1217621   1.172   1.652  10.938 -0.0730 -0.6721  0.3276
  158SAPE   O1117622   0.945   1.558  10.883 -0.2237 -0.3075  0.5529
  158SAPE    C117623   0.873   1.660  10.822 -0.0645 -1.0850 -0.0124
  158SAPE    HA17624   0.794   1.698  10.891  1.1549  1.3870  0.1265
  158SAPE    HB17625   0.938   1.745  10.794 -1.6705  0.5421  0.9889
  158SAPE    C217626   0.812   1.609  10.694 -1.3521  0.0863 -0.2798
  158SAPE    HS17627   0.746   1.521  10.709  0.4544 -1.4278 -0.7572
  158SAPE   O2117628   0.914   1.588  10.587 -0.2310  0.0297 -1.0128
  158SAPE   C2117629   0.951   1.464  10.589 -0.1698 -0.1663 -1.0426
  158SAPE   O2217630   0.910   1.382  10.672 -0.0181 -0.1750  1.2181
  158SAPE   C2217631   1.041   1.435  10.478  0.4865  0.4357  0.1377
  158SAPE   H2R17632   0.973   1.427  10.390  0.2062 -0.4196  0.4225
  158SAPE   H2S17633   1.102   1.527  10.468 -0.4222  1.2877  2.0213
  158SAPE    C317634   0.710   1.713  10.641 -0.1348 -0.7722  0.4138
  158SAPE    HX17635   0.761   1.811  10.625 -2.3826  0.2133 -1.2605
  158SAPE    HY17636   0.633   1.716  10.720  2.0760 -1.4700  2.7150
  158SAPE   O3117637   0.648   1.667  10.515  0.1022  0.3622  0.3200
  158SAPE   C3117638   0.704   1.713  10.407 -0.0846  0.0925 -0.5822
  158SAPE   O3217639   0.799   1.790  10.400 -0.1080  0.0754 -0.2174
  158SAPE   C3217640   0.630   1.662  10.279 -0.0364 -0.3938  0.0159
  158SAPE   H2X17641   0.558   1.743  10.252 -0.7571 -1.7232 -2.3584
  158SAPE   H2Y17642   0.571   1.572  10.307 -2.0048 -0.3706 -3.5047
  158SAPE   C2317643   1.133   1.313  10.482 -0.4493 -0.0726 -0.0959
  158SAPE   H3R17644   1.076   1.219  10.497 -0.5587 -0.2335 -1.3440
  158SAPE   H3S17645   1.208   1.317  10.564  0.3227 -0.9122 -0.7345
  158SAPE   C2417646   1.194   1.289  10.344  0.0675  1.1635 -0.2566
  158SAPE   H4R17647   1.108   1.272  10.276 -0.3326 -1.4706  0.7785
  158SAPE   H4S17648   1.255   1.199  10.368  0.5826  1.4057 -0.6472
  158SAPE   C2517649   1.279   1.413  10.295  0.1715 -0.3682 -0.6531
  158SAPE   H5R17650   1.355   1.449  10.366 -0.3123 -1.3224  0.3897
  158SAPE   C2617651   1.262   1.463  10.174 -0.7244 -0.1289  0.5767
  158SAPE   H6R17652   1.333   1.541  10.144  0.0386 -1.2719 -0.7367
  158SAPE   C2717653   1.165   1.417  10.071  0.1303  0.3744 -0.5750
  158SAPE   H7R17654   1.162   1.500   9.997  0.9014 -0.2153 -1.2904
  158SAPE   H7S17655   1.064   1.398  10.112 -0.2012 -1.1176 -2.0040
  158SAPE   C2817656   1.214   1.296  10.003  0.4680  0.4991  0.3821
  158SAPE   H8R17657   1.277   1.233  10.067  0.3057  1.0072  1.0439
  158SAPE   C2917658   1.191   1.272   9.872 -0.1928  0.5318  0.1043
  158SAPE   H9R17659   1.215   1.174   9.829 -1.4761  0.3379 -0.2158
  158SAPE  C21017660   1.107   1.356   9.776 -0.2155  0.2321 -0.4139
  158SAPE  H10R17661   1.037   1.417   9.837  1.3545 -0.3039  2.0861
  158SAPE  H10S17662   1.040   1.283   9.727  0.7015 -0.6733 -0.3628
  158SAPE  C21117663   1.190   1.445   9.689 -0.1184 -0.1991  0.3976
  158SAPE  H11R17664   1.259   1.521   9.727  1.0949 -0.8752 -0.3979
  158SAPE  C21217665   1.186   1.446   9.551 -0.5198  0.1972 -0.2699
  158SAPE  H12R17666   1.252   1.514   9.495 -0.2359 -1.0467 -1.5223
  158SAPE  C21317667   1.092   1.371   9.467 -0.8503 -0.0856  0.3363
  158SAPE  H13R17668   1.000   1.362   9.529  0.2330  1.8991  2.3872
  158SAPE  H13S17669   1.126   1.274   9.424 -4.1575 -0.1029 -2.7100
  158SAPE  C21417670   1.049   1.454   9.349 -0.1125  0.2025  0.3187
  158SAPE  H14R17671   1.021   1.555   9.383 -0.1114 -0.5442  2.6771
  158SAPE  C21517672   1.037   1.408   9.223 -0.2476  0.4936  0.3296
  158SAPE  H15R17673   0.991   1.480   9.154 -0.8906 -0.8422 -0.6701
  158SAPE  C21617674   1.069   1.269   9.172  0.1132 -0.5737  0.2526
  158SAPE  H16R17675   1.177   1.257   9.195 -0.3375 -0.4888  2.6385
  158SAPE  H16S17676   1.058   1.264   9.061 -0.7867  1.7929  0.1732
  158SAPE  C21717677   0.995   1.146   9.223  0.1430 -0.5145  0.0241
  158SAPE  H17R17678   0.915   1.119   9.151  0.9763 -0.6999 -0.8621
  158SAPE  H17S17679   0.948   1.175   9.319 -0.6240  3.3672 -1.3511
  158SAPE  C21817680   1.087   1.025   9.248 -0.7945  0.2537 -0.2041
  158SAPE  H18R17681   1.035   0.960   9.322 -2.0238  1.0218 -0.3626
  158SAPE  H18S17682   1.180   1.065   9.293 -1.2824  1.7438 -0.4632
  158SAPE  C21917683   1.099   0.940   9.127  0.2116  0.0462 -0.0369
  158SAPE  H19R17684   1.160   0.983   9.045  3.1037 -2.7743  0.4361
  158SAPE  H19S17685   0.999   0.933   9.079  0.4787 -0.8997 -0.4838
  158SAPE  C22017686   1.157   0.798   9.162 -0.6637 -0.2901 -0.4117
  158SAPE  H20R17687   1.265   0.807   9.189 -0.4814 -0.6212 -1.0184
  158SAPE  H20S17688   1.145   0.726   9.078  1.9847  0.2644 -1.3548
  158SAPE  H20T17689   1.101   0.752   9.247 -1.9013  1.2351 -0.3734
  158SAPE   C3317690   0.718   1.622  10.157 -0.1365  0.2580 -1.1636
  158SAPE   H3X17691   0.799   1.697  10.152  0.3922 -0.2773 -0.7520
  158SAPE   H3Y17692   0.652   1.635  10.069 -0.1233 -0.2480 -1.2545
  158SAPE   C3417693   0.753   1.473  10.162  0.2166  0.0619  0.5181
  158SAPE   H4X17694   0.662   1.410  10.171  0.9330 -1.3940 -1.5460
  158SAPE   H4Y17695   0.818   1.450  10.249 -0.1797 -1.0896  0.5216
  158SAPE   C3517696   0.806   1.420  10.018  0.6217 -0.6765 -0.7462
  158SAPE   H5X17697   0.847   1.325  10.058  0.0927 -0.8254 -0.5634
  158SAPE   H5Y17698   0.882   1.496   9.989 -1.6692  1.2829 -1.9263
  158SAPE   C3617699   0.688   1.383   9.921 -0.6604  0.1396  0.5899
  158SAPE   H6X17700   0.644   1.484   9.906 -0.6739  0.0123 -0.2441
  158SAPE   H6Y17701   0.614   1.310   9.960  0.1066 -0.5456  0.7821
  158SAPE   C3717702   0.736   1.326   9.785 -0.6105  0.8817 -0.0765
  158SAPE   H7X17703   0.804   1.243   9.816 -0.3574  1.3917  0.7717
  158SAPE   H7Y17704   0.794   1.409   9.739 -2.1198  1.3739 -1.1800
  158SAPE   C3817705   0.627   1.290   9.685  0.9616 -0.1653  0.7981
  158SAPE   H8X17706   0.562   1.380   9.681  0.3190 -0.5980  1.2432
  158SAPE   H8Y17707   0.557   1.215   9.727 -3.3698  3.0992  0.0751
  158SAPE   C3917708   0.671   1.238   9.550 -0.2567  0.1361  0.0722
  158SAPE   H9X17709   0.755   1.167   9.562 -2.0399 -2.4423 -1.7016
  158SAPE   H9Y17710   0.710   1.333   9.507  0.3843 -0.2502 -0.2143
  158SAPE  C31017711   0.555   1.200   9.449  0.2563 -0.1137  0.2639
  158SAPE  H10X17712   0.463   1.262   9.461 -0.5077 -1.0755 -0.5139
  158SAPE  H10Y17713   0.516   1.099   9.473 -2.7423  0.4052 -1.9143
  158SAPE  C31117714   0.591   1.195   9.295  0.3844 -0.5959 -0.2921
  158SAPE  H11X17715   0.504   1.145   9.248 -0.3625 -0.5610  0.9862
  158SAPE  H11Y17716   0.681   1.131   9.286  1.8875  1.6079 -1.5870
  158SAPE  C31217717   0.627   1.331   9.243  0.4266 -0.7608 -0.1491
  158SAPE  H12X17718   0.725   1.359   9.289  0.2865 -3.3036  1.9205
  158SAPE  H12Y17719   0.561   1.411   9.283  1.1379 -0.7633  1.1025
  158SAPE  C31317720   0.635   1.339   9.090 -0.1659  0.4428  0.4332
  158SAPE  H13X17721   0.542   1.302   9.043  0.4969  0.2229 -0.7497
  158SAPE  H13Y17722   0.709   1.261   9.062 -0.8492 -0.2646  0.5838
  158SAPE  C31417723   0.690   1.472   9.035  0.4241 -0.6169 -0.1904
  158SAPE  H14X17724   0.695   1.462   8.924  3.7267  1.3906 -0.3398
  158SAPE  H14Y17725   0.787   1.497   9.082 -0.8154  1.0060  1.6550
  158SAPE  C31517726   0.591   1.591   9.065  1.0004  0.6879  0.4155
  158SAPE  H15X17727   0.624   1.693   9.037 -1.0050  0.9350 -1.3331
  158SAPE  H15Y17728   0.588   1.608   9.175 -0.9214  0.9328  0.3582
  158SAPE  C31617729   0.450   1.557   9.009  0.5818 -0.2714 -0.8279
  158SAPE  H16X17730   0.367   1.623   9.042 -1.5548 -1.7311 -2.9260
  158SAPE  H16Y17731   0.420   1.458   9.050  0.7819  0.2719  0.7099
  158SAPE  C31717732   0.436   1.549   8.854  0.0249 -0.8631 -0.2272
  158SAPE  H17X17733   0.498   1.464   8.819  2.2185  1.1162 -1.4578
  158SAPE  H17Y17734   0.479   1.644   8.814 -0.9669 -0.3228 -0.0445
  158SAPE  C31817735   0.293   1.533   8.797  0.4939  0.3214  0.2834
  158SAPE  H18X17736   0.296   1.532   8.686  1.2492  1.1364  0.2915
  158SAPE  H18Y17737   0.228   1.616   8.832 -0.0638  0.7460 -1.6506
  158SAPE  H18Z17738   0.249   1.441   8.840 -2.2250  1.8626  1.0667
  159SAPE     N17739   2.843   5.779   6.597  0.3030 -0.0789  0.7460
  159SAPE   HN117740   2.876   5.785   6.498 -1.0017 -0.5356  0.2700
  159SAPE   HN217741   2.792   5.689   6.596  1.5268 -0.7860  0.0292
  159SAPE   HN317742   2.776   5.857   6.614  0.2083 -0.2607  1.2201
  159SAPE   C1217743   2.949   5.792   6.698  0.2181  0.8787  0.0601
  159SAPE  H12A17744   2.904   5.799   6.799  2.2789 -1.6183  1.2635
  159SAPE  H12B17745   3.012   5.882   6.678  0.8724  1.2844  3.3327
  159SAPE   C1117746   3.042   5.664   6.710 -0.5546 -0.5819  0.1442
  159SAPE  H11A17747   2.976   5.576   6.727  2.3640 -2.6171  1.7958
  159SAPE  H11B17748   3.104   5.678   6.801  0.7031 -2.0955 -0.4219
  159SAPE     P17749   3.193   5.510   6.566 -0.1208 -0.6990 -0.2989
  159SAPE   O1317750   3.128   5.469   6.441  0.2717 -0.0084  0.1401
  159SAPE   O1417751   3.340   5.514   6.563  0.1428  0.3153 -0.1092
  159SAPE   O1217752   3.133   5.654   6.599  0.3920 -0.5345  0.2667
  159SAPE   O1117753   3.149   5.425   6.687 -0.1115  0.1918  0.4221
  159SAPE    C117754   3.134   5.284   6.686  0.1566 -0.1156 -0.2467
  159SAPE    HA17755   3.043   5.243   6.638  0.8149  0.1370 -1.7481
  159SAPE    HB17756   3.221   5.244   6.629 -0.3597 -0.8330 -0.5402
  159SAPE    C217757   3.152   5.223   6.825 -0.6160  0.5223 -0.9403
  159SAPE    HS17758   3.119   5.117   6.813  1.7836 -0.3992 -0.0181
  159SAPE   O2117759   3.081   5.287   6.932 -0.2687 -0.2480 -0.6315
  159SAPE   C2117760   2.952   5.279   6.926 -0.6671  0.4360  0.2746
  159SAPE   O2217761   2.880   5.241   6.833 -0.4773 -0.7222 -0.5065
  159SAPE   C2217762   2.903   5.329   7.058 -0.1544  0.0884 -0.0070
  159SAPE   H2R17763   2.797   5.296   7.052  0.2500 -1.2405 -0.3134
  159SAPE   H2S17764   2.952   5.289   7.150 -2.7066 -0.5821  1.1395
  159SAPE    C317765   3.306   5.228   6.863  0.2502 -0.9617  0.6207
  159SAPE    HX17766   3.329   5.330   6.898  0.7213 -1.0895  0.6824
  159SAPE    HY17767   3.372   5.208   6.776  2.4030  0.2923  1.8891
  159SAPE   O3117768   3.343   5.138   6.968 -0.2102  0.1253  0.4534
  159SAPE   C3117769   3.316   5.011   6.965  0.1687 -0.2222 -0.0946
  159SAPE   O3217770   3.277   4.944   6.876 -0.1757 -0.4874  0.2443
  159SAPE   C3217771   3.345   4.950   7.109  0.2012 -0.7697  0.2180
  159SAPE   H2X17772   3.362   5.038   7.174 -0.8218 -0.3477 -0.0691
  159SAPE   H2Y17773   3.433   4.882   7.109 -0.0793 -1.1810  2.0457
  159SAPE   C2317774   2.927   5.485   7.094  0.0875  1.2298  0.2296
  159SAPE   H3R17775   2.905   5.553   7.008 -3.9245 -0.5193 -0.3347
  159SAPE   H3S17776   3.036   5.488   7.116  0.9915 -2.4791 -2.7105
  159SAPE   C2417777   2.837   5.520   7.213 -0.3185  0.0442 -0.3154
  159SAPE   H4R17778   2.866   5.615   7.262  0.0590  0.0425 -0.5312
  159SAPE   H4S17779   2.855   5.446   7.294  0.9936  0.9274  0.2491
  159SAPE   C2517780   2.694   5.525   7.177  0.4422  0.7433  0.1077
  159SAPE   H5R17781   2.669   5.492   7.075  1.0300  0.5799  0.0139
  159SAPE   C2617782   2.595   5.575   7.257  0.4518  0.3963 -0.1700
  159SAPE   H6R17783   2.490   5.565   7.227 -0.0173  1.0956  1.1568
  159SAPE   C2717784   2.615   5.637   7.396  0.0206 -0.2233  0.0718
  159SAPE   H7R17785   2.525   5.698   7.419  1.0972  0.9411  1.3700
  159SAPE   H7S17786   2.701   5.707   7.396 -0.0989 -0.0752 -0.2239
  159SAPE   C2817787   2.635   5.532   7.493 -0.0298  0.5087 -0.2897
  159SAPE   H8R17788   2.605   5.429   7.466  1.6969  0.0351 -0.4953
  159SAPE   C2917789   2.687   5.549   7.617 -0.2049  0.4010  0.4572
  159SAPE   H9R17790   2.700   5.464   7.685  0.8114 -0.2158 -0.4659
  159SAPE  C21017791   2.750   5.673   7.685 -0.2111  0.4494  0.3803
  159SAPE  H10R17792   2.831   5.714   7.621  0.9022 -0.8841  0.8887
  159SAPE  H10S17793   2.810   5.652   7.776 -0.6808  1.5051  0.9503
  159SAPE  C21117794   2.645   5.774   7.716  0.1953 -0.1617  0.0750
  159SAPE  H11R17795   2.634   5.847   7.635  1.9928 -1.7992 -1.7558
  159SAPE  C21217796   2.590   5.805   7.840  0.3861 -0.4607  0.1656
  159SAPE  H12R17797   2.505   5.875   7.849  1.8819  1.7058 -1.4201
  159SAPE  C21317798   2.609   5.731   7.971 -0.8494  0.2724  0.4884
  159SAPE  H13R17799   2.693   5.779   8.025  0.0423  0.9643 -1.4187
  159SAPE  H13S17800   2.649   5.629   7.952  2.1003  1.6141 -1.3146
  159SAPE  C21417801   2.489   5.716   8.058  0.4599 -0.0012  0.2920
  159SAPE  H14R17802   2.411   5.651   8.015 -1.2456  1.6638  0.7268
  159SAPE  C21517803   2.465   5.780   8.175  0.1056 -0.0061  0.3797
  159SAPE  H15R17804   2.374   5.755   8.232 -0.0512  1.0049  0.5938
  159SAPE  C21617805   2.566   5.864   8.253  0.8226  0.3821  0.5257
  159SAPE  H16R17806   2.526   5.967   8.240  0.1419  0.1422  0.6806
  159SAPE  H16S17807   2.669   5.858   8.213  0.2230  0.4738 -1.0800
  159SAPE  C21717808   2.561   5.819   8.405 -0.5932  0.3168  0.1600
  159SAPE  H17R17809   2.458   5.799   8.441 -2.0169  0.3360 -3.5050
  159SAPE  H17S17810   2.616   5.893   8.467  0.0572 -1.5697  1.9652
  159SAPE  C21817811   2.642   5.688   8.425 -0.3075 -0.0312  0.5654
  159SAPE  H18R17812   2.738   5.708   8.373  0.0085 -2.1468  0.2463
  159SAPE  H18S17813   2.600   5.611   8.356 -2.8573  1.3777  0.4328
  159SAPE  C21917814   2.663   5.645   8.569  0.2978  0.3521 -0.9859
  159SAPE  H19R17815   2.706   5.733   8.622 -0.8070  0.1176  0.3678
  159SAPE  H19S17816   2.743   5.569   8.576 -0.3244 -0.1968  0.5887
  159SAPE  C22017817   2.539   5.592   8.644 -0.4761 -0.1001 -0.7205
  159SAPE  H20R17818   2.509   5.498   8.594  1.4946 -1.0057 -0.3024
  159SAPE  H20S17819   2.455   5.664   8.633 -0.1990  0.3182 -0.1385
  159SAPE  H20T17820   2.562   5.577   8.752  0.7885  1.2834 -0.7596
  159SAPE   C3317821   3.224   4.870   7.162 -0.2038 -0.3982  0.4726
  159SAPE   H3X17822   3.180   4.790   7.098  2.7345 -0.1004 -2.1770
  159SAPE   H3Y17823   3.147   4.950   7.171  3.1501  3.2910 -0.8964
  159SAPE   C3417824   3.242   4.818   7.307  0.1881  0.6639 -0.3052
  159SAPE   H4X17825   3.142   4.781   7.339 -0.3063  0.4677 -1.9511
  159SAPE   H4Y17826   3.270   4.901   7.375  0.6312 -1.0866  1.7685
  159SAPE   C3517827   3.345   4.699   7.319  0.5385 -0.9079 -0.4325
  159SAPE   H5X17828   3.442   4.733   7.279 -0.8789  0.0848 -3.2601
  159SAPE   H5Y17829   3.306   4.619   7.252  0.4712 -2.0903  0.9402
  159SAPE   C3617830   3.363   4.645   7.457 -0.2235 -0.0249  0.2353
  159SAPE   H6X17831   3.266   4.628   7.509  0.0863  0.0871  0.8614
  159SAPE   H6Y17832   3.400   4.731   7.518  0.3928 -0.3091  0.2710
  159SAPE   C3717833   3.458   4.530   7.458 -0.1511  0.8385  0.0599
  159SAPE   H7X17834   3.556   4.569   7.421  0.2057  0.7354  0.8677
  159SAPE   H7Y17835   3.430   4.451   7.385 -4.7434  1.4824  0.8716
  159SAPE   C3817836   3.493   4.460   7.595  0.2533 -0.3948 -0.0801
  159SAPE   H8X17837   3.565   4.382   7.565  0.2677  0.5271 -2.7903
  159SAPE   H8Y17838   3.403   4.414   7.641 -0.4182  1.3162  0.4003
  159SAPE   C3917839   3.546   4.560   7.691 -0.3311 -0.4037 -0.1007
  159SAPE   H9X17840   3.486   4.650   7.715  2.0632  1.7967 -1.7765
  159SAPE   H9Y17841   3.644   4.591   7.647  0.2533 -1.1882  0.6164
  159SAPE  C31017842   3.572   4.489   7.828 -0.6926  0.7163 -0.1613
  159SAPE  H10X17843   3.634   4.398   7.813 -1.9749 -0.5286  1.5493
  159SAPE  H10Y17844   3.478   4.451   7.876  0.7541 -1.9238  0.7690
  159SAPE  C31117845   3.638   4.569   7.941 -0.2256  0.0352  0.1463
  159SAPE  H11X17846   3.576   4.662   7.946 -1.0282 -0.4104 -0.9564
  159SAPE  H11Y17847   3.740   4.589   7.903  0.2030 -0.6850  0.8985
  159SAPE  C31217848   3.647   4.500   8.072 -1.1902 -0.4571 -0.4356
  159SAPE  H12X17849   3.692   4.571   8.144  3.7634 -2.9775 -0.5990
  159SAPE  H12Y17850   3.726   4.422   8.063  1.4364  2.2032 -2.6127
  159SAPE  C31317851   3.524   4.447   8.146  0.4153  0.0807  0.4670
  159SAPE  H13X17852   3.474   4.378   8.074  0.3526 -0.5469  1.0951
  159SAPE  H13Y17853   3.460   4.534   8.168 -0.5190 -0.8938  1.7479
  159SAPE  C31417854   3.544   4.371   8.276 -0.3816 -0.2870  0.7267
  159SAPE  H14X17855   3.626   4.299   8.259 -0.3784 -0.1504  0.1489
  159SAPE  H14Y17856   3.449   4.324   8.308 -1.1814 -0.2988 -1.5217
  159SAPE  C31517857   3.611   4.452   8.387 -0.3481  0.2358  0.3173
  159SAPE  H15X17858   3.537   4.531   8.413 -0.1155  1.4088 -2.2044
  159SAPE  H15Y17859   3.699   4.498   8.336  1.0044 -1.9947  0.5227
  159SAPE  C31617860   3.657   4.361   8.501  0.4687 -0.3317 -0.0911
  159SAPE  H16X17861   3.700   4.268   8.460 -1.2104  0.0142 -2.8934
  159SAPE  H16Y17862   3.564   4.340   8.559  1.2858  0.9430  1.8191
  159SAPE  C31717863   3.765   4.419   8.595  0.6779  0.5767  0.4423
  159SAPE  H17X17864   3.716   4.491   8.664 -0.2949 -0.6116  1.0348
  159SAPE  H17Y17865   3.829   4.476   8.525  0.1608  1.3642  0.6005
  159SAPE  C31817866   3.839   4.318   8.681  0.3222  0.0099 -0.3166
  159SAPE  H18X17867   3.783   4.264   8.761  0.9308  0.5107  0.4645
  159SAPE  H18Y17868   3.917   4.377   8.735  1.5518 -0.9570 -0.9663
  159SAPE  H18Z17869   3.894   4.236   8.630  2.5876  0.2966  1.4867
  160SAPE     N17870   1.867   4.705   6.438  0.9317  0.0926 -0.5778
  160SAPE   HN117871   1.874   4.753   6.530 -1.3037  0.4000 -0.4976
  160SAPE   HN217872   1.786   4.753   6.394  0.9162  0.8351  0.2445
  160SAPE   HN317873   1.848   4.604   6.454 -0.0621  0.5916  1.8781
  160SAPE   C1217874   2.009   4.726   6.383 -0.6671  0.3142 -0.8980
  160SAPE  H12A17875   2.018   4.681   6.282 -3.1076 -0.3849 -0.8623
  160SAPE  H12B17876   2.075   4.670   6.452 -1.0144 -0.7016 -1.3717
  160SAPE   C1117877   2.040   4.879   6.368 -0.1261  0.0300 -0.6121
  160SAPE  H11A17878   1.964   4.931   6.307 -0.7276 -1.5112 -1.2373
  160SAPE  H11B17879   2.136   4.898   6.315  0.5583  0.3509  0.7066
  160SAPE     P17880   1.951   4.976   6.608 -0.4013 -0.0265 -0.1132
  160SAPE   O1317881   1.894   4.849   6.665 -0.0227 -0.3942 -0.3955
  160SAPE   O1417882   2.006   5.070   6.709 -0.1764 -0.2117  0.1406
  160SAPE   O1217883   2.062   4.936   6.502 -0.3760  0.2677  0.2444
  160SAPE   O1117884   1.851   5.056   6.518  0.1895 -0.9912 -0.5374
  160SAPE    C117885   1.709   5.051   6.559  0.2512 -0.2936  0.6909
  160SAPE    HA17886   1.651   5.076   6.467  1.4789  0.0576 -0.0057
  160SAPE    HB17887   1.670   4.951   6.588  1.1287 -1.0133 -0.5276
  160SAPE    C217888   1.668   5.163   6.658  0.2395 -0.4167 -0.2478
  160SAPE    HS17889   1.730   5.251   6.631  1.3954 -0.6477  1.4849
  160SAPE   O2117890   1.700   5.108   6.786 -0.0148 -0.0898 -0.0386
  160SAPE   C2117891   1.740   5.192   6.881  0.7117 -0.1557  0.5410
  160SAPE   O2217892   1.761   5.313   6.863 -0.7662  0.4643  0.7896
  160SAPE   C2217893   1.798   5.108   6.991 -0.4525 -0.3760 -0.4667
  160SAPE   H2R17894   1.716   5.076   7.059  0.4450 -0.3233  0.6694
  160SAPE   H2S17895   1.856   5.024   6.948  2.0584  1.0045  0.0423
  160SAPE    C317896   1.518   5.190   6.653 -0.0784  0.9228 -1.0028
  160SAPE    HX17897   1.472   5.094   6.686  1.2220  1.5136  3.0906
  160SAPE    HY17898   1.479   5.214   6.552 -2.3866 -0.4250 -0.5244
  160SAPE   O3117899   1.475   5.274   6.758 -0.6943 -0.5672  0.1464
  160SAPE   C3117900   1.487   5.403   6.726 -0.2044  0.2112 -0.0538
  160SAPE   O3217901   1.540   5.447   6.625 -0.3574  0.0252  0.0320
  160SAPE   C3217902   1.431   5.486   6.839 -0.4067 -0.2209 -0.2018
  160SAPE   H2X17903   1.320   5.499   6.839 -0.4470 -0.4988  0.4263
  160SAPE   H2Y17904   1.490   5.579   6.849 -2.6509  1.2777 -0.2538
  160SAPE   C2317905   1.895   5.186   7.074 -0.0898 -0.9788  0.5754
  160SAPE   H3R17906   1.835   5.267   7.120 -1.2410 -1.5430  0.1072
  160SAPE   H3S17907   1.963   5.242   7.006 -3.4076 -2.8361 -4.9138
  160SAPE   C2417908   1.965   5.101   7.177  0.0811 -0.0800  0.1188
  160SAPE   H4R17909   2.030   5.167   7.240 -0.1204 -1.9592  2.4392
  160SAPE   H4S17910   2.029   5.021   7.135  1.7334  0.4558  1.4761
  160SAPE   C2517911   1.867   5.029   7.267  0.5412  0.5291 -0.4938
  160SAPE   H5R17912   1.857   4.922   7.244  2.6959  0.6274 -2.1547
  160SAPE   C2617913   1.804   5.088   7.374  0.3089  0.3713 -0.3497
  160SAPE   H6R17914   1.730   5.034   7.435 -0.8219  0.8000 -1.3219
  160SAPE   C2717915   1.830   5.229   7.427  0.3659 -0.8108 -0.4979
  160SAPE   H7R17916   1.731   5.272   7.454  1.0360 -0.3800  1.5074
  160SAPE   H7S17917   1.868   5.299   7.349 -0.8320 -0.5849 -0.9052
  160SAPE   C2817918   1.922   5.226   7.542  0.4657  0.1725 -0.1112
  160SAPE   H8R17919   2.029   5.217   7.517  1.1076  2.2964  1.4550
  160SAPE   C2917920   1.896   5.232   7.680 -0.1763  0.2569 -0.8581
  160SAPE   H9R17921   1.976   5.237   7.755  1.3166  2.6043 -2.4788
  160SAPE  C21017922   1.760   5.245   7.740  0.7678 -0.1679 -0.0451
  160SAPE  H10R17923   1.721   5.148   7.776 -0.8767 -0.2386 -1.8368
  160SAPE  H10S17924   1.688   5.284   7.665  0.1991  2.2612  1.6249
  160SAPE  C21117925   1.752   5.344   7.851  0.0697 -0.5255 -0.5086
  160SAPE  H11R17926   1.732   5.446   7.814 -0.7364 -1.1072 -1.7474
  160SAPE  C21217927   1.752   5.321   7.988 -0.5985  0.0100  0.0879
  160SAPE  H12R17928   1.758   5.404   8.060 -0.3698 -0.8142  1.0427
  160SAPE  C21317929   1.765   5.187   8.048 -0.0494 -0.2247 -0.7102
  160SAPE  H13R17930   1.769   5.102   7.976 -0.6792 -1.2088  0.3841
  160SAPE  H13S17931   1.672   5.157   8.102  0.2916  0.0773  0.0579
  160SAPE  C21417932   1.882   5.173   8.140 -0.6401  0.7281 -0.6738
  160SAPE  H14R17933   1.981   5.165   8.093  1.0843 -1.3097  2.9082
  160SAPE  C21517934   1.879   5.160   8.274 -0.1388 -0.3608 -0.1059
  160SAPE  H15R17935   1.977   5.149   8.323  0.8622 -0.2804 -1.9917
  160SAPE  C21617936   1.760   5.160   8.368 -0.4667 -0.1832  0.4227
  160SAPE  H16R17937   1.670   5.211   8.327 -0.3171  1.5192  2.0491
  160SAPE  H16S17938   1.778   5.230   8.452 -3.8164  0.2388  0.9383
  160SAPE  C21717939   1.728   5.025   8.439 -0.2120 -0.6857  0.1925
  160SAPE  H17R17940   1.649   5.041   8.515 -0.8630 -0.9895 -0.4100
  160SAPE  H17S17941   1.818   4.983   8.489  0.5963  2.6318  1.8154
  160SAPE  C21817942   1.681   4.914   8.337  0.2518  0.5194 -1.0910
  160SAPE  H18R17943   1.747   4.909   8.248  1.1734  0.5675 -0.4293
  160SAPE  H18S17944   1.582   4.944   8.297  0.5774  1.2602 -1.3593
  160SAPE  C21917945   1.660   4.787   8.403  0.0915  0.3615  0.0986
  160SAPE  H19R17946   1.580   4.810   8.477  1.7475  1.3039  1.6835
  160SAPE  H19S17947   1.741   4.748   8.468  0.4635  0.8856 -0.0444
  160SAPE  C22017948   1.618   4.673   8.316 -0.3637 -0.4815 -0.3253
  160SAPE  H20R17949   1.587   4.584   8.375  0.0474 -0.8674 -0.6848
  160SAPE  H20S17950   1.708   4.647   8.256  0.9099  0.6087  1.0431
  160SAPE  H20T17951   1.542   4.711   8.244 -0.9103  0.5411  0.7537
  160SAPE   C3317952   1.438   5.421   6.980 -0.0174 -0.7080  0.4561
  160SAPE   H3X17953   1.542   5.392   7.006  0.3302 -1.0043 -1.1620
  160SAPE   H3Y17954   1.379   5.327   6.975 -1.8298  0.4196 -1.0516
  160SAPE   C3417955   1.372   5.508   7.091  0.0621  0.6149 -0.4660
  160SAPE   H4X17956   1.278   5.551   7.049 -0.3248 -0.2597 -0.5120
  160SAPE   H4Y17957   1.445   5.588   7.117  2.1822 -1.9949  2.2844
  160SAPE   C3517958   1.325   5.427   7.218 -0.3674  0.5628 -0.7838
  160SAPE   H5X17959   1.253   5.355   7.174  0.9481 -2.4606  1.6239
  160SAPE   H5Y17960   1.263   5.486   7.289 -0.8366 -0.0942 -0.6305
  160SAPE   C3617961   1.430   5.339   7.283 -0.7450  1.1245 -0.4026
  160SAPE   H6X17962   1.526   5.394   7.277 -0.0279 -0.0147  0.2348
  160SAPE   H6Y17963   1.434   5.247   7.221  1.0573  1.2878 -0.5835
  160SAPE   C3717964   1.409   5.300   7.430 -0.1736  0.5986  0.2433
  160SAPE   H7X17965   1.504   5.257   7.470 -0.0049  1.7264  1.1145
  160SAPE   H7Y17966   1.331   5.221   7.424 -0.8817  1.2325  0.8517
  160SAPE   C3817967   1.353   5.411   7.527  0.3114  1.0009  0.0026
  160SAPE   H8X17968   1.252   5.438   7.491  1.5629  1.3458 -3.7049
  160SAPE   H8Y17969   1.420   5.500   7.527 -0.0790  1.2968 -0.1999
  160SAPE   C3917970   1.353   5.363   7.674  0.0140 -1.2937 -0.7892
  160SAPE   H9X17971   1.449   5.326   7.717 -0.7270 -0.7441  1.4767
  160SAPE   H9Y17972   1.282   5.278   7.682  0.1263 -1.1996  2.0688
  160SAPE  C31017973   1.308   5.478   7.757  0.4528 -0.1198  0.9001
  160SAPE  H10X17974   1.208   5.517   7.728 -0.4291 -3.6812 -1.4679
  160SAPE  H10Y17975   1.377   5.564   7.744 -0.1674  0.3566  0.6881
  160SAPE  C31117976   1.314   5.447   7.904 -0.0166  0.4155  0.2366
  160SAPE  H11X17977   1.421   5.456   7.931 -0.0054 -1.8701  1.2364
  160SAPE  H11Y17978   1.276   5.343   7.921 -1.7862  1.0067  0.1080
  160SAPE  C31217979   1.234   5.544   7.995 -0.3900 -0.2618  0.3457
  160SAPE  H12X17980   1.130   5.543   7.956 -0.7978  0.3806  1.3766
  160SAPE  H12Y17981   1.271   5.649   7.996 -2.5060  0.5430  0.7315
  160SAPE  C31317982   1.231   5.500   8.141 -0.7577  0.2318 -0.1553
  160SAPE  H13X17983   1.328   5.496   8.194 -0.4261  2.1400 -0.5482
  160SAPE  H13Y17984   1.194   5.395   8.140 -2.1955  0.7047  0.1160
  160SAPE  C31417985   1.144   5.598   8.226 -0.0663 -0.5657 -0.2811
  160SAPE  H14X17986   1.038   5.587   8.195 -0.2889 -1.2091  0.6580
  160SAPE  H14Y17987   1.181   5.698   8.197  1.6137 -1.4937 -1.5250
  160SAPE  C31517988   1.146   5.586   8.377  0.1247  0.3662 -0.5311
  160SAPE  H15X17989   1.110   5.680   8.424 -2.3944 -0.7696  0.0059
  160SAPE  H15Y17990   1.253   5.577   8.403  0.6914  2.0347 -2.0479
  160SAPE  C31617991   1.057   5.467   8.417 -0.0259 -0.0891  0.8994
  160SAPE  H16X17992   1.102   5.434   8.513  1.6725  0.2646  0.2617
  160SAPE  H16Y17993   1.051   5.394   8.333 -2.3636  1.6897 -0.6076
  160SAPE  C31717994   0.913   5.505   8.452  0.1549  0.7481 -0.6996
  160SAPE  H17X17995   0.858   5.409   8.461 -1.4311  1.5890 -0.9565
  160SAPE  H17Y17996   0.873   5.562   8.365  0.4936 -1.6582 -2.5496
  160SAPE  C31817997   0.908   5.595   8.581 -0.0586  0.3667  0.6401
  160SAPE  H18X17998   0.810   5.646   8.591 -0.1406  0.5807 -0.9998
  160SAPE  H18Y17999   0.979   5.679   8.570  0.4472 -0.1862 -0.4338
  160SAPE  H18Z18000   0.943   5.542   8.672  3.5414 -1.6021 -1.6838
  161SAPE     N18001   2.970   3.007   6.665 -0.9115 -0.2226  0.2023
  161SAPE   HN118002   2.962   2.908   6.634 -3.4349 -0.3039  0.9378
  161SAPE   HN218003   3.046   3.058   6.615  0.1105 -0.1262  1.7746
  161SAPE   HN318004   2.984   3.005   6.768  0.6038  2.9780  0.1497
  161SAPE   C1218005   2.839   3.068   6.645 -0.1364 -0.4327  0.3057
  161SAPE  H12A18006   2.772   3.039   6.728  2.5133 -0.6298  2.5155
  161SAPE  H12B18007   2.809   3.023   6.548 -0.6103  1.9259 -0.7303
  161SAPE   C1118008   2.848   3.221   6.624  0.4014 -0.3044 -0.2230
  161SAPE  H11A18009   2.875   3.266   6.722 -2.7923  1.5783 -0.0587
  161SAPE  H11B18010   2.740   3.242   6.608 -0.4917 -2.7804  1.7800
  161SAPE     P18011   2.938   3.412   6.467  0.0964 -0.2762  0.1703
  161SAPE   O1318012   3.064   3.426   6.390 -0.0131  0.5633 -0.4998
  161SAPE   O1418013   2.812   3.453   6.395  0.7697 -0.0537 -0.0438
  161SAPE   O1218014   2.933   3.257   6.515  0.3137  0.1566 -0.1993
  161SAPE   O1118015   2.952   3.497   6.603  0.7311 -0.3081 -0.0541
  161SAPE    C118016   3.070   3.470   6.682 -0.4550 -0.1816 -0.1588
  161SAPE    HA18017   3.069   3.366   6.720 -2.7519  0.1080  0.7637
  161SAPE    HB18018   3.160   3.482   6.618 -1.6175  3.1158 -1.4004
  161SAPE    C218019   3.079   3.562   6.808 -0.1569 -0.7922  0.6386
  161SAPE    HS18020   3.158   3.532   6.881 -0.4453 -2.9260  0.1355
  161SAPE   O2118021   2.952   3.557   6.884  0.6701  0.0268 -0.2213
  161SAPE   C2118022   2.946   3.454   6.976  0.1893  0.2336  0.3155
  161SAPE   O2218023   3.031   3.363   6.989 -0.4478 -0.5676  0.3100
  161SAPE   C2218024   2.814   3.468   7.048  0.7829  0.2673 -0.4419
  161SAPE   H2R18025   2.766   3.564   7.019  0.7980  0.2916 -0.3869
  161SAPE   H2S18026   2.751   3.386   7.008 -0.4303  0.9160  0.0811
  161SAPE    C318027   3.091   3.714   6.767 -0.1091  0.7823 -0.2192
  161SAPE    HX18028   2.991   3.733   6.723  0.6546  4.1135 -0.7344
  161SAPE    HY18029   3.162   3.720   6.682  0.1909 -1.6832 -0.2111
  161SAPE   O3118030   3.109   3.811   6.879 -0.0199 -0.3992 -0.2729
  161SAPE   C3118031   3.233   3.829   6.903  0.6931 -0.6316  0.4947
  161SAPE   O3218032   3.328   3.781   6.850 -0.6392  0.0444 -0.1288
  161SAPE   C3218033   3.235   3.924   7.030 -0.0405  0.1403 -0.1068
  161SAPE   H2X18034   3.133   3.922   7.074  0.3611  1.1438  0.9331
  161SAPE   H2Y18035   3.257   4.026   6.993  2.2585 -0.5548 -0.8441
  161SAPE   C2318036   2.834   3.448   7.200 -0.5195 -0.1483 -0.0689
  161SAPE   H3R18037   2.904   3.524   7.241  0.5837 -1.0337 -0.2694
  161SAPE   H3S18038   2.898   3.358   7.212  0.7588  0.7189 -0.2020
  161SAPE   C2418039   2.707   3.428   7.279  0.2972 -0.1536 -0.0380
  161SAPE   H4R18040   2.741   3.402   7.381 -0.0412 -0.3152  0.0358
  161SAPE   H4S18041   2.644   3.349   7.233  1.3541 -1.8260  1.2707
  161SAPE   C2518042   2.621   3.551   7.286  0.3432  0.0521  0.4791
  161SAPE   H5R18043   2.547   3.560   7.205  1.5675 -0.8342 -0.7990
  161SAPE   C2618044   2.628   3.645   7.387  0.7789  0.1871  1.0117
  161SAPE   H6R18045   2.559   3.731   7.387 -0.3931 -0.6558 -1.8712
  161SAPE   C2718046   2.726   3.645   7.503  0.3046  0.0491  0.5789
  161SAPE   H7R18047   2.768   3.748   7.498  0.7731 -0.1458  0.4810
  161SAPE   H7S18048   2.809   3.574   7.482  0.9730  1.5794 -2.3509
  161SAPE   C2818049   2.652   3.608   7.628  0.5540  0.7066  0.0636
  161SAPE   H8R18050   2.560   3.548   7.614  1.0251 -0.5408  1.8431
  161SAPE   C2918051   2.674   3.664   7.748 -0.6584  0.2354 -0.1003
  161SAPE   H9R18052   2.627   3.625   7.839  0.2130  0.1517  0.3211
  161SAPE  C21018053   2.779   3.764   7.784 -0.1791  0.0479  0.2116
  161SAPE  H10R18054   2.746   3.831   7.866 -0.8851 -0.2044  0.1425
  161SAPE  H10S18055   2.793   3.828   7.694 -1.9951  1.0166  0.5676
  161SAPE  C21118056   2.912   3.712   7.808  0.2913  0.1658  0.3151
  161SAPE  H11R18057   2.956   3.633   7.746  1.4948 -0.4911  1.9217
  161SAPE  C21218058   2.994   3.753   7.901  0.0587 -0.3576 -0.2124
  161SAPE  H12R18059   3.093   3.705   7.900  0.2176 -0.0433  0.2440
  161SAPE  C21318060   2.959   3.863   8.001  0.5442  0.5935 -0.5842
  161SAPE  H13R18061   2.909   3.948   7.950  0.7509  2.2481  1.7958
  161SAPE  H13S18062   3.055   3.910   8.032  0.6649 -0.7976  1.3785
  161SAPE  C21418063   2.874   3.815   8.114  0.3327 -0.3847  0.2315
  161SAPE  H14R18064   2.787   3.772   8.064  0.3008  0.2927 -0.3103
  161SAPE  C21518065   2.886   3.816   8.246 -0.2699 -0.0888  0.5713
  161SAPE  H15R18066   2.823   3.762   8.318  1.3815 -0.8870  1.4958
  161SAPE  C21618067   3.002   3.876   8.317  0.5314  0.9136 -0.2920
  161SAPE  H16R18068   3.066   3.933   8.246  0.2625  1.1179 -0.3694
  161SAPE  H16S18069   3.060   3.789   8.355  1.8831  0.7750 -2.5280
  161SAPE  C21718070   2.968   3.974   8.429 -0.0454 -0.8703 -0.7327
  161SAPE  H17R18071   2.887   4.047   8.411 -1.1111 -1.1082  2.4343
  161SAPE  H17S18072   3.052   4.044   8.448  0.8410 -2.1232  0.1028
  161SAPE  C21818073   2.948   3.892   8.558 -0.1510  0.4319  0.4070
  161SAPE  H18R18074   2.889   3.804   8.524  0.3830  0.1522  0.1834
  161SAPE  H18S18075   2.887   3.955   8.626 -0.2820 -1.0943  1.7474
  161SAPE  C21918076   3.084   3.852   8.621 -0.1649 -0.3643 -0.5222
  161SAPE  H19R18077   3.138   3.947   8.642  0.7614 -0.9494 -0.2476
  161SAPE  H19S18078   3.142   3.790   8.550 -0.1513  0.7853 -1.5452
  161SAPE  C22018079   3.073   3.775   8.753  0.0636 -0.4486  0.4135
  161SAPE  H20R18080   3.026   3.841   8.828  2.2100  1.8725 -0.1493
  161SAPE  H20S18081   3.176   3.755   8.789  0.9734  1.0675 -1.1933
  161SAPE  H20T18082   3.008   3.685   8.741 -1.0870  0.2676  1.1063
  161SAPE   C3318083   3.355   3.880   7.124 -0.4501  0.4608 -0.2370
  161SAPE   H3X18084   3.366   3.942   7.216  0.0800 -0.9466  0.6739
  161SAPE   H3Y18085   3.445   3.911   7.067 -0.0567  1.2868  0.8024
  161SAPE   C3418086   3.355   3.731   7.167  0.2187 -0.5486 -0.3983
  161SAPE   H4X18087   3.456   3.704   7.206  1.5894  3.1087 -0.9497
  161SAPE   H4Y18088   3.334   3.667   7.079 -1.6711 -0.7393  0.1461
  161SAPE   C3518089   3.238   3.708   7.260  0.3088  0.0820 -0.0610
  161SAPE   H5X18090   3.143   3.743   7.215  0.9552  2.5469  0.3693
  161SAPE   H5Y18091   3.252   3.774   7.348 -0.4420  1.4379 -0.9190
  161SAPE   C3618092   3.241   3.566   7.310  0.4776 -0.3945  0.5657
  161SAPE   H6X18093   3.347   3.538   7.324  0.7783  0.7515  0.7411
  161SAPE   H6Y18094   3.205   3.493   7.235  1.3490  1.2238 -1.4984
  161SAPE   C3718095   3.158   3.567   7.443 -0.2932  0.0767  0.7231
  161SAPE   H7X18096   3.051   3.590   7.420 -0.4316 -2.3663 -1.4961
  161SAPE   H7Y18097   3.218   3.638   7.504  1.4665 -0.0524 -0.7710
  161SAPE   C3818098   3.168   3.430   7.510  0.1866 -0.3221 -0.2361
  161SAPE   H8X18099   3.139   3.342   7.448  0.7955 -1.4715  1.0568
  161SAPE   H8Y18100   3.087   3.433   7.586 -1.0336  2.3247 -1.5096
  161SAPE   C3918101   3.301   3.411   7.589 -0.0826  0.1520  0.8283
  161SAPE   H9X18102   3.384   3.449   7.525 -0.1408  1.0018  1.2425
  161SAPE   H9Y18103   3.324   3.307   7.618  3.2935  0.6711  0.4809
  161SAPE  C31018104   3.301   3.492   7.720  0.3622  0.1346  0.2864
  161SAPE  H10X18105   3.215   3.443   7.772 -0.5705 -0.9158 -2.0687
  161SAPE  H10Y18106   3.289   3.602   7.712 -0.7529  0.0081 -0.0086
  161SAPE  C31118107   3.430   3.467   7.803 -0.1709  0.4664  0.7589
  161SAPE  H11X18108   3.520   3.500   7.746  0.1172 -1.0946  0.2334
  161SAPE  H11Y18109   3.429   3.358   7.827 -0.5163  0.2981  0.0179
  161SAPE  C31218110   3.416   3.545   7.937 -0.6495  0.2501 -0.1925
  161SAPE  H12X18111   3.384   3.651   7.929  2.5055  1.1945 -2.1876
  161SAPE  H12Y18112   3.514   3.539   7.989 -1.8849 -1.8872  2.1169
  161SAPE  C31318113   3.312   3.486   8.036  0.2351 -0.1808 -0.1428
  161SAPE  H13X18114   3.306   3.375   8.034 -0.0152 -0.2467  1.8050
  161SAPE  H13Y18115   3.212   3.526   8.008  0.0107  0.7903  1.8326
  161SAPE  C31418116   3.330   3.529   8.182 -0.1450 -0.2795  0.5678
  161SAPE  H14X18117   3.430   3.485   8.204  1.2705  1.6601 -1.5290
  161SAPE  H14Y18118   3.253   3.474   8.240 -1.4055 -0.7153 -1.4013
  161SAPE  C31518119   3.348   3.686   8.192 -0.0788  0.9943  0.1105
  161SAPE  H15X18120   3.249   3.732   8.171 -0.3876  0.1094 -0.4278
  161SAPE  H15Y18121   3.428   3.721   8.122  0.0931 -1.3559 -0.9760
  161SAPE  C31618122   3.395   3.718   8.335  0.0972  0.4605  0.5027
  161SAPE  H16X18123   3.461   3.636   8.368 -1.5974 -0.7876  0.9497
  161SAPE  H16Y18124   3.314   3.724   8.412  0.9932  2.7157  1.3687
  161SAPE  C31718125   3.456   3.858   8.347 -0.1966  0.1957  0.1168
  161SAPE  H17X18126   3.536   3.872   8.271 -0.2706  0.6129  0.1156
  161SAPE  H17Y18127   3.503   3.869   8.447 -0.9029 -1.7979  0.7107
  161SAPE  C31818128   3.345   3.963   8.318 -0.3134  0.2285 -0.2369
  161SAPE  H18X18129   3.308   3.951   8.214  0.9317 -0.7261 -0.5978
  161SAPE  H18Y18130   3.383   4.068   8.323  3.4323 -1.0135  0.6780
  161SAPE  H18Z18131   3.262   3.944   8.389 -0.6494  0.2880 -0.6114
  162SAPE     N18132   3.740   1.765   6.141 -0.1918  0.2957 -0.7397
  162SAPE   HN118133   3.724   1.803   6.236  0.9807  0.6088 -0.6589
  162SAPE   HN218134   3.706   1.667   6.137 -1.4149  0.6191  0.7657
  162SAPE   HN318135   3.843   1.775   6.133  0.5572 -3.7099  1.2821
  162SAPE   C1218136   3.676   1.834   6.021 -0.7258 -0.2074  0.4676
  162SAPE  H12A18137   3.706   1.773   5.932  0.3984  1.4395 -0.3213
  162SAPE  H12B18138   3.709   1.939   6.011  0.6561 -0.7390 -0.9302
  162SAPE   C1118139   3.534   1.845   6.044 -0.4433  0.0666  0.3785
  162SAPE  H11A18140   3.488   1.895   5.955 -1.8200 -2.9822 -0.7513
  162SAPE  H11B18141   3.522   1.903   6.138 -2.4780 -0.8724  0.7534
  162SAPE     P18142   3.309   1.710   6.079 -0.2896  0.1533  0.0130
  162SAPE   O1318143   3.245   1.833   6.026 -0.4374 -0.3391 -0.5319
  162SAPE   O1418144   3.258   1.582   6.039  0.5148  0.4030 -0.4141
  162SAPE   O1218145   3.464   1.716   6.047 -0.5604 -0.5258 -0.2002
  162SAPE   O1118146   3.320   1.720   6.236 -0.3586 -0.3123 -0.2788
  162SAPE    C118147   3.212   1.755   6.320  0.9135 -0.0730  0.2083
  162SAPE    HA18148   3.215   1.864   6.339 -0.0749  0.2781 -1.4494
  162SAPE    HB18149   3.118   1.723   6.271  0.3531  0.3197  1.0177
  162SAPE    C218150   3.220   1.692   6.460 -0.1894 -0.3194 -0.7444
  162SAPE    HS18151   3.128   1.722   6.515  1.4841 -0.4925  2.3782
  162SAPE   O2118152   3.332   1.752   6.527  0.4472 -0.0835  0.2587
  162SAPE   C2118153   3.325   1.762   6.656 -1.2844 -0.1595  0.0295
  162SAPE   O2218154   3.242   1.731   6.738 -0.0784 -0.3504 -0.2646
  162SAPE   C2218155   3.456   1.823   6.702 -1.0491  0.0675  0.0141
  162SAPE   H2R18156   3.509   1.875   6.619 -0.0836  1.0655  1.2113
  162SAPE   H2S18157   3.432   1.908   6.770  0.0531 -1.3530  2.3001
  162SAPE    C318158   3.238   1.535   6.457 -0.2365  0.3044  0.2150
  162SAPE    HX18159   3.335   1.513   6.407  0.1996  0.5504  0.9356
  162SAPE    HY18160   3.159   1.498   6.389 -0.3728  1.3352 -0.2082
  162SAPE   O3118161   3.237   1.472   6.588  0.7128  0.3630  0.3418
  162SAPE   C3118162   3.116   1.427   6.638  0.1255 -0.3931  0.2779
  162SAPE   O3218163   3.009   1.438   6.579 -0.4079 -0.1022 -0.2559
  162SAPE   C3218164   3.134   1.368   6.775  0.2993  0.1019  0.5670
  162SAPE   H2X18165   3.234   1.320   6.772  0.7079  0.8945  1.3672
  162SAPE   H2Y18166   3.059   1.288   6.792  0.8654 -0.6707 -0.4476
  162SAPE   C2318167   3.545   1.718   6.772 -0.8922  0.2460 -0.1966
  162SAPE   H3R18168   3.648   1.752   6.794 -1.4299  0.5379  2.1647
  162SAPE   H3S18169   3.547   1.622   6.715 -1.1875 -0.0685  0.3129
  162SAPE   C2418170   3.507   1.679   6.916  0.0399  0.3215  0.5360
  162SAPE   H4R18171   3.399   1.656   6.923 -0.2831  1.8509  0.9161
  162SAPE   H4S18172   3.523   1.770   6.978 -0.0035  0.2656  0.6292
  162SAPE   C2518173   3.593   1.565   6.967 -0.4305  0.5034  0.0642
  162SAPE   H5R18174   3.648   1.528   6.879 -0.8297  0.8262 -0.3316
  162SAPE   C2618175   3.616   1.518   7.089 -1.0171  0.0917 -1.3611
  162SAPE   H6R18176   3.681   1.429   7.090 -0.1022  0.7108 -2.9364
  162SAPE   C2718177   3.564   1.561   7.228 -0.3734 -0.5639  0.5605
  162SAPE   H7R18178   3.543   1.671   7.224  1.0576 -0.3122 -0.9134
  162SAPE   H7S18179   3.644   1.540   7.302  0.1106 -3.0505 -0.5757
  162SAPE   C2818180   3.428   1.510   7.265  0.0358 -0.2698 -0.2242
  162SAPE   H8R18181   3.381   1.445   7.189 -0.7710  0.7751 -0.6439
  162SAPE   C2918182   3.344   1.547   7.369 -0.0114 -0.6830 -0.2947
  162SAPE   H9R18183   3.249   1.497   7.390 -0.1503  0.0381  0.8734
  162SAPE  C21018184   3.376   1.654   7.470  0.2789 -0.0801  0.3061
  162SAPE  H10R18185   3.311   1.741   7.448  1.5386  0.6699 -0.5317
  162SAPE  H10S18186   3.479   1.690   7.454  0.0955  0.1419 -0.4143
  162SAPE  C21118187   3.368   1.604   7.605 -0.1364  0.3411 -0.4053
  162SAPE  H11R18188   3.424   1.511   7.624 -0.5393  0.3917  1.2310
  162SAPE  C21218189   3.314   1.660   7.715  0.6300 -0.2804 -0.0060
  162SAPE  H12R18190   3.323   1.611   7.813 -0.4694  1.5447  1.0456
  162SAPE  C21318191   3.239   1.794   7.719 -0.3857  0.0527 -0.2322
  162SAPE  H13R18192   3.133   1.788   7.752  0.0951 -0.5577  1.2636
  162SAPE  H13S18193   3.226   1.826   7.613  1.7430 -1.0024 -0.8667
  162SAPE  C21418194   3.302   1.899   7.817 -0.1570  0.0629  0.6597
  162SAPE  H14R18195   3.377   1.968   7.775  0.9688 -1.7896 -0.5350
  162SAPE  C21518196   3.279   1.906   7.954 -0.6933 -0.6204  0.3029
  162SAPE  H15R18197   3.331   1.983   8.012  2.6335 -1.5746 -1.1860
  162SAPE  C21618198   3.190   1.813   8.029 -0.8132 -0.3208 -0.3288
  162SAPE  H16R18199   3.130   1.749   7.962 -1.1846  0.2387 -0.5379
  162SAPE  H16S18200   3.112   1.864   8.090  1.0660 -0.9791  2.8672
  162SAPE  C21718201   3.272   1.742   8.144 -0.2652  0.0259 -1.1946
  162SAPE  H17R18202   3.354   1.679   8.103 -0.3665 -0.3552 -0.8195
  162SAPE  H17S18203   3.197   1.680   8.197  0.8428  1.7374  2.7494
  162SAPE  C21818204   3.341   1.838   8.248  0.1138  0.5113  0.3432
  162SAPE  H18R18205   3.276   1.917   8.291  0.2300  0.1620  1.1861
  162SAPE  H18S18206   3.420   1.890   8.191  0.3096  0.1588  0.2886
  162SAPE  C21918207   3.412   1.750   8.348 -0.0133 -0.3656  0.0752
  162SAPE  H19R18208   3.464   1.665   8.298 -1.5651 -2.3896  1.7157
  162SAPE  H19S18209   3.332   1.701   8.407 -0.4976 -0.5888 -0.7571
  162SAPE  C22018210   3.519   1.829   8.421 -0.5517 -0.3206 -0.7405
  162SAPE  H20R18211   3.578   1.768   8.493  0.0412  1.2047  0.1116
  162SAPE  H20S18212   3.472   1.915   8.475  0.5762  0.1432 -0.4643
  162SAPE  H20T18213   3.587   1.878   8.349 -0.9086  0.3807 -0.6208
  162SAPE   C3318214   3.109   1.477   6.879  0.4085 -0.0838  0.1125
  162SAPE   H3X18215   3.024   1.539   6.843 -0.5899 -1.4834 -0.0064
  162SAPE   H3Y18216   3.198   1.543   6.874  0.0992  0.2503 -1.3984
  162SAPE   C3418217   3.061   1.426   7.014  0.4995 -0.1438  0.5642
  162SAPE   H4X18218   3.140   1.359   7.055  0.3924 -0.3616  0.4154
  162SAPE   H4Y18219   2.963   1.377   6.997 -0.2652  1.4986  0.0791
  162SAPE   C3518220   3.029   1.532   7.113  0.3593  1.1321 -1.3053
  162SAPE   H5X18221   2.970   1.609   7.057  0.9233  1.7309 -1.0916
  162SAPE   H5Y18222   3.129   1.573   7.141 -0.5819  1.5000  1.8732
  162SAPE   C3618223   2.960   1.487   7.245  0.3710 -0.1678 -0.4891
  162SAPE   H6X18224   3.009   1.398   7.289  1.4325  0.8886  0.5698
  162SAPE   H6Y18225   2.855   1.460   7.223 -0.1253  0.3820  1.0794
  162SAPE   C3718226   2.956   1.587   7.354 -0.0727  0.3583  0.3751
  162SAPE   H7X18227   2.915   1.686   7.324 -2.8282 -0.4631  1.0969
  162SAPE   H7Y18228   3.060   1.597   7.391  0.1770 -1.2806  0.1785
  162SAPE   C3818229   2.865   1.542   7.470 -0.4948 -0.6267 -0.0245
  162SAPE   H8X18230   2.914   1.445   7.494  3.5073  1.2265  0.0811
  162SAPE   H8Y18231   2.758   1.533   7.442 -0.3289 -1.8443 -0.3238
  162SAPE   C3918232   2.895   1.621   7.601  0.2043 -0.0553  0.2591
  162SAPE   H9X18233   2.876   1.730   7.592  0.1334 -0.1344 -0.5735
  162SAPE   H9Y18234   3.005   1.613   7.611  0.0056 -2.6064  1.2624
  162SAPE  C31018235   2.836   1.554   7.719  0.6825 -0.3200  0.5870
  162SAPE  H10X18236   2.864   1.447   7.723 -0.3774 -0.5795  1.8202
  162SAPE  H10Y18237   2.727   1.565   7.703  0.3757 -3.1332  0.3718
  162SAPE  C31118238   2.893   1.613   7.849 -0.3921 -0.0207  0.0796
  162SAPE  H11X18239   2.882   1.724   7.850  0.3655  0.0769 -0.7489
  162SAPE  H11Y18240   3.000   1.585   7.857 -0.5888 -1.5092 -1.8249
  162SAPE  C31218241   2.815   1.557   7.965 -0.3614  0.1394 -0.6589
  162SAPE  H12X18242   2.852   1.452   7.962 -0.6951  0.0306 -1.0798
  162SAPE  H12Y18243   2.707   1.553   7.939 -0.5070 -2.2404  0.0512
  162SAPE  C31318244   2.832   1.625   8.106  0.1423 -0.0307 -0.1172
  162SAPE  H13X18245   2.792   1.728   8.092 -1.3079 -0.3693  1.2208
  162SAPE  H13Y18246   2.941   1.637   8.123  0.6300 -2.5727 -1.0523
  162SAPE  C31418247   2.757   1.561   8.215 -0.0763  0.2468 -0.1432
  162SAPE  H14X18248   2.792   1.455   8.219 -2.8225 -0.7531  0.0222
  162SAPE  H14Y18249   2.650   1.558   8.186 -1.0423  2.0608  2.7982
  162SAPE  C31518250   2.780   1.610   8.357  0.1300 -0.2700 -0.1373
  162SAPE  H15X18251   2.729   1.545   8.430  2.1160 -1.8266 -0.0633
  162SAPE  H15Y18252   2.744   1.715   8.359  0.6900 -0.0256 -1.5349
  162SAPE  C31618253   2.929   1.623   8.404 -0.1900  0.0411 -0.4821
  162SAPE  H16X18254   2.984   1.684   8.329 -0.8645  2.1192  0.6141
  162SAPE  H16Y18255   2.985   1.527   8.411 -1.5827 -0.6876  1.0993
  162SAPE  C31718256   2.939   1.707   8.534 -0.0706  0.1391 -0.0595
  162SAPE  H17X18257   2.876   1.653   8.609 -1.2374  0.6026 -0.6736
  162SAPE  H17Y18258   2.907   1.813   8.525  2.0502  0.8908  0.7357
  162SAPE  C31818259   3.085   1.727   8.587 -0.2253  0.1872  0.7223
  162SAPE  H18X18260   3.157   1.799   8.543  1.6781 -1.1281  1.5587
  162SAPE  H18Y18261   3.141   1.631   8.592  2.5235  1.6059 -0.5640
  162SAPE  H18Z18262   3.091   1.775   8.686  2.7722  1.1436  0.1672
  163SAPE     N18263   6.002   4.926   6.457  0.3214 -0.2337  0.4640
  163SAPE   HN118264   6.078   4.988   6.421 -0.5077 -0.4544 -1.8698
  163SAPE   HN218265   5.953   4.882   6.377 -1.4446  0.2506  1.2255
  163SAPE   HN318266   5.923   4.981   6.497 -0.0880  0.5073 -1.2736
  163SAPE   C1218267   6.046   4.804   6.536 -1.2000  0.0813 -0.1261
  163SAPE  H12A18268   6.126   4.754   6.476 -1.0366 -1.3389  1.2138
  163SAPE  H12B18269   5.960   4.735   6.545 -0.1670 -1.1917  0.4154
  163SAPE   C1118270   6.119   4.831   6.668 -0.4243  0.6056 -0.3438
  163SAPE  H11A18271   6.149   4.739   6.722 -0.9258  1.3815  1.3224
  163SAPE  H11B18272   6.048   4.868   6.745  0.1108 -1.5510  1.2945
  163SAPE     P18273   6.368   4.874   6.627  0.1527  0.2549 -0.5515
  163SAPE   O1318274   6.371   4.771   6.523 -0.1733 -0.5984 -0.5026
  163SAPE   O1418275   6.454   4.989   6.611  0.2600  0.5691 -0.4884
  163SAPE   O1218276   6.222   4.924   6.642  0.0618 -0.2789  0.4093
  163SAPE   O1118277   6.397   4.799   6.764  0.2577 -0.0482 -0.4222
  163SAPE    C118278   6.425   4.881   6.875  0.5156 -0.0409 -0.6357
  163SAPE    HA18279   6.527   4.923   6.879 -0.1625  1.6366 -0.0066
  163SAPE    HB18280   6.364   4.974   6.882  0.9791  0.1401  2.6472
  163SAPE    C218281   6.390   4.811   7.008  0.2843  0.3627  0.0070
  163SAPE    HS18282   6.408   4.881   7.093 -0.1752 -0.4070  0.7555
  163SAPE   O2118283   6.460   4.685   7.032  0.0741 -0.3403  0.1139
  163SAPE   C2118284   6.585   4.707   7.076  0.9531  0.3214 -0.2517
  163SAPE   O2218285   6.641   4.815   7.086 -0.2831 -0.0567 -0.5166
  163SAPE   C2218286   6.655   4.572   7.099  0.3723 -0.0192 -0.5524
  163SAPE   H2R18287   6.579   4.501   7.135 -0.9562 -0.0128 -3.1599
  163SAPE   H2S18288   6.700   4.532   7.005  1.1059 -0.5892  0.0270
  163SAPE    C318289   6.236   4.788   7.021 -0.2676  0.7356  1.1545
  163SAPE    HX18290   6.215   4.724   6.933  0.0964  0.0048  1.5896
  163SAPE    HY18291   6.185   4.887   7.016  0.8621  1.2480 -2.3187
  163SAPE   O3118292   6.204   4.726   7.154  0.7080  0.9342  0.7833
  163SAPE   C3118293   6.207   4.587   7.157 -0.0195  0.2932  0.0606
  163SAPE   O3218294   6.231   4.514   7.064 -0.0358  0.3773  0.7882
  163SAPE   C3218295   6.183   4.550   7.302  0.8283  0.2573 -0.2795
  163SAPE   H2X18296   6.081   4.509   7.295 -0.2688  2.2931  2.2995
  163SAPE   H2Y18297   6.179   4.639   7.368 -0.5507 -1.4454  2.0482
  163SAPE   C2318298   6.763   4.591   7.204  0.0905 -0.7445 -0.5097
  163SAPE   H3R18299   6.845   4.662   7.178  0.5440 -0.1560  2.2795
  163SAPE   H3S18300   6.813   4.493   7.218 -0.0220 -0.8508 -0.8268
  163SAPE   C2418301   6.703   4.640   7.336 -0.4907  0.5143  0.0954
  163SAPE   H4R18302   6.613   4.575   7.344 -1.9866  2.2731 -1.3767
  163SAPE   H4S18303   6.657   4.741   7.322  0.1613  0.9272  0.8709
  163SAPE   C2518304   6.774   4.625   7.470 -0.6498 -0.4213  0.7646
  163SAPE   H5R18305   6.800   4.727   7.504  2.6652 -1.1166  0.6144
  163SAPE   C2618306   6.787   4.512   7.546  0.6159  0.5804  0.1141
  163SAPE   H6R18307   6.818   4.521   7.651  0.7118  0.4834  0.0933
  163SAPE   C2718308   6.725   4.376   7.508 -0.2966  0.6660  0.6901
  163SAPE   H7R18309   6.817   4.315   7.490 -1.6500 -0.6290 -2.4464
  163SAPE   H7S18310   6.656   4.384   7.422 -1.1104 -1.7616  1.0281
  163SAPE   C2818311   6.638   4.324   7.620  0.3870 -0.6660 -0.0765
  163SAPE   H8R18312   6.552   4.389   7.643 -0.6771 -2.0875  0.1129
  163SAPE   C2918313   6.645   4.203   7.674 -0.0449  0.2954 -0.5561
  163SAPE   H9R18314   6.580   4.173   7.757 -1.3494  2.1503 -0.8509
  163SAPE  C21018315   6.758   4.105   7.648  0.6997 -0.0401  0.1925
  163SAPE  H10R18316   6.833   4.126   7.726 -1.2395 -0.3888  2.2522
  163SAPE  H10S18317   6.808   4.130   7.552  0.5252 -0.6354 -0.0615
  163SAPE  C21118318   6.699   3.968   7.634  0.4812 -0.2885 -0.3855
  163SAPE  H11R18319   6.618   3.961   7.560 -1.3551 -0.1109  1.5110
  163SAPE  C21218320   6.723   3.867   7.717 -0.7887 -0.0569 -0.2434
  163SAPE  H12R18321   6.668   3.772   7.706 -0.8325  0.1425 -2.2343
  163SAPE  C21318322   6.814   3.863   7.839  0.2447 -0.4405  0.2738
  163SAPE  H13R18323   6.851   3.966   7.858 -0.7118  0.3779 -1.9359
  163SAPE  H13S18324   6.899   3.797   7.811 -1.2541 -1.4674 -2.1258
  163SAPE  C21418325   6.749   3.803   7.965 -0.3310 -0.1294  1.0460
  163SAPE  H14R18326   6.678   3.720   7.955  1.0310 -1.2016 -0.0725
  163SAPE  C21518327   6.757   3.864   8.089  0.7491  0.1476  0.2391
  163SAPE  H15R18328   6.715   3.818   8.179 -2.9457  0.8697 -0.9246
  163SAPE  C21618329   6.829   3.991   8.124  0.7160  0.8785  0.0140
  163SAPE  H16R18330   6.875   4.036   8.033 -2.7755  2.3671 -1.1663
  163SAPE  H16S18331   6.912   3.949   8.185  0.9634  1.6224  0.2007
  163SAPE  C21718332   6.754   4.088   8.203 -0.5205 -0.0020  0.1077
  163SAPE  H17R18333   6.660   4.122   8.154 -1.1607 -1.3013  0.3756
  163SAPE  H17S18334   6.820   4.174   8.228  0.7508 -0.9762  0.2080
  163SAPE  C21818335   6.703   4.035   8.339  0.3017  0.6410 -0.0969
  163SAPE  H18R18336   6.630   3.955   8.314  1.1805 -0.8553  1.8103
  163SAPE  H18S18337   6.664   4.115   8.405 -1.7426 -0.7245  0.4459
  163SAPE  C21918338   6.804   3.954   8.432 -0.0979  0.7470  0.0116
  163SAPE  H19R18339   6.900   4.011   8.435 -0.5612  1.6973 -1.7977
  163SAPE  H19S18340   6.845   3.863   8.383  1.3000  1.2759  0.1311
  163SAPE  C22018341   6.767   3.925   8.578 -0.7555 -0.1512 -0.5436
  163SAPE  H20R18342   6.735   4.023   8.620  2.4654  0.9800 -0.4715
  163SAPE  H20S18343   6.853   3.892   8.641 -2.4688  0.5561  2.3917
  163SAPE  H20T18344   6.685   3.851   8.590 -0.3759 -0.2570  1.8963
  163SAPE   C3318345   6.278   4.428   7.346  0.0440 -0.3535  0.2592
  163SAPE   H3X18346   6.381   4.465   7.328 -1.1701  3.2606 -0.0102
  163SAPE   H3Y18347   6.247   4.337   7.291  1.8376 -0.5160 -0.5455
  163SAPE   C3418348   6.282   4.405   7.505 -0.2697 -0.4131  1.0125
  163SAPE   H4X18349   6.327   4.496   7.550 -2.7190  0.6801  1.3727
  163SAPE   H4Y18350   6.359   4.325   7.512 -0.5696 -0.9570 -1.1121
  163SAPE   C3518351   6.145   4.379   7.566  0.0324  0.0274 -0.0188
  163SAPE   H5X18352   6.083   4.313   7.500  1.2874 -0.9493 -0.2657
  163SAPE   H5Y18353   6.087   4.473   7.573  0.2955  0.0301  3.6043
  163SAPE   C3618354   6.148   4.314   7.712 -0.2870 -0.6445 -0.6562
  163SAPE   H6X18355   6.192   4.212   7.712  0.7611 -0.2125 -1.4307
  163SAPE   H6Y18356   6.041   4.304   7.740 -0.6130  0.4890 -1.4266
  163SAPE   C3718357   6.222   4.408   7.809  0.0440  0.1796  0.6312
  163SAPE   H7X18358   6.170   4.505   7.796 -0.2931 -0.2876 -2.4888
  163SAPE   H7Y18359   6.332   4.416   7.796 -0.0856  0.1794 -0.6306
  163SAPE   C3818360   6.200   4.368   7.954 -0.9223 -0.4602  0.2698
  163SAPE   H8X18361   6.229   4.263   7.974  0.1747 -0.5430 -1.5921
  163SAPE   H8Y18362   6.091   4.365   7.977 -0.6647 -3.5345  1.5040
  163SAPE   C3918363   6.275   4.461   8.051 -0.3236 -0.1303 -0.1547
  163SAPE   H9X18364   6.258   4.569   8.033 -2.6295 -0.7877 -2.4360
  163SAPE   H9Y18365   6.385   4.445   8.039  0.2891  1.5418  2.3844
  163SAPE  C31018366   6.248   4.434   8.202 -0.1498  0.4375  0.5059
  163SAPE  H10X18367   6.153   4.480   8.236 -0.3121  2.7967 -2.6988
  163SAPE  H10Y18368   6.340   4.474   8.250  1.4807 -0.6607 -1.5343
  163SAPE  C31118369   6.235   4.283   8.228 -0.6735  0.5556  0.1016
  163SAPE  H11X18370   6.310   4.231   8.165 -1.3700 -0.5234  0.1385
  163SAPE  H11Y18371   6.137   4.252   8.187 -0.0459 -0.9965 -0.3113
  163SAPE  C31218372   6.245   4.249   8.376  0.3220 -0.3956 -0.2798
  163SAPE  H12X18373   6.232   4.141   8.399  1.5716 -1.2259 -3.1176
  163SAPE  H12Y18374   6.163   4.294   8.436 -0.3596 -0.5629 -1.0714
  163SAPE  C31318375   6.389   4.277   8.440  0.4623 -0.2228  0.1498
  163SAPE  H13X18376   6.445   4.355   8.384  1.3953 -1.4819 -0.7282
  163SAPE  H13Y18377   6.451   4.184   8.439  0.4739 -0.2339 -1.9205
  163SAPE  C31418378   6.388   4.317   8.588  0.3590  0.0869 -0.3162
  163SAPE  H14X18379   6.339   4.245   8.657 -0.7101  2.8208  1.9774
  163SAPE  H14Y18380   6.306   4.392   8.590  0.9715  0.7743 -0.5529
  163SAPE  C31518381   6.516   4.374   8.646  0.0054  0.3210 -1.1025
  163SAPE  H15X18382   6.602   4.305   8.658  0.6436  1.4097  1.0732
  163SAPE  H15Y18383   6.487   4.417   8.745 -3.4276  0.0183 -1.8493
  163SAPE  C31618384   6.593   4.492   8.578  0.4621 -0.3874  0.4330
  163SAPE  H16X18385   6.536   4.584   8.605 -1.5326 -1.1242 -0.9709
  163SAPE  H16Y18386   6.574   4.490   8.469  0.9756 -0.0740  0.3363
  163SAPE  C31718387   6.740   4.503   8.614 -0.3625 -0.4538  0.1913
  163SAPE  H17X18388   6.803   4.418   8.580  1.4127  1.4724 -1.7357
  163SAPE  H17Y18389   6.742   4.497   8.725 -0.4340 -0.5009  0.1901
  163SAPE  C31818390   6.790   4.633   8.558  0.3967 -0.2309 -0.1271
  163SAPE  H18X18391   6.732   4.706   8.619  1.8761 -1.0936  2.4580
  163SAPE  H18Y18392   6.760   4.644   8.451 -0.8239 -5.5666 -0.6689
  163SAPE  H18Z18393   6.898   4.655   8.567  0.2844  2.3913 -3.3532
  164SAPE     N18394   4.639   4.653   6.514 -0.2430  0.3403  0.3311
  164SAPE   HN118395   4.674   4.665   6.612  0.2998  0.9190  0.0749
  164SAPE   HN218396   4.552   4.709   6.507 -0.0739  0.5382 -0.1732
  164SAPE   HN318397   4.614   4.553   6.500  2.6441 -0.3896 -0.2075
  164SAPE   C1218398   4.741   4.692   6.413  0.3097 -0.9234 -0.2227
  164SAPE  H12A18399   4.804   4.601   6.406  1.3140 -0.2633 -0.0777
  164SAPE  H12B18400   4.807   4.771   6.454 -0.5078  0.6541 -1.7791
  164SAPE   C1118401   4.670   4.725   6.280 -0.2466  0.4428 -0.0756
  164SAPE  H11A18402   4.610   4.638   6.245 -0.4826  1.2973 -1.8688
  164SAPE  H11B18403   4.756   4.748   6.214  0.9152  1.0987  1.5864
  164SAPE     P18404   4.559   4.947   6.198 -0.5214 -0.3328 -0.4200
  164SAPE   O1318405   4.674   4.954   6.107  0.1652  0.1396  0.2132
  164SAPE   O1418406   4.419   4.938   6.141 -0.1856  0.0665 -0.5351
  164SAPE   O1218407   4.582   4.838   6.308 -0.2512  0.6374  0.5062
  164SAPE   O1118408   4.567   5.084   6.277 -0.6376 -0.6811 -0.2246
  164SAPE    C118409   4.679   5.101   6.366  0.4781  0.2956 -0.5385
  164SAPE    HA18410   4.760   5.033   6.335 -1.4001 -1.7688 -1.1746
  164SAPE    HB18411   4.724   5.201   6.348  1.2423 -0.2618 -1.8389
  164SAPE    C218412   4.634   5.087   6.516  0.9488 -0.2566  0.1535
  164SAPE    HS18413   4.566   5.000   6.518  2.8584 -1.9652 -2.2803
  164SAPE   O2118414   4.568   5.220   6.559 -0.3308  0.3494 -0.0570
  164SAPE   C2118415   4.459   5.214   6.626  0.0792  0.7342 -0.8810
  164SAPE   O2218416   4.403   5.110   6.665 -0.4980  0.5074  0.0433
  164SAPE   C2218417   4.427   5.357   6.684  0.3438 -0.1172 -0.2468
  164SAPE   H2R18418   4.498   5.426   6.635 -1.5525 -0.8141 -4.3812
  164SAPE   H2S18419   4.332   5.382   6.632  1.5143 -0.0516 -2.4567
  164SAPE    C318420   4.750   5.051   6.613  0.0126  0.1052  0.9786
  164SAPE    HX18421   4.812   5.143   6.609  0.8566 -0.4469  1.0953
  164SAPE    HY18422   4.802   4.963   6.569 -2.2602  0.4111 -2.7348
  164SAPE   O3118423   4.712   5.035   6.750  0.3049  0.4213 -0.1911
  164SAPE   C3118424   4.684   4.915   6.794  0.2040  0.0048  0.3207
  164SAPE   O3218425   4.698   4.815   6.725 -0.6872  0.3393 -0.2101
  164SAPE   C3218426   4.647   4.922   6.935  0.3766 -0.4523 -0.1723
  164SAPE   H2X18427   4.590   5.015   6.955 -0.7756 -1.3379  0.8308
  164SAPE   H2Y18428   4.735   4.922   7.002  1.0233  2.1725 -0.9283
  164SAPE   C2318429   4.421   5.354   6.843  0.4846  0.5146 -0.2121
  164SAPE   H3R18430   4.357   5.276   6.888  1.9044  0.3920  1.6834
  164SAPE   H3S18431   4.371   5.447   6.878 -1.6658 -0.3055 -0.9329
  164SAPE   C2418432   4.553   5.329   6.913 -0.4001  0.3750  0.4192
  164SAPE   H4R18433   4.628   5.405   6.883 -1.4548  0.7761 -1.3577
  164SAPE   H4S18434   4.592   5.232   6.876 -1.7074 -0.0761  0.1737
  164SAPE   C2518435   4.532   5.313   7.065 -0.2196  0.0358 -0.5319
  164SAPE   H5R18436   4.461   5.236   7.099  0.6928 -0.3348  0.5684
  164SAPE   C2618437   4.590   5.398   7.156  0.6126 -0.0731  0.3634
  164SAPE   H6R18438   4.581   5.364   7.260  0.7649 -3.2688 -0.5718
  164SAPE   C2718439   4.678   5.516   7.126 -0.4291  0.1676 -0.1322
  164SAPE   H7R18440   4.697   5.520   7.016 -0.3842 -1.3518 -0.1974
  164SAPE   H7S18441   4.777   5.493   7.171 -1.2408  0.8159  2.1100
  164SAPE   C2818442   4.640   5.656   7.177  0.7111 -0.3473 -0.7205
  164SAPE   H8R18443   4.628   5.735   7.100  0.0149  1.5504  1.2279
  164SAPE   C2918444   4.634   5.697   7.307 -0.3945  0.3441 -0.0912
  164SAPE   H9R18445   4.612   5.800   7.337  2.7264 -0.0299  4.4765
  164SAPE  C21018446   4.669   5.610   7.430  0.2198  0.2055 -0.5246
  164SAPE  H10R18447   4.729   5.522   7.399  1.2137  1.2024 -1.5288
  164SAPE  H10S18448   4.575   5.577   7.479  0.7820  0.5673  0.8520
  164SAPE  C21118449   4.746   5.691   7.523  0.7114 -0.3537 -0.4976
  164SAPE  H11R18450   4.828   5.743   7.472  0.0125 -0.3995 -1.6856
  164SAPE  C21218451   4.731   5.712   7.661  0.1173  0.9239  0.1557
  164SAPE  H12R18452   4.805   5.780   7.706 -0.1236  0.9284  0.5512
  164SAPE  C21318453   4.628   5.649   7.742 -0.2125 -0.1416 -0.0683
  164SAPE  H13R18454   4.582   5.562   7.692 -1.3506  0.0150  0.6586
  164SAPE  H13S18455   4.543   5.717   7.767  0.6302  0.3062  1.8082
  164SAPE  C21418456   4.693   5.606   7.868 -0.2682 -0.2038 -0.6939
  164SAPE  H14R18457   4.754   5.516   7.854 -2.0088 -1.0322 -4.1798
  164SAPE  C21518458   4.666   5.649   8.002  0.9319 -0.2591  0.4885
  164SAPE  H15R18459   4.719   5.611   8.091 -0.8927 -0.0677  1.7018
  164SAPE  C21618460   4.560   5.750   8.028  0.0941  0.0378 -0.6068
  164SAPE  H16R18461   4.467   5.735   7.970  1.8145  0.2287 -3.6540
  164SAPE  H16S18462   4.598   5.844   7.982 -2.7817  0.5333 -2.2220
  164SAPE  C21718463   4.520   5.760   8.175 -0.6112  0.2123 -0.3958
  164SAPE  H17R18464   4.517   5.659   8.221  1.0365  0.7440  1.0073
  164SAPE  H17S18465   4.417   5.800   8.179 -0.0536  1.7647 -0.9365
  164SAPE  C21818466   4.600   5.860   8.254 -0.2755  0.1752 -0.3352
  164SAPE  H18R18467   4.579   5.965   8.225 -1.7542 -0.7115 -2.8633
  164SAPE  H18S18468   4.707   5.843   8.231 -0.2349  0.7677 -0.6196
  164SAPE  C21918469   4.588   5.845   8.406 -0.2410  0.0051  0.2675
  164SAPE  H19R18470   4.652   5.912   8.468  0.3584 -2.0876  2.0108
  164SAPE  H19S18471   4.642   5.753   8.437  3.2929  1.6006 -0.5578
  164SAPE  C22018472   4.450   5.857   8.457 -0.4605  0.2385 -0.2972
  164SAPE  H20R18473   4.401   5.955   8.438 -0.7196 -0.0762 -1.3349
  164SAPE  H20S18474   4.445   5.844   8.568  2.3224  3.6240  0.4103
  164SAPE  H20T18475   4.392   5.772   8.415 -1.2447 -0.6497  2.3635
  164SAPE   C3318476   4.554   4.801   6.977  0.2735  0.2927 -0.1471
  164SAPE   H3X18477   4.601   4.700   6.971 -0.3130 -0.1049  1.5691
  164SAPE   H3Y18478   4.484   4.786   6.892  1.6789 -1.2389 -1.1115
  164SAPE   C3418479   4.497   4.816   7.120 -0.1463 -0.3914 -0.2898
  164SAPE   H4X18480   4.418   4.740   7.139 -0.0151 -0.4588 -0.0148
  164SAPE   H4Y18481   4.434   4.908   7.128 -0.6667 -0.8347  1.0920
  164SAPE   C3518482   4.600   4.823   7.235  0.4548 -0.6299  0.5126
  164SAPE   H5X18483   4.670   4.905   7.208  2.3123 -2.0964  0.6970
  164SAPE   H5Y18484   4.649   4.723   7.233  1.2711 -0.2629  1.2622
  164SAPE   C3618485   4.550   4.851   7.381 -0.0307  0.2383  0.0517
  164SAPE   H6X18486   4.487   4.942   7.380 -1.1140 -0.4311  2.2240
  164SAPE   H6Y18487   4.635   4.855   7.451  0.1341  1.2836 -0.1873
  164SAPE   C3718488   4.464   4.728   7.426 -0.2476 -0.8166 -0.2827
  164SAPE   H7X18489   4.521   4.634   7.412 -1.5081 -1.8480  1.1479
  164SAPE   H7Y18490   4.380   4.719   7.354  0.7707  1.4296 -1.8771
  164SAPE   C3818491   4.408   4.746   7.577  0.1816 -0.4442  0.2381
  164SAPE   H8X18492   4.328   4.672   7.596 -0.9871  1.0675  1.5416
  164SAPE   H8Y18493   4.366   4.849   7.580  0.0377 -0.3271 -2.6170
  164SAPE   C3918494   4.518   4.716   7.677 -0.2948 -0.0401  0.0378
  164SAPE   H9X18495   4.598   4.793   7.665 -2.6150  2.7382  1.2942
  164SAPE   H9Y18496   4.565   4.620   7.647  1.3053  1.3666 -2.3720
  164SAPE  C31018497   4.460   4.732   7.817  0.3300  0.8708 -0.8699
  164SAPE  H10X18498   4.384   4.652   7.831  2.2771 -1.2074 -1.5923
  164SAPE  H10Y18499   4.416   4.833   7.827 -1.5950 -0.0818  1.0473
  164SAPE  C31118500   4.563   4.718   7.928 -0.1202 -0.1873 -0.0671
  164SAPE  H11X18501   4.650   4.783   7.906 -0.1315  0.0091  0.4490
  164SAPE  H11Y18502   4.602   4.614   7.936 -2.2067 -0.9316  1.5833
  164SAPE  C31218503   4.508   4.765   8.064  0.2797 -0.1319 -0.3543
  164SAPE  H12X18504   4.403   4.732   8.076  0.1448 -0.2170 -1.6625
  164SAPE  H12Y18505   4.484   4.873   8.063 -0.1534 -0.2280 -0.5590
  164SAPE  C31318506   4.593   4.720   8.177  0.1698  0.2687 -0.6511
  164SAPE  H13X18507   4.701   4.718   8.152  0.4521  1.7363  0.3589
  164SAPE  H13Y18508   4.560   4.621   8.214  1.2357  0.3808  0.6589
  164SAPE  C31418509   4.580   4.817   8.297 -0.1655 -0.1463  0.1114
  164SAPE  H14X18510   4.472   4.823   8.322  0.0610 -0.0508  1.0757
  164SAPE  H14Y18511   4.612   4.917   8.261  0.1126 -0.1520  0.3431
  164SAPE  C31518512   4.666   4.787   8.417 -0.2597  0.5577 -0.9032
  164SAPE  H15X18513   4.768   4.790   8.374 -0.7999  1.2477 -2.1937
  164SAPE  H15Y18514   4.641   4.688   8.461 -1.7767  0.9621 -0.7889
  164SAPE  C31618515   4.665   4.899   8.515  0.4614  0.3515  0.0744
  164SAPE  H16X18516   4.561   4.913   8.549  0.6250  1.3525  0.2225
  164SAPE  H16Y18517   4.694   4.995   8.466  0.5087  1.0234  1.3811
  164SAPE  C31718518   4.750   4.875   8.643 -0.4558  0.4829 -0.2651
  164SAPE  H17X18519   4.856   4.892   8.614 -0.5597 -0.0571 -0.9941
  164SAPE  H17Y18520   4.736   4.768   8.671 -3.5918  1.3082  1.8090
  164SAPE  C31818521   4.721   4.966   8.762 -0.8611  0.1202  0.3316
  164SAPE  H18X18522   4.618   4.965   8.802 -0.9132 -0.7585  0.1837
  164SAPE  H18Y18523   4.738   5.066   8.717 -2.9506  1.1744  1.7613
  164SAPE  H18Z18524   4.796   4.951   8.843  0.4941  1.6812 -0.5511
  165SAPE     N18525   5.369   4.611   6.349  0.0775  0.7635  0.1628
  165SAPE   HN118526   5.360   4.508   6.339  0.2298  0.8155 -0.5699
  165SAPE   HN218527   5.461   4.627   6.395  0.0326 -0.1569  0.5955
  165SAPE   HN318528   5.294   4.635   6.418  0.5634 -1.3120  1.5124
  165SAPE   C1218529   5.348   4.669   6.214  0.4175 -0.0293  0.1301
  165SAPE  H12A18530   5.255   4.622   6.177  0.1258  1.0528 -0.5281
  165SAPE  H12B18531   5.438   4.633   6.160 -0.2583 -1.3669 -0.1448
  165SAPE   C1118532   5.335   4.818   6.223 -0.5039  0.1230  0.0910
  165SAPE  H11A18533   5.322   4.867   6.124  2.4654  1.2447  0.1427
  165SAPE  H11B18534   5.435   4.853   6.257  0.2218 -1.3477 -0.4664
  165SAPE     P18535   5.086   4.873   6.293  0.6453 -0.2338  0.3497
  165SAPE   O1318536   5.072   4.946   6.165  0.3717  0.5101 -0.6078
  165SAPE   O1418537   5.029   4.739   6.299 -0.2731 -0.2366  0.1063
  165SAPE   O1218538   5.242   4.857   6.325  0.2950  0.0806  0.7661
  165SAPE   O1118539   5.008   4.950   6.415 -0.4757 -0.4763  0.2006
  165SAPE    C118540   5.063   5.067   6.471  0.3688 -0.2407 -0.0493
  165SAPE    HA18541   5.105   5.136   6.395  1.6211 -0.6722  0.2232
  165SAPE    HB18542   4.983   5.123   6.525 -1.2681 -1.0225 -1.5586
  165SAPE    C218543   5.166   5.024   6.583  0.1603 -0.0640  0.4796
  165SAPE    HS18544   5.264   4.997   6.538  0.4443  0.8140  0.5412
  165SAPE   O2118545   5.116   4.912   6.662  0.3268 -0.5666  0.5989
  165SAPE   C2118546   5.207   4.851   6.736  0.2640 -0.0544 -0.1259
  165SAPE   O2218547   5.330   4.870   6.736  0.3088  0.0004 -0.2049
  165SAPE   C2218548   5.128   4.775   6.837  0.4960  0.0100  0.2535
  165SAPE   H2R18549   5.055   4.702   6.795 -0.2094  0.4949  0.6042
  165SAPE   H2S18550   5.207   4.714   6.886  2.0017  1.2920 -0.5065
  165SAPE    C318551   5.201   5.147   6.674 -0.8478  0.5812  0.9764
  165SAPE    HX18552   5.205   5.228   6.598 -0.8342 -0.8005 -0.5374
  165SAPE    HY18553   5.299   5.126   6.720 -2.2055 -2.1510  2.8872
  165SAPE   O3118554   5.100   5.172   6.770  0.2292  0.1969  0.0950
  165SAPE   C3118555   5.022   5.273   6.753 -0.2070 -0.4696  0.1689
  165SAPE   O3218556   5.023   5.356   6.662 -0.4303 -0.5880 -0.5041
  165SAPE   C3218557   4.936   5.272   6.873 -0.2725 -0.3882  0.3891
  165SAPE   H2X18558   4.914   5.169   6.909 -3.2162  0.1660  0.4230
  165SAPE   H2Y18559   4.841   5.319   6.839  0.1707  0.7563  0.6715
  165SAPE   C2318560   5.045   4.869   6.929 -0.3421  0.4672 -0.3861
  165SAPE   H3R18561   4.958   4.905   6.870 -1.2500  0.1898  0.7454
  165SAPE   H3S18562   5.100   4.962   6.954  1.5282 -0.9099  0.9158
  165SAPE   C2418563   5.004   4.793   7.060  0.0205 -0.5316  0.0827
  165SAPE   H4R18564   4.930   4.717   7.027 -0.1021 -0.5948  0.5003
  165SAPE   H4S18565   4.946   4.862   7.125 -0.3217 -1.7305  1.0854
  165SAPE   C2518566   5.113   4.738   7.147  0.6166 -0.4583  0.1103
  165SAPE   H5R18567   5.178   4.656   7.114  1.3415 -0.0196  0.4164
  165SAPE   C2618568   5.134   4.782   7.277 -0.6851  0.2926  0.3765
  165SAPE   H6R18569   5.217   4.735   7.331 -1.4406 -1.9093 -0.2509
  165SAPE   C2718570   5.070   4.896   7.358 -0.1588  0.4979 -0.5578
  165SAPE   H7R18571   5.020   4.970   7.291  1.7103  1.0573 -1.4009
  165SAPE   H7S18572   5.145   4.957   7.413  0.4772  0.3022 -1.1886
  165SAPE   C2818573   4.970   4.834   7.455  0.3501 -0.1850  0.2963
  165SAPE   H8R18574   4.875   4.803   7.410  0.5012 -1.3326  0.7506
  165SAPE   C2918575   4.987   4.798   7.589 -0.1807 -0.1563 -0.2261
  165SAPE   H9R18576   4.904   4.763   7.651  1.6149 -0.3847  2.1994
  165SAPE  C21018577   5.117   4.819   7.669  0.5576  0.4790 -0.4934
  165SAPE  H10R18578   5.142   4.928   7.670 -0.7127  0.7795 -0.1784
  165SAPE  H10S18579   5.196   4.763   7.614  0.7694 -3.7825  3.5975
  165SAPE  C21118580   5.109   4.757   7.801  0.2584  0.1456 -0.4395
  165SAPE  H11R18581   5.181   4.676   7.817  1.2672  1.0395 -0.3429
  165SAPE  C21218582   5.050   4.814   7.906  0.1932  0.1462 -1.5697
  165SAPE  H12R18583   5.036   4.744   7.990 -1.2415 -1.0365 -2.7344
  165SAPE  C21318584   4.973   4.941   7.923 -0.0350 -0.8354  0.2508
  165SAPE  H13R18585   4.913   4.929   8.017 -0.9474 -0.1540 -0.2237
  165SAPE  H13S18586   4.899   4.958   7.842 -0.6955 -0.4463  0.9213
  165SAPE  C21418587   5.071   5.057   7.914 -0.4566 -0.2062 -0.6590
  165SAPE  H14R18588   5.128   5.066   7.820 -1.2613  2.0841 -0.9915
  165SAPE  C21518589   5.089   5.154   8.006  0.1339  0.1344 -0.2557
  165SAPE  H15R18590   5.172   5.225   7.993 -0.6056  0.6098 -2.9307
  165SAPE  C21618591   5.021   5.163   8.145 -0.5727  0.4692 -0.4092
  165SAPE  H16R18592   4.929   5.102   8.153 -2.5338  3.3931  0.9787
  165SAPE  H16S18593   5.019   5.270   8.172  1.9703  0.4465  0.0944
  165SAPE  C21718594   5.115   5.107   8.255 -0.0848 -0.4096 -0.2167
  165SAPE  H17R18595   5.221   5.129   8.230  0.0394  1.2457  1.6058
  165SAPE  H17S18596   5.105   4.996   8.264  1.6176 -0.4401  2.0052
  165SAPE  C21818597   5.090   5.163   8.389 -0.2747  0.5600 -0.6672
  165SAPE  H18R18598   4.982   5.146   8.410 -0.4946  1.1553 -1.3165
  165SAPE  H18S18599   5.128   5.265   8.411  1.3278 -0.0807 -0.3413
  165SAPE  C21918600   5.158   5.072   8.504  0.2171 -0.8083  0.7011
  165SAPE  H19R18601   5.268   5.072   8.487  0.4597  0.0104  2.0729
  165SAPE  H19S18602   5.127   4.967   8.483 -1.3318 -0.0802 -0.8348
  165SAPE  C22018603   5.128   5.121   8.641  0.3903  0.0211  1.1178
  165SAPE  H20R18604   5.018   5.118   8.652  0.0572 -0.7621 -1.5941
  165SAPE  H20S18605   5.169   5.225   8.648 -1.9954  1.1054  0.1612
  165SAPE  H20T18606   5.168   5.057   8.722 -0.4922 -0.7016  0.9947
  165SAPE   C3318607   4.986   5.360   6.989 -0.1452 -0.3733 -0.2358
  165SAPE   H3X18608   4.898   5.363   7.056  0.5692 -0.6850  0.7424
  165SAPE   H3Y18609   5.027   5.456   6.951  1.8122 -0.7509  0.7941
  165SAPE   C3418610   5.104   5.293   7.072 -0.2774 -0.4422 -0.5397
  165SAPE   H4X18611   5.184   5.253   7.006 -0.0769 -1.1347  0.1191
  165SAPE   H4Y18612   5.059   5.203   7.119 -1.8552  1.1306  1.1337
  165SAPE   C3518613   5.154   5.373   7.197 -0.2400  0.3912 -0.6449
  165SAPE   H5X18614   5.108   5.474   7.199  0.7921  0.8644  0.4486
  165SAPE   H5Y18615   5.264   5.386   7.195  0.0244 -1.3381  0.4047
  165SAPE   C3618616   5.116   5.304   7.326  0.1069  0.0589  1.0273
  165SAPE   H6X18617   5.147   5.361   7.416  2.8010 -0.4878  0.5330
  165SAPE   H6Y18618   5.174   5.209   7.320 -0.5728 -0.3550  0.8644
  165SAPE   C3718619   4.963   5.268   7.340  0.3100 -0.8731 -0.0090
  165SAPE   H7X18620   4.926   5.188   7.272 -1.9298  2.1657 -2.6660
  165SAPE   H7Y18621   4.909   5.359   7.308  0.1526 -0.8979  0.1844
  165SAPE   C3818622   4.918   5.249   7.487 -0.3427 -0.1566 -0.7358
  165SAPE   H8X18623   4.923   5.340   7.551 -1.9563  0.2414 -1.1449
  165SAPE   H8Y18624   4.979   5.166   7.531 -0.7593 -0.8506 -1.4429
  165SAPE   C3918625   4.773   5.197   7.505  1.0494  0.4452 -0.2617
  165SAPE   H9X18626   4.743   5.125   7.426 -2.6276  1.3163  0.1683
  165SAPE   H9Y18627   4.698   5.278   7.489 -0.5736 -0.6288  1.5412
  165SAPE  C31018628   4.749   5.123   7.643 -0.0481 -0.1046  0.4068
  165SAPE  H10X18629   4.819   5.170   7.716  0.6120  1.2482 -1.0323
  165SAPE  H10Y18630   4.770   5.013   7.644 -1.0510 -0.3489 -1.0978
  165SAPE  C31118631   4.611   5.144   7.697  0.1368  0.0544 -0.6367
  165SAPE  H11X18632   4.546   5.078   7.637 -3.0192  0.3458  2.1635
  165SAPE  H11Y18633   4.599   5.252   7.671 -0.6462  0.3557  0.8895
  165SAPE  C31218634   4.577   5.122   7.850  0.1053  0.2710 -0.4287
  165SAPE  H12X18635   4.618   5.025   7.886 -4.6122 -2.6710 -1.9745
  165SAPE  H12Y18636   4.470   5.090   7.848 -0.1796  0.9619  1.6392
  165SAPE  C31318637   4.631   5.236   7.934  1.1048  0.5334  0.7104
  165SAPE  H13X18638   4.597   5.332   7.891  0.1252 -0.6089 -1.1841
  165SAPE  H13Y18639   4.741   5.237   7.926  1.1571 -1.1550  0.7511
  165SAPE  C31418640   4.587   5.220   8.075 -0.3448 -0.1124 -0.0227
  165SAPE  H14X18641   4.614   5.117   8.107 -1.8117 -0.0111  1.7368
  165SAPE  H14Y18642   4.477   5.237   8.081 -0.2843  1.5500 -2.3069
  165SAPE  C31518643   4.659   5.311   8.176 -0.4122 -0.3740  0.2339
  165SAPE  H15X18644   4.619   5.406   8.135 -2.6245 -1.8360 -1.2228
  165SAPE  H15Y18645   4.767   5.294   8.157 -0.3602  0.2593 -0.0327
  165SAPE  C31618646   4.615   5.298   8.323  0.2000 -0.1989 -0.5850
  165SAPE  H16X18647   4.612   5.195   8.365  1.2910  0.1123  0.3097
  165SAPE  H16Y18648   4.507   5.322   8.319  0.4901  1.0297 -1.9828
  165SAPE  C31718649   4.680   5.381   8.427  0.1827  0.2358 -0.1280
  165SAPE  H17X18650   4.690   5.487   8.396 -3.4765  1.0806  1.1104
  165SAPE  H17Y18651   4.782   5.339   8.437 -0.0857 -0.4399 -0.1812
  165SAPE  C31818652   4.622   5.345   8.567  0.6107 -0.1032  0.5524
  165SAPE  H18X18653   4.693   5.392   8.639  0.6289  0.9571 -0.1413
  165SAPE  H18Y18654   4.622   5.234   8.569  1.3788 -0.1111  0.4416
  165SAPE  H18Z18655   4.515   5.368   8.582  0.7233  0.4745  0.4996
  166SAPE     N18656   2.690   0.105   6.192 -0.4586 -0.4658 -0.4240
  166SAPE   HN118657   2.635   0.021   6.166 -1.6329  0.1545 -0.0039
  166SAPE   HN218658   2.761   0.126   6.119  1.7625 -0.5782  1.5922
  166SAPE   HN318659   2.739   0.081   6.280  2.7124 -2.2917 -2.4879
  166SAPE   C1218660   2.602   0.224   6.213 -0.4266 -0.3038  0.2220
  166SAPE  H12A18661   2.666   0.313   6.231  0.1086 -0.3000 -1.5947
  166SAPE  H12B18662   2.544   0.212   6.308  0.4467  0.8502  0.9351
  166SAPE   C1118663   2.510   0.241   6.091 -0.2295 -0.4543  0.3196
  166SAPE  H11A18664   2.574   0.264   6.004  0.2273  0.1678  0.8085
  166SAPE  H11B18665   2.439   0.324   6.111  0.0924  0.2975 -1.4962
  166SAPE     P18666   2.282   0.109   6.098  0.1017  0.0669  0.4577
  166SAPE   O1318667   2.211   0.231   6.050 -0.2597 -0.0758 -0.1565
  166SAPE   O1418668   2.236  -0.024   6.051 -0.8968  0.2382  0.7220
  166SAPE   O1218669   2.436   0.118   6.070 -0.4644  0.6068 -0.6925
  166SAPE   O1118670   2.269   0.103   6.254 -0.4971  0.0525  0.3718
  166SAPE    C118671   2.161   0.041   6.313 -0.3205  0.3115 -0.4851
  166SAPE    HA18672   2.059   0.074   6.283 -1.6718 -0.9927  2.3358
  166SAPE    HB18673   2.181  -0.067   6.301 -1.9766  0.0441 -1.2085
  166SAPE    C218674   2.149   0.059   6.469  0.0778 -0.9005 -0.5037
  166SAPE    HS18675   2.067  -0.002   6.512  1.7627 -1.4940  2.1503
  166SAPE   O2118676   2.132   0.193   6.503 -0.2367 -0.0418  0.2242
  166SAPE   C2118677   2.056   0.221   6.610 -0.5435 -0.0366 -0.0786
  166SAPE   O2218678   1.990   0.136   6.670  0.5159  0.2432  0.3102
  166SAPE   C2218679   2.072   0.373   6.639  0.5364  0.7626 -0.3146
  166SAPE   H2R18680   2.181   0.389   6.654  0.2084  1.0146  2.2607
  166SAPE   H2S18681   2.041   0.438   6.554 -1.6466  3.4430  2.3169
  166SAPE    C318682   2.277  -0.003   6.530  0.1169  0.5893 -0.4673
  166SAPE    HX18683   2.369   0.056   6.511  1.0011  0.2200  2.1428
  166SAPE    HY18684   2.276  -0.105   6.485 -0.4750  1.5308 -2.6737
  166SAPE   O3118685   2.254  -0.022   6.677  0.6618 -0.4378 -0.0409
  166SAPE   C3118686   2.325   0.053   6.753  0.2882 -0.1522  0.7545
  166SAPE   O3218687   2.403   0.138   6.714  0.0224  0.6533  0.0226
  166SAPE   C3218688   2.303   0.017   6.904 -0.2670 -0.4785  0.6198
  166SAPE   H2X18689   2.367  -0.071   6.929 -0.7288 -1.1540 -0.4855
  166SAPE   H2Y18690   2.199  -0.015   6.923 -0.0882 -1.7161 -0.3684
  166SAPE   C2318691   1.994   0.417   6.761 -0.1461  0.1647 -0.6443
  166SAPE   H3R18692   2.008   0.351   6.849 -3.3881 -0.1203 -0.2383
  166SAPE   H3S18693   1.885   0.417   6.744 -0.2585  2.2164 -0.1390
  166SAPE   C2418694   2.047   0.561   6.796  0.6513  0.8649  0.9489
  166SAPE   H4R18695   1.967   0.600   6.862 -0.6463 -1.2685  0.7439
  166SAPE   H4S18696   2.038   0.623   6.705 -0.1003  1.3213  1.3289
  166SAPE   C2518697   2.191   0.569   6.849  0.9529 -0.0257 -0.1614
  166SAPE   H5R18698   2.275   0.550   6.780  0.7473  0.1933 -0.4716
  166SAPE   C2618699   2.210   0.590   6.981 -0.4238  0.0357  0.5325
  166SAPE   H6R18700   2.317   0.593   7.007 -0.4853 -0.1039  0.8041
  166SAPE   C2718701   2.103   0.607   7.089 -0.1195 -0.2530 -0.2883
  166SAPE   H7R18702   2.025   0.674   7.045 -0.1341 -0.3983 -0.4861
  166SAPE   H7S18703   2.159   0.653   7.173  0.2589  1.2811 -1.3347
  166SAPE   C2818704   2.042   0.480   7.123  0.0059 -0.4510  0.1705
  166SAPE   H8R18705   2.041   0.402   7.045  1.3427 -1.7870  1.4482
  166SAPE   C2918706   1.986   0.455   7.241  0.2233 -0.2003 -0.1821
  166SAPE   H9R18707   1.928   0.363   7.259 -1.4901  1.3405  3.0155
  166SAPE  C21018708   1.977   0.550   7.358  0.4324 -0.0439  0.4887
  166SAPE  H10R18709   1.922   0.640   7.325 -0.0780 -0.2639  0.7262
  166SAPE  H10S18710   2.078   0.591   7.379  0.0923  0.7482  0.5969
  166SAPE  C21118711   1.929   0.477   7.481  0.1934  0.4492  0.5945
  166SAPE  H11R18712   1.830   0.431   7.472 -0.7109  1.9407  2.1702
  166SAPE  C21218713   1.989   0.484   7.600  0.8879  0.0664 -0.2217
  166SAPE  H12R18714   1.933   0.432   7.678 -2.4068  0.8724 -1.8738
  166SAPE  C21318715   2.111   0.576   7.632 -0.1246  0.3813 -1.2672
  166SAPE  H13R18716   2.095   0.674   7.582 -3.0822  1.2717  1.1064
  166SAPE  H13S18717   2.205   0.521   7.607 -0.1792 -0.6111  0.5184
  166SAPE  C21418718   2.116   0.624   7.778 -0.2802  0.2829 -0.1895
  166SAPE  H14R18719   2.095   0.732   7.782 -0.3840  0.3050 -1.1998
  166SAPE  C21518720   2.107   0.559   7.898  0.1102  0.4772  0.3085
  166SAPE  H15R18721   2.116   0.617   7.990  0.6997 -0.0858  0.6141
  166SAPE  C21618722   2.108   0.407   7.918  0.2200 -0.5135 -0.4224
  166SAPE  H16R18723   2.164   0.350   7.840  2.2482 -0.4458  0.8872
  166SAPE  H16S18724   2.002   0.374   7.924  0.6717 -1.9573  0.2201
  166SAPE  C21718725   2.172   0.353   8.050  0.4733 -0.0974 -0.1599
  166SAPE  H17R18726   2.282   0.369   8.048  0.4996  0.0284  1.2857
  166SAPE  H17S18727   2.147   0.245   8.051  0.1110 -0.0101  0.0773
  166SAPE  C21818728   2.113   0.424   8.173 -0.4142 -0.0927  0.0190
  166SAPE  H18R18729   2.005   0.451   8.168 -0.3552 -0.0107 -0.9644
  166SAPE  H18S18730   2.178   0.514   8.186  1.7070 -1.5925  0.2028
  166SAPE  C21918731   2.125   0.330   8.294 -0.5148 -0.3541 -0.2419
  166SAPE  H19R18732   2.231   0.305   8.312 -0.2866 -0.3585 -1.5016
  166SAPE  H19S18733   2.069   0.234   8.286  0.4362 -0.8909 -0.5463
  166SAPE  C22018734   2.072   0.381   8.428 -0.6063 -0.3053 -0.0268
  166SAPE  H20R18735   1.961   0.384   8.428 -0.5972  0.3228  0.2896
  166SAPE  H20S18736   2.106   0.486   8.444  1.1114 -1.0162  1.2260
  166SAPE  H20T18737   2.106   0.322   8.515  1.8269 -1.2216 -1.4979
  166SAPE   C3318738   2.347   0.135   7.001 -0.3542  0.4418 -0.2714
  166SAPE   H3X18739   2.286   0.225   6.978  0.0815  0.9194  0.3955
  166SAPE   H3Y18740   2.448   0.173   6.973 -0.0734 -0.6189 -0.7179
  166SAPE   C3418741   2.347   0.093   7.154  0.4433 -0.1170  0.4463
  166SAPE   H4X18742   2.378   0.179   7.218  1.4560  2.2465 -2.9368
  166SAPE   H4Y18743   2.409   0.001   7.164 -2.2058 -2.3985 -2.2299
  166SAPE   C3518744   2.203   0.052   7.206  1.1023 -0.3178  0.0599
  166SAPE   H5X18745   2.161  -0.025   7.137 -1.5054  0.9424  0.1486
  166SAPE   H5Y18746   2.141   0.143   7.200  1.4113 -0.0609  0.6988
  166SAPE   C3618747   2.208  -0.022   7.348 -0.3843 -0.3214  0.3398
  166SAPE   H6X18748   2.278  -0.108   7.341  1.0285  0.6713  1.6686
  166SAPE   H6Y18749   2.103  -0.055   7.364 -0.2198 -0.9804  0.1128
  166SAPE   C3718750   2.256   0.068   7.457  0.6238 -0.2884 -0.4410
  166SAPE   H7X18751   2.187   0.156   7.453 -1.8839 -2.1568 -0.5052
  166SAPE   H7Y18752   2.360   0.103   7.443 -0.1986  1.3708 -3.1993
  166SAPE   C3818753   2.252  -0.006   7.590  0.3972  0.5908 -0.7284
  166SAPE   H8X18754   2.314  -0.098   7.579 -0.9922 -0.5626  0.5911
  166SAPE   H8Y18755   2.147  -0.035   7.610  0.5599  0.3134 -0.2620
  166SAPE   C3918756   2.296   0.073   7.716  0.2323  0.0246 -0.1356
  166SAPE   H9X18757   2.224   0.151   7.748  2.5859  2.5074 -0.5617
  166SAPE   H9Y18758   2.396   0.116   7.693  0.2284  0.3801  0.5031
  166SAPE  C31018759   2.317  -0.022   7.836 -0.5036  0.3212 -0.3436
  166SAPE  H10X18760   2.378   0.035   7.909 -1.6394  2.1730 -0.7922
  166SAPE  H10Y18761   2.370  -0.113   7.802  0.3503  0.9349 -0.6795
  166SAPE  C31118762   2.183  -0.065   7.909 -0.0913 -0.9514  0.7813
  166SAPE  H11X18763   2.141  -0.150   7.850 -1.1494  1.0727 -1.5260
  166SAPE  H11Y18764   2.110   0.017   7.894  0.2946 -0.6705  0.4056
  166SAPE  C31218765   2.206  -0.091   8.062  0.6746 -0.9677 -0.3213
  166SAPE  H12X18766   2.238   0.007   8.104 -0.2616  0.2397 -2.3062
  166SAPE  H12Y18767   2.291  -0.160   8.080  1.1567 -0.8221 -1.9105
  166SAPE  C31318768   2.095  -0.164   8.139 -0.5940 -0.1959  1.0305
  166SAPE  H13X18769   2.076  -0.261   8.089  2.0896  0.4852 -1.6311
  166SAPE  H13Y18770   2.006  -0.098   8.131  0.4329  1.1686  0.4572
  166SAPE  C31418771   2.133  -0.178   8.285  0.3703 -0.0984 -0.2668
  166SAPE  H14X18772   2.160  -0.077   8.321 -0.5691  0.3401 -0.7595
  166SAPE  H14Y18773   2.223  -0.243   8.288 -0.3316 -1.0628  0.9159
  166SAPE  C31518774   2.018  -0.246   8.369 -0.7283  0.2845  0.0369
  166SAPE  H15X18775   2.068  -0.276   8.464  1.2907  1.3512 -0.6265
  166SAPE  H15Y18776   1.975  -0.335   8.318 -2.4855  1.6525 -1.0095
  166SAPE  C31618777   1.889  -0.157   8.391  0.0086  0.1157  0.5205
  166SAPE  H16X18778   1.831  -0.161   8.297 -2.0375  1.4255  1.6458
  166SAPE  H16Y18779   1.917  -0.051   8.407 -0.9651  0.4019  0.3893
  166SAPE  C31718780   1.808  -0.198   8.513 -0.2954  0.4525  0.2205
  166SAPE  H17X18781   1.866  -0.184   8.607  1.2191 -1.7035 -0.3043
  166SAPE  H17Y18782   1.799  -0.308   8.509  0.7435  0.3961 -1.9607
  166SAPE  C31818783   1.674  -0.135   8.524 -1.0268  0.3286 -0.3297
  166SAPE  H18X18784   1.689  -0.030   8.555 -0.9913 -0.2528  1.7517
  166SAPE  H18Y18785   1.614  -0.185   8.604 -0.0722 -0.7429 -0.2665
  166SAPE  H18Z18786   1.621  -0.133   8.426  0.1296  1.4493 -0.9556
  167SAPE     N18787   5.955   3.200   6.341 -0.2372 -0.1475 -0.1193
  167SAPE   HN118788   5.972   3.296   6.306  0.1174  0.2649  1.1155
  167SAPE   HN218789   6.029   3.132   6.313  0.0301 -1.3638  3.0713
  167SAPE   HN318790   5.870   3.152   6.304 -0.2555  0.1211 -0.4215
  167SAPE   C1218791   5.961   3.219   6.488 -0.4057 -0.1445 -0.7417
  167SAPE  H12A18792   5.872   3.279   6.519  0.6302  0.9929  0.1172
  167SAPE  H12B18793   6.051   3.270   6.528 -0.5289  0.0371 -0.6903
  167SAPE   C1118794   5.954   3.086   6.561 -0.8893  0.7306  0.6169
  167SAPE  H11A18795   5.967   3.110   6.669  2.5343  0.6063  0.3374
  167SAPE  H11B18796   6.034   3.013   6.538 -0.9970  0.9507 -0.5069
  167SAPE     P18797   5.799   2.874   6.545  0.2568  0.2637 -0.5740
  167SAPE   O1318798   5.694   2.839   6.454  0.3997 -0.4406 -0.8738
  167SAPE   O1418799   5.928   2.794   6.528  0.4516 -0.4135  0.3280
  167SAPE   O1218800   5.824   3.035   6.535  0.0631  0.2120 -0.6157
  167SAPE   O1118801   5.750   2.858   6.694  0.0220 -0.6820  0.2606
  167SAPE    C118802   5.835   2.891   6.801 -0.1852 -0.2181  0.1585
  167SAPE    HA18803   5.938   2.923   6.774 -0.5042  1.9865  1.3001
  167SAPE    HB18804   5.797   2.986   6.844  0.1082  0.0874 -0.2479
  167SAPE    C218805   5.858   2.765   6.886 -0.0132  0.2045 -0.4845
  167SAPE    HS18806   5.873   2.682   6.814 -2.2190  0.2410 -1.0596
  167SAPE   O2118807   5.736   2.746   6.955 -0.1680 -0.2111  0.3672
  167SAPE   C2118808   5.729   2.629   7.012  0.4818  0.3582 -0.9498
  167SAPE   O2218809   5.807   2.536   6.992 -0.1010 -0.5800 -0.5090
  167SAPE   C2218810   5.611   2.627   7.107  0.3956 -0.2160 -0.5105
  167SAPE   H2R18811   5.619   2.726   7.157  1.1585 -0.6643  0.2713
  167SAPE   H2S18812   5.516   2.624   7.050 -0.9234 -0.8195  1.6055
  167SAPE    C318813   5.972   2.797   6.980  0.2455  0.0052  0.3175
  167SAPE    HX18814   6.066   2.799   6.920  0.5081 -0.1133  0.7241
  167SAPE    HY18815   5.972   2.714   7.053 -0.8793 -0.6477 -0.3988
  167SAPE   O3118816   5.955   2.924   7.039 -0.1644 -0.4786  0.5487
  167SAPE   C3118817   5.888   2.936   7.151  0.1611 -0.6077 -0.3625
  167SAPE   O3218818   5.841   2.848   7.216 -0.1505 -0.0040 -0.4256
  167SAPE   C3218819   5.895   3.087   7.174  0.6512 -0.0688 -0.1936
  167SAPE   H2X18820   5.831   3.135   7.097  1.4382 -0.9924 -1.4454
  167SAPE   H2Y18821   5.997   3.126   7.153  1.8060 -2.0815  1.2756
  167SAPE   C2318822   5.612   2.501   7.204  0.6513  0.2777 -0.3937
  167SAPE   H3R18823   5.616   2.418   7.130  0.7307  0.6267 -0.7914
  167SAPE   H3S18824   5.513   2.494   7.253  0.6421 -0.5817 -0.5165
  167SAPE   C2418825   5.728   2.495   7.307 -0.6136  0.0699 -0.6267
  167SAPE   H4R18826   5.826   2.518   7.262  0.9207 -3.0148  0.8546
  167SAPE   H4S18827   5.727   2.386   7.329 -0.6200  0.1662 -0.1216
  167SAPE   C2518828   5.703   2.583   7.425  0.1102  0.0341  0.2884
  167SAPE   H5R18829   5.720   2.689   7.400  0.1187  0.1696  0.8608
  167SAPE   C2618830   5.658   2.543   7.544 -1.1550  0.8086 -0.4359
  167SAPE   H6R18831   5.640   2.618   7.623 -0.4102 -0.5869  1.1363
  167SAPE   C2718832   5.622   2.402   7.584 -0.3133 -0.1775 -0.0857
  167SAPE   H7R18833   5.555   2.356   7.508  2.7949 -0.7778 -2.6559
  167SAPE   H7S18834   5.563   2.408   7.678  0.0887  1.8877  0.0711
  167SAPE   C2818835   5.737   2.309   7.591 -0.3094  0.0160 -0.3184
  167SAPE   H8R18836   5.750   2.250   7.499  1.3448 -0.9633  0.4942
  167SAPE   C2918837   5.806   2.285   7.703 -0.2447 -0.0041  0.4376
  167SAPE   H9R18838   5.882   2.206   7.692 -1.8498 -1.3193 -2.4274
  167SAPE  C21018839   5.784   2.357   7.826  0.4763  0.0965  0.5043
  167SAPE  H10R18840   5.744   2.458   7.804 -0.6565 -0.6803 -1.1852
  167SAPE  H10S18841   5.885   2.376   7.868 -0.0736  1.1036  1.4147
  167SAPE  C21118842   5.702   2.282   7.923  0.6122 -0.1733 -0.3628
  167SAPE  H11R18843   5.596   2.289   7.895 -0.8952 -0.0254  4.4829
  167SAPE  C21218844   5.733   2.201   8.033 -0.6249  0.0890  0.1069
  167SAPE  H12R18845   5.645   2.153   8.078  0.5786 -1.9736  0.3765
  167SAPE  C21318846   5.873   2.175   8.088  0.2335  0.4419  0.2793
  167SAPE  H13R18847   5.919   2.265   8.136  0.0221  1.2392 -0.9538
  167SAPE  H13S18848   5.943   2.155   8.004  1.3439  1.5897  0.8788
  167SAPE  C21418849   5.885   2.068   8.193  0.0966 -0.5297  0.1473
  167SAPE  H14R18850   5.799   2.000   8.195  0.2635 -0.9244 -2.5876
  167SAPE  C21518851   5.986   2.042   8.280  0.1917  0.0972 -0.2440
  167SAPE  H15R18852   5.973   1.955   8.345 -1.3290  0.4631 -0.0350
  167SAPE  C21618853   6.109   2.124   8.295 -0.8660 -0.4110 -1.3343
  167SAPE  H16R18854   6.109   2.220   8.238 -0.0588  0.5627  0.2304
  167SAPE  H16S18855   6.197   2.063   8.267 -0.2229 -1.3614  2.2483
  167SAPE  C21718856   6.130   2.165   8.449  0.1380  0.5581  0.3507
  167SAPE  H17R18857   6.031   2.200   8.485  0.1579  2.0188 -0.9136
  167SAPE  H17S18858   6.196   2.252   8.467 -1.2604  1.7238  0.0286
  167SAPE  C21818859   6.171   2.050   8.544 -0.3577 -0.3804 -0.3088
  167SAPE  H18R18860   6.177   2.091   8.647 -1.6342 -1.2728  0.1449
  167SAPE  H18S18861   6.270   2.006   8.523 -0.8314 -3.0194  2.3497
  167SAPE  C21918862   6.082   1.922   8.567 -0.8046 -0.4268 -0.1783
  167SAPE  H19R18863   6.095   1.849   8.484 -0.2033 -1.3038  0.6733
  167SAPE  H19S18864   5.974   1.943   8.582 -1.0958 -2.4529  0.8844
  167SAPE  C22018865   6.112   1.862   8.705 -0.0340 -0.3050 -0.0109
  167SAPE  H20R18866   6.054   1.767   8.710 -1.5150  0.0902 -4.5655
  167SAPE  H20S18867   6.081   1.929   8.788  1.6050  0.6981 -0.1647
  167SAPE  H20T18868   6.220   1.840   8.719 -0.0038 -0.3309 -0.2875
  167SAPE   C3318869   5.848   3.125   7.325  0.2482 -0.4384  0.5359
  167SAPE   H3X18870   5.916   3.092   7.406 -0.0634 -0.8588  0.6289
  167SAPE   H3Y18871   5.755   3.065   7.339 -1.0938  0.8890 -1.8529
  167SAPE   C3418872   5.826   3.276   7.345 -0.0911  0.5340  0.3090
  167SAPE   H4X18873   5.751   3.315   7.272 -2.7898  0.4516  2.8340
  167SAPE   H4Y18874   5.921   3.327   7.323 -0.3684  0.5020 -1.0581
  167SAPE   C3518875   5.778   3.314   7.487 -0.1775  0.4176 -0.1363
  167SAPE   H5X18876   5.681   3.264   7.505 -1.4082  2.2013 -1.4108
  167SAPE   H5Y18877   5.762   3.423   7.469 -0.5377  0.2550 -0.8401
  167SAPE   C3618878   5.890   3.278   7.598 -0.4090 -0.2553  0.2407
  167SAPE   H6X18879   5.984   3.334   7.579 -0.7406  0.6964  1.2961
  167SAPE   H6Y18880   5.914   3.171   7.584  2.2477  0.3255 -0.1727
  167SAPE   C3718881   5.852   3.299   7.747 -0.3794 -0.1153 -0.5010
  167SAPE   H7X18882   5.762   3.237   7.768 -1.9181  2.2960  0.4238
  167SAPE   H7Y18883   5.827   3.407   7.756 -0.9885 -0.1592 -1.4670
  167SAPE   C3818884   5.967   3.260   7.837  0.2266  0.6277  0.2905
  167SAPE   H8X18885   6.056   3.317   7.802  0.1552 -1.0284 -2.9661
  167SAPE   H8Y18886   5.999   3.155   7.827  2.2287  1.0320  1.8598
  167SAPE   C3918887   5.946   3.282   7.985  0.5167 -0.0021 -0.1942
  167SAPE   H9X18888   5.905   3.385   7.994 -1.9508 -0.8954 -0.4463
  167SAPE   H9Y18889   6.052   3.272   8.019  0.3077  0.5442  0.6466
  167SAPE  C31018890   5.859   3.182   8.060  0.0810 -1.1834  0.7109
  167SAPE  H10X18891   5.893   3.077   8.045 -1.0305 -1.5099  0.3994
  167SAPE  H10Y18892   5.761   3.202   8.011  1.0936 -0.0573 -0.9538
  167SAPE  C31118893   5.844   3.201   8.212  0.6174  0.2647  0.1147
  167SAPE  H11X18894   5.803   3.302   8.234 -0.2970 -0.0897  0.0770
  167SAPE  H11Y18895   5.943   3.198   8.264  0.5257 -0.6364  0.2522
  167SAPE  C31218896   5.754   3.097   8.282 -0.2137  0.2712 -0.1822
  167SAPE  H12X18897   5.796   2.995   8.274 -2.0117 -0.5392  0.0455
  167SAPE  H12Y18898   5.661   3.114   8.224  0.6162  0.6873 -1.4207
  167SAPE  C31318899   5.725   3.122   8.429 -0.1536 -0.2178 -0.7316
  167SAPE  H13X18900   5.663   3.213   8.440 -2.1086 -1.4952 -0.8247
  167SAPE  H13Y18901   5.820   3.141   8.484 -1.9699  1.9889  1.9574
  167SAPE  C31418902   5.650   3.000   8.493 -0.4008 -0.4361 -0.0669
  167SAPE  H14X18903   5.683   2.903   8.449  0.0396  0.4480 -1.7680
  167SAPE  H14Y18904   5.543   3.019   8.466  0.4246  1.0492 -2.6357
  167SAPE  C31518905   5.681   2.998   8.641 -0.2586  0.4078 -0.1917
  167SAPE  H15X18906   5.659   3.087   8.703  1.5202  1.2640 -0.7420
  167SAPE  H15Y18907   5.791   2.984   8.641  0.0245  2.1203 -2.5437
  167SAPE  C31618908   5.604   2.889   8.715  0.1777 -0.1426  0.1743
  167SAPE  H16X18909   5.633   2.793   8.667  1.3815  0.2474  0.0965
  167SAPE  H16Y18910   5.495   2.906   8.699  0.6306  0.6586 -2.5176
  167SAPE  C31718911   5.632   2.884   8.870  0.2728 -0.5297 -1.0197
  167SAPE  H17X18912   5.534   2.867   8.919  0.0266  0.2291 -1.2340
  167SAPE  H17Y18913   5.654   2.989   8.900  1.2515 -0.9772 -0.1352
  167SAPE  C31818914   5.743   2.787   8.906  0.5433 -0.2246 -0.4135
  167SAPE  H18X18915   5.768   2.784   9.014 -1.9216 -0.6805  0.1976
  167SAPE  H18Y18916   5.834   2.814   8.848  1.1964  0.7602  1.0083
  167SAPE  H18Z18917   5.720   2.681   8.883 -1.9757 -0.0928  1.1190
  168SAPE     N18918   5.984   5.517   6.680  0.2672 -0.8586  0.2116
  168SAPE   HN118919   6.067   5.493   6.623  1.2780 -0.3403  1.3975
  168SAPE   HN218920   5.906   5.519   6.611 -1.4619 -0.2257  2.0790
  168SAPE   HN318921   5.983   5.613   6.720 -2.8199 -1.2907  1.4993
  168SAPE   C1218922   5.963   5.412   6.785 -0.0641  0.2753  0.7329
  168SAPE  H12A18923   5.884   5.447   6.854 -0.4223 -0.8935  0.9306
  168SAPE  H12B18924   6.065   5.411   6.829  1.0255  2.8076 -1.4645
  168SAPE   C1118925   5.918   5.282   6.718 -0.1245 -0.7242  0.2479
  168SAPE  H11A18926   5.917   5.202   6.795 -2.0194 -0.9261  0.0591
  168SAPE  H11B18927   5.980   5.274   6.627  0.4544  2.8390  0.1592
  168SAPE     P18928   5.709   5.162   6.649 -0.0067  0.1999  0.0880
  168SAPE   O1318929   5.577   5.201   6.588 -0.4399 -0.1658 -0.3869
  168SAPE   O1418930   5.790   5.060   6.576 -0.7199 -0.4689  0.2671
  168SAPE   O1218931   5.786   5.303   6.661 -0.6167  0.0059  0.1242
  168SAPE   O1118932   5.686   5.115   6.802  0.1197  0.2741  0.8747
  168SAPE    C118933   5.617   5.202   6.893  0.0745  0.3103  0.7437
  168SAPE    HA18934   5.673   5.298   6.891  1.1735 -0.3066  0.9911
  168SAPE    HB18935   5.518   5.235   6.854 -0.5180  0.0668  2.0027
  168SAPE    C218936   5.613   5.138   7.036  0.2785  0.0985  0.5273
  168SAPE    HS18937   5.576   5.219   7.104 -4.6906 -0.6667 -0.8741
  168SAPE   O2118938   5.741   5.081   7.073 -0.0486 -0.1237 -0.3757
  168SAPE   C2118939   5.843   5.145   7.056 -0.4918  0.0249 -0.1790
  168SAPE   O2218940   5.859   5.268   7.037  0.0231 -0.5365 -0.5180
  168SAPE   C2218941   5.958   5.049   7.069  0.1618  0.6940 -0.2048
  168SAPE   H2R18942   5.936   4.950   7.023  2.1917 -1.1570  2.4430
  168SAPE   H2S18943   6.037   5.098   7.008 -1.2597  2.8262 -0.4167
  168SAPE    C318944   5.503   5.022   7.042  0.1528 -0.3163 -0.8095
  168SAPE    HX18945   5.523   4.968   6.947 -1.1079  0.1366 -1.3449
  168SAPE    HY18946   5.400   5.062   7.039  1.1652  2.8025  1.2341
  168SAPE   O3118947   5.528   4.936   7.160  0.3793  0.0407  0.0525
  168SAPE   C3118948   5.480   4.999   7.270 -0.5412 -0.3521 -0.9229
  168SAPE   O3218949   5.412   5.099   7.270 -0.7245  0.0317 -0.1653
  168SAPE   C3218950   5.533   4.919   7.392  0.7469 -0.3898  0.3567
  168SAPE   H2X18951   5.644   4.920   7.393  0.7498 -0.7648  0.5848
  168SAPE   H2Y18952   5.509   4.817   7.355 -1.1324  0.4702 -0.9391
  168SAPE   C2318953   6.017   5.034   7.214 -0.5736 -0.5422 -0.4057
  168SAPE   H3R18954   6.099   4.959   7.212 -2.1194 -2.3761  0.7558
  168SAPE   H3S18955   5.932   4.996   7.275 -0.1519  0.3257  0.7634
  168SAPE   C2418956   6.059   5.171   7.271 -0.5545 -0.2471  0.6829
  168SAPE   H4R18957   5.967   5.232   7.255 -0.3493 -0.3158 -0.8565
  168SAPE   H4S18958   6.140   5.216   7.211  1.0472 -1.2818  1.9715
  168SAPE   C2518959   6.093   5.180   7.419  0.0655 -0.1309  0.3410
  168SAPE   H5R18960   6.190   5.138   7.450 -0.3419  0.2507  2.2350
  168SAPE   C2618961   6.023   5.221   7.521 -0.4935 -0.0129  0.6820
  168SAPE   H6R18962   6.072   5.219   7.619 -1.7069 -0.4625  1.3038
  168SAPE   C2718963   5.890   5.281   7.525 -0.7457  0.8574 -0.4297
  168SAPE   H7R18964   5.822   5.253   7.442  1.0076 -0.7982 -1.3721
  168SAPE   H7S18965   5.906   5.391   7.523  0.8985  0.7132  1.3668
  168SAPE   C2818966   5.808   5.235   7.644 -0.2744  0.7175  0.1253
  168SAPE   H8R18967   5.755   5.141   7.620  2.2248 -1.0500  1.1072
  168SAPE   C2918968   5.795   5.289   7.766  0.0537  0.0366 -0.0950
  168SAPE   H9R18969   5.721   5.244   7.834 -0.3636  1.5302  0.4689
  168SAPE  C21018970   5.864   5.421   7.800  0.3575  0.5285 -0.0442
  168SAPE  H10R18971   5.873   5.494   7.716 -0.1626  2.0670  1.1980
  168SAPE  H10S18972   5.973   5.406   7.816 -0.1357 -0.3541  3.0767
  168SAPE  C21118973   5.804   5.482   7.926 -0.6451  0.1520  0.0069
  168SAPE  H11R18974   5.703   5.523   7.917 -0.9321 -0.1398  1.5466
  168SAPE  C21218975   5.868   5.497   8.044  0.3753 -0.3884  0.1665
  168SAPE  H12R18976   5.821   5.530   8.138  0.2757 -4.0963  1.6174
  168SAPE  C21318977   6.012   5.457   8.077 -0.3866  0.0699 -0.6507
  168SAPE  H13R18978   6.070   5.551   8.070  0.8475 -0.4297  1.8406
  168SAPE  H13S18979   6.064   5.398   7.998  0.4318  2.7250 -2.2307
  168SAPE  C21418980   6.031   5.394   8.215 -0.2020 -0.4493 -0.3717
  168SAPE  H14R18981   6.052   5.286   8.223  1.8951 -0.1283 -1.0340
  168SAPE  C21518982   6.050   5.470   8.330  0.4483 -0.3266  0.1879
  168SAPE  H15R18983   6.076   5.419   8.424 -0.9572 -2.2300 -0.3963
  168SAPE  C21618984   6.048   5.622   8.340  0.2957 -0.3214 -0.4095
  168SAPE  H16R18985   6.020   5.669   8.244  0.3754  0.2734 -0.1475
  168SAPE  H16S18986   6.153   5.655   8.351 -0.8119  3.4683  0.2940
  168SAPE  C21718987   5.970   5.677   8.466 -0.2504 -0.9539  0.3376
  168SAPE  H17R18988   5.876   5.622   8.483 -2.5718  2.3632 -0.8191
  168SAPE  H17S18989   5.939   5.781   8.443 -0.3475 -1.0325  0.1074
  168SAPE  C21818990   6.063   5.665   8.584 -0.3320  0.2590  0.6150
  168SAPE  H18R18991   6.160   5.717   8.565 -0.2158  0.1865  1.0116
  168SAPE  H18S18992   6.097   5.561   8.602  2.6729  1.1357  0.6360
  168SAPE  C21918993   5.993   5.709   8.716  0.1820  0.1791 -0.1448
  168SAPE  H19R18994   6.055   5.680   8.803 -0.2233 -1.6091 -0.4221
  168SAPE  H19S18995   5.895   5.658   8.722  1.0403 -1.3981  1.0041
  168SAPE  C22018996   5.978   5.862   8.727 -0.1395  0.2454 -0.0489
  168SAPE  H20R18997   6.045   5.930   8.670 -1.4036  0.1297 -1.7734
  168SAPE  H20S18998   5.991   5.894   8.833  0.3211 -0.5274  0.1334
  168SAPE  H20T18999   5.872   5.884   8.701  0.1267  0.2650 -1.1920
  168SAPE   C3319000   5.467   4.961   7.528 -0.4380 -0.7465 -0.0041
  168SAPE   H3X19001   5.356   4.958   7.526 -0.4212 -1.9117  0.0636
  168SAPE   H3Y19002   5.493   5.068   7.539 -2.9022 -0.2758  2.3609
  168SAPE   C3419003   5.519   4.878   7.645  1.1257  0.1140  0.6410
  168SAPE   H4X19004   5.629   4.879   7.655  1.0049 -0.1476  2.3097
  168SAPE   H4Y19005   5.506   4.768   7.638  4.1617 -0.2389 -1.7381
  168SAPE   C3519006   5.461   4.921   7.783  0.2360  1.1980  0.4892
  168SAPE   H5X19007   5.354   4.893   7.782  1.2775 -3.5105  0.7929
  168SAPE   H5Y19008   5.471   5.032   7.789  0.4921  1.3062 -1.3918
  168SAPE   C3619009   5.532   4.845   7.899  0.1400  0.3477 -0.3484
  168SAPE   H6X19010   5.642   4.863   7.904 -0.0143  1.1572  0.5169
  168SAPE   H6Y19011   5.513   4.737   7.881  0.5426  0.0485  0.8744
  168SAPE   C3719012   5.462   4.883   8.027 -0.3903  0.7924  0.3779
  168SAPE   H7X19013   5.354   4.891   8.002 -0.3151 -0.1931 -0.3173
  168SAPE   H7Y19014   5.488   4.984   8.065  2.1573  1.5030 -2.8232
  168SAPE   C3819015   5.483   4.771   8.128 -0.1578 -0.4657 -0.3680
  168SAPE   H8X19016   5.591   4.749   8.144 -0.3702 -1.6021 -0.3735
  168SAPE   H8Y19017   5.430   4.677   8.101  0.2176 -0.0259 -2.9050
  168SAPE   C3919018   5.435   4.826   8.262 -0.2598 -0.5047 -0.2385
  168SAPE   H9X19019   5.326   4.844   8.249 -0.3937 -1.0668  0.0696
  168SAPE   H9Y19020   5.479   4.927   8.283  1.7212 -1.6542  1.5840
  168SAPE  C31019021   5.466   4.730   8.382  0.0912 -0.5870 -0.2428
  168SAPE  H10X19022   5.576   4.714   8.384  0.1296 -0.4292 -0.8516
  168SAPE  H10Y19023   5.414   4.637   8.354  0.5558 -1.4243  1.5140
  168SAPE  C31119024   5.396   4.775   8.512  0.3511 -0.4210  0.7834
  168SAPE  H11X19025   5.325   4.860   8.501  4.2030  2.8998 -1.2962
  168SAPE  H11Y19026   5.472   4.825   8.575 -1.6937 -0.1564  3.1875
  168SAPE  C31219027   5.323   4.670   8.593  0.0117 -0.2486  1.0458
  168SAPE  H12X19028   5.410   4.619   8.641  2.4541  2.1809 -0.4902
  168SAPE  H12Y19029   5.271   4.600   8.524 -1.2678  0.3018  1.4267
  168SAPE  C31319030   5.216   4.723   8.689  0.2430  0.1881 -0.1506
  168SAPE  H13X19031   5.128   4.769   8.639  0.1994 -0.6596 -0.8754
  168SAPE  H13Y19032   5.265   4.793   8.760 -2.0517  0.8321  0.9037
  168SAPE  C31419033   5.154   4.607   8.766  0.2106  1.1673  0.5026
  168SAPE  H14X19034   5.239   4.554   8.814  0.2999  2.4439  1.8241
  168SAPE  H14Y19035   5.103   4.540   8.693 -2.2418  0.7099  2.4739
  168SAPE  C31519036   5.055   4.645   8.870 -0.3252 -0.7356 -0.1817
  168SAPE  H15X19037   4.967   4.695   8.823 -3.9485 -2.2964  4.1970
  168SAPE  H15Y19038   5.107   4.713   8.941 -2.1444 -1.7899  2.3047
  168SAPE  C31619039   4.995   4.517   8.945  0.2725 -0.5808  0.2234
  168SAPE  H16X19040   4.963   4.439   8.872  2.0341 -1.3244  0.2078
  168SAPE  H16Y19041   4.900   4.553   8.990 -1.3507 -1.0796 -2.5797
  168SAPE  C31719042   5.087   4.449   9.042 -0.0902 -0.1490  0.6146
  168SAPE  H17X19043   5.132   4.520   9.115 -0.5940 -0.3397  1.1235
  168SAPE  H17Y19044   5.167   4.407   8.978 -0.0610  1.4248 -0.4356
  168SAPE  C31819045   5.019   4.334   9.116  1.2637 -0.1252  1.0862
  168SAPE  H18X19046   4.924   4.367   9.164  0.2892 -2.5359  0.9265
  168SAPE  H18Y19047   5.089   4.310   9.199  1.0628  1.7059  1.8410
  168SAPE  H18Z19048   5.000   4.258   9.038  3.7256 -0.1108  0.3775
  169SAPE     N19049   5.816   6.039   6.286 -0.4105 -0.1885 -0.6059
  169SAPE   HN119050   5.904   6.038   6.232  0.1239  1.5719  0.1720
  169SAPE   HN219051   5.749   5.977   6.235 -0.7143  0.4876 -1.0434
  169SAPE   HN319052   5.791   6.140   6.283 -0.3584 -0.1967 -1.3235
  169SAPE   C1219053   5.864   5.979   6.416 -0.5481  0.2821  0.2860
  169SAPE  H12A19054   5.778   5.973   6.486 -0.6481  0.2829  0.1626
  169SAPE  H12B19055   5.944   6.044   6.459 -0.5309  0.6155 -0.2448
  169SAPE   C1119056   5.927   5.841   6.388 -0.5514  1.1485 -0.4313
  169SAPE  H11A19057   5.955   5.810   6.491  0.1073 -1.2965 -1.3007
  169SAPE  H11B19058   6.014   5.864   6.323 -0.6027  1.0478 -0.5349
  169SAPE     P19059   5.734   5.659   6.404  0.2163  0.4186 -0.0805
  169SAPE   O1319060   5.631   5.603   6.317 -0.5818  0.5057  0.1531
  169SAPE   O1419061   5.824   5.567   6.475 -0.3131  0.1074  0.6363
  169SAPE   O1219062   5.841   5.747   6.328  0.5835  0.0089  0.2990
  169SAPE   O1119063   5.664   5.755   6.505  0.5669 -0.2330  0.4351
  169SAPE    C119064   5.526   5.788   6.511 -0.6900 -0.0143 -0.2403
  169SAPE    HA19065   5.507   5.868   6.436 -0.0044 -0.1235 -0.5366
  169SAPE    HB19066   5.461   5.702   6.484  0.0838  0.2278 -3.2344
  169SAPE    C219067   5.487   5.840   6.648  0.0085 -0.1750 -0.0502
  169SAPE    HS19068   5.553   5.918   6.691 -1.6226  1.1861  0.0634
  169SAPE   O2119069   5.455   5.737   6.738  0.3881 -0.1092  0.3106
  169SAPE   C2119070   5.564   5.689   6.804 -0.6932 -0.3388  1.0618
  169SAPE   O2219071   5.669   5.750   6.800 -0.3083 -0.4024  0.2461
  169SAPE   C2219072   5.537   5.545   6.844 -0.4765 -0.1190  0.0058
  169SAPE   H2R19073   5.497   5.493   6.755 -2.2455  2.0262 -0.5356
  169SAPE   H2S19074   5.631   5.493   6.875  0.3507 -1.3162 -3.9189
  169SAPE    C319075   5.355   5.929   6.634 -0.8246  0.2521  0.7176
  169SAPE    HX19076   5.265   5.872   6.604 -0.2121 -0.3857  0.0473
  169SAPE    HY19077   5.372   6.006   6.556  1.3516 -0.4155  0.4474
  169SAPE   O3119078   5.335   6.014   6.756  0.0772 -0.4645  0.6319
  169SAPE   C3119079   5.251   5.944   6.831  0.1091 -0.0460  0.1375
  169SAPE   O3219080   5.215   5.831   6.813 -0.0161  0.4628 -0.0979
  169SAPE   C3219081   5.191   6.028   6.939  0.5431 -0.4319 -0.2247
  169SAPE   H2X19082   5.082   6.026   6.923  0.1839  2.4608  1.2154
  169SAPE   H2Y19083   5.221   6.131   6.910 -0.1626 -0.4822 -1.1617
  169SAPE   C2319084   5.426   5.550   6.957  0.0995 -0.2776  0.8237
  169SAPE   H3R19085   5.380   5.451   6.980 -0.0317  0.4062  3.9864
  169SAPE   H3S19086   5.349   5.618   6.915 -0.3120 -1.2357 -0.0343
  169SAPE   C2419087   5.473   5.604   7.091  0.0145 -0.3973 -0.0170
  169SAPE   H4R19088   5.394   5.583   7.166 -0.9629  0.9073 -0.6546
  169SAPE   H4S19089   5.480   5.714   7.082  2.2810 -0.5180 -0.4231
  169SAPE   C2519090   5.602   5.549   7.142  0.0935  0.9348 -0.2583
  169SAPE   H5R19091   5.683   5.531   7.070  0.6616 -1.9897  0.9669
  169SAPE   C2619092   5.624   5.505   7.268  0.2695 -0.1866 -0.2826
  169SAPE   H6R19093   5.729   5.484   7.292  0.8357 -0.3655 -2.6243
  169SAPE   C2719094   5.524   5.508   7.384  0.0825 -0.1454 -0.0855
  169SAPE   H7R19095   5.462   5.416   7.387 -0.7364  0.3861  3.7844
  169SAPE   H7S19096   5.456   5.593   7.365 -0.1091 -0.2370  0.1932
  169SAPE   C2819097   5.572   5.544   7.523 -0.0511 -0.5538 -0.2423
  169SAPE   H8R19098   5.657   5.613   7.526  0.1183 -0.7573 -0.4035
  169SAPE   C2919099   5.519   5.498   7.640 -0.4626 -0.5159  0.1203
  169SAPE   H9R19100   5.562   5.536   7.734 -1.0511  0.7759 -0.1087
  169SAPE  C21019101   5.400   5.402   7.651 -0.2509 -0.1974 -0.3426
  169SAPE  H10R19102   5.439   5.311   7.702  1.6079  0.2740 -0.8157
  169SAPE  H10S19103   5.360   5.370   7.553  0.9349 -1.8791 -0.3203
  169SAPE  C21119104   5.285   5.451   7.735 -0.1926 -0.3443  0.0203
  169SAPE  H11R19105   5.182   5.438   7.698 -0.4056 -0.5089  0.6687
  169SAPE  C21219106   5.296   5.481   7.865 -0.3025  0.0708 -1.0420
  169SAPE  H12R19107   5.203   5.511   7.915  0.2777  0.3092 -0.0681
  169SAPE  C21319108   5.418   5.475   7.959  0.3186  1.2950 -0.0570
  169SAPE  H13R19109   5.378   5.513   8.055  1.1749 -1.4857  1.5090
  169SAPE  H13S19110   5.493   5.545   7.916  0.6556  0.0722 -1.5529
  169SAPE  C21419111   5.496   5.345   7.986 -0.0907  0.0907 -0.1640
  169SAPE  H14R19112   5.537   5.302   7.893  1.5919  1.3801 -0.0510
  169SAPE  C21519113   5.543   5.306   8.110 -0.2391  0.1382 -0.7793
  169SAPE  H15R19114   5.608   5.218   8.111 -0.2636  0.1030 -1.6806
  169SAPE  C21619115   5.521   5.385   8.240 -0.1481 -0.3098  0.6867
  169SAPE  H16R19116   5.412   5.403   8.253  0.0690 -0.1831  2.7001
  169SAPE  H16S19117   5.575   5.482   8.236  2.5105 -1.7156  0.3517
  169SAPE  C21719118   5.572   5.295   8.351 -0.0852  0.3874 -0.3652
  169SAPE  H17R19119   5.682   5.276   8.344  0.0160  1.2197 -1.2045
  169SAPE  H17S19120   5.530   5.192   8.354  2.6835 -0.8242  2.0704
  169SAPE  C21819121   5.554   5.357   8.490  0.5632 -0.4400 -0.4357
  169SAPE  H18R19122   5.571   5.466   8.479  0.2165 -0.2210  1.0663
  169SAPE  H18S19123   5.641   5.325   8.552  2.1633 -0.3977 -2.5239
  169SAPE  C21919124   5.415   5.326   8.548  0.2880  0.0432 -0.0782
  169SAPE  H19R19125   5.408   5.215   8.558 -0.4987  0.1173  0.2029
  169SAPE  H19S19126   5.333   5.356   8.481  1.4015  0.1116 -1.4557
  169SAPE  C22019127   5.405   5.395   8.688  0.1962 -0.4862  0.0640
  169SAPE  H20R19128   5.409   5.505   8.670 -0.8491 -0.7398 -2.0331
  169SAPE  H20S19129   5.487   5.361   8.756  0.1940  0.0850  0.3620
  169SAPE  H20T19130   5.309   5.374   8.738  1.1795 -1.1182  1.7616
  169SAPE   C3319131   5.226   5.982   7.086  0.7326 -0.3439 -0.3895
  169SAPE   H3X19132   5.208   6.071   7.151  1.6509 -0.2323 -0.2798
  169SAPE   H3Y19133   5.335   5.963   7.079  1.0326  1.2016 -0.3524
  169SAPE   C3419134   5.126   5.878   7.130 -0.2810 -0.2963 -0.4422
  169SAPE   H4X19135   5.116   5.797   7.054 -1.7041 -0.3674 -0.2133
  169SAPE   H4Y19136   5.026   5.926   7.142  0.7895  2.0501 -0.4913
  169SAPE   C3519137   5.165   5.811   7.263 -0.0930 -0.0186  0.4540
  169SAPE   H5X19138   5.262   5.762   7.240  0.3230  1.6113 -1.6384
  169SAPE   H5Y19139   5.096   5.729   7.296 -0.5234 -0.1536 -0.7148
  169SAPE   C3619140   5.168   5.904   7.390  0.3364  0.1701  0.6057
  169SAPE   H6X19141   5.066   5.948   7.397  0.9303  1.3105  3.1396
  169SAPE   H6Y19142   5.242   5.987   7.380  0.1852  0.1078 -1.4201
  169SAPE   C3719143   5.202   5.832   7.516  0.2583  0.2190  0.8840
  169SAPE   H7X19144   5.300   5.780   7.526  0.3020  0.7636  4.4725
  169SAPE   H7Y19145   5.119   5.761   7.535 -1.8321  1.3908 -2.8644
  169SAPE   C3819146   5.196   5.934   7.634 -0.1755 -0.4548  0.5093
  169SAPE   H8X19147   5.109   6.001   7.619 -0.1633 -0.7321 -0.9053
  169SAPE   H8Y19148   5.292   5.989   7.620  0.2705 -1.7364 -1.8766
  169SAPE   C3919149   5.199   5.870   7.773 -0.8090 -0.6908  1.0124
  169SAPE   H9X19150   5.238   5.937   7.852  0.4960  0.0963 -0.2577
  169SAPE   H9Y19151   5.275   5.789   7.774 -1.0399 -0.9110  2.2375
  169SAPE  C31019152   5.067   5.794   7.822  0.1764 -1.0892  0.2638
  169SAPE  H10X19153   5.058   5.712   7.748 -0.0164 -0.4271 -0.4674
  169SAPE  H10Y19154   4.981   5.859   7.794 -0.4209 -1.0541  2.0541
  169SAPE  C31119155   5.062   5.741   7.961 -0.3295 -0.3463  0.0221
  169SAPE  H11X19156   5.158   5.711   8.008 -0.2523 -0.3253 -0.1252
  169SAPE  H11Y19157   5.000   5.649   7.965 -0.4316 -0.2428  1.8232
  169SAPE  C31219158   4.994   5.849   8.060 -0.1845  1.2552  0.2315
  169SAPE  H12X19159   4.888   5.824   8.080 -0.2009  1.0927 -0.0635
  169SAPE  H12Y19160   5.008   5.941   8.000  1.1249  1.1449  0.3295
  169SAPE  C31319161   5.051   5.855   8.202 -0.4527 -0.1126 -0.0198
  169SAPE  H13X19162   5.021   5.946   8.258  0.0192  0.4716 -0.7067
  169SAPE  H13Y19163   5.162   5.859   8.206 -0.4876  0.0825  1.4548
  169SAPE  C31419164   5.018   5.728   8.280 -0.5527  0.5256  0.6048
  169SAPE  H14X19165   5.066   5.637   8.238 -0.1448  0.5947  0.9076
  169SAPE  H14Y19166   4.911   5.706   8.259  0.4141 -3.4285 -1.2429
  169SAPE  C31519167   5.049   5.740   8.430 -0.0705  0.2617 -0.2008
  169SAPE  H15X19168   5.045   5.643   8.484 -0.3747  1.1548  1.4569
  169SAPE  H15Y19169   4.995   5.821   8.485  2.9177  1.7481  0.8131
  169SAPE  C31619170   5.194   5.785   8.471 -0.1581  0.3970 -0.0229
  169SAPE  H16X19171   5.209   5.895   8.463 -0.8156  0.5947  1.2252
  169SAPE  H16Y19172   5.260   5.739   8.395  0.5158  0.5023  0.4870
  169SAPE  C31719173   5.241   5.749   8.602 -0.5178 -0.0471 -0.4716
  169SAPE  H17X19174   5.274   5.643   8.597  2.3879  0.8015 -0.8489
  169SAPE  H17Y19175   5.168   5.745   8.686 -0.2913 -0.0615 -0.2738
  169SAPE  C31819176   5.348   5.849   8.652  0.2617 -0.1352  0.1768
  169SAPE  H18X19177   5.409   5.822   8.740 -0.2515  2.5328  1.4313
  169SAPE  H18Y19178   5.318   5.956   8.653  1.1999  0.1461 -0.5798
  169SAPE  H18Z19179   5.421   5.860   8.569 -0.4143 -1.7640 -0.6885
  170SAPE     N19180   0.869   2.853   6.499  0.2562  0.1387  0.0641
  170SAPE   HN119181   0.931   2.770   6.495 -0.8273 -0.8006  1.5253
  170SAPE   HN219182   0.911   2.931   6.553  1.1365 -1.1473  1.3088
  170SAPE   HN319183   0.787   2.823   6.556  1.5652 -0.4628  1.7306
  170SAPE   C1219184   0.831   2.887   6.354 -0.2404  0.3061  0.0146
  170SAPE  H12A19185   0.931   2.894   6.305  1.3067 -0.9817  2.7444
  170SAPE  H12B19186   0.783   2.987   6.352 -0.1711  0.3653  0.9006
  170SAPE   C1119187   0.735   2.779   6.300  0.3347  0.2131 -0.6417
  170SAPE  H11A19188   0.725   2.796   6.190  0.9326 -1.6630 -1.0213
  170SAPE  H11B19189   0.635   2.796   6.347 -0.6495 -1.7562 -1.8479
  170SAPE     P19190   0.724   2.522   6.265  0.0061 -0.2661  0.0133
  170SAPE   O1319191   0.633   2.577   6.160  0.0366  0.7862  0.4184
  170SAPE   O1419192   0.835   2.431   6.222  0.2708 -0.0284 -0.6053
  170SAPE   O1219193   0.775   2.649   6.345 -0.1481 -0.3910 -0.1873
  170SAPE   O1119194   0.639   2.440   6.374 -0.3155 -1.0533 -0.4339
  170SAPE    C119195   0.563   2.517   6.465 -0.5438  0.3666 -0.4011
  170SAPE    HA19196   0.524   2.614   6.428  1.0536  0.8949 -0.7879
  170SAPE    HB19197   0.473   2.456   6.488 -0.3782  0.8232  1.6551
  170SAPE    C219198   0.619   2.534   6.612  0.8547  0.1026 -0.4411
  170SAPE    HS19199   0.705   2.604   6.605  3.6537 -2.9659  0.4885
  170SAPE   O2119200   0.657   2.408   6.678 -0.0424  0.7770 -0.0110
  170SAPE   C2119201   0.777   2.380   6.648 -0.1217  0.1183  0.5124
  170SAPE   O2219202   0.854   2.440   6.572  0.4543 -0.3688  0.8835
  170SAPE   C2219203   0.824   2.250   6.733  0.0484 -0.5192  0.6166
  170SAPE   H2R19204   0.843   2.288   6.835 -1.5352 -0.0580  0.7686
  170SAPE   H2S19205   0.740   2.176   6.740 -1.6837  1.5053  2.8122
  170SAPE    C319206   0.504   2.602   6.698 -0.4198 -0.2994  0.1719
  170SAPE    HX19207   0.406   2.560   6.666 -0.2478  0.1579 -1.0094
  170SAPE    HY19208   0.522   2.705   6.660  0.7460 -0.1243  1.1386
  170SAPE   O3119209   0.536   2.593   6.839 -0.2079 -0.1505  0.1243
  170SAPE   C3119210   0.647   2.646   6.874 -0.0356 -0.7711 -0.4602
  170SAPE   O3219211   0.717   2.723   6.807  0.3676 -0.1928 -0.6714
  170SAPE   C3219212   0.684   2.617   7.019  0.4235 -0.1286 -0.1575
  170SAPE   H2X19213   0.694   2.507   7.026  3.0509  0.0603  0.0935
  170SAPE   H2Y19214   0.599   2.652   7.082  0.8841 -1.0356  1.0076
  170SAPE   C2319215   0.947   2.193   6.666 -0.0268 -0.0213 -0.4864
  170SAPE   H3R19216   1.036   2.256   6.648 -0.6733  1.0571 -0.0591
  170SAPE   H3S19217   0.918   2.166   6.562  0.5693  2.5731 -1.4165
  170SAPE   C2419218   0.983   2.057   6.732  0.0304  0.3150 -0.3336
  170SAPE   H4R19219   1.017   1.989   6.651  0.8485  0.1612  0.1281
  170SAPE   H4S19220   0.887   2.010   6.763 -0.4241 -0.2910 -2.4591
  170SAPE   C2519221   1.097   2.061   6.837 -0.7340 -0.1152  0.1419
  170SAPE   H5R19222   1.196   2.033   6.799  0.1676  0.6971  1.7968
  170SAPE   C2619223   1.084   2.083   6.970  0.3775 -0.0292 -0.4985
  170SAPE   H6R19224   1.175   2.059   7.027 -0.3728 -0.2575  0.6313
  170SAPE   C2719225   0.955   2.107   7.057  0.5531 -0.5680  0.5504
  170SAPE   H7R19226   0.913   2.007   7.082 -3.3505  0.4251 -1.2020
  170SAPE   H7S19227   0.873   2.147   6.993  1.1598 -0.4830 -0.1913
  170SAPE   C2819228   0.977   2.208   7.168  0.4612  1.2441 -0.3448
  170SAPE   H8R19229   1.021   2.302   7.133  1.4262  0.1358 -2.2796
  170SAPE   C2919230   0.969   2.180   7.298  0.3462 -0.0565  1.1460
  170SAPE   H9R19231   1.003   2.259   7.367  2.4921  0.3398 -0.2508
  170SAPE  C21019232   0.928   2.055   7.371 -0.0139 -0.2281  0.3706
  170SAPE  H10R19233   0.878   1.975   7.312 -0.9157  1.5778 -1.4575
  170SAPE  H10S19234   0.851   2.087   7.444 -1.0689  0.0458 -0.8309
  170SAPE  C21119235   1.042   2.003   7.450  0.4363 -0.6722  0.2260
  170SAPE  H11R19236   1.106   1.931   7.398 -1.3951 -1.4432 -1.0722
  170SAPE  C21219237   1.068   2.033   7.579 -0.2912  1.0760  0.0964
  170SAPE  H12R19238   1.145   1.977   7.633  0.4935  0.9410 -1.1161
  170SAPE  C21319239   0.987   2.121   7.668 -0.5424 -0.4367  0.3191
  170SAPE  H13R19240   0.923   2.186   7.604 -1.6630 -3.1317 -1.5112
  170SAPE  H13S19241   1.052   2.191   7.724  0.4942 -0.6215 -0.6252
  170SAPE  C21419242   0.910   2.059   7.780 -0.2845 -0.6848  0.3817
  170SAPE  H14R19243   0.806   2.041   7.747  0.0714 -1.9907 -0.0827
  170SAPE  C21519244   0.943   2.019   7.899  0.2142 -0.7307  0.3719
  170SAPE  H15R19245   0.865   1.982   7.967 -1.2546  0.5331 -0.5628
  170SAPE  C21619246   1.075   2.019   7.965 -0.0971  0.9363  0.0476
  170SAPE  H16R19247   1.149   2.077   7.905 -0.5239  1.6786  0.2228
  170SAPE  H16S19248   1.115   1.917   7.977 -0.1324  0.9215  0.0414
  170SAPE  C21719249   1.084   2.085   8.102  0.3971  0.3687  0.3865
  170SAPE  H17R19250   1.022   2.026   8.173  1.5311 -0.4820  0.7043
  170SAPE  H17S19251   1.035   2.185   8.100 -1.2283 -0.4196 -0.6851
  170SAPE  C21819252   1.225   2.095   8.174 -0.5007  0.5232  0.6816
  170SAPE  H18R19253   1.209   2.147   8.271 -1.8286 -0.0067  0.7654
  170SAPE  H18S19254   1.295   2.157   8.113 -2.2764  1.7250 -0.2056
  170SAPE  C21919255   1.283   1.955   8.201 -0.2606  0.4092 -0.7657
  170SAPE  H19R19256   1.304   1.899   8.107  1.4931 -0.4038  0.0501
  170SAPE  H19S19257   1.201   1.896   8.246  1.2139 -0.8603  0.4095
  170SAPE  C22019258   1.393   1.932   8.307 -0.4725  0.4831 -0.0423
  170SAPE  H20R19259   1.417   1.823   8.306 -3.2908 -0.2343 -1.3575
  170SAPE  H20S19260   1.370   1.956   8.413  0.4970  0.1599  0.2493
  170SAPE  H20T19261   1.482   1.984   8.267 -0.8426  1.8442  0.8499
  170SAPE   C3319262   0.818   2.680   7.066  0.5179  0.0989 -0.1475
  170SAPE   H3X19263   0.807   2.791   7.064 -0.4684  0.0624  1.2687
  170SAPE   H3Y19264   0.895   2.650   6.993 -0.0511 -0.1353 -0.6571
  170SAPE   C3419265   0.849   2.631   7.210  0.5929 -0.1906 -0.0105
  170SAPE   H4X19266   0.836   2.521   7.215 -0.1488 -0.0954  0.2764
  170SAPE   H4Y19267   0.776   2.669   7.285 -0.1430  0.6988 -1.1317
  170SAPE   C3519268   0.985   2.675   7.270  0.3921 -0.1293  0.1623
  170SAPE   H5X19269   0.981   2.785   7.283 -1.4296 -0.0271 -0.8679
  170SAPE   H5Y19270   1.050   2.655   7.182 -2.0816 -0.7298 -1.6680
  170SAPE   C3619271   1.024   2.601   7.397  0.3336  0.2285 -0.8596
  170SAPE   H6X19272   1.120   2.636   7.442 -1.3077  1.9743  1.5648
  170SAPE   H6Y19273   1.033   2.492   7.377 -0.1534  0.1675 -0.7438
  170SAPE   C3719274   0.927   2.622   7.519 -0.9867  1.2408 -0.5755
  170SAPE   H7X19275   0.823   2.591   7.500 -0.4527 -1.1054  0.0372
  170SAPE   H7Y19276   0.927   2.730   7.543  0.2369  1.0046  0.6415
  170SAPE   C3819277   0.981   2.556   7.646  0.9132  0.0740 -0.1776
  170SAPE   H8X19278   1.091   2.567   7.658  1.1701 -2.3910  0.2937
  170SAPE   H8Y19279   0.971   2.445   7.646  0.2159  0.1072  1.2946
  170SAPE   C3919280   0.903   2.602   7.779  0.3527  0.3835  0.0851
  170SAPE   H9X19281   0.794   2.598   7.758  0.3733  0.4796 -0.0376
  170SAPE   H9Y19282   0.934   2.706   7.804  1.0641 -0.3458  2.5592
  170SAPE  C31019283   0.920   2.522   7.917 -0.5523  0.1476  0.5302
  170SAPE  H10X19284   1.028   2.514   7.945 -0.3116 -1.5161 -0.6974
  170SAPE  H10Y19285   0.887   2.417   7.900 -1.9997  0.8363 -1.1870
  170SAPE  C31119286   0.859   2.594   8.038  0.1096 -0.2878 -0.1270
  170SAPE  H11X19287   0.749   2.575   8.038 -0.5986  2.9115 -2.5552
  170SAPE  H11Y19288   0.884   2.701   8.048  1.0997 -0.6756  2.4005
  170SAPE  C31219289   0.913   2.534   8.176  0.0066  0.2371 -0.6792
  170SAPE  H12X19290   1.020   2.505   8.167  0.6074  2.0786  0.1176
  170SAPE  H12Y19291   0.874   2.434   8.207  0.6167  0.3311  0.4251
  170SAPE  C31319292   0.894   2.628   8.291 -0.1496 -0.5502 -0.3983
  170SAPE  H13X19293   0.794   2.676   8.298  0.0376 -0.3059  0.8083
  170SAPE  H13Y19294   0.953   2.721   8.277 -1.2444  0.1637 -0.3714
  170SAPE  C31419295   0.932   2.572   8.429 -0.3280 -0.2515  0.1141
  170SAPE  H14X19296   1.038   2.541   8.439  0.4336  2.7172  3.3564
  170SAPE  H14Y19297   0.867   2.484   8.447 -1.9088  0.9465  0.5681
  170SAPE  C31519298   0.904   2.679   8.541  0.0858 -0.3369  0.3870
  170SAPE  H15X19299   0.796   2.706   8.535  0.4458  1.0650 -0.3259
  170SAPE  H15Y19300   0.970   2.764   8.514  1.3097 -0.8236  1.7327
  170SAPE  C31619301   0.935   2.638   8.689 -0.2239  0.8356  0.4754
  170SAPE  H16X19302   0.961   2.733   8.742  0.2005  0.8653  0.2137
  170SAPE  H16Y19303   1.017   2.564   8.683 -2.4245 -1.8460  1.0466
  170SAPE  C31719304   0.824   2.571   8.761  0.3402 -0.0362  0.3913
  170SAPE  H17X19305   0.735   2.638   8.761  0.7599  0.5348  0.5126
  170SAPE  H17Y19306   0.842   2.558   8.870  0.3295 -1.7893  0.2045
  170SAPE  C31819307   0.784   2.439   8.706 -0.0526  0.0604 -0.6879
  170SAPE  H18X19308   0.691   2.446   8.646  0.4208  1.9710 -1.2638
  170SAPE  H18Y19309   0.763   2.380   8.797 -0.3101 -0.9635 -1.3935
  170SAPE  H18Z19310   0.870   2.400   8.647  1.6852 -0.0028  1.7617
  171SAPE     N19311   6.365   4.512   6.474  0.2499 -0.1657  0.1869
  171SAPE   HN119312   6.393   4.611   6.491 -0.2710 -0.0009  0.1002
  171SAPE   HN219313   6.446   4.450   6.494 -0.2370 -1.0980 -0.6340
  171SAPE   HN319314   6.341   4.498   6.374  2.8871  2.2789 -0.9547
  171SAPE   C1219315   6.262   4.474   6.581 -0.4813  0.1566  0.1982
  171SAPE  H12A19316   6.161   4.492   6.538 -1.5445  2.1995  3.2456
  171SAPE  H12B19317   6.279   4.549   6.661  1.2423 -1.1912  1.1594
  171SAPE   C1119318   6.279   4.332   6.629 -0.1311 -0.3938  0.0296
  171SAPE  H11A19319   6.210   4.327   6.716 -1.1675 -1.3821 -0.8194
  171SAPE  H11B19320   6.383   4.312   6.665 -0.7099 -0.8879  1.5002
  171SAPE     P19321   6.312   4.115   6.468 -0.3579  0.3107  0.0273
  171SAPE   O1319322   6.241   4.053   6.350 -0.4701 -0.0891  0.2552
  171SAPE   O1419323   6.458   4.142   6.459 -0.3355  0.6634  0.2226
  171SAPE   O1219324   6.236   4.242   6.533  0.1139 -0.2595 -0.0029
  171SAPE   O1119325   6.297   4.013   6.587 -0.1745  0.6224  0.9660
  171SAPE    C119326   6.203   4.013   6.692  0.4014 -0.9892 -0.5668
  171SAPE    HA19327   6.231   4.082   6.774  1.1490 -0.0750 -1.5604
  171SAPE    HB19328   6.096   4.030   6.666 -0.6216 -1.6867  2.7612
  171SAPE    C219329   6.203   3.875   6.757 -0.6449 -0.9031  0.1880
  171SAPE    HS19330   6.309   3.843   6.747 -0.5934 -1.0216  1.0407
  171SAPE   O2119331   6.102   3.787   6.691  0.0751  0.0182 -0.1436
  171SAPE   C2119332   6.134   3.658   6.676  0.7347  0.0932 -0.2083
  171SAPE   O2219333   6.243   3.614   6.710  0.4387  0.5988  0.0426
  171SAPE   C2219334   6.019   3.574   6.620 -0.1939  0.0428  0.5532
  171SAPE   H2R19335   5.997   3.622   6.522 -2.3109  1.1698  1.5181
  171SAPE   H2S19336   6.031   3.464   6.624 -0.9867 -0.0270  1.5756
  171SAPE    C319337   6.174   3.885   6.910 -0.3450  0.1382 -0.4122
  171SAPE    HX19338   6.178   3.787   6.962 -1.4599  1.1129  1.6416
  171SAPE    HY19339   6.068   3.917   6.912 -0.4709 -0.2896 -0.0744
  171SAPE   O3119340   6.256   3.980   6.978 -0.0284 -0.0289  0.7145
  171SAPE   C3119341   6.376   3.941   7.020  0.3143 -0.0244  0.0347
  171SAPE   O3219342   6.425   3.831   6.998  0.2664 -0.4027  0.0363
  171SAPE   C3219343   6.440   4.051   7.096  0.3166  0.3390 -0.0338
  171SAPE   H2X19344   6.461   4.143   7.036  2.4961 -0.4363 -0.5281
  171SAPE   H2Y19345   6.544   4.014   7.108 -0.5172 -1.7090  1.4044
  171SAPE   C2319346   5.885   3.599   6.692 -0.1921  0.1298 -0.1533
  171SAPE   H3R19347   5.803   3.541   6.644 -1.2171  0.0695  1.5983
  171SAPE   H3S19348   5.854   3.703   6.671  3.0021  0.8394 -1.9433
  171SAPE   C2419349   5.886   3.563   6.842  0.4750 -0.1647 -0.0887
  171SAPE   H4R19350   5.781   3.555   6.877  0.2306  1.9830 -0.1989
  171SAPE   H4S19351   5.936   3.653   6.885 -1.9648  2.6422 -2.7405
  171SAPE   C2519352   5.949   3.431   6.881 -0.2050  0.3391 -0.1835
  171SAPE   H5R19353   5.931   3.359   6.800 -1.9857  2.3304 -1.6909
  171SAPE   C2619354   6.017   3.406   6.993 -0.2276 -0.7234 -0.2955
  171SAPE   H6R19355   6.077   3.315   6.982  1.9448  0.6751 -0.5549
  171SAPE   C2719356   6.054   3.505   7.103  0.4985 -0.1912  0.0842
  171SAPE   H7R19357   6.029   3.465   7.204 -3.3906  2.4285  0.3752
  171SAPE   H7S19358   5.977   3.585   7.101 -0.1025 -0.7442  0.5521
  171SAPE   C2819359   6.189   3.559   7.111 -0.3068  0.7590  0.1407
  171SAPE   H8R19360   6.248   3.564   7.019  2.8082  0.5262  1.9679
  171SAPE   C2919361   6.253   3.591   7.224 -0.2460  1.0831 -1.0702
  171SAPE   H9R19362   6.356   3.627   7.209  0.5358 -1.0915 -1.2994
  171SAPE  C21019363   6.199   3.586   7.366  0.0454 -0.1573  0.5196
  171SAPE  H10R19364   6.088   3.591   7.369  0.1002  0.8556  1.0528
  171SAPE  H10S19365   6.240   3.678   7.412  0.6559 -1.3842  2.5923
  171SAPE  C21119366   6.252   3.460   7.443 -0.5518 -0.0334  0.4450
  171SAPE  H11R19367   6.215   3.359   7.419  0.0691  0.3090 -2.2848
  171SAPE  C21219368   6.354   3.453   7.527 -0.0104  0.1449  0.1881
  171SAPE  H12R19369   6.374   3.359   7.582 -0.9946 -0.6258 -0.7177
  171SAPE  C21319370   6.437   3.567   7.570 -0.6130  0.1367 -0.4342
  171SAPE  H13R19371   6.376   3.627   7.642 -0.4250 -0.8040  0.5384
  171SAPE  H13S19372   6.465   3.636   7.488  4.2520  0.7496  1.4627
  171SAPE  C21419373   6.567   3.524   7.640 -0.3000  0.1288 -0.0432
  171SAPE  H14R19374   6.655   3.506   7.576 -1.5069 -0.0411 -1.7222
  171SAPE  C21519375   6.588   3.486   7.769  0.1449 -0.4553 -0.7154
  171SAPE  H15R19376   6.687   3.444   7.794 -1.0050 -2.7127  0.3194
  171SAPE  C21619377   6.488   3.489   7.878  0.1966  0.9431 -0.4483
  171SAPE  H16R19378   6.392   3.484   7.824  1.4951 -3.4829 -2.8382
  171SAPE  H16S19379   6.500   3.586   7.932 -1.1363 -0.2238  2.1018
  171SAPE  C21719380   6.489   3.374   7.986 -0.0029 -0.5008  0.6918
  171SAPE  H17R19381   6.579   3.403   8.045  0.5654  0.3963 -0.5556
  171SAPE  H17S19382   6.515   3.282   7.929 -1.2894 -1.2713  1.3283
  171SAPE  C21819383   6.360   3.370   8.059  0.3188 -0.0231 -0.9304
  171SAPE  H18R19384   6.278   3.336   7.992  0.1961  1.3028 -1.4973
  171SAPE  H18S19385   6.326   3.474   8.079  3.1732  0.6113  1.1739
  171SAPE  C21919386   6.377   3.290   8.195 -0.3175 -0.0278  0.4403
  171SAPE  H19R19387   6.466   3.326   8.251 -0.9706  1.5205  0.5447
  171SAPE  H19S19388   6.395   3.183   8.173  1.4988  0.0826  1.2312
  171SAPE  C22019389   6.252   3.309   8.285  0.1855  0.0228  0.1576
  171SAPE  H20R19390   6.159   3.269   8.239 -0.8437  1.4929  0.8534
  171SAPE  H20S19391   6.236   3.419   8.280 -0.5617 -0.1375 -2.1859
  171SAPE  H20T19392   6.277   3.260   8.381  1.6770 -0.7936 -0.6258
  171SAPE   C3319393   6.369   4.096   7.228  0.5108  0.6023  0.4440
  171SAPE   H3X19394   6.262   4.118   7.205  0.3715  1.4553  1.7749
  171SAPE   H3Y19395   6.407   4.192   7.269 -1.8718  1.0669  1.8074
  171SAPE   C3419396   6.382   3.991   7.342 -0.6931 -0.0204  0.2382
  171SAPE   H4X19397   6.488   3.957   7.342 -0.4313  0.7454  1.3565
  171SAPE   H4Y19398   6.331   3.895   7.317  2.2199 -1.4104 -0.8918
  171SAPE   C3519399   6.325   4.031   7.477  0.1824 -0.3813  0.0734
  171SAPE   H5X19400   6.226   4.079   7.459  0.6453 -0.0580 -1.8006
  171SAPE   H5Y19401   6.392   4.111   7.515 -0.7033  0.2261  0.4166
  171SAPE   C3619402   6.336   3.914   7.574  0.5821 -0.2819  0.1536
  171SAPE   H6X19403   6.442   3.879   7.578  1.5227  2.2394 -0.7267
  171SAPE   H6Y19404   6.272   3.834   7.533 -1.1129  0.9845  0.2287
  171SAPE   C3719405   6.279   3.954   7.704 -0.1396 -0.3169  0.1379
  171SAPE   H7X19406   6.170   3.974   7.692  0.1652  2.0998  0.8418
  171SAPE   H7Y19407   6.324   4.050   7.739  0.8104 -0.6999 -0.0023
  171SAPE   C3819408   6.306   3.853   7.816 -0.1262 -0.2934 -0.2009
  171SAPE   H8X19409   6.411   3.820   7.824  0.5659  1.9091  0.4919
  171SAPE   H8Y19410   6.249   3.757   7.814 -1.1874  0.0235  4.0817
  171SAPE   C3919411   6.265   3.909   7.957 -0.5979 -0.4671  0.6120
  171SAPE   H9X19412   6.155   3.914   7.971 -0.7344 -0.0026 -0.4801
  171SAPE   H9Y19413   6.307   4.011   7.970 -0.0259 -0.7093  0.6890
  171SAPE  C31019414   6.297   3.817   8.076 -1.2264 -0.1955  0.5951
  171SAPE  H10X19415   6.398   3.772   8.063 -0.7525  0.7030  1.0423
  171SAPE  H10Y19416   6.222   3.736   8.083  0.2492 -1.6742  0.0053
  171SAPE  C31119417   6.301   3.903   8.204  0.3508 -0.5321 -0.3857
  171SAPE  H11X19418   6.223   3.981   8.187 -0.1959 -0.7692  0.9270
  171SAPE  H11Y19419   6.404   3.946   8.205  0.5103 -0.9133 -0.3322
  171SAPE  C31219420   6.273   3.828   8.337  0.4090 -0.0298 -0.2368
  171SAPE  H12X19421   6.187   3.762   8.312  0.7148 -0.3429 -0.4724
  171SAPE  H12Y19422   6.237   3.909   8.403  1.0693 -1.6309  2.2595
  171SAPE  C31319423   6.398   3.768   8.400 -0.1684 -0.1830 -0.2898
  171SAPE  H13X19424   6.469   3.849   8.429  1.6478 -1.4793 -0.9147
  171SAPE  H13Y19425   6.452   3.719   8.316  0.9557 -1.3532  1.0557
  171SAPE  C31419426   6.381   3.670   8.517  0.6710 -0.6907  0.0796
  171SAPE  H14X19427   6.332   3.575   8.487 -0.4789  0.1489 -0.7874
  171SAPE  H14Y19428   6.314   3.722   8.589  0.8707  1.7955 -1.3966
  171SAPE  C31519429   6.510   3.632   8.590  0.6182 -0.1301 -0.3437
  171SAPE  H15X19430   6.528   3.706   8.672 -4.0754  0.5102  0.3918
  171SAPE  H15Y19431   6.591   3.632   8.514 -0.0571  0.6980 -1.0853
  171SAPE  C31619432   6.505   3.498   8.652 -0.2718  0.6874 -0.1301
  171SAPE  H16X19433   6.492   3.415   8.579 -0.7993  0.8317 -0.2064
  171SAPE  H16Y19434   6.424   3.496   8.728  0.7507  0.5884  0.9839
  171SAPE  C31719435   6.627   3.474   8.735  0.1898 -0.4535  0.5941
  171SAPE  H17X19436   6.643   3.369   8.765  1.0098  0.6004  4.4184
  171SAPE  H17Y19437   6.619   3.531   8.830  2.4147 -1.8813  1.7237
  171SAPE  C31819438   6.763   3.516   8.668  0.1929 -0.1742 -0.1534
  171SAPE  H18X19439   6.778   3.625   8.683 -2.5670  0.2184  0.3834
  171SAPE  H18Y19440   6.759   3.506   8.557  0.0005  1.0766 -0.2735
  171SAPE  H18Z19441   6.845   3.452   8.707  1.1795  0.2864 -1.3910
  172SAPE     N19442   0.119   0.233   6.620 -0.2156  0.1845 -0.9171
  172SAPE   HN119443   0.187   0.163   6.585 -0.1171 -0.5551  0.6467
  172SAPE   HN219444   0.174   0.319   6.640 -2.4759  1.1831  1.5442
  172SAPE   HN319445   0.080   0.196   6.709  0.5705  0.9336 -0.2544
  172SAPE   C1219446   0.019   0.262   6.514 -0.3628  0.2077 -0.8291
  172SAPE  H12A19447  -0.047   0.340   6.557 -1.4164 -0.9534 -0.2541
  172SAPE  H12B19448  -0.051   0.176   6.530  0.1801  0.1631  1.6845
  172SAPE   C1119449   0.073   0.297   6.379 -0.3139  1.0607  0.4070
  172SAPE  H11A19450  -0.011   0.332   6.314 -0.2282  2.1144  0.8437
  172SAPE  H11B19451   0.111   0.204   6.333 -0.8328  0.8507  0.3931
  172SAPE     P19452   0.153   0.547   6.397  0.2873  0.2897  0.1980
  172SAPE   O1319453   0.128   0.596   6.263  0.0732  0.2133 -0.3800
  172SAPE   O1419454   0.044   0.567   6.498 -0.1411 -0.5416  0.4243
  172SAPE   O1219455   0.180   0.392   6.383  0.3310 -0.2361 -0.6802
  172SAPE   O1119456   0.289   0.597   6.452 -0.2015  0.2516  0.1493
  172SAPE    C119457   0.401   0.613   6.356  0.2970 -0.5119 -0.7610
  172SAPE    HA19458   0.422   0.515   6.309  3.4833  0.0454 -0.6984
  172SAPE    HB19459   0.386   0.690   6.277  1.3786 -1.0241 -1.4909
  172SAPE    C219460   0.536   0.639   6.430  0.5005  0.5163  0.4041
  172SAPE    HS19461   0.619   0.648   6.357 -0.1139  0.9315 -0.2582
  172SAPE   O2119462   0.573   0.542   6.526  0.3092  0.4755  0.0897
  172SAPE   C2119463   0.614   0.429   6.479  0.5690  0.1826  0.7065
  172SAPE   O2219464   0.643   0.405   6.359 -0.0057  0.6699  0.0890
  172SAPE   C2219465   0.617   0.323   6.593  0.5592 -0.2143  0.0787
  172SAPE   H2R19466   0.524   0.343   6.650  0.4021 -2.0417  0.5156
  172SAPE   H2S19467   0.613   0.223   6.546  0.4154  0.3371 -1.1326
  172SAPE    C319468   0.511   0.769   6.502 -0.5064  0.4436 -0.5701
  172SAPE    HX19469   0.426   0.757   6.573  1.4091 -1.0322  1.6367
  172SAPE    HY19470   0.471   0.844   6.431 -3.3039  1.3202  1.7045
  172SAPE   O3119471   0.640   0.813   6.552 -0.2189  0.2663 -0.1875
  172SAPE   C3119472   0.645   0.827   6.689 -0.5742  0.4497 -0.0781
  172SAPE   O3219473   0.559   0.801   6.768  0.2337  0.2120  0.3780
  172SAPE   C3219474   0.797   0.849   6.732  0.6997 -0.4462 -0.3987
  172SAPE   H2X19475   0.797   0.929   6.809 -0.3434 -1.4224  0.6643
  172SAPE   H2Y19476   0.853   0.894   6.648 -0.3181  1.0884 -0.2883
  172SAPE   C2319477   0.737   0.341   6.694 -0.1810  0.0636  0.4177
  172SAPE   H3R19478   0.745   0.440   6.743  0.8590 -0.0685  0.5395
  172SAPE   H3S19479   0.831   0.333   6.636 -1.5587  0.0799 -1.9503
  172SAPE   C2419480   0.753   0.227   6.798 -0.9251 -0.1855 -0.0710
  172SAPE   H4R19481   0.837   0.258   6.863 -2.0709  0.6609  1.0597
  172SAPE   H4S19482   0.784   0.132   6.750 -0.0603  0.5984 -1.1407
  172SAPE   C2519483   0.632   0.207   6.881 -0.0748  0.1756  0.4444
  172SAPE   H5R19484   0.547   0.160   6.830  1.2082 -1.8130  0.0028
  172SAPE   C2619485   0.612   0.234   7.008 -0.0192 -0.0974  0.2315
  172SAPE   H6R19486   0.516   0.203   7.054 -0.5537  1.5082  0.2569
  172SAPE   C2719487   0.712   0.286   7.103  1.2740  0.2335 -0.5221
  172SAPE   H7R19488   0.653   0.362   7.159 -1.1885 -0.8414 -1.4945
  172SAPE   H7S19489   0.802   0.338   7.064  1.3007  1.0494  0.5641
  172SAPE   C2819490   0.764   0.164   7.178  0.8420  0.3241  0.4984
  172SAPE   H8R19491   0.776   0.072   7.118 -0.1231 -0.7526  1.9002
  172SAPE   C2919492   0.785   0.155   7.308 -0.8151 -0.1796 -0.6065
  172SAPE   H9R19493   0.817   0.054   7.337 -3.3550 -0.4942  1.5560
  172SAPE  C21019494   0.771   0.261   7.418 -0.0455  0.5247  0.8025
  172SAPE  H10R19495   0.718   0.213   7.503  0.2213  1.3578  1.4587
  172SAPE  H10S19496   0.722   0.351   7.373  1.1251  0.6521 -0.2804
  172SAPE  C21119497   0.904   0.306   7.464 -0.6023 -0.0800  0.2820
  172SAPE  H11R19498   0.979   0.340   7.392  0.4766  0.0635  1.4468
  172SAPE  C21219499   0.944   0.307   7.599 -0.4796  0.7249 -0.2496
  172SAPE  H12R19500   1.048   0.323   7.629 -0.5703 -1.2856  1.3183
  172SAPE  C21319501   0.854   0.275   7.718  0.3047 -0.4937  0.4978
  172SAPE  H13R19502   0.748   0.261   7.690  0.8901 -2.5118 -0.9002
  172SAPE  H13S19503   0.866   0.369   7.777  1.1483 -0.4091  0.2014
  172SAPE  C21419504   0.901   0.155   7.792 -0.3304 -0.0504  0.5809
  172SAPE  H14R19505   0.957   0.079   7.736 -2.4788 -1.3051  0.0323
  172SAPE  C21519506   0.870   0.134   7.924  0.0598 -0.6763 -0.1084
  172SAPE  H15R19507   0.926   0.049   7.967 -0.2889  0.3538  2.5529
  172SAPE  C21619508   0.807   0.223   8.029  0.1241 -0.1049 -0.0116
  172SAPE  H16R19509   0.765   0.313   7.980  1.6170  0.9675  0.6050
  172SAPE  H16S19510   0.881   0.255   8.106  1.0086  0.1863 -0.9704
  172SAPE  C21719511   0.700   0.156   8.111 -0.2096 -0.4048 -0.6287
  172SAPE  H17R19512   0.630   0.098   8.047  0.2264 -0.6041 -0.9334
  172SAPE  H17S19513   0.650   0.243   8.159 -0.4996  0.6645 -2.7591
  172SAPE  C21819514   0.757   0.068   8.224  0.6080  0.1237  0.2621
  172SAPE  H18R19515   0.859   0.099   8.255 -0.0547  0.9058  1.7236
  172SAPE  H18S19516   0.766  -0.030   8.172  0.0406  0.7336 -1.0496
  172SAPE  C21919517   0.670   0.056   8.348  0.3144 -0.1879  0.0661
  172SAPE  H19R19518   0.571   0.029   8.306  0.4181 -1.1409  0.4012
  172SAPE  H19S19519   0.670   0.159   8.390 -0.9646  0.7673 -2.0767
  172SAPE  C22019520   0.706  -0.054   8.444 -0.2043  0.3938  0.2066
  172SAPE  H20R19521   0.639  -0.062   8.532 -0.0554  1.0348  0.3795
  172SAPE  H20S19522   0.809  -0.041   8.485 -0.0149 -2.0547  0.6525
  172SAPE  H20T19523   0.699  -0.147   8.382  1.0710 -0.2387  0.9643
  172SAPE   C3319524   0.862   0.713   6.768  0.1671  0.0314  0.6303
  172SAPE   H3X19525   0.854   0.657   6.673  1.8143  0.5001  0.1823
  172SAPE   H3Y19526   0.810   0.661   6.852  1.4376  1.2528  2.2414
  172SAPE   C3419527   1.009   0.726   6.815 -1.0189  0.0258  0.2961
  172SAPE   H4X19528   1.075   0.757   6.731 -1.6119  1.1458  0.2249
  172SAPE   H4Y19529   1.037   0.621   6.838 -2.9458 -0.3195  1.2399
  172SAPE   C3519530   1.045   0.804   6.942  0.3841  0.1616  0.4845
  172SAPE   H5X19531   1.048   0.914   6.928  0.4235  0.1246  0.1888
  172SAPE   H5Y19532   1.146   0.771   6.976  0.6469  1.4406  0.9990
  172SAPE   C3619533   0.942   0.776   7.063  0.3669 -0.0115  0.1786
  172SAPE   H6X19534   0.922   0.668   7.048  1.2457  0.1152 -2.6198
  172SAPE   H6Y19535   0.854   0.840   7.043  1.5700  1.8026  0.4612
  172SAPE   C3719536   1.004   0.805   7.197 -0.4409  0.2140 -0.1573
  172SAPE   H7X19537   1.025   0.914   7.209 -2.5587  0.5426  0.9451
  172SAPE   H7Y19538   1.102   0.755   7.212 -0.8654 -0.8528 -0.8284
  172SAPE   C3819539   0.912   0.760   7.312  0.2403 -0.8420  0.2388
  172SAPE   H8X19540   0.883   0.653   7.313  0.7134 -0.9958 -0.7981
  172SAPE   H8Y19541   0.827   0.830   7.300  0.9797 -0.1008 -0.9172
  172SAPE   C3919542   0.977   0.786   7.452  0.0461 -0.4673  0.5569
  172SAPE   H9X19543   0.999   0.895   7.460 -1.6621 -0.0911  0.5352
  172SAPE   H9Y19544   1.077   0.739   7.461 -0.1274 -0.7360  1.1363
  172SAPE  C31019545   0.901   0.732   7.562 -0.1357  0.0896 -0.1702
  172SAPE  H10X19546   0.891   0.621   7.560  0.8542 -0.0832  1.7758
  172SAPE  H10Y19547   0.799   0.775   7.559 -0.3899 -0.5256 -0.5864
  172SAPE  C31119548   0.951   0.761   7.701 -0.2210  0.5900  0.1991
  172SAPE  H11X19549   0.946   0.872   7.701 -0.2730  0.5941  0.9187
  172SAPE  H11Y19550   1.058   0.737   7.715 -0.4632  0.3164  1.8512
  172SAPE  C31219551   0.865   0.704   7.813  0.1219  0.3681  0.7205
  172SAPE  H12X19552   0.865   0.593   7.816 -0.4186  0.3758  1.1732
  172SAPE  H12Y19553   0.759   0.736   7.805  0.2137  0.7182  0.8899
  172SAPE  C31319554   0.915   0.747   7.950  0.2972 -0.2166  0.2321
  172SAPE  H13X19555   0.916   0.858   7.952 -0.5703 -0.1475 -1.4290
  172SAPE  H13Y19556   1.021   0.712   7.955  0.6585  0.7410 -0.3216
  172SAPE  C31419557   0.824   0.691   8.067 -0.6181  0.1205  0.5031
  172SAPE  H14X19558   0.789   0.589   8.042  0.0753 -0.4149  1.6452
  172SAPE  H14Y19559   0.728   0.747   8.066  0.1375  1.4693 -0.0525
  172SAPE  C31519560   0.899   0.677   8.199 -0.3733  0.0374  0.6612
  172SAPE  H15X19561   0.931   0.781   8.222  0.8901 -0.2167  0.1365
  172SAPE  H15Y19562   0.983   0.606   8.185 -0.0135 -0.0904  3.0515
  172SAPE  C31619563   0.833   0.597   8.308  0.1752  0.2951  0.0923
  172SAPE  H16X19564   0.904   0.562   8.385 -0.8051 -1.7624  0.1290
  172SAPE  H16Y19565   0.777   0.512   8.265 -1.6360  0.6519  1.6430
  172SAPE  C31719566   0.722   0.685   8.373 -0.2257 -0.1193  0.8508
  172SAPE  H17X19567   0.644   0.698   8.294 -0.5743  0.4102  1.2731
  172SAPE  H17Y19568   0.765   0.780   8.412  0.2732 -0.5783  1.4441
  172SAPE  C31819569   0.637   0.632   8.489  1.3632  0.5901 -0.2584
  172SAPE  H18X19570   0.596   0.529   8.483  1.8041  0.3298  0.9221
  172SAPE  H18Y19571   0.558   0.706   8.513 -0.7116 -1.9381  1.2325
  172SAPE  H18Z19572   0.712   0.619   8.570  1.9995 -1.9803 -1.1472
  173SOPE     N19573   6.061   1.359  11.119 -0.2638  0.0286  0.5069
  173SOPE   HN119574   5.963   1.362  11.084 -0.8325  0.1825  2.0670
  173SOPE   HN219575   6.090   1.260  11.107 -0.2661  0.3385 -3.9526
  173SOPE   HN319576   6.074   1.413  11.207  1.2204  0.1451  0.2387
  173SOPE   C1219577   6.126   1.422  11.001 -0.2200  0.0244 -0.0583
  173SOPE  H12A19578   6.076   1.517  10.973  2.6648  0.9353 -2.7219
  173SOPE  H12B19579   6.108   1.357  10.913 -0.5885  0.0340  0.0106
  173SOPE   C1119580   6.280   1.436  11.029 -0.0385 -0.1736  0.6607
  173SOPE  H11A19581   6.325   1.483  10.939 -1.1390  1.6269  0.9907
  173SOPE  H11B19582   6.341   1.344  11.024  1.0826  0.6243 -1.5806
  173SOPE     P19583   6.409   1.615  11.176  0.1866  0.2815 -0.3337
  173SOPE   O1319584   6.551   1.570  11.189  0.2050  0.3519  0.3969
  173SOPE   O1419585   6.356   1.705  11.279  0.3470 -0.1985 -0.3273
  173SOPE   O1219586   6.307   1.497  11.156  0.0322 -0.1532 -0.2465
  173SOPE   O1119587   6.403   1.685  11.036 -0.3161 -0.5587 -0.3078
  173SOPE    C119588   6.518   1.664  10.950  0.4125  0.1209  0.1842
  173SOPE    HA19589   6.549   1.557  10.942  3.1179  0.8510 -0.1902
  173SOPE    HB19590   6.608   1.717  10.988 -0.9738  0.4556  3.2924
  173SOPE    C219591   6.484   1.699  10.808 -0.2405 -0.1886  0.7227
  173SOPE    HS19592   6.482   1.810  10.814  1.0341 -0.0385 -0.7842
  173SOPE   O2119593   6.365   1.634  10.772 -0.0715  0.1361  0.9547
  173SOPE   C2119594   6.281   1.711  10.699  0.2049  0.0527  1.0594
  173SOPE   O2219595   6.301   1.824  10.658 -0.0511 -0.2811  0.1560
  173SOPE   C2219596   6.173   1.609  10.638  0.2099  0.3103 -0.2845
  173SOPE   H2R19597   6.127   1.554  10.722 -0.3470 -0.5242 -1.1307
  173SOPE   H2S19598   6.232   1.543  10.571  1.3097  0.1189  0.8337
  173SOPE    C319599   6.612   1.668  10.723  0.5276 -0.9977  0.7411
  173SOPE    HX19600   6.651   1.565  10.737 -0.8774 -1.7384 -0.4276
  173SOPE    HY19601   6.693   1.736  10.754 -0.2963 -0.1006  0.9719
  173SOPE   O3119602   6.580   1.688  10.583 -0.7555 -0.1003  0.0485
  173SOPE   C3119603   6.650   1.764  10.508  0.3430  0.6303 -0.3820
  173SOPE   O3219604   6.732   1.848  10.544 -0.2158  0.0990 -0.0673
  173SOPE   C3219605   6.636   1.726  10.358  0.3255  0.3112  0.4305
  173SOPE   H2X19606   6.530   1.691  10.357 -0.4336  2.5121 -1.1581
  173SOPE   H2Y19607   6.689   1.630  10.337  0.1712 -0.2803  2.4691
  173SOPE   C2319608   6.059   1.685  10.564  0.6472  1.1274 -0.5389
  173SOPE   H3R19609   6.024   1.771  10.624  0.0428  0.0845  0.6665
  173SOPE   H3S19610   5.976   1.612  10.551  1.5143  0.3227 -1.8425
  173SOPE   C2419611   6.090   1.725  10.417 -0.0370 -0.4725 -0.6361
  173SOPE   H4R19612   6.010   1.796  10.388  1.0043  0.6433 -0.8305
  173SOPE   H4S19613   6.185   1.782  10.413 -0.3380  0.6729  3.4243
  173SOPE   C2519614   6.098   1.608  10.319  0.5213  0.3285  0.8539
  173SOPE   H5R19615   6.198   1.560  10.330  0.1172 -0.6488  0.3712
  173SOPE   H5S19616   6.019   1.533  10.341 -0.2318  1.2377  1.3036
  173SOPE   C2619617   6.095   1.646  10.171  0.3282  0.3640 -0.5132
  173SOPE   H6R19618   5.989   1.662  10.145  0.0011  3.3157  2.0949
  173SOPE   H6S19619   6.144   1.743  10.149 -1.6033  1.9237  1.5997
  173SOPE   C2719620   6.145   1.526  10.091  0.4875 -0.0211 -1.1530
  173SOPE   H7R19621   6.255   1.522  10.101  0.3983 -1.2532 -0.4539
  173SOPE   H7S19622   6.104   1.437  10.143  2.0518 -0.7206 -1.0788
  173SOPE   C2819623   6.102   1.522   9.943  0.7374 -0.6750 -0.0498
  173SOPE   H8R19624   6.151   1.430   9.903  1.4031  0.2265 -1.3848
  173SOPE   H8S19625   5.991   1.523   9.945  0.6388  2.6534 -1.7470
  173SOPE   C2919626   6.140   1.651   9.876  0.3397  0.7843 -0.2299
  173SOPE   H9119627   6.225   1.708   9.915 -0.3223  0.9910  0.9653
  173SOPE  C21019628   6.054   1.721   9.798  0.0301 -0.7099  0.7719
  173SOPE  H10119629   6.091   1.819   9.766  1.2269 -1.2234  0.5074
  173SOPE  C21119630   5.915   1.684   9.747  0.3509  0.0423  0.2085
  173SOPE  H11R19631   5.845   1.768   9.767 -0.3929 -0.5125 -0.0038
  173SOPE  H11S19632   5.874   1.599   9.805 -0.3279 -0.6265 -1.1830
  173SOPE  C21219633   5.919   1.642   9.603  0.3953  0.6781  0.5933
  173SOPE  H12R19634   5.831   1.577   9.584  1.6631 -0.6456 -1.0656
  173SOPE  H12S19635   5.998   1.566   9.595 -0.0316  0.3465 -0.6634
  173SOPE  C21319636   5.905   1.758   9.504 -0.6158  0.5993 -0.0793
  173SOPE  H13R19637   6.004   1.807   9.496 -0.2850  0.0152  0.3518
  173SOPE  H13S19638   5.836   1.834   9.548  0.1049  0.4225  1.4071
  173SOPE  C21419639   5.836   1.734   9.374  0.1548 -0.4993 -0.2348
  173SOPE  H14R19640   5.725   1.731   9.389  0.0908  0.4579 -0.4680
  173SOPE  H14S19641   5.864   1.639   9.323 -0.4214  0.0695 -1.6697
  173SOPE  C21519642   5.867   1.833   9.260 -0.1274  0.3133 -0.3013
  173SOPE  H15R19643   5.976   1.834   9.239 -0.2763 -0.7366 -1.1995
  173SOPE  H15S19644   5.834   1.937   9.281 -0.4403  0.4281 -1.3280
  173SOPE  C21619645   5.788   1.792   9.132 -0.1598  0.5661  0.8980
  173SOPE  H16R19646   5.682   1.797   9.164 -0.1389  0.5059  0.9779
  173SOPE  H16S19647   5.810   1.689   9.097  0.5972  1.4797 -1.5335
  173SOPE  C21719648   5.832   1.870   9.010 -0.3203 -0.1469 -0.0976
  173SOPE  H17R19649   5.771   1.838   8.923  0.6255  0.5881 -1.0553
  173SOPE  H17S19650   5.940   1.851   8.994 -0.1459 -0.1461  0.9779
  173SOPE  C21819651   5.823   2.020   9.011  0.5213 -0.2480 -0.8355
  173SOPE  H18R19652   5.722   2.052   9.045  0.1559 -0.8041 -1.3825
  173SOPE  H18S19653   5.838   2.061   8.909  0.7142 -1.5409 -1.3370
  173SOPE  H18T19654   5.895   2.058   9.087 -0.8037  0.0303  0.3235
  173SOPE   C3319655   6.660   1.838  10.256 -0.1494 -0.0721  0.3433
  173SOPE   H3X19656   6.765   1.853  10.224 -0.3112  2.2633  0.7691
  173SOPE   H3Y19657   6.625   1.935  10.298  0.4199 -0.1962  1.1164
  173SOPE   C3419658   6.586   1.814  10.124  0.5237 -0.0501 -0.4480
  173SOPE   H4X19659   6.608   1.903  10.062  0.0184  1.8468  1.9563
  173SOPE   H4Y19660   6.476   1.815  10.140  0.5555 -4.1480  1.1714
  173SOPE   C3519661   6.635   1.686  10.058  0.1775  0.3413 -0.2398
  173SOPE   H5X19662   6.626   1.612  10.139  1.6202  0.4105  0.0082
  173SOPE   H5Y19663   6.740   1.687  10.023  1.0735 -1.7460  2.1467
  173SOPE   C3619664   6.541   1.658   9.939 -1.0783  0.4334  0.3832
  173SOPE   H6X19665   6.533   1.745   9.870 -1.5722 -1.0214 -1.4813
  173SOPE   H6Y19666   6.449   1.645  10.000 -2.1904 -0.7539 -1.4360
  173SOPE   C3719667   6.581   1.536   9.843 -0.2541 -0.1245  0.1891
  173SOPE   H7X19668   6.586   1.438   9.893  2.9652 -0.1641 -0.0300
  173SOPE   H7Y19669   6.682   1.559   9.803  1.0614 -1.5795  2.5173
  173SOPE   C3819670   6.482   1.525   9.720 -0.0888  0.1440 -0.6986
  173SOPE   H8X19671   6.473   1.621   9.665 -0.2499 -0.0623 -1.0354
  173SOPE   H8Y19672   6.385   1.491   9.762  0.9775 -1.8386  0.2733
  173SOPE   C3919673   6.527   1.424   9.609 -0.0570 -0.0292  0.5818
  173SOPE   H9X19674   6.507   1.327   9.660  0.6153  0.6446  2.1749
  173SOPE   H9Y19675   6.637   1.431   9.595 -0.1587  1.7683  0.4657
  173SOPE  C31019676   6.444   1.435   9.478  0.4906  0.7761  0.8030
  173SOPE  H10X19677   6.477   1.524   9.420 -3.2945  1.5471 -0.4127
  173SOPE  H10Y19678   6.344   1.460   9.519  0.7822  4.4955 -0.4381
  173SOPE  C31119679   6.435   1.308   9.384 -0.8686  0.1271 -0.1750
  173SOPE  H11X19680   6.397   1.228   9.451 -0.3967 -0.3583 -0.4832
  173SOPE  H11Y19681   6.537   1.281   9.351 -1.6481 -0.7147 -2.0106
  173SOPE  C31219682   6.334   1.323   9.267  0.0398  0.1938  0.6105
  173SOPE  H12X19683   6.366   1.409   9.204  1.7262 -0.9991 -0.2726
  173SOPE  H12Y19684   6.232   1.339   9.307  0.2699  3.4066  0.1993
  173SOPE  C31319685   6.323   1.209   9.160 -0.1798 -0.0411  1.0290
  173SOPE  H13X19686   6.221   1.204   9.117 -0.8398  3.5942  1.7643
  173SOPE  H13Y19687   6.351   1.121   9.221 -0.6399  0.0030  1.3070
  173SOPE  C31419688   6.410   1.213   9.034  1.0178 -1.3738  0.6565
  173SOPE  H14X19689   6.386   1.115   8.987 -2.8006  0.5309 -1.9154
  173SOPE  H14Y19690   6.517   1.230   9.061  0.7852 -0.3766  1.0085
  173SOPE  C31519691   6.370   1.322   8.933  0.9507 -0.4166 -0.3630
  173SOPE  H15X19692   6.394   1.418   8.983  4.9685 -0.6590 -1.5088
  173SOPE  H15Y19693   6.260   1.309   8.921  0.9408 -1.1303  0.4832
  173SOPE  C31619694   6.419   1.288   8.786 -0.1082  0.7215  0.2561
  173SOPE  H16X19695   6.402   1.179   8.775 -1.0249  0.9534 -0.7187
  173SOPE  H16Y19696   6.528   1.313   8.787 -0.3496  1.8276  0.6388
  173SOPE  C31719697   6.346   1.376   8.681 -0.7658 -0.4985 -0.2922
  173SOPE  H17X19698   6.404   1.371   8.587  0.7139  3.4287  0.2209
  173SOPE  H17Y19699   6.352   1.480   8.721 -1.2410 -1.2723  1.9790
  173SOPE  C31819700   6.203   1.343   8.640 -0.2149  0.5643  0.3912
  173SOPE  H18X19701   6.177   1.401   8.549 -0.7466 -1.1827 -0.6309
  173SOPE  H18Y19702   6.125   1.365   8.715 -2.7961 -4.9302 -0.1695
  173SOPE  H18Z19703   6.194   1.235   8.613  1.5013  0.4178  0.2974
  174SOPE     N19704   4.479   1.259  11.019  0.1586 -0.2032 -0.5697
  174SOPE   HN119705   4.571   1.219  10.991 -0.2162 -0.2543 -1.7919
  174SOPE   HN219706   4.464   1.344  10.960  1.5924  1.7683  1.7198
  174SOPE   HN319707   4.481   1.287  11.119  1.4163 -1.6507 -0.1502
  174SOPE   C1219708   4.349   1.183  11.004 -0.4579  0.0494  0.3026
  174SOPE  H12A19709   4.340   1.114  11.090 -4.4760 -0.7898 -0.6165
  174SOPE  H12B19710   4.368   1.125  10.912  2.1036  1.3678 -0.1036
  174SOPE   C1119711   4.221   1.270  11.003 -0.6079 -0.5862 -0.3771
  174SOPE  H11A19712   4.132   1.205  10.988  0.3385 -1.7965 -0.9389
  174SOPE  H11B19713   4.234   1.334  10.913 -1.4749 -0.3826 -0.3675
  174SOPE     P19714   4.094   1.439  11.156 -0.1195  0.1339 -0.6696
  174SOPE   O1319715   4.136   1.516  11.274  0.4033 -0.5152 -0.1951
  174SOPE   O1419716   3.960   1.365  11.166 -0.6036 -0.3839 -0.4123
  174SOPE   O1219717   4.214   1.342  11.127  0.6170 -0.7256  0.1010
  174SOPE   O1119718   4.094   1.523  11.028  0.3782 -0.4312  0.4629
  174SOPE    C119719   4.212   1.599  10.999 -0.0346  0.5485 -0.1071
  174SOPE    HA19720   4.299   1.531  10.989 -0.9291 -1.0954  2.3881
  174SOPE    HB19721   4.237   1.675  11.076  3.5016 -0.7291  0.1731
  174SOPE    C219722   4.183   1.680  10.870  0.4449 -0.4293  0.9566
  174SOPE    HS19723   4.092   1.743  10.882  0.3942  0.3535 -2.3227
  174SOPE   O2119724   4.175   1.587  10.760 -0.6683  0.1240 -0.0361
  174SOPE   C2119725   4.060   1.538  10.730  0.5211 -0.3997 -1.1431
  174SOPE   O2219726   3.949   1.581  10.770 -0.3643  0.0633 -0.1557
  174SOPE   C2219727   4.079   1.427  10.629 -0.3871 -0.2569 -0.3516
  174SOPE   H2R19728   4.090   1.337  10.693  0.8165  1.3248  1.7598
  174SOPE   H2S19729   4.170   1.447  10.568  0.0004  1.6426  0.8025
  174SOPE    C319730   4.304   1.775  10.845  0.4302  0.2737 -0.1757
  174SOPE    HX19731   4.388   1.704  10.833  0.7157  0.2107  1.8763
  174SOPE    HY19732   4.323   1.847  10.928  0.6257  1.8909 -1.5691
  174SOPE   O3119733   4.285   1.848  10.724 -0.4973  0.1232 -0.1501
  174SOPE   C3119734   4.236   1.969  10.736  0.5937  0.5206  0.2154
  174SOPE   O3219735   4.204   2.022  10.845 -0.3122  0.2682 -0.0169
  174SOPE   C3219736   4.221   2.031  10.597  0.3163 -0.2300 -1.1166
  174SOPE   H2X19737   4.315   2.004  10.546  2.1016 -0.7863  2.1596
  174SOPE   H2Y19738   4.205   2.137  10.624 -0.3841 -0.7731  0.8167
  174SOPE   C2319739   3.959   1.406  10.529 -0.2783 -0.4644  0.0340
  174SOPE   H3R19740   3.867   1.429  10.587  0.9268 -1.1822  2.3525
  174SOPE   H3S19741   3.961   1.300  10.496  0.1233 -0.0574 -1.3010
  174SOPE   C2419742   3.974   1.489  10.402  0.0965  0.6320 -0.4313
  174SOPE   H4R19743   3.981   1.595  10.434 -0.6792  0.5025  0.1844
  174SOPE   H4S19744   4.067   1.458  10.349  0.1304  1.5057 -0.9104
  174SOPE   C2519745   3.869   1.479  10.289 -0.0496  0.3918  0.0052
  174SOPE   H5R19746   3.847   1.371  10.277 -0.8394  0.6338 -0.7942
  174SOPE   H5S19747   3.775   1.516  10.335 -0.4255 -1.4339  0.8189
  174SOPE   C2619748   3.899   1.540  10.155 -0.2039  0.1179  0.2713
  174SOPE   H6R19749   3.811   1.547  10.088  0.2913  0.4707 -0.3500
  174SOPE   H6S19750   3.941   1.634  10.194 -0.0465 -1.2269  3.7232
  174SOPE   C2719751   3.997   1.461  10.067 -0.8478 -0.6447  0.5653
  174SOPE   H7R19752   4.091   1.428  10.116  0.3857 -1.6474 -2.2506
  174SOPE   H7S19753   3.954   1.366  10.030  2.4805 -0.4040 -4.9992
  174SOPE   C2819754   4.039   1.536   9.938  0.1688  0.2214 -0.0030
  174SOPE   H8R19755   3.942   1.567   9.894  0.1785 -1.4246 -1.2764
  174SOPE   H8S19756   4.092   1.631   9.962  0.6334  0.7134 -2.6849
  174SOPE   C2919757   4.132   1.445   9.852  0.1227  0.5340  0.3624
  174SOPE   H9119758   4.217   1.407   9.910 -0.1943 -0.7108  0.0360
  174SOPE  C21019759   4.114   1.415   9.722  0.6099  0.9097 -0.0690
  174SOPE  H10119760   4.182   1.340   9.677  0.6357  1.0849 -0.3240
  174SOPE  C21119761   4.010   1.467   9.629 -0.0694 -0.3572 -0.6276
  174SOPE  H11R19762   3.955   1.548   9.682 -1.6848 -1.2581 -0.8576
  174SOPE  H11S19763   3.941   1.387   9.596 -1.2815  0.3510  0.0956
  174SOPE  C21219764   4.066   1.517   9.497 -0.1979  0.1681  0.8212
  174SOPE  H12R19765   4.129   1.440   9.447 -2.0382 -1.3213  0.6765
  174SOPE  H12S19766   4.140   1.599   9.511 -0.4850  0.3256  1.4578
  174SOPE  C21319767   3.950   1.550   9.405  0.5754 -0.6351 -0.0671
  174SOPE  H13R19768   3.893   1.619   9.471  1.2684 -0.4248  0.3243
  174SOPE  H13S19769   3.893   1.456   9.388  3.0844 -2.0308 -1.4767
  174SOPE  C21419770   3.971   1.619   9.272  0.0372  0.0171  1.3222
  174SOPE  H14R19771   4.047   1.700   9.284  0.8786 -0.2569 -1.4829
  174SOPE  H14S19772   3.872   1.655   9.237  0.2728 -2.0255 -1.7998
  174SOPE  C21519773   4.005   1.524   9.154 -0.2316  0.4636 -0.3439
  174SOPE  H15R19774   3.947   1.429   9.164  1.8704 -0.8691 -0.2531
  174SOPE  H15S19775   4.109   1.486   9.153 -1.5212 -4.0261  2.2024
  174SOPE  C21619776   3.949   1.574   9.017 -0.6242  0.7259 -0.1396
  174SOPE  H16R19777   3.838   1.563   9.019 -0.4849 -0.8270  0.5390
  174SOPE  H16S19778   3.977   1.495   8.945 -2.3740  0.4770 -0.5810
  174SOPE  C21719779   3.987   1.710   8.966 -0.4133 -0.0378  0.0646
  174SOPE  H17R19780   4.098   1.715   8.958 -0.3710 -1.1332 -0.0931
  174SOPE  H17S19781   3.938   1.779   9.037 -0.4393 -1.6522  1.6718
  174SOPE  C21819782   3.940   1.740   8.819 -0.7407  0.6885 -0.0086
  174SOPE  H18R19783   3.835   1.705   8.813 -0.4139 -0.3316  0.0016
  174SOPE  H18S19784   3.992   1.678   8.742  1.1417 -1.4136  2.7512
  174SOPE  H18T19785   3.938   1.847   8.790  1.6547  0.4981 -1.1289
  174SOPE   C3319786   4.083   2.001  10.517  0.1592 -0.2249 -0.7760
  174SOPE   H3X19787   4.079   2.082  10.442 -0.4921  0.1839 -0.3044
  174SOPE   H3Y19788   4.009   2.005  10.600 -0.9566  1.8011 -1.8115
  174SOPE   C3419789   4.083   1.870  10.437  0.4806 -0.7283 -0.5882
  174SOPE   H4X19790   3.980   1.828  10.447  0.2794 -0.6686 -2.1066
  174SOPE   H4Y19791   4.150   1.792  10.479  0.3356  1.0161  3.3136
  174SOPE   C3519792   4.117   1.898  10.291  0.2862  0.6839 -0.8229
  174SOPE   H5X19793   4.123   1.798  10.243 -2.3805 -0.1848  0.4279
  174SOPE   H5Y19794   4.220   1.937  10.275  0.1617  1.3967  0.0527
  174SOPE   C3619795   4.008   1.966  10.209  0.3652 -0.7320  0.1129
  174SOPE   H6X19796   3.984   2.074  10.226 -1.4375 -1.4731  3.1928
  174SOPE   H6Y19797   3.915   1.911  10.234  0.6790 -1.8561 -1.1308
  174SOPE   C3719798   4.034   1.942  10.061  0.0091 -0.0842  0.3186
  174SOPE   H7X19799   4.044   1.831  10.052  1.3243  0.1697 -2.0103
  174SOPE   H7Y19800   4.121   2.005  10.034  0.1236 -0.5370 -0.3901
  174SOPE   C3819801   3.918   1.990   9.971 -0.6839  0.5077 -0.0254
  174SOPE   H8X19802   3.901   2.094  10.005 -2.2753 -0.2695  1.7516
  174SOPE   H8Y19803   3.823   1.933   9.983 -0.2968 -0.4568 -1.3209
  174SOPE   C3919804   3.951   1.993   9.818 -0.3700  0.0662 -0.6933
  174SOPE   H9X19805   3.958   1.885   9.793 -2.7458 -0.6185  1.2051
  174SOPE   H9Y19806   4.051   2.039   9.800 -0.6279  0.6665 -0.6351
  174SOPE  C31019807   3.837   2.061   9.740  0.5024  0.2529  0.1620
  174SOPE  H10X19808   3.799   2.148   9.798 -0.4733  0.3112 -0.5346
  174SOPE  H10Y19809   3.761   1.980   9.732  0.3381  0.3884  0.3216
  174SOPE  C31119810   3.882   2.118   9.601  0.2610 -0.1626  0.1788
  174SOPE  H11X19811   3.968   2.185   9.623  1.5060 -0.8051 -2.3679
  174SOPE  H11Y19812   3.797   2.183   9.570  0.7795  1.5748  2.2021
  174SOPE  C31219813   3.910   2.009   9.498  0.1370 -0.1201 -0.0816
  174SOPE  H12X19814   3.819   1.950   9.472  0.6105 -1.3446  0.9238
  174SOPE  H12Y19815   3.975   1.929   9.541 -1.7424 -1.4126  0.5058
  174SOPE  C31319816   3.965   2.057   9.363  0.3582 -0.4889  0.1943
  174SOPE  H13X19817   3.988   1.966   9.304  0.5424 -0.1395 -0.2851
  174SOPE  H13Y19818   4.052   2.123   9.384  2.0312 -1.8094 -2.0988
  174SOPE  C31419819   3.862   2.136   9.278  0.2117  0.5193  0.0648
  174SOPE  H14X19820   3.839   2.233   9.328 -1.9565 -0.0284  0.2308
  174SOPE  H14Y19821   3.771   2.074   9.278 -0.5044  1.5147  1.5689
  174SOPE  C31519822   3.905   2.156   9.130 -0.2339 -0.5223 -0.2683
  174SOPE  H15X19823   3.896   2.058   9.078 -0.0260 -1.2127  0.9394
  174SOPE  H15Y19824   4.015   2.176   9.130  0.0504 -1.7249 -2.5517
  174SOPE  C31619825   3.826   2.264   9.046 -0.2660 -0.4989  0.8637
  174SOPE  H16X19826   3.879   2.279   8.949 -1.1711 -3.5503 -0.2250
  174SOPE  H16Y19827   3.812   2.360   9.100  0.8983  1.6025 -2.2920
  174SOPE  C31719828   3.693   2.203   9.013 -0.3581  0.2381  0.8296
  174SOPE  H17X19829   3.639   2.177   9.107 -1.6618  0.2678  0.1062
  174SOPE  H17Y19830   3.702   2.101   8.970 -0.7307 -0.0640  1.4511
  174SOPE  C31819831   3.617   2.288   8.923  0.0442 -0.3476  0.5230
  174SOPE  H18X19832   3.512   2.272   8.956 -0.2068  3.1448  1.9099
  174SOPE  H18Y19833   3.626   2.273   8.813 -2.8286 -0.3319  0.2047
  174SOPE  H18Z19834   3.638   2.396   8.938  1.1855 -0.5423  0.3924
  175SOPE     N19835   5.738   6.139  11.099 -0.6948  0.1445 -0.4397
  175SOPE   HN119836   5.702   6.233  11.072  1.0226  0.7794 -0.6589
  175SOPE   HN219837   5.731   6.132  11.202  0.5217  0.0879 -0.3401
  175SOPE   HN319838   5.841   6.143  11.080 -0.5083  1.8815  0.7809
  175SOPE   C1219839   5.673   6.012  11.055 -0.9206  0.1638 -0.5459
  175SOPE  H12A19840   5.573   6.014  11.103 -0.3633  2.7601  0.6897
  175SOPE  H12B19841   5.729   5.927  11.100 -1.7831  0.1293  0.4956
  175SOPE   C1119842   5.655   5.986  10.898 -0.1495 -0.1165  0.3060
  175SOPE  H11A19843   5.646   6.089  10.857  0.4376  1.0095  2.8654
  175SOPE  H11B19844   5.560   5.929  10.890 -0.1254 -0.7877  3.4618
  175SOPE     P19845   5.861   5.991  10.723 -0.0548  0.0586 -0.2252
  175SOPE   O1319846   5.962   5.896  10.670  0.3775 -0.3717 -0.3725
  175SOPE   O1419847   5.920   6.122  10.765  0.0282  0.1749 -0.6512
  175SOPE   O1219848   5.775   5.923  10.844  0.0151  0.0690 -0.3915
  175SOPE   O1119849   5.760   6.019  10.607  0.0930  0.1782 -0.5087
  175SOPE    C119850   5.732   6.147  10.561  0.5263 -0.3333  0.0141
  175SOPE    HA19851   5.712   6.223  10.639 -3.6380 -0.5005 -0.6364
  175SOPE    HB19852   5.634   6.142  10.508  1.6883 -0.7660 -2.2168
  175SOPE    C219853   5.839   6.200  10.466  0.6467 -0.2762  0.7911
  175SOPE    HS19854   5.943   6.177  10.496  1.2237  1.7171  0.4562
  175SOPE   O2119855   5.817   6.349  10.452 -0.2843  0.4658 -0.2865
  175SOPE   C2119856   5.925   6.411  10.420  0.2550 -0.0625 -0.3179
  175SOPE   O2219857   6.038   6.364  10.422  0.3695 -0.3061 -0.0336
  175SOPE   C2219858   5.881   6.541  10.359  0.2960  0.1488  0.4905
  175SOPE   H2R19859   5.958   6.618  10.382 -1.1344  2.1547 -1.0973
  175SOPE   H2S19860   5.793   6.581  10.413 -0.7879  0.4704 -1.4336
  175SOPE    C319861   5.820   6.117  10.332 -0.3967  0.3216 -0.1812
  175SOPE    HX19862   5.717   6.131  10.294  0.0946  1.6474 -1.1135
  175SOPE    HY19863   5.844   6.010  10.351 -3.5334 -1.0772 -3.1161
  175SOPE   O3119864   5.905   6.158  10.221 -0.1802 -0.0095  0.2523
  175SOPE   C3119865   6.039   6.133  10.223  0.7834 -0.0807 -0.4592
  175SOPE   O3219866   6.095   6.068  10.307  0.0789 -0.6958  0.3216
  175SOPE   C3219867   6.101   6.195  10.103 -0.9700  0.3406  0.1051
  175SOPE   H2X19868   6.091   6.306  10.094 -2.9826  0.1683 -0.2286
  175SOPE   H2Y19869   6.045   6.160  10.014 -1.6440  1.9166 -0.1355
  175SOPE   C2319870   5.861   6.530  10.205  0.4343 -0.4500 -0.4791
  175SOPE   H3R19871   5.817   6.431  10.182 -2.1679  0.8574 -1.4491
  175SOPE   H3S19872   5.956   6.549  10.150  1.2491 -0.5350  0.8491
  175SOPE   C2419873   5.763   6.637  10.146 -0.1348  0.0067  1.0003
  175SOPE   H4R19874   5.664   6.628  10.197 -1.8645  0.9783 -1.9408
  175SOPE   H4S19875   5.796   6.743  10.150  0.3282  0.3021 -4.0780
  175SOPE   C2519876   5.723   6.599  10.004 -0.2086 -0.3133 -0.4314
  175SOPE   H5R19877   5.706   6.489  10.002 -1.8678 -0.1008  0.2579
  175SOPE   H5S19878   5.628   6.656   9.995  0.5913  1.3957  1.1706
  175SOPE   C2619879   5.812   6.637   9.881  0.1437 -0.4745 -0.6274
  175SOPE   H6R19880   5.827   6.746   9.865  0.9811 -0.7783 -2.0911
  175SOPE   H6S19881   5.914   6.602   9.908  0.2646  0.8490  0.8463
  175SOPE   C2719882   5.769   6.585   9.750  0.4423 -0.5999  0.3758
  175SOPE   H7R19883   5.664   6.600   9.719  0.7742 -1.7821 -1.5604
  175SOPE   H7S19884   5.820   6.639   9.667  1.5440  0.2595  1.5728
  175SOPE   C2819885   5.813   6.439   9.719 -0.8342 -0.4666 -0.3839
  175SOPE   H8R19886   5.924   6.432   9.725 -0.5264  2.6714 -0.9301
  175SOPE   H8S19887   5.776   6.369   9.797 -1.2712  1.0382  0.8131
  175SOPE   C2919888   5.762   6.398   9.585  0.3418  0.7295 -0.8954
  175SOPE   H9119889   5.655   6.373   9.590  0.9766 -2.2303 -0.5024
  175SOPE  C21019890   5.827   6.400   9.466  0.6979  0.6928  0.6384
  175SOPE  H10119891   5.763   6.378   9.379  1.8521 -2.3367  0.4144
  175SOPE  C21119892   5.965   6.444   9.434  0.4278  0.0279 -0.2257
  175SOPE  H11R19893   6.019   6.475   9.525 -0.9627 -2.9220  1.7586
  175SOPE  H11S19894   5.956   6.528   9.362 -0.3714 -1.3899 -1.8811
  175SOPE  C21219895   6.045   6.324   9.380 -0.0867 -0.0806 -0.0665
  175SOPE  H12R19896   5.977   6.260   9.321 -0.4261  1.7394 -1.7175
  175SOPE  H12S19897   6.082   6.256   9.460  0.5650 -1.3986 -1.4328
  175SOPE  C21319898   6.173   6.372   9.302 -0.1718  0.1934 -0.8416
  175SOPE  H13R19899   6.239   6.404   9.386 -2.3494  2.7775  0.0470
  175SOPE  H13S19900   6.154   6.471   9.255  1.1715  1.4433  1.0813
  175SOPE  C21419901   6.218   6.266   9.208 -0.3888  0.4793  1.1503
  175SOPE  H14R19902   6.136   6.211   9.156  0.1062 -0.2262  1.0945
  175SOPE  H14S19903   6.268   6.192   9.274  1.2714 -0.1858 -0.7571
  175SOPE  C21519904   6.325   6.312   9.106 -0.6009 -0.4363 -0.1641
  175SOPE  H15R19905   6.414   6.356   9.157 -0.8921 -0.8695  0.7347
  175SOPE  H15S19906   6.282   6.382   9.031  2.0476  1.4127 -0.1355
  175SOPE  C21619907   6.366   6.193   9.017  0.2200  0.1950  0.6300
  175SOPE  H16R19908   6.393   6.107   9.081  0.7055 -0.5766 -0.5809
  175SOPE  H16S19909   6.453   6.224   8.956 -0.5310  2.1256  0.4437
  175SOPE  C21719910   6.266   6.142   8.906  0.1220 -0.5048  0.0200
  175SOPE  H17R19911   6.262   6.228   8.836 -1.3599 -0.4431  0.1384
  175SOPE  H17S19912   6.165   6.114   8.942  0.5822 -0.0214  1.7924
  175SOPE  C21819913   6.311   6.022   8.829  0.1448 -0.0980 -0.0989
  175SOPE  H18R19914   6.319   5.926   8.886 -1.6074 -1.0631 -1.3883
  175SOPE  H18S19915   6.410   6.037   8.782 -0.4266  1.5340 -0.8281
  175SOPE  H18T19916   6.237   6.016   8.747  1.6925 -1.7133 -1.4845
  175SOPE   C3319917   6.253   6.163  10.086 -0.1936 -0.5843  0.5046
  175SOPE   H3X19918   6.268   6.053  10.075  0.1851 -0.5213  0.3865
  175SOPE   H3Y19919   6.315   6.193  10.174  2.4370  0.1035 -1.4684
  175SOPE   C3419920   6.300   6.233   9.963  0.5324 -0.4200  0.2266
  175SOPE   H4X19921   6.286   6.342   9.978  0.5728 -0.4734  0.6525
  175SOPE   H4Y19922   6.239   6.203   9.875  0.5020  1.3845 -0.4127
  175SOPE   C3519923   6.451   6.212   9.932 -0.2340  0.4619  0.0286
  175SOPE   H5X19924   6.460   6.102   9.941  1.7291  0.7409  3.3144
  175SOPE   H5Y19925   6.510   6.255  10.016 -1.8224  1.5285  0.6537
  175SOPE   C3619926   6.494   6.256   9.791  0.0375 -0.0736  0.5994
  175SOPE   H6X19927   6.455   6.356   9.761  1.1035  0.5334  1.1497
  175SOPE   H6Y19928   6.463   6.174   9.723 -0.0396  0.3187  0.1565
  175SOPE   C3719929   6.644   6.277   9.787 -0.5801 -0.2500 -0.1096
  175SOPE   H7X19930   6.681   6.176   9.817  0.8773  1.0070  2.6389
  175SOPE   H7Y19931   6.674   6.356   9.858  1.8403 -1.4750  0.3512
  175SOPE   C3819932   6.691   6.324   9.641 -0.1384  0.8317  0.0313
  175SOPE   H8X19933   6.785   6.384   9.646 -1.0939  2.3824 -0.1412
  175SOPE   H8Y19934   6.614   6.392   9.601  1.5682  1.7745 -1.8247
  175SOPE   C3919935   6.721   6.206   9.545  0.7252  0.0786  0.8268
  175SOPE   H9X19936   6.630   6.142   9.544  0.5028  0.2871 -2.4798
  175SOPE   H9Y19937   6.807   6.140   9.571  0.7906  0.9566  3.0102
  175SOPE  C31019938   6.747   6.252   9.398  1.1425 -0.7297  0.3386
  175SOPE  H10X19939   6.840   6.312   9.392  0.6388  0.0549  0.2488
  175SOPE  H10Y19940   6.665   6.319   9.364  1.4471  0.0027  1.0143
  175SOPE  C31119941   6.765   6.138   9.294 -0.4250 -0.0377  0.0748
  175SOPE  H11X19942   6.812   6.055   9.350  2.0766  0.9662 -0.4170
  175SOPE  H11Y19943   6.826   6.179   9.211  0.5313  1.3328  1.4004
  175SOPE  C31219944   6.630   6.088   9.229  0.0268 -0.0693 -0.0483
  175SOPE  H12X19945   6.591   6.165   9.159 -2.5631 -0.4207  0.9130
  175SOPE  H12Y19946   6.557   6.090   9.313  1.3088 -0.2285  1.1101
  175SOPE  C31319947   6.641   5.976   9.125 -0.4899  0.4459 -0.5091
  175SOPE  H13X19948   6.544   5.928   9.102  0.0003 -0.1867 -1.2677
  175SOPE  H13Y19949   6.707   5.900   9.172  2.5506  1.2686 -3.1262
  175SOPE  C31419950   6.713   6.018   8.999 -0.1237  0.3653 -0.5346
  175SOPE  H14X19951   6.798   6.083   9.028  0.1914  0.1603 -0.9966
  175SOPE  H14Y19952   6.656   6.094   8.941  1.5163  0.9805 -1.3838
  175SOPE  C31519953   6.760   5.903   8.909 -0.4500 -0.1053  0.3642
  175SOPE  H15X19954   6.824   5.838   8.972 -1.0784  0.3923  1.5504
  175SOPE  H15Y19955   6.818   5.947   8.826 -0.6455 -1.5870 -0.5994
  175SOPE  C31619956   6.652   5.818   8.848  0.3651  0.6893  0.6894
  175SOPE  H16X19957   6.568   5.879   8.809  1.8498  2.6708  0.3479
  175SOPE  H16Y19958   6.597   5.773   8.932 -0.6394  0.7493  0.0728
  175SOPE  C31719959   6.707   5.694   8.768 -0.0112  0.5720 -0.0496
  175SOPE  H17X19960   6.636   5.609   8.761  0.7551 -0.0207 -0.8962
  175SOPE  H17Y19961   6.789   5.652   8.829 -1.0722  0.0086  1.0396
  175SOPE  C31819962   6.753   5.717   8.624 -0.5258  0.0951 -0.4200
  175SOPE  H18X19963   6.808   5.632   8.579 -0.7223  0.4563 -1.3664
  175SOPE  H18Y19964   6.822   5.804   8.619 -1.9752  1.3836  0.7234
  175SOPE  H18Z19965   6.668   5.735   8.555 -0.7373  1.1225  0.0943
  176SOPE     N19966   5.574   4.929  11.158 -0.3480  0.3291  0.1296
  176SOPE   HN119967   5.625   4.985  11.230  0.2676 -0.0133 -0.0284
  176SOPE   HN219968   5.473   4.954  11.163 -0.3741  0.0861  1.0921
  176SOPE   HN319969   5.582   4.827  11.177 -1.8152 -0.1214 -1.4192
  176SOPE   C1219970   5.617   4.978  11.026 -0.5421 -0.4741 -0.4144
  176SOPE  H12A19971   5.550   4.939  10.946  1.5411 -1.8311 -1.5988
  176SOPE  H12B19972   5.720   4.942  11.005  0.5555  1.3628  1.4863
  176SOPE   C1119973   5.629   5.134  11.026 -0.6485 -0.0312  0.6883
  176SOPE  H11A19974   5.674   5.160  10.929 -1.1194  0.2971  0.5508
  176SOPE  H11B19975   5.707   5.175  11.094  1.3179 -0.2470 -1.3313
  176SOPE     P19976   5.481   5.345  11.049  0.3801  0.2848  0.4046
  176SOPE   O1319977   5.549   5.401  11.166 -0.1577  0.1014 -0.2841
  176SOPE   O1419978   5.337   5.373  11.024  0.7489  0.3765  0.2813
  176SOPE   O1219979   5.501   5.196  11.044  0.2778  0.6210  0.3326
  176SOPE   O1119980   5.573   5.393  10.919 -0.6428 -0.4570 -0.6765
  176SOPE    C119981   5.531   5.365  10.788  0.0610  0.2166  0.2349
  176SOPE    HA19982   5.428   5.322  10.785  0.5984 -1.1693  0.5925
  176SOPE    HB19983   5.603   5.300  10.733  0.0846  0.5810 -0.1697
  176SOPE    C219984   5.526   5.500  10.709  0.5861 -0.2681 -0.5051
  176SOPE    HS19985   5.447   5.485  10.632 -0.2052  0.7412  0.0806
  176SOPE   O2119986   5.654   5.516  10.651 -0.2048 -0.6856 -0.1652
  176SOPE   C2119987   5.658   5.562  10.526  0.7170  0.4545 -0.6346
  176SOPE   O2219988   5.558   5.576  10.456  0.1451  0.0530  0.7419
  176SOPE   C2219989   5.801   5.611  10.502  0.0458 -0.1075  0.5376
  176SOPE   H2R19990   5.869   5.531  10.539 -1.4980 -1.1889  1.1817
  176SOPE   H2S19991   5.827   5.699  10.564  2.5648 -0.0330 -0.4929
  176SOPE    C319992   5.487   5.628  10.788 -0.8078  0.2571  0.2104
  176SOPE    HX19993   5.578   5.652  10.847  0.3755  0.8386 -1.7579
  176SOPE    HY19994   5.414   5.613  10.870  0.2482  1.3630  1.3863
  176SOPE   O3119995   5.467   5.745  10.707 -0.0570  0.5139 -0.1429
  176SOPE   C3119996   5.346   5.754  10.660  0.4897  0.3288  0.0248
  176SOPE   O3219997   5.262   5.667  10.668  0.0077 -0.0350 -0.4792
  176SOPE   C3219998   5.328   5.879  10.579  0.6182  0.1701 -0.7822
  176SOPE   H2X19999   5.366   5.965  10.639  1.7761  0.1496 -1.4532
  176SOPE   H2Y20000   5.220   5.898  10.560  0.4339  3.6708  2.3655
  176SOPE   C2320001   5.832   5.627  10.350 -0.1530  0.3953 -0.1509
  176SOPE   H3R20002   5.757   5.697  10.306  0.4384  1.4657  0.5203
  176SOPE   H3S20003   5.835   5.536  10.287 -0.0203 -0.8448  1.5770
  176SOPE   C2420004   5.968   5.701  10.344  0.5972  0.2060 -0.0323
  176SOPE   H4R20005   5.945   5.807  10.364  1.1628  0.6072 -1.3845
  176SOPE   H4S20006   6.033   5.676  10.430 -0.1095 -0.4353  0.3296
  176SOPE   C2520007   6.039   5.697  10.207 -0.4074 -0.1127  0.3022
  176SOPE   H5R20008   6.141   5.741  10.211  1.5829 -3.8012 -2.6847
  176SOPE   H5S20009   6.051   5.587  10.191  1.4791  0.1012 -0.0337
  176SOPE   C2620010   5.966   5.765  10.081 -0.6264 -0.4251  0.0516
  176SOPE   H6R20011   5.865   5.719  10.070 -0.4053 -1.4523  1.8200
  176SOPE   H6S20012   5.957   5.872  10.108  2.6485 -0.3302  1.1717
  176SOPE   C2720013   6.047   5.747   9.952  0.2327 -0.8268 -0.7989
  176SOPE   H7R20014   6.131   5.820   9.958 -1.4603  1.1432  0.2711
  176SOPE   H7S20015   6.087   5.644   9.964  0.1728 -0.8586 -0.8701
  176SOPE   C2820016   5.959   5.754   9.822  0.2710 -0.4343 -0.1970
  176SOPE   H8R20017   6.022   5.705   9.744 -0.7739 -2.1357 -0.0139
  176SOPE   H8S20018   5.871   5.687   9.833  0.8892 -1.2331 -0.0393
  176SOPE   C2920019   5.926   5.898   9.789 -0.3793 -0.3648 -0.7778
  176SOPE   H9120020   5.840   5.923   9.854 -0.5684 -4.0363  0.6078
  176SOPE  C21020021   5.991   5.976   9.695  0.2959  0.4920 -0.2772
  176SOPE  H10120022   5.947   6.073   9.670 -1.2281  0.1872  1.0447
  176SOPE  C21120023   6.110   5.947   9.609  0.1223 -0.0978 -0.2333
  176SOPE  H11R20024   6.175   5.866   9.647 -0.6935  0.4012  2.5079
  176SOPE  H11S20025   6.170   6.040   9.605 -1.9375  1.3521  0.5738
  176SOPE  C21220026   6.037   5.938   9.473 -0.1698  0.5110 -0.3269
  176SOPE  H12R20027   5.981   6.027   9.436  0.7891  1.3979  0.3318
  176SOPE  H12S20028   5.959   5.859   9.469 -1.1301  1.4069  0.1172
  176SOPE  C21320029   6.131   5.911   9.357  0.2980  0.2432  0.9946
  176SOPE  H13R20030   6.178   5.812   9.378  0.5326  0.2232  0.3996
  176SOPE  H13S20031   6.203   5.994   9.344  0.9520 -0.6446 -1.6662
  176SOPE  C21420032   6.060   5.897   9.220  0.3941  0.2068 -0.0558
  176SOPE  H14R20033   6.028   5.997   9.182 -2.1127 -0.0275  1.2452
  176SOPE  H14S20034   5.970   5.834   9.230  0.2103  0.0772 -2.0665
  176SOPE  C21520035   6.154   5.848   9.111 -0.1595 -0.0964 -0.0086
  176SOPE  H15R20036   6.237   5.922   9.109  0.0987 -0.4014 -1.0474
  176SOPE  H15S20037   6.095   5.854   9.017 -0.4462  1.9033  0.2545
  176SOPE  C21620038   6.207   5.710   9.137 -0.5150 -0.7062  0.2814
  176SOPE  H16R20039   6.126   5.637   9.154 -1.5169  0.4741  0.7004
  176SOPE  H16S20040   6.271   5.720   9.227 -1.3563  1.4816  0.6896
  176SOPE  C21720041   6.299   5.650   9.025  0.0594  0.8463  0.4307
  176SOPE  H17R20042   6.385   5.719   9.032  0.0036  1.0921 -1.0759
  176SOPE  H17S20043   6.246   5.652   8.927 -0.6406 -1.8358  0.6854
  176SOPE  C21820044   6.334   5.502   9.050  0.6745 -0.3438 -0.0877
  176SOPE  H18R20045   6.420   5.478   8.985  1.1622 -1.7715  1.0421
  176SOPE  H18S20046   6.258   5.432   9.011  1.7356 -2.0261  0.7508
  176SOPE  H18T20047   6.344   5.471   9.157 -0.1112 -1.9220 -0.4462
  176SOPE   C3320048   5.414   5.883  10.453 -0.7471 -0.3452  0.1791
  176SOPE   H3X20049   5.518   5.845  10.467 -0.7116 -0.8133 -1.1509
  176SOPE   H3Y20050   5.430   5.992  10.435 -0.5075 -0.5393 -0.8715
  176SOPE   C3420051   5.350   5.806  10.338  0.1611 -0.3678 -1.1625
  176SOPE   H4X20052   5.250   5.847  10.313  0.3663  1.5200  0.7731
  176SOPE   H4Y20053   5.333   5.705  10.380  0.0136 -0.1345 -0.6489
  176SOPE   C3520054   5.439   5.810  10.211 -0.1979 -0.0594 -1.0392
  176SOPE   H5X20055   5.408   5.729  10.143  0.4153 -0.0907 -1.2870
  176SOPE   H5Y20056   5.545   5.795  10.241 -0.1656  0.1656 -1.0409
  176SOPE   C3620057   5.444   5.947  10.142 -0.5135 -0.2122 -0.3572
  176SOPE   H6X20058   5.485   6.028  10.206 -0.7269  0.4751 -1.0644
  176SOPE   H6Y20059   5.346   5.987  10.110 -0.9364 -0.1209  1.0267
  176SOPE   C3720060   5.543   5.944  10.019 -0.3426  0.5397 -0.6190
  176SOPE   H7X20061   5.639   5.895  10.043  0.2327  1.4374 -1.0368
  176SOPE   H7Y20062   5.580   6.046   9.996 -0.2047  0.0718 -2.6433
  176SOPE   C3820063   5.477   5.876   9.899 -0.3499 -0.4624  0.0852
  176SOPE   H8X20064   5.369   5.902   9.894 -0.9752 -2.6672  0.7768
  176SOPE   H8Y20065   5.471   5.766   9.919 -3.8497 -0.5796 -1.0113
  176SOPE   C3920066   5.550   5.902   9.762  0.8445 -0.0646  0.0434
  176SOPE   H9X20067   5.645   5.848   9.745  0.4192 -0.2756 -1.8493
  176SOPE   H9Y20068   5.567   6.012   9.755  2.2151 -0.3020 -0.8103
  176SOPE  C31020069   5.472   5.851   9.640 -0.2093 -0.2436  0.4365
  176SOPE  H10X20070   5.379   5.913   9.637 -0.8515 -1.1940  0.2711
  176SOPE  H10Y20071   5.451   5.742   9.648 -1.2067  0.0310  2.0155
  176SOPE  C31120072   5.546   5.868   9.503 -0.1253  0.7565 -0.4190
  176SOPE  H11X20073   5.482   5.820   9.426  2.3106 -2.3811 -0.6716
  176SOPE  H11Y20074   5.647   5.821   9.505  0.1182  1.2285  1.9145
  176SOPE  C31220075   5.562   6.014   9.462  0.2316  0.2690 -0.6767
  176SOPE  H12X20076   5.592   6.069   9.554 -1.5478  0.8683 -0.4099
  176SOPE  H12Y20077   5.464   6.063   9.444 -0.2095  0.1611  1.1590
  176SOPE  C31320078   5.649   6.031   9.337  1.1064  0.9090  0.2158
  176SOPE  H13X20079   5.747   5.988   9.365  0.3401 -1.4857 -0.5389
  176SOPE  H13Y20080   5.667   6.140   9.322 -1.1938  1.4459  0.9580
  176SOPE  C31420081   5.612   5.965   9.196 -0.7075  0.2762  0.2487
  176SOPE  H14X20082   5.515   6.002   9.157 -1.8797 -2.3862  0.4709
  176SOPE  H14Y20083   5.590   5.857   9.208  0.8718 -0.0157  0.8034
  176SOPE  C31520084   5.710   5.987   9.078  0.1937  0.2730 -0.5748
  176SOPE  H15X20085   5.656   5.956   8.986 -1.8111  2.1226 -0.1056
  176SOPE  H15Y20086   5.805   5.930   9.083  1.5984  2.5304 -0.2809
  176SOPE  C31620087   5.745   6.135   9.054  0.7339  0.1077  0.2637
  176SOPE  H16X20088   5.741   6.189   9.152 -1.3733  1.4514 -0.4857
  176SOPE  H16Y20089   5.663   6.185   8.998  1.6176  0.6247 -0.6017
  176SOPE  C31720090   5.881   6.153   8.987 -0.1731  0.1862  0.6783
  176SOPE  H17X20091   5.886   6.085   8.899 -1.8188  0.2195  0.5259
  176SOPE  H17Y20092   5.963   6.128   9.058  0.4118  0.6079  0.1667
  176SOPE  C31820093   5.915   6.296   8.945 -0.0382  0.0550 -0.2325
  176SOPE  H18X20094   5.882   6.322   8.842 -1.3451  1.0976  0.4155
  176SOPE  H18Y20095   6.025   6.308   8.944  0.2183 -1.9631 -0.9553
  176SOPE  H18Z20096   5.865   6.363   9.018 -3.0748 -0.1677 -1.9325
  177SOPE     N20097   6.090   1.998  10.819 -0.5449 -0.7955 -0.9495
  177SOPE   HN120098   5.995   2.014  10.858  0.5451  1.9310  0.9560
  177SOPE   HN220099   6.077   2.005  10.716  0.7437 -1.1069 -1.1505
  177SOPE   HN320100   6.119   1.902  10.845  1.1347 -1.0997 -3.5927
  177SOPE   C1220101   6.188   2.101  10.867 -0.3757 -0.3122 -0.0595
  177SOPE  H12A20102   6.183   2.191  10.802  1.6812 -1.3824 -1.8501
  177SOPE  H12B20103   6.287   2.063  10.835  0.3766  3.1639 -2.3712
  177SOPE   C1120104   6.177   2.130  11.015 -0.2537 -0.1853 -0.3021
  177SOPE  H11A20105   6.261   2.187  11.061 -0.0559 -0.7644  0.0706
  177SOPE  H11B20106   6.193   2.031  11.062  1.2597 -1.6759 -3.5978
  177SOPE     P20107   5.987   2.316  11.035  0.5065  0.3706 -0.0436
  177SOPE   O1320108   6.066   2.403  11.122 -0.3327 -0.3677 -0.1660
  177SOPE   O1420109   5.841   2.296  11.055 -0.2801 -0.0972  0.0584
  177SOPE   O1220110   6.048   2.174  11.053 -0.0172  0.0006 -0.2763
  177SOPE   O1120111   6.011   2.359  10.880 -0.5749 -0.1692  0.3109
  177SOPE    C120112   5.925   2.314  10.772  0.1321 -0.4044 -0.1757
  177SOPE    HA20113   5.816   2.331  10.782  0.4168  0.3093  2.3544
  177SOPE    HB20114   5.921   2.203  10.773 -2.3588 -0.4276  3.0557
  177SOPE    C220115   5.969   2.372  10.629 -0.6041  0.3933  0.0129
  177SOPE    HS20116   6.074   2.342  10.610 -0.0365  1.8791  0.6522
  177SOPE   O2120117   5.963   2.516  10.631 -0.1249  0.7492  0.0597
  177SOPE   C2120118   6.036   2.592  10.542  0.2063  0.1429 -0.0444
  177SOPE   O2220119   6.120   2.557  10.467  0.1752  0.0502  0.7217
  177SOPE   C2220120   5.988   2.739  10.555 -0.0422 -0.8553  0.1301
  177SOPE   H2R20121   6.043   2.778  10.643 -0.0855  0.5407 -0.4340
  177SOPE   H2S20122   5.886   2.746  10.598  0.5277  1.2564  1.2984
  177SOPE    C320123   5.873   2.318  10.519 -0.1167 -0.2837  0.8085
  177SOPE    HX20124   5.767   2.343  10.539 -0.2893 -0.9234  0.7250
  177SOPE    HY20125   5.878   2.207  10.519  1.0341 -0.2575 -0.4386
  177SOPE   O3120126   5.895   2.369  10.384  0.1636  0.2469 -0.2744
  177SOPE   C3120127   6.012   2.316  10.318  0.3260  0.2269  0.4258
  177SOPE   O3220128   6.069   2.226  10.371 -0.2146  0.1723 -0.6774
  177SOPE   C3220129   6.046   2.374  10.182  0.0149  0.1708  0.5393
  177SOPE   H2X20130   6.060   2.297  10.103 -0.9639  0.0978  0.4304
  177SOPE   H2Y20131   6.149   2.415  10.196  0.1104 -0.2573  1.1182
  177SOPE   C2320132   6.016   2.827  10.438 -0.2025 -0.0472  0.4228
  177SOPE   H3R20133   6.115   2.811  10.391 -0.8798 -0.7881 -0.8121
  177SOPE   H3S20134   6.002   2.927  10.484 -0.0265 -0.2089  0.8237
  177SOPE   C2420135   5.908   2.829  10.328 -0.5585 -0.3246  0.5900
  177SOPE   H4R20136   5.893   2.726  10.289 -2.1263 -0.7533  2.2269
  177SOPE   H4S20137   5.807   2.851  10.367  0.0984 -0.1412  2.2321
  177SOPE   C2520138   5.946   2.923  10.202 -0.5273 -0.0517 -0.5233
  177SOPE   H5R20139   5.992   3.011  10.251 -1.0460 -0.6554  1.0895
  177SOPE   H5S20140   6.028   2.887  10.135 -0.5023  0.9885 -1.0747
  177SOPE   C2620141   5.832   2.965  10.106 -1.3621  1.0815 -0.1977
  177SOPE   H6R20142   5.787   2.868  10.077  0.9292  0.0430 -0.4899
  177SOPE   H6S20143   5.761   3.030  10.163 -2.1536  0.6027 -0.6205
  177SOPE   C2720144   5.886   3.053   9.989  0.1953 -0.0014 -0.0356
  177SOPE   H7R20145   5.939   3.141  10.029  2.1598 -0.2786 -1.8374
  177SOPE   H7S20146   5.961   2.986   9.942 -0.5749 -2.6373  2.2375
  177SOPE   C2820147   5.774   3.108   9.905  0.6839 -0.5743  0.7618
  177SOPE   H8R20148   5.720   3.017   9.872  0.3194 -0.7389  1.7627
  177SOPE   H8S20149   5.703   3.165   9.969  3.1763  2.2774  1.2027
  177SOPE   C2920150   5.813   3.182   9.777 -0.3643 -0.2149 -0.6654
  177SOPE   H9120151   5.878   3.268   9.799 -0.3157 -0.2848 -0.5373
  177SOPE  C21020152   5.787   3.158   9.649  0.2788  0.4077  0.2967
  177SOPE  H10120153   5.837   3.220   9.573 -1.0489 -0.4864 -1.3893
  177SOPE  C21120154   5.702   3.044   9.607 -0.6112 -0.4210 -0.6643
  177SOPE  H11R20155   5.648   3.060   9.512 -0.6124 -0.5842 -0.6920
  177SOPE  H11S20156   5.628   3.022   9.687  1.8947 -1.5085  1.5309
  177SOPE  C21220157   5.778   2.906   9.587  0.7596  0.5080 -0.2118
  177SOPE  H12R20158   5.720   2.817   9.554  1.0596  1.1079 -2.5646
  177SOPE  H12S20159   5.813   2.879   9.688  2.5460  1.3640 -0.5563
  177SOPE  C21320160   5.897   2.913   9.487 -0.5751 -0.2218  0.3720
  177SOPE  H13R20161   5.943   2.812   9.493  1.2661  0.6148  1.0486
  177SOPE  H13S20162   5.963   2.989   9.532 -0.9108 -0.6703  1.6835
  177SOPE  C21420163   5.848   2.953   9.349 -0.0476 -0.2525 -0.6010
  177SOPE  H14R20164   5.811   3.057   9.359  3.7416  1.2059  0.0722
  177SOPE  H14S20165   5.754   2.898   9.327 -1.1378  0.5806  1.7102
  177SOPE  C21520166   5.954   2.942   9.236 -0.3635 -0.8046 -0.1186
  177SOPE  H15R20167   5.950   2.842   9.188 -2.1623  0.3998 -2.6921
  177SOPE  H15S20168   6.060   2.955   9.268  0.1720 -1.9250 -1.3465
  177SOPE  C21620169   5.926   3.048   9.125 -0.7154 -0.0033  0.4335
  177SOPE  H16R20170   5.928   3.148   9.172  1.5246 -1.1089  2.9241
  177SOPE  H16S20171   5.823   3.037   9.085 -0.6894 -0.9400  0.5998
  177SOPE  C21720172   6.020   3.035   9.004 -0.2850 -0.3742  0.2765
  177SOPE  H17R20173   5.972   3.083   8.916  1.4714 -1.1571 -1.1659
  177SOPE  H17S20174   6.027   2.925   8.992 -1.2634 -0.3021 -1.2641
  177SOPE  C21820175   6.162   3.101   9.033  0.9084 -0.5764  0.3706
  177SOPE  H18R20176   6.228   3.089   8.944  1.4436 -0.4327  0.7422
  177SOPE  H18S20177   6.197   3.054   9.127 -1.9196 -0.8485  1.3681
  177SOPE  H18T20178   6.158   3.211   9.050  1.9777 -0.2497 -1.2559
  177SOPE   C3320179   5.955   2.488  10.132 -0.1417  0.1169 -0.7017
  177SOPE   H3X20180   5.959   2.567  10.211 -0.9181 -1.5732  1.0951
  177SOPE   H3Y20181   5.850   2.457  10.115 -0.0334 -1.1911  0.8583
  177SOPE   C3420182   6.007   2.529   9.994 -0.9414  0.0984 -0.0775
  177SOPE   H4X20183   5.944   2.607   9.946 -0.1574  0.4407 -0.5526
  177SOPE   H4Y20184   6.010   2.445   9.921 -1.5672 -1.7823  1.9384
  177SOPE   C3520185   6.160   2.581   9.988 -0.5489 -0.1455 -0.2910
  177SOPE   H5X20186   6.230   2.495   9.986 -0.7049 -0.2801 -2.4612
  177SOPE   H5Y20187   6.175   2.637  10.083 -2.2781 -2.9577  1.8104
  177SOPE   C3620188   6.182   2.677   9.875 -0.4137  0.6511  0.4859
  177SOPE   H6X20189   6.281   2.724   9.895  0.1743  0.2440 -1.3059
  177SOPE   H6Y20190   6.105   2.755   9.861  0.0458  0.6012 -3.3140
  177SOPE   C3720191   6.214   2.603   9.742  0.3798 -0.0026 -0.0194
  177SOPE   H7X20192   6.128   2.536   9.724  0.0944  0.3173  0.1415
  177SOPE   H7Y20193   6.316   2.560   9.756  1.3818  2.0340 -0.6563
  177SOPE   C3820194   6.225   2.687   9.614 -0.0877 -1.0547 -0.0852
  177SOPE   H8X20195   6.293   2.772   9.636 -1.4604 -0.5096  2.5348
  177SOPE   H8Y20196   6.126   2.736   9.607  0.9203  1.0934 -0.1666
  177SOPE   C3920197   6.263   2.618   9.482  0.2332 -0.0541 -0.1665
  177SOPE   H9X20198   6.200   2.535   9.443 -1.0302  1.8180 -2.3979
  177SOPE   H9Y20199   6.362   2.570   9.499  1.6098  3.1022  1.5419
  177SOPE  C31020200   6.267   2.719   9.371  0.6140 -0.3378 -0.2925
  177SOPE  H10X20201   6.332   2.805   9.399  0.3402 -0.7305  1.6962
  177SOPE  H10Y20202   6.165   2.760   9.356  1.4499  1.1281 -2.6580
  177SOPE  C31120203   6.318   2.667   9.234  0.0010  0.5776  0.4214
  177SOPE  H11X20204   6.274   2.567   9.211  1.3622 -0.7470  3.0741
  177SOPE  H11Y20205   6.423   2.630   9.242 -0.5829 -1.2314  0.1701
  177SOPE  C31220206   6.290   2.754   9.114  0.5055  0.7659  0.5664
  177SOPE  H12X20207   6.342   2.852   9.127 -0.5246  1.2152  1.5569
  177SOPE  H12Y20208   6.182   2.779   9.102 -0.1523 -1.9909  0.2436
  177SOPE  C31320209   6.345   2.702   8.972 -0.2718  0.1207 -0.5878
  177SOPE  H13X20210   6.305   2.601   8.950 -0.9509  0.2450  0.0164
  177SOPE  H13Y20211   6.453   2.706   8.950 -0.7938  3.3514 -3.5348
  177SOPE  C31420212   6.297   2.804   8.865  0.2507 -0.3392  0.2210
  177SOPE  H14X20213   6.362   2.893   8.878  1.8374 -1.5355  0.8671
  177SOPE  H14Y20214   6.198   2.841   8.897 -0.1295 -0.7940 -0.4179
  177SOPE  C31520215   6.295   2.750   8.721  0.1087 -0.0373  0.3398
  177SOPE  H15X20216   6.278   2.640   8.729  1.4111 -0.4361 -1.6662
  177SOPE  H15Y20217   6.395   2.764   8.676 -0.4087 -0.9057 -1.1653
  177SOPE  C31620218   6.184   2.816   8.645  0.4873  0.0653 -0.2916
  177SOPE  H16X20219   6.090   2.787   8.698  0.2407 -0.3243 -0.9293
  177SOPE  H16Y20220   6.186   2.776   8.541  3.6473 -1.4955  0.2543
  177SOPE  C31720221   6.192   2.966   8.619 -0.1255 -1.0928  0.0719
  177SOPE  H17X20222   6.301   2.979   8.599  0.0116 -1.1859  0.7316
  177SOPE  H17Y20223   6.183   3.030   8.709 -3.1371  0.1680 -1.0152
  177SOPE  C31820224   6.119   3.010   8.493  0.1142 -0.0170  0.3282
  177SOPE  H18X20225   6.138   3.119   8.483  0.0098  0.1944  2.1073
  177SOPE  H18Y20226   6.010   2.986   8.498 -0.0930  1.1277  2.8381
  177SOPE  H18Z20227   6.170   2.966   8.405 -2.6715  0.9900 -1.9318
  178SOPE     N20228   3.016   3.419  10.917 -0.4793  0.2194 -0.7622
  178SOPE   HN120229   2.965   3.508  10.901  1.0251  1.1426 -0.5918
  178SOPE   HN220230   3.087   3.411  10.841  1.2284 -4.4098  0.9768
  178SOPE   HN320231   2.949   3.339  10.917 -0.1591 -0.0829  0.9014
  178SOPE   C1220232   3.077   3.432  11.048 -0.6564  0.2234  0.2412
  178SOPE  H12A20233   3.120   3.334  11.076 -0.1707  0.2977 -0.2415
  178SOPE  H12B20234   2.997   3.469  11.116 -0.6005 -0.1281  0.4977
  178SOPE   C1120235   3.177   3.542  11.031 -0.5597 -0.4712  0.1479
  178SOPE  H11A20236   3.249   3.503  10.956 -0.5798  0.4482 -0.3691
  178SOPE  H11B20237   3.229   3.555  11.128  0.4472  2.5658 -0.6654
  178SOPE     P20238   3.161   3.812  10.976 -0.4189  0.2220 -0.1615
  178SOPE   O1320239   3.264   3.841  11.074  0.1687  0.1346  0.0780
  178SOPE   O1420240   3.039   3.899  10.961 -0.3879  0.7004 -0.6096
  178SOPE   O1220241   3.107   3.667  10.988 -0.5817  0.6581  0.0718
  178SOPE   O1120242   3.244   3.795  10.835  0.0667 -0.3970 -0.1992
  178SOPE    C120243   3.235   3.908  10.748  0.4436 -0.2652 -0.3860
  178SOPE    HA20244   3.248   4.006  10.799 -0.6027  0.5417 -1.6261
  178SOPE    HB20245   3.137   3.910  10.696  0.3387  2.0906 -0.2014
  178SOPE    C220246   3.344   3.917  10.638 -0.0329 -0.1985  0.0126
  178SOPE    HS20247   3.350   4.024  10.610 -3.0346  0.1666  0.4611
  178SOPE   O2120248   3.316   3.821  10.525 -0.2982  0.3746 -0.4830
  178SOPE   C2120249   3.250   3.880  10.430 -0.6891 -0.0507 -0.4566
  178SOPE   O2220250   3.212   3.998  10.428 -0.1995 -0.0878 -0.4348
  178SOPE   C2220251   3.237   3.779  10.319  0.7164 -0.1182 -0.5588
  178SOPE   H2R20252   3.139   3.727  10.323 -0.3532  1.9005  1.8196
  178SOPE   H2S20253   3.319   3.705  10.329  1.4265  0.3953 -2.2848
  178SOPE    C320254   3.495   3.884  10.684 -0.0889  0.3763 -0.7532
  178SOPE    HX20255   3.484   3.776  10.708  1.8775  0.5957  1.3839
  178SOPE    HY20256   3.521   3.940  10.775 -1.9476  0.3011 -0.1315
  178SOPE   O3120257   3.596   3.911  10.580  0.1629 -0.2798 -0.9012
  178SOPE   C3120258   3.677   3.815  10.560  0.2696 -0.1436  0.2931
  178SOPE   O3220259   3.677   3.709  10.618  0.1407  0.4307 -0.0495
  178SOPE   C3220260   3.779   3.861  10.460  1.0383 -0.5276 -0.7106
  178SOPE   H2X20261   3.835   3.773  10.421  1.9309  0.5750 -2.0062
  178SOPE   H2Y20262   3.852   3.920  10.520 -2.4730  0.0305  3.5241
  178SOPE   C2320263   3.257   3.853  10.180  0.1015  0.2760 -0.8796
  178SOPE   H3R20264   3.345   3.921  10.173  1.5207 -1.6029 -2.3414
  178SOPE   H3S20265   3.172   3.920  10.157  0.5962  0.9840 -0.6992
  178SOPE   C2420266   3.263   3.756  10.058 -0.0712 -0.0924 -0.3810
  178SOPE   H4R20267   3.366   3.717  10.041  0.2866  0.2743  0.8358
  178SOPE   H4S20268   3.204   3.669  10.094 -0.6820  0.9736  1.2995
  178SOPE   C2520269   3.197   3.812   9.931 -0.1697 -0.7018 -0.1460
  178SOPE   H5R20270   3.087   3.818   9.945 -0.0217  1.0759  0.5595
  178SOPE   H5S20271   3.240   3.914   9.918 -0.6881 -0.4738 -0.0891
  178SOPE   C2620272   3.213   3.720   9.816 -0.4136  0.0373 -0.0175
  178SOPE   H6R20273   3.318   3.687   9.803 -0.9048 -0.9280 -1.8216
  178SOPE   H6S20274   3.151   3.631   9.838  1.9554 -1.7026 -0.0428
  178SOPE   C2720275   3.167   3.778   9.679  0.1774  0.3138 -0.1242
  178SOPE   H7R20276   3.062   3.816   9.685 -1.3100 -2.9860 -2.6715
  178SOPE   H7S20277   3.238   3.859   9.650  2.4133 -0.9806  1.4634
  178SOPE   C2820278   3.154   3.672   9.568  0.1845  0.1697 -0.5302
  178SOPE   H8R20279   3.241   3.613   9.532 -0.1088  1.5238 -3.7860
  178SOPE   H8S20280   3.074   3.603   9.603  0.3079  1.0572  1.6860
  178SOPE   C2920281   3.081   3.742   9.447  0.4540  0.1241  0.5264
  178SOPE   H9120282   2.971   3.746   9.443  0.4812  0.4873 -0.0665
  178SOPE  C21020283   3.136   3.811   9.349 -0.3516 -0.2058  0.4151
  178SOPE  H10120284   3.081   3.836   9.257 -0.7124 -1.4000  0.2879
  178SOPE  C21120285   3.284   3.818   9.333  0.4752  0.1267  0.0647
  178SOPE  H11R20286   3.323   3.801   9.436 -0.8766 -1.7869  0.3289
  178SOPE  H11S20287   3.312   3.924   9.320 -1.1198  1.1329  3.5237
  178SOPE  C21220288   3.349   3.721   9.237  0.4070 -0.2785 -0.7306
  178SOPE  H12R20289   3.317   3.617   9.260  1.3852 -0.4625 -0.1105
  178SOPE  H12S20290   3.459   3.736   9.246  0.7955 -0.8419 -3.6755
  178SOPE  C21320291   3.317   3.739   9.088 -0.7824 -0.3199 -0.6134
  178SOPE  H13R20292   3.337   3.846   9.063 -1.4628  0.3258  1.4168
  178SOPE  H13S20293   3.208   3.728   9.073 -1.1119 -0.3474  1.4679
  178SOPE  C21420294   3.400   3.653   8.996 -0.4409  0.0040  0.5137
  178SOPE  H14R20295   3.508   3.679   9.006  0.3257 -1.0880 -3.0999
  178SOPE  H14S20296   3.377   3.671   8.889  0.1959  0.9980  0.5333
  178SOPE  C21520297   3.387   3.496   9.006 -0.2449  0.1925 -0.1521
  178SOPE  H15R20298   3.281   3.470   8.982 -0.1149 -0.7527  0.2299
  178SOPE  H15S20299   3.400   3.471   9.113 -0.1049 -3.3086 -0.8783
  178SOPE  C21620300   3.485   3.418   8.922 -0.4124  0.1213  0.4065
  178SOPE  H16R20301   3.513   3.319   8.965 -1.3832 -0.7812 -0.9472
  178SOPE  H16S20302   3.583   3.469   8.912  0.4554 -1.1492  1.9389
  178SOPE  C21720303   3.432   3.386   8.775  0.0339  0.2334 -0.6780
  178SOPE  H17R20304   3.332   3.432   8.764 -0.2690  0.3379  1.8759
  178SOPE  H17S20305   3.422   3.277   8.756 -0.4020  0.3901 -1.3738
  178SOPE  C21820306   3.510   3.429   8.652  0.2063 -0.2374 -0.2104
  178SOPE  H18R20307   3.612   3.385   8.658  0.5932  0.5558 -0.7021
  178SOPE  H18S20308   3.502   3.538   8.633 -3.8675 -0.3657 -0.0382
  178SOPE  H18T20309   3.461   3.372   8.571 -0.8895 -1.0783  1.0111
  178SOPE   C3320310   3.731   3.948  10.332  0.1714  0.3803 -1.1542
  178SOPE   H3X20311   3.824   3.981  10.281  1.1063  0.4661  0.5430
  178SOPE   H3Y20312   3.684   4.041  10.369 -1.4496 -0.5724 -0.7249
  178SOPE   C3420313   3.650   3.866  10.232 -0.3525 -0.5170 -0.0992
  178SOPE   H4X20314   3.566   3.824  10.291  0.3478  0.4100  1.6616
  178SOPE   H4Y20315   3.710   3.784  10.189 -0.1216  0.4306 -1.6384
  178SOPE   C3520316   3.605   3.941  10.103  0.4051  0.1209  0.2987
  178SOPE   H5X20317   3.527   4.017  10.126 -0.3080 -0.5052 -0.0157
  178SOPE   H5Y20318   3.538   3.875  10.044 -2.0511  1.4675  1.4616
  178SOPE   C3620319   3.729   3.998  10.030 -0.6180  0.0803  0.6668
  178SOPE   H6X20320   3.805   3.924   9.997 -3.2715 -2.2687 -0.5908
  178SOPE   H6Y20321   3.789   4.077  10.080  3.3387 -0.4768 -2.6461
  178SOPE   C3720322   3.667   4.079   9.909 -0.4508  0.0047  0.1748
  178SOPE   H7X20323   3.595   4.150   9.954  1.5402  2.1673  0.1539
  178SOPE   H7Y20324   3.613   4.011   9.841 -0.4315  0.0388  0.1251
  178SOPE   C3820325   3.777   4.148   9.821 -0.1569 -0.4898  0.0137
  178SOPE   H8X20326   3.871   4.089   9.811 -1.1006 -1.8262 -1.3296
  178SOPE   H8Y20327   3.818   4.232   9.881 -0.7768 -0.9379  1.0807
  178SOPE   C3920328   3.719   4.220   9.703 -0.7739  0.0902  0.2185
  178SOPE   H9X20329   3.791   4.298   9.672 -2.0077  0.4083 -2.0851
  178SOPE   H9Y20330   3.622   4.272   9.721 -1.0961  0.5772 -2.4195
  178SOPE  C31020331   3.718   4.126   9.583 -0.3680  0.3721 -0.0195
  178SOPE  H10X20332   3.627   4.063   9.597 -0.7361  1.2637  2.1183
  178SOPE  H10Y20333   3.814   4.072   9.572 -0.4519  0.6124 -2.2574
  178SOPE  C31120334   3.696   4.208   9.455 -0.2585 -0.0955 -0.0891
  178SOPE  H11X20335   3.642   4.302   9.480  1.7300  0.9297  0.6178
  178SOPE  H11Y20336   3.631   4.144   9.393  0.4893 -0.5139 -0.4552
  178SOPE  C31220337   3.819   4.229   9.364 -0.7252  0.0566 -0.8455
  178SOPE  H12X20338   3.852   4.129   9.329 -0.0934 -1.0382  2.5259
  178SOPE  H12Y20339   3.900   4.282   9.419 -3.1990  3.1839  0.0525
  178SOPE  C31320340   3.783   4.323   9.246 -0.3283 -0.0087 -0.5173
  178SOPE  H13X20341   3.746   4.421   9.283 -2.3378 -0.2573 -1.7036
  178SOPE  H13Y20342   3.697   4.277   9.193 -0.6187  0.1927 -0.2267
  178SOPE  C31420343   3.901   4.338   9.147 -0.7387 -0.0716  0.1837
  178SOPE  H14X20344   3.917   4.250   9.082 -2.8579 -0.0936 -0.3817
  178SOPE  H14Y20345   3.996   4.346   9.204 -1.7933  0.2676  1.9628
  178SOPE  C31520346   3.887   4.460   9.057  0.1403 -0.1769  0.4172
  178SOPE  H15X20347   3.787   4.474   9.009  1.1289 -0.7809 -1.9559
  178SOPE  H15Y20348   3.956   4.453   8.970 -0.6450 -1.8719 -0.1170
  178SOPE  C31620349   3.916   4.586   9.134  0.3793  0.1744 -0.2952
  178SOPE  H16X20350   4.015   4.571   9.183  1.0246 -0.9875 -1.8693
  178SOPE  H16Y20351   3.845   4.617   9.213  1.3841 -0.2391  0.7952
  178SOPE  C31720352   3.917   4.714   9.049  1.1713 -0.1388  0.5363
  178SOPE  H17X20353   3.869   4.704   8.949  2.1075  2.5815 -0.2844
  178SOPE  H17Y20354   4.021   4.740   9.022  0.6126  1.3784 -0.2802
  178SOPE  C31820355   3.840   4.838   9.100 -0.9936  0.9811 -0.5303
  178SOPE  H18X20356   3.846   4.930   9.037  0.7948  2.0436  1.0662
  178SOPE  H18Y20357   3.883   4.864   9.199 -0.3857 -0.1710 -0.4770
  178SOPE  H18Z20358   3.732   4.829   9.121 -0.9892  2.5761  0.3130
  179SOPE     N20359   3.538   3.872   6.657 -0.2899 -0.1806 -0.4256
  179SOPE   HN120360   3.629   3.884   6.707  0.0387 -1.8650 -0.5484
  179SOPE   HN220361   3.465   3.909   6.720  1.0719 -1.2177  1.8854
  179SOPE   HN320362   3.521   3.770   6.652 -0.4126 -0.2345  0.9059
  179SOPE   C1220363   3.534   3.955   6.531  0.1231 -0.2842 -0.9244
  179SOPE  H12A20364   3.534   4.061   6.563  0.1013 -0.3675 -0.6461
  179SOPE  H12B20365   3.449   3.939   6.461 -0.9352  0.8849  0.0513
  179SOPE   C1120366   3.663   3.943   6.455 -0.6034  0.5086  0.0664
  179SOPE  H11A20367   3.671   4.028   6.384  3.5144 -0.7322 -1.2309
  179SOPE  H11B20368   3.656   3.848   6.397 -0.3597  0.9281 -0.6640
  179SOPE     P20369   3.924   3.905   6.478 -0.0338  0.3129  0.2131
  179SOPE   O1320370   4.023   3.943   6.583 -0.0592  0.4757  0.6025
  179SOPE   O1420371   3.927   3.963   6.344 -0.2432  0.0437  0.1245
  179SOPE   O1220372   3.778   3.933   6.544 -0.0542  0.1413  0.2141
  179SOPE   O1120373   3.924   3.748   6.455 -0.1910  0.3812 -0.1312
  179SOPE    C120374   3.853   3.660   6.545  0.2373  0.2725 -0.3945
  179SOPE    HA20375   3.857   3.557   6.502  0.2737  0.7872 -1.6922
  179SOPE    HB20376   3.746   3.689   6.549  0.4559  1.1268 -0.5089
  179SOPE    C220377   3.920   3.654   6.682 -0.0278 -0.1682 -0.0492
  179SOPE    HS20378   3.924   3.758   6.721 -1.3438  0.2948 -1.0759
  179SOPE   O2120379   4.047   3.597   6.655 -0.3893  0.3075  0.4249
  179SOPE   C2120380   4.143   3.647   6.727  0.2037 -0.1208  0.1853
  179SOPE   O2220381   4.129   3.734   6.810  0.0734 -0.1154 -0.0112
  179SOPE   C2220382   4.271   3.577   6.692  0.1114 -0.2492  0.2833
  179SOPE   H2R20383   4.305   3.618   6.595  1.9797 -2.2848  0.0066
  179SOPE   H2S20384   4.256   3.467   6.687 -1.0899 -0.0577 -0.5380
  179SOPE    C320385   3.845   3.559   6.778  0.5402 -0.1668  0.1923
  179SOPE    HX20386   3.850   3.467   6.716  0.4574  0.6118 -1.0022
  179SOPE    HY20387   3.738   3.587   6.790  0.1380 -0.1657 -2.6684
  179SOPE   O3120388   3.909   3.528   6.902  0.1848 -0.4204  0.8795
  179SOPE   C3120389   3.898   3.624   6.993 -0.3070 -0.7244  0.1411
  179SOPE   O3220390   3.832   3.725   6.985 -0.3422 -0.3456  0.3424
  179SOPE   C3220391   3.972   3.589   7.123 -0.7745 -0.9715 -0.0951
  179SOPE   H2X20392   4.059   3.522   7.102  1.6449  1.8200  0.4304
  179SOPE   H2Y20393   3.899   3.535   7.187 -1.1449 -0.4366 -0.0668
  179SOPE   C2320394   4.382   3.608   6.793  0.4060  0.5631 -0.0766
  179SOPE   H3R20395   4.394   3.716   6.815  2.0397  0.6068 -1.0162
  179SOPE   H3S20396   4.484   3.574   6.768  0.9599  0.6065  1.9383
  179SOPE   C2420397   4.365   3.529   6.926  0.4389  0.5625  0.2124
  179SOPE   H4R20398   4.292   3.585   6.989 -0.1514  0.4115 -0.3203
  179SOPE   H4S20399   4.312   3.437   6.894  0.5102  0.7558 -0.4635
  179SOPE   C2520400   4.493   3.504   7.009 -0.3684 -0.6207  0.5803
  179SOPE   H5R20401   4.558   3.444   6.941 -4.3101 -3.3230 -1.1531
  179SOPE   H5S20402   4.546   3.601   7.024 -2.3199  0.6212 -0.2505
  179SOPE   C2620403   4.474   3.436   7.143  0.5056 -0.1443 -1.0249
  179SOPE   H6R20404   4.418   3.506   7.208 -0.3437 -1.3463 -0.4345
  179SOPE   H6S20405   4.402   3.354   7.121 -2.6799  1.7936  1.3868
  179SOPE   C2720406   4.598   3.381   7.224 -0.4898 -0.2031 -0.0711
  179SOPE   H7R20407   4.651   3.304   7.164 -0.0666  0.5704 -0.7095
  179SOPE   H7S20408   4.683   3.451   7.242 -0.1047 -0.2667 -1.5310
  179SOPE   C2820409   4.558   3.310   7.348 -0.0126 -0.2441 -0.0822
  179SOPE   H8R20410   4.523   3.384   7.424  0.0743 -1.1253  0.8420
  179SOPE   H8S20411   4.466   3.248   7.339 -0.6801  0.4223  1.6731
  179SOPE   C2920412   4.670   3.222   7.403 -0.6536 -0.4173  0.3683
  179SOPE   H9120413   4.720   3.167   7.321 -0.2104 -2.0417  1.6717
  179SOPE  C21020414   4.715   3.208   7.530 -0.1395  0.0586  0.3483
  179SOPE  H10120415   4.794   3.136   7.559  0.7895  0.0890 -1.9026
  179SOPE  C21120416   4.643   3.270   7.643  1.1202 -0.1441  0.3756
  179SOPE  H11R20417   4.536   3.244   7.654  1.0871  0.0295  0.4701
  179SOPE  H11S20418   4.648   3.379   7.623  1.1392 -0.2856 -0.4109
  179SOPE  C21220419   4.699   3.226   7.781  0.6481  0.0163 -0.0442
  179SOPE  H12R20420   4.796   3.273   7.808  0.6890  0.2778 -0.6398
  179SOPE  H12S20421   4.714   3.116   7.774  1.4630  0.2257 -2.1332
  179SOPE  C21320422   4.606   3.251   7.901 -1.1516  0.1228 -0.0671
  179SOPE  H13R20423   4.509   3.208   7.869 -0.5918 -1.3582  0.1439
  179SOPE  H13S20424   4.604   3.361   7.918 -0.0510  0.2698 -0.7346
  179SOPE  C21420425   4.653   3.180   8.027 -0.1718 -0.3557 -0.1669
  179SOPE  H14R20426   4.741   3.232   8.069 -1.6194  0.7642  1.6532
  179SOPE  H14S20427   4.690   3.080   7.995  0.9163  0.5105 -1.7771
  179SOPE  C21520428   4.551   3.168   8.141 -0.2229 -0.4728  0.2220
  179SOPE  H15R20429   4.485   3.081   8.124  1.2543 -1.6156  0.0918
  179SOPE  H15S20430   4.502   3.267   8.125  1.6289  0.3763 -0.5272
  179SOPE  C21620431   4.594   3.157   8.288 -0.0841  0.4097 -0.5475
  179SOPE  H16R20432   4.664   3.071   8.299 -2.0175 -1.0636  0.8017
  179SOPE  H16S20433   4.509   3.118   8.347  1.1598 -0.2623  0.8642
  179SOPE  C21720434   4.653   3.275   8.346 -0.2991  0.2414  0.3643
  179SOPE  H17R20435   4.618   3.373   8.306  0.8171  1.4742  2.2940
  179SOPE  H17S20436   4.760   3.267   8.317 -0.4222  0.4092 -0.1473
  179SOPE  C21820437   4.651   3.285   8.500  0.7270  0.3904  0.1193
  179SOPE  H18R20438   4.549   3.310   8.535 -0.5434  1.3187 -3.7113
  179SOPE  H18S20439   4.719   3.366   8.536  1.4359 -1.1169  2.3612
  179SOPE  H18T20440   4.691   3.196   8.552  0.7883  0.8436  0.8549
  179SOPE   C3320441   4.030   3.716   7.190  0.0273  0.2664  0.2289
  179SOPE   H3X20442   3.945   3.780   7.224 -1.0491 -1.1272  0.2683
  179SOPE   H3Y20443   4.090   3.767   7.112 -1.1248  0.3782 -0.6262
  179SOPE   C3420444   4.121   3.675   7.302  0.1586  0.9506  0.1028
  179SOPE   H4X20445   4.208   3.631   7.250 -0.6867  1.6559 -2.0438
  179SOPE   H4Y20446   4.069   3.589   7.349 -0.1395  0.0358 -1.8053
  179SOPE   C3520447   4.147   3.777   7.407  0.5484  0.3322 -0.3541
  179SOPE   H5X20448   4.061   3.794   7.475 -2.1555  0.3601 -3.5334
  179SOPE   H5Y20449   4.171   3.879   7.372 -3.0324  1.7675  0.9208
  179SOPE   C3620450   4.254   3.718   7.498 -0.5686  0.0076 -0.1190
  179SOPE   H6X20451   4.341   3.680   7.440  0.4640  0.6807  0.9385
  179SOPE   H6Y20452   4.211   3.626   7.544  1.5455 -1.4787 -0.9521
  179SOPE   C3720453   4.304   3.811   7.606  0.0511  0.3826  0.3717
  179SOPE   H7X20454   4.216   3.837   7.669  0.6208  1.2306  0.8585
  179SOPE   H7Y20455   4.329   3.910   7.562 -2.6410  1.4948  1.1742
  179SOPE   C3820456   4.417   3.754   7.693 -0.2453 -0.3155  0.8191
  179SOPE   H8X20457   4.502   3.745   7.622  0.6206  2.5777  1.3491
  179SOPE   H8Y20458   4.398   3.657   7.743  0.9603 -1.4132 -0.7884
  179SOPE   C3920459   4.468   3.860   7.793 -0.2460 -0.0863  0.0617
  179SOPE   H9X20460   4.472   3.961   7.747 -0.5127  0.9628  2.1786
  179SOPE   H9Y20461   4.573   3.852   7.831 -0.0926  1.1073 -0.0697
  179SOPE  C31020462   4.372   3.870   7.912  0.2833  0.3468  0.1023
  179SOPE  H10X20463   4.273   3.909   7.882  0.6668  1.8772  0.7647
  179SOPE  H10Y20464   4.406   3.952   7.979 -2.4852  1.7481 -0.0778
  179SOPE  C31120465   4.363   3.742   8.000  0.3200 -0.1665 -0.1346
  179SOPE  H11X20466   4.461   3.691   8.002  0.1770 -0.4411 -0.0095
  179SOPE  H11Y20467   4.300   3.671   7.942  0.3384 -0.7226  0.5076
  179SOPE  C31220468   4.301   3.767   8.143 -0.6693 -0.6740 -0.0526
  179SOPE  H12X20469   4.258   3.671   8.176 -1.1716 -0.7190 -0.8103
  179SOPE  H12Y20470   4.212   3.830   8.121 -1.6391 -1.8159  0.5511
  179SOPE  C31320471   4.401   3.833   8.244  0.2308  0.5637  0.6806
  179SOPE  H13X20472   4.330   3.885   8.313 -1.7539 -0.2254 -0.6650
  179SOPE  H13Y20473   4.467   3.907   8.193 -0.1425  1.3309  1.2746
  179SOPE  C31420474   4.493   3.735   8.316 -0.2676 -0.5261  0.3628
  179SOPE  H14X20475   4.579   3.718   8.248  0.2183  0.6278  0.6621
  179SOPE  H14Y20476   4.443   3.643   8.352  2.2589 -1.6187  1.3587
  179SOPE  C31520477   4.552   3.786   8.451 -0.7812 -0.2574  0.4404
  179SOPE  H15X20478   4.598   3.884   8.428  0.3980 -1.0770 -0.8330
  179SOPE  H15Y20479   4.636   3.721   8.485 -0.3144  1.3696  2.6129
  179SOPE  C31620480   4.461   3.807   8.571 -0.5859  0.1626 -0.2063
  179SOPE  H16X20481   4.389   3.888   8.547  1.0749  1.8227  0.2197
  179SOPE  H16Y20482   4.509   3.852   8.660 -0.1100  0.0714 -0.4152
  179SOPE  C31720483   4.393   3.679   8.615 -0.2195  0.3952  0.4907
  179SOPE  H17X20484   4.404   3.656   8.723 -0.7036 -4.3538 -0.2209
  179SOPE  H17Y20485   4.429   3.592   8.555 -0.3644  1.5527 -1.3659
  179SOPE  C31820486   4.239   3.687   8.578  0.1168  0.2080 -0.6453
  179SOPE  H18X20487   4.184   3.750   8.651 -1.1017 -1.0768 -0.3929
  179SOPE  H18Y20488   4.195   3.590   8.610  1.3386  0.2454  1.2669
  179SOPE  H18Z20489   4.223   3.714   8.471  0.9249 -2.1826 -1.4430
  180SOPE     N20490   1.896   3.505   6.397 -0.5126 -0.7261 -0.0020
  180SOPE   HN120491   1.930   3.509   6.299  0.6791  2.0815  0.4408
  180SOPE   HN220492   1.810   3.564   6.398 -1.3123 -1.8353  1.2939
  180SOPE   HN320493   1.976   3.557   6.439 -0.7914 -0.7554  0.5800
  180SOPE   C1220494   1.881   3.367   6.461  0.6241 -0.8197  0.2390
  180SOPE  H12A20495   1.782   3.329   6.427 -0.2380  1.1489  0.4367
  180SOPE  H12B20496   1.863   3.382   6.569  0.3017  5.3243 -0.3219
  180SOPE   C1120497   1.992   3.269   6.429  0.5137 -0.2116  0.4587
  180SOPE  H11A20498   2.084   3.302   6.482  0.6006  0.3852 -0.0494
  180SOPE  H11B20499   2.030   3.286   6.327  1.0686 -1.2054  0.4876
  180SOPE     P20500   1.960   3.063   6.588 -0.2454  0.0765  0.1312
  180SOPE   O1320501   2.089   3.001   6.619 -0.0034 -0.3143 -0.1857
  180SOPE   O1420502   1.849   2.965   6.581 -0.0573  0.0902 -0.4578
  180SOPE   O1220503   1.963   3.131   6.443 -0.6297  0.1984  0.5492
  180SOPE   O1120504   1.930   3.181   6.691 -0.7740 -0.4926  0.7643
  180SOPE    C120505   2.036   3.255   6.756 -0.1018  0.0716  0.2632
  180SOPE    HA20506   2.018   3.364   6.746  0.3254  0.0281 -1.2396
  180SOPE    HB20507   2.136   3.239   6.710  0.7773  1.6812  1.4777
  180SOPE    C220508   2.046   3.219   6.907  0.2197  0.0866 -0.2135
  180SOPE    HS20509   2.136   3.273   6.943  0.5285  0.3834 -1.3948
  180SOPE   O2120510   2.050   3.078   6.921  0.0271  0.0425 -0.0488
  180SOPE   C2120511   2.157   3.010   6.887 -0.1228  0.1085  0.0656
  180SOPE   O2220512   2.261   3.061   6.840 -0.0405  0.0167  0.1811
  180SOPE   C2220513   2.150   2.863   6.924 -0.5141 -0.1036 -0.7241
  180SOPE   H2R20514   2.256   2.832   6.931 -1.3018 -2.8320  0.3147
  180SOPE   H2S20515   2.101   2.803   6.844  0.6201 -0.5373 -1.1060
  180SOPE    C320516   1.917   3.278   6.990 -0.0753  0.7693  0.4855
  180SOPE    HX20517   1.827   3.234   6.942 -1.2385  2.1243  1.3369
  180SOPE    HY20518   1.906   3.388   6.982 -3.9447  0.4241 -1.0061
  180SOPE   O3120519   1.910   3.230   7.127  0.0937 -0.3167 -0.4413
  180SOPE   C3120520   1.999   3.281   7.215 -1.0208  0.1803  0.7442
  180SOPE   O3220521   2.092   3.351   7.187  0.1474  0.2070 -0.2205
  180SOPE   C3220522   1.964   3.225   7.353 -0.6481  0.4224 -0.2487
  180SOPE   H2X20523   2.012   3.125   7.363  1.6091  1.6642  2.8350
  180SOPE   H2Y20524   1.855   3.205   7.358 -1.0931  2.7908  4.4702
  180SOPE   C2320525   2.072   2.836   7.053  0.3721 -0.3959  0.4433
  180SOPE   H3R20526   2.043   2.729   7.065 -0.9499 -0.1881 -0.6859
  180SOPE   H3S20527   1.982   2.901   7.049  1.3688  0.9620 -0.5918
  180SOPE   C2420528   2.156   2.873   7.171 -0.5965  0.2144 -0.5633
  180SOPE   H4R20529   2.255   2.823   7.180 -0.0494  1.5399  1.7013
  180SOPE   H4S20530   2.193   2.977   7.174 -0.1823  0.0916 -1.1854
  180SOPE   C2520531   2.099   2.838   7.313 -0.4378 -0.0397 -1.0856
  180SOPE   H5R20532   2.026   2.916   7.345  0.6856  0.0166  1.6380
  180SOPE   H5S20533   2.050   2.739   7.325  1.2241 -1.0135 -2.0420
  180SOPE   C2620534   2.197   2.860   7.428 -0.2127 -0.3303  0.0404
  180SOPE   H6R20535   2.271   2.778   7.415 -0.8901 -0.6569 -2.1109
  180SOPE   H6S20536   2.241   2.962   7.420 -2.1946  0.5096 -0.6886
  180SOPE   C2720537   2.135   2.848   7.568  0.0025 -0.0165 -0.0038
  180SOPE   H7R20538   2.057   2.927   7.577  1.0532  0.9438  1.0490
  180SOPE   H7S20539   2.087   2.748   7.565  0.6144 -0.3615  0.8987
  180SOPE   C2820540   2.245   2.858   7.682  0.8130 -0.5026  0.0154
  180SOPE   H8R20541   2.308   2.766   7.680  0.1823 -0.9268 -0.7303
  180SOPE   H8S20542   2.304   2.951   7.665 -0.2182  0.3889  1.1817
  180SOPE   C2920543   2.181   2.875   7.817  0.4133  0.2648 -1.0016
  180SOPE   H9120544   2.073   2.858   7.829  0.0217  0.2409 -3.8197
  180SOPE  C21020545   2.250   2.905   7.928 -0.3654 -0.2356 -0.7599
  180SOPE  H10120546   2.186   2.913   8.017 -0.9874 -2.2759 -0.9698
  180SOPE  C21120547   2.397   2.943   7.940  0.2673  0.3906  0.4241
  180SOPE  H11R20548   2.414   3.035   7.880  0.5498 -1.5175 -2.6142
  180SOPE  H11S20549   2.471   2.863   7.917 -1.7650 -1.4193 -0.1325
  180SOPE  C21220550   2.425   2.987   8.086 -0.1629  0.3095  0.9262
  180SOPE  H12R20551   2.533   3.012   8.085 -0.6887  2.8902  1.0208
  180SOPE  H12S20552   2.400   2.896   8.144 -0.7481  0.1063  0.3547
  180SOPE  C21320553   2.347   3.107   8.146  0.2939 -0.1542 -0.1719
  180SOPE  H13R20554   2.240   3.082   8.161  0.4113 -1.6044 -1.4502
  180SOPE  H13S20555   2.361   3.181   8.064  0.7464 -0.3511 -0.2749
  180SOPE  C21420556   2.412   3.153   8.276 -0.5202 -0.1004 -0.0172
  180SOPE  H14R20557   2.516   3.180   8.248 -0.8854  1.3881 -0.0141
  180SOPE  H14S20558   2.423   3.068   8.348  0.9943  0.3920  0.3822
  180SOPE  C21520559   2.349   3.268   8.358 -0.1511  0.4672 -0.2360
  180SOPE  H15R20560   2.241   3.242   8.364  0.2077 -0.9971  0.1897
  180SOPE  H15S20561   2.352   3.353   8.286  0.0442  0.9735  0.3594
  180SOPE  C21620562   2.427   3.304   8.492 -0.2452  0.5554 -0.2786
  180SOPE  H16R20563   2.507   3.369   8.451  1.3808  0.0941  1.9769
  180SOPE  H16S20564   2.469   3.214   8.542 -0.4849  1.2971  1.3203
  180SOPE  C21720565   2.332   3.380   8.590  0.6204  0.2199 -0.4714
  180SOPE  H17R20566   2.388   3.373   8.686 -1.2518  0.0093  0.6567
  180SOPE  H17S20567   2.243   3.314   8.595  3.2256 -3.5959 -0.5850
  180SOPE  C21820568   2.302   3.527   8.548 -0.1037 -0.9097 -0.5627
  180SOPE  H18R20569   2.396   3.582   8.527  1.4292 -2.0463  2.6971
  180SOPE  H18S20570   2.242   3.569   8.632  1.1725 -1.1229  0.4851
  180SOPE  H18T20571   2.235   3.531   8.459 -1.2915 -0.0061  0.3426
  180SOPE   C3320572   2.003   3.307   7.478 -0.6821  0.2813 -0.2228
  180SOPE   H3X20573   1.942   3.399   7.488 -0.4687  0.4463 -0.4229
  180SOPE   H3Y20574   2.107   3.345   7.471 -1.5810  3.0804  0.1990
  180SOPE   C3420575   2.003   3.216   7.604  0.6426  0.3735  1.2249
  180SOPE   H4X20576   2.088   3.145   7.604  0.5230  0.2232  1.7032
  180SOPE   H4Y20577   1.907   3.160   7.610  1.2950 -1.0225 -0.4692
  180SOPE   C3520578   2.002   3.303   7.732  0.7162  0.2440 -0.1114
  180SOPE   H5X20579   1.929   3.386   7.735  0.0870 -0.3132  0.9275
  180SOPE   H5Y20580   2.108   3.333   7.747  1.1912 -0.9285 -0.9515
  180SOPE   C3620581   1.972   3.217   7.858 -0.2959  0.6047  0.3413
  180SOPE   H6X20582   2.045   3.133   7.865 -2.3781 -1.1503  2.7095
  180SOPE   H6Y20583   1.872   3.176   7.835 -0.5425 -0.3183  2.7456
  180SOPE   C3720584   1.970   3.299   7.991 -0.5748  0.6672 -0.4156
  180SOPE   H7X20585   1.899   3.385   7.985 -1.2407  0.1897  0.4345
  180SOPE   H7Y20586   2.073   3.334   8.013 -0.5938  1.0506 -0.9067
  180SOPE   C3820587   1.925   3.203   8.104 -0.1431 -0.3215  0.0125
  180SOPE   H8X20588   2.000   3.121   8.098  1.7854  1.2084  1.6933
  180SOPE   H8Y20589   1.827   3.157   8.079 -1.1099  2.0548 -0.8587
  180SOPE   C3920590   1.929   3.252   8.250 -0.2573  0.3539 -0.0720
  180SOPE   H9X20591   1.897   3.358   8.257 -2.5752 -0.3603  0.9233
  180SOPE   H9Y20592   2.037   3.250   8.276 -0.6276 -2.1225  1.6411
  180SOPE  C31020593   1.848   3.164   8.348 -0.4974  0.1285  0.2104
  180SOPE  H10X20594   1.854   3.054   8.335 -3.0263  0.0193 -0.5194
  180SOPE  H10Y20595   1.739   3.172   8.333 -0.8599 -1.8382  1.3924
  180SOPE  C31120596   1.861   3.214   8.497  0.3183  0.1037  0.8939
  180SOPE  H11X20597   1.792   3.300   8.513  2.0985  1.5168  1.3250
  180SOPE  H11Y20598   1.960   3.262   8.514  0.6802  0.4383 -1.7257
  180SOPE  C31220599   1.846   3.104   8.601 -0.3285  0.6140 -0.0934
  180SOPE  H12X20600   1.922   3.135   8.677 -0.3388  5.5112 -1.7204
  180SOPE  H12Y20601   1.871   3.012   8.544 -1.6850 -0.5005  1.0228
  180SOPE  C31320602   1.695   3.086   8.641 -0.1794 -0.3069  0.4120
  180SOPE  H13X20603   1.620   3.080   8.560  0.2053  0.2192  0.0059
  180SOPE  H13Y20604   1.670   3.184   8.688 -0.6507  0.4975 -1.4245
  180SOPE  C31420605   1.666   2.971   8.732  0.3459  1.2298 -0.1698
  180SOPE  H14X20606   1.671   2.878   8.672 -1.5274  1.0928 -0.1445
  180SOPE  H14Y20607   1.561   2.977   8.766  0.6130 -1.8304  1.5099
  180SOPE  C31520608   1.762   2.955   8.856  0.3295  0.3141 -0.0310
  180SOPE  H15X20609   1.764   3.052   8.910 -0.3305  0.7422 -0.7571
  180SOPE  H15Y20610   1.860   2.937   8.808  1.0886  0.0488  1.5641
  180SOPE  C31620611   1.710   2.834   8.942  0.2351 -0.1975  0.0407
  180SOPE  H16X20612   1.599   2.840   8.946  0.2090 -0.8562  0.5557
  180SOPE  H16Y20613   1.746   2.840   9.047  0.4246 -0.2896 -0.0165
  180SOPE  C31720614   1.731   2.695   8.877 -0.2623  1.1570  0.0773
  180SOPE  H17X20615   1.842   2.692   8.869 -0.3237 -1.4697 -0.6365
  180SOPE  H17Y20616   1.685   2.692   8.776  1.1928  0.0295 -0.5966
  180SOPE  C31820617   1.685   2.576   8.957 -0.1100  0.3635  0.0620
  180SOPE  H18X20618   1.719   2.493   8.893  1.1948  2.3520 -1.9651
  180SOPE  H18Y20619   1.574   2.573   8.956 -0.0956 -2.3707 -0.1476
  180SOPE  H18Z20620   1.731   2.578   9.058  0.2039  1.0740 -0.0895
  181SOPE     N20621   3.641   0.900   6.296  0.2708 -0.4264  0.1893
  181SOPE   HN120622   3.586   0.968   6.353 -1.6881 -0.8464 -1.1026
  181SOPE   HN220623   3.740   0.930   6.293 -0.3882  1.8807 -0.5730
  181SOPE   HN320624   3.589   0.894   6.207 -0.4785 -0.3063  0.6094
  181SOPE   C1220625   3.644   0.766   6.364  0.3489 -0.3096  0.7341
  181SOPE  H12A20626   3.672   0.788   6.469 -0.0098  1.6984  0.4494
  181SOPE  H12B20627   3.724   0.705   6.317 -0.2457 -0.3528 -0.2529
  181SOPE   C1120628   3.507   0.696   6.367  0.4342  0.1022 -0.4852
  181SOPE  H11A20629   3.435   0.767   6.414  0.4621 -0.3449  0.2477
  181SOPE  H11B20630   3.515   0.612   6.439 -0.1310  2.3051  2.2936
  181SOPE     P20631   3.396   0.733   6.130  0.0756  0.3359  0.2722
  181SOPE   O1320632   3.323   0.659   6.026  0.5322  0.1327  0.0148
  181SOPE   O1420633   3.500   0.831   6.084  0.2965  0.0976  0.1550
  181SOPE   O1220634   3.471   0.641   6.236  0.2900  0.0065 -0.3991
  181SOPE   O1120635   3.299   0.824   6.222  0.0698 -0.4946  0.2202
  181SOPE    C120636   3.189   0.765   6.296 -0.1814 -0.0716  0.6580
  181SOPE    HA20637   3.206   0.669   6.348 -4.0977 -0.3325  1.8022
  181SOPE    HB20638   3.122   0.718   6.221  0.1950 -0.5573  0.6197
  181SOPE    C220639   3.125   0.870   6.395 -0.0792  0.9273  0.4417
  181SOPE    HS20640   3.084   0.957   6.340 -0.2338  1.0960  0.8236
  181SOPE   O2120641   3.225   0.905   6.495  1.2165 -0.2368  0.2347
  181SOPE   C2120642   3.217   1.021   6.548  0.3043  0.4344  0.8734
  181SOPE   O2220643   3.145   1.116   6.512  0.3560  0.2772 -0.2379
  181SOPE   C2220644   3.316   1.027   6.661  0.2016 -0.5299  0.0594
  181SOPE   H2R20645   3.373   1.121   6.648 -0.6303  0.1305  1.0374
  181SOPE   H2S20646   3.388   0.944   6.642  1.7235  0.9405 -0.7555
  181SOPE    C320647   2.996   0.818   6.463 -0.6327  0.0606  0.6264
  181SOPE    HX20648   3.028   0.733   6.526 -0.7185  0.4581  1.2170
  181SOPE    HY20649   2.921   0.787   6.388 -1.0314  0.5415  0.8163
  181SOPE   O3120650   2.954   0.927   6.544 -0.4316  0.6095 -0.2061
  181SOPE   C3120651   2.862   0.896   6.627  0.3201  0.1526 -0.3732
  181SOPE   O3220652   2.795   0.790   6.626  0.0024 -0.5144  0.5997
  181SOPE   C3220653   2.836   1.011   6.723 -0.0818  0.2607 -0.3493
  181SOPE   H2X20654   2.746   1.063   6.684 -0.7883 -0.9977 -0.4134
  181SOPE   H2Y20655   2.922   1.083   6.723  1.9829 -2.0007  1.6354
  181SOPE   C2320656   3.248   0.999   6.805  0.1140 -0.6516  0.2727
  181SOPE   H3R20657   3.258   0.889   6.815 -0.3449 -1.4164 -4.9112
  181SOPE   H3S20658   3.138   1.018   6.803  0.2576  0.1331 -1.5912
  181SOPE   C2420659   3.301   1.074   6.929  0.4864 -0.3859 -0.6035
  181SOPE   H4R20660   3.403   1.035   6.949  0.1894 -0.1044  1.8232
  181SOPE   H4S20661   3.319   1.182   6.912 -0.5902  0.0363  0.7018
  181SOPE   C2520662   3.215   1.077   7.054 -0.0973  0.4704  0.6813
  181SOPE   H5R20663   3.123   1.137   7.036 -1.5629 -2.1315 -1.2126
  181SOPE   H5S20664   3.177   0.974   7.075  1.8309 -0.7607 -1.3698
  181SOPE   C2620665   3.275   1.124   7.184 -0.0459 -0.4170 -0.4905
  181SOPE   H6R20666   3.372   1.078   7.211 -0.7182 -0.7564  1.4826
  181SOPE   H6S20667   3.291   1.234   7.178  0.5956 -0.4897 -0.1509
  181SOPE   C2720668   3.168   1.117   7.294 -0.1740  0.2680  0.0466
  181SOPE   H7R20669   3.081   1.174   7.256  1.1791  0.9408 -2.2457
  181SOPE   H7S20670   3.132   1.013   7.312  0.9871 -0.0292  0.8430
  181SOPE   C2820671   3.207   1.177   7.434  0.0307 -0.1520 -0.0292
  181SOPE   H8R20672   3.297   1.122   7.469  0.8337  1.0113 -0.2085
  181SOPE   H8S20673   3.240   1.281   7.414 -2.0441  0.2090 -2.0819
  181SOPE   C2920674   3.102   1.165   7.537 -0.1826 -0.3344  0.0156
  181SOPE   H9120675   3.016   1.103   7.510 -0.9027 -0.0437  1.5080
  181SOPE  C21020676   3.101   1.223   7.659 -0.5306 -0.4693  0.0562
  181SOPE  H10120677   3.013   1.216   7.725 -0.4307  2.9576  0.7469
  181SOPE  C21120678   3.204   1.319   7.717  0.1649  0.7071 -0.0296
  181SOPE  H11R20679   3.171   1.424   7.700 -0.4575  0.3753 -0.8933
  181SOPE  H11S20680   3.298   1.295   7.663  0.7540  0.7349  0.9669
  181SOPE  C21220681   3.245   1.287   7.864 -0.1516 -0.5997 -0.5542
  181SOPE  H12R20682   3.341   1.336   7.888 -0.5454 -0.3107  0.4830
  181SOPE  H12S20683   3.247   1.176   7.872 -2.7359 -0.6482  0.4860
  181SOPE  C21320684   3.137   1.330   7.968 -0.0457 -0.2611  0.0922
  181SOPE  H13R20685   3.038   1.290   7.937  0.8613 -2.7961  0.1707
  181SOPE  H13S20686   3.142   1.440   7.979  0.9581 -0.1776 -1.0291
  181SOPE  C21420687   3.160   1.267   8.105 -0.1937 -0.2778  0.0129
  181SOPE  H14R20688   3.259   1.298   8.145 -0.1161  0.1698 -0.5174
  181SOPE  H14S20689   3.174   1.158   8.090 -0.1774 -0.2505 -0.1775
  181SOPE  C21520690   3.054   1.298   8.209  0.2234 -0.4248 -0.4084
  181SOPE  H15R20691   2.961   1.259   8.163  1.8784 -2.9235 -1.8931
  181SOPE  H15S20692   3.031   1.407   8.213  1.1473 -0.1611 -1.6999
  181SOPE  C21620693   3.074   1.228   8.345  0.4447 -0.1756 -0.1310
  181SOPE  H16R20694   3.080   1.122   8.312 -0.9054 -0.8275  1.5842
  181SOPE  H16S20695   2.982   1.240   8.407  0.0781 -1.2689 -0.4351
  181SOPE  C21720696   3.202   1.272   8.423  0.5239  0.3967  0.5484
  181SOPE  H17R20697   3.218   1.374   8.464  0.7986  1.2142 -1.4640
  181SOPE  H17S20698   3.283   1.262   8.348  0.1692  0.2589  0.1742
  181SOPE  C21820699   3.238   1.175   8.540 -0.2838 -0.0909 -0.4142
  181SOPE  H18R20700   3.337   1.185   8.588 -0.0905  1.0892 -1.0212
  181SOPE  H18S20701   3.235   1.076   8.490 -3.9648  0.3686 -1.3987
  181SOPE  H18T20702   3.158   1.180   8.617 -1.0059  2.7825 -1.2401
  181SOPE   C3320703   2.812   0.955   6.860 -0.0419  0.1330 -0.2817
  181SOPE   H3X20704   2.894   0.888   6.893  0.0957 -1.1779 -2.9734
  181SOPE   H3Y20705   2.718   0.896   6.855  1.0745 -1.8327  0.4796
  181SOPE   C3420706   2.787   1.068   6.957  0.3764  0.4373  0.4708
  181SOPE   H4X20707   2.693   1.120   6.931  1.3177  1.6209 -0.7307
  181SOPE   H4Y20708   2.869   1.142   6.946  0.4400  0.1289 -1.6126
  181SOPE   C3520709   2.786   1.013   7.103  0.6241  0.3530 -0.5240
  181SOPE   H5X20710   2.890   0.984   7.128  0.4687  0.1826 -0.0614
  181SOPE   H5Y20711   2.724   0.921   7.106  1.0795  0.0439 -0.4890
  181SOPE   C3620712   2.742   1.118   7.204 -0.2949  0.5615 -0.0773
  181SOPE   H6X20713   2.638   1.146   7.174 -0.2065  0.3965 -0.5351
  181SOPE   H6Y20714   2.802   1.211   7.191 -0.4249  0.4707 -1.4814
  181SOPE   C3720715   2.732   1.070   7.349  0.1827 -0.1598 -0.7296
  181SOPE   H7X20716   2.833   1.039   7.384  0.4326 -1.6334 -2.6297
  181SOPE   H7Y20717   2.677   0.974   7.361 -3.2802  1.7898  0.2163
  181SOPE   C3820718   2.673   1.185   7.447  0.1131 -0.2482  0.9718
  181SOPE   H8X20719   2.569   1.205   7.415  0.5620  0.3883 -0.1367
  181SOPE   H8Y20720   2.733   1.278   7.444 -0.5322  0.1697  0.8462
  181SOPE   C3920721   2.686   1.133   7.590 -0.3360 -0.2074 -0.2685
  181SOPE   H9X20722   2.789   1.120   7.630 -0.4203  0.8699  0.3481
  181SOPE   H9Y20723   2.638   1.033   7.587 -0.9196  0.0945 -1.1779
  181SOPE  C31020724   2.611   1.215   7.701  0.1045 -0.7519 -0.1647
  181SOPE  H10X20725   2.505   1.234   7.673 -0.5520 -2.1387  1.2239
  181SOPE  H10Y20726   2.657   1.314   7.722 -0.2096  0.0272 -2.7323
  181SOPE  C31120727   2.613   1.153   7.838  0.1882  0.7250  0.0374
  181SOPE  H11X20728   2.723   1.141   7.850  0.4038 -1.7966 -3.1928
  181SOPE  H11Y20729   2.562   1.056   7.823  2.1840 -0.2686 -0.6069
  181SOPE  C31220730   2.563   1.227   7.960  0.2391 -0.2672 -0.0723
  181SOPE  H12X20731   2.460   1.263   7.939  0.1271  0.8148  2.1158
  181SOPE  H12Y20732   2.614   1.324   7.973 -2.0522  1.1289 -0.9104
  181SOPE  C31320733   2.551   1.156   8.088 -0.1258 -0.2777  0.2804
  181SOPE  H13X20734   2.491   1.063   8.087 -1.1397  0.3054  2.0768
  181SOPE  H13Y20735   2.492   1.229   8.147  0.4923  0.9664 -0.6209
  181SOPE  C31420736   2.693   1.144   8.149  0.1830  0.2819 -0.1199
  181SOPE  H14X20737   2.719   1.249   8.174 -0.3663  0.5135 -0.4928
  181SOPE  H14Y20738   2.764   1.094   8.079 -0.3460 -1.2790  0.3988
  181SOPE  C31520739   2.698   1.071   8.279  0.2519 -0.2152  0.2378
  181SOPE  H15X20740   2.804   1.043   8.290  0.4663  0.6183  0.3589
  181SOPE  H15Y20741   2.635   0.979   8.275 -1.3009  0.7874  0.7348
  181SOPE  C31620742   2.644   1.156   8.396  1.0780  0.2091 -0.2342
  181SOPE  H16X20743   2.541   1.196   8.385  0.7055 -0.6977 -0.1285
  181SOPE  H16Y20744   2.707   1.247   8.405  0.4303  0.7812 -1.1879
  181SOPE  C31720745   2.660   1.078   8.527 -0.0636 -0.3523  0.7052
  181SOPE  H17X20746   2.768   1.063   8.545  0.2097 -1.0829 -1.2394
  181SOPE  H17Y20747   2.611   0.979   8.513  1.6786 -1.0393 -0.9939
  181SOPE  C31820748   2.609   1.150   8.647  0.4006 -0.0681 -1.0147
  181SOPE  H18X20749   2.620   1.077   8.730 -2.5046 -0.3016 -0.7502
  181SOPE  H18Y20750   2.502   1.168   8.622 -0.9861 -4.2577  1.0299
  181SOPE  H18Z20751   2.668   1.242   8.669  1.8964 -1.6288  2.0937
  182SOPE     N20752   2.112   1.873   6.363 -0.3243 -0.0498  0.2367
  182SOPE   HN120753   2.081   1.793   6.304 -1.0218  0.6739 -0.4018
  182SOPE   HN220754   2.204   1.849   6.405 -0.6732  0.5864  1.4227
  182SOPE   HN320755   2.050   1.872   6.447 -0.4251  3.1057  0.3174
  182SOPE   C1220756   2.095   2.002   6.300 -0.3176 -0.1722 -0.5299
  182SOPE  H12A20757   2.000   2.010   6.242  0.0957  2.1152 -0.9916
  182SOPE  H12B20758   2.170   2.017   6.220  0.3303  0.9205  0.2573
  182SOPE   C1120759   2.120   2.122   6.387 -0.2014  0.3914  0.1794
  182SOPE  H11A20760   2.041   2.138   6.463 -0.6750 -0.8856 -0.0249
  182SOPE  H11B20761   2.116   2.200   6.307 -0.3370 -1.2548 -1.5022
  182SOPE     P20762   2.364   2.210   6.439  0.4611 -0.1613  0.1163
  182SOPE   O1320763   2.305   2.342   6.406  0.2643  0.2551  0.6243
  182SOPE   O1420764   2.470   2.162   6.353  0.2858 -0.6512  0.6051
  182SOPE   O1220765   2.252   2.098   6.449  0.8379  0.4561  0.0689
  182SOPE   O1120766   2.422   2.228   6.579  0.4864  0.0117  0.0919
  182SOPE    C120767   2.417   2.125   6.681 -0.0169  0.4883  0.3112
  182SOPE    HA20768   2.470   2.036   6.644 -1.7639 -0.7272  0.5933
  182SOPE    HB20769   2.319   2.076   6.697  0.5377 -0.9102 -0.5028
  182SOPE    C220770   2.489   2.156   6.818 -0.6078 -0.5188 -0.3502
  182SOPE    HS20771   2.470   2.079   6.896 -1.1763  0.6106  0.6634
  182SOPE   O2120772   2.455   2.289   6.857  1.1056 -0.2807  0.0637
  182SOPE   C2120773   2.329   2.297   6.895 -0.4442  0.7552  0.8632
  182SOPE   O2220774   2.253   2.203   6.906  0.0050 -0.3039 -0.0589
  182SOPE   C2220775   2.307   2.444   6.930  0.7432  0.1484  0.0289
  182SOPE   H2R20776   2.233   2.482   6.857  1.0149  1.3992  0.3880
  182SOPE   H2S20777   2.401   2.495   6.903  2.2446 -2.0770  0.7686
  182SOPE    C320778   2.640   2.165   6.788  0.4816  0.9199 -0.6340
  182SOPE    HX20779   2.654   2.234   6.703 -0.7732  2.5832  0.4484
  182SOPE    HY20780   2.664   2.059   6.763 -1.5993 -0.2880  1.9691
  182SOPE   O3120781   2.722   2.201   6.904  0.3366  0.1864 -0.4773
  182SOPE   C3120782   2.758   2.326   6.922  0.1657  0.1254  0.0313
  182SOPE   O3220783   2.738   2.416   6.845  0.1794  0.3705  0.3141
  182SOPE   C3220784   2.850   2.322   7.049 -0.1116 -0.0295 -0.7152
  182SOPE   H2X20785   2.955   2.325   7.012 -0.0008  0.2107 -0.3892
  182SOPE   H2Y20786   2.830   2.244   7.126 -3.5043  0.7943 -0.5966
  182SOPE   C2320787   2.277   2.464   7.085 -0.3683  0.4558  0.3510
  182SOPE   H3R20788   2.199   2.389   7.113 -0.1627 -1.4513 -3.4651
  182SOPE   H3S20789   2.232   2.563   7.109  1.3452  0.6032  3.5154
  182SOPE   C2420790   2.406   2.440   7.168 -0.1282  0.1295  1.1793
  182SOPE   H4R20791   2.466   2.365   7.113 -3.0763 -1.1934 -0.4080
  182SOPE   H4S20792   2.462   2.536   7.173 -3.2793  2.0556  3.8922
  182SOPE   C2520793   2.390   2.411   7.311  0.3527 -0.3261 -0.2147
  182SOPE   H5R20794   2.320   2.487   7.353 -0.5508 -0.8894 -0.6794
  182SOPE   H5S20795   2.346   2.309   7.314 -4.0226  1.3593  1.4851
  182SOPE   C2620796   2.518   2.411   7.392 -0.4335  0.1825 -0.2969
  182SOPE   H6R20797   2.587   2.331   7.358  0.6508  0.5942  0.8478
  182SOPE   H6S20798   2.570   2.510   7.391  1.1010 -0.5401  1.5717
  182SOPE   C2720799   2.480   2.387   7.550  0.0642  0.2058  0.1195
  182SOPE   H7R20800   2.424   2.477   7.582  3.3473  2.5901 -0.3268
  182SOPE   H7S20801   2.413   2.298   7.553 -0.4239  0.5938  0.7846
  182SOPE   C2820802   2.601   2.378   7.639 -0.2342  0.2631 -0.6452
  182SOPE   H8R20803   2.577   2.353   7.744  2.1140 -2.3450 -0.6220
  182SOPE   H8S20804   2.674   2.301   7.606  0.4383  0.3472  0.5958
  182SOPE   C2920805   2.670   2.510   7.658 -0.6764  0.7401 -0.2200
  182SOPE   H9120806   2.687   2.556   7.560 -0.1668 -1.1559 -1.0803
  182SOPE  C21020807   2.689   2.586   7.771  0.5271  0.3395 -0.0382
  182SOPE  H10120808   2.747   2.679   7.768  0.6581  0.3080  0.9809
  182SOPE  C21120809   2.645   2.563   7.911  0.1253  0.0100 -0.8184
  182SOPE  H11R20810   2.632   2.456   7.935  0.7046 -0.5622 -2.8652
  182SOPE  H11S20811   2.543   2.603   7.929  0.5881 -0.1171  2.7604
  182SOPE  C21220812   2.726   2.617   8.035 -0.0264  0.7355 -0.5615
  182SOPE  H12R20813   2.738   2.727   8.023 -2.9553  0.9605 -2.3348
  182SOPE  H12S20814   2.825   2.567   8.044 -0.5142 -0.1970 -0.2323
  182SOPE  C21320815   2.631   2.602   8.163  0.0749 -0.2998 -0.1344
  182SOPE  H13R20816   2.623   2.493   8.184 -0.2047 -0.1628  0.5060
  182SOPE  H13S20817   2.540   2.663   8.145 -0.9268 -1.6474  0.2317
  182SOPE  C21420818   2.710   2.658   8.288  0.2613 -0.0725  0.2022
  182SOPE  H14R20819   2.807   2.603   8.283 -0.3584 -1.1234 -0.7793
  182SOPE  H14S20820   2.661   2.636   8.385  1.1036 -1.9354  0.2548
  182SOPE  C21520821   2.718   2.811   8.295 -0.4113  0.0043 -0.5899
  182SOPE  H15R20822   2.613   2.847   8.302 -1.2763 -2.5465  1.3516
  182SOPE  H15S20823   2.769   2.844   8.203 -0.3559  0.5535 -0.3635
  182SOPE  C21620824   2.776   2.869   8.421  0.0964  0.2842  0.4698
  182SOPE  H16R20825   2.886   2.874   8.409  0.0308  0.7760  0.0336
  182SOPE  H16S20826   2.738   2.800   8.499 -1.5731 -1.6342 -1.8853
  182SOPE  C21720827   2.719   3.010   8.454  0.2226 -0.4240  0.5772
  182SOPE  H17R20828   2.614   3.011   8.489  0.5660  0.5320  1.6656
  182SOPE  H17S20829   2.731   3.073   8.364 -1.2563  0.2244  0.8073
  182SOPE  C21820830   2.813   3.084   8.554  0.0140  0.5718 -0.0653
  182SOPE  H18R20831   2.800   3.045   8.657 -1.2912 -0.7176 -0.6892
  182SOPE  H18S20832   2.791   3.193   8.555  2.5230  1.1983 -2.5117
  182SOPE  H18T20833   2.920   3.058   8.538  0.0127 -0.4218  1.3692
  182SOPE   C3320834   2.825   2.457   7.126  0.2253 -0.0437  0.4011
  182SOPE   H3X20835   2.715   2.470   7.141  0.4685  1.8121  0.7719
  182SOPE   H3Y20836   2.863   2.535   7.057 -1.7289  0.5437 -0.0918
  182SOPE   C3420837   2.900   2.446   7.254  0.4673  0.4616 -0.0029
  182SOPE   H4X20838   3.001   2.405   7.232  0.0888  0.4262 -1.7707
  182SOPE   H4Y20839   2.845   2.375   7.319 -0.8076  2.5145  1.2878
  182SOPE   C3520840   2.920   2.572   7.339  0.2955  0.3742  0.1053
  182SOPE   H5X20841   2.823   2.598   7.385 -0.5410 -2.7076  0.2809
  182SOPE   H5Y20842   2.947   2.663   7.280  0.0038 -0.8010 -1.9307
  182SOPE   C3620843   3.024   2.558   7.451 -0.2253  1.0198  0.2905
  182SOPE   H6X20844   3.126   2.549   7.408  0.1298 -3.3362  1.5449
  182SOPE   H6Y20845   3.015   2.457   7.495  1.2890 -0.1113 -1.7982
  182SOPE   C3720846   3.019   2.665   7.559  0.0080  0.4666 -0.0057
  182SOPE   H7X20847   2.922   2.652   7.611 -0.1761  0.4035 -0.3634
  182SOPE   H7Y20848   3.021   2.764   7.508 -0.9448  0.9700  0.9018
  182SOPE   C3820849   3.146   2.657   7.646 -0.0645  0.0446  0.5781
  182SOPE   H8X20850   3.220   2.708   7.581 -2.2434  2.4562 -0.2325
  182SOPE   H8Y20851   3.172   2.550   7.661  0.7026  0.1271 -0.0912
  182SOPE   C3920852   3.141   2.729   7.775  0.6995  0.0653  0.0153
  182SOPE   H9X20853   3.103   2.833   7.779 -0.2899 -0.3210  2.3510
  182SOPE   H9Y20854   3.245   2.734   7.813  0.5324  2.1481  0.3186
  182SOPE  C31020855   3.071   2.648   7.885  0.3375  0.1325 -0.3946
  182SOPE  H10X20856   3.109   2.544   7.885 -0.5694 -0.2104  0.3587
  182SOPE  H10Y20857   2.963   2.651   7.860 -0.3013 -0.8330  1.9450
  182SOPE  C31120858   3.097   2.710   8.021 -0.3006  0.2774  0.1905
  182SOPE  H11X20859   3.208   2.703   8.027 -0.1813 -0.8557 -1.9934
  182SOPE  H11Y20860   3.042   2.667   8.107 -1.2934  0.6860 -0.2255
  182SOPE  C31220861   3.048   2.851   8.022  0.1806 -0.8283  0.1120
  182SOPE  H12X20862   2.942   2.841   7.993 -0.2223  0.1522  1.1815
  182SOPE  H12Y20863   3.102   2.924   7.957  0.2325  0.0977  1.1687
  182SOPE  C31320864   3.044   2.922   8.160  0.5952  0.1586  0.8257
  182SOPE  H13X20865   2.989   2.852   8.227 -1.3150 -2.0921 -2.7969
  182SOPE  H13Y20866   2.992   3.018   8.141  1.9382  0.8157  0.4268
  182SOPE  C31420867   3.179   2.948   8.215  1.0347 -0.0872 -0.1633
  182SOPE  H14X20868   3.232   3.010   8.140 -1.7133 -0.1567 -2.2857
  182SOPE  H14Y20869   3.231   2.850   8.224  0.7339 -0.1596  1.1316
  182SOPE  C31520870   3.183   3.025   8.350  0.0637  0.0627  0.5791
  182SOPE  H15X20871   3.119   2.965   8.418 -0.5906  0.6420  0.4882
  182SOPE  H15Y20872   3.138   3.126   8.339 -0.8685 -0.1290  2.3518
  182SOPE  C31620873   3.323   3.032   8.407 -0.1434 -0.5382  0.1320
  182SOPE  H16X20874   3.310   3.085   8.504 -1.2199 -0.3236 -0.1230
  182SOPE  H16Y20875   3.387   3.089   8.336 -3.9771  0.9644 -2.4396
  182SOPE  C31720876   3.372   2.894   8.441  0.1187 -0.1678  0.1590
  182SOPE  H17X20877   3.378   2.828   8.352  0.9487 -0.8063  0.6629
  182SOPE  H17Y20878   3.303   2.838   8.508 -1.2150  1.0910 -0.1389
  182SOPE  C31820879   3.508   2.901   8.519  0.1569  0.0098  0.3623
  182SOPE  H18X20880   3.513   2.807   8.578 -0.2512  0.3803  1.0028
  182SOPE  H18Y20881   3.518   2.987   8.589 -0.9293 -1.0612  1.9086
  182SOPE  H18Z20882   3.592   2.907   8.446 -0.4550  1.9705 -0.2647
  183SOPE     N20883   4.546   0.788   6.584  0.2344 -0.1783 -0.1848
  183SOPE   HN120884   4.493   0.750   6.665 -2.0856  0.4467 -1.3242
  183SOPE   HN220885   4.558   0.891   6.591 -2.4025  0.2183 -0.7341
  183SOPE   HN320886   4.475   0.777   6.509  0.4775  0.7713 -0.5797
  183SOPE   C1220887   4.666   0.700   6.559  0.2700  0.2945  0.8016
  183SOPE  H12A20888   4.678   0.683   6.450 -0.3707 -2.7171  1.1349
  183SOPE  H12B20889   4.645   0.605   6.611  0.8228  0.2487  0.9403
  183SOPE   C1120890   4.785   0.759   6.631 -0.1224  0.1414  0.1228
  183SOPE  H11A20891   4.866   0.687   6.609  0.7279  0.3260  2.3207
  183SOPE  H11B20892   4.776   0.746   6.741 -3.1471 -0.4099 -0.0848
  183SOPE     P20893   4.943   0.939   6.543 -0.3430 -0.2980  0.1557
  183SOPE   O1320894   4.952   1.091   6.552  0.0499  1.0593  0.0070
  183SOPE   O1420895   4.968   0.871   6.413  0.0465 -0.1384 -0.2752
  183SOPE   O1220896   4.811   0.894   6.593  0.1859 -0.1617 -0.1734
  183SOPE   O1120897   5.048   0.877   6.654 -0.5033 -0.0756  0.5371
  183SOPE    C120898   5.186   0.916   6.659  0.2701 -0.2824 -0.4422
  183SOPE    HA20899   5.184   1.018   6.701 -2.0262 -0.1045 -0.8411
  183SOPE    HB20900   5.229   0.905   6.557  1.4650 -1.9111  0.2019
  183SOPE    C220901   5.272   0.827   6.757  0.7751 -0.4861  0.5884
  183SOPE    HS20902   5.278   0.725   6.713 -1.6943 -0.0025 -1.0734
  183SOPE   O2120903   5.215   0.827   6.889 -0.2272 -0.1381  0.0318
  183SOPE   C2120904   5.159   0.713   6.920  0.6110  0.1898 -0.4902
  183SOPE   O2220905   5.184   0.609   6.864 -0.0517 -0.0644 -0.4383
  183SOPE   C2220906   5.077   0.740   7.047  1.1086  0.3521 -0.2217
  183SOPE   H2R20907   5.067   0.644   7.102  1.2498  1.1636  1.2782
  183SOPE   H2S20908   4.982   0.795   7.028  0.9897  0.6557  1.1923
  183SOPE    C320909   5.417   0.877   6.773 -0.1794  0.0085 -0.4052
  183SOPE    HX20910   5.421   0.981   6.812  3.9315 -0.2221  0.3126
  183SOPE    HY20911   5.462   0.873   6.671  2.2364  2.4897  0.4465
  183SOPE   O3120912   5.489   0.789   6.865 -0.0703 -0.1303  0.5516
  183SOPE   C3120913   5.528   0.668   6.820 -0.0163 -0.5986  0.1378
  183SOPE   O3220914   5.516   0.627   6.708 -0.1203  0.7877  0.6185
  183SOPE   C3220915   5.577   0.583   6.933  0.4326 -0.6767 -0.1013
  183SOPE   H2X20916   5.685   0.609   6.939  0.4389 -0.7752  0.2456
  183SOPE   H2Y20917   5.562   0.482   6.889  1.0022 -1.2812  1.0421
  183SOPE   C2320918   5.156   0.838   7.143 -0.1110  0.9824  0.0313
  183SOPE   H3R20919   5.163   0.935   7.089  0.1078  1.1316  0.3249
  183SOPE   H3S20920   5.251   0.781   7.158 -1.2731 -0.9017  0.5125
  183SOPE   C2420921   5.096   0.872   7.279 -0.3125  0.0319 -0.6340
  183SOPE   H4R20922   5.152   0.958   7.322  0.8740 -0.7324 -0.5960
  183SOPE   H4S20923   4.991   0.906   7.265 -0.5280 -1.2321 -2.5741
  183SOPE   C2520924   5.113   0.752   7.379  0.3918 -0.5030  0.1515
  183SOPE   H5R20925   5.039   0.672   7.357 -3.2138  2.7734 -0.8751
  183SOPE   H5S20926   5.220   0.723   7.380  1.1492  2.0249  0.0838
  183SOPE   C2620927   5.083   0.798   7.517 -0.1491  0.4424  0.2670
  183SOPE   H6R20928   5.144   0.882   7.558 -0.0234 -0.2376  1.5250
  183SOPE   H6S20929   4.975   0.826   7.509  0.0882  0.8928 -1.6815
  183SOPE   C2720930   5.088   0.690   7.622 -0.4222  0.2613  0.3174
  183SOPE   H7R20931   5.008   0.619   7.594 -1.5475  2.0252 -1.1354
  183SOPE   H7S20932   5.184   0.634   7.619 -2.0862 -2.8123  1.0403
  183SOPE   C2820933   5.066   0.746   7.770  0.0062  0.6837 -0.1561
  183SOPE   H8R20934   5.120   0.841   7.788 -1.4994  1.0637  3.1944
  183SOPE   H8S20935   4.960   0.777   7.781  0.2607  2.1510 -1.4596
  183SOPE   C2920936   5.103   0.646   7.874  0.3942  0.1252 -0.2958
  183SOPE   H9120937   5.201   0.606   7.844 -0.2289  0.7196 -3.5765
  183SOPE  C21020938   5.037   0.605   7.985 -0.8662 -0.3868 -0.3322
  183SOPE  H10120939   5.081   0.525   8.047 -0.5226 -0.6483 -0.9016
  183SOPE  C21120940   4.903   0.646   8.034 -0.3263  0.0184 -0.2150
  183SOPE  H11R20941   4.838   0.562   8.002  0.9016 -0.2193 -2.2405
  183SOPE  H11S20942   4.869   0.742   7.988  0.4856  0.7459  0.6599
  183SOPE  C21220943   4.904   0.668   8.185 -0.2790 -0.0568 -0.3897
  183SOPE  H12R20944   4.799   0.694   8.209 -0.8899 -1.7620 -1.1232
  183SOPE  H12S20945   4.980   0.746   8.210  1.3936 -1.0673 -2.0598
  183SOPE  C21320946   4.919   0.540   8.269  0.0939 -0.2197 -0.0997
  183SOPE  H13R20947   5.007   0.480   8.237  0.3534  1.7720 -3.6331
  183SOPE  H13S20948   4.829   0.477   8.250  0.5769 -0.4205 -1.9706
  183SOPE  C21420949   4.936   0.576   8.418 -0.7987  0.0834 -0.9117
  183SOPE  H14R20950   5.036   0.619   8.435 -1.0491  0.6256 -0.7890
  183SOPE  H14S20951   4.924   0.490   8.488 -0.3207  0.6361 -0.1370
  183SOPE  C21520952   4.831   0.671   8.471  1.0198 -0.0482  0.1146
  183SOPE  H15R20953   4.727   0.637   8.454  1.2297 -0.7321  0.1734
  183SOPE  H15S20954   4.848   0.765   8.414  0.6108  1.0292  1.7027
  183SOPE  C21620955   4.859   0.721   8.620  0.1224  0.6417 -0.1612
  183SOPE  H16R20956   4.970   0.725   8.623  0.1527 -0.2923  0.2563
  183SOPE  H16S20957   4.822   0.639   8.685  0.5238 -0.8675 -1.7423
  183SOPE  C21720958   4.797   0.850   8.662  0.1146 -0.1372  0.8221
  183SOPE  H17R20959   4.686   0.852   8.653  0.0968  1.2004  1.0251
  183SOPE  H17S20960   4.839   0.931   8.597 -1.8154 -0.2601 -0.6886
  183SOPE  C21820961   4.840   0.888   8.808 -0.1664 -0.1792 -0.0359
  183SOPE  H18R20962   4.778   0.827   8.878 -0.8178  0.1962 -0.2786
  183SOPE  H18S20963   4.820   0.994   8.834  4.0058  0.3593  1.7953
  183SOPE  H18T20964   4.950   0.871   8.813  0.0881  0.9695 -1.2424
  183SOPE   C3320965   5.504   0.613   7.065  0.5938 -0.2465  0.0631
  183SOPE   H3X20966   5.395   0.590   7.059  0.4783  0.0977  0.7138
  183SOPE   H3Y20967   5.508   0.721   7.093  3.4031  0.2265 -1.7884
  183SOPE   C3420968   5.568   0.527   7.172  0.2058  0.6265  0.2918
  183SOPE   H4X20969   5.678   0.544   7.167  0.1040  1.6117  1.1023
  183SOPE   H4Y20970   5.549   0.420   7.150  1.7454 -0.1930  2.5764
  183SOPE   C3520971   5.520   0.572   7.314 -0.0372  0.5568 -0.1294
  183SOPE   H5X20972   5.410   0.563   7.309 -0.0100  0.5754 -0.9561
  183SOPE   H5Y20973   5.545   0.680   7.319 -1.4094  0.8281  2.3966
  183SOPE   C3620974   5.573   0.496   7.437 -0.1652 -0.7577  0.2389
  183SOPE   H6X20975   5.682   0.491   7.420  0.2143  1.1773  1.8226
  183SOPE   H6Y20976   5.537   0.391   7.423  0.8169 -1.1534  0.6157
  183SOPE   C3720977   5.544   0.544   7.579 -0.4072 -0.7890  0.8461
  183SOPE   H7X20978   5.433   0.548   7.590 -0.6322  2.2041 -1.3492
  183SOPE   H7Y20979   5.576   0.650   7.582  2.7938 -1.6423  0.3430
  183SOPE   C3820980   5.626   0.467   7.685 -1.0105 -0.5161  0.2892
  183SOPE   H8X20981   5.734   0.457   7.660 -1.3002 -2.9404 -0.2298
  183SOPE   H8Y20982   5.586   0.364   7.672  2.1016 -1.7090 -0.7125
  183SOPE   C3920983   5.598   0.494   7.833 -0.4725 -1.0115  0.1006
  183SOPE   H9X20984   5.589   0.600   7.865 -1.3625 -2.3240  5.0160
  183SOPE   H9Y20985   5.688   0.454   7.884  0.8007  0.7311 -0.6742
  183SOPE  C31020986   5.480   0.411   7.891 -0.1824  0.3366 -0.3062
  183SOPE  H10X20987   5.486   0.307   7.851  0.0926  0.9369 -1.9156
  183SOPE  H10Y20988   5.387   0.458   7.850 -0.2391 -0.7566 -1.4949
  183SOPE  C31120989   5.487   0.417   8.046 -0.0125 -0.4279  1.0322
  183SOPE  H11X20990   5.467   0.519   8.086  0.4124  0.2929 -0.5351
  183SOPE  H11Y20991   5.588   0.389   8.082  1.9499  4.6414  0.2362
  183SOPE  C31220992   5.370   0.329   8.097  0.3079 -0.0250  1.0976
  183SOPE  H12X20993   5.372   0.234   8.039 -1.4174 -0.5434  1.8342
  183SOPE  H12Y20994   5.269   0.370   8.077  0.9752  0.8648 -0.6471
  183SOPE  C31320995   5.391   0.297   8.249  0.2316  0.8900  0.4295
  183SOPE  H13X20996   5.489   0.247   8.267 -0.2471  0.0793  0.8395
  183SOPE  H13Y20997   5.324   0.213   8.278 -1.0004  1.3376 -1.0108
  183SOPE  C31420998   5.358   0.409   8.339 -0.3438  0.3822  0.2062
  183SOPE  H14X20999   5.269   0.459   8.295  0.6693  0.4267 -1.8863
  183SOPE  H14Y21000   5.444   0.479   8.348  0.2678 -0.2427 -0.6620
  183SOPE  C31521001   5.333   0.359   8.482  0.0593 -0.0104 -0.1904
  183SOPE  H15X21002   5.432   0.322   8.515  1.3302  1.1496 -2.5238
  183SOPE  H15Y21003   5.259   0.277   8.473 -3.3695  2.7903  0.0495
  183SOPE  C31621004   5.279   0.470   8.574  0.1783  1.0342  0.1798
  183SOPE  H16X21005   5.175   0.481   8.536 -0.0833 -2.4377 -0.4639
  183SOPE  H16Y21006   5.344   0.558   8.554 -1.0254  1.6502 -1.1907
  183SOPE  C31721007   5.293   0.447   8.728 -0.2585  0.2226  0.1678
  183SOPE  H17X21008   5.396   0.422   8.761 -0.5067  0.7502  1.3859
  183SOPE  H17Y21009   5.228   0.361   8.754 -1.6841  1.3281  0.3880
  183SOPE  C31821010   5.256   0.573   8.812 -0.0852  0.4825 -0.4330
  183SOPE  H18X21011   5.256   0.554   8.922  0.2440  1.0706 -0.3257
  183SOPE  H18Y21012   5.151   0.588   8.779 -0.6620 -1.0335  0.6138
  183SOPE  H18Z21013   5.334   0.646   8.779  0.7859 -0.7915 -1.2720
  184SOPE     N21014   4.872   1.342   6.550  0.2437  0.2216 -0.5489
  184SOPE   HN121015   4.943   1.383   6.614 -0.8105 -0.2274  0.9627
  184SOPE   HN221016   4.779   1.350   6.596 -0.8292 -2.9663 -1.8752
  184SOPE   HN321017   4.892   1.240   6.553  0.8630  0.3466 -0.1237
  184SOPE   C1221018   4.864   1.388   6.410  0.3497 -0.3315 -0.1832
  184SOPE  H12A21019   4.961   1.373   6.359 -0.5461  0.6508 -2.2847
  184SOPE  H12B21020   4.845   1.497   6.415 -0.8201 -0.4506 -1.3553
  184SOPE   C1121021   4.757   1.305   6.338 -0.2824 -0.1177 -0.2008
  184SOPE  H11A21022   4.784   1.203   6.302  0.5920  0.0588 -0.0646
  184SOPE  H11B21023   4.741   1.361   6.243 -2.1280 -1.1321 -0.5472
  184SOPE     P21024   4.520   1.189   6.354  0.2833 -0.1342  0.2159
  184SOPE   O1321025   4.529   1.062   6.424 -0.4922 -0.3974  0.2617
  184SOPE   O1421026   4.525   1.184   6.204  0.5189 -0.1960 -0.0621
  184SOPE   O1221027   4.631   1.295   6.406  0.5418  0.4184  0.0253
  184SOPE   O1121028   4.387   1.262   6.388  0.3681 -0.6563  0.2100
  184SOPE    C121029   4.375   1.407   6.379  0.3527 -0.3029 -0.1685
  184SOPE    HA21030   4.275   1.438   6.343 -0.4938 -2.3747  0.3117
  184SOPE    HB21031   4.441   1.446   6.298  0.6115  1.3343  0.7759
  184SOPE    C221032   4.400   1.494   6.509  0.2731  0.2988  0.1093
  184SOPE    HS21033   4.502   1.459   6.537  0.9298  0.1128 -2.3093
  184SOPE   O2121034   4.296   1.454   6.601 -0.1227 -0.1243  0.5139
  184SOPE   C2121035   4.343   1.438   6.728 -0.0806 -0.1389  0.4805
  184SOPE   O2221036   4.459   1.436   6.756  0.1295  0.1681 -0.0074
  184SOPE   C2221037   4.230   1.427   6.825 -0.1704  0.7629 -0.2021
  184SOPE   H2R21038   4.139   1.430   6.762 -0.7524 -0.1102  0.5661
  184SOPE   H2S21039   4.229   1.520   6.886 -2.4597  1.0713 -0.6439
  184SOPE    C321040   4.409   1.643   6.478  0.0668 -0.3037 -0.0076
  184SOPE    HX21041   4.314   1.681   6.436 -0.9974 -0.6951  1.9679
  184SOPE    HY21042   4.493   1.653   6.405  2.6578 -2.3938  2.4208
  184SOPE   O3121043   4.438   1.718   6.598 -0.0371 -0.5209 -0.5850
  184SOPE   C3121044   4.468   1.846   6.578 -0.3702 -1.2755 -0.0594
  184SOPE   O3221045   4.491   1.903   6.470  0.5393  0.2400 -0.6065
  184SOPE   C3221046   4.487   1.918   6.709 -0.4961  0.1835 -0.2592
  184SOPE   H2X21047   4.382   1.926   6.746 -0.1212 -1.8604  1.4070
  184SOPE   H2Y21048   4.539   2.016   6.699 -1.4432  0.5540 -1.9439
  184SOPE   C2321049   4.229   1.288   6.892  0.0055 -0.2093 -0.0264
  184SOPE   H3R21050   4.331   1.245   6.883  0.1287  0.0003  0.3493
  184SOPE   H3S21051   4.151   1.225   6.846 -0.5633 -0.7311  1.5674
  184SOPE   C2421052   4.192   1.297   7.045  0.1579  0.4496  0.1393
  184SOPE   H4R21053   4.277   1.356   7.086 -0.7528  0.7040  1.7468
  184SOPE   H4S21054   4.090   1.338   7.066 -0.0190 -0.0515  0.2703
  184SOPE   C2521055   4.200   1.159   7.115  0.3899  0.4045  0.8811
  184SOPE   H5R21056   4.117   1.090   7.087 -0.8491  1.3823  1.9884
  184SOPE   H5S21057   4.292   1.114   7.073 -0.4698  0.3710 -1.0913
  184SOPE   C2621058   4.207   1.172   7.266 -0.1668  0.0277 -0.0589
  184SOPE   H6R21059   4.133   1.244   7.306 -0.3405  0.2801 -0.8380
  184SOPE   H6S21060   4.193   1.074   7.317  0.3841  0.3030  0.6375
  184SOPE   C2721061   4.346   1.231   7.308 -0.0242  0.5137  0.6816
  184SOPE   H7R21062   4.420   1.169   7.252  1.5353  2.3212  0.6206
  184SOPE   H7S21063   4.369   1.335   7.274  1.3845  0.0571  0.1460
  184SOPE   C2821064   4.370   1.208   7.457 -0.1967 -0.4120  0.4020
  184SOPE   H8R21065   4.380   1.099   7.472  2.3238 -0.7553 -2.7243
  184SOPE   H8S21066   4.475   1.244   7.465  0.0706 -0.9060 -0.7311
  184SOPE   C2921067   4.277   1.268   7.563  0.3988 -0.2240 -0.0242
  184SOPE   H9121068   4.256   1.376   7.552  0.7454 -0.0933  0.5320
  184SOPE  C21021069   4.208   1.207   7.662  0.1794  0.3529 -0.8468
  184SOPE  H10121070   4.147   1.271   7.727 -2.5272 -2.6683 -0.1597
  184SOPE  C21121071   4.206   1.055   7.704  0.2253  0.1929  0.8508
  184SOPE  H11R21072   4.301   1.006   7.675 -0.1090  1.3106 -2.4768
  184SOPE  H11S21073   4.133   0.993   7.647  0.5270 -0.3849  1.0843
  184SOPE  C21221074   4.167   1.037   7.850  0.1710  0.0053 -0.2084
  184SOPE  H12R21075   4.238   1.088   7.918  1.3952 -1.3048 -0.4547
  184SOPE  H12S21076   4.168   0.928   7.872  0.8116  0.3556  1.5917
  184SOPE  C21321077   4.025   1.082   7.874  0.3137 -0.4142 -0.0766
  184SOPE  H13R21078   3.960   1.027   7.803 -0.6074  1.2709 -0.5965
  184SOPE  H13S21079   4.015   1.191   7.853  2.3461 -0.6449 -2.9210
  184SOPE  C21421080   3.972   1.050   8.014 -0.4184  0.2800 -0.1943
  184SOPE  H14R21081   4.003   0.946   8.039  0.5447  0.4292 -0.7180
  184SOPE  H14S21082   3.861   1.056   8.015 -0.5534 -1.6368 -0.3949
  184SOPE  C21521083   4.015   1.138   8.127  0.2494  0.0104 -0.5498
  184SOPE  H15R21084   3.955   1.231   8.112 -1.5336 -1.4519 -3.3770
  184SOPE  H15S21085   4.124   1.163   8.125  0.2371  0.4280  1.7243
  184SOPE  C21621086   3.988   1.065   8.261  0.2819  0.1687 -0.1348
  184SOPE  H16R21087   4.050   0.974   8.272  1.7147  1.3951  3.3092
  184SOPE  H16S21088   3.881   1.033   8.257  0.8256 -1.7537 -0.3793
  184SOPE  C21721089   4.006   1.151   8.389  0.5216 -0.2479 -1.2944
  184SOPE  H17R21090   3.985   1.257   8.364  3.7753  1.0018  0.5909
  184SOPE  H17S21091   4.109   1.130   8.426  0.7528  0.8458 -1.3062
  184SOPE  C21821092   3.920   1.110   8.505  0.1643  0.4424  0.2888
  184SOPE  H18R21093   3.937   1.161   8.602 -0.6156 -0.7312  1.0785
  184SOPE  H18S21094   3.943   1.003   8.526 -0.1707 -0.3583 -2.8872
  184SOPE  H18T21095   3.810   1.119   8.487  0.1794  0.0655 -0.0199
  184SOPE   C3321096   4.572   1.832   6.815  1.3662 -0.4871 -0.0417
  184SOPE   H3X21097   4.673   1.800   6.781  0.8578 -0.9895 -1.1359
  184SOPE   H3Y21098   4.523   1.733   6.808  3.7616 -1.7343 -0.1854
  184SOPE   C3421099   4.546   1.884   6.956  0.2137  0.5095 -0.4319
  184SOPE   H4X21100   4.444   1.926   6.949 -0.6681 -1.0298  1.8937
  184SOPE   H4Y21101   4.613   1.970   6.973 -0.6523  0.8153  1.7773
  184SOPE   C3521102   4.537   1.769   7.064  0.4572  0.2884 -0.0018
  184SOPE   H5X21103   4.638   1.724   7.065  0.6045  0.1295 -4.5962
  184SOPE   H5Y21104   4.463   1.691   7.034 -0.9812  1.9561 -0.9972
  184SOPE   C3621105   4.508   1.816   7.205  0.4564  0.4966 -0.1559
  184SOPE   H6X21106   4.412   1.871   7.216  0.1078  0.0573 -0.9316
  184SOPE   H6Y21107   4.586   1.889   7.237 -0.2394  0.2900  2.1356
  184SOPE   C3721108   4.503   1.699   7.308  0.1320 -0.1109  0.4727
  184SOPE   H7X21109   4.596   1.638   7.304  1.3947  1.7607 -0.0841
  184SOPE   H7Y21110   4.421   1.625   7.291 -0.3023  0.4185  0.2154
  184SOPE   C3821111   4.490   1.745   7.457  1.0136  0.4805  0.1866
  184SOPE   H8X21112   4.403   1.814   7.458  0.1213 -0.6044 -0.5681
  184SOPE   H8Y21113   4.569   1.815   7.494 -0.6333  2.0285  0.9061
  184SOPE   C3921114   4.469   1.626   7.546 -0.1464  0.3638 -0.1506
  184SOPE   H9X21115   4.568   1.586   7.577 -0.7528 -0.1895  1.1472
  184SOPE   H9Y21116   4.413   1.541   7.500  2.3064 -1.1586 -0.4968
  184SOPE  C31021117   4.401   1.658   7.683 -0.4033  0.3737  0.1766
  184SOPE  H10X21118   4.293   1.659   7.657 -0.1632 -0.4979 -0.9732
  184SOPE  H10Y21119   4.434   1.760   7.710  1.4779  0.1075 -0.9059
  184SOPE  C31121120   4.429   1.551   7.784 -0.8779 -0.0731 -0.2807
  184SOPE  H11X21121   4.538   1.542   7.800 -0.8217 -0.7271 -0.9920
  184SOPE  H11Y21122   4.389   1.452   7.755  0.0289 -0.0124 -1.8304
  184SOPE  C31221123   4.365   1.581   7.917 -0.6233 -0.2277  0.1469
  184SOPE  H12X21124   4.255   1.589   7.902 -0.3553  1.0070 -1.4476
  184SOPE  H12Y21125   4.403   1.683   7.941 -2.1935  0.6258 -0.8107
  184SOPE  C31321126   4.392   1.466   8.019 -0.1664  0.0616 -0.1041
  184SOPE  H13X21127   4.501   1.460   8.038  0.0220 -0.6352 -1.3274
  184SOPE  H13Y21128   4.365   1.367   7.977 -0.5183  0.0328  0.1869
  184SOPE  C31421129   4.314   1.493   8.148 -0.0831 -0.3671 -0.8705
  184SOPE  H14X21130   4.208   1.502   8.116  0.0623  1.2013 -1.0050
  184SOPE  H14Y21131   4.339   1.594   8.186  0.7627 -0.9795  0.2749
  184SOPE  C31521132   4.333   1.401   8.270  0.1956  0.2424  0.5075
  184SOPE  H15X21133   4.376   1.306   8.231 -1.2841  0.7730 -2.7653
  184SOPE  H15Y21134   4.231   1.383   8.308 -0.8208  2.7819 -0.7576
  184SOPE  C31621135   4.432   1.456   8.378  0.1802  0.2967 -0.3580
  184SOPE  H16X21136   4.390   1.554   8.408 -1.8089 -0.0068 -1.9619
  184SOPE  H16Y21137   4.532   1.469   8.330  0.9054 -3.5775 -0.1602
  184SOPE  C31721138   4.420   1.366   8.501  0.5965 -0.1977  0.2521
  184SOPE  H17X21139   4.438   1.259   8.478 -0.1964 -0.2858  0.0169
  184SOPE  H17Y21140   4.311   1.372   8.525  0.0712 -0.2522 -1.8855
  184SOPE  C31821141   4.501   1.418   8.617  0.2120  0.0689  0.8678
  184SOPE  H18X21142   4.468   1.519   8.650 -0.4624 -0.4736  1.9427
  184SOPE  H18Y21143   4.607   1.423   8.583  0.3184 -0.0383  1.1767
  184SOPE  H18Z21144   4.512   1.361   8.713  1.1543  0.6162  1.1009
  185SAPI   C1221145   4.942   0.236  11.277  0.0728  0.1731 -0.7884
  185SAPI    H221146   5.037   0.236  11.219  0.5891  2.3564 -0.0281
  185SAPI    O221147   4.837   0.243  11.181 -0.3633 -0.1938 -0.4567
  185SAPI   HO221148   4.864   0.187  11.108 -1.5142 -0.6816 -0.5368
  185SAPI   C1321149   4.933   0.113  11.358  0.4360 -0.2987 -0.1767
  185SAPI    H321150   5.014   0.106  11.433  0.0391 -0.3252  0.2533
  185SAPI    O321151   4.950  -0.006  11.277 -0.5245 -0.1889  0.5701
  185SAPI   HO321152   4.930   0.015  11.185 -0.3671 -1.2340  0.2919
  185SAPI   C1421153   4.795   0.105  11.426  0.4142  0.0505 -0.1410
  185SAPI    H421154   4.722   0.098  11.343 -0.2136  1.1980  0.2845
  185SAPI    O421155   4.779  -0.016  11.505 -0.2861 -0.4895  0.0025
  185SAPI   HO421156   4.852  -0.077  11.493 -1.6931 -1.8332 -2.3662
  185SAPI   C1521157   4.763   0.239  11.507 -0.2075  0.5596 -0.2188
  185SAPI    H521158   4.825   0.239  11.599 -2.1818  2.9447  1.2081
  185SAPI    O521159   4.630   0.241  11.553  0.2700  0.2292  0.2734
  185SAPI   HO521160   4.624   0.272  11.643  0.6873 -0.0872  0.4146
  185SAPI   C1621161   4.805   0.367  11.433 -0.1108  0.2201  0.4067
  185SAPI    H621162   4.725   0.384  11.358  1.0282  1.7226 -0.5272
  185SAPI    O621163   4.799   0.484  11.513  0.4741  0.5304 -0.1767
  185SAPI   HO621164   4.887   0.504  11.546  0.5237 -0.4177  0.3179
  185SAPI   C1121165   4.941   0.363  11.366 -0.5205  0.4109  0.3776
  185SAPI    H121166   5.022   0.355  11.441 -0.3462 -0.4442  0.1095
  185SAPI     P21167   5.113   0.520  11.228  0.3782  0.4674 -0.3334
  185SAPI   O1321168   5.205   0.505  11.343 -0.4896  0.7162  0.0403
  185SAPI   O1421169   5.102   0.654  11.167 -0.0749  0.0820  0.0966
  185SAPI   O1221170   4.961   0.467  11.273  0.1191 -0.5028 -0.1179
  185SAPI   O1121171   5.137   0.413  11.107 -0.0020  0.2968 -1.2426
  185SAPI    C121172   5.082   0.441  10.974  0.6950  0.1023 -0.0678
  185SAPI    HA21173   5.041   0.351  10.923 -0.4082  1.5103 -1.7710
  185SAPI    HB21174   5.003   0.518  10.977  0.1786 -0.4360  0.4874
  185SAPI    C221175   5.204   0.493  10.889 -0.3755  0.6950 -0.4842
  185SAPI    HS21176   5.248   0.576  10.949  0.8546  0.2160 -0.6959
  185SAPI   O2121177   5.172   0.524  10.750  0.5155 -0.4939  0.1549
  185SAPI   C2121178   5.123   0.652  10.737 -0.4223  0.0760  0.4464
  185SAPI   O2221179   5.096   0.726  10.827 -0.2069  0.0413 -0.7387
  185SAPI   C2221180   5.091   0.682  10.594  0.1712 -0.6683  0.3290
  185SAPI   H2R21181   5.183   0.661  10.535  1.4580  0.3197  1.8853
  185SAPI   H2S21182   5.009   0.618  10.555 -1.8502  2.0685 -0.2129
  185SAPI    C321183   5.315   0.377  10.890 -0.1013  0.1668  0.8054
  185SAPI    HX21184   5.277   0.281  10.849  2.8496  0.2062 -2.5325
  185SAPI    HY21185   5.346   0.368  10.996 -0.3735  0.8049  0.9413
  185SAPI   O3121186   5.425   0.418  10.803 -0.0623 -0.0149 -0.0389
  185SAPI   C3121187   5.522   0.485  10.854  0.0469 -0.0669 -0.4560
  185SAPI   O3221188   5.529   0.526  10.970 -0.1337  0.8067 -0.0472
  185SAPI   C3221189   5.616   0.507  10.742  0.1760  0.3581 -0.5420
  185SAPI   H2X21190   5.567   0.486  10.644 -0.7284  2.0948 -0.4885
  185SAPI   H2Y21191   5.689   0.423  10.751  0.6866  0.9744  1.3950
  185SAPI   C2321192   5.054   0.834  10.581  0.1975  0.0970 -0.4018
  185SAPI   H3R21193   5.134   0.892  10.633 -1.8790  1.8919  0.9340
  185SAPI   H3S21194   4.964   0.854  10.642  2.0972  1.0847  2.2494
  185SAPI   C2421195   5.054   0.886  10.435 -0.0470  0.1186  0.0742
  185SAPI   H4R21196   5.007   0.813  10.366  0.1358  1.3094 -1.3560
  185SAPI   H4S21197   5.159   0.882  10.399 -0.1095 -0.2892 -0.0669
  185SAPI   C2521198   4.990   1.020  10.418  0.0353  0.5394 -0.0074
  185SAPI   H5R21199   5.037   1.100  10.478 -0.1025  1.0688 -0.5889
  185SAPI   C2621200   4.885   1.062  10.348  0.0329  0.0415 -0.8247
  185SAPI   H6R21201   4.847   1.164  10.363 -0.8247 -0.5565  1.5355
  185SAPI   C2721202   4.794   0.972  10.274  0.6218  0.3147  0.3033
  185SAPI   H7R21203   4.725   0.922  10.345  0.8943  0.0496  0.3889
  185SAPI   H7S21204   4.839   0.886  10.219  0.1743  0.2007  0.1183
  185SAPI   C2821205   4.698   1.056  10.185 -0.1534  0.0724 -0.3395
  185SAPI   H8R21206   4.601   1.071  10.234 -0.0305  1.4137 -0.4560
  185SAPI   C2921207   4.712   1.097  10.060 -0.9622  0.7554 -0.3164
  185SAPI   H9R21208   4.629   1.164  10.032 -2.2472 -0.0336  1.4217
  185SAPI  C21021209   4.826   1.073   9.973 -0.1314 -0.4929 -0.1049
  185SAPI  H10R21210   4.849   0.965   9.960 -0.9556 -0.6049 -0.7543
  185SAPI  H10S21211   4.925   1.100  10.014  0.9200 -1.1844 -2.0638
  185SAPI  C21121212   4.804   1.137   9.836  0.2166 -0.2394 -0.4663
  185SAPI  H11R21213   4.827   1.244   9.832  0.4969 -0.2834 -0.0861
  185SAPI  C21221214   4.767   1.069   9.723 -0.0605  0.1112  0.3225
  185SAPI  H12R21215   4.737   1.135   9.640 -1.3808 -1.9420 -0.9224
  185SAPI  C21321216   4.757   0.917   9.703 -0.1438  0.7899 -0.0644
  185SAPI  H13R21217   4.841   0.880   9.766 -0.0328  0.5484 -0.3560
  185SAPI  H13S21218   4.790   0.901   9.598  4.4356  1.0309  1.0952
  185SAPI  C21421219   4.633   0.851   9.760  0.6202  0.6284  0.1808
  185SAPI  H14R21220   4.588   0.907   9.844  0.0977  0.9392 -0.3052
  185SAPI  C21521221   4.568   0.740   9.715 -0.6099  0.3777  0.0017
  185SAPI  H15R21222   4.463   0.728   9.745 -1.0065  1.3380 -0.9434
  185SAPI  C21621223   4.605   0.652   9.599 -0.2478 -0.0921 -0.0670
  185SAPI  H16R21224   4.583   0.544   9.608  0.0291 -0.5505 -3.5869
  185SAPI  H16S21225   4.714   0.666   9.584  0.0559  0.2419  2.1112
  185SAPI  C21721226   4.534   0.704   9.471  0.0715 -0.2555 -0.0363
  185SAPI  H17R21227   4.579   0.802   9.445  0.7476 -0.0343  1.8300
  185SAPI  H17S21228   4.428   0.734   9.485  0.5496  2.3842 -1.3742
  185SAPI  C21821229   4.558   0.614   9.348  0.6988 -0.7229 -0.4631
  185SAPI  H18R21230   4.511   0.515   9.360 -0.3275 -0.2808 -0.7654
  185SAPI  H18S21231   4.668   0.608   9.334  0.7109 -1.5430 -0.0410
  185SAPI  C21921232   4.506   0.676   9.214 -0.0574  0.0687 -0.1219
  185SAPI  H19R21233   4.559   0.645   9.121 -0.5457 -1.5266  0.0921
  185SAPI  H19S21234   4.508   0.785   9.235 -0.5671  0.0042  0.2814
  185SAPI  C22021235   4.364   0.626   9.193 -0.2772 -0.2696  0.2410
  185SAPI  H20R21236   4.374   0.516   9.189 -2.3231 -0.5811  1.8565
  185SAPI  H20S21237   4.310   0.667   9.105 -0.2018  0.3512  0.4752
  185SAPI  H20T21238   4.294   0.648   9.277  0.9398  1.0959  0.9343
  185SAPI   C3321239   5.672   0.651  10.748  0.4138  0.6333 -0.3489
  185SAPI   H3X21240   5.755   0.650  10.822  2.0375  2.1384 -2.0511
  185SAPI   H3Y21241   5.587   0.708  10.792 -2.6705 -4.0305  0.4549
  185SAPI   C3421242   5.708   0.698  10.614 -0.8037  0.1558  0.4023
  185SAPI   H4X21243   5.751   0.801  10.621 -1.3528  0.3653  0.7790
  185SAPI   H4Y21244   5.623   0.719  10.546  1.3532  4.1552 -1.4059
  185SAPI   C3521245   5.815   0.614  10.537  0.1042  0.5708 -0.5579
  185SAPI   H5X21246   5.754   0.533  10.492 -1.3427 -0.6900  3.2504
  185SAPI   H5Y21247   5.881   0.558  10.606  1.2338  2.7259  0.2201
  185SAPI   C3621248   5.910   0.688  10.434 -0.0756 -0.4852  0.7996
  185SAPI   H6X21249   5.995   0.617  10.422 -0.6783 -0.9889 -0.8747
  185SAPI   H6Y21250   5.941   0.785  10.477 -0.4733 -0.9713  2.2275
  185SAPI   C3721251   5.831   0.704  10.301 -0.7558 -0.0942 -0.5226
  185SAPI   H7X21252   5.738   0.759  10.322 -1.1649 -1.4066  1.2821
  185SAPI   H7Y21253   5.802   0.602  10.267  1.6245 -0.7731 -0.7073
  185SAPI   C3821254   5.910   0.783  10.180 -0.3073 -0.1770 -0.2217
  185SAPI   H8X21255   6.018   0.761  10.193 -0.7522 -0.9969  3.2431
  185SAPI   H8Y21256   5.888   0.891  10.189 -0.8015 -0.3153  0.3219
  185SAPI   C3921257   5.871   0.723  10.043 -0.6156 -0.3004 -0.2155
  185SAPI   H9X21258   5.762   0.725  10.021 -0.5462  1.1663 -0.4919
  185SAPI   H9Y21259   5.899   0.615  10.040 -0.2071 -0.2332  0.8181
  185SAPI  C31021260   5.946   0.800   9.929  0.4236  0.6642  0.4734
  185SAPI  H10X21261   6.053   0.796   9.958  0.5684  0.2309 -0.1149
  185SAPI  H10Y21262   5.928   0.909   9.930 -0.4218  0.6029 -1.8826
  185SAPI  C31121263   5.929   0.741   9.785  0.1428  0.4830 -0.2958
  185SAPI  H11X21264   5.941   0.631   9.788  0.4784  0.5281  0.1864
  185SAPI  H11Y21265   6.013   0.770   9.719  0.9626 -0.5666  0.2513
  185SAPI  C31221266   5.802   0.794   9.719  0.5970  0.0029  1.1651
  185SAPI  H12X21267   5.799   0.903   9.702 -1.0145  0.2680  2.7274
  185SAPI  H12Y21268   5.720   0.768   9.790  0.3013  0.6816  1.0824
  185SAPI  C31321269   5.777   0.714   9.586  0.3449 -0.7490 -0.7097
  185SAPI  H13X21270   5.768   0.606   9.611  2.8013 -1.0753 -0.9288
  185SAPI  H13Y21271   5.862   0.732   9.516 -0.6013  2.4230 -1.1756
  185SAPI  C31421272   5.653   0.767   9.517  0.1801 -0.6093 -0.1023
  185SAPI  H14X21273   5.641   0.874   9.545 -0.4054 -0.1787 -1.8602
  185SAPI  H14Y21274   5.565   0.711   9.555 -0.1296  0.5935  1.0144
  185SAPI  C31521275   5.664   0.766   9.364  0.4430  0.1603 -0.1983
  185SAPI  H15X21276   5.760   0.807   9.325  0.7441  0.2076  0.5758
  185SAPI  H15Y21277   5.584   0.832   9.324 -1.0215 -1.5774 -0.2406
  185SAPI  C31621278   5.639   0.626   9.297 -0.2092 -0.5688  0.6051
  185SAPI  H16X21279   5.535   0.591   9.313 -0.9135  1.5839  1.1212
  185SAPI  H16Y21280   5.692   0.541   9.346 -0.5301 -1.2494 -0.2134
  185SAPI  C31721281   5.662   0.621   9.141 -0.3161 -0.3592  0.3419
  185SAPI  H17X21282   5.642   0.519   9.104 -0.5312  0.0806 -0.8020
  185SAPI  H17Y21283   5.770   0.639   9.126 -0.5501  0.8973  0.0481
  185SAPI  C31821284   5.578   0.722   9.065 -0.0307  0.1784 -0.4548
  185SAPI  H18X21285   5.601   0.828   9.091  0.5048  0.1925 -0.9589
  185SAPI  H18Y21286   5.470   0.719   9.092 -0.3609  0.2206 -1.7050
  185SAPI  H18Z21287   5.592   0.708   8.955 -0.8037  0.1118 -0.5531
  186SAPI   C1221288   1.376   4.220  11.124 -0.5089  0.5249 -0.2625
  186SAPI    H221289   1.372   4.164  11.028  0.2375 -0.7934  0.4633
  186SAPI    O221290   1.427   4.137  11.222 -0.3805  0.1733  0.4884
  186SAPI   HO221291   1.443   4.051  11.182 -1.3379  0.6740 -1.0267
  186SAPI   C1321292   1.461   4.346  11.114 -0.2547  0.1734 -0.4194
  186SAPI    H321293   1.419   4.423  11.045 -1.6425  0.1867  0.3954
  186SAPI    O321294   1.590   4.318  11.064 -0.1194 -0.0422 -0.0466
  186SAPI   HO321295   1.641   4.277  11.134 -1.2321 -1.0891  0.1837
  186SAPI   C1421296   1.458   4.419  11.248  0.3379 -0.1778 -0.6834
  186SAPI    H421297   1.493   4.352  11.329 -2.8566 -0.6112  0.4797
  186SAPI    O421298   1.537   4.538  11.233  0.3136  0.4384 -0.0955
  186SAPI   HO421299   1.627   4.511  11.211  0.0610  0.2889 -0.9621
  186SAPI   C1521300   1.312   4.449  11.282  0.7607  0.0015  0.2815
  186SAPI    H521301   1.270   4.514  11.203 -0.1908 -0.8697  0.0423
  186SAPI    O521302   1.296   4.517  11.402 -0.3336  0.0295 -0.0822
  186SAPI   HO521303   1.377   4.537  11.449  1.2736 -2.3484 -1.5623
  186SAPI   C1621304   1.225   4.326  11.276 -0.0112 -0.6056 -0.1228
  186SAPI    H621305   1.258   4.251  11.351  2.0432 -0.7056 -1.0529
  186SAPI    O621306   1.093   4.354  11.314 -0.2099 -0.0672 -0.1195
  186SAPI   HO621307   1.037   4.389  11.244 -0.2259 -1.6520 -0.9277
  186SAPI   C1121308   1.231   4.256  11.144  0.1160 -0.3671 -0.4005
  186SAPI    H121309   1.214   4.324  11.058  0.6294 -0.9378 -0.9614
  186SAPI     P21310   1.017   4.130  11.057 -0.5381 -0.1004 -0.2974
  186SAPI   O1321311   0.981   4.267  11.026  0.9310 -0.1154 -0.0051
  186SAPI   O1421312   0.918   4.050  11.137 -0.5101 -0.2770  0.2602
  186SAPI   O1221313   1.156   4.130  11.139 -0.1526 -0.6226 -0.3876
  186SAPI   O1121314   1.049   4.053  10.925  0.0681  0.2765  0.4857
  186SAPI    C121315   1.035   3.910  10.911  0.1511  0.1363 -0.2701
  186SAPI    HA21316   1.120   3.853  10.952  0.4156 -1.2002 -2.4886
  186SAPI    HB21317   0.941   3.881  10.962 -1.4033  2.1355 -1.7876
  186SAPI    C221318   1.010   3.870  10.756  0.2691 -0.0961 -0.6946
  186SAPI    HS21319   0.907   3.905  10.737  0.1937 -0.6536 -1.3304
  186SAPI   O2121320   1.018   3.725  10.746  0.3289  0.0736 -0.7979
  186SAPI   C2121321   0.904   3.666  10.781 -0.7969 -0.2845  0.7049
  186SAPI   O2221322   0.810   3.721  10.833 -0.4403 -0.2104 -0.1767
  186SAPI   C2221323   0.897   3.525  10.719  0.1714  0.0085 -0.1647
  186SAPI   H2R21324   0.918   3.541  10.611 -0.2907  1.6540 -0.0396
  186SAPI   H2S21325   0.987   3.481  10.767 -0.5933 -0.3030  1.0181
  186SAPI    C321326   1.107   3.938  10.655  0.1846  0.3395 -0.0432
  186SAPI    HX21327   1.213   3.938  10.689 -0.2879  0.3438  1.4980
  186SAPI    HY21328   1.073   4.043  10.649 -1.8056 -0.3581 -2.4701
  186SAPI   O3121329   1.083   3.890  10.527  0.4167  0.3158 -0.4609
  186SAPI   C3121330   1.170   3.800  10.478 -0.1681 -0.0294 -0.7144
  186SAPI   O3221331   1.267   3.760  10.535  0.3699  0.3417 -0.1130
  186SAPI   C3221332   1.128   3.747  10.341  0.3192  0.6766 -0.1601
  186SAPI   H2X21333   1.046   3.805  10.293 -0.1598  0.0292 -0.1342
  186SAPI   H2Y21334   1.085   3.647  10.362  0.7989  1.1832  3.9580
  186SAPI   C2321335   0.767   3.450  10.749  0.1481  0.6093  0.9297
  186SAPI   H3R21336   0.735   3.456  10.856 -2.9025  1.3076  0.0764
  186SAPI   H3S21337   0.790   3.346  10.720 -2.5787  0.7074 -2.1687
  186SAPI   C2421338   0.646   3.484  10.666  0.1498 -0.4056 -0.5807
  186SAPI   H4R21339   0.616   3.591  10.666 -0.4220 -0.5530  0.3405
  186SAPI   H4S21340   0.558   3.429  10.705  1.3586 -2.8620 -1.1178
  186SAPI   C2521341   0.661   3.422  10.534 -0.2086  0.4531  0.0284
  186SAPI   H5R21342   0.656   3.313  10.542 -0.5963  0.5207  0.8409
  186SAPI   C2621343   0.663   3.466  10.404  0.3216  0.2638  0.6008
  186SAPI   H6R21344   0.646   3.388  10.329  1.0486 -2.6004  3.1923
  186SAPI   C2721345   0.642   3.611  10.361 -0.0244 -0.2721  0.1136
  186SAPI   H7R21346   0.607   3.677  10.444  1.4187 -0.6787  1.0959
  186SAPI   H7S21347   0.546   3.611  10.306 -0.8687 -1.9952  1.4931
  186SAPI   C2821348   0.752   3.678  10.278 -0.3379 -0.2138 -0.8233
  186SAPI   H8R21349   0.812   3.750  10.336  0.1252 -1.5761  0.4298
  186SAPI   C2921350   0.778   3.649  10.146  0.0463 -0.3790 -0.3080
  186SAPI   H9R21351   0.865   3.706  10.109  1.9019 -0.8987  2.8497
  186SAPI  C21021352   0.690   3.567  10.055 -0.0977 -0.0829 -0.5857
  186SAPI  H10R21353   0.627   3.634   9.992 -2.9853 -1.9892  0.0738
  186SAPI  H10S21354   0.612   3.509  10.110  2.0972 -1.7223  0.9414
  186SAPI  C21121355   0.775   3.471   9.975 -0.3159 -0.6658 -1.5255
  186SAPI  H11R21356   0.808   3.391  10.042  0.5329  0.0052 -1.1247
  186SAPI  C21221357   0.797   3.468   9.841 -0.1935  0.3030  0.3199
  186SAPI  H12R21358   0.859   3.389   9.796 -0.7534  1.6572 -3.1776
  186SAPI  C21321359   0.735   3.563   9.749  0.3802  0.2972  0.1601
  186SAPI  H13R21360   0.743   3.666   9.790  2.2054 -0.5326  2.0534
  186SAPI  H13S21361   0.626   3.549   9.735  0.5931 -0.9789 -0.4530
  186SAPI  C21421362   0.810   3.561   9.618 -0.1693  0.0790 -0.3868
  186SAPI  H14R21363   0.919   3.550   9.624  0.2459  0.5731 -4.3549
  186SAPI  C21521364   0.759   3.593   9.500  0.6247 -0.0046 -0.4140
  186SAPI  H15R21365   0.825   3.586   9.412  0.8428  1.0506 -0.3478
  186SAPI  C21621366   0.614   3.612   9.474  0.0697 -0.3814 -1.2145
  186SAPI  H16R21367   0.606   3.697   9.402 -2.1500 -0.6757 -1.3883
  186SAPI  H16S21368   0.552   3.652   9.557  0.6189 -1.1828 -0.4141
  186SAPI  C21721369   0.549   3.480   9.425  0.1186 -0.4932  0.0262
  186SAPI  H17R21370   0.441   3.504   9.418  0.0314 -0.9955 -0.4698
  186SAPI  H17S21371   0.550   3.391   9.490  3.2696 -0.1427  0.6122
  186SAPI  C21821372   0.599   3.437   9.277 -0.1136 -0.5060 -0.0151
  186SAPI  H18R21373   0.551   3.343   9.242 -0.6525 -0.5582  0.8226
  186SAPI  H18S21374   0.705   3.403   9.275 -0.0558 -0.3070 -0.4741
  186SAPI  C21921375   0.580   3.550   9.169  0.3613 -0.4757  0.7240
  186SAPI  H19R21376   0.562   3.647   9.220  0.6722 -1.6513  3.2104
  186SAPI  H19S21377   0.488   3.535   9.110 -0.0829 -1.0105  1.5384
  186SAPI  C22021378   0.689   3.553   9.055 -0.1366  0.5949 -0.2026
  186SAPI  H20R21379   0.789   3.566   9.102 -1.6611  1.7219  2.9361
  186SAPI  H20S21380   0.658   3.645   9.000 -2.5669  0.3290  0.6052
  186SAPI  H20T21381   0.666   3.471   8.983  1.2073 -2.2253  2.3549
  186SAPI   C3321382   1.252   3.730  10.250 -0.0521  0.7166  0.2237
  186SAPI   H3X21383   1.325   3.652  10.280  0.1518  1.4067  1.6099
  186SAPI   H3Y21384   1.298   3.831  10.240  0.9794  0.3571  1.2439
  186SAPI   C3421385   1.202   3.696  10.109 -0.4534  0.0524 -0.1738
  186SAPI   H4X21386   1.158   3.789  10.068  0.3359  1.8821  2.8023
  186SAPI   H4Y21387   1.132   3.611  10.127 -0.5984  0.4512  1.2828
  186SAPI   C3521388   1.300   3.634  10.008  0.3895  0.7241  0.6418
  186SAPI   H5X21389   1.345   3.545  10.058  2.6119  0.3837 -1.7168
  186SAPI   H5Y21390   1.390   3.696   9.989  0.3321  0.0959 -2.1613
  186SAPI   C3621391   1.219   3.607   9.876  0.5130 -0.2898 -0.3052
  186SAPI   H6X21392   1.130   3.673   9.871 -0.2002 -1.1949  0.1537
  186SAPI   H6Y21393   1.174   3.506   9.866 -0.6155  0.2569 -0.8482
  186SAPI   C3721394   1.304   3.625   9.747  0.1206 -0.5098 -0.3596
  186SAPI   H7X21395   1.390   3.555   9.758 -1.1651 -2.0802  0.0098
  186SAPI   H7Y21396   1.341   3.730   9.750  0.2454 -0.5241 -1.0524
  186SAPI   C3821397   1.234   3.605   9.614 -0.0036 -0.2515  0.5550
  186SAPI   H8X21398   1.162   3.684   9.584  0.6182 -0.4704 -1.7117
  186SAPI   H8Y21399   1.167   3.516   9.616 -0.1095 -0.1614  2.4191
  186SAPI   C3921400   1.336   3.581   9.498 -0.5961  0.7771  0.5065
  186SAPI   H9X21401   1.381   3.484   9.530 -1.2403 -0.3777 -1.8748
  186SAPI   H9Y21402   1.417   3.656   9.504 -0.3577  0.4536  1.7206
  186SAPI  C31021403   1.290   3.575   9.356 -0.1780 -0.2372  0.1441
  186SAPI  H10X21404   1.376   3.534   9.298 -0.1239  2.4018 -1.8501
  186SAPI  H10Y21405   1.271   3.679   9.323 -0.0375  0.3721  1.9268
  186SAPI  C31121406   1.161   3.487   9.326  0.6934  0.1263  0.0126
  186SAPI  H11X21407   1.071   3.522   9.381 -0.4696 -0.7082 -1.2965
  186SAPI  H11Y21408   1.192   3.387   9.363 -0.7304 -0.4459 -0.3009
  186SAPI  C31221409   1.113   3.493   9.181 -0.0995 -0.3335 -0.1543
  186SAPI  H12X21410   1.128   3.597   9.146  0.8732  0.1685  1.6274
  186SAPI  H12Y21411   1.008   3.454   9.175  0.1217 -0.8273 -1.0077
  186SAPI  C31321412   1.201   3.411   9.094  0.1095  0.2556  0.0514
  186SAPI  H13X21413   1.184   3.302   9.095 -1.6138  0.5036 -0.0448
  186SAPI  H13Y21414   1.303   3.437   9.131  0.7302 -3.1088  1.0762
  186SAPI  C31421415   1.185   3.445   8.944 -0.4388  0.2025  0.0047
  186SAPI  H14X21416   1.256   3.386   8.882  0.8877  0.2138  1.4549
  186SAPI  H14Y21417   1.215   3.552   8.938 -1.3693  0.7216  2.9817
  186SAPI  C31521418   1.049   3.422   8.878  0.1782  0.6302 -0.0687
  186SAPI  H15X21419   1.044   3.463   8.775  0.9397  1.5582  0.2441
  186SAPI  H15Y21420   0.972   3.483   8.930  1.1180  1.8141 -0.0179
  186SAPI  C31621421   1.005   3.278   8.863 -0.0475  0.3726 -0.1161
  186SAPI  H16X21422   0.902   3.278   8.821 -1.4870  0.5133  3.1505
  186SAPI  H16Y21423   0.981   3.231   8.960 -2.3975 -2.2428 -1.7898
  186SAPI  C31721424   1.097   3.200   8.769  0.4832  0.3083  0.5709
  186SAPI  H17X21425   1.185   3.184   8.836 -0.0093  1.0044  1.4017
  186SAPI  H17Y21426   1.115   3.261   8.678 -0.2429 -1.2694 -0.6761
  186SAPI  C31821427   1.056   3.057   8.741  0.2644  0.0541 -0.2238
  186SAPI  H18X21428   1.136   3.000   8.688 -0.8750 -3.0086  1.1166
  186SAPI  H18Y21429   0.971   3.041   8.672 -0.6088  1.3840  0.5183
  186SAPI  H18Z21430   1.050   2.996   8.833  2.9300 -0.4024 -0.2553
  187SAPI   C1221431   6.116   1.275   6.399 -0.0572 -0.2527 -0.5493
  187SAPI    H221432   6.063   1.279   6.301  0.8974  0.2526 -1.0606
  187SAPI    O221433   6.059   1.173   6.479  0.2210  0.3060 -0.0026
  187SAPI   HO221434   5.978   1.207   6.519  0.2112 -0.1050  0.3421
  187SAPI   C1321435   6.262   1.249   6.378 -0.6827  0.2193 -0.2178
  187SAPI    H321436   6.297   1.330   6.311 -1.1417  0.9264  0.3720
  187SAPI    O321437   6.294   1.122   6.311 -0.2715  0.0561  0.0076
  187SAPI   HO321438   6.238   1.062   6.362  1.4830 -0.0942  1.9061
  187SAPI   C1421439   6.335   1.262   6.509  0.6505 -0.1019 -0.4184
  187SAPI    H421440   6.300   1.179   6.573  0.0646 -1.1896 -2.0693
  187SAPI    O421441   6.475   1.248   6.496 -0.7827  0.0145  0.5055
  187SAPI   HO421442   6.502   1.158   6.515  0.4105  0.4783  1.1461
  187SAPI   C1521443   6.303   1.383   6.598  0.1289  0.4546  0.3709
  187SAPI    H521444   6.348   1.471   6.546  1.8380  0.2211  1.3595
  187SAPI    O521445   6.361   1.373   6.731 -0.1724  0.4181  0.1244
  187SAPI   HO521446   6.327   1.290   6.764 -1.7801  0.4471 -1.3518
  187SAPI   C1621447   6.152   1.403   6.614  0.1579 -0.1130  0.1419
  187SAPI    H621448   6.102   1.325   6.676  0.5273  1.2739  2.3245
  187SAPI    O621449   6.122   1.524   6.677  0.1704  0.0202 -0.4803
  187SAPI   HO621450   6.028   1.541   6.684  0.5371  2.6375 -1.0672
  187SAPI   C1121451   6.085   1.412   6.471 -0.8487  0.0895 -0.3108
  187SAPI    H121452   6.111   1.495   6.402 -0.5053  0.0340 -0.2466
  187SAPI     P21453   5.848   1.546   6.491 -0.2466  0.1094  0.0540
  187SAPI   O1321454   5.708   1.513   6.464 -0.5039  0.0124  0.0735
  187SAPI   O1421455   5.909   1.663   6.419  0.2025 -0.1191  0.5850
  187SAPI   O1221456   5.945   1.419   6.472  0.2185 -0.3113 -0.3580
  187SAPI   O1121457   5.867   1.568   6.648  0.6914 -0.1845  0.0118
  187SAPI    C121458   5.774   1.585   6.753 -0.3870 -0.6615  0.6325
  187SAPI    HA21459   5.816   1.665   6.817 -0.1346 -0.4614  0.2202
  187SAPI    HB21460   5.676   1.618   6.713 -0.8195 -1.9259  0.6185
  187SAPI    C221461   5.762   1.462   6.852 -0.3047 -0.3150  0.2156
  187SAPI    HS21462   5.684   1.483   6.928 -0.6005  0.5415 -0.3057
  187SAPI   O2121463   5.894   1.441   6.911  0.7552  0.0251  0.4094
  187SAPI   C2121464   5.895   1.426   7.041  0.2117 -0.0043 -0.5550
  187SAPI   O2221465   5.797   1.413   7.111  0.2976  0.0347 -0.4906
  187SAPI   C2221466   6.038   1.445   7.100  0.3926 -0.4927  0.0287
  187SAPI   H2R21467   6.041   1.510   7.190  1.0782 -1.3992  0.6700
  187SAPI   H2S21468   6.065   1.342   7.132  0.0036  0.0980  2.4792
  187SAPI    C321469   5.707   1.328   6.782 -0.6977  0.2356  0.2902
  187SAPI    HX21470   5.789   1.310   6.709  0.8651 -1.2781  2.3097
  187SAPI    HY21471   5.608   1.339   6.733  0.4630  2.6390 -1.7390
  187SAPI   O3121472   5.713   1.231   6.882 -0.2622  1.2482  0.2803
  187SAPI   C3121473   5.598   1.182   6.927 -0.0394 -0.4314 -0.1691
  187SAPI   O3221474   5.485   1.216   6.894  0.2227  0.1447  0.5364
  187SAPI   C3221475   5.639   1.078   7.026 -0.3758 -0.5529  0.2908
  187SAPI   H2X21476   5.719   1.121   7.089 -0.3550 -1.5133  0.9433
  187SAPI   H2Y21477   5.702   1.002   6.976  3.9356  1.1510  2.6442
  187SAPI   C2321478   6.142   1.499   7.003  0.2608 -0.1020  0.7724
  187SAPI   H3R21479   6.113   1.601   6.969 -0.0118  0.1025  1.5969
  187SAPI   H3S21480   6.147   1.433   6.914 -0.5948  1.3338 -0.3947
  187SAPI   C2421481   6.284   1.497   7.067 -0.6660 -0.2782  0.0029
  187SAPI   H4R21482   6.359   1.545   7.001 -0.6340  1.4546  1.2383
  187SAPI   H4S21483   6.316   1.391   7.084  2.2865  0.6694  1.0354
  187SAPI   C2521484   6.292   1.584   7.195  0.4016 -0.2431  0.2593
  187SAPI   H5R21485   6.222   1.668   7.192 -2.9547 -2.7999  0.4144
  187SAPI   C2621486   6.351   1.548   7.311  0.6272 -0.3222  0.2559
  187SAPI   H6R21487   6.354   1.620   7.394  0.9951  0.0242 -0.0507
  187SAPI   C2721488   6.429   1.422   7.335  0.0057  0.1811  0.3116
  187SAPI   H7R21489   6.445   1.360   7.244 -1.1252 -3.2402  2.2331
  187SAPI   H7S21490   6.377   1.351   7.404  2.4287 -1.1526  0.9064
  187SAPI   C2821491   6.566   1.459   7.385  0.1648 -0.3146 -0.5848
  187SAPI   H8R21492   6.631   1.502   7.307  0.8887  0.6355  0.5016
  187SAPI   C2921493   6.608   1.451   7.513 -1.2345  0.3079  0.3921
  187SAPI   H9R21494   6.711   1.479   7.538 -1.1883 -0.1518  0.7231
  187SAPI  C21021495   6.523   1.397   7.626  0.0073  1.6311  0.4563
  187SAPI  H10R21496   6.552   1.292   7.650  1.9069  2.3173  1.4216
  187SAPI  H10S21497   6.417   1.378   7.601  0.5825  0.0269 -1.0032
  187SAPI  C21121498   6.527   1.468   7.764  0.6645  0.4356  0.0657
  187SAPI  H11R21499   6.610   1.540   7.773  1.0997 -0.1835  1.1254
  187SAPI  C21221500   6.434   1.457   7.862  0.3884  0.5746  0.6191
  187SAPI  H12R21501   6.452   1.505   7.960  1.4231 -2.1599  1.8860
  187SAPI  C21321502   6.311   1.378   7.857  0.5177  0.1189 -0.4026
  187SAPI  H13R21503   6.340   1.275   7.827  0.6220  0.7022 -2.5005
  187SAPI  H13S21504   6.249   1.424   7.777  0.4532  0.8080  0.0389
  187SAPI  C21421505   6.229   1.383   7.983  0.0944 -0.0316  0.7448
  187SAPI  H14R21506   6.189   1.480   8.016  0.2800  0.6784 -0.9935
  187SAPI  C21521507   6.193   1.279   8.060  0.4775  1.5146  0.0622
  187SAPI  H15R21508   6.153   1.305   8.159 -0.0633  2.6844 -0.4378
  187SAPI  C21621509   6.224   1.136   8.040 -0.7358 -0.3659 -0.4155
  187SAPI  H16R21510   6.278   1.114   7.946 -1.4748 -0.0054 -0.9373
  187SAPI  H16S21511   6.130   1.077   8.038 -0.0372 -1.5712  0.5976
  187SAPI  C21721512   6.308   1.076   8.154 -0.1789  0.9254 -0.0752
  187SAPI  H17R21513   6.397   1.134   8.185  1.4473 -1.9788  1.1187
  187SAPI  H17S21514   6.337   0.972   8.126 -1.9491  0.2251  0.4994
  187SAPI  C21821515   6.235   1.049   8.289 -0.6449  0.6706  0.3519
  187SAPI  H18R21516   6.142   0.990   8.275  0.9858 -1.8732 -0.4036
  187SAPI  H18S21517   6.210   1.153   8.319 -2.6071  0.0243  1.1205
  187SAPI  C21921518   6.310   0.973   8.398 -0.3295  0.2301 -0.2191
  187SAPI  H19R21519   6.342   0.875   8.357  0.9008  0.7057 -0.4489
  187SAPI  H19S21520   6.237   0.959   8.481 -0.4194  0.2936 -0.2881
  187SAPI  C22021521   6.430   1.048   8.455  0.3465  0.0621 -0.5353
  187SAPI  H20R21522   6.487   1.083   8.367 -0.9876 -0.7190 -1.7496
  187SAPI  H20S21523   6.486   0.986   8.528 -0.7133 -0.0443  0.2234
  187SAPI  H20T21524   6.395   1.130   8.522  0.7510 -0.8507  0.8463
  187SAPI   C3321525   5.531   1.018   7.111  0.4224  0.2496  0.5973
  187SAPI   H3X21526   5.470   0.950   7.048  1.6504 -0.5708  0.2506
  187SAPI   H3Y21527   5.467   1.101   7.147  0.4223  0.7050 -0.4253
  187SAPI   C3421528   5.577   0.948   7.239  0.4071  0.1809 -0.2486
  187SAPI   H4X21529   5.641   0.859   7.223  2.5366  1.3965  1.0617
  187SAPI   H4Y21530   5.481   0.909   7.280 -0.4929  1.1399 -1.3423
  187SAPI   C3521531   5.649   1.038   7.337  0.3440  0.5103 -0.1631
  187SAPI   H5X21532   5.601   1.138   7.348  1.2132  0.6736  3.7141
  187SAPI   H5Y21533   5.750   1.052   7.293  0.3182 -1.8942 -1.1259
  187SAPI   C3621534   5.662   0.976   7.474  0.1625  0.4462 -0.3412
  187SAPI   H6X21535   5.714   1.055   7.532 -0.9071 -0.6630  2.3027
  187SAPI   H6Y21536   5.734   0.891   7.470  1.2516  1.1919  1.8507
  187SAPI   C3721537   5.533   0.941   7.552 -0.1245  0.1802 -0.1427
  187SAPI   H7X21538   5.497   0.842   7.520 -0.9843  0.0057  1.2690
  187SAPI   H7Y21539   5.451   1.008   7.520 -0.4989 -1.3856 -2.6998
  187SAPI   C3821540   5.556   0.944   7.700 -0.5455  0.6597 -0.7349
  187SAPI   H8X21541   5.598   1.045   7.724  0.3081  0.1151  0.1559
  187SAPI   H8Y21542   5.646   0.889   7.735 -1.3124  0.0656  0.3776
  187SAPI   C3921543   5.433   0.918   7.789  0.8960  0.1783 -0.2644
  187SAPI   H9X21544   5.383   0.820   7.778 -1.1217  1.1631 -0.2676
  187SAPI   H9Y21545   5.367   1.003   7.762  0.8969  0.5748  0.9425
  187SAPI  C31021546   5.469   0.932   7.933 -0.3169  0.2237  0.9601
  187SAPI  H10X21547   5.478   1.040   7.957 -1.2089  0.5382 -0.0346
  187SAPI  H10Y21548   5.575   0.902   7.943 -0.2710 -0.3338 -0.8264
  187SAPI  C31121549   5.393   0.849   8.028  0.0815  0.7930 -0.5828
  187SAPI  H11X21550   5.396   0.741   8.002 -0.9702  0.9466 -1.4050
  187SAPI  H11Y21551   5.292   0.896   8.021  0.0888  0.9807  0.4662
  187SAPI  C31221552   5.432   0.871   8.170 -0.6996  0.1393  0.0380
  187SAPI  H12X21553   5.424   0.979   8.194  0.6485 -0.1298  1.9154
  187SAPI  H12Y21554   5.540   0.852   8.188 -0.5713  0.3724 -0.4710
  187SAPI  C31321555   5.340   0.792   8.268 -0.0357 -0.4779 -0.8588
  187SAPI  H13X21556   5.371   0.686   8.275  0.7180 -0.3028 -1.3829
  187SAPI  H13Y21557   5.235   0.808   8.236 -0.2149 -1.3831 -0.7225
  187SAPI  C31421558   5.341   0.846   8.414  1.2467  0.7602  0.6270
  187SAPI  H14X21559   5.276   0.778   8.474  0.3284 -0.2059 -1.3867
  187SAPI  H14Y21560   5.295   0.947   8.417 -0.5306 -0.0198  1.0791
  187SAPI  C31521561   5.472   0.852   8.480 -0.0853  0.0950  0.0107
  187SAPI  H15X21562   5.512   0.941   8.428 -0.0026 -1.0624 -1.9861
  187SAPI  H15Y21563   5.533   0.767   8.443  3.3067  0.2417  4.4182
  187SAPI  C31621564   5.473   0.871   8.636 -0.2610 -0.0724 -0.1192
  187SAPI  H16X21565   5.575   0.876   8.679 -0.8165 -1.7672  1.5614
  187SAPI  H16Y21566   5.447   0.772   8.680  1.4326 -0.4159  0.1481
  187SAPI  C31721567   5.379   0.975   8.693  0.0190  0.1922 -0.1230
  187SAPI  H17X21568   5.272   0.954   8.673 -0.4409  2.2007 -0.0147
  187SAPI  H17Y21569   5.409   1.069   8.641 -0.8541 -1.5172 -4.0050
  187SAPI  C31821570   5.397   0.989   8.848  0.6318 -0.1569  0.2726
  187SAPI  H18X21571   5.353   1.077   8.901 -0.3991 -1.1114  1.0647
  187SAPI  H18Y21572   5.508   1.001   8.855  0.5831 -0.3328  1.7568
  187SAPI  H18Z21573   5.368   0.907   8.917 -0.2821  1.4121  1.8634
  188SAPI   C1221574   0.034   1.021   6.576 -0.1659  0.2734 -1.0745
  188SAPI    H221575   0.043   0.986   6.681 -3.7627  0.9477 -0.4139
  188SAPI    O221576   0.020   1.160   6.575 -0.1260 -0.3944 -0.2496
  188SAPI   HO221577  -0.029   1.192   6.651  1.4039  1.3443  0.0931
  188SAPI   C1321578   0.160   0.974   6.499 -0.2780 -1.1007 -0.7917
  188SAPI    H321579   0.161   0.863   6.500 -1.0242 -1.1088 -0.0579
  188SAPI    O321580   0.276   1.025   6.563  0.1434  0.1042  0.2492
  188SAPI   HO321581   0.271   1.121   6.560  2.8149  0.4835  2.5463
  188SAPI   C1421582   0.149   1.016   6.353  0.0951  1.0382  0.4760
  188SAPI    H421583   0.148   1.127   6.353 -0.6065  1.0718  2.5757
  188SAPI    O421584   0.259   0.975   6.278  0.1963  0.2815  0.7112
  188SAPI   HO421585   0.340   1.020   6.301  0.5497 -0.0159  0.0650
  188SAPI   C1521586   0.018   0.958   6.301 -0.5467  0.0836 -0.1263
  188SAPI    H521587   0.030   0.847   6.303  1.6743  0.2805  0.7055
  188SAPI    O521588   0.008   0.991   6.162  0.6575  0.4260 -0.3118
  188SAPI   HO521589   0.043   0.921   6.106 -0.0965  0.7457 -1.2050
  188SAPI   C1621590  -0.114   1.002   6.381 -0.7382  0.1523 -0.5959
  188SAPI    H621591  -0.113   1.109   6.350 -0.1011  0.3842  0.1810
  188SAPI    O621592  -0.218   0.935   6.318  0.8937  0.4588 -0.0923
  188SAPI   HO621593  -0.293   0.994   6.326  0.4055 -0.1608 -0.0162
  188SAPI   C1121594  -0.094   0.959   6.524  0.3772  0.7811  0.0094
  188SAPI    H121595  -0.092   0.848   6.531  1.7591  0.7592 -0.4621
  188SAPI     P21596  -0.266   0.924   6.724 -0.1378 -0.0292 -0.4161
  188SAPI   O1321597  -0.225   0.778   6.712  0.1483 -0.5868 -0.4133
  188SAPI   O1421598  -0.411   0.953   6.732 -0.0761 -0.2900 -0.0396
  188SAPI   O1221599  -0.206   1.002   6.597  0.6000  0.2801  0.5171
  188SAPI   O1121600  -0.197   0.992   6.843 -0.1531 -0.1398 -0.7586
  188SAPI    C121601  -0.119   0.924   6.932  1.1709  0.8946 -0.3270
  188SAPI    HA21602  -0.055   0.848   6.882  0.8779  1.0001 -0.8764
  188SAPI    HB21603  -0.060   1.000   6.988  1.7765 -0.3309  0.7302
  188SAPI    C221604  -0.212   0.856   7.037 -0.6006 -0.6454 -0.1386
  188SAPI    HS21605  -0.275   0.785   6.979 -0.8065 -1.0638  0.5862
  188SAPI   O2121606  -0.301   0.954   7.097  0.5099 -0.0758  0.4657
  188SAPI   C2121607  -0.415   0.911   7.143  0.4585 -0.0110 -0.0067
  188SAPI   O2221608  -0.465   0.797   7.139 -0.0564  0.4964 -0.3402
  188SAPI   C2221609  -0.492   1.037   7.195  0.6225 -0.6108  0.1504
  188SAPI   H2R21610  -0.418   1.098   7.251  1.4811 -2.5859  1.2397
  188SAPI   H2S21611  -0.501   1.098   7.102  3.0097 -0.5657 -0.1045
  188SAPI    C321612  -0.137   0.776   7.147  0.8857  0.3835 -0.3667
  188SAPI    HX21613  -0.075   0.693   7.107  0.8514  0.0090  0.3374
  188SAPI    HY21614  -0.226   0.733   7.198  0.5505  2.0466  0.5037
  188SAPI   O3121615  -0.046   0.850   7.232 -0.4841 -0.3584  0.0905
  188SAPI   C3121616  -0.102   0.930   7.322 -1.2364 -0.5061 -0.3534
  188SAPI   O3221617  -0.217   0.944   7.357  0.3610  0.1224 -0.0694
  188SAPI   C3221618   0.012   1.013   7.393 -0.4418  0.6675 -0.3154
  188SAPI   H2X21619  -0.027   1.103   7.445 -2.7161 -1.3377  1.6816
  188SAPI   H2Y21620   0.084   1.046   7.314  1.8491  0.7714  1.6816
  188SAPI   C2321621  -0.619   1.012   7.269 -0.4649  0.4283  0.1186
  188SAPI   H3R21622  -0.684   0.933   7.226 -0.7913  0.9477 -0.3486
  188SAPI   H3S21623  -0.683   1.103   7.278 -1.7816 -0.5320  0.8098
  188SAPI   C2421624  -0.583   0.972   7.417 -0.1724  0.7075 -0.3532
  188SAPI   H4R21625  -0.513   0.888   7.400  0.2450  1.0352 -0.2546
  188SAPI   H4S21626  -0.676   0.928   7.459 -0.0585  1.7412  1.0459
  188SAPI   C2521627  -0.520   1.083   7.498  0.7015 -0.0807 -0.1614
  188SAPI   H5R21628  -0.410   1.078   7.497  0.8766  1.9999 -2.4260
  188SAPI   C2621629  -0.581   1.190   7.555 -0.9648  0.5607 -0.5311
  188SAPI   H6R21630  -0.511   1.255   7.611 -0.6833 -0.6745  0.6092
  188SAPI   C2721631  -0.733   1.210   7.569 -0.1510  0.7405 -0.0612
  188SAPI   H7R21632  -0.760   1.238   7.673 -1.2639 -0.3328 -0.0432
  188SAPI   H7S21633  -0.790   1.115   7.563 -1.3170  1.3640  0.8280
  188SAPI   C2821634  -0.781   1.305   7.465  0.3704  0.2821 -0.6774
  188SAPI   H8R21635  -0.732   1.293   7.367  1.8228  0.9445 -0.0593
  188SAPI   C2921636  -0.876   1.398   7.486 -0.1402 -0.2708  0.7359
  188SAPI   H9R21637  -0.912   1.462   7.404 -0.2628 -2.5026 -1.0562
  188SAPI  C21021638  -0.952   1.432   7.612  0.1458 -0.2040  0.3193
  188SAPI  H10R21639  -0.972   1.541   7.622 -0.5704 -0.1543 -1.2984
  188SAPI  H10S21640  -0.878   1.415   7.693  0.7334 -0.0147 -0.1707
  188SAPI  C21121641  -1.080   1.347   7.631 -0.4636 -0.5222  0.5482
  188SAPI  H11R21642  -1.122   1.324   7.532  0.8281  0.7232 -0.3373
  188SAPI  C21221643  -1.145   1.307   7.744 -0.3429  0.4217 -0.0730
  188SAPI  H12R21644  -1.239   1.251   7.728 -0.5104 -0.0846  2.3565
  188SAPI  C21321645  -1.105   1.323   7.888  1.2147  0.2515 -0.7018
  188SAPI  H13R21646  -1.201   1.313   7.942 -0.0127  0.6212 -2.6934
  188SAPI  H13S21647  -1.074   1.430   7.889  0.3050  0.5189  0.1054
  188SAPI  C21421648  -0.987   1.244   7.944 -0.8751 -0.0880  0.2349
  188SAPI  H14R21649  -0.901   1.254   7.876 -2.0041 -2.1254 -1.6452
  188SAPI  C21521650  -0.974   1.180   8.059  0.6952  0.7785  0.2646
  188SAPI  H15R21651  -0.876   1.132   8.078 -0.0043 -0.7210  0.2153
  188SAPI  C21621652  -1.078   1.168   8.162  0.2884 -0.8966 -0.3124
  188SAPI  H16R21653  -1.129   1.070   8.172  0.0937 -0.7567  0.1354
  188SAPI  H16S21654  -1.155   1.246   8.142  0.8193 -0.5676 -1.1009
  188SAPI  C21721655  -1.026   1.215   8.296  0.4671  0.4288 -0.0612
  188SAPI  H17R21656  -0.954   1.300   8.290  2.4976 -1.1589  0.7503
  188SAPI  H17S21657  -0.970   1.134   8.346  0.5519  0.9369  0.6923
  188SAPI  C21821658  -1.143   1.265   8.388 -0.1888 -0.1954  0.6052
  188SAPI  H18R21659  -1.213   1.185   8.419  1.3755 -1.3398  1.2720
  188SAPI  H18S21660  -1.193   1.334   8.316  1.0592 -0.4322 -0.5506
  188SAPI  C21921661  -1.094   1.321   8.515 -1.1088  0.2449  0.9133
  188SAPI  H19R21662  -1.183   1.356   8.571 -1.1713  0.8899  0.4204
  188SAPI  H19S21663  -1.039   1.415   8.494 -1.1253  0.1104  0.2438
  188SAPI  C22021664  -1.020   1.216   8.604 -0.0685 -0.0562  0.1220
  188SAPI  H20R21665  -1.085   1.128   8.623  0.1919 -1.5375 -4.7185
  188SAPI  H20S21666  -0.996   1.266   8.701  0.1853  0.5847 -0.2667
  188SAPI  H20T21667  -0.924   1.191   8.555 -0.5896 -0.6401 -0.6088
  188SAPI   C3321668   0.083   0.930   7.510 -0.6309 -0.2647  0.3850
  188SAPI   H3X21669   0.173   0.974   7.556  1.0921 -1.9287 -1.2166
  188SAPI   H3Y21670   0.114   0.835   7.461  0.7088  0.3194  0.0795
  188SAPI   C3421671  -0.011   0.903   7.628 -0.0011  0.4825 -0.5775
  188SAPI   H4X21672  -0.102   0.845   7.601 -2.4458  2.8222  1.9652
  188SAPI   H4Y21673  -0.045   0.999   7.672 -0.3079  0.0297  0.1962
  188SAPI   C3521674   0.047   0.818   7.751 -0.1971  0.1713  0.7128
  188SAPI   H5X21675   0.141   0.871   7.776 -0.4882  0.6879  0.7390
  188SAPI   H5Y21676   0.077   0.713   7.728  0.5896  0.2456  1.3652
  188SAPI   C3621677  -0.038   0.810   7.874  0.4244  0.3685 -0.6782
  188SAPI   H6X21678  -0.132   0.758   7.845  0.4748 -1.3312  1.8817
  188SAPI   H6Y21679  -0.063   0.910   7.916  0.2898 -0.1216  0.4238
  188SAPI   C3721680   0.031   0.725   7.983  0.4469 -0.0578 -0.3317
  188SAPI   H7X21681   0.134   0.762   8.001  0.2751  2.1465 -3.1794
  188SAPI   H7Y21682   0.048   0.622   7.945 -2.4363 -1.0970  0.9129
  188SAPI   C3821683  -0.047   0.717   8.117  0.9576 -0.2493  0.4505
  188SAPI   H8X21684   0.001   0.642   8.183  1.6478 -2.1690 -2.0757
  188SAPI   H8Y21685  -0.150   0.681   8.098  1.9055 -2.5282 -0.7172
  188SAPI   C3921686  -0.044   0.850   8.187  0.5990 -0.1811 -0.0309
  188SAPI   H9X21687  -0.148   0.880   8.212  0.0374 -0.2155 -2.1604
  188SAPI   H9Y21688   0.015   0.921   8.124  0.3811 -2.1151 -2.5570
  188SAPI  C31021689   0.032   0.845   8.313  0.2737 -0.2157  0.9042
  188SAPI  H10X21690   0.079   0.941   8.344  0.8812  0.1647 -1.1168
  188SAPI  H10Y21691   0.113   0.772   8.295 -1.6272 -2.1695 -0.2529
  188SAPI  C31121692  -0.044   0.784   8.428  0.1281  1.3337 -1.1519
  188SAPI  H11X21693  -0.099   0.689   8.409 -0.7848  0.9540  2.5795
  188SAPI  H11Y21694  -0.128   0.847   8.463 -0.9889 -0.4225 -0.5134
  188SAPI  C31221695   0.039   0.766   8.555  0.0997 -0.3522  0.2225
  188SAPI  H12X21696   0.137   0.727   8.520  0.4373 -0.6852  1.4728
  188SAPI  H12Y21697  -0.012   0.681   8.605  0.2527 -0.7394 -0.2733
  188SAPI  C31321698   0.040   0.893   8.645 -0.1713  0.2285 -0.2560
  188SAPI  H13X21699   0.046   0.988   8.588 -0.1859 -0.4182 -1.3713
  188SAPI  H13Y21700   0.139   0.885   8.694  0.5933  3.2000 -1.1282
  188SAPI  C31421701  -0.069   0.904   8.761 -0.7295  0.3464  0.1652
  188SAPI  H14X21702  -0.068   0.804   8.809  2.4240  0.9749  1.6566
  188SAPI  H14Y21703  -0.172   0.913   8.720 -0.6237 -0.8484 -0.3978
  188SAPI  C31521704  -0.040   1.011   8.857  0.2425 -0.7191 -0.4443
  188SAPI  H15X21705  -0.124   1.029   8.927 -0.1377  0.8637 -1.2434
  188SAPI  H15Y21706  -0.048   1.114   8.816 -0.5408 -0.9767 -0.9650
  188SAPI  C31621707   0.086   0.999   8.937 -1.1541  0.1486 -0.0021
  188SAPI  H16X21708   0.167   1.006   8.861 -0.4831 -0.1584  0.6800
  188SAPI  H16Y21709   0.084   0.893   8.969 -2.1421  0.0829 -0.2400
  188SAPI  C31721710   0.124   1.095   9.054  0.8039  0.1199  0.2002
  188SAPI  H17X21711   0.048   1.101   9.135  1.0991 -2.0621  0.7041
  188SAPI  H17Y21712   0.135   1.202   9.026  0.1153  0.4889  1.2880
  188SAPI  C31821713   0.267   1.070   9.109 -0.9110  0.4223  0.3145
  188SAPI  H18X21714   0.271   0.989   9.185 -1.6274  1.5208  1.5731
  188SAPI  H18Y21715   0.308   1.166   9.149 -0.8948 -0.2793  2.0760
  188SAPI  H18Z21716   0.331   1.034   9.025 -1.6307  0.5638 -0.3030
  189POPC     N21717   3.724   1.578  11.330 -0.3614 -0.2634 -0.0174
  189POPC   C1221718   3.757   1.587  11.181  0.1976  0.3375 -0.6994
  189POPC  H12A21719   3.662   1.588  11.130 -1.3629  0.8669  2.0093
  189POPC  H12B21720   3.807   1.497  11.147 -0.1997  0.3687 -1.3870
  189POPC   C1321721   3.645   1.701  11.362  0.4468 -0.1234  0.4526
  189POPC  H13A21722   3.710   1.787  11.363  2.3653 -1.4843 -1.1358
  189POPC  H13B21723   3.560   1.721  11.298  0.8346 -0.7636 -0.2688
  189POPC  H13C21724   3.600   1.693  11.460 -0.3262 -0.8084  0.0620
  189POPC   C1421725   3.651   1.462  11.369  0.3831  0.7998 -0.6127
  189POPC  H14A21726   3.551   1.471  11.330 -0.7495 -1.1675  1.6069
  189POPC  H14B21727   3.691   1.364  11.348  1.4082  0.9581  0.5100
  189POPC  H14C21728   3.634   1.462  11.476  0.3310  0.2198 -0.6192
  189POPC   C1521729   3.852   1.576  11.412  0.4428  0.3998 -0.1044
  189POPC  H15A21730   3.918   1.661  11.395 -0.8479  1.8027  1.5537
  189POPC  H15B21731   3.907   1.484  11.404 -0.2579  0.1058 -2.1061
  189POPC  H15C21732   3.830   1.585  11.517  0.1770  2.8023 -0.3000
  189POPC   C1121733   3.835   1.709  11.119 -0.5935 -0.4653 -0.0514
  189POPC  H11A21734   3.844   1.678  11.012 -1.9735  0.4641 -0.4564
  189POPC  H11B21735   3.935   1.705  11.169 -0.7135 -0.7484  0.1702
  189POPC     P21736   3.654   1.861  11.037  0.5404 -0.3501  0.1232
  189POPC   O1321737   3.574   1.979  11.079 -0.1688  0.4859  0.1791
  189POPC   O1421738   3.572   1.741  11.022 -0.5076 -0.3713  0.6813
  189POPC   O1221739   3.778   1.840  11.139 -0.2664 -0.1464  0.1634
  189POPC   O1121740   3.721   1.886  10.895  0.3072 -0.1090  0.2216
  189POPC    C121741   3.811   2.004  10.882 -0.0463  0.5817 -0.3749
  189POPC    HA21742   3.902   1.976  10.825 -0.1748 -0.0978 -0.2553
  189POPC    HB21743   3.853   2.035  10.980  0.0280  0.7369 -0.4557
  189POPC    C221744   3.753   2.119  10.798 -0.0009 -0.2128  0.5492
  189POPC    HS21745   3.651   2.142  10.834  0.3021 -1.7176  2.4937
  189POPC   O2121746   3.746   2.086  10.656 -0.2535 -0.1962  0.9508
  189POPC   C2121747   3.632   2.033  10.611  0.2758 -0.3583 -0.1365
  189POPC   O2221748   3.528   2.033  10.674  0.5501  0.3307  0.2701
  189POPC   C2221749   3.651   1.967  10.474 -0.4728  0.7816 -0.0984
  189POPC   H2R21750   3.754   1.926  10.481 -0.9308 -0.1593  2.2776
  189POPC   H2S21751   3.648   2.038  10.388 -1.1708  1.5413  0.5252
  189POPC    C321752   3.831   2.257  10.811  0.2444 -0.1147 -0.0935
  189POPC    HX21753   3.928   2.250  10.758  0.7092  0.2083  0.6957
  189POPC    HY21754   3.839   2.284  10.918 -1.3493  1.6272 -0.3639
  189POPC   O3121755   3.749   2.363  10.751 -0.1098 -0.0370 -0.4919
  189POPC   C3121756   3.796   2.436  10.656  0.3244  0.4585 -0.0618
  189POPC   O3221757   3.907   2.436  10.610  0.1217 -0.0096  0.2193
  189POPC   C3221758   3.689   2.539  10.616  0.5212  0.1999  0.0125
  189POPC   H2X21759   3.737   2.610  10.545  1.0517 -0.3402 -0.1783
  189POPC   H2Y21760   3.665   2.597  10.708 -1.9885 -1.1562  0.2843
  189POPC   C2321761   3.552   1.851  10.461 -0.2233  0.1540 -0.5282
  189POPC   H3R21762   3.446   1.884  10.453 -0.3966 -0.2992 -0.1598
  189POPC   H3S21763   3.561   1.787  10.551 -1.7346 -0.2085 -0.6043
  189POPC   C2421764   3.566   1.766  10.335 -0.1398 -0.3037 -0.4341
  189POPC   H4R21765   3.511   1.670  10.338  2.4961 -2.1273 -3.0772
  189POPC   H4S21766   3.674   1.739  10.344 -0.0601 -0.3539 -1.3840
  189POPC   C2521767   3.539   1.844  10.200  0.2902  0.3101 -0.0747
  189POPC   H5R21768   3.617   1.922  10.208  0.5598  0.2055 -1.5293
  189POPC   H5S21769   3.436   1.887  10.197  0.2517  0.1800 -0.6964
  189POPC   C2621770   3.562   1.767  10.074 -0.3438  0.1895 -0.3879
  189POPC   H6R21771   3.504   1.673  10.084  0.9987 -0.4724  1.8311
  189POPC   H6S21772   3.668   1.737  10.055 -0.0848  2.0101 -2.0813
  189POPC   C2721773   3.486   1.826   9.948  0.0730 -0.3651  0.4317
  189POPC   H7R21774   3.530   1.924   9.921 -1.2320  0.7644  2.1936
  189POPC   H7S21775   3.384   1.858   9.980 -0.2412  1.4203 -2.0076
  189POPC   C2821776   3.472   1.730   9.829  0.3053 -0.4454  0.3100
  189POPC   H8R21777   3.381   1.761   9.773  0.4337  1.2092  0.9659
  189POPC   H8S21778   3.447   1.627   9.863  0.8840 -0.9833 -0.8401
  189POPC   C2921779   3.595   1.740   9.747 -0.6495  0.2947  0.4543
  189POPC   H9121780   3.694   1.732   9.793 -0.2696 -1.6250 -0.5710
  189POPC  C21021781   3.609   1.754   9.613 -0.0116 -0.5457 -0.5023
  189POPC  H10121782   3.709   1.770   9.570 -0.8219  1.2842 -1.8099
  189POPC  C21121783   3.492   1.775   9.519  0.1119 -0.3873  0.2788
  189POPC  H11R21784   3.501   1.877   9.476 -0.3304  0.1277  1.3639
  189POPC  H11S21785   3.398   1.784   9.578  1.6938  1.0027  2.7523
  189POPC  C21221786   3.476   1.664   9.414 -0.2034  0.8884 -0.1720
  189POPC  H12R21787   3.380   1.688   9.363 -0.7873  0.4837  0.6961
  189POPC  H12S21788   3.474   1.563   9.461 -1.3979  0.6086 -0.7765
  189POPC  C21321789   3.578   1.673   9.302  0.1137 -0.7666  0.3974
  189POPC  H13R21790   3.675   1.655   9.354  0.4514  1.5261  0.6765
  189POPC  H13S21791   3.594   1.774   9.258 -1.3790 -0.5682  0.2663
  189POPC  C21421792   3.575   1.564   9.196 -0.6190  0.7632 -0.3778
  189POPC  H14R21793   3.537   1.471   9.243  0.6389  0.9969  1.1841
  189POPC  H14S21794   3.674   1.540   9.153 -1.8294 -0.0132 -2.9148
  189POPC  C21521795   3.489   1.602   9.067  0.7268  0.2293 -0.0157
  189POPC  H15R21796   3.554   1.678   9.019  0.0557  0.8059 -0.0145
  189POPC  H15S21797   3.394   1.641   9.109  1.6061  0.7412  1.5515
  189POPC  C21621798   3.462   1.487   8.971  1.1056  0.0268  0.7183
  189POPC  H16R21799   3.421   1.408   9.039 -0.3846 -0.2359 -0.4352
  189POPC  H16S21800   3.551   1.451   8.915  2.2247 -0.7966  2.8793
  189POPC  C21721801   3.350   1.530   8.866  0.4036  0.7606 -0.2656
  189POPC  H17R21802   3.265   1.585   8.911  0.1570  0.7297 -0.6892
  189POPC  H17S21803   3.301   1.438   8.827  1.2015  1.0263 -1.9957
  189POPC  C21821804   3.409   1.617   8.759  0.2693 -0.0583  0.4050
  189POPC  H18R21805   3.330   1.679   8.712 -1.5111 -1.3918  1.5264
  189POPC  H18S21806   3.451   1.552   8.679 -2.8744 -1.2165 -0.4646
  189POPC  H18T21807   3.478   1.693   8.801  1.4481 -0.9058  0.0730
  189POPC   C3321808   3.560   2.466  10.573  0.1182 -0.5213  0.5775
  189POPC   H3X21809   3.480   2.541  10.551  0.4988 -0.6122 -1.3330
  189POPC   H3Y21810   3.519   2.393  10.646  1.3208 -1.1508  0.6499
  189POPC   C3421811   3.585   2.378  10.450  0.1994  0.0671  0.4810
  189POPC   H4X21812   3.635   2.282  10.475  0.6064 -0.0401 -0.6729
  189POPC   H4Y21813   3.652   2.423  10.373  0.5402 -0.0572  0.7004
  189POPC   C3521814   3.453   2.341  10.386  0.1768  0.4152 -0.2003
  189POPC   H5X21815   3.400   2.435  10.362  1.7456  1.3932  0.0725
  189POPC   H5Y21816   3.395   2.293  10.468  1.5089 -3.0634 -1.0727
  189POPC   C3621817   3.462   2.252  10.262 -0.0284 -0.0610  0.0172
  189POPC   H6X21818   3.527   2.163  10.276 -0.9171 -1.0445 -1.8755
  189POPC   H6Y21819   3.520   2.311  10.188 -0.3569  0.5149  0.2097
  189POPC   C3721820   3.333   2.219  10.191  0.2671  1.1619  0.0002
  189POPC   H7X21821   3.269   2.310  10.189 -1.5638 -0.0938 -1.3450
  189POPC   H7Y21822   3.281   2.148  10.259  0.8048 -2.0533 -2.7001
  189POPC   C3821823   3.355   2.144  10.055 -0.2420  0.8775 -0.5633
  189POPC   H8X21824   3.264   2.112  10.001  1.2951 -0.7709 -2.3383
  189POPC   H8Y21825   3.423   2.060  10.081 -2.3029 -0.2733  1.3641
  189POPC   C3921826   3.439   2.226   9.952  0.4856 -0.2656  0.1741
  189POPC   H9X21827   3.543   2.250   9.981  0.5650  1.5567 -1.3494
  189POPC   H9Y21828   3.397   2.329   9.945 -0.5852 -0.6059  1.2152
  189POPC  C31021829   3.441   2.170   9.812 -0.2736  0.2921  0.3632
  189POPC  H10X21830   3.339   2.139   9.781 -0.8169  2.7522 -0.4732
  189POPC  H10Y21831   3.497   2.075   9.803  1.5437  1.3757 -0.1598
  189POPC  C31121832   3.501   2.268   9.707  0.2108 -0.3091 -1.0805
  189POPC  H11X21833   3.603   2.302   9.734 -0.3630 -0.6901  1.9485
  189POPC  H11Y21834   3.437   2.359   9.708  0.9201  0.2819  2.5424
  189POPC  C31221835   3.499   2.215   9.565  0.1176 -0.4071  0.9904
  189POPC  H12X21836   3.576   2.135   9.557 -0.6780 -1.3477  2.2738
  189POPC  H12Y21837   3.538   2.293   9.496  0.6310 -1.0980  0.4772
  189POPC  C31321838   3.359   2.166   9.523  0.7517 -0.5199 -0.1261
  189POPC  H13X21839   3.286   2.246   9.544  0.4060 -0.9833  0.4784
  189POPC  H13Y21840   3.320   2.073   9.572 -0.3489 -0.1128 -0.2043
  189POPC  C31421841   3.351   2.142   9.370  0.1996  0.1823 -0.0976
  189POPC  H14X21842   3.410   2.051   9.344 -1.3993 -0.7650 -0.5432
  189POPC  H14Y21843   3.404   2.225   9.319 -0.1035 -1.0930 -2.6410
  189POPC  C31521844   3.213   2.106   9.314  0.2888  0.7345  0.0327
  189POPC  H15X21845   3.150   2.196   9.329 -0.6604  0.2728 -1.0460
  189POPC  H15Y21846   3.172   2.015   9.362  1.7308 -0.3519 -0.7113
  189POPC  C31621847   3.213   2.065   9.163 -0.2115 -0.5485 -0.2618
  189POPC  H16X21848   3.295   2.119   9.111  1.4955  0.2762  2.9729
  189POPC  H16Y21849   3.119   2.102   9.116 -0.0336  1.3868  0.7667
  189POPC  H16Z21850   3.222   1.955   9.154  0.5940 -0.4846 -0.2702
  190POPC     N21851   0.040   5.593  11.421 -0.3166  0.5177  0.3620
  190POPC   C1221852  -0.038   5.590  11.288 -0.9862  0.2260 -0.3262
  190POPC  H12A21853  -0.069   5.692  11.268 -0.7383  1.0022  2.6423
  190POPC  H12B21854  -0.129   5.536  11.304 -1.6303  1.4489  0.2882
  190POPC   C1321855  -0.053   5.636  11.527 -0.3607 -0.2733 -0.5258
  190POPC  H13A21856  -0.007   5.612  11.622  0.4631 -1.1803 -1.1276
  190POPC  H13B21857  -0.070   5.741  11.547  0.6584 -0.2306  0.2008
  190POPC  H13C21858  -0.146   5.582  11.529 -1.8554  2.1931  0.7103
  190POPC   C1421859   0.110   5.461  11.439  0.0823 -0.4778  0.4236
  190POPC  H14A21860   0.183   5.469  11.519  0.1700 -0.2957  0.3274
  190POPC  H14B21861   0.034   5.386  11.456 -1.2931  0.5078 -1.1075
  190POPC  H14C21862   0.165   5.434  11.350 -2.3003 -0.3477 -1.1534
  190POPC   C1521863   0.144   5.696  11.408 -0.5253 -0.3419  0.4433
  190POPC  H15A21864   0.195   5.680  11.314 -1.2614 -2.4973  0.3415
  190POPC  H15B21865   0.219   5.697  11.486  2.4224 -0.9393 -2.1953
  190POPC  H15C21866   0.104   5.796  11.402  0.8335  0.2382  0.5813
  190POPC   C1121867   0.020   5.551  11.149  1.0601 -0.1898  0.0108
  190POPC  H11A21868  -0.050   5.565  11.063  2.7647 -0.0800 -1.4096
  190POPC  H11B21869   0.052   5.445  11.160  0.8729 -0.4068 -1.3146
  190POPC     P21870   0.267   5.575  11.074 -0.0439 -0.0394 -0.2764
  190POPC   O1321871   0.332   5.483  11.174 -0.0972  0.1485 -0.5604
  190POPC   O1421872   0.354   5.679  11.011  0.7875 -0.5195  0.1194
  190POPC   O1221873   0.132   5.634  11.119  0.1032 -0.2907 -0.1001
  190POPC   O1121874   0.228   5.484  10.953 -0.0204  0.2771 -0.6290
  190POPC    C121875   0.136   5.523  10.858 -0.4864  0.2724  0.3276
  190POPC    HA21876   0.187   5.532  10.760  0.4501  2.6805  0.9792
  190POPC    HB21877   0.090   5.621  10.881 -1.5612 -0.2556  0.4733
  190POPC    C221878   0.017   5.422  10.835 -0.2640  0.3521  0.2796
  190POPC    HS21879  -0.030   5.382  10.927 -1.8842 -0.6501 -0.9296
  190POPC   O2121880   0.075   5.308  10.764 -0.3655 -0.9246 -0.2951
  190POPC   C2121881   0.016   5.193  10.745  0.0868 -0.3830  0.5044
  190POPC   O2221882  -0.093   5.165  10.794  0.4563  0.2589  0.4167
  190POPC   C2221883   0.087   5.121  10.628 -0.8337 -0.2726  0.8707
  190POPC   H2R21884   0.187   5.082  10.657 -0.2064  1.1195  0.6728
  190POPC   H2S21885   0.111   5.199  10.552 -0.3797 -1.1834  0.0567
  190POPC    C321886  -0.099   5.487  10.768 -0.3750  0.3492  0.0029
  190POPC    HX21887  -0.121   5.589  10.806  2.4078  0.9575  0.2404
  190POPC    HY21888  -0.188   5.428  10.797  0.4625 -1.1674 -0.3931
  190POPC   O3121889  -0.088   5.504  10.625 -0.7031  0.1432  0.4463
  190POPC   C3121890  -0.200   5.474  10.558  0.0715 -0.4494  0.3301
  190POPC   O3221891  -0.301   5.431  10.607  0.3570 -0.7769  0.1039
  190POPC   C3221892  -0.171   5.509  10.402  0.5890 -0.3073 -0.3184
  190POPC   H2X21893  -0.101   5.431  10.364  0.8976 -0.1110 -0.1612
  190POPC   H2Y21894  -0.116   5.606  10.403  2.2045 -1.1829 -0.3175
  190POPC   C2321895  -0.007   5.012  10.579 -0.4849 -0.2507  0.3546
  190POPC   H3R21896  -0.115   5.033  10.596 -0.1730  0.2507  1.9568
  190POPC   H3S21897   0.007   4.916  10.632 -1.7467 -0.3230  0.5982
  190POPC   C2421898   0.019   4.982  10.430 -0.5724 -0.2594 -0.4532
  190POPC   H4R21899   0.119   4.938  10.411 -0.7907  0.1818 -2.8830
  190POPC   H4S21900   0.009   5.075  10.370 -1.4456 -1.9315 -3.0331
  190POPC   C2521901  -0.089   4.899  10.369  0.8148 -0.3007  0.7357
  190POPC   H5R21902  -0.174   4.965  10.344  1.4993  0.3191 -0.0124
  190POPC   H5S21903  -0.139   4.836  10.446 -0.5497  2.0327  1.8816
  190POPC   C2621904  -0.048   4.813  10.248  0.3717 -0.2437 -0.5153
  190POPC   H6R21905  -0.127   4.744  10.213  0.4955 -0.9394  0.5265
  190POPC   H6S21906   0.029   4.741  10.284 -1.4741 -1.8351  0.4663
  190POPC   C2721907   0.008   4.897  10.135 -0.3023 -1.1588 -0.1436
  190POPC   H7R21908   0.106   4.930  10.176 -0.0378  0.1560 -1.7330
  190POPC   H7S21909  -0.058   4.984  10.118 -0.3745 -0.9914  0.9354
  190POPC   C2821910   0.019   4.817  10.005 -0.3584 -0.2730 -0.4297
  190POPC   H8R21911   0.030   4.890   9.922 -2.1945  0.5824  0.0169
  190POPC   H8S21912  -0.079   4.773   9.976 -0.3298  0.8779 -2.4734
  190POPC   C2921913   0.120   4.707  10.012  0.2424 -0.2973  0.5600
  190POPC   H9121914   0.112   4.661  10.112 -0.5309 -3.2212 -0.7515
  190POPC  C21021915   0.209   4.659   9.918 -0.1657  0.1475  0.3052
  190POPC  H10121916   0.269   4.570   9.941 -2.3348 -1.5319 -0.2153
  190POPC  C21121917   0.227   4.704   9.773 -0.0319  0.1503 -1.0472
  190POPC  H11R21918   0.133   4.749   9.736 -0.7231  1.7753  2.3359
  190POPC  H11S21919   0.245   4.612   9.712  0.1539 -0.5446  0.0255
  190POPC  C21221920   0.337   4.808   9.746  0.1032  0.1001 -0.0295
  190POPC  H12R21921   0.340   4.834   9.638  1.7150  1.4143  0.2854
  190POPC  H12S21922   0.436   4.757   9.755 -0.0628 -0.6205 -1.8038
  190POPC  C21321923   0.343   4.943   9.825 -0.0290 -0.2274 -0.7249
  190POPC  H13R21924   0.282   4.924   9.915  1.9819 -0.5050  0.6573
  190POPC  H13S21925   0.292   5.026   9.772  0.1300  1.0234  1.0204
  190POPC  C21421926   0.488   4.978   9.868  0.5791  0.7278  0.1682
  190POPC  H14R21927   0.502   5.083   9.901 -0.5233  1.3875 -1.3177
  190POPC  H14S21928   0.555   4.963   9.780  1.1496 -0.8298  0.8431
  190POPC  C21521929   0.546   4.888   9.986 -0.1832 -0.0872 -0.0025
  190POPC  H15R21930   0.530   4.785   9.949 -1.1239  0.2233 -0.5097
  190POPC  H15S21931   0.498   4.913  10.083  2.2308  1.1316  0.9652
  190POPC  C21621932   0.695   4.897  10.012 -0.9562 -0.3851  0.4593
  190POPC  H16R21933   0.719   4.979  10.083  1.3067 -1.0480  0.5339
  190POPC  H16S21934   0.754   4.908   9.919 -0.9731  0.6201  0.5533
  190POPC  C21721935   0.756   4.771  10.073 -0.4261  0.7250 -0.4570
  190POPC  H17R21936   0.866   4.775  10.086 -0.1786  0.1815 -2.0861
  190POPC  H17S21937   0.743   4.679  10.012  1.1294 -0.1472  0.4834
  190POPC  C21821938   0.682   4.737  10.205  0.0100  0.1021  0.6668
  190POPC  H18R21939   0.718   4.645  10.256 -1.8653 -1.2051 -0.3045
  190POPC  H18S21940   0.574   4.718  10.189 -0.0393 -0.0455  1.1418
  190POPC  H18T21941   0.695   4.825  10.272 -1.8308  0.7176  0.2649
  190POPC   C3321942  -0.306   5.504  10.328 -0.6366 -0.6524  0.0400
  190POPC   H3X21943  -0.302   5.541  10.223  0.1592 -0.9638 -0.0464
  190POPC   H3Y21944  -0.374   5.576  10.379  1.7269  0.8272  1.2901
  190POPC   C3421945  -0.379   5.363  10.321 -0.6789 -0.0932 -0.4702
  190POPC   H4X21946  -0.481   5.390  10.286 -0.6450 -0.2903 -0.7228
  190POPC   H4Y21947  -0.398   5.316  10.420  2.5240 -0.6337 -0.0020
  190POPC   C3521948  -0.308   5.262  10.223  0.5406  0.5785  0.6715
  190POPC   H5X21949  -0.387   5.185  10.209  1.7807 -0.4651 -0.8687
  190POPC   H5Y21950  -0.219   5.209  10.262  0.4455  0.4687  0.7419
  190POPC   C3621951  -0.267   5.329  10.085  0.2967 -0.4699  0.2315
  190POPC   H6X21952  -0.191   5.407  10.110 -2.0434  1.5564  1.6206
  190POPC   H6Y21953  -0.351   5.385  10.038  1.3240  0.6927 -0.2587
  190POPC   C3721954  -0.196   5.238   9.987  0.6983 -0.5797 -0.3645
  190POPC   H7X21955  -0.252   5.148   9.955 -0.9656  0.7796 -1.4674
  190POPC   H7Y21956  -0.109   5.195  10.041  0.7769 -0.3959 -0.3434
  190POPC   C3821957  -0.156   5.302   9.861 -0.1408  0.2028  0.1006
  190POPC   H8X21958  -0.089   5.382   9.899 -0.6861 -0.6809  3.1553
  190POPC   H8Y21959  -0.238   5.355   9.808  0.2247 -0.2636 -0.9652
  190POPC   C3921960  -0.085   5.204   9.762  0.5182 -0.1027 -0.0679
  190POPC   H9X21961  -0.160   5.161   9.692 -1.1095 -0.0658  1.5650
  190POPC   H9Y21962  -0.046   5.115   9.817  0.3039 -2.1023 -2.9276
  190POPC  C31021963   0.016   5.275   9.676  0.2328  0.2415  0.6268
  190POPC  H10X21964   0.085   5.338   9.736  0.0422 -0.1880  1.3231
  190POPC  H10Y21965  -0.044   5.336   9.606  0.0368 -0.8061 -0.1391
  190POPC  C31121966   0.079   5.167   9.578 -0.0479 -0.4858  0.1871
  190POPC  H11X21967  -0.004   5.111   9.529  1.3916 -3.8794  1.3351
  190POPC  H11Y21968   0.148   5.105   9.639  0.7605  0.6645  0.4593
  190POPC  C31221969   0.154   5.232   9.461 -0.4651  0.2203  0.3429
  190POPC  H12X21970   0.208   5.321   9.499 -0.6125 -0.1068  1.3576
  190POPC  H12Y21971   0.077   5.280   9.397 -1.0896 -0.7539  0.3433
  190POPC  C31321972   0.249   5.129   9.392  0.8487  0.2822 -0.1994
  190POPC  H13X21973   0.178   5.068   9.332  2.1929 -0.4426 -1.1045
  190POPC  H13Y21974   0.294   5.066   9.471 -1.2019 -2.0838 -0.8072
  190POPC  C31421975   0.360   5.196   9.309 -0.2785  0.5377  0.6007
  190POPC  H14X21976   0.427   5.253   9.376  1.1484  0.9702 -1.1000
  190POPC  H14Y21977   0.325   5.261   9.225  0.9364  1.5214  0.8403
  190POPC  C31521978   0.444   5.091   9.233 -1.0589 -0.1420 -0.0068
  190POPC  H15X21979   0.456   5.007   9.305 -2.5206  0.5070  1.0471
  190POPC  H15Y21980   0.549   5.129   9.228 -0.1182 -2.5572  0.1649
  190POPC  C31621981   0.408   5.069   9.090  0.3144  0.2941  0.3135
  190POPC  H16X21982   0.487   5.012   9.037  0.2631  0.5583 -0.0445
  190POPC  H16Y21983   0.392   5.172   9.051 -0.3285  0.1036  0.0703
  190POPC  H16Z21984   0.309   5.021   9.079  1.2219 -1.3786 -1.0459
  191POPC     N21985   3.503   5.454   6.223  0.2381 -0.9212 -0.1862
  191POPC   C1221986   3.636   5.476   6.276  0.1459 -0.0011 -0.5371
  191POPC  H12A21987   3.683   5.379   6.283 -2.7078 -1.4588  0.0488
  191POPC  H12B21988   3.632   5.498   6.382 -0.0398  2.1161 -0.9322
  191POPC   C1321989   3.499   5.428   6.078  0.5020  0.6023 -0.0247
  191POPC  H13A21990   3.571   5.496   6.034  0.6326  0.2923 -0.2943
  191POPC  H13B21991   3.526   5.324   6.066 -2.5069 -0.4010  1.0559
  191POPC  H13C21992   3.404   5.461   6.038  1.2847 -0.4649 -2.9884
  191POPC   C1421993   3.433   5.342   6.295  0.5051  0.7439  0.8478
  191POPC  H14A21994   3.342   5.312   6.244  1.3979  0.0041 -0.3913
  191POPC  H14B21995   3.490   5.250   6.292  1.7589  1.5165  0.6291
  191POPC  H14C21996   3.414   5.363   6.399 -2.0118  1.4506  0.3172
  191POPC   C1521997   3.415   5.580   6.244  0.3322  0.1003 -0.2074
  191POPC  H15A21998   3.454   5.670   6.199  1.0953 -1.0587 -1.9727
  191POPC  H15B21999   3.403   5.596   6.350  2.2800  1.3513 -0.1222
  191POPC  H15C22000   3.315   5.565   6.208  0.5303 -0.0128 -0.7166
  191POPC   C1122001   3.731   5.584   6.217 -0.4921 -0.5860  0.2624
  191POPC  H11A22002   3.744   5.562   6.109 -1.6686 -2.5451  0.4736
  191POPC  H11B22003   3.830   5.570   6.265 -1.5744 -2.2049  2.1605
  191POPC     P22004   3.714   5.812   6.350  0.0468 -0.0422 -0.0410
  191POPC   O1322005   3.620   5.925   6.368  0.0877  0.6128 -0.4123
  191POPC   O1422006   3.855   5.848   6.325  0.2219 -0.1019  0.4258
  191POPC   O1222007   3.673   5.716   6.229  0.2172  0.2433  0.2370
  191POPC   O1122008   3.706   5.724   6.478  0.3172 -0.2083 -0.0030
  191POPC    C122009   3.579   5.712   6.553 -0.1835 -0.3541  0.2728
  191POPC    HA22010   3.577   5.609   6.595  2.4310  0.2090  1.9662
  191POPC    HB22011   3.488   5.730   6.491 -0.1805 -1.2776 -0.0149
  191POPC    C222012   3.562   5.817   6.669 -0.2207 -0.8665  0.6763
  191POPC    HS22013   3.494   5.899   6.636 -1.4270 -1.8467  0.6480
  191POPC   O2122014   3.693   5.854   6.720 -0.0585 -0.0052 -0.2536
  191POPC   C2122015   3.712   5.977   6.772  0.3490 -0.6243  0.1493
  191POPC   O2222016   3.621   6.061   6.768  0.3194  0.3121 -0.0656
  191POPC   C2222017   3.868   6.003   6.803  0.0965 -0.1258  0.3680
  191POPC   H2R22018   3.880   6.112   6.786 -0.2333 -0.1404  0.0127
  191POPC   H2S22019   3.931   5.941   6.736  1.3187  1.9373 -0.4673
  191POPC    C322020   3.481   5.749   6.785 -0.0907 -0.5846  0.4752
  191POPC    HX22021   3.527   5.652   6.813 -1.5328 -0.7075  2.7165
  191POPC    HY22022   3.386   5.724   6.733  0.6723  1.4503 -2.1262
  191POPC   O3122023   3.472   5.831   6.902  0.2907 -0.1569 -0.3229
  191POPC   C3122024   3.360   5.923   6.903 -0.6127  0.1950 -0.2108
  191POPC   O3222025   3.282   5.941   6.814  0.5783 -0.2933 -0.0017
  191POPC   C3222026   3.345   5.980   7.046 -0.2158  0.4679  0.5449
  191POPC   H2X22027   3.243   6.023   7.047 -1.8519 -2.9736 -1.5676
  191POPC   H2Y22028   3.432   6.048   7.063  0.6873 -0.2461 -1.0572
  191POPC   C2322029   3.890   5.967   6.950 -0.2051  0.2206  0.0566
  191POPC   H3R22030   3.997   5.988   6.970 -0.7483  1.9386  1.4155
  191POPC   H3S22031   3.867   5.860   6.969 -1.1929 -0.3412 -3.5450
  191POPC   C2422032   3.829   6.068   7.046  0.0734  0.2700 -0.2474
  191POPC   H4R22033   3.718   6.058   7.049  0.2493 -3.2468 -1.3011
  191POPC   H4S22034   3.853   6.170   7.007  0.2095 -0.1209 -1.2274
  191POPC   C2522035   3.885   6.041   7.190 -0.4899  0.3949  0.0481
  191POPC   H5R22036   3.994   6.063   7.190 -0.2401 -0.7844  0.8385
  191POPC   H5S22037   3.881   5.932   7.209  2.6152  0.0940 -0.5337
  191POPC   C2622038   3.816   6.127   7.291 -0.0978  0.5691 -0.2313
  191POPC   H6R22039   3.711   6.092   7.297  1.0302 -3.2139 -0.1145
  191POPC   H6S22040   3.821   6.237   7.274  1.4514  0.2309 -2.5641
  191POPC   C2722041   3.882   6.109   7.421 -0.9405 -0.5754  0.6169
  191POPC   H7R22042   3.984   6.154   7.423 -1.6620  1.2452 -0.9233
  191POPC   H7S22043   3.896   5.999   7.430 -3.5565 -0.8811  1.8998
  191POPC   C2822044   3.790   6.149   7.530 -0.7297 -0.2946 -0.7563
  191POPC   H8R22045   3.688   6.105   7.521  0.2679 -2.7720 -0.7759
  191POPC   H8S22046   3.793   6.259   7.540  2.6101 -0.4878  4.0126
  191POPC   C2922047   3.836   6.102   7.669 -0.2085  0.4332  1.1371
  191POPC   H9122048   3.945   6.093   7.677 -0.2217  0.9416  1.9856
  191POPC  C21022049   3.760   6.062   7.768  0.2244  0.5439  0.0533
  191POPC  H10122050   3.807   6.063   7.868  0.6657  1.6231 -0.1446
  191POPC  C21122051   3.609   6.053   7.776 -0.3619 -0.2137 -0.0167
  191POPC  H11R22052   3.578   5.947   7.764 -0.6274 -0.0102 -1.2720
  191POPC  H11S22053   3.565   6.110   7.691 -1.1180 -0.1923  0.3849
  191POPC  C21222054   3.555   6.103   7.914 -0.8182 -0.1155  0.2558
  191POPC  H12R22055   3.445   6.110   7.897 -0.6690  1.2968 -0.2436
  191POPC  H12S22056   3.588   6.206   7.935 -1.1943  0.0325  0.1305
  191POPC  C21322057   3.583   6.017   8.035  0.0364 -0.6766  0.6348
  191POPC  H13R22058   3.693   6.027   8.045  0.0293  0.5477 -0.2784
  191POPC  H13S22059   3.550   5.912   8.020 -3.1837  0.3564 -0.1615
  191POPC  C21422060   3.524   6.082   8.165  0.3589 -0.7595 -0.2532
  191POPC  H14R22061   3.413   6.088   8.157  0.3956  2.3538  0.1654
  191POPC  H14S22062   3.561   6.186   8.149 -0.0926 -1.1234 -4.8790
  191POPC  C21522063   3.582   6.012   8.282 -0.5528  0.5850  0.3897
  191POPC  H15R22064   3.686   5.983   8.258 -0.3112  2.0576 -0.4346
  191POPC  H15S22065   3.525   5.916   8.281 -0.7408  0.6541  2.1102
  191POPC  C21622066   3.551   6.088   8.410  0.0135  0.3355  0.7555
  191POPC  H16R22067   3.443   6.090   8.433 -0.0498  1.3594  0.4238
  191POPC  H16S22068   3.576   6.195   8.394  0.4082  0.1351 -0.0708
  191POPC  C21722069   3.622   6.048   8.534  0.7784 -0.0595 -0.6373
  191POPC  H17R22070   3.730   6.036   8.511  0.7070 -3.0095  0.0997
  191POPC  H17S22071   3.569   5.951   8.547  1.8267 -0.5062  0.4728
  191POPC  C21822072   3.597   6.134   8.660 -1.2517  0.2590 -0.3142
  191POPC  H18R22073   3.492   6.169   8.658 -0.7079  2.1965  1.5096
  191POPC  H18S22074   3.669   6.217   8.642  1.2016 -1.8204 -0.6551
  191POPC  H18T22075   3.631   6.083   8.752 -0.1777  3.0673  0.9926
  191POPC   C3322076   3.328   5.880   7.162  0.2633  0.0238  0.3987
  191POPC   H3X22077   3.424   5.823   7.167 -0.5722 -1.5512 -0.6886
  191POPC   H3Y22078   3.248   5.804   7.155  0.0596  0.2487  0.2895
  191POPC   C3422079   3.327   5.955   7.298  0.5408 -0.5527  0.5612
  191POPC   H4X22080   3.239   6.022   7.291  1.8770  1.1257 -1.2677
  191POPC   H4Y22081   3.425   6.007   7.295 -0.2079  0.8769 -0.0455
  191POPC   C3522082   3.341   5.853   7.410 -0.0819  0.2037  0.0700
  191POPC   H5X22083   3.438   5.799   7.407 -0.5791 -0.7026  0.1757
  191POPC   H5Y22084   3.253   5.786   7.405 -0.6656  1.0279 -1.3152
  191POPC   C3622085   3.344   5.921   7.550 -0.7372 -0.0517 -0.2093
  191POPC   H6X22086   3.260   5.994   7.560 -0.2757  0.8015 -2.0158
  191POPC   H6Y22087   3.437   5.981   7.560 -0.2448 -0.3037 -2.6634
  191POPC   C3722088   3.324   5.816   7.659  0.2416  0.7764 -0.4191
  191POPC   H7X22089   3.344   5.868   7.755 -0.6235  0.0765  0.1637
  191POPC   H7Y22090   3.401   5.737   7.656  0.4662  1.0104 -0.8499
  191POPC   C3822091   3.185   5.758   7.674 -0.0568 -0.2822  0.8898
  191POPC   H8X22092   3.172   5.679   7.597  0.0336  2.7228 -2.4815
  191POPC   H8Y22093   3.103   5.829   7.647  0.0583 -0.4395  0.1161
  191POPC   C3922094   3.163   5.695   7.807  0.5744 -0.2744 -0.4656
  191POPC   H9X22095   3.254   5.648   7.850  0.5120  1.5456  1.8322
  191POPC   H9Y22096   3.096   5.606   7.799 -0.3250  0.0640  2.4232
  191POPC  C31022097   3.110   5.797   7.913 -0.3802 -0.4774 -0.5364
  191POPC  H10X22098   3.019   5.854   7.885 -1.2055 -1.8002 -0.6745
  191POPC  H10Y22099   3.191   5.870   7.933 -0.7363 -0.2739  0.2071
  191POPC  C31122100   3.082   5.726   8.043 -0.0746  0.7659 -0.0916
  191POPC  H11X22101   3.044   5.624   8.019  1.4138 -0.3097  1.8417
  191POPC  H11Y22102   2.999   5.779   8.094 -1.5064 -0.9399 -0.5538
  191POPC  C31222103   3.206   5.730   8.128 -0.1304 -0.6279  0.0320
  191POPC  H12X22104   3.237   5.836   8.145  0.5207 -1.1940  2.9700
  191POPC  H12Y22105   3.285   5.669   8.079  0.3562 -0.5230  0.6633
  191POPC  C31322106   3.191   5.673   8.270  0.5343  0.6111 -0.0071
  191POPC  H13X22107   3.104   5.732   8.304  1.7308  2.2551  0.3284
  191POPC  H13Y22108   3.274   5.692   8.341 -0.9428  2.4121  1.3329
  191POPC  C31422109   3.170   5.518   8.280  0.0049 -0.8843  0.7483
  191POPC  H14X22110   3.262   5.484   8.228  0.0541  0.4626 -0.0924
  191POPC  H14Y22111   3.083   5.480   8.222  1.5010  0.5739 -2.7330
  191POPC  C31522112   3.144   5.469   8.428 -0.2669 -0.3490  0.7449
  191POPC  H15X22113   3.225   5.509   8.494  0.9041 -1.1275 -0.1915
  191POPC  H15Y22114   3.156   5.359   8.430 -0.1121 -0.3320  0.7902
  191POPC  C31622115   3.010   5.512   8.485  0.5929 -0.0876  0.2706
  191POPC  H16X22116   3.003   5.621   8.468 -2.0318 -0.5415 -2.5538
  191POPC  H16Y22117   3.004   5.496   8.594  1.8825 -0.9105  0.2392
  191POPC  H16Z22118   2.918   5.470   8.438  0.7293  0.6797 -0.7036
  192POPC     N22119   2.131   1.290   5.902 -0.0114 -0.2896 -0.1764
  192POPC   C1222120   2.125   1.234   6.048  0.6127  0.3328  0.7610
  192POPC  H12A22121   2.164   1.314   6.109  1.4371  0.3249  0.2661
  192POPC  H12B22122   2.205   1.162   6.062  1.0893  0.5100 -0.8916
  192POPC   C1322123   2.273   1.322   5.873 -0.0503  0.1276 -0.1660
  192POPC  H13A22124   2.334   1.238   5.904 -2.6542 -1.6774  0.3836
  192POPC  H13B22125   2.281   1.351   5.769  1.1992  2.7266  0.5879
  192POPC  H13C22126   2.309   1.408   5.925 -0.3007 -0.1802  0.5278
  192POPC   C1422127   2.095   1.181   5.809 -0.1667 -0.3545  0.7063
  192POPC  H14A22128   1.989   1.160   5.814 -0.5966  1.1430 -1.2452
  192POPC  H14B22129   2.118   1.210   5.708 -1.2814  0.2582  0.6141
  192POPC  H14C22130   2.154   1.092   5.826 -0.4176 -1.0932 -1.8978
  192POPC   C1522131   2.042   1.409   5.889 -0.1979  0.0262  0.5426
  192POPC  H15A22132   2.040   1.435   5.784 -0.7303  0.4230  0.6477
  192POPC  H15B22133   2.063   1.484   5.963 -1.6866 -0.6676  1.7234
  192POPC  H15C22134   1.938   1.395   5.916  0.2564 -0.7134  2.0287
  192POPC   C1122135   1.993   1.176   6.102  0.0552  0.1283  0.3192
  192POPC  H11A22136   2.013   1.114   6.192  1.7881 -3.8119 -2.4955
  192POPC  H11B22137   1.973   1.086   6.041  2.7717 -2.1149  2.4759
  192POPC     P22138   1.876   1.357   6.247  0.3468  0.1664 -0.0819
  192POPC   O1322139   1.742   1.408   6.270  0.3072 -0.6814 -0.1509
  192POPC   O1422140   1.975   1.465   6.229 -0.4521 -0.0193 -0.4479
  192POPC   O1222141   1.886   1.264   6.115 -0.1449  0.0309  0.0428
  192POPC   O1122142   1.921   1.269   6.372  0.2303  0.0849  0.4683
  192POPC    C122143   1.830   1.198   6.453  0.0461  0.1982 -0.2363
  192POPC    HA22144   1.870   1.095   6.466 -1.1193 -0.3860 -1.0642
  192POPC    HB22145   1.737   1.173   6.399 -0.0528  1.9336 -0.9433
  192POPC    C222146   1.830   1.266   6.593  0.3363 -0.1303 -0.4453
  192POPC    HS22147   1.932   1.304   6.615 -0.2047  0.0736  1.9778
  192POPC   O2122148   1.797   1.165   6.698 -0.1988  0.6538 -0.2617
  192POPC   C2122149   1.856   1.184   6.815 -1.2653  0.8254  0.0458
  192POPC   O2222150   1.937   1.272   6.839 -0.2211  0.5653  0.2629
  192POPC   C2222151   1.792   1.094   6.919 -0.0321  0.6319  0.4650
  192POPC   H2R22152   1.830   0.991   6.902 -1.5588  0.1667 -0.2728
  192POPC   H2S22153   1.681   1.101   6.923 -0.0995 -0.5525  1.8598
  192POPC    C322154   1.727   1.378   6.598  0.4703 -0.5274  0.0358
  192POPC    HX22155   1.633   1.323   6.579 -0.1529  1.2115 -2.4781
  192POPC    HY22156   1.752   1.449   6.516 -1.8236  0.5071  0.1549
  192POPC   O3122157   1.714   1.443   6.731  0.3475  0.4738 -0.3242
  192POPC   C3122158   1.596   1.509   6.736  0.0796  0.0441 -0.1646
  192POPC   O3222159   1.527   1.531   6.642  0.1051 -0.2400 -0.0175
  192POPC   C3222160   1.564   1.548   6.881 -0.0269 -0.3535 -0.7052
  192POPC   H2X22161   1.454   1.535   6.892  0.0007  0.9012  1.8558
  192POPC   H2Y22162   1.595   1.653   6.899 -1.6039 -0.2773  2.1298
  192POPC   C2322163   1.860   1.137   7.053 -0.2875  0.1814 -0.5902
  192POPC   H3R22164   1.854   1.247   7.070  1.6041 -0.1409  2.9760
  192POPC   H3S22165   1.970   1.122   7.050 -0.5656 -2.5128  0.1007
  192POPC   C2422166   1.811   1.062   7.173 -0.1747 -0.3367 -0.7707
  192POPC   H4R22167   1.825   0.952   7.170 -1.8896 -0.5759 -0.7360
  192POPC   H4S22168   1.703   1.085   7.186 -0.7345 -2.8428 -0.6149
  192POPC   C2522169   1.882   1.097   7.304 -0.2086  0.0260  0.3216
  192POPC   H5R22170   1.892   1.207   7.317 -0.1675  0.4233 -2.4726
  192POPC   H5S22171   1.982   1.049   7.306 -0.0858  0.2885  0.7265
  192POPC   C2622172   1.809   1.037   7.424  0.1206  0.2289  0.2803
  192POPC   H6R22173   1.703   1.069   7.417  0.2170  0.5238  0.1173
  192POPC   H6S22174   1.841   1.092   7.516  0.3611 -1.4332  1.2208
  192POPC   C2722175   1.827   0.888   7.435 -0.2744 -0.0882 -0.3061
  192POPC   H7R22176   1.936   0.865   7.428 -0.6423 -1.6379 -1.6610
  192POPC   H7S22177   1.779   0.841   7.347  1.1817  0.3625 -1.3962
  192POPC   C2822178   1.777   0.832   7.566  0.3523 -1.1366  0.1844
  192POPC   H8R22179   1.804   0.724   7.572 -1.4839 -1.5546  2.1589
  192POPC   H8S22180   1.668   0.836   7.585 -0.2089 -2.4940 -2.3886
  192POPC   C2922181   1.853   0.891   7.686  0.3207 -0.4759 -0.4331
  192POPC   H9122182   1.961   0.909   7.669  0.7092 -0.2187  1.9803
  192POPC  C21022183   1.804   0.911   7.807 -0.7259 -0.5782 -0.0965
  192POPC  H10122184   1.874   0.952   7.881 -0.8230 -0.0692 -0.2825
  192POPC  C21122185   1.666   0.895   7.856  0.3411  0.6010 -0.8431
  192POPC  H11R22186   1.595   0.929   7.777 -0.1409  0.5602 -0.4294
  192POPC  H11S22187   1.643   0.968   7.936  0.0460  0.1118 -0.4822
  192POPC  C21222188   1.636   0.750   7.903 -0.2953 -0.1055 -0.6468
  192POPC  H12R22189   1.643   0.680   7.817 -2.2287  0.5776 -1.4159
  192POPC  H12S22190   1.527   0.735   7.922 -0.1447  0.1017  0.4573
  192POPC  C21322191   1.712   0.711   8.035 -0.6415  0.5144 -0.7432
  192POPC  H13R22192   1.813   0.674   8.006 -0.1610  1.0573  0.1597
  192POPC  H13S22193   1.664   0.625   8.086 -3.8608  1.4415 -2.0241
  192POPC  C21422194   1.717   0.823   8.149 -0.5365  0.4525  0.6370
  192POPC  H14R22195   1.615   0.854   8.181 -1.2374 -2.0840  1.1171
  192POPC  H14S22196   1.766   0.914   8.111 -1.1407  0.3463 -0.4488
  192POPC  C21522197   1.801   0.772   8.270 -0.2375 -0.4318  0.3756
  192POPC  H15R22198   1.898   0.725   8.243  0.3395  0.3888  1.0103
  192POPC  H15S22199   1.748   0.681   8.307 -0.6422  0.3098  1.6812
  192POPC  C21622200   1.817   0.880   8.375  0.6857  0.5160  0.6073
  192POPC  H16R22201   1.721   0.929   8.401 -0.3087  0.9307 -3.2617
  192POPC  H16S22202   1.881   0.962   8.337  0.8193  0.3043  0.3746
  192POPC  C21722203   1.881   0.824   8.501  0.7040 -0.0869 -0.0527
  192POPC  H17R22204   1.987   0.795   8.487  0.4502 -3.5385  3.3837
  192POPC  H17S22205   1.833   0.726   8.524 -1.1383  0.8091  0.0941
  192POPC  C21822206   1.854   0.923   8.616  0.3056 -0.1482  0.1012
  192POPC  H18R22207   1.932   0.926   8.696 -0.0525  0.5197  0.4320
  192POPC  H18S22208   1.752   0.907   8.657  0.4807 -1.1869  0.1611
  192POPC  H18T22209   1.846   1.024   8.571 -0.5776 -1.6787 -3.5763
  192POPC   C3322210   1.622   1.462   7.000  0.1334  0.6196  0.0782
  192POPC   H3X22211   1.733   1.462   6.996  0.2590  1.9792  1.8597
  192POPC   H3Y22212   1.586   1.361   6.973  1.5244  0.4208 -1.0834
  192POPC   C3422213   1.589   1.516   7.141 -0.5791 -0.2521 -0.1980
  192POPC   H4X22214   1.484   1.546   7.166 -0.1948 -0.5346  1.9655
  192POPC   H4Y22215   1.648   1.609   7.152  0.3593 -0.9591  0.9397
  192POPC   C3522216   1.650   1.416   7.244 -0.1492 -0.2801  0.2735
  192POPC   H5X22217   1.754   1.382   7.222  0.8116  1.8588  1.1963
  192POPC   H5Y22218   1.584   1.327   7.249  1.3230 -1.4025  0.2918
  192POPC   C3622219   1.640   1.477   7.388 -0.2190  0.3994  0.5190
  192POPC   H6X22220   1.536   1.516   7.396 -1.5497 -2.4168 -1.3238
  192POPC   H6Y22221   1.713   1.560   7.388  1.2474 -0.8501  0.0984
  192POPC   C3722222   1.674   1.385   7.496 -0.6087  0.9722 -0.2869
  192POPC   H7X22223   1.768   1.335   7.465 -1.4685 -0.1297 -1.2310
  192POPC   H7Y22224   1.608   1.295   7.497  0.0565  0.3893  3.3758
  192POPC   C3822225   1.685   1.451   7.627  0.2411  0.1763  0.1364
  192POPC   H8X22226   1.606   1.526   7.648  0.8744  1.1681 -0.9710
  192POPC   H8Y22227   1.783   1.502   7.634  1.3197 -1.8895  1.0261
  192POPC   C3922228   1.697   1.350   7.747 -0.0936  0.0940  0.3365
  192POPC   H9X22229   1.774   1.270   7.743 -0.2054 -0.0138  0.3545
  192POPC   H9Y22230   1.596   1.304   7.748 -0.5718  0.8030 -2.9323
  192POPC  C31022231   1.716   1.406   7.891 -0.3337  0.5808 -0.5808
  192POPC  H10X22232   1.655   1.499   7.895 -1.1271  0.2440 -2.9497
  192POPC  H10Y22233   1.821   1.434   7.913  0.5791 -2.9248  0.1507
  192POPC  C31122234   1.681   1.295   7.991  0.4674 -0.1349 -0.5180
  192POPC  H11X22235   1.750   1.209   7.980 -1.1872 -1.3780 -1.6940
  192POPC  H11Y22236   1.575   1.277   7.965  0.3961 -0.7913  0.2187
  192POPC  C31222237   1.691   1.359   8.134 -0.0779  0.2119  1.0233
  192POPC  H12X22238   1.640   1.457   8.124  1.8293  1.1929  0.2314
  192POPC  H12Y22239   1.798   1.375   8.158 -0.1650  0.2868  1.3618
  192POPC  C31322240   1.625   1.269   8.239 -0.3065  0.2852  0.1081
  192POPC  H13X22241   1.671   1.169   8.227 -0.4132  0.1798  0.5304
  192POPC  H13Y22242   1.518   1.242   8.225 -0.5140 -0.4362  2.6187
  192POPC  C31422243   1.644   1.309   8.390  0.5391  0.1586  0.5969
  192POPC  H14X22244   1.590   1.233   8.451  2.3274 -1.1232  0.6605
  192POPC  H14Y22245   1.588   1.404   8.399  2.6231  1.5847 -0.6247
  192POPC  C31522246   1.792   1.315   8.437  0.1813  0.4335 -0.1090
  192POPC  H15X22247   1.846   1.386   8.371  2.0900  0.3570  1.2986
  192POPC  H15Y22248   1.825   1.209   8.434 -1.6345 -0.1611 -0.5187
  192POPC  C31622249   1.807   1.363   8.582  0.1661  0.5124 -0.4466
  192POPC  H16X22250   1.769   1.468   8.584 -0.4997  0.2974 -1.1125
  192POPC  H16Y22251   1.911   1.348   8.617 -0.4442  0.9344  1.6763
  192POPC  H16Z22252   1.742   1.294   8.639  1.1884  0.1504  0.3031
  193SOD    SOD22253   6.340   2.432  14.048  0.0012  0.5710 -0.0008
  194SOD    SOD22254   5.982   1.243   5.917 -0.5266  0.4169  0.2351
  195SOD    SOD22255   3.887   3.215   4.329 -0.2265 -0.4580  0.8369
  196SOD    SOD22256   0.322   0.748  12.847  0.2424  0.5600  0.1422
  197SOD    SOD22257   5.388   4.702   4.895  0.1753 -0.2973  0.3839
  198SOD    SOD22258   0.373   3.231  10.973  0.5147  0.1796  0.0174
  199SOD    SOD22259   5.484   1.613  11.192  0.1465  0.1237  0.0858
  200SOD    SOD22260   1.335   1.578   3.028 -0.0237 -0.3509 -0.0405
  201SOD    SOD22261   2.000   3.776   4.903 -0.4092  0.0044  0.2447
  202SOD    SOD22262   4.277   6.165   3.688  0.2367 -0.1495 -0.0793
  203SOD    SOD22263   3.419   2.727  16.423 -0.3776  0.1075 -0.2665
  204SOD    SOD22264   4.962   4.662   5.855  0.6956  0.4085 -0.2488
  205SOD    SOD22265   3.679   6.729  11.989 -0.0770 -0.3537 -0.1155
  206SOD    SOD22266   5.097   3.865   1.017 -0.7049  0.2566  0.5085
  207SOD    SOD22267   6.440   4.548  11.822  0.3163 -0.5822 -0.4770
  208SOD    SOD22268   3.697   3.907   4.474  0.0564  0.1215 -0.2984
  209SOD    SOD22269   2.336   2.985   6.602 -0.3032  0.1456  0.2108
  210SOD    SOD22270   0.636   4.601  14.378 -0.0571  0.1610 -0.1730
  211SOD    SOD22271   0.364   3.838  15.085  0.2712 -0.2890 -0.3754
  212SOD    SOD22272   1.901   2.497   6.505 -0.1002  0.0027  0.2942
  213SOD    SOD22273   3.728   5.747  16.596  0.4736 -0.0901  0.4137
  214SOD    SOD22274   2.929   2.958   4.252 -0.0929  0.0565 -0.0995
  215SOD    SOD22275   2.105   5.453  15.286 -0.4131  0.4773  0.0590
  216SOD    SOD22276   2.712   2.492  12.155  0.3517 -0.2991  0.3035
  217SOD    SOD22277   0.859   4.571   5.543 -0.0742 -0.4843 -0.4166
  218SOD    SOD22278   6.666   1.685   6.654  0.0863 -0.3538 -0.2694
  219SOD    SOD22279   6.591   6.042  10.877  0.6154  0.1701  0.2115
  220SOD    SOD22280   0.864   4.057  11.575  0.3504 -0.3543  0.2573
  221SOD    SOD22281   3.031   3.884   0.719 -0.1246 -0.0414 -0.1674
  222SOD    SOD22282   0.269   1.648  15.797 -0.0138  0.5327  0.1712
  223SOD    SOD22283   6.246   6.397  10.545 -0.5788 -0.2627 -0.3250
  224SOD    SOD22284   4.571   6.647  13.938 -0.0668  0.0970 -0.4699
  225SOD    SOD22285   2.997   6.078  11.580  0.2026 -0.1261 -0.1709
  226SOD    SOD22286   5.163   0.837  11.033 -0.0520  0.0802  0.2277
  227SOD    SOD22287   3.746   3.145  12.203  0.2032  0.0389 -0.4260
  228SOD    SOD22288   1.436   6.596   3.669 -0.7350  0.4144  0.0349
  229SOD    SOD22289   0.496   2.044  12.810 -0.1003  0.1588  0.0579
  230SOD    SOD22290   5.550   1.682   5.299  0.0693 -0.0382 -0.1196
  231SOD    SOD22291   3.466   0.845   5.627  0.0003 -0.0158  0.0970
  232SOD    SOD22292   0.524   1.435  12.672  0.4767  0.0045 -0.3829
  233SOD    SOD22293   6.362   3.566  13.363 -0.3769 -0.4071 -0.2076
  234SOD    SOD22294   1.754   1.533   4.844 -0.1378  0.4508 -0.2800
  235SOD    SOD22295   1.097   3.124   4.105  0.3731  0.4213 -0.8485
  236SOD    SOD22296   2.997   5.095   3.957 -0.3301 -0.2986 -0.2374
  237SOD    SOD22297   6.457   4.740   6.048 -0.2341  0.5698 -0.4785
  238SOD    SOD22298   3.328   1.338  15.010  0.2522  0.3800  0.1139
  239SOD    SOD22299   4.362   2.697  15.041  0.0754  0.3322  0.5713
  240SOD    SOD22300   5.789   3.219  13.025 -0.1033  0.4415 -0.1687
  241SOD    SOD22301   6.398   2.548   1.259  0.0783  0.1899 -0.4722
  242SOD    SOD22302   6.532   6.311  16.288  0.5577  0.3421  0.0935
  243SOD    SOD22303   1.737   2.343  16.064 -0.0097 -0.3018 -0.1197
  244SOD    SOD22304   5.601   0.691  14.853  0.3395  0.1072  0.4374
  245SOD    SOD22305   1.255   1.568   0.114 -0.4293 -0.3051 -0.0010
  246SOD    SOD22306   2.939   1.448   1.499  0.6022  0.0396 -0.6633
  247SOD    SOD22307   2.127   1.778   4.155 -0.4273 -0.3018 -0.6807
  248SOD    SOD22308   6.515   6.023   0.525  0.3246 -0.5164  0.1082
  249SOD    SOD22309   6.244   1.145   4.552 -0.2764 -0.3150 -0.1937
  250SOD    SOD22310   3.562   2.027   3.389  0.5186 -0.4944  0.3658
  251SOD    SOD22311   0.824   0.584   4.584  0.3488  0.2578  0.1490
  252SOD    SOD22312   1.420   2.453   2.005 -0.7117  0.1493  0.2271
  253SOD    SOD22313   3.261   2.082  12.127 -0.8474 -0.6221  0.0264
  254SOD    SOD22314   5.206   3.996   4.426  0.1278 -0.4049 -0.2192
  255SOD    SOD22315   0.001   2.492  16.134 -0.3250 -0.5395  0.0205
  256SOD    SOD22316   0.336   5.886   5.764 -0.0204 -0.2503 -0.5700
  257SOD    SOD22317   4.687   3.475   2.606 -0.0276  0.4761  0.1916
  258SOD    SOD22318   3.781   1.727  16.876 -0.2400 -0.1888  0.0536
  259SOD    SOD22319   3.053   4.823   0.367 -0.8831  0.0824  0.4492
  260SOD    SOD22320   6.178   5.981   1.352 -0.1699 -0.2891  0.4890
  261SOD    SOD22321   2.778   0.244   4.683  0.1672 -0.3537 -0.6911
  262SOD    SOD22322   0.088   5.543  12.796  0.1014 -0.0992  0.3656
  263SOD    SOD22323   3.766   6.013   1.827 -0.0746  0.3425 -0.0067
  264SOD    SOD22324   5.164   1.369  16.814  0.3503 -0.5061  0.0798
  265SOD    SOD22325   0.701   5.736   1.374  0.6575  0.1195 -0.8354
  266SOD    SOD22326   0.776   1.130   5.949 -0.2198  0.4123  0.2168
  267SOD    SOD22327   2.297   3.770  11.301 -0.8823  0.1387  0.1164
  268SOD    SOD22328   4.978   5.569   6.560  0.5374  0.0875  0.0901
  269SOD    SOD22329   0.008   2.147   1.419 -0.1621 -0.0869  0.6142
  270CLA    CLA22330   0.622   4.513   0.461 -0.0923  0.3135 -0.0439
  271CLA    CLA22331   0.287   3.357  12.823 -0.0126 -0.1270 -0.1450
  272CLA    CLA22332   3.187   2.860   4.285  0.4247 -0.2787  0.0688
  273CLA    CLA22333   0.125   2.254   0.975 -0.0090  0.1402  0.3329
  274CLA    CLA22334   5.306   1.306  17.260  0.3839 -0.1014 -0.2853
  275CLA    CLA22335   0.048   5.776  13.826  0.3672  0.3466  0.1334
  276CLA    CLA22336   3.777   2.966   1.843  0.0962 -0.0903  0.1471
  277CLA    CLA22337   0.752   3.973  12.044 -0.0139  0.0171  0.0916
  278CLA    CLA22338   6.734   0.992  15.270 -0.1651 -0.3468  0.1113
  279CLA    CLA22339   6.633   0.347  13.187  0.3947  0.0240  0.2168
  280CLA    CLA22340   4.190   0.195  11.852 -0.1789 -0.3558 -0.4797
  281CLA    CLA22341   1.994   1.601  12.956 -0.0255 -0.4324 -0.1984
  282CLA    CLA22342   4.395   4.523   4.873 -0.1122 -0.2567 -0.0233
  283CLA    CLA22343   3.207   4.321   2.470 -0.0878  0.3559 -0.0332
  284CLA    CLA22344   0.673   0.626   5.098 -0.0035 -0.0307 -0.3384
  285CLA    CLA22345   1.986   1.403  15.757 -0.3129 -0.3614  0.1911
  286CLA    CLA22346   4.926   4.633   4.335 -0.0607  0.2669 -0.2325
  287CLA    CLA22347   1.809   5.810  15.748 -0.1088 -0.7423 -0.0057
  288CLA    CLA22348   4.086   3.613   2.384 -0.6133  0.1885 -0.0269
  289CLA    CLA22349   3.998   6.117   3.250  0.0763  0.0799 -0.1047
  290CLA    CLA22350   3.540   2.080  15.265  0.2451 -0.2396 -0.4620
  291CLA    CLA22351   5.247   2.248  12.601 -0.0951 -0.1714  0.0651
  292CLA    CLA22352   3.629   1.793   1.367 -0.0655 -0.3264 -0.5066
  293CLA    CLA22353   4.431   0.980   1.328 -0.4207 -0.2953 -0.1463
  294CLA    CLA22354   0.865   4.273  14.284 -0.2638  0.0634 -0.1028
  295CLA    CLA22355   0.455   0.320   1.115 -0.1481  0.2268 -0.4105
  296CLA    CLA22356   3.850   6.007   1.573  0.1332 -0.0322  0.0348
  297CLA    CLA22357   0.618   1.771   1.046 -0.1159 -0.0207 -0.4533
  298CLA    CLA22358   1.898   3.104  16.623 -0.1723 -0.2725 -0.3155
  299CLA    CLA22359   0.240   6.433  15.970  0.0447  0.0487  0.0908
  300CLA    CLA22360   6.737   1.236   1.451  0.2159 -0.2945 -0.0503
  301CLA    CLA22361   0.078   0.439   3.805  0.3544  0.1923  0.2139
  302CLA    CLA22362   2.113   4.931  14.255  0.0542  0.0819 -0.2286
  303CLA    CLA22363   4.892   0.532  15.247  0.0054  0.0999 -0.0744
  304CLA    CLA22364   4.862   6.174   4.931 -0.0960  0.1075  0.2037
  305CLA    CLA22365   5.853   6.605   2.855  0.0039 -0.2040 -0.2066
  306CLA    CLA22366   1.767   5.223   1.174 -0.0498  0.0250  0.1584
  307CLA    CLA22367   3.404   1.328   4.643  0.2408 -0.0692  0.1290
  308CLA    CLA22368   4.940   1.679   2.088  0.0176  0.3831 -0.2123
  309CLA    CLA22369   2.599   0.151  12.708  0.1781  0.2057 -0.0533
  310CLA    CLA22370   2.764   0.589   3.900  0.4104  0.2605 -0.0654
  311CLA    CLA22371   5.406   2.408  16.585  0.2190 -0.3880  0.3297
  312CLA    CLA22372   3.546   1.316  11.668 -0.1075 -0.2812  0.2929
  313CLA    CLA22373   2.170   0.714   0.473 -0.0999 -0.2479 -0.1154
  314CLA    CLA22374   0.367   1.508   4.025 -0.0721 -0.7304  0.0691
  315CLA    CLA22375   0.985   0.508  14.057  0.0270  0.6450 -0.4792
  316CLA    CLA22376   5.167   6.213   1.372 -0.0974 -0.2811  0.2096
  317CLA    CLA22377   6.255   6.304  15.500  0.2639 -0.0995  0.3115
  318CLA    CLA22378   3.283   1.152   3.699 -0.0284 -0.4088  0.1754
  319CLA    CLA22379   1.793   5.121  15.115 -0.3269 -0.0153 -0.2165
  320CLA    CLA22380   2.804   2.122   1.305 -0.4443  0.0556 -0.2114
  321CLA    CLA22381   0.511   5.750  16.410 -0.4197 -0.3867 -0.0088
  322CLA    CLA22382   4.948   3.852   2.804 -0.0308  0.0248 -0.0426
  323TIP3   OH222383   2.453   6.466   5.246 -0.5234  0.1123 -0.0110
  323TIP3    H122384   2.520   6.449   5.180 -1.4989 -1.2363 -0.7020
  323TIP3    H222385   2.499   6.460   5.330  0.1673 -1.0671 -0.4660
  324TIP3   OH222386   3.513   2.970  13.154  0.0475 -0.0396 -0.0267
  324TIP3    H122387   3.574   2.985  13.082 -1.1021  0.4451 -0.9314
  324TIP3    H222388   3.554   3.011  13.230  1.7616 -1.4254 -0.1270
  325TIP3   OH222389   2.313   6.415  15.666 -0.1497  0.1292  0.7590
  325TIP3    H122390   2.277   6.384  15.749  0.8414 -1.8357  0.5147
  325TIP3    H222391   2.406   6.395  15.671  0.2021  1.3455 -0.2523
  326TIP3   OH222392   1.758   4.595  11.507  0.2150 -0.0500 -0.5407
  326TIP3    H122393   1.765   4.598  11.411 -0.7643  1.2869 -0.5954
  326TIP3    H222394   1.846   4.618  11.538 -0.0886  2.1167 -1.1532
  327TIP3   OH222395   0.003   0.840   4.599 -0.2960  0.9710 -0.1305
  327TIP3    H122396  -0.021   0.808   4.512 -0.5864 -0.2852  0.3922
  327TIP3    H222397  -0.020   0.768   4.658  1.7958  0.9748  0.7607
  328TIP3   OH222398   2.978   5.592   5.004  0.1171  0.4156  0.5539
  328TIP3    H122399   2.928   5.522   4.963  1.1004  0.4718 -0.8017
  328TIP3    H222400   3.032   5.547   5.069 -1.1339  0.2738  1.5510
  329TIP3   OH222401   2.744   1.860   4.922 -0.5143 -0.2288  0.0624
  329TIP3    H122402   2.812   1.808   4.880  2.3269  2.0595  1.4524
  329TIP3    H222403   2.674   1.866   4.857 -0.5456 -4.6149 -0.5831
  330TIP3   OH222404   2.822   4.698   0.001  0.0604  0.4566 -0.6570
  330TIP3    H122405   2.844   4.707  -0.092  0.5803 -0.1457 -0.6002
  330TIP3    H222406   2.775   4.615   0.007 -0.8025  0.9486 -0.5196
  331TIP3   OH222407   4.087   4.019  14.650  0.0426  0.1370 -0.7440
  331TIP3    H122408   4.018   3.994  14.712  1.1034 -0.1371  0.3699
  331TIP3    H222409   4.065   3.972  14.570 -0.0570 -1.4628  0.1655
  332TIP3   OH222410   4.761   4.697   0.955 -0.7788 -0.3890  0.1555
  332TIP3    H122411   4.852   4.669   0.951  0.6660  3.6749 -0.0632
  332TIP3    H222412   4.727   4.682   0.867  0.7640  0.9422 -0.7143
  333TIP3   OH222413   0.357   0.894  14.112 -0.1936 -0.0998 -0.1199
  333TIP3    H122414   0.369   0.901  14.017  0.3730  0.1329 -0.0398
  333TIP3    H222415   0.439   0.855  14.143 -0.6407 -0.8022  0.2057
  334TIP3   OH222416   1.589   5.889  16.665  0.3335  0.6484  0.2584
  334TIP3    H122417   1.601   5.803  16.705 -1.1182  0.8768  1.2661
  334TIP3    H222418   1.669   5.937  16.686  0.7087 -0.1132  0.5996
  335TIP3   OH222419   2.940   6.247   4.185  0.0609  0.0179  0.1138
  335TIP3    H122420   2.870   6.214   4.128  0.9861  0.2779 -1.2104
  335TIP3    H222421   3.017   6.196   4.160  0.4556  0.0215  1.2678
  336TIP3   OH222422   4.484   4.111   0.009 -0.0583 -0.3570  0.3851
  336TIP3    H122423   4.574   4.081  -0.007  0.2994  0.6459  0.4422
  336TIP3    H222424   4.473   4.102   0.104  0.6830  1.3352  0.6652
  337TIP3   OH222425   5.978   1.570   2.029  0.0263 -0.9653  0.4017
  337TIP3    H122426   5.990   1.652   2.076  3.4229 -0.4345 -1.0717
  337TIP3    H222427   5.926   1.593   1.952 -0.1505 -0.4756  0.6685
  338TIP3   OH222428   0.299   3.649   4.876  0.1700 -0.6992  0.4378
  338TIP3    H122429   0.221   3.595   4.866 -1.2017  1.2517 -0.0541
  338TIP3    H222430   0.287   3.694   4.960  0.6991 -0.3021  0.3102
  339TIP3   OH222431   0.885   6.193   0.608 -0.2389  0.2214  0.2915
  339TIP3    H122432   0.894   6.240   0.525  0.1150  1.5260  1.0397
  339TIP3    H222433   0.855   6.105   0.583 -2.0641  1.1727 -1.0786
  340TIP3   OH222434   5.799   3.849   5.150 -0.0569 -0.6991  0.3427
  340TIP3    H122435   5.738   3.779   5.172  0.5365 -1.4132 -0.2530
  340TIP3    H222436   5.865   3.808   5.094  1.4576 -0.1525  1.6329
  341TIP3   OH222437   5.418   5.518  16.852 -0.2561  0.0227 -0.0906
  341TIP3    H122438   5.486   5.464  16.812 -0.0532  0.2227 -0.0135
  341TIP3    H222439   5.387   5.573  16.780  0.6211  0.9066  0.1869
  342TIP3   OH222440   2.602   2.169  15.256  0.2376 -0.1699 -0.3710
  342TIP3    H122441   2.576   2.078  15.241  1.0608 -0.2104 -1.6691
  342TIP3    H222442   2.555   2.219  15.189 -0.8041  0.4924  0.8037
  343TIP3   OH222443   4.876   1.861  17.394 -0.2958 -0.4731  0.2401
  343TIP3    H122444   4.887   1.934  17.454 -0.1008 -0.1233 -0.2117
  343TIP3    H222445   4.881   1.783  17.449 -1.0133 -0.1347  0.7949
  344TIP3   OH222446   6.320   2.504  17.269  0.4221  0.9924  0.0430
  344TIP3    H122447   6.281   2.562  17.334  0.3513  1.0088 -0.0142
  344TIP3    H222448   6.247   2.470  17.219  0.4699  0.9112  0.0285
  345TIP3   OH222449   6.087   6.279  13.590  0.0945 -0.0353  0.0386
  345TIP3    H122450   6.141   6.358  13.589 -1.9377  1.4388 -0.4418
  345TIP3    H222451   6.085   6.249  13.499  2.2579 -1.7407  0.4686
  346TIP3   OH222452   2.103   5.893  14.777  0.2286  0.2557 -0.3072
  346TIP3    H122453   2.142   5.939  14.852 -1.4442  3.6673 -1.3172
  346TIP3    H222454   2.038   5.834  14.817  0.1905  1.1327  1.0054
  347TIP3   OH222455   6.345   3.023  15.636 -0.2356 -0.0953  0.3478
  347TIP3    H122456   6.434   2.991  15.648  0.7643  1.6618 -1.7807
  347TIP3    H222457   6.341   3.102  15.691 -0.6462 -0.3954  0.7592
  348TIP3   OH222458   3.897   2.056   4.124 -0.5597 -0.7194 -0.2136
  348TIP3    H122459   3.882   1.976   4.174  0.3718 -0.0441  1.2090
  348TIP3    H222460   3.934   2.025   4.041 -0.2871 -1.7691  0.2774
  349TIP3   OH222461   1.775   0.944   4.679  0.0657 -0.0872 -0.0153
  349TIP3    H122462   1.768   1.017   4.617 -0.1525  0.3542  0.5232
  349TIP3    H222463   1.748   0.981   4.763 -2.2603 -1.3438 -0.1254
  350TIP3   OH222464   6.101   6.265  14.754 -0.2357 -0.3797  0.1931
  350TIP3    H122465   6.085   6.318  14.832  1.1252 -0.4637  0.5583
  350TIP3    H222466   6.027   6.283  14.697 -0.6845  0.5541  1.0384
  351TIP3   OH222467   1.629   3.658   1.346 -0.7387 -0.4540  0.3427
  351TIP3    H122468   1.685   3.593   1.303  0.9140  0.3101  1.2621
  351TIP3    H222469   1.686   3.700   1.410 -1.6405  2.1945 -0.4870
  352TIP3   OH222470   6.616   4.356   0.009 -0.2368 -0.0129 -0.2783
  352TIP3    H122471   6.691   4.395  -0.035 -1.1040  2.6806  0.4549
  352TIP3    H222472   6.650   4.275   0.048  2.1085  0.8035 -0.5017
  353TIP3   OH222473   0.878   4.670   4.037 -0.0415  0.5984 -0.1939
  353TIP3    H122474   0.941   4.702   4.101 -0.1189  0.8044 -0.2216
  353TIP3    H222475   0.832   4.599   4.082  0.5025  0.1566 -0.3140
  354TIP3   OH222476   6.582   2.682   3.437  0.7638 -0.5932  0.0129
  354TIP3    H122477   6.540   2.768   3.438  1.0433 -0.4027 -1.6550
  354TIP3    H222478   6.654   2.690   3.500 -0.7043 -0.4414  1.7578
  355TIP3   OH222479   3.642   6.672   0.770 -0.1301  0.2133  0.1346
  355TIP3    H122480   3.581   6.603   0.795 -0.9498  0.5699 -0.8027
  355TIP3    H222481   3.709   6.671   0.839  0.2713 -1.9572 -0.2129
  356TIP3   OH222482   2.297   4.242   2.755  0.0118 -0.1242  0.1865
  356TIP3    H122483   2.371   4.260   2.814 -0.3076 -1.6184  1.1192
  356TIP3    H222484   2.336   4.235   2.668  0.8555 -0.1685  0.5628
  357TIP3   OH222485   4.157   6.401   4.788  0.5771 -0.4321  0.2592
  357TIP3    H122486   4.096   6.475   4.792  0.2230 -0.6930 -0.2552
  357TIP3    H222487   4.173   6.388   4.695 -1.3489 -2.6175  0.1541
  358TIP3   OH222488   3.678   4.457  13.038 -0.1951  0.2729  0.1409
  358TIP3    H122489   3.659   4.451  12.944 -2.0818  1.5395  0.3897
  358TIP3    H222490   3.771   4.436  13.044 -0.4840 -1.9856 -1.7300
  359TIP3   OH222491   2.881   2.537  14.580 -0.1219 -0.6236  0.4064
  359TIP3    H122492   2.958   2.547  14.524 -1.6164 -0.7354 -1.7777
  359TIP3    H222493   2.867   2.442  14.583 -1.1516 -0.5240 -0.6642
  360TIP3   OH222494   4.315   6.196   2.637  0.1398 -0.0271  0.4491
  360TIP3    H122495   4.394   6.218   2.685  0.6945 -1.8855  0.4612
  360TIP3    H222496   4.323   6.244   2.554  1.0336  0.1769  0.6454
  361TIP3   OH222497   2.618   2.648   0.797 -0.8452  0.5376  0.4978
  361TIP3    H122498   2.578   2.574   0.842  2.6038 -1.2924  0.8752
  361TIP3    H222499   2.674   2.689   0.864  1.3826  0.1359 -0.9938
  362TIP3   OH222500   2.432   5.708  12.917  0.2524  0.9369  0.2271
  362TIP3    H122501   2.370   5.745  12.855 -0.3821 -0.2234  0.1299
  362TIP3    H222502   2.381   5.643  12.966  2.0058 -2.4598 -2.0209
  363TIP3   OH222503   2.431   0.809  14.264  0.1470  0.2447  0.1460
  363TIP3    H122504   2.525   0.791  14.255 -0.1473 -1.0725 -0.7498
  363TIP3    H222505   2.394   0.726  14.296 -1.1173 -0.4022 -2.6562
  364TIP3   OH222506   4.968   1.519  16.781 -0.2016  0.2342 -0.2693
  364TIP3    H122507   4.920   1.506  16.699  1.5743 -0.9674 -1.1974
  364TIP3    H222508   4.999   1.610  16.777 -0.2600  0.2328 -0.8671
  365TIP3   OH222509   2.781   4.819   3.222 -0.1643 -0.4676 -0.2391
  365TIP3    H122510   2.769   4.725   3.230 -1.7805 -0.1937  1.0847
  365TIP3    H222511   2.704   4.849   3.174 -0.7875  0.4103  1.2429
  366TIP3   OH222512   3.535   1.431   4.362  0.3311 -0.0263  0.2300
  366TIP3    H122513   3.592   1.507   4.378 -0.6841  0.9697 -0.7127
  366TIP3    H222514   3.485   1.423   4.443 -0.4402  1.1280 -0.1045
  367TIP3   OH222515   0.563   3.959  13.493 -0.5084 -0.4649 -0.3880
  367TIP3    H122516   0.505   3.941  13.566  0.5853  0.1188  0.6566
  367TIP3    H222517   0.621   4.029  13.524  1.1590 -1.4384 -1.1374
  368TIP3   OH222518   4.615   3.649  12.872  0.2671  0.0152 -0.0658
  368TIP3    H122519   4.578   3.697  12.798 -0.5302  1.6480  1.3191
  368TIP3    H222520   4.709   3.665  12.866  0.1304  0.7896 -0.2971
  369TIP3   OH222521   0.066   4.577  13.431 -0.1837  0.4254  0.6427
  369TIP3    H122522  -0.022   4.584  13.395  0.3037 -1.3329 -1.1113
  369TIP3    H222523   0.088   4.484  13.421  2.3316  1.0239 -0.1935
  370TIP3   OH222524   1.209   3.164  15.747 -0.2111  0.4635  0.5950
  370TIP3    H122525   1.169   3.247  15.723  1.7317  1.1577 -0.4546
  370TIP3    H222526   1.300   3.186  15.767  0.6944 -1.5430 -0.9040
  371TIP3   OH222527   5.804   5.899  16.342 -0.4695 -0.0830  0.0641
  371TIP3    H122528   5.776   5.932  16.256 -1.4982 -1.2436 -0.0801
  371TIP3    H222529   5.734   5.924  16.401  0.9781  2.1576  0.9740
  372TIP3   OH222530   4.589   6.479  10.951  0.3562  0.6721 -0.3525
  372TIP3    H122531   4.502   6.511  10.929 -0.8177 -2.1569 -0.1610
  372TIP3    H222532   4.631   6.463  10.867 -0.3235 -0.4346 -0.5002
  373TIP3   OH222533   1.107   5.996  15.739 -0.2540  0.1851  1.0281
  373TIP3    H122534   1.053   5.942  15.799 -0.9061 -0.4541 -0.1007
  373TIP3    H222535   1.057   5.998  15.658  1.0632  0.2669  0.1984
  374TIP3   OH222536   3.738   6.213  12.117 -0.6698  0.2085 -0.1652
  374TIP3    H122537   3.794   6.259  12.054  0.9798 -0.7879  0.5059
  374TIP3    H222538   3.746   6.265  12.197 -0.7551  0.0950 -0.0844
  375TIP3   OH222539   3.537   6.041   4.089 -1.0318 -0.1860  0.1393
  375TIP3    H122540   3.561   6.098   4.016 -1.5011 -0.4171 -0.1979
  375TIP3    H222541   3.565   5.954   4.062 -3.3237 -0.6942 -0.8264
  376TIP3   OH222542   3.676   4.841   4.310  0.1757  0.1911  0.3758
  376TIP3    H122543   3.600   4.819   4.256 -0.3176  1.7740  0.3828
  376TIP3    H222544   3.690   4.763   4.364 -1.1626 -0.3031  0.0536
  377TIP3   OH222545   6.177   2.481   4.003  0.4267 -0.4612 -0.2122
  377TIP3    H122546   6.118   2.546   4.042 -1.2592 -1.3422 -1.1813
  377TIP3    H222547   6.248   2.472   4.066 -1.1877 -0.3721  1.7004
  378TIP3   OH222548   3.259   4.110  12.470  0.1292  0.0472  0.8038
  378TIP3    H122549   3.268   4.037  12.409  1.1584  0.3359  0.5905
  378TIP3    H222550   3.294   4.077  12.552 -0.1076  0.0657  0.9150
  379TIP3   OH222551   5.901   5.347   0.340  0.2106 -0.1229  0.1056
  379TIP3    H122552   5.940   5.408   0.402 -0.8848 -0.8000  1.5094
  379TIP3    H222553   5.965   5.275   0.333  1.0345  0.6574 -0.7768
  380TIP3   OH222554   3.058   4.050   4.509  0.2948 -0.2147 -0.3263
  380TIP3    H122555   3.114   3.974   4.492  0.2063 -0.3583  0.0275
  380TIP3    H222556   3.096   4.091   4.586 -1.5260 -1.7249  1.4765
  381TIP3   OH222557   4.797   5.763   3.823 -0.0580  0.4668  0.8431
  381TIP3    H122558   4.868   5.798   3.769 -0.2865  0.4238  0.5117
  381TIP3    H222559   4.718   5.800   3.784 -0.2489  0.1477  0.9267
  382TIP3   OH222560   6.677   1.005   0.134 -0.4476  0.0806 -0.5795
  382TIP3    H122561   6.670   0.935   0.070  0.4890 -1.1979  0.6574
  382TIP3    H222562   6.603   0.992   0.193  2.1170 -2.9046  2.4125
  383TIP3   OH222563   0.487   4.447   5.832  0.1005  0.4932 -0.3467
  383TIP3    H122564   0.483   4.353   5.813 -1.1265  0.3268  0.5902
  383TIP3    H222565   0.425   4.486   5.770 -0.2303  0.5335  0.0019
  384TIP3   OH222566   1.962   3.012  14.922 -0.0434  0.1676 -0.2361
  384TIP3    H122567   1.921   2.959  14.854 -0.5324 -0.7599  0.7415
  384TIP3    H222568   1.899   3.082  14.939 -0.8783 -0.7465  0.6359
  385TIP3   OH222569   0.909   1.133  11.644  0.0493  0.6014 -0.0249
  385TIP3    H122570   0.948   1.067  11.587  2.2151  1.4077  0.4032
  385TIP3    H222571   0.829   1.093  11.677 -0.5990 -0.3865 -2.5659
  386TIP3   OH222572   1.240   3.982   4.369  0.2221 -0.3906  0.2983
  386TIP3    H122573   1.269   3.968   4.279 -2.0041  0.3950 -0.6248
  386TIP3    H222574   1.252   4.076   4.383 -0.5318 -0.2997  0.3785
  387TIP3   OH222575   2.836   3.302   3.976 -0.0940 -0.0659 -0.5545
  387TIP3    H122576   2.813   3.234   3.913  0.9751 -1.0791  0.0967
  387TIP3    H222577   2.828   3.384   3.928  0.3258 -0.7903 -1.8922
  388TIP3   OH222578   1.910   4.901  16.698 -0.7714  0.5175 -0.0501
  388TIP3    H122579   1.990   4.954  16.703 -1.0356  0.9900 -0.7284
  388TIP3    H222580   1.840   4.965  16.687 -1.2375  0.0990  0.4330
  389TIP3   OH222581   3.401   5.093   6.523  0.3622 -0.0801 -0.3768
  389TIP3    H122582   3.457   5.171   6.520  0.6284 -0.1835  1.2257
  389TIP3    H222583   3.459   5.023   6.554 -0.6818 -0.1277  1.5891
  390TIP3   OH222584   4.979   4.380  12.682 -0.1156  0.3621  0.9759
  390TIP3    H122585   4.982   4.315  12.752 -0.0762 -1.5615 -0.7312
  390TIP3    H222586   4.923   4.450  12.717 -2.5501 -1.8669  1.8607
  391TIP3   OH222587   0.457   5.665   3.002 -0.3383 -0.1970 -0.1119
  391TIP3    H122588   0.495   5.625   2.924  0.7563 -1.1027  0.8461
  391TIP3    H222589   0.492   5.754   3.003  0.5081 -0.5217 -0.0958
  392TIP3   OH222590   2.772   3.280  13.921  0.0383 -0.0074  0.0399
  392TIP3    H122591   2.712   3.257  13.850 -1.7653  1.7658  0.8597
  392TIP3    H222592   2.851   3.311  13.877 -0.4500 -0.4080 -1.1555
  393TIP3   OH222593   3.800   4.155  14.362  0.1671  0.0358 -0.4666
  393TIP3    H122594   3.784   4.142  14.268  0.4818 -3.0651 -0.2046
  393TIP3    H222595   3.889   4.123  14.375 -0.0177  0.0700  0.9522
  394TIP3   OH222596   1.374   2.404   1.656 -0.5336 -0.3141  0.0968
  394TIP3    H122597   1.437   2.455   1.606 -0.8313  1.4394  1.4218
  394TIP3    H222598   1.416   2.391   1.741 -1.7344  0.4644  0.8320
  395TIP3   OH222599   4.917   0.378  15.526  0.0245  0.1507 -0.4764
  395TIP3    H122600   4.856   0.323  15.477 -0.0956 -1.2042  1.0727
  395TIP3    H222601   4.895   0.468  15.501 -1.5268 -0.3916 -1.1617
  396TIP3   OH222602   3.753   0.874  16.556 -0.0958  0.1786 -0.0901
  396TIP3    H122603   3.798   0.790  16.542 -1.1708 -0.5081  0.4663
  396TIP3    H222604   3.816   0.939  16.526  1.5000 -0.7079  1.1342
  397TIP3   OH222605   5.913   4.092  15.285  0.2019 -0.3345 -0.0400
  397TIP3    H122606   6.001   4.104  15.318 -0.1535 -0.9971  1.2156
  397TIP3    H222607   5.856   4.117  15.358 -0.6848  0.8946 -1.0971
  398TIP3   OH222608   0.915   1.774   4.684  0.3687  0.5687  0.4360
  398TIP3    H122609   0.995   1.721   4.688  1.5476  2.1329 -0.8081
  398TIP3    H222610   0.868   1.742   4.608  0.5419  0.5806  0.3229
  399TIP3   OH222611   0.485   6.374   0.369 -0.1869 -0.1221 -0.2948
  399TIP3    H122612   0.548   6.424   0.421 -1.1250  0.8786 -0.0722
  399TIP3    H222613   0.431   6.440   0.326 -0.1860 -0.9456 -1.6308
  400TIP3   OH222614   0.010   1.021  15.575  0.5696 -0.2492  0.2059
  400TIP3    H122615   0.004   1.003  15.481 -3.0331 -1.4849  0.5072
  400TIP3    H222616  -0.025   0.942  15.617 -0.3973  1.2514  2.4359
  401TIP3   OH222617   6.398   0.137   6.385 -0.2182 -0.4607  0.1708
  401TIP3    H122618   6.320   0.186   6.411  0.3983 -0.1711  1.5884
  401TIP3    H222619   6.424   0.089   6.464  1.4707  0.0681 -0.0111
  402TIP3   OH222620   1.477   5.362  16.133 -0.1788 -0.0929  0.0718
  402TIP3    H122621   1.491   5.294  16.067  0.5322 -0.8278  0.9504
  402TIP3    H222622   1.541   5.430  16.112 -0.6689  0.1680 -0.6132
  403TIP3   OH222623   1.978   6.021   2.356  0.0115 -0.6797  0.1827
  403TIP3    H122624   2.070   6.026   2.381 -0.4924  0.8887  1.8419
  403TIP3    H222625   1.950   5.934   2.385  0.9019 -1.1158 -0.2155
  404TIP3   OH222626   0.870   4.815   5.516  0.2958 -0.1010 -0.1004
  404TIP3    H122627   0.895   4.876   5.586  0.7166 -1.5563  1.0782
  404TIP3    H222628   0.798   4.859   5.471 -0.6883  0.4710  1.9035
  405TIP3   OH222629   3.783   0.484   5.142  0.4208 -0.1924  0.2608
  405TIP3    H122630   3.785   0.558   5.202 -3.3150  0.0196  0.3422
  405TIP3    H222631   3.818   0.411   5.192  0.2403  0.6390  1.6599
  406TIP3   OH222632   3.169   6.150  12.958 -0.6592  0.5090 -0.4015
  406TIP3    H122633   3.154   6.183  12.870  0.5908 -0.7454 -1.1316
  406TIP3    H222634   3.139   6.059  12.955 -2.0118  0.8652  0.9303
  407TIP3   OH222635   2.469   3.430  16.556 -0.1457  0.1413 -0.4905
  407TIP3    H122636   2.434   3.342  16.542  1.5010 -0.3059 -2.2792
  407TIP3    H222637   2.483   3.435  16.650 -2.3559 -0.6359 -0.0664
  408TIP3   OH222638   1.175   2.276  14.978  0.7780  0.3621 -0.1906
  408TIP3    H122639   1.239   2.337  15.014 -0.0672  0.9142  0.3870
  408TIP3    H222640   1.210   2.189  15.001  0.7490  0.6778  1.1481
  409TIP3   OH222641   3.216   6.495   3.209  0.4789 -0.2549 -0.4770
  409TIP3    H122642   3.132   6.523   3.246  0.0582 -1.7016 -0.2765
  409TIP3    H222643   3.271   6.477   3.286  1.0868  0.9098 -0.6051
  410TIP3   OH222644   3.079   4.708   4.133 -0.4006 -0.3202  0.0570
  410TIP3    H122645   3.063   4.672   4.220  2.1932 -2.0708 -0.0569
  410TIP3    H222646   3.086   4.632   4.076  0.6530  0.6051 -1.1346
  411TIP3   OH222647   0.883   1.330   0.687  0.6422  0.0811 -0.1562
  411TIP3    H122648   0.931   1.281   0.753 -0.5502 -0.4516  0.3480
  411TIP3    H222649   0.792   1.326   0.715 -0.0737 -1.0302 -2.3503
  412TIP3   OH222650   5.826   6.321   3.904  0.2052 -0.4721 -0.6628
  412TIP3    H122651   5.763   6.354   3.839 -1.0114  0.7521  1.0458
  412TIP3    H222652   5.827   6.389   3.972  3.6958 -0.2499 -0.7831
  413TIP3   OH222653   0.118   6.305   5.920  0.1067 -0.5635 -1.5405
  413TIP3    H122654   0.065   6.264   5.988  0.0445  0.3223 -1.0500
  413TIP3    H222655   0.055   6.336   5.855 -0.0228  0.7056 -0.8416
  414TIP3   OH222656   0.628   5.105   0.802 -0.6073  0.3712  0.3836
  414TIP3    H122657   0.623   5.153   0.720  0.8045  2.3908  1.3874
  414TIP3    H222658   0.573   5.028   0.788 -1.6481  1.4172 -1.8985
  415TIP3   OH222659   3.267   1.597   0.740  0.8604 -0.5290  0.3329
  415TIP3    H122660   3.337   1.661   0.755  1.6606 -1.9044  3.1371
  415TIP3    H222661   3.306   1.513   0.765 -1.2226 -1.6104  0.1110
  416TIP3   OH222662   4.594   5.916   3.527  0.1877 -0.1830 -0.1258
  416TIP3    H122663   4.604   5.955   3.440  0.7378  1.2352  0.5513
  416TIP3    H222664   4.626   5.983   3.587 -0.1514 -1.1602  1.1760
  417TIP3   OH222665   4.768   5.475   6.517 -0.0244  0.0851  0.8528
  417TIP3    H122666   4.693   5.515   6.473  0.6657 -0.1466 -0.5980
  417TIP3    H222667   4.736   5.389   6.543 -0.0478 -0.3459 -0.5089
  418TIP3   OH222668   2.950   5.466  14.980  0.2072  0.1002 -0.2960
  418TIP3    H122669   2.921   5.501  14.896  0.7992 -2.3201 -1.6096
  418TIP3    H222670   3.010   5.532  15.015  0.4254  0.8907 -2.0759
  419TIP3   OH222671   3.003   3.350  15.328  0.0469 -0.1745 -0.0799
  419TIP3    H122672   3.086   3.345  15.281 -0.3486 -1.0424 -0.7216
  419TIP3    H222673   2.970   3.260  15.328  0.9034 -0.6452  3.5596
  420TIP3   OH222674   3.875   1.105   3.153 -0.1937 -0.0355 -0.4523
  420TIP3    H122675   3.847   1.048   3.224  0.9541 -1.0616 -0.7954
  420TIP3    H222676   3.797   1.114   3.098 -0.3137 -1.5721 -0.5751
  421TIP3   OH222677   6.744   4.552  14.756  0.3644  0.6897 -0.9732
  421TIP3    H122678   6.742   4.609  14.832 -2.1563  0.2869 -0.6670
  421TIP3    H222679   6.654   4.551  14.723  1.1369 -0.0323 -3.3023
  422TIP3   OH222680   3.235   0.811  15.114  0.0685 -0.8072 -0.6560
  422TIP3    H122681   3.155   0.758  15.124 -0.6422  0.4175  0.6089
  422TIP3    H222682   3.203   0.897  15.086  1.2149 -1.0540 -2.8983
  423TIP3   OH222683   3.013   4.655   4.402  0.3298 -0.2228 -0.3185
  423TIP3    H122684   2.994   4.572   4.446 -1.5702  0.1477 -0.3475
  423TIP3    H222685   2.945   4.715   4.434  0.0791  0.5986 -2.2804
  424TIP3   OH222686   5.251   6.146  14.631 -0.0425 -0.0202 -0.7368
  424TIP3    H122687   5.156   6.135  14.628  0.0048 -0.2534 -1.6836
  424TIP3    H222688   5.277   6.154  14.539  0.6372  1.9465 -0.4232
  425TIP3   OH222689   4.221   2.462  15.683 -0.3119 -0.7440  0.2934
  425TIP3    H122690   4.130   2.461  15.653 -0.8367 -1.2708  1.7666
  425TIP3    H222691   4.214   2.461  15.779  1.2312 -2.6873  0.4472
  426TIP3   OH222692   0.261   5.523   6.048  0.5944 -0.3407  0.3607
  426TIP3    H122693   0.222   5.581   6.114 -1.1019  1.3916 -1.9585
  426TIP3    H222694   0.344   5.565   6.025 -0.4063  1.0017 -0.9679
  427TIP3   OH222695   6.481   1.051  12.854 -0.0617 -0.4480 -0.8088
  427TIP3    H122696   6.525   0.976  12.815  1.9383  0.2242  0.0337
  427TIP3    H222697   6.467   1.026  12.945 -1.8214 -0.7833 -1.1336
  428TIP3   OH222698   5.562   4.117  14.041  0.1840 -0.3940 -0.1676
  428TIP3    H122699   5.599   4.147  14.124 -1.3931 -0.3748  0.5654
  428TIP3    H222700   5.503   4.045  14.066 -0.3580 -0.3482 -1.2616
  429TIP3   OH222701   0.382   4.919  16.431 -0.1405  0.4383  0.2085
  429TIP3    H122702   0.379   5.013  16.416 -0.4307  0.3518 -0.3220
  429TIP3    H222703   0.373   4.909  16.526  0.3749  0.9614  0.3188
  430TIP3   OH222704   1.082   4.240  15.775 -0.4907  0.1699  0.2175
  430TIP3    H122705   1.007   4.294  15.751 -0.7089  0.6136  1.7700
  430TIP3    H222706   1.045   4.169  15.827 -0.2997 -1.9981 -2.4321
  431TIP3   OH222707   5.564   4.653  16.830 -0.4048  0.3016  0.6616
  431TIP3    H122708   5.625   4.691  16.893 -0.9459 -0.5212  1.7138
  431TIP3    H222709   5.492   4.716  16.825  0.1814  0.9407 -0.0612
  432TIP3   OH222710   1.664   3.108  12.310 -0.0875  1.1606  0.1931
  432TIP3    H122711   1.711   3.057  12.244 -0.8154  0.7312 -0.0091
  432TIP3    H222712   1.693   3.072  12.394 -0.4904  0.4945  0.0556
  433TIP3   OH222713   4.185   1.419  11.822 -0.2613  0.2215  0.7186
  433TIP3    H122714   4.125   1.356  11.861 -0.9360  1.1199  1.1924
  433TIP3    H222715   4.271   1.379  11.831 -0.9070 -2.0488 -1.8698
  434TIP3   OH222716   4.131   5.006   3.255 -0.3990 -0.6187 -0.0086
  434TIP3    H122717   4.104   5.097   3.264  2.0903  0.1128  0.6939
  434TIP3    H222718   4.154   4.997   3.163  1.0660  0.0240  0.2670
  435TIP3   OH222719   0.247   5.978   6.685 -0.2536 -0.0343 -0.3560
  435TIP3    H122720   0.337   5.948   6.676 -0.2169  0.7370 -3.9103
  435TIP3    H222721   0.248   6.068   6.654 -2.5696 -0.7769 -2.9800
  436TIP3   OH222722   0.116   3.694   6.802 -0.4839  0.2970 -0.8914
  436TIP3    H122723   0.134   3.681   6.708 -1.4113  1.7049 -1.2944
  436TIP3    H222724   0.022   3.708   6.806 -0.3091  1.2935  0.1171
  437TIP3   OH222725   1.688   4.216   3.809  0.0822  0.2867  0.2194
  437TIP3    H122726   1.752   4.211   3.881 -1.7551  0.3319  1.9614
  437TIP3    H222727   1.709   4.298   3.764  1.5146  0.0711  0.4339
  438TIP3   OH222728   1.137   4.531  12.175  0.0397 -0.6008  0.1758
  438TIP3    H122729   1.049   4.542  12.140 -0.1772  0.6258  1.0195
  438TIP3    H222730   1.188   4.601  12.134  0.5326 -1.0644 -0.0136
  439TIP3   OH222731   4.017   3.543   1.897  0.2228  0.0288 -0.0160
  439TIP3    H122732   3.967   3.462   1.889 -2.5973  1.4499  1.9837
  439TIP3    H222733   4.066   3.534   1.979 -1.7465  1.0797  1.3488
  440TIP3   OH222734   0.014   3.267   4.837  0.5940  0.1423  0.0369
  440TIP3    H122735   0.100   3.244   4.803  1.1851  0.6754  1.1197
  440TIP3    H222736  -0.009   3.194   4.895  1.0455  0.7263  0.9806
  441TIP3   OH222737   0.937   5.858   5.827 -0.0446 -0.0406 -0.4570
  441TIP3    H122738   0.995   5.916   5.777  1.7074  0.3222  1.8212
  441TIP3    H222739   0.977   5.772   5.821 -1.3441 -0.5918 -1.8616
  442TIP3   OH222740   1.734   0.084   3.466 -0.2757 -0.2831 -0.3532
  442TIP3    H122741   1.789   0.063   3.541  0.2985  3.0134  0.3301
  442TIP3    H222742   1.789   0.064   3.390  0.2323 -0.9755  0.1862
  443TIP3   OH222743   0.485   5.608   1.361 -0.0520 -0.2783  0.1867
  443TIP3    H122744   0.472   5.528   1.412 -1.7399 -0.7163 -0.8319
  443TIP3    H222745   0.463   5.582   1.271  0.7111  0.9999 -0.3983
  444TIP3   OH222746   3.372   5.395   3.629 -0.2165  0.0929  0.5112
  444TIP3    H122747   3.418   5.365   3.551 -1.3327  0.8312 -0.4676
  444TIP3    H222748   3.406   5.484   3.644 -0.5038  0.2137  0.4511
  445TIP3   OH222749   6.699   4.444  12.604  0.1526 -0.0204  0.0639
  445TIP3    H122750   6.722   4.520  12.550  1.2018  0.6572  1.4244
  445TIP3    H222751   6.781   4.396  12.615 -0.0435 -0.1662  1.0034
  446TIP3   OH222752   6.174   4.189   4.365 -0.2382  0.0919 -0.4697
  446TIP3    H122753   6.185   4.108   4.315 -0.7633 -0.5637  0.4517
  446TIP3    H222754   6.212   4.170   4.451 -1.3751  0.4358  0.1301
  447TIP3   OH222755   5.585   1.172  15.795 -0.2513 -0.0273 -0.3679
  447TIP3    H122756   5.678   1.192  15.805 -0.3028  0.0568 -0.0745
  447TIP3    H222757   5.540   1.237  15.848 -0.3614 -1.9726  2.1093
  448TIP3   OH222758   3.632   3.159   5.743  0.0155  0.5781 -0.4619
  448TIP3    H122759   3.592   3.154   5.830  2.2743  1.9897  0.7707
  448TIP3    H222760   3.632   3.069   5.711 -2.1676  0.2402  0.3399
  449TIP3   OH222761   6.198   2.928  13.427 -0.7432 -0.5552 -0.2898
  449TIP3    H122762   6.140   2.853  13.423 -0.2429 -0.9226 -0.7778
  449TIP3    H222763   6.251   2.922  13.348  0.9968 -1.0829  0.8561
  450TIP3   OH222764   2.017   3.464  13.405 -0.0546 -0.1474 -0.3108
  450TIP3    H122765   1.928   3.447  13.373 -0.5554  0.8412  0.4927
  450TIP3    H222766   2.007   3.538  13.465  0.6536 -2.3699  2.8023
  451TIP3   OH222767   4.055   2.388  13.435  0.0980  0.3146 -0.1929
  451TIP3    H122768   4.010   2.304  13.436 -0.5567  0.6305  1.7969
  451TIP3    H222769   4.020   2.434  13.359  1.1695 -1.5373 -1.8674
  452TIP3   OH222770   1.105   4.210  13.641 -0.0389 -0.1767 -0.4997
  452TIP3    H122771   1.187   4.259  13.644 -0.8135  1.2318 -1.1301
  452TIP3    H222772   1.064   4.227  13.726  0.9042 -2.0148  0.3739
  453TIP3   OH222773   1.108   6.329   6.069  0.0340 -0.5283  0.0767
  453TIP3    H122774   1.147   6.243   6.083  1.7448  0.1354 -0.4232
  453TIP3    H222775   1.181   6.386   6.048 -1.2001  0.8024 -0.8248
  454TIP3   OH222776   0.929   1.146   4.082  0.1028  0.5557  0.4991
  454TIP3    H122777   0.940   1.144   4.177 -0.6785  1.0314  0.6128
  454TIP3    H222778   0.904   1.057   4.059 -2.2739  0.9978  1.1054
  455TIP3   OH222779   4.702   0.105  12.033  0.0804  0.3541 -0.1490
  455TIP3    H122780   4.720   0.086  12.125 -1.3611  1.3277  0.3653
  455TIP3    H222781   4.726   0.025  11.986  0.1197 -0.4238  1.1642
  456TIP3   OH222782   5.514   6.225  12.493  0.0185  0.4766 -0.7395
  456TIP3    H122783   5.441   6.283  12.470 -0.0989  0.9167  0.6801
  456TIP3    H222784   5.588   6.285  12.508  0.5739  0.0667 -1.7381
  457TIP3   OH222785   3.545   6.159   6.532 -0.2855 -0.2722  0.0514
  457TIP3    H122786   3.578   6.080   6.490  0.0757  0.5235 -1.1929
  457TIP3    H222787   3.570   6.150   6.624  2.3696 -0.2401 -0.6114
  458TIP3   OH222788   2.912   6.401   0.608 -0.0741 -0.2008  0.2996
  458TIP3    H122789   2.951   6.328   0.561 -1.5998  0.3675 -2.0196
  458TIP3    H222790   2.958   6.479   0.576 -0.4560  0.1135  0.5007
  459TIP3   OH222791   1.407   6.263  17.477 -0.1312 -0.1610 -0.9232
  459TIP3    H122792   1.322   6.307  17.487  0.9321  2.0693 -1.1177
  459TIP3    H222793   1.470   6.334  17.468  2.1090 -1.6670  1.5027
  460TIP3   OH222794   1.964   1.661  14.833 -0.3227  0.5005  0.2029
  460TIP3    H122795   1.983   1.567  14.825  0.2298  0.6182  0.1007
  460TIP3    H222796   2.050   1.703  14.825 -0.7255  1.1073 -1.2009
  461TIP3   OH222797   4.660   0.686   5.048  0.0873  0.2971 -0.6256
  461TIP3    H122798   4.664   0.594   5.022  2.1626 -0.2146  1.2118
  461TIP3    H222799   4.668   0.735   4.967 -0.6006 -1.1294 -1.5908
  462TIP3   OH222800   5.517   5.375   6.255  0.0817  0.0813 -0.1039
  462TIP3    H122801   5.578   5.448   6.263  1.6008 -1.3444  3.4512
  462TIP3    H222802   5.571   5.301   6.228 -0.0003 -1.0962  2.6410
  463TIP3   OH222803   3.244   2.999   0.770  0.0295 -0.1471  0.0081
  463TIP3    H122804   3.268   3.081   0.812 -0.0342 -0.0912 -0.0650
  463TIP3    H222805   3.179   3.024   0.704 -1.2017 -0.4333  1.0587
  464TIP3   OH222806   5.969   5.338  16.579  0.4441 -0.1680 -0.3848
  464TIP3    H122807   6.063   5.329  16.560  0.7805  0.9222  0.6339
  464TIP3    H222808   5.959   5.430  16.605 -0.6347 -0.6576  1.0170
  465TIP3   OH222809   2.032   6.575  13.045  0.0011 -0.1239 -0.3665
  465TIP3    H122810   2.098   6.614  12.988  1.0755 -0.4512  0.6186
  465TIP3    H222811   2.057   6.603  13.133 -2.3791  1.4714 -0.1141
  466TIP3   OH222812   4.483   2.190   4.599  0.2654 -0.2849 -0.2004
  466TIP3    H122813   4.480   2.267   4.541  0.6231  0.4390  0.7272
  466TIP3    H222814   4.574   2.163   4.598  0.3956  0.1260  0.5396
  467TIP3   OH222815   3.999   6.743  17.475 -0.4817  0.1684  0.6963
  467TIP3    H122816   4.072   6.684  17.492 -1.2351 -1.2232 -0.6345
  467TIP3    H222817   3.933   6.718  17.540 -0.7011 -0.2820  0.3031
  468TIP3   OH222818   4.098   1.422   0.554  0.3533 -0.2694 -0.3881
  468TIP3    H122819   4.067   1.335   0.578  0.5553 -0.1359  0.3684
  468TIP3    H222820   4.070   1.479   0.625  1.4782  0.0260 -0.1481
  469TIP3   OH222821   6.227   1.757   6.726  0.1634 -0.0383 -0.4758
  469TIP3    H122822   6.206   1.664   6.723  0.7229 -0.1547 -0.8843
  469TIP3    H222823   6.172   1.796   6.657  0.2774 -0.1371 -0.6229
  470TIP3   OH222824   3.791   0.067   2.831  0.5419 -0.5343  0.2737
  470TIP3    H122825   3.751   0.007   2.768 -1.3634 -0.2214  1.1187
  470TIP3    H222826   3.873   0.093   2.790 -0.2073 -1.0562 -1.6696
  471TIP3   OH222827   2.722   1.694  12.333 -0.2085 -0.1372 -0.1364
  471TIP3    H122828   2.654   1.670  12.396  0.2293 -0.5904  0.1712
  471TIP3    H222829   2.676   1.747  12.268 -1.4506 -2.4778 -1.3194
  472TIP3   OH222830   2.892   0.103   2.776 -0.0604 -0.2458 -0.4256
  472TIP3    H122831   2.882   0.191   2.813 -0.4752 -1.3390  2.3609
  472TIP3    H222832   2.987   0.089   2.774  0.0198  0.3577 -1.1683
  473TIP3   OH222833   0.749   3.244  12.946 -0.1820  0.1555 -0.0278
  473TIP3    H122834   0.810   3.184  12.904  2.5031  2.7887 -0.2266
  473TIP3    H222835   0.762   3.232  13.039  0.3006  0.3551 -0.0677
  474TIP3   OH222836   5.418   3.755   2.843  0.0763 -0.3344 -0.4316
  474TIP3    H122837   5.479   3.818   2.882  0.8699 -1.1360 -0.3416
  474TIP3    H222838   5.471   3.703   2.783 -0.9370  0.2364 -1.8768
  475TIP3   OH222839   1.789   4.172  17.378  0.3287  0.2891 -0.4307
  475TIP3    H122840   1.848   4.246  17.367  1.8741 -0.7918  0.1413
  475TIP3    H222841   1.719   4.187  17.315  0.7311  2.0817 -0.5016
  476TIP3   OH222842   3.333   1.692   2.250 -0.6972 -0.2771  0.2557
  476TIP3    H122843   3.314   1.722   2.339 -1.2317  1.1984 -0.3231
  476TIP3    H222844   3.251   1.706   2.202  0.2567  1.3328 -1.0453
  477TIP3   OH222845   3.614   0.092  12.203 -0.3814 -0.5035 -0.1101
  477TIP3    H122846   3.524   0.061  12.201  0.3031 -2.7381  0.5619
  477TIP3    H222847   3.624   0.132  12.289 -1.4376  2.3381 -1.1960
  478TIP3   OH222848   2.362   1.237  15.037 -0.4144  0.4349 -0.0066
  478TIP3    H122849   2.306   1.162  15.060 -0.4625  0.5082  0.1168
  478TIP3    H222850   2.301   1.303  15.003 -0.5522  0.9327  1.1548
  479TIP3   OH222851   5.813   1.924  16.376  0.0357 -0.3441 -0.0694
  479TIP3    H122852   5.816   1.883  16.462  2.8355  1.7817  1.0268
  479TIP3    H222853   5.723   1.953  16.366 -0.5245 -1.2862  1.8344
  480TIP3   OH222854   2.009   2.304  14.801 -0.5758 -0.3959 -0.1248
  480TIP3    H122855   1.997   2.395  14.827 -1.2839 -0.6050  0.2966
  480TIP3    H222856   2.019   2.256  14.883 -0.1979 -0.7016 -0.3442
  481TIP3   OH222857   3.220   4.041  16.686 -0.1034 -0.2918  0.2945
  481TIP3    H122858   3.181   4.030  16.773  0.0620 -0.7789  0.3081
  481TIP3    H222859   3.246   3.953  16.660 -2.5537 -0.5962 -1.4066
  482TIP3   OH222860   6.641   1.350   1.713 -0.7753 -0.2012  0.1527
  482TIP3    H122861   6.692   1.430   1.721  0.7175 -1.2088  1.1215
  482TIP3    H222862   6.670   1.311   1.630 -0.2173 -0.6098  0.5406
  483TIP3   OH222863   4.581   3.740  11.812 -0.1742  0.1095  0.6350
  483TIP3    H122864   4.635   3.801  11.761  0.8235 -0.9521  0.3690
  483TIP3    H222865   4.491   3.759  11.785  0.0572  1.7272  0.8754
  484TIP3   OH222866   0.117   2.180   1.841 -0.1707 -0.2297  0.3073
  484TIP3    H122867   0.189   2.133   1.884 -0.8598 -2.3868 -0.7364
  484TIP3    H222868   0.136   2.172   1.748 -0.7082  1.0186  0.0711
  485TIP3   OH222869   2.964   0.854   0.643 -0.1992 -0.1320  0.1382
  485TIP3    H122870   2.951   0.947   0.657  0.7831 -0.2095  1.8903
  485TIP3    H222871   2.892   0.812   0.691 -0.5741 -0.3019 -0.5494
  486TIP3   OH222872   4.235   3.482   2.092  0.3494  0.6833  0.3750
  486TIP3    H122873   4.323   3.519   2.098  0.8590 -0.5843  0.9716
  486TIP3    H222874   4.212   3.459   2.182  0.5216 -1.4769 -0.0828
  487TIP3   OH222875   2.993   4.492  14.300 -0.6568 -0.3140  0.2005
  487TIP3    H122876   3.051   4.562  14.273  0.2092 -0.1760  2.2368
  487TIP3    H222877   2.906   4.531  14.300 -0.3086  0.4659  0.3145
  488TIP3   OH222878   4.194   3.530   1.676 -0.1574 -0.2053 -0.3074
  488TIP3    H122879   4.258   3.600   1.685 -0.3191 -0.0158 -0.6018
  488TIP3    H222880   4.148   3.529   1.760 -0.5559  0.4490 -0.5070
  489TIP3   OH222881   0.856   1.383   4.557  0.0470  0.0163 -0.1766
  489TIP3    H122882   0.921   1.330   4.603 -1.0922 -2.6437 -1.4466
  489TIP3    H222883   0.794   1.320   4.520 -1.4842  2.2486 -1.7189
  490TIP3   OH222884   4.971   2.186  11.264 -0.4646 -0.5088 -1.0588
  490TIP3    H122885   5.043   2.187  11.327 -1.0875  0.0196 -0.3371
  490TIP3    H222886   5.009   2.148  11.185  1.1832  1.6327 -1.3915
  491TIP3   OH222887   6.407   5.512   4.675 -0.6037 -0.0621  0.0341
  491TIP3    H122888   6.451   5.579   4.729  1.6119 -0.3527 -1.2982
  491TIP3    H222889   6.478   5.469   4.628 -2.2718 -1.3430 -1.4253
  492TIP3   OH222890   3.620   1.963  11.626 -0.2736  0.2512 -0.1728
  492TIP3    H122891   3.658   2.031  11.570 -0.0216 -0.6598 -1.1197
  492TIP3    H222892   3.685   1.893  11.627 -2.1968 -1.7742 -2.6006
  493TIP3   OH222893   0.348   4.896  10.978 -0.3025 -0.2931 -0.3510
  493TIP3    H122894   0.439   4.887  11.005 -0.0590 -0.9215 -1.3178
  493TIP3    H222895   0.328   4.814  10.932 -0.9471  0.3496 -1.2593
  494TIP3   OH222896   1.343   2.035  11.822 -0.0334 -0.9130  0.1120
  494TIP3    H122897   1.405   2.045  11.750  1.1018 -1.4927  0.9835
  494TIP3    H222898   1.262   2.075  11.790  0.9669  0.4583 -0.8139
  495TIP3   OH222899   0.106   2.463  14.526  0.8629 -0.0949 -0.1608
  495TIP3    H122900   0.029   2.504  14.486  1.3047 -0.9857 -2.0447
  495TIP3    H222901   0.139   2.529  14.587 -1.6116  0.1534  1.0518
  496TIP3   OH222902   3.078   1.332   2.384  0.0800  0.1273 -0.5137
  496TIP3    H122903   3.161   1.351   2.341  0.7565 -1.7530 -0.1489
  496TIP3    H222904   3.022   1.300   2.314  1.3331 -3.3998 -0.1375
  497TIP3   OH222905   1.933   4.468   2.180  0.4426  0.3061 -0.4845
  497TIP3    H122906   1.857   4.445   2.234  1.4244  0.3524  0.9693
  497TIP3    H222907   1.928   4.409   2.105  0.0731 -1.0780  0.5928
  498TIP3   OH222908   4.846   4.774   4.787 -0.3227 -0.3449 -0.5929
  498TIP3    H122909   4.849   4.774   4.692 -0.8351 -0.0348 -0.6120
  498TIP3    H222910   4.754   4.790   4.808  0.0596  1.2539 -0.0425
  499TIP3   OH222911   4.708   6.644   0.536 -0.3221  0.1123  0.3036
  499TIP3    H122912   4.683   6.730   0.503  1.9690  0.3658 -0.9154
  499TIP3    H222913   4.725   6.592   0.458  0.1956 -0.8782  1.0530
  500TIP3   OH222914   3.865   3.507  11.261 -0.3172 -0.7445 -0.4888
  500TIP3    H122915   3.781   3.548  11.241  0.3617  0.5609 -0.7359
  500TIP3    H222916   3.842   3.417  11.285 -1.9449  0.0060  1.0229
  501TIP3   OH222917   1.939   0.523   1.054  0.0106  0.2804  0.4365
  501TIP3    H122918   2.003   0.521   1.125  0.0595  0.7650  0.4083
  501TIP3    H222919   1.859   0.486   1.092  0.1569  0.1579  0.6247
  502TIP3   OH222920   1.942   2.721   4.059  0.2987  0.0941  0.1019
  502TIP3    H122921   2.012   2.658   4.073  1.2067  1.3174  1.4401
  502TIP3    H222922   1.985   2.806   4.068 -1.0434  0.9014 -0.7669
  503TIP3   OH222923   6.735   3.229  14.800 -0.3795  0.1130  0.3097
  503TIP3    H122924   6.665   3.188  14.852  0.6765 -0.6296  1.1994
  503TIP3    H222925   6.806   3.165  14.801 -0.1784  0.2392 -1.7751
  504TIP3   OH222926   6.191   1.600  12.506 -0.0776  0.2776  0.7992
  504TIP3    H122927   6.245   1.613  12.428 -1.7083  2.1807 -0.1133
  504TIP3    H222928   6.197   1.684  12.552 -0.4992 -0.2456  1.8239
  505TIP3   OH222929   6.717   2.334   0.396 -0.3354 -0.2195  0.0961
  505TIP3    H122930   6.625   2.352   0.375  0.0781  0.0714 -1.6332
  505TIP3    H222931   6.714   2.285   0.478 -1.9931  0.3177  0.3912
  506TIP3   OH222932   1.984   4.666  12.139 -0.7494 -0.0290  0.1286
  506TIP3    H122933   2.010   4.751  12.105  0.2977 -1.0009 -1.6388
  506TIP3    H222934   1.960   4.683  12.231  0.2380  1.9965  0.0601
  507TIP3   OH222935   3.684   0.907  11.419  0.5278 -0.2226  0.0862
  507TIP3    H122936   3.637   0.979  11.461  0.3061 -1.2132  1.6423
  507TIP3    H222937   3.775   0.937  11.417  0.5457 -0.1428  1.3184
  508TIP3   OH222938   4.652   1.171   1.239 -0.2523  0.4853 -0.3110
  508TIP3    H122939   4.600   1.109   1.290 -1.7484  0.2528 -2.0415
  508TIP3    H222940   4.640   1.255   1.283 -1.5677  0.3039 -0.2981
  509TIP3   OH222941   3.822   3.770   0.779  0.1343  0.3231 -0.3107
  509TIP3    H122942   3.830   3.677   0.799 -0.3300  0.1478 -0.9048
  509TIP3    H222943   3.900   3.810   0.818  1.5194 -0.6399 -1.9848
  510TIP3   OH222944   5.244   4.448  13.990  0.0494  0.0034 -0.4166
  510TIP3    H122945   5.292   4.405  13.919 -1.1415 -0.6633 -0.8482
  510TIP3    H222946   5.218   4.375  14.047  0.0439  0.4188  0.1125
  511TIP3   OH222947   2.016   5.742   6.770  0.4823  0.4483  0.0573
  511TIP3    H122948   2.032   5.748   6.865 -0.2772  0.5267  0.1841
  511TIP3    H222949   2.005   5.649   6.754  0.0045  0.4904  0.1462
  512TIP3   OH222950   0.563   2.700   4.130 -0.8704  0.2222 -0.4860
  512TIP3    H122951   0.505   2.725   4.203 -0.2993 -0.2904  0.1479
  512TIP3    H222952   0.512   2.722   4.051 -2.3832 -1.2181  0.0446
  513TIP3   OH222953   0.297   4.604  13.771  0.1731  0.5827  0.1146
  513TIP3    H122954   0.373   4.632  13.720 -0.2580  1.1377 -0.2361
  513TIP3    H222955   0.284   4.512  13.746  0.0848  0.7933 -0.6368
  514TIP3   OH222956   5.449   5.536  12.679 -0.6775  0.2572 -0.4061
  514TIP3    H122957   5.528   5.538  12.624 -0.7998 -0.6888 -0.6240
  514TIP3    H222958   5.411   5.623  12.667  0.9928  1.1978  0.6972
  515TIP3   OH222959   3.738   4.675   1.151  0.1895  0.4375 -0.2132
  515TIP3    H122960   3.704   4.605   1.095 -0.9328 -0.2036  1.1890
  515TIP3    H222961   3.767   4.743   1.091  1.5066 -1.2851 -1.6603
  516TIP3   OH222962   4.996   0.203   1.371  0.8282  0.2496 -0.1468
  516TIP3    H122963   4.960   0.136   1.313  0.1075  0.7029 -0.2403
  516TIP3    H222964   4.964   0.179   1.458 -0.4477  1.1226 -0.3476
  517TIP3   OH222965   5.053   5.602   0.599 -0.0713 -0.5009  0.0015
  517TIP3    H122966   5.141   5.565   0.604  1.2730  2.3442 -0.4049
  517TIP3    H222967   5.021   5.601   0.689  1.5605  0.8655  0.6586
  518TIP3   OH222968   4.080   3.837  13.903  0.0738  0.0581  0.2707
  518TIP3    H122969   4.063   3.747  13.874  1.2861  0.2780 -1.2816
  518TIP3    H222970   4.142   3.827  13.975 -0.1240 -0.3832  0.3830
  519TIP3   OH222971   4.420   3.347  13.903 -0.2551  0.8230  0.6237
  519TIP3    H122972   4.375   3.372  13.822 -0.4204 -0.3407  0.3401
  519TIP3    H222973   4.365   3.384  13.972  0.0887  2.1502  0.2125
  520TIP3   OH222974   2.137   2.779   1.496  0.0227 -0.4472  0.0181
  520TIP3    H122975   2.147   2.873   1.511 -2.5834 -0.3773  2.2317
  520TIP3    H222976   2.097   2.773   1.410  0.3668  0.4499 -0.2235
  521TIP3   OH222977   1.444   0.469  13.058 -0.4723 -0.4907  0.0937
  521TIP3    H122978   1.517   0.408  13.065  2.0611  2.2924  0.0050
  521TIP3    H222979   1.418   0.487  13.148  0.7930  0.4669  0.2935
  522TIP3   OH222980   1.848   3.874  15.453  0.4918 -0.3945 -0.2030
  522TIP3    H122981   1.878   3.876  15.544  1.9820  2.0355 -0.6574
  522TIP3    H222982   1.839   3.966  15.429 -2.0120 -0.9649 -1.8952
  523TIP3   OH222983   4.311   5.494   2.008  0.3394  0.2975  0.2831
  523TIP3    H122984   4.295   5.583   1.978 -1.6042  0.2636  1.0797
  523TIP3    H222985   4.259   5.485   2.088  2.0108 -0.9572  1.3168
  524TIP3   OH222986   2.346   0.384  12.073 -0.2829 -0.2003  0.3974
  524TIP3    H122987   2.357   0.304  12.021 -1.7143 -1.5800  2.0997
  524TIP3    H222988   2.435   0.416  12.086  0.3714 -1.7506  0.0267
  525TIP3   OH222989   1.773   2.983   2.609  0.6744  0.2474 -0.0090
  525TIP3    H122990   1.856   2.964   2.654  0.6499  0.8461  0.3085
  525TIP3    H222991   1.725   2.901   2.611  0.1907  0.5204  2.1279
  526TIP3   OH222992   6.399   5.119   6.194  0.9033 -0.3743  0.2059
  526TIP3    H122993   6.490   5.125   6.223  1.1713  0.5460 -0.7756
  526TIP3    H222994   6.353   5.187   6.244  0.7867 -0.6963  0.5443
  527TIP3   OH222995   6.521   6.330  13.114 -0.3862  0.2914  0.0413
  527TIP3    H122996   6.547   6.385  13.041 -1.0128  0.2085 -0.2518
  527TIP3    H222997   6.568   6.365  13.190 -0.0175  0.6026 -0.3321
  528TIP3   OH222998   4.364   3.908   5.043  0.4673 -0.3358  0.4794
  528TIP3    H122999   4.389   4.000   5.052 -1.7936  0.5087 -1.0132
  528TIP3    H223000   4.421   3.874   4.974 -0.0236  0.5727 -0.4135
  529TIP3   OH223001   0.880   3.990   6.231  0.2315 -0.1336 -0.3610
  529TIP3    H123002   0.956   3.995   6.289  0.9682 -0.4494 -1.2691
  529TIP3    H223003   0.873   4.078   6.193 -0.4802  0.1840  0.4528
  530TIP3   OH223004   6.668   4.157   5.126  0.0982  0.6011  0.1869
  530TIP3    H123005   6.763   4.155   5.115  0.1485 -0.1317  0.6751
  530TIP3    H223006   6.643   4.066   5.138 -0.7519  0.7273 -0.5255
  531TIP3   OH223007   0.445   2.611  15.954 -0.0834 -0.0359  0.5343
  531TIP3    H123008   0.426   2.705  15.951  0.4092  0.0255 -1.5875
  531TIP3    H223009   0.535   2.606  15.985  0.3128  0.2626 -0.5533
  532TIP3   OH223010   2.949   3.014   5.089 -0.2172  0.2722  0.0666
  532TIP3    H123011   2.922   3.025   4.998  1.8793 -0.0211 -0.6408
  532TIP3    H223012   2.963   3.104   5.120  2.3079  0.3222 -1.0039
  533TIP3   OH223013   1.638   6.644   1.494 -0.1539  0.1582  0.3801
  533TIP3    H123014   1.547   6.622   1.514 -0.2293  1.3306  1.4468
  533TIP3    H223015   1.640   6.740   1.493  0.8776  0.1519 -0.5977
  534TIP3   OH223016   6.381   6.400   6.851 -0.1767  0.0347 -0.5639
  534TIP3    H123017   6.449   6.336   6.867  0.8336  0.7412 -1.8331
  534TIP3    H223018   6.421   6.485   6.870 -0.7184  0.4545 -1.1906
  535TIP3   OH223019   1.327   5.635  15.216  0.1356  0.4973 -0.1689
  535TIP3    H123020   1.391   5.626  15.286 -0.0799  1.1459  0.1169
  535TIP3    H223021   1.246   5.600  15.253 -0.0228  1.0130 -0.0319
  536TIP3   OH223022   3.854   6.014   4.720 -0.1770 -0.1314  0.3510
  536TIP3    H123023   3.859   5.928   4.678 -0.4280  0.6907 -1.4171
  536TIP3    H223024   3.945   6.036   4.739  0.0682  0.0631 -0.9887
  537TIP3   OH223025   4.007   5.537   3.659  0.2875  0.7638 -0.2662
  537TIP3    H123026   3.957   5.577   3.588 -1.7207 -0.6868  0.2271
  537TIP3    H223027   3.967   5.571   3.739  0.7849  0.3797  0.1568
  538TIP3   OH223028   4.087   0.430  11.650  0.1446 -0.8180 -0.4936
  538TIP3    H123029   4.157   0.383  11.606 -1.5938 -2.0666 -2.0953
  538TIP3    H223030   4.106   0.419  11.743  1.5719 -1.8986 -0.8714
  539TIP3   OH223031   1.793   4.569   5.393 -0.0898 -0.0733 -0.1774
  539TIP3    H123032   1.814   4.611   5.477 -0.2588  2.2370 -1.2043
  539TIP3    H223033   1.709   4.525   5.408 -1.1934  2.0888  0.3637
  540TIP3   OH223034   4.188   4.000  16.875 -0.4573  0.5521  1.1611
  540TIP3    H123035   4.231   3.988  16.959 -1.2758 -2.8266  1.2408
  540TIP3    H223036   4.095   4.008  16.896 -0.7274 -0.8547  0.5892
  541TIP3   OH223037   0.138   1.929  13.111 -0.1318  0.2718 -0.1215
  541TIP3    H123038   0.183   1.917  13.028 -0.8539 -0.2559 -0.4403
  541TIP3    H223039   0.090   2.012  13.101 -1.3081 -0.4668 -0.7394
  542TIP3   OH223040   4.868   5.822   3.010  0.1169 -0.5175 -0.5840
  542TIP3    H123041   4.832   5.776   3.086 -1.0726 -1.6476 -1.7813
  542TIP3    H223042   4.929   5.886   3.047 -1.9699  0.4331  1.4690
  543TIP3   OH223043   4.947   4.832  12.574 -0.1875  0.5227  0.2006
  543TIP3    H123044   5.013   4.901  12.574  0.5320 -0.1428 -0.2743
  543TIP3    H223045   4.877   4.865  12.630 -0.1761  1.9279 -0.5607
  544TIP3   OH223046   4.416   5.400   6.339  0.7937  1.0559 -0.3242
  544TIP3    H123047   4.464   5.475   6.375  0.5146  1.1104 -0.0588
  544TIP3    H223048   4.481   5.351   6.289  1.2613  0.8194  0.5007
  545TIP3   OH223049   5.954   0.349  11.011 -0.1907 -0.1639  0.7019
  545TIP3    H123050   5.871   0.319  10.975  0.1202 -1.5866  1.0797
  545TIP3    H223051   5.978   0.425  10.958 -1.6557  0.1839  0.5171
  546TIP3   OH223052   2.037   4.970  16.118  0.5915  0.9090 -0.1387
  546TIP3    H123053   1.971   4.956  16.050 -0.4665  0.7397  0.8835
  546TIP3    H223054   2.112   5.008  16.072  0.0577  0.4208 -1.4481
  547TIP3   OH223055   2.034   6.350   3.267  0.5341  0.2235  0.2147
  547TIP3    H123056   1.987   6.378   3.188 -1.0047 -1.4367  0.4654
  547TIP3    H223057   2.100   6.289   3.235  1.0701  0.8657  0.0719
  548TIP3   OH223058   5.278   2.018   4.946  0.8061  0.4200 -0.5286
  548TIP3    H123059   5.187   1.996   4.966  0.4714  0.5954 -1.8003
  548TIP3    H223060   5.278   2.042   4.854  1.9335  1.6163 -0.2566
  549TIP3   OH223061   5.887   2.834   2.221  0.0838 -0.0963  0.5325
  549TIP3    H123062   5.820   2.890   2.260 -0.7210  0.5954 -1.7033
  549TIP3    H223063   5.849   2.804   2.139  2.3299  0.0014 -0.6332
  550TIP3   OH223064   4.555   0.580  16.571 -0.2787 -0.1109  0.0243
  550TIP3    H123065   4.536   0.562  16.663 -0.4732  0.3900  0.0834
  550TIP3    H223066   4.469   0.596  16.532 -0.2564 -0.8748 -0.3721
  551TIP3   OH223067   0.403   2.895  11.352  0.4476  0.3209 -0.0587
  551TIP3    H123068   0.476   2.869  11.296  1.6318 -0.3687  1.7269
  551TIP3    H223069   0.397   2.990  11.342  0.7525  0.2411 -1.1655
  552TIP3   OH223070   5.104   6.112   5.820  0.5367  1.0091  0.3072
  552TIP3    H123071   5.010   6.129   5.824 -0.1004 -1.6433 -1.3176
  552TIP3    H223072   5.117   6.034   5.873  1.8304  1.2723  0.4152
  553TIP3   OH223073   6.437   5.883   6.985  0.2827  0.3088  0.3252
  553TIP3    H123074   6.379   5.827   7.036  1.5339  0.0102  1.4600
  553TIP3    H223075   6.518   5.889   7.037  1.9095 -0.6146 -1.9316
  554TIP3   OH223076   1.629   4.563  15.600 -0.0754  0.1125  0.5253
  554TIP3    H123077   1.707   4.539  15.650  2.4448 -0.1236 -3.0964
  554TIP3    H223078   1.619   4.657  15.615  2.9683  0.8499 -1.2746
  555TIP3   OH223079   3.685   2.464   4.858 -0.1586 -0.1887 -0.0670
  555TIP3    H123080   3.749   2.525   4.822  0.2101  0.8651  2.1917
  555TIP3    H223081   3.606   2.480   4.807 -0.1344  2.3888  0.5858
  556TIP3   OH223082   2.228   4.907   2.154 -0.6087  0.0416  0.1089
  556TIP3    H123083   2.271   4.961   2.088 -0.5730 -0.8614 -0.6256
  556TIP3    H223084   2.137   4.902   2.125 -0.4308 -0.9736 -0.2905
  557TIP3   OH223085   1.577   3.032  14.499 -0.4345  0.3872  0.3101
  557TIP3    H123086   1.561   3.033  14.593  0.6520 -0.2429  0.5102
  557TIP3    H223087   1.533   2.953  14.468  0.4808 -0.2159  0.5307
  558TIP3   OH223088   3.766   5.950  11.424 -0.2091 -0.3097  0.5767
  558TIP3    H123089   3.808   5.942  11.339 -1.3564 -1.1798  0.0697
  558TIP3    H223090   3.673   5.956  11.405 -0.4268  0.4353  1.7306
  559TIP3   OH223091   0.202   4.871  15.502  0.2269 -0.0743 -0.2328
  559TIP3    H123092   0.230   4.834  15.418  0.1067  1.0572 -0.7975
  559TIP3    H223093   0.183   4.962  15.482  0.4186  0.2754  1.0862
  560TIP3   OH223094   1.088   0.966   4.659  0.4180 -0.3628 -0.0300
  560TIP3    H123095   1.102   0.900   4.728  0.8452 -0.7838 -0.5131
  560TIP3    H223096   0.993   0.978   4.657  0.3576 -0.7561  0.2519
  561TIP3   OH223097   3.073   3.298   1.227  0.1461  0.0605 -0.1097
  561TIP3    H123098   3.034   3.213   1.250  0.0111  0.1215 -0.1109
  561TIP3    H223099   3.010   3.336   1.166  1.3114 -0.8672 -2.0072
  562TIP3   OH223100   5.417   4.291  11.221 -0.2830  0.5964 -0.6134
  562TIP3    H123101   5.332   4.249  11.209  0.6478 -1.5069 -0.3424
  562TIP3    H223102   5.466   4.269  11.142 -0.5703  3.4233 -1.6550
  563TIP3   OH223103   4.811   0.194  13.629 -0.3665  0.4806  0.1655
  563TIP3    H123104   4.861   0.178  13.550  0.4123 -0.9542  0.9150
  563TIP3    H223105   4.873   0.234  13.690  0.2469 -2.2164  1.4442
  564TIP3   OH223106   2.323   4.851   6.522  0.0411  0.2851 -0.1613
  564TIP3    H123107   2.345   4.863   6.615 -1.8355 -2.8208  0.8532
  564TIP3    H223108   2.239   4.897   6.512  0.0830  0.3489 -0.2154
  565TIP3   OH223109   1.175   1.478  11.967  0.0379  0.8932 -0.5462
  565TIP3    H123110   1.224   1.398  11.982  1.7355  1.7591 -1.1977
  565TIP3    H223111   1.099   1.471  12.025  0.2217 -1.0954 -0.4973
  566TIP3   OH223112   0.607   4.841  12.767 -0.0019 -0.9154  0.1006
  566TIP3    H123113   0.625   4.761  12.717 -0.4383 -0.2534 -1.1701
  566TIP3    H223114   0.639   4.912  12.711 -1.6470 -0.0640  0.1792
  567TIP3   OH223115   3.091   3.545   1.384  0.1554 -0.2534  0.2132
  567TIP3    H123116   3.056   3.472   1.335  0.2357 -1.7510  2.2589
  567TIP3    H223117   3.157   3.506   1.442  1.9793  1.8037 -0.3325
  568TIP3   OH223118   3.505   6.584   2.386  0.0244  1.1476  0.0854
  568TIP3    H123119   3.587   6.547   2.353 -0.0150  1.1867 -0.0587
  568TIP3    H223120   3.465   6.513   2.437  0.4733  1.3508  0.7312
  569TIP3   OH223121   2.708   0.727  14.271  0.1554 -0.3483  0.0709
  569TIP3    H123122   2.767   0.679  14.330  0.2499 -1.2515 -0.7292
  569TIP3    H223123   2.765   0.761  14.202 -0.2282 -1.2472 -0.7226
  570TIP3   OH223124   3.929   1.318   4.450 -0.5831  0.4085  0.4350
  570TIP3    H123125   3.932   1.255   4.522  0.2631  0.6120  0.5906
  570TIP3    H223126   3.861   1.381   4.475 -2.1144 -0.9418 -0.1609
  571TIP3   OH223127   1.309   3.388   3.877  0.3857 -0.0293 -0.2028
  571TIP3    H123128   1.396   3.407   3.912 -0.0423  0.0500  0.8484
  571TIP3    H223129   1.325   3.350   3.790  1.4380  0.5363 -0.2608
  572TIP3   OH223130   5.886   6.600  10.641 -0.7606  0.1286  0.0143
  572TIP3    H123131   5.813   6.657  10.616 -0.1575  0.7401 -0.4153
  572TIP3    H223132   5.850   6.541  10.707 -1.8168 -0.0322 -0.6833
  573TIP3   OH223133   2.211   0.630   5.126  0.1977  0.3026  0.2477
  573TIP3    H123134   2.263   0.563   5.171  0.5048 -0.0115 -0.5389
  573TIP3    H223135   2.229   0.615   5.033  0.3089  1.5134  0.0548
  574TIP3   OH223136   4.591   0.826  16.238  0.5919  0.1464  0.4320
  574TIP3    H123137   4.558   0.736  16.245  1.5191 -0.1352  1.4461
  574TIP3    H223138   4.670   0.819  16.185  1.1542  0.2066  1.2333
  575TIP3   OH223139   5.139   1.697   3.191 -0.4366  0.4257  0.2054
  575TIP3    H123140   5.227   1.736   3.191  0.0512 -0.6231 -1.0162
  575TIP3    H223141   5.099   1.730   3.272  1.3233  0.3692  1.1549
  576TIP3   OH223142   1.625   3.885  15.964 -0.3536 -0.4156  0.3682
  576TIP3    H123143   1.714   3.868  15.994  0.3598  2.0176 -0.1850
  576TIP3    H223144   1.571   3.876  16.042  1.1039  3.1915  2.0251
  577TIP3   OH223145   6.136   5.625   0.912  0.1909 -0.6228  0.1988
  577TIP3    H123146   6.136   5.549   0.971 -1.1384 -1.2794 -0.5873
  577TIP3    H223147   6.055   5.672   0.934  1.8273  1.6241  1.8980
  578TIP3   OH223148   1.547   1.931   2.169 -0.0940 -0.6708 -0.5233
  578TIP3    H123149   1.481   1.930   2.100  0.4279  0.4694 -1.0619
  578TIP3    H223150   1.584   1.843   2.168 -1.9651 -1.5202  0.1808
  579TIP3   OH223151   2.444   2.407   3.777 -0.5327 -0.1750  0.0566
  579TIP3    H123152   2.401   2.491   3.760  0.6279  0.1391 -1.5941
  579TIP3    H223153   2.502   2.394   3.702  0.6076 -1.6216  1.1185
  580TIP3   OH223154   5.297   2.156  14.270 -0.0311 -0.2401  0.0105
  580TIP3    H123155   5.373   2.213  14.262  0.5725 -0.7905  1.4548
  580TIP3    H223156   5.240   2.200  14.333 -0.1547 -0.5925  0.1486
  581TIP3   OH223157   0.782   6.052  11.271 -0.5219  0.6585 -0.1702
  581TIP3    H123158   0.872   6.084  11.271 -0.0100 -0.7468 -0.1425
  581TIP3    H223159   0.759   6.044  11.364 -0.5584  0.6608 -0.1795
  582TIP3   OH223160   4.979   0.253   2.363  0.0611  0.0886  0.4282
  582TIP3    H123161   5.054   0.308   2.341 -0.2132  0.1014 -0.5128
  582TIP3    H223162   4.976   0.255   2.459  1.3072  0.0209  0.4960
  583TIP3   OH223163   1.060   1.814  10.441 -0.2035 -0.5576  0.0063
  583TIP3    H123164   0.970   1.788  10.420 -0.1005 -0.9636  0.0576
  583TIP3    H223165   1.051   1.876  10.513 -0.5025  0.1157 -0.5852
  584TIP3   OH223166   6.256   5.814   1.485 -0.5513 -0.4695 -0.2869
  584TIP3    H123167   6.303   5.814   1.569  1.3341  2.0046 -1.2193
  584TIP3    H223168   6.290   5.737   1.439  0.4714 -0.3336  0.1935
  585TIP3   OH223169   6.002   6.324   5.709  0.3187 -0.4223  0.7473
  585TIP3    H123170   6.062   6.268   5.659  0.2746 -0.5215  0.8040
  585TIP3    H223171   6.058   6.367   5.774  0.2278 -1.0385  1.2536
  586TIP3   OH223172   4.381   2.734   4.434 -0.9594  0.5247  0.3184
  586TIP3    H123173   4.373   2.743   4.339 -0.2087  0.0782  0.2040
  586TIP3    H223174   4.384   2.640   4.449 -0.2585  0.5994  0.6990
  587TIP3   OH223175   5.157   1.313  13.587 -0.1734  0.0154 -0.2081
  587TIP3    H123176   5.196   1.279  13.667 -1.7220 -0.6810  0.2891
  587TIP3    H223177   5.206   1.271  13.516  1.1554  0.5841  0.3422
  588TIP3   OH223178   1.705   6.464   0.946  0.3288  0.2865  0.0008
  588TIP3    H123179   1.684   6.520   1.021 -3.1006  1.2377 -1.4528
  588TIP3    H223180   1.745   6.522   0.882  2.3485 -0.3214  0.6373
  589TIP3   OH223181   5.085   5.612  14.976 -0.6789  0.3035  0.0871
  589TIP3    H123182   5.169   5.591  15.018 -1.3663  0.1020  1.4046
  589TIP3    H223183   5.088   5.707  14.963 -0.2646  0.3075  0.1917
  590TIP3   OH223184   6.146   1.537  16.745  0.2034  0.3164  1.0054
  590TIP3    H123185   6.183   1.519  16.659 -0.8246  0.9698  0.4044
  590TIP3    H223186   6.167   1.460  16.797  0.2131 -0.4045 -0.0442
  591TIP3   OH223187   4.646   6.627  16.612 -0.7901  0.6164  0.4592
  591TIP3    H123188   4.697   6.607  16.690 -0.2945 -1.3466 -0.3032
  591TIP3    H223189   4.557   6.644  16.645 -0.3477  0.9609  1.5232
  592TIP3   OH223190   3.067   1.133  11.617 -0.3060 -0.2023 -0.0770
  592TIP3    H123191   3.102   1.062  11.564 -3.1499 -1.6635 -0.1464
  592TIP3    H223192   3.009   1.181  11.558  1.4578  2.2361 -0.0063
  593TIP3   OH223193   4.102   1.054   3.312 -0.4460 -0.4400 -0.3345
  593TIP3    H123194   4.103   0.966   3.276 -2.0162 -0.4103 -0.4924
  593TIP3    H223195   4.028   1.098   3.269  0.5837  1.1217 -0.6270
  594TIP3   OH223196   0.069   5.341   4.662 -0.3146  0.4639 -0.3727
  594TIP3    H123197   0.102   5.312   4.747  2.1034 -0.7207 -1.6245
  594TIP3    H223198   0.078   5.265   4.605  0.1288  1.8206 -2.2045
  595TIP3   OH223199   1.807   2.804   5.428  0.0408 -0.8995  0.1631
  595TIP3    H123200   1.787   2.771   5.340  0.6502 -2.5664  0.6091
  595TIP3    H223201   1.725   2.841   5.459 -0.5956 -1.6685 -0.5446
  596TIP3   OH223202   4.144   4.067  16.291 -0.2851 -0.0031 -0.1386
  596TIP3    H123203   4.081   4.093  16.358 -0.2130  0.4885 -0.2584
  596TIP3    H223204   4.127   3.974  16.276 -0.6977  0.0290  0.1310
  597TIP3   OH223205   5.724   0.177  17.441 -0.2019  0.2833  0.3567
  597TIP3    H123206   5.687   0.265  17.452 -0.3583  0.0690  1.8120
  597TIP3    H223207   5.649   0.119  17.446 -0.4861  0.1290 -3.3443
  598TIP3   OH223208   4.220   0.830  15.421  0.6911 -0.6438 -1.2492
  598TIP3    H123209   4.236   0.746  15.378 -0.1173 -1.2016 -0.5114
  598TIP3    H223210   4.163   0.808  15.496  1.7025  0.3335 -0.1509
  599TIP3   OH223211   6.145   5.610  11.077  0.4639  0.1254 -0.0386
  599TIP3    H123212   6.146   5.670  11.152  1.4270  1.3629 -1.0034
  599TIP3    H223213   6.085   5.651  11.015  0.1290 -0.5985 -0.2060
  600TIP3   OH223214   1.006   1.944   3.048  0.4759 -0.2437  0.2028
  600TIP3    H123215   1.064   2.003   3.095  0.4059  0.8615 -1.0605
  600TIP3    H223216   1.053   1.920   2.969 -0.1628 -0.5826 -0.0862
  601TIP3   OH223217   6.399   6.121  13.625 -0.3257  0.3326  0.1477
  601TIP3    H123218   6.388   6.111  13.530  1.2660  1.3012 -0.1689
  601TIP3    H223219   6.392   6.215  13.640  1.5226  0.4087  0.6735
  602TIP3   OH223220   4.565   4.954   4.581  0.3531  0.1287 -0.1299
  602TIP3    H123221   4.595   4.916   4.664 -0.0444 -0.3026 -0.1818
  602TIP3    H223222   4.519   5.034   4.606 -3.0400 -1.8162  0.4478
  603TIP3   OH223223   0.690   1.076   2.405  0.2630 -0.3780  0.4956
  603TIP3    H123224   0.606   1.108   2.439  0.2250 -1.3513  1.3734
  603TIP3    H223225   0.676   0.982   2.390  0.6074 -0.1792 -1.2604
  604TIP3   OH223226   1.932   4.084  16.067 -0.1546  0.1760 -0.1417
  604TIP3    H123227   2.012   4.131  16.046  0.3896 -1.2133 -1.2861
  604TIP3    H223228   1.865   4.122  16.010  0.3853 -0.7023 -1.4024
  605TIP3   OH223229   0.116   3.449  16.451 -0.0990 -0.0273 -0.0037
  605TIP3    H123230   0.139   3.356  16.455 -0.4887 -0.1244  0.0457
  605TIP3    H223231   0.191   3.490  16.408 -0.5306 -0.5940 -1.3772
  606TIP3   OH223232   1.517   2.775  13.747 -0.3289  0.1443 -0.7258
  606TIP3    H123233   1.574   2.699  13.762 -1.9344 -0.7513  1.5214
  606TIP3    H223234   1.571   2.851  13.769  0.3719 -0.5897  0.1688
  607TIP3   OH223235   4.411   3.484   3.161  0.1857 -0.0896  0.5948
  607TIP3    H123236   4.413   3.524   3.074  2.6086  0.1199  0.6857
  607TIP3    H223237   4.373   3.398   3.147 -1.0971  0.5925 -0.3383
  608TIP3   OH223238   6.685   4.805   6.046 -0.0845 -0.1468  0.5713
  608TIP3    H123239   6.752   4.764   6.102 -0.6203  0.4372  1.6849
  608TIP3    H223240   6.708   4.898   6.046  0.4905 -0.2653 -1.0432
  609TIP3   OH223241   4.783   6.478  15.766 -0.3746  0.0633  0.1974
  609TIP3    H123242   4.865   6.471  15.815 -0.2787  0.1540  0.0528
  609TIP3    H223243   4.802   6.436  15.682 -0.6012 -0.2797  0.3132
  610TIP3   OH223244   6.339   2.109   1.587  0.5817 -0.1958 -0.1891
  610TIP3    H123245   6.311   2.026   1.625  1.4321 -0.6181 -0.4539
  610TIP3    H223246   6.390   2.151   1.656 -0.3288  0.3871  0.1509
  611TIP3   OH223247   0.922   1.046  10.581 -0.1695 -0.6539  0.4176
  611TIP3    H123248   0.868   0.970  10.603  0.3817 -0.8751  1.0595
  611TIP3    H223249   0.923   1.098  10.661  1.4369 -1.1944  0.7919
  612TIP3   OH223250   1.657   0.600   2.548 -0.2790  0.6133 -0.2177
  612TIP3    H123251   1.717   0.658   2.501  0.4863 -1.0823 -1.4232
  612TIP3    H223252   1.712   0.525   2.574 -1.1776  0.5035  1.4976
  613TIP3   OH223253   5.359   2.237  15.335 -0.9704 -0.2492 -0.2627
  613TIP3    H123254   5.267   2.264  15.332 -1.0109 -0.4267 -0.8650
  613TIP3    H223255   5.378   2.210  15.245 -0.1539  0.3743 -0.2913
  614TIP3   OH223256   4.458   6.554   3.174  0.5270 -0.0272  0.3879
  614TIP3    H123257   4.543   6.516   3.194  0.1673 -0.5477  0.9425
  614TIP3    H223258   4.413   6.487   3.123  0.2381  0.0288  0.5708
  615TIP3   OH223259   3.783   1.727   0.444  0.1891  0.1336  0.2037
  615TIP3    H123260   3.861   1.764   0.403 -1.1599  1.3271 -1.4152
  615TIP3    H223261   3.713   1.790   0.425 -0.7974  0.1663  3.3851
  616TIP3   OH223262   6.726   4.646  16.300  0.4232 -0.1154 -0.2661
  616TIP3    H123263   6.794   4.670  16.236  2.0769 -0.2240  1.3490
  616TIP3    H223264   6.648   4.694  16.272  1.2145  0.1698 -2.1013
  617TIP3   OH223265   3.487   5.547   2.996  0.0732 -0.0992 -0.4721
  617TIP3    H123266   3.500   5.580   2.908  2.2447  0.6381  0.0733
  617TIP3    H223267   3.542   5.602   3.051 -0.4077 -1.2216  1.2138
  618TIP3   OH223268   5.849   1.082  13.522  0.5830  0.3478 -0.6679
  618TIP3    H123269   5.763   1.111  13.554  0.2373 -0.7094 -0.6200
  618TIP3    H223270   5.864   0.999  13.566  1.4170  0.2859 -1.0574
  619TIP3   OH223271   1.144   4.656   3.580 -0.0726  0.3333 -0.2864
  619TIP3    H123272   1.117   4.584   3.638  1.0763  0.1542  0.0525
  619TIP3    H223273   1.162   4.613   3.496 -0.4117  0.3841 -0.3846
  620TIP3   OH223274   2.791   3.311   1.195  0.9506 -0.3615 -0.0064
  620TIP3    H123275   2.782   3.399   1.231 -1.0704 -0.4626 -0.1584
  620TIP3    H223276   2.722   3.260   1.238  1.2032 -1.5333 -0.9225
  621TIP3   OH223277   6.485   5.446  11.854 -0.1571  0.2512 -0.7242
  621TIP3    H123278   6.473   5.419  11.763 -0.4215  4.6799 -2.2742
  621TIP3    H223279   6.576   5.476  11.858 -0.9772  3.0693 -0.6366
  622TIP3   OH223280   5.773   4.581  15.734  0.1786  0.5344 -0.7813
  622TIP3    H123281   5.682   4.561  15.711  0.0176  1.2856 -0.8290
  622TIP3    H223282   5.813   4.496  15.751 -0.3736  0.1510 -1.3565
  623TIP3   OH223283   4.882   1.208   5.022 -0.1454  0.1581 -0.3158
  623TIP3    H123284   4.954   1.215   5.084 -1.5997 -0.8468  1.6122
  623TIP3    H223285   4.905   1.133   4.968  0.2204 -0.2404  0.3713
  624TIP3   OH223286   0.318   0.690   2.725  0.4356 -0.0640  0.0017
  624TIP3    H123287   0.295   0.677   2.817  0.7574  1.6622  0.3632
  624TIP3    H223288   0.236   0.715   2.683  0.5131  0.3127  0.0715
  625TIP3   OH223289   2.370   3.626   3.492 -0.4708 -0.2958 -0.3762
  625TIP3    H123290   2.360   3.671   3.408 -2.0274 -0.3040 -0.2190
  625TIP3    H223291   2.444   3.670   3.534 -1.3156  1.4691 -0.6555
  626TIP3   OH223292   4.916   5.966   6.714 -0.3042  0.1653  0.7597
  626TIP3    H123293   4.898   5.934   6.626 -0.2558  1.0790  0.4117
  626TIP3    H223294   4.954   6.053   6.701 -0.4350  0.3698  1.6803
  627TIP3   OH223295   6.742   0.870   1.961 -0.8554  0.5462  0.0030
  627TIP3    H123296   6.717   0.902   2.048 -1.2468  1.3027 -0.3824
  627TIP3    H223297   6.671   0.811   1.936 -0.2708 -0.4304  0.5949
  628TIP3   OH223298   1.821   3.344  12.984 -0.5566 -0.1798 -0.0953
  628TIP3    H123299   1.830   3.383  13.071 -0.7834 -0.7953  0.2098
  628TIP3    H223300   1.833   3.250  12.999 -0.0554 -0.2340 -0.8121
  629TIP3   OH223301   2.221   4.077  17.422  0.2776  0.6962  0.0374
  629TIP3    H123302   2.294   4.116  17.469 -0.8344  0.3873  2.1570
  629TIP3    H223303   2.158   4.149  17.412 -0.0812  0.4282  0.3273
  630TIP3   OH223304   4.670   2.592   0.451 -0.6450  0.4170  0.1570
  630TIP3    H123305   4.665   2.671   0.503  0.4700  0.5982  0.0235
  630TIP3    H223306   4.643   2.619   0.363  0.8598  0.9548 -0.1728
  631TIP3   OH223307   2.333   6.287  16.957 -0.1483  0.9391  0.0935
  631TIP3    H123308   2.296   6.306  17.044 -1.2467  0.8368 -0.3405
  631TIP3    H223309   2.405   6.226  16.975 -1.6612 -0.7443  0.7857
  632TIP3   OH223310   3.832   4.177  11.494  0.0697  0.0343  0.8148
  632TIP3    H123311   3.835   4.139  11.406  0.1954  0.4559  0.6298
  632TIP3    H223312   3.914   4.226  11.501 -0.0945  0.2783  1.0359
  633TIP3   OH223313   3.826   4.036  12.187 -0.4572  0.1555  0.7368
  633TIP3    H123314   3.791   3.952  12.217  0.3022 -0.2412  0.5289
  633TIP3    H223315   3.749   4.092  12.178 -1.4149 -1.4236 -2.2040
  634TIP3   OH223316   2.998   3.295  13.019  0.0733  0.3450 -0.6310
  634TIP3    H123317   2.922   3.353  13.016 -0.0417  0.3131  0.6788
  634TIP3    H223318   3.056   3.335  13.084 -0.1410 -1.1076  0.5426
  635TIP3   OH223319   3.664   0.995  14.550 -0.5792  0.7035 -0.1218
  635TIP3    H123320   3.571   1.005  14.571 -0.4328 -0.6742  1.3368
  635TIP3    H223321   3.710   1.041  14.621 -0.1385  0.8345 -0.4857
  636TIP3   OH223322   1.953   1.461   0.607  0.0825  0.0652  0.1565
  636TIP3    H123323   1.915   1.437   0.522 -0.2060 -0.8213  0.5275
  636TIP3    H223324   1.881   1.502   0.654  0.2074  0.4367  0.0306
  637TIP3   OH223325   5.720   2.785  15.972  0.4184 -0.3944 -0.1191
  637TIP3    H123326   5.647   2.775  15.910 -1.2393 -0.3837  1.7399
  637TIP3    H223327   5.695   2.733  16.048  2.1011  0.0779  0.8085
  638TIP3   OH223328   0.783   2.665   2.665 -0.2663 -0.0805 -0.3294
  638TIP3    H123329   0.715   2.599   2.672 -0.2815 -0.0739 -0.4182
  638TIP3    H223330   0.737   2.745   2.641 -0.0528 -0.4383 -2.0990
  639TIP3   OH223331   0.062   2.784  15.498  0.8793  0.2177 -0.2604
  639TIP3    H123332   0.140   2.733  15.518  1.2907  0.3121 -1.5458
  639TIP3    H223333   0.026   2.744  15.419  0.7512  1.3998 -0.8253
  640TIP3   OH223334   3.272   3.930   2.037 -0.0457  0.6639 -0.0560
  640TIP3    H123335   3.257   4.015   1.995  1.5634  1.3130  0.6021
  640TIP3    H223336   3.285   3.869   1.965 -0.0738  1.2019 -0.5231
  641TIP3   OH223337   3.942   2.144   5.849  0.5088 -0.0297 -0.2594
  641TIP3    H123338   4.034   2.120   5.865  0.5573  0.1925 -0.2023
  641TIP3    H223339   3.907   2.162   5.936  0.4277 -0.0465 -0.2889
  642TIP3   OH223340   3.654   4.415  15.264 -0.4368 -0.8428  0.0672
  642TIP3    H123341   3.733   4.411  15.318 -0.1549 -0.6375 -0.3247
  642TIP3    H223342   3.633   4.508  15.259 -0.9762 -0.9302  0.5531
  643TIP3   OH223343   6.011   5.242   4.933 -0.4702 -0.3165  0.2840
  643TIP3    H123344   6.085   5.214   4.880 -1.2630  0.3177 -1.1952
  643TIP3    H223345   5.969   5.160   4.960  0.6943 -0.6805  1.1049
  644TIP3   OH223346   2.340   6.029  11.133 -0.4136 -0.2957  0.5604
  644TIP3    H123347   2.275   6.090  11.100 -0.3623 -0.6775 -0.2840
  644TIP3    H223348   2.414   6.037  11.072  0.2719  0.0217  1.4128
  645TIP3   OH223349   6.197   3.826  16.252 -0.4119 -0.4696 -0.4102
  645TIP3    H123350   6.262   3.864  16.193  0.0031 -0.9100 -0.2507
  645TIP3    H223351   6.218   3.733  16.253 -1.2988 -0.6753 -0.6561
  646TIP3   OH223352   0.255   6.009  14.948  0.6882  0.2080 -0.0234
  646TIP3    H123353   0.182   6.007  15.010  0.6449  0.6051 -0.0546
  646TIP3    H223354   0.218   6.046  14.868  0.6875 -0.5402 -0.3712
  647TIP3   OH223355   2.339   2.559   6.280  0.2805 -0.2739 -0.1250
  647TIP3    H123356   2.340   2.471   6.317 -0.9969 -0.4147 -0.3884
  647TIP3    H223357   2.249   2.571   6.249  0.3326  1.2667  0.2611
  648TIP3   OH223358   1.510   1.133  17.257 -0.0919 -0.6173  0.0745
  648TIP3    H123359   1.571   1.127  17.184  0.8190  2.2883  0.4541
  648TIP3    H223360   1.424   1.140  17.216  0.4345  1.3615 -0.8234
  649TIP3   OH223361   1.015   2.926  14.874  0.1519 -0.0130  0.1917
  649TIP3    H123362   0.965   2.928  14.792  0.1645  1.1010  0.1951
  649TIP3    H223363   1.104   2.949  14.847  0.9111 -2.7489  0.0558
  650TIP3   OH223364   1.949   2.724  15.558 -0.2833 -0.1548  0.3572
  650TIP3    H123365   1.994   2.808  15.544 -1.4594  0.4782  0.2349
  650TIP3    H223366   1.954   2.679  15.474 -2.1711  1.0792 -0.4864
  651TIP3   OH223367   3.070   1.026   0.278 -0.2176  0.0221  0.3678
  651TIP3    H123368   3.155   0.984   0.265 -0.8177 -0.4745 -2.4737
  651TIP3    H223369   3.092   1.112   0.316  1.7197  0.5089 -1.6464
  652TIP3   OH223370   3.512   0.962  13.408 -0.4410 -1.2436 -0.0297
  652TIP3    H123371   3.434   0.908  13.401 -0.0934 -2.0613  1.7764
  652TIP3    H223372   3.570   0.931  13.338 -1.6811 -0.6279 -1.3779
  653TIP3   OH223373   0.530   4.163  16.245 -0.4015 -0.2089 -0.0256
  653TIP3    H123374   0.524   4.160  16.150  2.2577  0.0172 -0.2854
  653TIP3    H223375   0.530   4.071  16.272  3.3616 -0.5728 -0.7610
  654TIP3   OH223376   2.979   1.812   2.241  0.0533 -0.1614 -0.5206
  654TIP3    H123377   3.034   1.804   2.319 -1.2718  1.5812  0.6685
  654TIP3    H223378   2.898   1.767   2.263 -0.2420  0.1268 -0.9896
  655TIP3   OH223379   3.270   6.660   2.243  0.1661  0.0461 -0.4374
  655TIP3    H123380   3.354   6.662   2.287 -0.1621 -0.5340  0.2332
  655TIP3    H223381   3.292   6.654   2.150  0.8638 -0.4367 -0.2500
  656TIP3   OH223382   3.884   3.322   0.018 -0.1600  0.0903 -0.2551
  656TIP3    H123383   3.813   3.371   0.059  0.4946  0.9553 -0.1268
  656TIP3    H223384   3.854   3.309  -0.072 -1.8134 -2.2289  0.5293
  657TIP3   OH223385   4.318   2.002  16.005 -0.5479  0.0011 -0.2655
  657TIP3    H123386   4.225   2.018  16.020 -0.4169  0.5609 -0.0054
  657TIP3    H223387   4.360   2.023  16.088 -0.3994 -2.3524  0.3313
  658TIP3   OH223388   1.837   6.458   1.483  0.1650  0.3540  0.4881
  658TIP3    H123389   1.794   6.543   1.475  1.4540  0.9980  0.2254
  658TIP3    H223390   1.783   6.399   1.430 -1.2666  0.7724  1.4093
  659TIP3   OH223391   2.719   1.633  14.322 -0.2851  0.1540  0.6947
  659TIP3    H123392   2.762   1.584  14.252 -2.0909  0.7311 -0.9026
  659TIP3    H223393   2.649   1.575  14.352 -0.5499  0.5796  0.9000
  660TIP3   OH223394   2.597   3.983   5.680 -0.3051  0.5062 -0.7842
  660TIP3    H123395   2.626   3.903   5.722  0.6579  0.5371 -1.3619
  660TIP3    H223396   2.580   4.044   5.752  1.2990  0.5549 -0.4058
  661TIP3   OH223397   6.240   4.671   4.227  0.1270  0.7678  0.1625
  661TIP3    H123398   6.179   4.597   4.234 -0.3089  1.1063  0.0202
  661TIP3    H223399   6.313   4.637   4.176  0.9190 -0.1855  1.8193
  662TIP3   OH223400   2.204   6.210  14.402  0.4714  0.7027  0.7065
  662TIP3    H123401   2.162   6.293  14.425 -1.2142  0.7252 -1.9987
  662TIP3    H223402   2.131   6.149  14.390  1.6826 -1.3689  2.9610
  663TIP3   OH223403   3.516   0.604   1.615 -0.2986  0.3986  0.0593
  663TIP3    H123404   3.603   0.642   1.625 -0.1387  0.2630 -0.7366
  663TIP3    H223405   3.517   0.526   1.671 -0.4609  1.2711  1.3119
  664TIP3   OH223406   4.731   4.015  11.429 -0.4823  0.4635  0.8803
  664TIP3    H123407   4.814   4.005  11.381 -0.3414  1.1334  0.9795
  664TIP3    H223408   4.751   3.985  11.518 -0.7626 -0.8478  0.5270
  665TIP3   OH223409   0.655   2.895  17.017 -0.3465  0.2134  0.0466
  665TIP3    H123410   0.561   2.900  17.037 -0.2504  0.9246  0.3229
  665TIP3    H223411   0.669   2.961  16.949 -0.0356  0.1290  0.0282
  666TIP3   OH223412   4.265   2.422  12.481  0.1975  0.1119 -0.9527
  666TIP3    H123413   4.338   2.361  12.470  0.1957 -0.2465  0.7015
  666TIP3    H223414   4.206   2.402  12.409  0.8984 -0.8194 -1.2979
  667TIP3   OH223415   0.822   3.585   3.696  0.2006 -0.0393 -0.3144
  667TIP3    H123416   0.911   3.615   3.677  0.7440 -1.6252 -0.4789
  667TIP3    H223417   0.835   3.496   3.731 -1.2689  0.0465  0.5002
  668TIP3   OH223418   6.686   1.618  16.137  0.0151 -0.0865  0.4358
  668TIP3    H123419   6.731   1.680  16.193  0.0596 -0.8482  1.2639
  668TIP3    H223420   6.631   1.567  16.196 -0.6938 -0.2509 -0.3425
  669TIP3   OH223421   1.683   6.717  13.850  0.0312 -0.0470 -0.0177
  669TIP3    H123422   1.730   6.641  13.883  0.6803 -0.3955 -1.6487
  669TIP3    H223423   1.697   6.785  13.916  4.1650  0.3706 -1.0786
  670TIP3   OH223424   1.009   4.746  17.214 -0.0585  0.5952  0.3040
  670TIP3    H123425   1.056   4.709  17.139  0.5382  1.1121  0.4141
  670TIP3    H223426   1.000   4.839  17.193 -1.3433  0.4437  0.1362
  671TIP3   OH223427   2.941   3.726  14.344 -0.2237  0.5507  0.1605
  671TIP3    H123428   2.969   3.718  14.252  0.7329 -0.4942  0.5127
  671TIP3    H223429   3.004   3.787  14.383 -1.0624  1.5608 -0.0240
  672TIP3   OH223430   4.927   0.578   1.948  0.1894  0.3415  0.1998
  672TIP3    H123431   4.953   0.501   1.998 -3.8555 -1.2225  0.2390
  672TIP3    H223432   5.004   0.598   1.894  2.0162 -2.5866  1.4537
  673TIP3   OH223433   5.183   3.629  15.615 -0.0225  0.9391  0.9920
  673TIP3    H123434   5.222   3.566  15.554  0.7192  2.7674 -0.5038
  673TIP3    H223435   5.088   3.613  15.608 -0.0560  1.8553 -1.5972
  674TIP3   OH223436   1.580   0.176   1.532  0.4703 -0.2165 -0.4949
  674TIP3    H123437   1.540   0.256   1.567  1.0122  0.8142 -2.1174
  674TIP3    H223438   1.618   0.203   1.449  1.1712 -2.0587 -0.8145
  675TIP3   OH223439   2.093   6.291   5.823  0.1323 -0.3227  0.7809
  675TIP3    H123440   2.004   6.281   5.858  0.0591  0.3397  0.7956
  675TIP3    H223441   2.113   6.383   5.836 -0.2015  0.1693 -1.6363
  676TIP3   OH223442   2.209   1.762  15.734 -0.2436 -0.6250 -0.3438
  676TIP3    H123443   2.141   1.796  15.792 -0.3363 -2.1179  0.4876
  676TIP3    H223444   2.230   1.676  15.770  0.9834 -0.8482 -1.5029
  677TIP3   OH223445   2.023   0.422   5.587 -0.7929  0.1792  0.2358
  677TIP3    H123446   2.109   0.428   5.629 -1.1142 -0.0990  0.9429
  677TIP3    H223447   2.043   0.411   5.494 -0.0255 -1.6274  0.5715
  678TIP3   OH223448   4.486   6.287  15.168  0.3683  0.0511 -0.5066
  678TIP3    H123449   4.465   6.343  15.243  0.7281 -0.0892 -0.2961
  678TIP3    H223450   4.425   6.315  15.100  0.1882  0.3376 -0.2355
  679TIP3   OH223451   1.703   4.599   0.486  0.2291 -0.1808 -0.2087
  679TIP3    H123452   1.671   4.521   0.531  0.2821  0.4079  0.8582
  679TIP3    H223453   1.650   4.671   0.520  1.0576  0.4435 -0.2062
  680TIP3   OH223454   6.232   2.848  14.861 -0.2877 -0.1552 -0.5885
  680TIP3    H123455   6.240   2.941  14.882 -2.9154 -0.1756  0.8748
  680TIP3    H223456   6.296   2.806  14.919  0.3099  0.6687 -0.6258
  681TIP3   OH223457   5.340   5.896   5.782  0.0688 -0.0833 -0.2314
  681TIP3    H123458   5.252   5.931   5.770 -0.5738 -2.0491 -1.6826
  681TIP3    H223459   5.334   5.842   5.861 -0.0674 -0.3825 -0.4486
  682TIP3   OH223460   0.214   1.260   5.417 -0.0656 -0.3966 -0.0923
  682TIP3    H123461   0.230   1.170   5.446  0.7506 -0.5736 -1.0519
  682TIP3    H223462   0.126   1.257   5.380  0.4162 -1.1005 -1.2269
  683TIP3   OH223463   2.952   4.738  17.112  0.4886 -0.5311 -0.4566
  683TIP3    H123464   2.881   4.762  17.053 -0.2738 -0.4566  0.4578
  683TIP3    H223465   2.924   4.655  17.151  1.5189 -1.1765 -1.0563
  684TIP3   OH223466   4.965   5.898  15.312  0.0177 -0.1630 -0.0381
  684TIP3    H123467   5.005   5.906  15.225 -1.2767  2.5656 -0.4857
  684TIP3    H223468   5.040   5.889  15.371  1.1920  1.7592 -1.1146
  685TIP3   OH223469   3.105   0.077   5.956 -0.2340 -0.3786  0.0180
  685TIP3    H123470   3.125   0.029   5.876  0.8171 -0.8370  0.5400
  685TIP3    H223471   3.111   0.011   6.026 -0.7329  0.0986  0.5221
  686TIP3   OH223472   4.903   4.623   1.673 -0.5688  0.2698 -0.0585
  686TIP3    H123473   4.855   4.671   1.740  0.4368  0.3947  0.5916
  686TIP3    H223474   4.836   4.571   1.629 -1.4216  1.0462  0.2855
  687TIP3   OH223475   0.274   2.593  15.517  0.2045 -0.4369  0.1892
  687TIP3    H123476   0.211   2.537  15.561 -0.5736 -1.2731 -1.8816
  687TIP3    H223477   0.328   2.534  15.465  1.3257  0.4617  0.2900
  688TIP3   OH223478   1.866   0.875  17.337  0.2972 -0.1254 -0.1200
  688TIP3    H123479   1.868   0.780  17.326  1.7118  0.0816 -1.9876
  688TIP3    H223480   1.798   0.889  17.403 -2.4193 -2.2223 -2.1987
  689TIP3   OH223481   1.503   1.187   2.845 -0.7866  0.0609  0.6170
  689TIP3    H123482   1.574   1.208   2.783 -0.7201  1.4734  1.1389
  689TIP3    H223483   1.441   1.135   2.793  0.3134 -0.6782 -0.0157
  690TIP3   OH223484   4.611   4.373   3.430  0.9467  0.3149 -0.6602
  690TIP3    H123485   4.688   4.429   3.444 -0.1996  1.6412  0.6480
  690TIP3    H223486   4.558   4.385   3.508 -0.1197 -1.4173 -1.0515
  691TIP3   OH223487   1.812   3.772   2.431  0.1617 -0.0553 -0.3654
  691TIP3    H123488   1.757   3.703   2.395 -1.0540  0.8413 -0.2588
  691TIP3    H223489   1.762   3.809   2.503  0.5164  1.3545 -0.8086
  692TIP3   OH223490   4.597   1.009  17.098  0.0101 -0.2335 -0.0521
  692TIP3    H123491   4.561   1.067  17.031  0.7012  0.1592 -0.0901
  692TIP3    H223492   4.539   0.933  17.098 -0.6485  0.2649 -0.3093
  693TIP3   OH223493   5.954   5.591   0.414 -0.2101 -0.0479  0.0702
  693TIP3    H123494   5.885   5.602   0.480 -0.3504  0.4865 -0.1614
  693TIP3    H223495   5.972   5.680   0.384 -0.1150 -0.2861 -0.5806
  694TIP3   OH223496   4.809   0.260   5.303  0.2013 -1.1270 -0.2242
  694TIP3    H123497   4.786   0.190   5.242 -2.1150  1.1416 -2.1723
  694TIP3    H223498   4.897   0.287   5.276  0.9090 -2.8826  0.2320
  695TIP3   OH223499   3.946   3.288  10.671 -0.2732 -0.3284  0.0836
  695TIP3    H123500   3.897   3.370  10.667  0.3801  0.0719  0.0976
  695TIP3    H223501   3.887   3.227  10.716  0.6592  1.1947  3.7947
  696TIP3   OH223502   0.515   3.179   5.298 -0.4313  0.1677  0.0171
  696TIP3    H123503   0.544   3.100   5.344 -0.4153 -0.0827 -0.4183
  696TIP3    H223504   0.590   3.238   5.305 -0.4548  0.1602  0.3740
  697TIP3   OH223505   5.113   0.187  13.074 -0.2316 -0.1572  0.8489
  697TIP3    H123506   5.159   0.271  13.067  0.7544 -0.6344  1.3368
  697TIP3    H223507   5.023   0.207  13.047 -0.3181  1.3085  2.0419
  698TIP3   OH223508   3.857   5.055  10.836  0.1997 -0.3462  0.2993
  698TIP3    H123509   3.855   5.090  10.746 -2.2214  0.2296  0.5061
  698TIP3    H223510   3.846   4.961  10.825  2.4844 -0.6320 -0.0664
  699TIP3   OH223511   1.798   4.097  15.105  0.0422 -0.2452 -0.1411
  699TIP3    H123512   1.717   4.146  15.093 -0.3810 -0.7940  0.4097
  699TIP3    H223513   1.789   4.021  15.046  0.5106  0.1010 -0.6761
  700TIP3   OH223514   4.275   0.713  16.060 -0.1808  0.1122 -0.5866
  700TIP3    H123515   4.211   0.717  16.131 -1.7417  1.7072 -1.9592
  700TIP3    H223516   4.356   0.747  16.098 -1.4754  2.7994  0.0155
  701TIP3   OH223517   4.048   6.382   2.106 -0.1897 -0.0574 -0.5161
  701TIP3    H123518   4.141   6.369   2.126 -0.5793 -0.7577  1.0289
  701TIP3    H223519   4.048   6.430   2.023  1.5929  2.2533  0.6818
  702TIP3   OH223520   3.044   5.856   4.921 -0.4993  0.1010 -0.1687
  702TIP3    H123521   3.046   5.780   4.979 -2.0615 -0.8384 -1.2766
  702TIP3    H223522   3.116   5.841   4.859 -0.3567 -0.1252  0.0532
  703TIP3   OH223523   0.507   3.847  11.401 -0.1725  0.2750  0.0905
  703TIP3    H123524   0.586   3.881  11.358 -0.6168  1.7195  0.3633
  703TIP3    H223525   0.437   3.860  11.338 -0.6254  1.3590  0.7928
  704TIP3   OH223526   3.117   3.476  13.225 -0.5878  0.0301 -0.2808
  704TIP3    H123527   3.057   3.432  13.286  0.3729 -0.7028  0.1546
  704TIP3    H223528   3.130   3.562  13.264  0.2698 -0.5423  0.7494
  705TIP3   OH223529   1.526   2.966   3.448 -0.4938  0.2781 -0.7278
  705TIP3    H123530   1.601   2.907   3.452 -0.9663 -0.3249 -0.5355
  705TIP3    H223531   1.461   2.926   3.506 -0.4094  1.6000  0.3225
  706TIP3   OH223532   1.451   1.147   0.886 -0.6541  0.1658  0.1231
  706TIP3    H123533   1.495   1.144   0.801  1.5800  0.2196  1.2139
  706TIP3    H223534   1.430   1.239   0.899 -1.2361  0.1241 -0.4633
  707TIP3   OH223535   3.044   0.724   3.856 -0.2880  0.8083 -0.1522
  707TIP3    H123536   2.962   0.675   3.858  0.0133  0.2765  2.4521
  707TIP3    H223537   3.101   0.679   3.919  1.4433  2.1135 -0.6993
  708TIP3   OH223538   5.091   6.464   3.263  0.1305 -0.4058 -0.5439
  708TIP3    H123539   5.187   6.459   3.261  0.2061 -0.6769  1.3394
  708TIP3    H223540   5.071   6.557   3.263  0.5499 -0.2712  1.3505
  709TIP3   OH223541   2.785   3.817  13.450  0.0922 -0.3825  0.4019
  709TIP3    H123542   2.871   3.783  13.473  1.4094  2.2345 -0.1871
  709TIP3    H223543   2.787   3.826  13.354  0.6710  3.0011  0.6003
  710TIP3   OH223544   3.327   4.510   1.048 -0.3200 -0.0696 -0.4407
  710TIP3    H123545   3.294   4.430   1.088 -0.2982 -0.4675 -1.1818
  710TIP3    H223546   3.282   4.514   0.963 -0.0534  0.5120 -0.5588
  711TIP3   OH223547   3.479   1.345   3.817  0.0474 -0.1963  0.1982
  711TIP3    H123548   3.558   1.291   3.824  0.7686  0.2329 -2.9691
  711TIP3    H223549   3.408   1.281   3.808  0.1769 -0.5792  1.6586
  712TIP3   OH223550   4.266   1.951   0.401 -0.0433 -0.3583  0.2737
  712TIP3    H123551   4.306   2.038   0.396 -0.4350 -0.1884  0.0285
  712TIP3    H223552   4.315   1.906   0.470  0.4164 -0.0787  0.1369
  713TIP3   OH223553   2.695   0.133   4.863  0.6764  0.3262  0.0075
  713TIP3    H123554   2.668   0.046   4.892  0.6151  0.0672 -0.8185
  713TIP3    H223555   2.706   0.182   4.944 -2.1060  0.4192  0.4273
  714TIP3   OH223556   0.928   4.070   3.719 -0.5470 -0.4016  0.1550
  714TIP3    H123557   0.866   4.011   3.677 -0.3833 -1.0319  0.7793
  714TIP3    H223558   0.968   4.119   3.647 -2.3769  0.6651 -0.2229
  715TIP3   OH223559   5.811   0.921   0.253 -0.3428 -0.1892  0.1441
  715TIP3    H123560   5.783   0.854   0.191 -0.2529  0.5151 -0.6679
  715TIP3    H223561   5.783   0.887   0.339 -0.5656 -1.1129 -0.2803
  716TIP3   OH223562   0.094   3.157  15.981 -0.6081 -0.4400  0.0130
  716TIP3    H123563   0.170   3.151  16.038 -0.1851 -0.4581 -0.5506
  716TIP3    H223564   0.123   3.210  15.907 -1.4334  0.4262  0.2695
  717TIP3   OH223565   0.633   2.145  14.094  0.5522  0.0924  0.2643
  717TIP3    H123566   0.655   2.099  14.175  3.1638 -1.7986 -1.3435
  717TIP3    H223567   0.584   2.081  14.042 -0.4739  1.0284  0.0515
  718TIP3   OH223568   3.717   1.444  15.527 -0.6763  0.0248  0.5386
  718TIP3    H123569   3.708   1.350  15.509  1.3369 -0.2571  0.7442
  718TIP3    H223570   3.661   1.486  15.462 -0.0204 -1.2670 -0.9474
  719TIP3   OH223571   5.162   5.471  11.382  0.1997 -0.2452 -0.2112
  719TIP3    H123572   5.149   5.399  11.320  1.6164 -0.9985  0.3277
  719TIP3    H223573   5.222   5.436  11.448  1.1263  1.5068 -0.0653
  720TIP3   OH223574   0.697   4.716  16.055  0.5740  0.4213  0.3666
  720TIP3    H123575   0.619   4.690  16.105  0.5108  1.8313  1.0687
  720TIP3    H223576   0.743   4.634  16.038 -0.5550 -0.3338  0.8150
  721TIP3   OH223577   0.092   5.140   5.638 -0.3218  0.2178  0.0139
  721TIP3    H123578   0.122   5.058   5.676  0.2431 -0.2074 -1.3110
  721TIP3    H223579   0.096   5.126   5.544  0.1003  1.8799 -0.2419
  722TIP3   OH223580   3.153   5.143  14.810 -0.2685  0.2947  0.1133
  722TIP3    H123581   3.144   5.223  14.759  1.0738 -0.3432 -1.2104
  722TIP3    H223582   3.247   5.131  14.820 -0.4645  0.0089  2.1926
  723TIP3   OH223583   2.018   2.249  15.087  0.0406 -0.3862  0.4580
  723TIP3    H123584   2.102   2.264  15.129 -0.2427 -1.0527  1.2867
  723TIP3    H223585   1.970   2.192  15.147 -1.6419  1.2852  0.8121
  724TIP3   OH223586   1.837   1.588   4.048 -0.2098  0.2840 -0.3072
  724TIP3    H123587   1.894   1.515   4.074 -0.2041  0.2400 -0.4426
  724TIP3    H223588   1.793   1.557   3.969 -1.3241 -0.1464  0.4640
  725TIP3   OH223589   2.255   2.350   4.314 -0.2464 -0.1485 -0.2795
  725TIP3    H123590   2.224   2.318   4.229 -0.6537 -0.2667 -0.0876
  725TIP3    H223591   2.248   2.274   4.372  1.9202 -0.6743 -0.5935
  726TIP3   OH223592   6.291   4.507  11.444  0.3823 -0.2295 -0.0291
  726TIP3    H123593   6.300   4.488  11.350 -3.0367  0.2426 -0.5706
  726TIP3    H223594   6.275   4.601  11.449 -1.5888 -0.5643  0.7650
  727TIP3   OH223595   1.633   1.384  12.005 -0.0627  0.2985 -0.1887
  727TIP3    H123596   1.703   1.354  12.062 -0.3852  0.9241  0.5617
  727TIP3    H223597   1.574   1.433  12.063 -0.8720  0.1795 -0.8897
  728TIP3   OH223598   1.287   4.395  15.897  0.0553 -0.0911  0.2463
  728TIP3    H123599   1.316   4.433  15.814 -1.2372  1.0218  0.2563
  728TIP3    H223600   1.212   4.340  15.873 -0.2163  0.1017  0.6307
  729TIP3   OH223601   2.213   4.874   3.401 -0.0536 -0.8286  0.1152
  729TIP3    H123602   2.286   4.873   3.464 -0.0080 -0.2333  0.0739
  729TIP3    H223603   2.149   4.814   3.439 -0.5749  0.4830  1.4131
  730TIP3   OH223604   0.884   3.832   3.925  0.1351 -0.2721  0.2138
  730TIP3    H123605   0.826   3.903   3.954  0.9178  0.9299 -1.0443
  730TIP3    H223606   0.826   3.757   3.914 -0.6714  0.0465  1.9064
  731TIP3   OH223607   4.179   5.799   2.594 -0.1765  0.5101  0.1901
  731TIP3    H123608   4.190   5.856   2.518 -0.3316  1.6232  0.9810
  731TIP3    H223609   4.172   5.859   2.668  1.4149 -0.5654  1.2887
  732TIP3   OH223610   0.962   1.474   3.126 -0.0210  0.6180  0.2760
  732TIP3    H123611   0.899   1.540   3.096 -2.2045 -1.1333  0.7821
  732TIP3    H223612   0.909   1.400   3.153  2.3350 -1.9406 -1.4907
  733TIP3   OH223613   1.570   5.835   2.137  0.3387  0.3546 -0.1920
  733TIP3    H123614   1.622   5.914   2.124  0.2443  0.3676 -0.5223
  733TIP3    H223615   1.480   5.862   2.116  0.3304  0.1211 -0.4704
  734TIP3   OH223616   3.357   2.544   0.832 -0.2499  0.0819  0.3836
  734TIP3    H123617   3.453   2.538   0.840 -0.1801  0.9835  0.2562
  734TIP3    H223618   3.324   2.488   0.902  0.3722 -0.1892  0.4670
  735TIP3   OH223619   3.232   4.987  16.949 -0.1518 -0.3951  0.2439
  735TIP3    H123620   3.143   4.958  16.926  0.2821 -0.5052 -1.4936
  735TIP3    H223621   3.219   5.066  17.000 -1.2759  0.9883 -2.0191
  736TIP3   OH223622   6.462   2.595  14.800 -0.3130  0.1411 -0.2119
  736TIP3    H123623   6.513   2.514  14.799  1.7035  1.2856  1.2045
  736TIP3    H223624   6.461   2.623  14.708  0.3998 -0.6632 -0.4845
  737TIP3   OH223625   4.156   3.110  10.578 -0.0969  0.4744  0.0491
  737TIP3    H123626   4.202   3.184  10.539 -2.0957  0.5490 -2.3622
  737TIP3    H223627   4.069   3.144  10.599 -0.1360 -0.4828  1.6323
  738TIP3   OH223628   0.617   5.803  13.975  0.8840 -0.4160  0.6333
  738TIP3    H123629   0.532   5.759  13.976 -0.1848  1.3595 -1.6243
  738TIP3    H223630   0.680   5.732  13.966 -0.6950 -1.6641 -2.0961
  739TIP3   OH223631   0.174   0.444  12.571 -0.2121  0.8420  0.4595
  739TIP3    H123632   0.196   0.395  12.651 -0.0236  2.0521  1.1721
  739TIP3    H223633   0.080   0.429  12.560 -0.0680 -0.0902  0.3631
  740TIP3   OH223634   0.574   4.341   3.456  0.6270  0.1266 -0.3543
  740TIP3    H123635   0.648   4.350   3.516 -0.3562  0.5885  0.8309
  740TIP3    H223636   0.499   4.377   3.504 -0.7392 -1.9199 -0.8137
  741TIP3   OH223637   0.417   4.210  15.990  0.2536 -0.0955 -0.7706
  741TIP3    H123638   0.333   4.250  16.010 -0.1223  0.3881 -2.9973
  741TIP3    H223639   0.397   4.147  15.920  1.7236 -0.0225 -1.2821
  742TIP3   OH223640   2.042   6.316  12.722 -0.5061  0.0388 -0.4304
  742TIP3    H123641   2.070   6.281  12.806  0.9654 -1.0433 -1.3249
  742TIP3    H223642   2.070   6.408  12.724 -2.3498  0.6188  1.0374
  743TIP3   OH223643   5.086   1.485  12.647  0.4036  0.3646 -1.0292
  743TIP3    H123644   5.159   1.465  12.589  0.7270 -3.6333  0.4151
  743TIP3    H223645   5.127   1.520  12.726  0.1660  3.3057 -2.0941
  744TIP3   OH223646   3.047   3.677   5.273  0.1608 -0.2038 -0.3130
  744TIP3    H123647   3.093   3.760   5.283 -0.1531 -0.0967  0.2809
  744TIP3    H223648   3.106   3.612   5.310 -0.4108  0.0130  1.0246
  745TIP3   OH223649   6.625   4.295   1.978  0.1332  0.0369 -0.0449
  745TIP3    H123650   6.707   4.286   2.027  0.2632  1.0958 -0.0529
  745TIP3    H223651   6.561   4.325   2.042  0.1393  0.7569 -0.3634
  746TIP3   OH223652   4.769   2.746  16.261  0.4452 -0.1255  0.0405
  746TIP3    H123653   4.718   2.671  16.232  0.9651 -0.7446  0.7045
  746TIP3    H223654   4.813   2.777  16.181 -0.3054 -0.0784 -0.3733
  747TIP3   OH223655   2.602   5.709   5.655  0.5013  0.0479 -0.0595
  747TIP3    H123656   2.562   5.632   5.696  2.3705 -1.6121 -1.1912
  747TIP3    H223657   2.615   5.685   5.564  2.2451  1.2406 -0.1834
  748TIP3   OH223658   2.446   2.660  10.811  0.0860  0.0367 -0.4153
  748TIP3    H123659   2.491   2.582  10.779  0.3236 -0.7619  1.7032
  748TIP3    H223660   2.404   2.697  10.733  0.9639 -1.5158 -1.6873
  749TIP3   OH223661   4.691   2.123   0.757 -0.3668 -0.6742  0.2000
  749TIP3    H123662   4.743   2.185   0.808  0.5445 -0.6464 -0.7236
  749TIP3    H223663   4.639   2.076   0.822 -1.4960  1.3909  0.8877
  750TIP3   OH223664   3.332   0.051  12.231 -0.0590 -0.1646  0.0721
  750TIP3    H123665   3.297   0.041  12.319  0.1477 -0.7231  0.0942
  750TIP3    H223666   3.278   0.119  12.191  0.3661  0.6613  0.8909
  751TIP3   OH223667   0.453   6.619  16.858  0.6498  0.9270 -0.1084
  751TIP3    H123668   0.475   6.578  16.941 -0.3342 -0.4487 -0.4951
  751TIP3    H223669   0.426   6.547  16.802  0.3277  1.9466 -1.3071
  752TIP3   OH223670   6.088   3.957  17.151  0.3806 -0.6872  0.4486
  752TIP3    H123671   6.110   3.941  17.059 -0.8462 -0.1071  0.0325
  752TIP3    H223672   6.141   4.033  17.176 -0.7924  0.4702 -0.4316
  753TIP3   OH223673   3.777   2.255   1.572 -0.4034 -0.2495  0.2233
  753TIP3    H123674   3.744   2.166   1.576 -2.5670  0.4490 -0.5306
  753TIP3    H223675   3.745   2.289   1.488  2.5286  0.4815 -0.7269
  754TIP3   OH223676   6.613   6.409  13.349  0.1240  0.2162 -0.1231
  754TIP3    H123677   6.576   6.486  13.391  0.9395  2.0335 -2.5099
  754TIP3    H223678   6.663   6.366  13.418 -0.8846  1.4361  1.4388
  755TIP3   OH223679   1.365   6.430  15.222 -0.0099  0.0107  0.4474
  755TIP3    H123680   1.301   6.501  15.225 -0.1795 -0.1190 -0.0518
  755TIP3    H223681   1.396   6.428  15.131  3.0090  2.0682  1.2739
  756TIP3   OH223682   6.549   5.532   5.395 -0.1458 -0.6254  0.5119
  756TIP3    H123683   6.608   5.490   5.332  0.7903  0.9160  0.2976
  756TIP3    H223684   6.598   5.609   5.426 -2.0287  0.7344  0.3065
  757TIP3   OH223685   3.903   1.944  15.444  0.4516  0.2596  1.1197
  757TIP3    H123686   3.984   1.894  15.450  0.6342  0.1932 -1.1627
  757TIP3    H223687   3.836   1.878  15.427  0.2600  0.5058  0.9079
  758TIP3   OH223688   1.675   0.045   2.925 -0.5470 -0.4103 -0.3565
  758TIP3    H123689   1.593   0.083   2.893 -1.0791 -1.3086 -0.1121
  758TIP3    H223690   1.707  -0.008   2.853  0.4023  0.7827 -0.8408
  759TIP3   OH223691   2.031   4.376   5.922 -0.6824 -0.0832  0.8691
  759TIP3    H123692   2.046   4.376   6.017 -1.7352 -0.2099  1.0503
  759TIP3    H223693   1.998   4.464   5.903 -1.2003 -0.2957  0.7564
  760TIP3   OH223694   0.401   6.683   2.917  0.2823  0.3988  0.4603
  760TIP3    H123695   0.385   6.747   2.848  0.6154  1.1448  1.0720
  760TIP3    H223696   0.334   6.701   2.983 -0.3427 -0.6261  0.1342
  761TIP3   OH223697   4.589   1.707   4.343  0.4691 -0.2033  0.1172
  761TIP3    H123698   4.520   1.765   4.310 -1.2307 -2.4883 -0.5297
  761TIP3    H223699   4.573   1.703   4.437 -0.2559 -0.6620 -0.0174
  762TIP3   OH223700   3.007   4.269  15.564 -0.1046 -0.0173 -0.3029
  762TIP3    H123701   3.051   4.349  15.537 -0.6865  0.7427  0.8981
  762TIP3    H223702   3.017   4.267  15.660  1.9997 -2.6552 -0.4661
  763TIP3   OH223703   2.595   2.517  12.563 -0.3943  0.2827 -0.0189
  763TIP3    H123704   2.512   2.539  12.605 -0.8048  0.0482 -0.6849
  763TIP3    H223705   2.575   2.441  12.509  0.8344 -1.3882  1.7386
  764TIP3   OH223706   5.405   6.047   3.874  0.4856 -0.1284  0.1392
  764TIP3    H123707   5.427   6.105   3.947 -0.4833  0.8731 -0.3390
  764TIP3    H223708   5.416   6.101   3.796 -2.5393  0.1646 -0.2032
  765TIP3   OH223709   5.255   2.778  14.031  0.6578 -0.2485  0.3720
  765TIP3    H123710   5.310   2.786  14.109  2.7653 -0.4860 -1.0019
  765TIP3    H223711   5.261   2.685  14.008 -1.3715 -0.5431  0.8644
  766TIP3   OH223712   4.417   0.108   1.151 -0.8380  0.2499 -0.7501
  766TIP3    H123713   4.353   0.103   1.079 -0.8256 -1.0579 -0.6946
  766TIP3    H223714   4.373   0.066   1.224 -1.1005  2.1494  0.2355
  767TIP3   OH223715   5.808   0.231   4.800  0.1252 -0.3418 -0.3809
  767TIP3    H123716   5.857   0.159   4.761 -1.3256 -1.4032 -0.3507
  767TIP3    H223717   5.719   0.219   4.767 -0.1285  1.4890 -0.4105
  768TIP3   OH223718   6.628   4.455   5.219 -0.2778  0.2756  0.0002
  768TIP3    H123719   6.549   4.504   5.195  0.6343  0.6767 -2.5038
  768TIP3    H223720   6.612   4.367   5.184 -0.5317 -0.3323  1.5608
  769TIP3   OH223721   6.614   4.504   3.746  0.4342 -0.1147 -0.1748
  769TIP3    H123722   6.594   4.417   3.782 -4.5088  0.5575 -0.5974
  769TIP3    H223723   6.622   4.489   3.652 -1.1185 -0.1134 -0.3320
  770TIP3   OH223724   3.916   0.150  15.916  0.1676 -0.1571 -0.4761
  770TIP3    H123725   3.829   0.115  15.898 -0.4267 -0.2434  2.1647
  770TIP3    H223726   3.934   0.207  15.841 -2.3530  0.2031 -0.9235
  771TIP3   OH223727   1.592   0.555   6.180  0.5227  0.2830 -0.4350
  771TIP3    H123728   1.583   0.482   6.242 -0.9918  0.6385 -0.1978
  771TIP3    H223729   1.687   0.565   6.169  0.7734 -1.3358 -0.0275
  772TIP3   OH223730   1.354   1.921  14.679  0.5601 -0.2789 -0.1047
  772TIP3    H123731   1.324   1.831  14.690 -0.3256 -0.0035 -0.1534
  772TIP3    H223732   1.353   1.957  14.768  0.8203 -0.2887 -0.0981
  773TIP3   OH223733   5.875   1.072  17.280  0.5099  0.6612  0.0852
  773TIP3    H123734   5.884   0.977  17.273 -0.4962  0.4935  0.8348
  773TIP3    H223735   5.907   1.093  17.368  0.3887  0.9718  0.0567
  774TIP3   OH223736   3.314   3.986  14.143  0.6053  0.0774  0.3180
  774TIP3    H123737   3.301   4.019  14.232 -0.9580 -0.1732  0.2137
  774TIP3    H223738   3.368   4.053  14.100  0.6624  0.6130  1.2010
  775TIP3   OH223739   2.154   1.124   1.732 -0.4124 -0.1224  0.2430
  775TIP3    H123740   2.064   1.139   1.759 -0.1426 -0.3382  1.2756
  775TIP3    H223741   2.170   1.032   1.751 -0.8825 -0.9315 -2.6563
  776TIP3   OH223742   5.217   0.894   5.176 -0.2945 -0.1040  0.0956
  776TIP3    H123743   5.209   0.950   5.253 -0.6382  0.0291 -0.0374
  776TIP3    H223744   5.270   0.820   5.206  0.5731  0.5141  0.1500
  777TIP3   OH223745   2.633   4.618   1.614 -0.2776 -0.2512 -0.1128
  777TIP3    H123746   2.714   4.668   1.625  0.7139 -1.8404  0.1523
  777TIP3    H223747   2.566   4.669   1.659  0.4934  1.2479 -0.6017
  778TIP3   OH223748   1.615   6.374  10.875  0.1563  0.4294  0.3516
  778TIP3    H123749   1.691   6.430  10.858  0.2006  0.2838  0.0792
  778TIP3    H223750   1.632   6.293  10.828 -0.1106  0.3469  0.3904
  779TIP3   OH223751   2.232   1.642   6.568 -0.4319 -0.2430  0.2043
  779TIP3    H123752   2.326   1.652   6.582 -0.1735 -1.0290 -0.8620
  779TIP3    H223753   2.203   1.586   6.641  0.1101 -0.7861  0.0178
  780TIP3   OH223754   0.459   1.470  16.215 -0.0440  0.5303  0.3500
  780TIP3    H123755   0.378   1.422  16.200  1.0057 -1.2564  0.1619
  780TIP3    H223756   0.484   1.448  16.305  1.7414 -1.3929 -0.5381
  781TIP3   OH223757   1.427   2.433   5.922  0.1218  0.3854 -0.2832
  781TIP3    H123758   1.513   2.471   5.902  0.3341 -0.4629 -1.0491
  781TIP3    H223759   1.401   2.474   6.004  0.2953  2.2615 -1.1049
  782TIP3   OH223760   5.722   4.948   3.318  0.3593 -0.1614 -0.7406
  782TIP3    H123761   5.814   4.925   3.304  0.6077  0.8775 -0.8864
  782TIP3    H223762   5.712   4.948   3.413  0.4936 -0.3369 -0.7255
  783TIP3   OH223763   0.819   5.582  13.943 -0.1283  0.2270 -0.3165
  783TIP3    H123764   0.823   5.557  14.035  1.1137  0.1966 -0.3545
  783TIP3    H223765   0.906   5.559  13.908 -1.0265 -1.1077 -1.8521
  784TIP3   OH223766   2.123   0.390  16.718 -0.0348  0.0669 -0.2424
  784TIP3    H123767   2.111   0.367  16.626 -1.6214  1.3085 -0.3897
  784TIP3    H223768   2.187   0.461  16.717 -0.1461  0.1658 -0.4093
  785TIP3   OH223769   2.329   6.742   3.900 -0.4341  0.6734  0.2445
  785TIP3    H123770   2.276   6.675   3.942  2.6267 -3.1820 -1.3211
  785TIP3    H223771   2.291   6.752   3.812  1.9353 -3.3782 -1.5237
  786TIP3   OH223772   5.178   0.673   0.637 -0.0461  0.6336  0.1228
  786TIP3    H123773   5.258   0.716   0.608  1.0034 -1.0620  0.3264
  786TIP3    H223774   5.118   0.681   0.563  0.7645  0.8229 -0.5250
  787TIP3   OH223775   6.732   4.435  13.925  0.2308 -0.2071  0.2378
  787TIP3    H123776   6.800   4.430  13.857 -0.1107  1.4109 -0.2774
  787TIP3    H223777   6.708   4.344  13.941  0.6654 -0.6706 -1.4743
  788TIP3   OH223778   1.680   0.642   2.106  0.3930  0.1454 -0.2862
  788TIP3    H123779   1.718   0.562   2.142  0.3048  1.2264  2.5135
  788TIP3    H223780   1.731   0.713   2.146 -1.9945  1.5544  0.5219
  789TIP3   OH223781   4.049   5.331  11.159 -0.0301 -0.3260 -0.6476
  789TIP3    H123782   4.016   5.243  11.142 -1.0577  0.3450 -2.4477
  789TIP3    H223783   4.009   5.356  11.243  2.5985 -2.5785  1.4560
  790TIP3   OH223784   1.988   3.919   2.741  0.2294  0.0307 -0.5196
  790TIP3    H123785   1.949   3.899   2.826  0.5820  0.3823 -0.2741
  790TIP3    H223786   2.016   3.834   2.708 -0.7036 -0.2268 -0.6854
  791TIP3   OH223787   2.860   4.578  15.846  0.1876  0.2320  0.2429
  791TIP3    H123788   2.949   4.605  15.823 -0.2917  2.9208  1.2172
  791TIP3    H223789   2.871   4.522  15.923  1.0883 -0.6822 -0.5185
  792TIP3   OH223790   6.080   5.782  16.308  0.6214 -0.2269  0.4705
  792TIP3    H123791   5.996   5.824  16.328  0.3794 -0.7686  0.5939
  792TIP3    H223792   6.138   5.855  16.287 -0.0952  0.0976 -0.4266
  793TIP3   OH223793   4.844   2.836  16.528  0.4497  0.3190 -0.2531
  793TIP3    H123794   4.859   2.799  16.441  2.6265 -0.2135  0.2698
  793TIP3    H223795   4.825   2.761  16.584 -0.8818  0.6525 -0.2326
  794TIP3   OH223796   1.670   6.273   3.100 -0.3667 -0.1719 -0.1380
  794TIP3    H123797   1.587   6.310   3.130  0.5427  0.9502  1.1284
  794TIP3    H223798   1.730   6.348   3.097  0.3322 -0.7476 -2.1236
  795TIP3   OH223799   5.178   0.658   3.948  0.5078 -0.0411 -0.7295
  795TIP3    H123800   5.088   0.624   3.954 -0.4833  1.6569 -3.6573
  795TIP3    H223801   5.211   0.654   4.038 -3.0290  0.6557  0.7980
  796TIP3   OH223802   3.960   0.556   5.714 -0.1958 -0.0726 -0.1416
  796TIP3    H123803   3.992   0.551   5.804  0.4509 -1.2129 -0.4161
  796TIP3    H223804   3.878   0.506   5.715  0.2306 -0.8012 -0.3409
  797TIP3   OH223805   0.353   5.827  12.697 -0.5049  0.0485 -0.2593
  797TIP3    H123806   0.334   5.868  12.782  0.8392 -0.7045  0.4437
  797TIP3    H223807   0.316   5.887  12.632  0.1062  1.6195  0.7831
  798TIP3   OH223808   4.582   3.304   3.380 -0.1175  0.1464  0.0675
  798TIP3    H123809   4.576   3.379   3.320 -0.9238  0.9550  1.1151
  798TIP3    H223810   4.657   3.325   3.437 -0.0711 -0.0539  0.0795
  799TIP3   OH223811   3.325   2.649   2.758  1.0018 -0.5640 -0.3263
  799TIP3    H123812   3.298   2.578   2.699  0.2365 -0.6330  0.0914
  799TIP3    H223813   3.333   2.607   2.844 -1.1692  0.1614  0.2847
  800TIP3   OH223814   2.626   3.718   1.631 -0.0202 -0.0835 -0.4037
  800TIP3    H123815   2.708   3.671   1.639 -0.2323 -0.3029  0.5975
  800TIP3    H223816   2.573   3.688   1.705 -0.4207  1.2025 -0.1342
  801TIP3   OH223817   2.202   0.378   6.313 -0.4588 -0.1308  0.6661
  801TIP3    H123818   2.236   0.314   6.250 -0.1684  0.9849 -0.3322
  801TIP3    H223819   2.198   0.329   6.396 -2.6902 -2.2290 -0.5479
  802TIP3   OH223820   6.197   5.169   1.085  0.7347  0.3081 -0.0304
  802TIP3    H123821   6.240   5.195   1.004  1.3248  0.2147  0.2430
  802TIP3    H223822   6.195   5.073   1.082  1.2347  0.2813  0.2949
  803TIP3   OH223823   3.355   5.871  15.002 -0.7211  0.0196  0.5962
  803TIP3    H123824   3.447   5.897  14.990 -0.9909  1.1316  0.8376
  803TIP3    H223825   3.309   5.911  14.928 -0.8896 -1.2866 -0.0292
  804TIP3   OH223826   2.807   4.681   5.440  0.1055 -0.1216 -0.2076
  804TIP3    H123827   2.834   4.656   5.528  0.4380  1.1084  0.0589
  804TIP3    H223828   2.721   4.640   5.428 -0.6725  0.9892  1.3048
  805TIP3   OH223829   4.589   5.618   4.110 -0.1579 -0.1442  0.7506
  805TIP3    H123830   4.662   5.586   4.058  0.5526  0.5519  1.3006
  805TIP3    H223831   4.628   5.647   4.192 -0.7334  2.2203  0.2508
  806TIP3   OH223832   1.977   2.232   5.563  0.0791 -0.0609 -0.0706
  806TIP3    H123833   2.072   2.242   5.564  0.0556  0.2611 -0.6359
  806TIP3    H223834   1.944   2.310   5.607  0.0582  0.1004 -0.3707
  807TIP3   OH223835   3.078   0.530   5.683 -0.4003  0.1245  0.1568
  807TIP3    H123836   3.064   0.620   5.656 -0.5437  0.2110  0.5199
  807TIP3    H223837   3.069   0.531   5.778 -0.0343 -0.2046  0.2006
  808TIP3   OH223838   2.451   4.229  14.739 -0.0079 -0.3157 -0.3778
  808TIP3    H123839   2.397   4.215  14.816 -2.4259 -1.0378 -2.0908
  808TIP3    H223840   2.452   4.324  14.726  0.7168 -0.1615  0.6910
  809TIP3   OH223841   0.789   3.362   2.171 -0.5370  0.0868 -0.0379
  809TIP3    H123842   0.799   3.376   2.076 -1.6435  0.0452 -0.1755
  809TIP3    H223843   0.749   3.276   2.178 -1.0182  0.3423  0.4330
  810TIP3   OH223844   4.816   5.420  13.911 -0.5487 -0.1344  1.1605
  810TIP3    H123845   4.830   5.499  13.963 -0.2691  2.0822 -2.0036
  810TIP3    H223846   4.745   5.443  13.852  2.2270 -0.5140 -2.7337
  811TIP3   OH223847   5.363   6.210   0.728 -0.0716  0.4177  0.2881
  811TIP3    H123848   5.312   6.230   0.650  1.7254  0.0364 -1.0621
  811TIP3    H223849   5.446   6.255   0.714  1.5415 -2.2962  0.3689
  812TIP3   OH223850   0.629   3.893   0.346  0.1976  0.2691  0.7654
  812TIP3    H123851   0.544   3.855   0.326  0.5523  0.3599 -1.1706
  812TIP3    H223852   0.686   3.818   0.362 -0.0198  0.1660  1.0583
  813TIP3   OH223853   3.340   5.186  14.070 -0.9071  0.2676 -0.4071
  813TIP3    H123854   3.395   5.194  13.993  1.4381 -2.9755  0.6939
  813TIP3    H223855   3.380   5.244  14.135  0.1237 -0.6514 -0.1986
  814TIP3   OH223856   4.734   5.910   5.183  0.7561  0.0780  0.0007
  814TIP3    H123857   4.730   5.990   5.235 -0.4949 -0.0093  0.0582
  814TIP3    H223858   4.676   5.926   5.109  0.3184 -0.8517  0.1281
  815TIP3   OH223859   6.165   4.681   6.260 -0.0656  0.1477 -0.1577
  815TIP3    H123860   6.227   4.754   6.251 -0.8475  0.9829  1.0695
  815TIP3    H223861   6.153   4.650   6.170  1.9303  0.1121 -0.4739
  816TIP3   OH223862   0.465   2.972  12.694  0.5785 -0.1632 -0.5680
  816TIP3    H123863   0.478   3.019  12.777 -0.4040  0.0856 -0.5481
  816TIP3    H223864   0.374   2.945  12.695  0.9164 -1.4009 -0.9483
  817TIP3   OH223865   2.935   5.541  13.025 -0.1154  0.2654  0.1156
  817TIP3    H123866   2.894   5.571  13.107  0.1902 -0.4193  0.5285
  817TIP3    H223867   3.024   5.577  13.029 -0.1706  0.4151 -0.0190
  818TIP3   OH223868   6.164   4.334   5.559 -0.7241 -0.1307 -0.1424
  818TIP3    H123869   6.109   4.297   5.489 -1.8036 -0.1932  0.7041
  818TIP3    H223870   6.242   4.278   5.560  0.0651  0.8136 -2.3151
  819TIP3   OH223871   1.581   4.843  14.304  0.5482 -0.2855  0.5834
  819TIP3    H123872   1.566   4.790  14.226  0.9366  0.5439 -0.0676
  819TIP3    H223873   1.504   4.827  14.358  0.2363 -0.8122  0.0046
  820TIP3   OH223874   2.329   5.356   1.822 -0.5175  0.4375 -0.2667
  820TIP3    H123875   2.413   5.401   1.820 -1.0585  1.4437 -1.1579
  820TIP3    H223876   2.264   5.426   1.817 -1.3994 -0.3553 -0.1386
  821TIP3   OH223877   0.394   4.124   4.448 -0.0159 -0.2048  0.0094
  821TIP3    H123878   0.315   4.177   4.457 -0.2689 -0.6050  0.1612
  821TIP3    H223879   0.458   4.183   4.407 -0.0603  0.4489  0.8467
  822TIP3   OH223880   2.235   2.643   4.167  0.2087 -0.2977 -0.4107
  822TIP3    H123881   2.294   2.586   4.119  0.0117  0.7711 -2.0060
  822TIP3    H223882   2.185   2.585   4.223  0.5282 -1.5967 -1.4310
  823TIP3   OH223883   5.177   5.245  15.907  0.3172  0.3120  0.0730
  823TIP3    H123884   5.239   5.210  15.971  2.5242  2.7896 -0.4951
  823TIP3    H223885   5.138   5.321  15.951 -1.0992 -0.2248 -0.2050
  824TIP3   OH223886   3.463   5.103  12.266 -0.3730 -0.4411 -0.4234
  824TIP3    H123887   3.471   5.088  12.360 -1.8398 -0.8801 -0.3558
  824TIP3    H223888   3.550   5.133  12.239 -0.0313  0.0038  1.1247
  825TIP3   OH223889   3.469   3.825   2.621  0.3486 -0.1644  0.5531
  825TIP3    H123890   3.395   3.765   2.629 -1.6317  2.0950  0.1569
  825TIP3    H223891   3.502   3.836   2.710  2.3104 -3.5268  0.4053
  826TIP3   OH223892   0.303   2.771   6.421  0.9424  0.0643  0.5104
  826TIP3    H123893   0.266   2.683   6.424 -0.7102  0.4841 -3.0638
  826TIP3    H223894   0.230   2.829   6.441  1.4767  0.7122  0.6277
  827TIP3   OH223895   4.236   4.371   4.297 -0.0732  0.1082 -0.2207
  827TIP3    H123896   4.221   4.438   4.364  0.8103  1.6610 -1.5158
  827TIP3    H223897   4.271   4.296   4.345  0.0531  0.9934  1.1163
  828TIP3   OH223898   2.866   0.736   5.755  0.1971 -0.0997 -0.2071
  828TIP3    H123899   2.883   0.718   5.847  2.1310 -1.1261 -0.7196
  828TIP3    H223900   2.773   0.715   5.744  0.4878 -2.2820  1.0080
  829TIP3   OH223901   3.666   2.686   5.470  0.3278 -0.0038 -0.2235
  829TIP3    H123902   3.694   2.624   5.403 -1.6860 -0.7416 -0.4650
  829TIP3    H223903   3.682   2.772   5.432 -1.2269 -0.4037 -1.9121
  830TIP3   OH223904   3.374   3.718  12.561  0.0957 -0.4823 -0.2565
  830TIP3    H123905   3.351   3.792  12.618  1.1545 -0.1743 -0.1926
  830TIP3    H223906   3.303   3.714  12.497  0.2211  0.8915 -0.5284
  831TIP3   OH223907   5.314   6.565  16.624  0.1705  0.1878 -0.7273
  831TIP3    H123908   5.395   6.537  16.666 -0.6529  1.1071  1.6772
  831TIP3    H223909   5.316   6.661  16.628 -0.7871  0.2417 -1.0932
  832TIP3   OH223910   4.810   4.373  14.631  0.5170  0.3690 -0.5058
  832TIP3    H123911   4.769   4.338  14.552  0.4085 -0.3586 -0.1334
  832TIP3    H223912   4.790   4.467  14.629 -2.3091 -0.1223  0.3082
  833TIP3   OH223913   6.319   2.870  16.275 -0.1058  0.3193 -0.0721
  833TIP3    H123914   6.383   2.866  16.204  0.0950 -0.3217  0.1387
  833TIP3    H223915   6.235   2.853  16.232 -0.6784  4.2291 -0.9276
  834TIP3   OH223916   6.653   4.634  12.416 -0.0016 -0.2803 -0.2914
  834TIP3    H123917   6.607   4.698  12.362 -0.5864  0.1091  0.6400
  834TIP3    H223918   6.602   4.554  12.408 -0.2333 -0.1505 -0.1110
  835TIP3   OH223919   5.819   6.320   2.199  0.0798 -0.4487  0.0852
  835TIP3    H123920   5.738   6.367   2.178  1.1301  2.1033  1.3346
  835TIP3    H223921   5.791   6.230   2.215 -2.5887  0.4076  0.7730
  836TIP3   OH223922   3.086   5.174   3.725  0.5906  0.2628  0.3132
  836TIP3    H123923   3.064   5.107   3.660  0.7568 -0.2654  0.7891
  836TIP3    H223924   3.058   5.256   3.686 -0.4140 -0.1752  0.0804
  837TIP3   OH223925   1.042   4.888  13.063 -0.5357  0.5100  0.2243
  837TIP3    H123926   1.090   4.927  12.991  0.7110 -0.8351  0.2792
  837TIP3    H223927   0.968   4.845  13.022 -0.1239  0.2016 -0.1985
  838TIP3   OH223928   2.198   4.976  15.455  0.0316  0.2363  0.3027
  838TIP3    H123929   2.163   4.887  15.462  0.8941  0.0066  2.9557
  838TIP3    H223930   2.123   5.032  15.474 -0.0478 -0.0406  0.8423
  839TIP3   OH223931   3.754   3.179   4.122 -0.0787 -0.0179  0.0655
  839TIP3    H123932   3.662   3.187   4.096 -0.0059 -0.4274 -0.3386
  839TIP3    H223933   3.801   3.167   4.039  0.1804 -1.1833  0.3569
  840TIP3   OH223934   2.898   3.679   4.169 -0.2597 -0.0692 -0.3215
  840TIP3    H123935   2.828   3.619   4.142  1.0328 -2.4959  1.3015
  840TIP3    H223936   2.865   3.766   4.147 -3.3372 -1.1581 -0.5229
  841TIP3   OH223937   4.906   2.745  13.708 -0.3200 -0.3304 -0.1053
  841TIP3    H123938   4.869   2.686  13.643  0.1869 -1.0077  0.1986
  841TIP3    H223939   4.853   2.730  13.787 -0.1458 -0.4329 -0.0075
  842TIP3   OH223940   0.530   6.496  10.821  0.3919  0.3518 -0.2050
  842TIP3    H123941   0.444   6.455  10.829  1.1575 -1.5618 -1.1470
  842TIP3    H223942   0.520   6.581  10.864 -1.6043 -0.3347  0.8226
  843TIP3   OH223943   5.151   1.363  12.098 -0.2380  0.3795 -0.3277
  843TIP3    H123944   5.152   1.458  12.089  0.4144  0.1729 -3.9298
  843TIP3    H223945   5.067   1.344  12.142  0.3843  2.5918  2.0545
  844TIP3   OH223946   1.680   4.856  13.865  0.0362 -0.4601 -0.5910
  844TIP3    H123947   1.615   4.792  13.837  1.0723 -2.0164  0.4095
  844TIP3    H223948   1.681   4.850  13.960 -0.8369  2.1125 -0.3392
  845TIP3   OH223949   0.227   5.159  14.646  0.1459 -0.6462  0.3295
  845TIP3    H123950   0.170   5.155  14.569 -0.5768 -1.8282  0.8932
  845TIP3    H223951   0.167   5.169  14.719  0.8479  0.8957  0.7407
  846TIP3   OH223952   5.732   1.972   0.942 -0.3676  0.1499  0.4527
  846TIP3    H123953   5.762   2.024   1.016 -2.3092 -0.0883  1.4875
  846TIP3    H223954   5.776   1.887   0.953  0.0938  0.4248  0.7683
  847TIP3   OH223955   2.574   2.119   4.361  0.0635 -0.4300 -0.0043
  847TIP3    H123956   2.514   2.133   4.287  0.2637  0.3652 -0.0295
  847TIP3    H223957   2.657   2.157   4.332  0.1220 -0.0416  0.6481
  848TIP3   OH223958   1.800   5.667   2.189 -0.1861  0.0012 -0.4779
  848TIP3    H123959   1.705   5.666   2.190 -0.1927 -0.5626  1.2225
  848TIP3    H223960   1.823   5.731   2.121 -1.7468 -0.2681 -1.2904
  849TIP3   OH223961   1.455   0.503  14.669  0.0027  0.0445  0.4316
  849TIP3    H123962   1.363   0.498  14.640  0.5028 -2.9114 -1.0147
  849TIP3    H223963   1.452   0.479  14.762 -0.5720 -2.0558 -0.0724
  850TIP3   OH223964   1.903   3.409   0.675  0.0013 -0.3602  0.2606
  850TIP3    H123965   1.930   3.500   0.686  1.8213 -1.1986  4.1740
  850TIP3    H223966   1.982   3.364   0.647 -0.5967 -0.9670 -0.5037
  851TIP3   OH223967   1.422   2.491   5.634  0.4847  0.2079 -0.3483
  851TIP3    H123968   1.432   2.451   5.721  0.3146 -3.1190 -1.6810
  851TIP3    H223969   1.511   2.498   5.600  0.4121 -0.6112 -0.7238
  852TIP3   OH223970   0.617   4.514   6.226  0.1176 -0.2896 -0.1028
  852TIP3    H123971   0.578   4.557   6.302 -1.0048 -1.9202  0.3107
  852TIP3    H223972   0.708   4.499   6.251 -0.5568 -2.0400  1.5592
  853TIP3   OH223973   3.514   1.561  14.366 -0.2749 -0.0207  0.6223
  853TIP3    H123974   3.432   1.518  14.340 -0.2848  0.8365 -0.8948
  853TIP3    H223975   3.529   1.532  14.456 -1.4120 -1.4429  0.3854
  854TIP3   OH223976   4.823   6.103  16.900 -0.4926 -0.1372 -0.2663
  854TIP3    H123977   4.886   6.067  16.838 -2.0479 -2.0805 -0.8264
  854TIP3    H223978   4.742   6.112  16.851 -1.1817  0.4636  0.9136
  855TIP3   OH223979   0.432   3.474  16.055 -0.0937  0.3690 -0.5124
  855TIP3    H123980   0.473   3.390  16.036 -0.5850 -0.0278  0.1434
  855TIP3    H223981   0.422   3.516  15.969 -1.2405 -0.8871 -1.0404
  856TIP3   OH223982   2.649   6.197   4.873 -0.3252  0.1729 -0.3548
  856TIP3    H123983   2.657   6.251   4.794  2.3288 -0.5890 -0.7180
  856TIP3    H223984   2.656   6.107   4.841  1.0223 -0.1417  0.7432
  857TIP3   OH223985   3.765   0.588  14.539  0.2345 -0.1615 -0.4744
  857TIP3    H123986   3.860   0.591  14.523  0.0192  0.8625 -1.8398
  857TIP3    H223987   3.727   0.582  14.451 -0.9742 -0.2920  0.0452
  858TIP3   OH223988   2.231   5.449  13.039 -0.2346 -0.8874  0.2545
  858TIP3    H123989   2.310   5.442  13.093  0.6938  0.1485 -0.9136
  858TIP3    H223990   2.166   5.397  13.086  0.6773 -0.4706  2.0854
  859TIP3   OH223991   5.230   5.282  17.267 -0.2554 -0.1665  0.0305
  859TIP3    H123992   5.207   5.217  17.201  1.2849 -1.3500  0.6050
  859TIP3    H223993   5.271   5.353  17.218  0.0200 -0.6103 -0.3959
  860TIP3   OH223994   2.785   1.829   6.564  0.3355  0.9903 -0.5173
  860TIP3    H123995   2.711   1.782   6.603  1.9647 -0.6030  0.7974
  860TIP3    H223996   2.745   1.904   6.520 -2.1932 -0.5836 -1.0773
  861TIP3   OH223997   3.316   5.178  17.452  0.1625  0.7096 -0.4304
  861TIP3    H123998   3.389   5.118  17.466  0.3008  1.2351  1.4203
  861TIP3    H223999   3.296   5.171  17.359  2.4176  0.3946 -0.9355
  862TIP3   OH224000   3.563   3.179  16.438  0.0588  0.0973  0.1029
  862TIP3    H124001   3.486   3.216  16.481 -0.3109 -0.7200  0.1759
  862TIP3    H224002   3.637   3.213  16.488 -0.3462 -0.4948  1.1609
  863TIP3   OH224003   1.215   1.533   4.005  0.0236 -0.4864 -0.4716
  863TIP3    H124004   1.266   1.565   3.931 -2.4287  1.8920 -1.3193
  863TIP3    H224005   1.147   1.478   3.966 -0.9394  0.3164  0.0223
  864TIP3   OH224006   1.041   3.824  15.187 -0.6091 -0.2613 -0.1581
  864TIP3    H124007   1.076   3.743  15.225  1.2254  0.1678 -0.8062
  864TIP3    H224008   0.966   3.796  15.134 -0.2550 -1.4872 -0.0390
  865TIP3   OH224009   4.324   2.028  13.113  0.3571  0.1269 -0.0900
  865TIP3    H124010   4.319   2.115  13.075  0.5202  0.2473  0.1561
  865TIP3    H224011   4.408   1.994  13.084  1.2505  0.8567  1.4554
  866TIP3   OH224012   5.905   6.694   3.491  0.4997  0.0763 -0.2955
  866TIP3    H124013   5.960   6.697   3.569  0.8565  0.7600 -0.5633
  866TIP3    H224014   5.958   6.647   3.426  0.7585  0.6926 -0.5385
  867TIP3   OH224015   0.536   3.470  12.697  0.1649 -0.3734 -0.9965
  867TIP3    H124016   0.584   3.487  12.778  0.7116 -1.1483 -1.1476
  867TIP3    H224017   0.445   3.459  12.725  0.2222  0.1241 -0.5911
  868TIP3   OH224018   1.512   3.557  12.742 -0.4250  0.1894 -0.2157
  868TIP3    H124019   1.588   3.590  12.790 -0.9809 -0.5748  1.2468
  868TIP3    H224020   1.528   3.463  12.732 -1.4460 -0.1084  0.6900
  869TIP3   OH224021   4.264   5.685   1.385 -0.2330  0.0071  0.0453
  869TIP3    H124022   4.293   5.774   1.406 -0.0319  0.2443 -1.1485
  869TIP3    H224023   4.345   5.639   1.360 -0.3489 -0.4828  0.5658
  870TIP3   OH224024   3.418   6.406  12.836 -0.0898 -0.0232  0.5280
  870TIP3    H124025   3.452   6.402  12.926 -0.0724 -1.2902  0.4749
  870TIP3    H224026   3.332   6.446  12.845 -0.1469 -0.2742  1.1299
  871TIP3   OH224027   5.745   5.091   3.908  0.6646 -0.1973  0.4436
  871TIP3    H124028   5.680   5.130   3.850  0.8492 -0.9950 -0.3180
  871TIP3    H224029   5.829   5.114   3.868  0.7893 -0.8573  0.3170
  872TIP3   OH224030   2.638   1.598  13.807 -0.6046  0.7762  0.3190
  872TIP3    H124031   2.677   1.682  13.781  1.4545  0.0052  0.6617
  872TIP3    H224032   2.596   1.616  13.890 -1.2689  1.7363 -0.2058
  873TIP3   OH224033   1.497   5.037   0.517 -0.6559 -0.4812  0.0870
  873TIP3    H124034   1.438   5.104   0.551  1.7188  1.6252  0.3052
  873TIP3    H224035   1.509   5.061   0.425 -0.8348 -1.4466 -0.1991
  874TIP3   OH224036   0.011   0.426   1.769  0.4104 -0.1311  0.0854
  874TIP3    H124037  -0.012   0.515   1.742 -0.3430 -0.3375  0.0144
  874TIP3    H224038  -0.073   0.383   1.782  0.6960 -0.0147  2.9417
  875TIP3   OH224039   3.287   3.104   4.549 -0.4822  0.2180 -0.0342
  875TIP3    H124040   3.382   3.109   4.558 -0.6272 -0.1831  2.7456
  875TIP3    H224041   3.272   3.078   4.458  2.1018 -0.6734 -0.2773
  876TIP3   OH224042   6.125   4.723   0.590 -0.1800 -0.6016 -0.4389
  876TIP3    H124043   6.049   4.747   0.642 -0.8946 -0.3492 -1.5686
  876TIP3    H224044   6.199   4.728   0.651 -1.2895 -2.9463  1.2734
  877TIP3   OH224045   1.677   0.335   2.355 -0.7614 -0.3503  0.0058
  877TIP3    H124046   1.644   0.267   2.296 -0.2164 -0.2652 -0.3982
  877TIP3    H224047   1.729   0.393   2.299 -1.4235  0.5434  0.3007
  878TIP3   OH224048   2.724   1.948   6.108 -0.4129  0.2411  0.0330
  878TIP3    H124049   2.802   1.917   6.062 -1.6889  0.3101 -2.3064
  878TIP3    H224050   2.704   2.032   6.068 -0.0720  1.6670  2.6490
  879TIP3   OH224051   6.622   1.436  16.339 -0.4348  0.2219 -0.2237
  879TIP3    H124052   6.613   1.452  16.433 -0.1204 -0.5247 -0.0610
  879TIP3    H224053   6.623   1.341  16.331 -3.0735  0.1945 -1.2425
  880TIP3   OH224054   5.627   2.140   3.274  0.0891  0.1224 -0.8099
  880TIP3    H124055   5.543   2.137   3.228 -0.7220  0.6852  0.5788
  880TIP3    H224056   5.656   2.049   3.276  0.8412  0.2024 -3.5652
  881TIP3   OH224057   0.493   2.103   1.746 -0.4343 -0.0457  0.2387
  881TIP3    H124058   0.516   2.183   1.793 -1.8481  0.3259  0.3392
  881TIP3    H224059   0.548   2.104   1.668 -0.3009  0.9380  0.3392
  882TIP3   OH224060   6.298   3.460   2.419  0.4011 -0.2012 -0.5718
  882TIP3    H124061   6.321   3.409   2.342 -1.8188 -1.4331 -0.5233
  882TIP3    H224062   6.235   3.525   2.388 -0.0851 -0.3437  0.0727
  883TIP3   OH224063   0.659   4.367   0.925 -0.4368 -0.1613  0.2719
  883TIP3    H124064   0.678   4.442   0.869  3.0733 -2.0394 -1.3924
  883TIP3    H224065   0.610   4.307   0.869  0.4041 -0.7668  0.1545
  884TIP3   OH224066   6.308   6.207   4.702 -0.5089 -0.9214 -0.3795
  884TIP3    H124067   6.277   6.289   4.663  1.3404  0.7848  1.4676
  884TIP3    H224068   6.300   6.142   4.632 -1.2049  1.0223 -2.2137
  885TIP3   OH224069   2.310   5.115  12.303 -0.0423 -0.0129  0.5301
  885TIP3    H124070   2.229   5.117  12.354 -0.0255  0.6057  0.5342
  885TIP3    H224071   2.347   5.202  12.312  0.9020 -0.4391  0.9505
  886TIP3   OH224072   0.846   2.888   4.441  0.7907 -0.6060 -0.3390
  886TIP3    H124073   0.886   2.802   4.425  0.4017 -0.6112 -1.4006
  886TIP3    H224074   0.836   2.926   4.353  0.5728  0.3510  0.0876
  887TIP3   OH224075   5.449   0.169   0.795 -0.7715 -0.0130 -0.3131
  887TIP3    H124076   5.529   0.201   0.836 -0.1752 -1.2613 -0.4570
  887TIP3    H224077   5.384   0.172   0.865 -0.1183 -0.8038  0.3472
  888TIP3   OH224078   0.361   5.259  10.922  0.2667 -0.0563 -0.1978
  888TIP3    H124079   0.305   5.185  10.944  2.3992 -1.2190  1.7703
  888TIP3    H224080   0.302   5.334  10.920 -2.0598 -1.7446 -2.6767
  889TIP3   OH224081   4.491   5.432  14.086 -0.0571 -0.3557  0.0372
  889TIP3    H124082   4.503   5.338  14.075  0.0614 -0.3459  0.0729
  889TIP3    H224083   4.553   5.456  14.155  0.3418 -0.1528 -0.3833
  890TIP3   OH224084   0.169   4.710  15.194  0.0873 -0.1520  0.1997
  890TIP3    H124085   0.123   4.721  15.111 -0.4353  0.4249  0.5565
  890TIP3    H224086   0.202   4.797  15.216 -1.3161  0.1077  1.4600
  891TIP3   OH224087   3.195   5.182   1.486  0.5258  0.4482  0.1796
  891TIP3    H124088   3.122   5.120   1.488  0.7942 -0.1146 -2.7714
  891TIP3    H224089   3.154   5.268   1.483  0.0470  0.2185  0.1111
  892TIP3   OH224090   4.545   2.044  14.187 -0.1789 -0.7215 -0.4241
  892TIP3    H124091   4.479   1.992  14.141 -0.3726 -2.5437  1.7387
  892TIP3    H224092   4.628   2.000  14.168 -0.1843 -1.1102  0.3945
  893TIP3   OH224093   4.490   0.214   2.120 -0.5260 -0.4253  0.2600
  893TIP3    H124094   4.459   0.136   2.165 -0.8785  0.1307  1.0003
  893TIP3    H224095   4.583   0.221   2.146 -0.7138 -0.1347  0.8913
  894TIP3   OH224096   1.334   6.258   5.337 -0.5414  0.6061 -0.1029
  894TIP3    H124097   1.272   6.196   5.299 -0.3460  1.8783 -2.7045
  894TIP3    H224098   1.288   6.342   5.337  0.5047  1.2017 -0.2810
  895TIP3   OH224099   0.290   6.525   0.906 -0.6517  0.2908  0.5260
  895TIP3    H124100   0.282   6.587   0.833 -0.4292 -0.2807  0.0052
  895TIP3    H224101   0.382   6.531   0.932 -0.3869 -0.5211 -0.1726
  896TIP3   OH224102   2.899   1.646  14.797  0.0538 -0.0883 -0.7150
  896TIP3    H124103   2.823   1.610  14.843  0.9799  0.5781  1.4835
  896TIP3    H224104   2.863   1.686  14.718 -1.5668 -1.7349 -0.8886
  897TIP3   OH224105   6.659   6.109   0.684 -0.2611  0.3912 -0.0167
  897TIP3    H124106   6.725   6.177   0.667 -0.4973 -0.0211 -3.1431
  897TIP3    H224107   6.634   6.123   0.776  3.8903  0.7453  1.2584
  898TIP3   OH224108   1.332   2.033   2.022 -0.5401  0.3571  0.0470
  898TIP3    H124109   1.304   2.122   2.044 -1.4199  0.1781 -0.2927
  898TIP3    H224110   1.387   2.044   1.944  0.5292  0.7347  0.8341
  899TIP3   OH224111   4.499   2.334   4.852 -0.1080  0.2922  0.2684
  899TIP3    H124112   4.588   2.332   4.888  0.0116 -1.2591 -0.0713
  899TIP3    H224113   4.498   2.265   4.787 -1.7418 -0.0786  0.6490
  900TIP3   OH224114   1.058   4.942   2.629  0.2974 -0.3664  0.3644
  900TIP3    H124115   1.077   4.988   2.547  1.2701 -0.1485  0.7021
  900TIP3    H224116   1.144   4.921   2.665 -0.1281 -1.3664  0.8311
  901TIP3   OH224117   2.908   1.029  12.140  0.4736 -0.1158  0.4357
  901TIP3    H124118   2.943   1.049  12.053 -0.8952 -2.5988 -0.8041
  901TIP3    H224119   2.814   1.021  12.127 -0.0072  1.3291  2.5977
  902TIP3   OH224120   2.983   4.411  14.989  0.0301 -0.3625 -0.4489
  902TIP3    H124121   2.972   4.503  15.012  0.1992 -0.6961  1.0504
  902TIP3    H224122   3.037   4.375  15.059  1.2716 -1.2687 -1.8225
  903TIP3   OH224123   5.212   1.923  12.171  0.3505 -0.6346 -0.0064
  903TIP3    H124124   5.198   1.965  12.256 -0.7963  0.2302 -0.5953
  903TIP3    H224125   5.295   1.958  12.139 -0.1897  0.5716 -0.1228
  904TIP3   OH224126   0.928   3.331   2.646  0.0464  0.0990  0.4766
  904TIP3    H124127   0.953   3.376   2.565  0.3422 -0.0150  0.5014
  904TIP3    H224128   0.837   3.357   2.661  0.2274  0.7149  0.5101
  905TIP3   OH224129   0.348   1.785  14.592  0.4833 -0.4973  0.2106
  905TIP3    H124130   0.371   1.786  14.500  0.3247  0.8299  0.1552
  905TIP3    H224131   0.431   1.795  14.638  0.4090  0.7914  0.1215
  906TIP3   OH224132   0.551   4.778   5.494  0.1456  0.2792 -0.4142
  906TIP3    H124133   0.602   4.724   5.555  2.1964  0.8060 -1.5740
  906TIP3    H224134   0.489   4.824   5.550  0.6750 -0.6817  1.0342
  907TIP3   OH224135   2.692   3.438  13.535  0.5131  0.2037  0.4897
  907TIP3    H124136   2.624   3.492  13.494  1.1533 -0.6749 -1.8896
  907TIP3    H224137   2.738   3.397  13.461  2.2997 -0.8457  2.0996
  908TIP3   OH224138   6.217   3.310   5.402 -0.2005 -0.0999 -0.0562
  908TIP3    H124139   6.202   3.313   5.496 -1.1458 -1.6659 -0.1037
  908TIP3    H224140   6.173   3.230   5.374  0.7309 -0.0807 -1.7164
  909TIP3   OH224141   2.785   2.779  14.906 -0.6307 -0.3632 -0.4520
  909TIP3    H124142   2.846   2.835  14.954 -2.4896 -0.0581  1.7359
  909TIP3    H224143   2.838   2.702  14.882  0.9900  0.5885 -0.1034
  910TIP3   OH224144   3.249   3.540   0.882  0.0096  0.4879  0.0456
  910TIP3    H124145   3.189   3.465   0.877 -0.0315  0.5786 -0.8763
  910TIP3    H224146   3.281   3.538   0.973 -0.4942 -0.2521  0.2199
  911TIP3   OH224147   1.598   1.122  11.551 -0.6696 -0.7900 -0.8120
  911TIP3    H124148   1.524   1.071  11.516 -2.4601  1.8990 -1.2584
  911TIP3    H224149   1.580   1.129  11.645 -0.4185 -0.9896 -0.7480
  912TIP3   OH224150   0.554   1.394   2.330 -0.4150  0.2257  0.6206
  912TIP3    H124151   0.649   1.399   2.324 -0.4040 -0.2643  0.3609
  912TIP3    H224152   0.536   1.356   2.416 -0.3712  0.1135  0.5799
  913TIP3   OH224153   4.073   3.571  13.838 -0.3892  0.3568 -0.2926
  913TIP3    H124154   4.074   3.514  13.761 -2.2138  1.0378 -0.8632
  913TIP3    H224155   4.108   3.516  13.909  0.2391 -0.6451 -1.3348
  914TIP3   OH224156   1.682   5.650   3.112 -0.0901 -0.0957  0.6402
  914TIP3    H124157   1.587   5.662   3.118 -0.6848 -3.4016 -0.2906
  914TIP3    H224158   1.704   5.675   3.023 -0.2396 -0.2261  0.5670
  915TIP3   OH224159   3.338   2.976   1.575 -0.8509  0.1952  0.8266
  915TIP3    H124160   3.264   2.916   1.589  0.7825 -1.7455  1.5575
  915TIP3    H224161   3.341   3.029   1.655  0.1415 -1.5602  1.9975
  916TIP3   OH224162   1.778   0.295  16.471 -0.9333  0.1043  0.1938
  916TIP3    H124163   1.743   0.220  16.518  0.5809 -0.3853  0.6139
  916TIP3    H224164   1.791   0.362  16.539 -1.3713  0.3976 -0.0099
  917TIP3   OH224165   3.664   2.072  16.584  0.1935 -0.1538 -0.3323
  917TIP3    H124166   3.630   2.119  16.507  2.0538  0.4343 -0.8471
  917TIP3    H224167   3.628   1.984  16.575  0.2321 -0.0535 -1.8084
  918TIP3   OH224168   2.103   6.254   4.000 -1.0439  0.0860 -0.1636
  918TIP3    H124169   2.030   6.312   4.024 -0.9335 -0.5303  1.8917
  918TIP3    H224170   2.170   6.273   4.065 -0.1956 -0.8685 -0.7394
  919TIP3   OH224171   5.962   5.648  12.115 -0.0351  0.8016 -0.1000
  919TIP3    H124172   6.014   5.654  12.196 -2.3320 -1.7827  1.7550
  919TIP3    H224173   5.897   5.718  12.124  0.8266  1.6863 -0.6366
  920TIP3   OH224174   5.870   2.058   5.008  0.3507 -0.0591 -0.2253
  920TIP3    H124175   5.958   2.082   4.980  1.0745 -1.8292  0.3779
  920TIP3    H224176   5.876   2.056   5.104 -1.0409  2.1733 -0.0313
  921TIP3   OH224177   4.532   4.004  11.262  0.0783  0.5686 -0.1494
  921TIP3    H124178   4.568   4.004  11.174  0.1834 -1.4017 -0.1701
  921TIP3    H224179   4.609   3.999  11.320  0.0451  2.6276  0.1198
  922TIP3   OH224180   3.970   0.778   6.135 -0.4357 -0.4914  0.2007
  922TIP3    H124181   3.941   0.852   6.189 -0.1213 -0.7461  0.7235
  922TIP3    H224182   4.043   0.740   6.183  1.2257  0.5051 -1.3752
  923TIP3   OH224183   1.372   3.387   5.987 -0.1820  0.1014  0.2109
  923TIP3    H124184   1.454   3.338   5.994  0.8882  1.7719 -0.1656
  923TIP3    H224185   1.352   3.388   5.893  1.0610  2.2577 -0.1046
  924TIP3   OH224186   5.011   3.458  15.956 -0.0390 -0.0610  0.6537
  924TIP3    H124187   4.979   3.544  15.930 -0.3017 -0.8017 -1.7911
  924TIP3    H224188   5.104   3.471  15.973  0.3287  0.4637 -1.4228
  925TIP3   OH224189   6.156   6.716  17.228  0.3550  0.2362 -0.2139
  925TIP3    H124190   6.213   6.694  17.302  0.4606 -2.3025 -0.9549
  925TIP3    H224191   6.211   6.770  17.171  1.6041 -0.9979 -0.2350
  926TIP3   OH224192   3.711   6.621   0.510 -0.4480  0.4998 -0.6621
  926TIP3    H124193   3.684   6.656   0.594 -2.5695  0.1218 -1.1192
  926TIP3    H224194   3.634   6.631   0.454 -0.1241 -1.9917 -1.6873
  927TIP3   OH224195   0.576   6.642   4.662 -0.2770 -0.4850  0.3220
  927TIP3    H124196   0.624   6.559   4.658  1.9921  0.7960 -0.1731
  927TIP3    H224197   0.625   6.695   4.724 -0.5619  1.1856 -0.8296
  928TIP3   OH224198   1.859   5.286  16.356 -1.0433 -0.0898 -0.1405
  928TIP3    H124199   1.867   5.299  16.262 -1.3266 -0.3004 -0.1976
  928TIP3    H224200   1.875   5.192  16.369 -3.4215 -0.5793 -0.2901
  929TIP3   OH224201   6.731   5.100   3.518 -0.6314  0.1196  0.0931
  929TIP3    H124202   6.652   5.049   3.537 -0.5300  0.5740  1.9974
  929TIP3    H224203   6.801   5.050   3.561  0.1164 -0.2043 -1.4515
  930TIP3   OH224204   5.429   4.782  12.148 -0.4777  0.6788  0.7682
  930TIP3    H124205   5.443   4.873  12.175 -0.2940  0.7878  0.3195
  930TIP3    H224206   5.411   4.787  12.054  1.3106  0.1165  0.3540
  931TIP3   OH224207   5.167   1.508  16.304 -0.1409 -0.1511 -0.1458
  931TIP3    H124208   5.098   1.569  16.279  0.4415  0.4975 -0.1870
  931TIP3    H224209   5.243   1.563  16.323  0.6508 -0.9018 -1.0132
  932TIP3   OH224210   5.839   1.819  14.590  0.0599  0.3924  0.0876
  932TIP3    H124211   5.837   1.891  14.527  1.8084  1.2039  0.8824
  932TIP3    H224212   5.773   1.842  14.655 -0.8891  0.1696 -0.7799
  933TIP3   OH224213   1.694   5.871  15.103 -0.5187  0.3014 -0.6477
  933TIP3    H124214   1.704   5.936  15.173 -0.5654 -0.5970  0.2168
  933TIP3    H224215   1.602   5.880  15.076 -0.4202  0.8636 -0.8195
  934TIP3   OH224216   1.567   2.146   5.115 -0.3341  0.4887  0.2970
  934TIP3    H124217   1.629   2.219   5.114 -0.7895  0.8746  0.3842
  934TIP3    H224218   1.484   2.185   5.140 -0.7255  0.0473 -0.3011
  935TIP3   OH224219   5.034   4.640   5.048  0.1020  0.0957  0.1341
  935TIP3    H124220   4.940   4.644   5.065 -0.2839  0.1571 -1.7594
  935TIP3    H224221   5.063   4.559   5.092 -1.9367 -2.9620 -3.5247
  936TIP3   OH224222   1.276   5.742  16.183  0.0192 -0.1855 -0.2367
  936TIP3    H124223   1.253   5.664  16.131  0.4253  1.0861 -2.4761
  936TIP3    H224224   1.233   5.728  16.267 -0.0129 -2.7645 -0.5725
  937TIP3   OH224225   1.994   5.509   5.012  0.4091 -0.0161  0.5492
  937TIP3    H124226   2.089   5.505   5.022  0.4080 -1.7494  0.2381
  937TIP3    H224227   1.969   5.591   5.054  2.0586  0.6041  0.4162
  938TIP3   OH224228   0.095   4.422  14.257  0.4055  0.3131 -0.1453
  938TIP3    H124229   0.129   4.439  14.169  2.7744  1.4392  0.8998
  938TIP3    H224230   0.115   4.502  14.306 -0.2950 -0.5278  1.5723
  939TIP3   OH224231   3.578   2.440  11.432  0.1606 -0.4920 -0.1407
  939TIP3    H124232   3.499   2.483  11.465  0.2383 -0.1480 -0.4061
  939TIP3    H224233   3.548   2.388  11.357 -0.0380 -1.3708  0.5301
  940TIP3   OH224234   2.509   2.847   3.300 -0.1789 -0.0074 -0.2306
  940TIP3    H124235   2.481   2.823   3.388  1.8003 -0.8934  0.1986
  940TIP3    H224236   2.604   2.851   3.304  0.1991 -2.6116 -2.8931
  941TIP3   OH224237   5.886   5.994  12.020 -0.5755  0.4408  0.1998
  941TIP3    H124238   5.835   5.923  12.057  0.4383 -0.1211  0.5577
  941TIP3    H224239   5.827   6.035  11.957 -1.0154 -1.0177 -0.3776
  942TIP3   OH224240   4.646   4.088  16.135  0.3727  0.5011 -0.5136
  942TIP3    H124241   4.588   4.054  16.204 -0.2701 -0.4312 -1.4845
  942TIP3    H224242   4.613   4.176  16.117 -1.0871 -0.1818 -1.3813
  943TIP3   OH224243   0.518   3.031  12.157 -0.0456 -0.7774  0.4744
  943TIP3    H124244   0.602   3.076  12.163  0.0026 -0.8196  0.1438
  943TIP3    H224245   0.510   2.983  12.239  1.0117 -2.0976 -0.1679
  944TIP3   OH224246   5.165   1.633   1.878  0.1176 -0.5528  0.3400
  944TIP3    H124247   5.089   1.663   1.927 -1.2006 -1.2476 -1.1923
  944TIP3    H224248   5.238   1.641   1.940 -1.1492  0.2895  1.7969
  945TIP3   OH224249   1.162   1.384  12.467  0.2879 -0.4168 -0.0418
  945TIP3    H124250   1.111   1.305  12.484 -0.6149 -0.0951 -1.1827
  945TIP3    H224251   1.192   1.412  12.554 -0.5723 -1.2151  0.5303
  946TIP3   OH224252   0.744   0.837  15.303  0.1138  0.0956 -0.1619
  946TIP3    H124253   0.685   0.906  15.335  0.7149  0.9980 -0.9648
  946TIP3    H224254   0.692   0.757  15.308 -1.0334  0.8052 -0.4264
  947TIP3   OH224255   6.074   4.861  11.784 -0.4337 -0.6221 -0.0650
  947TIP3    H124256   6.035   4.802  11.719 -0.6419 -0.0094 -0.5056
  947TIP3    H224257   6.006   4.871  11.851  0.3169 -2.4225  1.0276
  948TIP3   OH224258   4.395   3.608   5.464 -0.4361 -0.3283  0.4692
  948TIP3    H124259   4.350   3.691   5.451  0.9167 -0.0310 -3.2778
  948TIP3    H224260   4.330   3.552   5.507 -1.7796  2.2275  1.9611
  949TIP3   OH224261   4.791   3.716   1.220  0.3473 -0.2693  0.4055
  949TIP3    H124262   4.873   3.680   1.186  0.1879 -2.1230  1.8125
  949TIP3    H224263   4.722   3.670   1.173  0.1151  0.2112  0.2718
  950TIP3   OH224264   5.197   5.187  16.429  0.1794  0.0192  0.3132
  950TIP3    H124265   5.276   5.212  16.479 -0.2338  1.4862  0.2748
  950TIP3    H224266   5.131   5.251  16.456 -1.4905 -2.0715  1.4907
  951TIP3   OH224267   3.782   6.536  13.033  0.0381 -0.3973  0.3452
  951TIP3    H124268   3.772   6.491  13.117 -1.0876  1.2737  1.1635
  951TIP3    H224269   3.866   6.505  12.999 -0.8363 -3.3760  0.6261
  952TIP3   OH224270   5.846   2.711  12.174  0.5676  0.2968  0.2062
  952TIP3    H124271   5.861   2.803  12.195 -0.1950  0.3443  0.5680
  952TIP3    H224272   5.769   2.686  12.226  0.2002 -0.2855 -0.5871
  953TIP3   OH224273   4.442   1.177  12.712  0.6037  0.6391  0.2611
  953TIP3    H124274   4.513   1.236  12.737  1.2785 -0.8524  2.1403
  953TIP3    H224275   4.363   1.230  12.718  1.4827  2.2036 -1.4116
  954TIP3   OH224276   3.433   2.073   1.767  0.4111 -0.1314 -0.4605
  954TIP3    H124277   3.372   2.075   1.693  1.4450 -1.5416 -1.3875
  954TIP3    H224278   3.518   2.054   1.729  1.0079 -0.7495  1.0735
  955TIP3   OH224279   0.293   1.503   0.987  1.1696 -0.1141  0.6566
  955TIP3    H124280   0.245   1.532   1.064 -1.4941 -0.6700 -0.6787
  955TIP3    H224281   0.266   1.412   0.974  1.4065  0.0151 -1.0034
  956TIP3   OH224282   0.701   1.333   6.352 -0.1390 -0.6529 -0.0213
  956TIP3    H124283   0.648   1.376   6.419 -0.1391 -1.0684  0.2470
  956TIP3    H224284   0.742   1.259   6.397 -1.4698 -1.9669 -0.8743
  957TIP3   OH224285   0.176   4.900   3.551  0.1442 -1.1604  0.3479
  957TIP3    H124286   0.239   4.957   3.595  0.2793 -1.5221  0.6231
  957TIP3    H224287   0.222   4.871   3.472  0.1040 -0.9522  0.2468
  958TIP3   OH224288   2.688   1.067   6.444  0.0354  0.1627  0.6166
  958TIP3    H124289   2.647   1.091   6.361  0.5844 -0.3486  0.1866
  958TIP3    H224290   2.616   1.037   6.499 -0.4078  1.0244  0.5204
  959TIP3   OH224291   5.761   3.312   2.800 -0.2922  0.1660 -0.3110
  959TIP3    H124292   5.677   3.354   2.812 -0.5915  0.0620 -1.8710
  959TIP3    H224293   5.748   3.222   2.831 -0.1130  0.6913  1.4480
  960TIP3   OH224294   3.059   3.933   0.472  0.2154  0.2260  0.4605
  960TIP3    H124295   3.014   3.905   0.393 -0.8709 -0.1733  1.2056
  960TIP3    H224296   3.150   3.904   0.459 -0.0843 -0.3808 -0.3580
  961TIP3   OH224297   6.542   4.269  14.707  0.3750  0.5297  0.4769
  961TIP3    H124298   6.491   4.193  14.680 -0.1468  0.4576  1.6035
  961TIP3    H224299   6.479   4.341  14.712 -0.1715 -0.0063  3.8872
  962TIP3   OH224300   1.773   3.501   3.213  0.1627  0.4947 -0.5050
  962TIP3    H124301   1.741   3.578   3.260  0.9818  1.4495 -1.4517
  962TIP3    H224302   1.841   3.465   3.270 -0.7786 -0.0204  0.3125
  963TIP3   OH224303   0.988   1.524  15.070 -0.1786 -0.2847 -0.3575
  963TIP3    H124304   0.898   1.544  15.094 -0.3104 -1.3032  0.0424
  963TIP3    H224305   1.041   1.573  15.133 -0.3855  1.6830 -1.6409
  964TIP3   OH224306   1.413   0.441  13.327  0.0268 -0.4307  0.4875
  964TIP3    H124307   1.370   0.444  13.412 -0.4061  0.1453  0.2563
  964TIP3    H224308   1.469   0.363  13.331 -0.4388 -0.7428  1.0780
  965TIP3   OH224309   1.472   3.853   1.249 -0.4753  0.1818  1.1089
  965TIP3    H124310   1.500   3.935   1.290 -0.2842  0.9832 -0.5117
  965TIP3    H224311   1.519   3.785   1.297  1.0241  1.1904  1.1608
  966TIP3   OH224312   0.372   2.541   5.229 -0.3585  0.6435 -0.2556
  966TIP3    H124313   0.298   2.512   5.282 -0.3140 -0.0424 -0.5540
  966TIP3    H224314   0.355   2.634   5.214 -1.1678  0.4979 -0.3211
  967TIP3   OH224315   4.910   3.139   2.651  0.1033 -0.1987  0.0682
  967TIP3    H124316   4.896   3.231   2.628 -2.8593 -0.6506 -0.3496
  967TIP3    H224317   4.915   3.139   2.747 -0.6002  0.3416  0.1162
  968TIP3   OH224318   6.309   1.265   5.075 -0.5971  0.0068  0.3563
  968TIP3    H124319   6.301   1.294   5.166 -2.1140 -0.1114  0.2883
  968TIP3    H224320   6.382   1.204   5.075 -0.5123  0.0943  1.4769
  969TIP3   OH224321   4.592   2.443  12.791 -0.0828 -0.5415  0.8962
  969TIP3    H124322   4.650   2.511  12.758 -0.0785 -0.9805 -0.0352
  969TIP3    H224323   4.524   2.434  12.724 -0.8184 -0.5466  1.6240
  970TIP3   OH224324   3.262   5.342  12.479 -0.5801  0.5015 -0.5070
  970TIP3    H124325   3.259   5.438  12.473  0.1989  0.4564 -2.0191
  970TIP3    H224326   3.174   5.314  12.454 -0.8668  0.8162  0.1204
  971TIP3   OH224327   2.921   1.756  10.636 -0.2313 -0.2321  0.6740
  971TIP3    H124328   2.931   1.721  10.724 -0.5898 -1.1264  0.3722
  971TIP3    H224329   2.832   1.791  10.634 -0.5602 -1.0467  0.4014
  972TIP3   OH224330   5.850   4.704  14.793  0.0135 -0.3187  0.2473
  972TIP3    H124331   5.898   4.623  14.811 -0.6767 -0.7032  0.4098
  972TIP3    H224332   5.797   4.682  14.716 -2.5995 -1.1043  2.1299
  973TIP3   OH224333   1.934   4.706  12.888 -0.3621  0.1634  0.3254
  973TIP3    H124334   1.903   4.782  12.840 -0.4741  1.6862  2.6628
  973TIP3    H224335   2.030   4.716  12.890 -0.3616  0.1471  0.4436
  974TIP3   OH224336   2.575   5.701   0.507 -0.1184  0.1386 -0.4736
  974TIP3    H124337   2.508   5.758   0.471  0.5111  0.5448 -1.0408
  974TIP3    H224338   2.613   5.751   0.579 -0.8502 -0.3565  0.2731
  975TIP3   OH224339   1.691   3.140   4.903  0.0038  0.4283  0.1709
  975TIP3    H124340   1.597   3.127   4.887 -0.2303  1.2814  0.7598
  975TIP3    H224341   1.715   3.071   4.963  0.0994 -0.6784 -1.0935
  976TIP3   OH224342   5.244   6.199  13.349  0.0772  0.3734  0.1410
  976TIP3    H124343   5.178   6.263  13.376 -0.4836 -0.0980 -0.1041
  976TIP3    H224344   5.315   6.253  13.314 -1.1189  0.8374 -1.7164
  977TIP3   OH224345   3.377   3.034   5.499 -0.2165 -0.4051 -0.0987
  977TIP3    H124346   3.334   2.962   5.452  1.1164 -1.1463 -0.2470
  977TIP3    H224347   3.428   2.990   5.567  0.1697  0.4504  0.1690
  978TIP3   OH224348   5.803   5.436   0.050 -0.2477  0.0078  0.2488
  978TIP3    H124349   5.787   5.528   0.028 -1.7662 -0.0058  1.1202
  978TIP3    H224350   5.823   5.438   0.144 -0.5115 -0.5576  0.3206
  979TIP3   OH224351   4.343   3.047  14.819  0.1457  0.2559 -0.1220
  979TIP3    H124352   4.256   3.018  14.792  0.9275 -1.6272 -0.7531
  979TIP3    H224353   4.352   3.016  14.909 -0.1306  1.1999  0.2472
  980TIP3   OH224354   0.968   3.241  15.949 -0.2432  0.4779 -0.0475
  980TIP3    H124355   0.942   3.332  15.936 -1.8887  0.0092 -0.3005
  980TIP3    H224356   0.929   3.216  16.032  0.7942  0.1976  0.3658
  981TIP3   OH224357   4.752   1.780   3.248 -0.0641 -0.2909 -0.4206
  981TIP3    H124358   4.816   1.820   3.189  0.9639  1.1805  1.5643
  981TIP3    H224359   4.667   1.805   3.212  0.5392  1.6772 -0.6153
  982TIP3   OH224360   5.568   0.338  12.316 -0.2495  0.0886  0.2813
  982TIP3    H124361   5.559   0.430  12.342 -1.7470  0.3798 -1.0987
  982TIP3    H224362   5.550   0.338  12.222 -0.8622 -1.6931  0.3607
  983TIP3   OH224363   1.739   6.057   1.654  0.1735 -0.1237  0.5090
  983TIP3    H124364   1.687   6.138   1.659  0.7384  0.3075 -0.3843
  983TIP3    H224365   1.748   6.030   1.745 -2.6522 -0.9041  0.6556
  984TIP3   OH224366   0.762   1.270   2.151 -0.4531 -0.1698  0.2668
  984TIP3    H124367   0.709   1.263   2.072 -2.6294  1.3581  1.4900
  984TIP3    H224368   0.747   1.188   2.198  0.3354 -0.8048 -0.5564
  985TIP3   OH224369   2.898   0.406  11.015  0.0552 -0.6593  0.2504
  985TIP3    H124370   2.957   0.473  11.051 -1.9573  1.2073  0.3212
  985TIP3    H224371   2.944   0.324  11.029  2.8955  0.7088 -0.2898
  986TIP3   OH224372   5.558   3.882  15.137  0.4589  0.3865  0.5269
  986TIP3    H124373   5.471   3.878  15.098  0.5256  2.6575 -0.0021
  986TIP3    H224374   5.581   3.975  15.136  2.5618 -0.0514  1.4068
  987TIP3   OH224375   0.343   6.183  14.309  0.6829 -0.2427 -0.0182
  987TIP3    H124376   0.301   6.235  14.378  1.7527  0.5054  0.0996
  987TIP3    H224377   0.276   6.121  14.281 -0.2111  0.3565  0.7418
  988TIP3   OH224378   5.963   2.690  15.884  0.6901  0.0323  0.0800
  988TIP3    H124379   5.990   2.737  15.805  0.6534 -1.4803 -0.8756
  988TIP3    H224380   5.870   2.712  15.894  0.0320 -1.5386 -1.7050
  989TIP3   OH224381   2.195   3.984  13.781  0.2708 -0.1750 -0.2641
  989TIP3    H124382   2.131   3.987  13.852 -1.9332  0.0761 -2.1349
  989TIP3    H224383   2.215   4.076  13.762 -1.4137 -0.0719 -1.8029
  990TIP3   OH224384   4.454   0.337  12.437  0.0731  0.7701 -0.1572
  990TIP3    H124385   4.475   0.318  12.346  0.3401  1.7632 -0.3099
  990TIP3    H224386   4.411   0.257  12.468  0.3583  0.2602 -1.0218
  991TIP3   OH224387   4.470   5.351  15.155  0.3889  0.1592 -0.0891
  991TIP3    H124388   4.510   5.284  15.211 -0.5947 -0.9969 -0.7291
  991TIP3    H224389   4.460   5.427  15.213  3.2176  0.4473  0.1596
  992TIP3   OH224390   0.154   1.623  11.774 -0.0374  0.5634  0.1103
  992TIP3    H124391   0.073   1.659  11.737  0.5803  0.8956 -0.9816
  992TIP3    H224392   0.156   1.532  11.745 -0.2576  0.4184  0.5496
  993TIP3   OH224393   2.335   5.224  15.500 -0.1991 -0.4726 -0.0471
  993TIP3    H124394   2.311   5.136  15.471 -1.7782 -0.1113  0.0736
  993TIP3    H224395   2.401   5.253  15.437 -1.5781 -0.7578 -1.6883
  994TIP3   OH224396   0.314   5.615   6.927 -0.2237  0.1015 -0.0737
  994TIP3    H124397   0.401   5.603   6.889  0.2303  0.8544  0.6719
  994TIP3    H224398   0.257   5.635   6.852  0.2603 -0.3152 -0.5576
  995TIP3   OH224399   4.534   5.794   2.093  0.0705 -0.0032 -1.0201
  995TIP3    H124400   4.562   5.703   2.101  0.1673 -0.0538 -1.8295
  995TIP3    H224401   4.585   5.840   2.159  2.1203 -0.1109 -2.4079
  996TIP3   OH224402   3.183   5.220   4.033  0.1478 -0.1564 -0.1339
  996TIP3    H124403   3.269   5.247   3.998  0.2067  0.7404  0.6478
  996TIP3    H224404   3.188   5.241   4.126 -1.0428  0.2226 -0.1400
  997TIP3   OH224405   0.933   5.161  15.654  0.5943 -0.3039 -0.5421
  997TIP3    H124406   0.871   5.149  15.726 -0.6680 -1.1191 -1.7037
  997TIP3    H224407   0.994   5.088  15.663  0.0188 -0.8142 -0.6834
  998TIP3   OH224408   4.734   1.827   3.518 -0.1786  0.2247  0.2636
  998TIP3    H124409   4.658   1.885   3.514 -0.2348  0.0887 -1.0260
  998TIP3    H224410   4.735   1.782   3.433 -0.4881 -2.1081  1.4167
  999TIP3   OH224411   1.824   0.783  16.207 -0.2655  0.4998  0.1662
  999TIP3    H124412   1.744   0.739  16.238 -0.0280  1.0819  1.7082
  999TIP3    H224413   1.892   0.717  16.216 -0.1161  0.7897  1.4084
 1000TIP3   OH224414   5.877   3.057  12.876  0.2418  0.3635  0.2888
 1000TIP3    H124415   5.927   3.081  12.798  0.9224  1.2387  0.9754
 1000TIP3    H224416   5.825   2.981  12.849  1.4486 -0.1699 -0.6392
 1001TIP3   OH224417   5.002   5.478   2.509  0.0923 -0.1565 -0.1037
 1001TIP3    H124418   4.932   5.414   2.493 -0.6405  1.1449 -2.5336
 1001TIP3    H224419   5.076   5.445   2.459 -0.2074  0.7069 -1.1518
 1002TIP3   OH224420   1.200   2.570   1.792  0.8950  0.1895  0.0036
 1002TIP3    H124421   1.237   2.516   1.723  0.6828 -0.5732  0.4776
 1002TIP3    H224422   1.201   2.659   1.756  1.5077 -0.0828 -0.6727
 1003TIP3   OH224423   5.902   6.400   4.741  0.0650  0.7227 -0.5058
 1003TIP3    H124424   5.952   6.437   4.814  2.5262 -0.9457 -1.2448
 1003TIP3    H224425   5.905   6.468   4.673 -0.7427  1.5641  0.2581
 1004TIP3   OH224426   0.575   0.339  15.110 -0.6252  0.0446  0.0976
 1004TIP3    H124427   0.611   0.263  15.156  2.7752  0.5775 -1.3576
 1004TIP3    H224428   0.522   0.301  15.040  0.5965 -1.0318 -0.2928
 1005TIP3   OH224429   6.680   6.012  17.279  0.5958  0.6426  0.3744
 1005TIP3    H124430   6.692   6.081  17.213  2.8065  0.6844  0.7378
 1005TIP3    H224431   6.664   5.933  17.227 -0.4948  1.1416 -0.0919
 1006TIP3   OH224432   5.177   0.003  11.760  0.3512  0.1728  0.0932
 1006TIP3    H124433   5.100  -0.053  11.749  0.2568  0.2710  0.2524
 1006TIP3    H224434   5.150   0.068  11.825  1.1223 -0.7827  1.4113
 1007TIP3   OH224435   5.820   3.099  17.316 -0.1881 -0.2839  0.4785
 1007TIP3    H124436   5.910   3.097  17.348 -1.0852  1.7093  3.6208
 1007TIP3    H224437   5.772   3.043  17.377 -1.5965  1.7366  1.3432
 1008TIP3   OH224438   1.271   6.088   2.662  0.5160  0.5915  0.3145
 1008TIP3    H124439   1.229   6.028   2.600  0.9772  0.8619 -0.2705
 1008TIP3    H224440   1.342   6.036   2.701 -0.5375  0.0278  1.5525
 1009TIP3   OH224441   2.749   2.278   5.529 -0.6771 -0.2749 -0.2663
 1009TIP3    H124442   2.802   2.226   5.469 -0.0707 -0.1725  0.1687
 1009TIP3    H224443   2.734   2.360   5.483 -0.5791 -0.3602 -0.4501
 1010TIP3   OH224444   0.970   1.768  13.263 -0.1034  0.2308 -0.1986
 1010TIP3    H124445   0.958   1.863  13.270  3.4782  0.7508  1.9501
 1010TIP3    H224446   0.996   1.754  13.172 -2.0571  1.0111 -0.9324
 1011TIP3   OH224447   2.163   4.054  16.926 -0.1285 -0.8007  0.1771
 1011TIP3    H124448   2.181   4.137  16.971 -0.2804 -0.8346  0.2995
 1011TIP3    H224449   2.075   4.066  16.889 -0.3596 -1.1033  0.6310
 1012TIP3   OH224450   5.028   0.830   5.707 -0.1531 -0.2834 -0.3179
 1012TIP3    H124451   4.963   0.878   5.656  0.3108  1.0741  0.3139
 1012TIP3    H224452   4.980   0.798   5.784 -0.2954 -0.1786 -0.3634
 1013TIP3   OH224453   3.123   2.497  11.901 -0.0113  0.0162  0.1639
 1013TIP3    H124454   3.111   2.563  11.833 -1.9162  0.4423  0.8335
 1013TIP3    H224455   3.179   2.538  11.966 -1.2545  1.0519  0.6213
 1014TIP3   OH224456   4.892   5.812   6.483  0.2622 -0.0223  0.2154
 1014TIP3    H124457   4.797   5.811   6.476  0.3423 -0.1427 -0.9673
 1014TIP3    H224458   4.923   5.835   6.396  1.4030 -3.7028 -0.5047
 1015TIP3   OH224459   2.668   1.453   4.080  0.0895  0.5694 -0.5633
 1015TIP3    H124460   2.750   1.462   4.127  0.4699  2.2369 -1.4604
 1015TIP3    H224461   2.675   1.371   4.033  0.3072 -0.3884  1.0604
 1016TIP3   OH224462   0.537   3.675   4.727  0.3804  0.3096 -0.4419
 1016TIP3    H124463   0.462   3.653   4.783  2.2914  0.1863  2.2926
 1016TIP3    H224464   0.515   3.760   4.689 -1.9256 -0.6053 -1.3231
 1017TIP3   OH224465   5.133   3.209  13.811  0.2773 -0.2992 -0.0096
 1017TIP3    H124466   5.045   3.213  13.849 -0.3314 -0.2804 -1.3731
 1017TIP3    H224467   5.173   3.133  13.854 -1.2305 -1.7261 -1.0255
 1018TIP3   OH224468   5.630   1.337   0.489  0.5363 -0.6215 -0.0355
 1018TIP3    H124469   5.600   1.425   0.513 -0.8443 -1.4121  1.2492
 1018TIP3    H224470   5.629   1.337   0.393  2.2883  1.3059 -0.1497
 1019TIP3   OH224471   2.582   2.285  16.492  0.6981 -0.1781 -0.0911
 1019TIP3    H124472   2.633   2.221  16.441  0.9487 -0.0278 -0.0274
 1019TIP3    H224473   2.618   2.370  16.467  0.6076 -0.0840  0.0979
 1020TIP3   OH224474   1.495   2.334  17.368 -0.3215 -0.8466  0.4838
 1020TIP3    H124475   1.459   2.359  17.283 -0.0333  0.6514  0.7771
 1020TIP3    H224476   1.420   2.296  17.415 -1.2566  1.0887  0.6385
 1021TIP3   OH224477   4.970   5.894   0.600 -0.5445  0.4401 -0.0568
 1021TIP3    H124478   4.991   5.950   0.526  1.6321  0.3438  0.4288
 1021TIP3    H224479   5.016   5.812   0.582 -0.1114  0.3608  1.2943
 1022TIP3   OH224480   6.159   3.260  14.556 -0.2490  0.5245 -0.1390
 1022TIP3    H124481   6.107   3.198  14.607 -0.5176  1.2080  0.4233
 1022TIP3    H224482   6.137   3.240  14.465 -0.3169 -0.2157  0.0311
 1023TIP3   OH224483   6.627   5.306  11.300 -0.4141 -0.0807 -0.1271
 1023TIP3    H124484   6.585   5.305  11.214  0.8714 -0.2049 -0.7691
 1023TIP3    H224485   6.644   5.214  11.320 -0.0805 -0.0058 -0.0623
 1024TIP3   OH224486   2.874   6.358   0.123 -0.2691 -0.2801 -0.6960
 1024TIP3    H124487   2.862   6.451   0.102  0.1321  0.0769  0.5675
 1024TIP3    H224488   2.788   6.330   0.155 -0.1433 -0.0809 -0.1683
 1025TIP3   OH224489   5.235   6.039  16.319  0.2929  0.1960  0.3605
 1025TIP3    H124490   5.273   6.087  16.393  1.2712  1.1828 -0.7402
 1025TIP3    H224491   5.305   6.034  16.255 -0.8805  0.4545 -1.0088
 1026TIP3   OH224492   4.378   6.064   5.194  0.3467 -0.1202 -0.2432
 1026TIP3    H124493   4.428   6.131   5.146  1.5186 -0.6161  0.2390
 1026TIP3    H224494   4.381   5.987   5.138  0.1284 -0.1585 -0.2031
 1027TIP3   OH224495   4.482   0.749  15.819  0.1625  0.1432  0.5772
 1027TIP3    H124496   4.407   0.716  15.868 -0.4170  0.9392  0.2390
 1027TIP3    H224497   4.497   0.837  15.855 -1.5372  1.5974 -1.9508
 1028TIP3   OH224498   1.290   6.166   4.537 -0.0480 -0.1125 -0.4293
 1028TIP3    H124499   1.373   6.137   4.574  0.8675  2.4278 -0.2720
 1028TIP3    H224500   1.295   6.142   4.444 -0.7929 -3.2402  0.2382
 1029TIP3   OH224501   3.228   3.115  16.448  0.2638 -0.3039  0.1933
 1029TIP3    H124502   3.193   3.160  16.371  0.8618  0.8966  0.6048
 1029TIP3    H224503   3.151   3.071  16.486 -0.4695  0.8720  0.1219
 1030TIP3   OH224504   2.497   0.770   5.201  0.0180 -0.0114 -0.0878
 1030TIP3    H124505   2.443   0.704   5.159 -0.2351  0.4955 -0.5800
 1030TIP3    H224506   2.507   0.838   5.134 -0.0942  0.6430  0.5518
 1031TIP3   OH224507   2.111   6.075  17.170 -0.3146  0.0322  0.1819
 1031TIP3    H124508   2.087   6.149  17.114 -0.8633 -2.0636 -2.5403
 1031TIP3    H224509   2.031   6.053  17.217 -1.4110 -1.4018 -2.2117
 1032TIP3   OH224510   5.976   3.755  14.004  0.2670  0.2858  0.5351
 1032TIP3    H124511   6.058   3.705  14.005  1.1219  1.6100 -0.0895
 1032TIP3    H224512   5.956   3.767  13.911  0.9036  2.3051  0.6020
 1033TIP3   OH224513   5.658   4.476  14.806  0.1273  0.2974 -0.4274
 1033TIP3    H124514   5.739   4.431  14.783 -0.1905 -0.3293 -0.3531
 1033TIP3    H224515   5.647   4.542  14.738 -0.1996 -0.7584 -1.4394
 1034TIP3   OH224516   1.058   0.028   1.049 -0.0344 -0.2407  0.2318
 1034TIP3    H124517   0.965   0.038   1.031  0.3797  2.5215 -0.8699
 1034TIP3    H224518   1.097   0.009   0.964  0.5881  0.3557  0.3742
 1035TIP3   OH224519   1.748   2.330  14.386 -0.1176  0.4097 -0.2349
 1035TIP3    H124520   1.796   2.380  14.452 -1.8992  0.4529  1.0828
 1035TIP3    H224521   1.744   2.241  14.421  0.6515 -0.0535 -1.2650
 1036TIP3   OH224522   0.432   0.298   0.273  0.1753  0.1979  0.0909
 1036TIP3    H124523   0.436   0.392   0.287  2.3662  0.2882 -0.8298
 1036TIP3    H224524   0.501   0.262   0.329 -0.0701 -0.7713 -0.2059
 1037TIP3   OH224525   6.165   1.899   4.333  0.0511 -0.2596  0.3772
 1037TIP3    H124526   6.249   1.940   4.356 -0.6506  1.2409  0.3705
 1037TIP3    H224527   6.175   1.875   4.241 -0.3381  2.1700 -0.3637
 1038TIP3   OH224528   6.543   1.088   0.830  0.0969  0.3148 -0.2596
 1038TIP3    H124529   6.506   1.036   0.902 -1.2801  1.1256 -0.3365
 1038TIP3    H224530   6.570   1.169   0.872  1.6970 -0.2062 -0.2409
 1039TIP3   OH224531   0.333   6.734  14.758 -0.0344  0.7270  0.0000
 1039TIP3    H124532   0.260   6.675  14.739 -1.6492  2.1935  1.3792
 1039TIP3    H224533   0.407   6.697  14.708 -2.3461  0.8219 -3.9549
 1040TIP3   OH224534   0.718   6.645   5.879 -0.1434 -0.9132  0.3511
 1040TIP3    H124535   0.766   6.719   5.915  0.1980 -1.4578  1.0236
 1040TIP3    H224536   0.766   6.567   5.908 -0.2267 -1.3945 -0.7268
 1041TIP3   OH224537   5.546   6.298  17.354  0.1882 -0.6771 -0.4192
 1041TIP3    H124538   5.586   6.381  17.330 -0.8554 -0.2522 -0.7451
 1041TIP3    H224539   5.453   6.309  17.332 -0.4661 -0.9933  1.9821
 1042TIP3   OH224540   2.652   5.370  14.045  0.0644  0.1251 -0.1300
 1042TIP3    H124541   2.739   5.344  14.075  1.2377  2.5862 -1.0904
 1042TIP3    H224542   2.591   5.320  14.100  2.0102 -2.8137 -0.4570
 1043TIP3   OH224543   6.639   0.611   3.997 -0.7626  0.2592 -0.1300
 1043TIP3    H124544   6.684   0.564   3.927 -3.2417  0.2036 -1.8087
 1043TIP3    H224545   6.625   0.544   4.065  0.3935 -0.0435 -0.1595
 1044TIP3   OH224546   4.057   1.255  16.350 -0.2117 -0.4702  0.0552
 1044TIP3    H124547   4.103   1.314  16.291  0.2462  0.4968  1.3305
 1044TIP3    H224548   4.023   1.186  16.293 -1.6187  1.5084 -1.6794
 1045TIP3   OH224549   0.794   6.679  12.377  0.8992  0.6326 -0.6662
 1045TIP3    H124550   0.712   6.662  12.331  0.2804 -1.4985  1.0676
 1045TIP3    H224551   0.859   6.687  12.307 -0.3553 -0.1664 -1.9887
 1046TIP3   OH224552   2.412   6.024  13.520 -0.1960 -0.1905  0.3998
 1046TIP3    H124553   2.501   5.992  13.534 -0.9923 -2.3661  0.9640
 1046TIP3    H224554   2.381   5.976  13.443 -1.3902 -0.7233  1.1663
 1047TIP3   OH224555   3.053   4.849   3.140 -0.4454 -0.5255 -0.2494
 1047TIP3    H124556   2.962   4.849   3.170 -0.3736 -3.6306  0.2234
 1047TIP3    H224557   3.089   4.930   3.177 -2.8858  0.6819 -0.2360
 1048TIP3   OH224558   5.213   0.372   2.314 -0.0723  0.3988 -0.0872
 1048TIP3    H124559   5.279   0.434   2.283 -1.4668  1.3029 -1.3761
 1048TIP3    H224560   5.257   0.323   2.383  2.5474 -0.2676 -2.0617
 1049TIP3   OH224561   1.519   6.019   3.047  0.3741  0.1141  0.3003
 1049TIP3    H124562   1.566   6.102   3.052  0.4405  0.1700 -0.9909
 1049TIP3    H224563   1.541   5.984   2.961 -0.4870 -0.7438  0.4125
 1050TIP3   OH224564   0.441   4.014  13.239 -0.4651  0.6494 -0.1381
 1050TIP3    H124565   0.485   3.991  13.321  1.1354  1.6188 -0.6833
 1050TIP3    H224566   0.443   4.109  13.237 -0.2752  0.6331 -1.4115
 1051TIP3   OH224567   0.990   1.379   5.259 -0.2911  0.3389  0.0174
 1051TIP3    H124568   0.965   1.448   5.198  3.2449 -1.1970 -3.6152
 1051TIP3    H224569   0.933   1.305   5.236 -1.6784  0.8910  1.4921
 1052TIP3   OH224570   3.503   1.317  12.459  0.0111 -0.3300  0.2030
 1052TIP3    H124571   3.589   1.304  12.420  0.1021  0.7199  0.0341
 1052TIP3    H224572   3.462   1.230  12.455  0.9938 -0.7997  0.1491
 1053TIP3   OH224573   1.567   1.538   2.660  0.1516  0.5202  0.5780
 1053TIP3    H124574   1.612   1.612   2.621  1.8743  0.1223  1.6962
 1053TIP3    H224575   1.517   1.499   2.588  0.4714  1.8202 -0.3726
 1054TIP3   OH224576   0.429   6.526  12.636  0.1333  0.0783  0.5961
 1054TIP3    H124577   0.467   6.454  12.586  0.8936  0.3429  0.7898
 1054TIP3    H224578   0.499   6.590  12.644 -0.2038  0.3606  1.3755
 1055TIP3   OH224579   2.376   2.393   1.479 -0.3804  0.0131  0.2550
 1055TIP3    H124580   2.336   2.357   1.399  0.5822  2.2280 -1.3308
 1055TIP3    H224581   2.417   2.317   1.521 -0.7978 -1.2140 -1.4328
 1056TIP3   OH224582   1.057   3.127   6.307 -0.2310  0.0490  0.5417
 1056TIP3    H124583   1.143   3.115   6.266  0.6042  0.2453  2.1532
 1056TIP3    H224584   1.051   3.220   6.325 -2.0327  0.5364 -2.0557
 1057TIP3   OH224585   5.220   5.467  11.689 -0.0468 -0.1209 -0.2726
 1057TIP3    H124586   5.222   5.396  11.752  1.3127  3.1149  3.8319
 1057TIP3    H224587   5.128   5.488  11.677 -0.3374 -1.0312  0.3469
 1058TIP3   OH224588   6.476   3.356  16.735 -0.3697  0.5548  0.2300
 1058TIP3    H124589   6.532   3.425  16.699  1.7381 -1.1618  0.0094
 1058TIP3    H224590   6.502   3.349  16.827 -0.1208 -0.3227  0.1033
 1059TIP3   OH224591   1.829   2.814   0.557  0.1128 -0.1419  0.2505
 1059TIP3    H124592   1.772   2.850   0.490  2.1450 -2.2408 -2.9346
 1059TIP3    H224593   1.892   2.883   0.575 -0.2915  0.3669 -0.2543
 1060TIP3   OH224594   1.689   4.361   2.306 -0.0145  0.1287  0.4923
 1060TIP3    H124595   1.660   4.443   2.265 -0.4363  0.5460  1.5811
 1060TIP3    H224596   1.609   4.312   2.321 -0.1379  0.8805  2.6629
 1061TIP3   OH224597   5.444   4.579  12.328  0.0928  0.7694 -0.3399
 1061TIP3    H124598   5.538   4.560  12.336  0.2069  2.0639  2.6474
 1061TIP3    H224599   5.441   4.661  12.280  0.6441  1.5145  0.8490
 1062TIP3   OH224600   2.367   5.245  13.928  0.2736 -0.0223  0.5518
 1062TIP3    H124601   2.438   5.240  13.863  0.2416 -0.0509  0.5191
 1062TIP3    H224602   2.406   5.292  14.002  0.0024  0.8952  0.1166
 1063TIP3   OH224603   2.742   5.687   3.592  0.0393 -0.4337  0.0319
 1063TIP3    H124604   2.726   5.752   3.523  1.0530  0.1487  0.3112
 1063TIP3    H224605   2.769   5.608   3.545  0.6210 -0.0743 -0.2578
 1064TIP3   OH224606   0.856   0.771  12.208 -0.3792 -0.4758 -0.0435
 1064TIP3    H124607   0.849   0.866  12.217  0.7757 -0.5237  2.2785
 1064TIP3    H224608   0.825   0.736  12.292  2.4175 -1.8938  0.5340
 1065TIP3   OH224609   5.217   1.603   2.256  0.0181  0.4078 -0.1223
 1065TIP3    H124610   5.126   1.597   2.228 -0.8613 -1.5640  2.6805
 1065TIP3    H224611   5.258   1.522   2.225  1.7150  2.3809 -3.6447
 1066TIP3   OH224612   2.254   4.125  15.616  0.2521 -0.2795 -0.0522
 1066TIP3    H124613   2.319   4.173  15.564  0.3026 -1.0531 -0.7179
 1066TIP3    H224614   2.215   4.063  15.554 -2.1917  1.1581 -0.0582
 1067TIP3   OH224615   4.618   2.775  15.551  0.0508 -0.2665 -0.2727
 1067TIP3    H124616   4.565   2.852  15.570  0.9591  0.9785 -2.4493
 1067TIP3    H224617   4.555   2.704  15.543 -0.7613  0.0488  2.3217
 1068TIP3   OH224618   4.851   5.109   2.852 -1.0890  0.1639  0.1185
 1068TIP3    H124619   4.759   5.108   2.826 -0.9334 -4.0706 -1.1450
 1068TIP3    H224620   4.894   5.052   2.787  1.9048 -0.1090  2.1499
 1069TIP3   OH224621   0.720   3.591   6.815  0.2541 -0.1594  0.5748
 1069TIP3    H124622   0.646   3.628   6.863  0.2873 -0.2109  0.6662
 1069TIP3    H224623   0.793   3.649   6.834  0.3403 -0.3486  0.8324
 1070TIP3   OH224624   6.413   1.146  13.686 -0.0158  0.3921 -0.2393
 1070TIP3    H124625   6.427   1.068  13.740 -0.0288 -0.5509 -1.5279
 1070TIP3    H224626   6.389   1.111  13.600 -0.6831  1.8437 -0.6782
 1071TIP3   OH224627   3.719   2.512   5.212 -0.7354  0.2430 -0.0345
 1071TIP3    H124628   3.747   2.594   5.171 -1.7762  1.2088  1.0865
 1071TIP3    H224629   3.652   2.478   5.153  0.0243 -0.0640 -0.7421
 1072TIP3   OH224630   3.281   4.278   3.197  0.1388 -0.0285  0.5429
 1072TIP3    H124631   3.364   4.305   3.157 -0.8233  1.3857 -0.6269
 1072TIP3    H224632   3.226   4.356   3.192 -1.3084 -0.9706  1.1635
 1073TIP3   OH224633   6.380   2.340   6.533  0.4435  0.4015 -0.1687
 1073TIP3    H124634   6.384   2.376   6.621  3.4090  0.7419 -0.3611
 1073TIP3    H224635   6.384   2.416   6.475 -1.0931  0.1572 -0.6696
 1074TIP3   OH224636   4.397   4.016   5.961  0.1620 -0.8651  0.6546
 1074TIP3    H124637   4.413   4.064   6.042  1.4876  1.6467 -0.9671
 1074TIP3    H224638   4.484   3.994   5.929 -0.3272 -1.4841 -0.2711
 1075TIP3   OH224639   3.738   3.340  13.112  0.5696 -0.1664 -0.1796
 1075TIP3    H124640   3.823   3.359  13.071  0.3569  0.3682 -0.3701
 1075TIP3    H224641   3.712   3.422  13.152 -0.4303 -0.0067 -1.1340
 1076TIP3   OH224642   5.816   3.027   0.600 -0.5251  0.4837 -0.3434
 1076TIP3    H124643   5.856   3.080   0.531 -0.0332 -0.4812 -0.8213
 1076TIP3    H224644   5.742   3.079   0.630 -1.7781  0.2309 -2.7558
 1077TIP3   OH224645   0.162   4.105  11.645 -0.3759  0.0418  0.0997
 1077TIP3    H124646   0.079   4.114  11.691 -0.2805  3.1511 -0.1473
 1077TIP3    H224647   0.229   4.115  11.712 -0.2324  1.2118 -0.2038
 1078TIP3   OH224648   3.550   5.730   1.270 -0.6819 -0.1526  0.2512
 1078TIP3    H124649   3.626   5.787   1.259 -1.1063  0.2873 -0.4389
 1078TIP3    H224650   3.479   5.774   1.224 -1.5113 -0.2799  1.3545
 1079TIP3   OH224651   4.913   5.693  12.171  0.5330  0.2014  0.8318
 1079TIP3    H124652   4.917   5.777  12.216  2.5009 -0.1247  1.3814
 1079TIP3    H224653   4.986   5.643  12.208  3.0945  0.2958 -3.3726
 1080TIP3   OH224654   3.773   0.938  17.207 -0.2962  0.2351  0.6580
 1080TIP3    H124655   3.817   1.010  17.253 -1.2047  1.2614 -0.0175
 1080TIP3    H224656   3.732   0.887  17.278 -1.0608  1.3693  1.0586
 1081TIP3   OH224657   0.141   0.751  16.720 -0.3935 -0.0919 -0.7050
 1081TIP3    H124658   0.231   0.722  16.704 -0.0478 -0.0919  1.0106
 1081TIP3    H224659   0.137   0.838  16.681  0.6853  0.3236  0.0535
 1082TIP3   OH224660   4.644   4.613   2.172  0.2569  0.7729  0.3220
 1082TIP3    H124661   4.722   4.560   2.157  0.9187  1.8536 -0.1822
 1082TIP3    H224662   4.674   4.685   2.228 -1.1350 -0.6063  3.0637
 1083TIP3   OH224663   3.896   5.263  12.029  0.2949 -0.2692 -0.2197
 1083TIP3    H124664   3.838   5.199  12.069 -0.1311  0.4294  0.2912
 1083TIP3    H224665   3.870   5.266  11.937 -0.7408  0.3239  0.0866
 1084TIP3   OH224666   6.192   2.080   3.508 -0.0533  0.3037  0.0212
 1084TIP3    H124667   6.253   2.128   3.451 -0.0120 -0.8227 -0.9284
 1084TIP3    H224668   6.131   2.147   3.539  0.0698  1.0026 -1.1716
 1085TIP3   OH224669   0.509   4.752   6.103 -0.3465 -0.7003  0.0259
 1085TIP3    H124670   0.454   4.677   6.125  1.7528 -2.1719  0.5068
 1085TIP3    H224671   0.598   4.724   6.122  0.5561  1.8719  0.0388
 1086TIP3   OH224672   1.525   2.407  14.682 -0.3682  0.2185 -0.3542
 1086TIP3    H124673   1.433   2.424  14.662 -0.2406  0.2980 -0.8864
 1086TIP3    H224674   1.531   2.311  14.683 -0.5160  0.2111 -0.0319
 1087TIP3   OH224675   1.620   2.013  11.713  0.5941 -0.0739 -0.2674
 1087TIP3    H124676   1.607   2.069  11.637 -1.5013 -2.4542 -1.7755
 1087TIP3    H224677   1.664   1.935  11.680  3.0674  0.3340  1.7094
 1088TIP3   OH224678   1.399   1.389   5.423  0.4308 -0.3154 -0.3674
 1088TIP3    H124679   1.327   1.437   5.465 -0.0647 -0.5324 -0.9595
 1088TIP3    H224680   1.359   1.349   5.346  1.0364 -0.9921 -0.3346
 1089TIP3   OH224681   6.180   4.565   1.018 -0.0442  0.0311  0.5415
 1089TIP3    H124682   6.115   4.634   1.035 -1.5851 -1.0881 -0.4802
 1089TIP3    H224683   6.156   4.530   0.932  1.0058 -1.4298  0.8042
 1090TIP3   OH224684   3.162   1.517   4.613  0.5429 -0.2299  0.1961
 1090TIP3    H124685   3.116   1.498   4.694 -0.2906 -0.0984 -0.2373
 1090TIP3    H224686   3.237   1.456   4.613  0.4928 -0.2982  1.0035
 1091TIP3   OH224687   0.905   1.115   5.317 -0.1719  0.6930 -0.3663
 1091TIP3    H124688   0.938   1.036   5.360  1.4739 -0.0007 -2.6837
 1091TIP3    H224689   0.825   1.087   5.274 -0.9575  0.9816  0.8622
 1092TIP3   OH224690   6.350   3.908   4.789  0.2000 -0.3164 -0.0649
 1092TIP3    H124691   6.268   3.954   4.806  1.6558  2.3248  0.2894
 1092TIP3    H224692   6.346   3.885   4.697 -1.1545 -0.7558  0.0758
 1093TIP3   OH224693   0.184   2.887  13.964  0.0695 -0.0173 -0.0401
 1093TIP3    H124694   0.231   2.823  13.910 -0.3911 -1.9459  1.6873
 1093TIP3    H224695   0.130   2.936  13.902  2.1418  0.2928 -1.7040
 1094TIP3   OH224696   5.086   6.186   2.871  0.2465 -0.3927  0.0917
 1094TIP3    H124697   5.177   6.156   2.876  0.4348  0.3257  2.3314
 1094TIP3    H224698   5.088   6.258   2.808  1.3107 -0.1703  0.3593
 1095TIP3   OH224699   6.344   2.834   0.546 -0.7125 -0.0247 -0.0773
 1095TIP3    H124700   6.410   2.869   0.487 -1.1680  0.9272 -0.0323
 1095TIP3    H224701   6.386   2.834   0.632  1.0044 -4.0450 -0.6699
 1096TIP3   OH224702   4.717   5.104  13.684 -0.3636  0.2358 -0.4321
 1096TIP3    H124703   4.713   5.186  13.634  1.1837 -1.3339 -3.4436
 1096TIP3    H224704   4.651   5.048  13.644  0.1344 -0.7146  0.0299
 1097TIP3   OH224705   3.790   1.532   0.640 -0.0576  0.5434 -0.0717
 1097TIP3    H124706   3.879   1.498   0.633 -0.6208 -0.6907 -1.5722
 1097TIP3    H224707   3.780   1.590   0.565 -0.6659  0.3331 -0.1586
 1098TIP3   OH224708   1.607   6.675   0.590 -0.7276  0.1760  0.1163
 1098TIP3    H124709   1.665   6.610   0.630  0.6816  0.7657 -0.8592
 1098TIP3    H224710   1.579   6.635   0.507  0.0445  0.7318 -0.4279
 1099TIP3   OH224711   4.740   1.451   1.610 -0.4740 -0.7083  0.5413
 1099TIP3    H124712   4.700   1.465   1.695  1.3822 -0.4082  1.4133
 1099TIP3    H224713   4.815   1.394   1.628  1.2366  1.0920 -0.5007
 1100TIP3   OH224714   1.577   5.048   5.320  0.3715  0.5055 -0.3005
 1100TIP3    H124715   1.562   5.143   5.316 -0.6821  0.3629 -0.0104
 1100TIP3    H224716   1.653   5.034   5.263  0.6057  1.5310 -0.2712
 1101TIP3   OH224717   3.457   3.367  13.537  0.1080 -0.3612  0.8323
 1101TIP3    H124718   3.425   3.315  13.463 -1.5253  0.1082  1.1650
 1101TIP3    H224719   3.549   3.383  13.517 -0.4196  0.2345 -1.4156
 1102TIP3   OH224720   3.487   4.707  14.657 -0.3411  0.3195 -0.4433
 1102TIP3    H124721   3.481   4.612  14.646  1.9668  0.1874 -1.1374
 1102TIP3    H224722   3.524   4.738  14.574  0.8915  1.5436  0.5094
 1103TIP3   OH224723   1.167   3.732  17.393 -0.1492 -0.6433 -0.0932
 1103TIP3    H124724   1.090   3.789  17.392 -0.6520 -1.3105 -1.7703
 1103TIP3    H224725   1.139   3.654  17.440 -0.6748 -1.0908 -1.1247
 1104TIP3   OH224726   5.095   3.583   2.704 -0.2629 -0.1556 -0.9658
 1104TIP3    H124727   5.178   3.616   2.670 -0.0084  0.1433 -0.0794
 1104TIP3    H224728   5.036   3.659   2.701  0.6190  0.8156  2.0851
 1105TIP3   OH224729   6.019   1.498   5.903  0.4941  0.0637  0.1818
 1105TIP3    H124730   5.954   1.543   5.849  0.6397 -1.5388 -1.4194
 1105TIP3    H224731   6.084   1.566   5.923  0.3362  0.7808 -1.5383
 1106TIP3   OH224732   1.922   1.741  17.141  0.2894  0.0803  0.1070
 1106TIP3    H124733   1.936   1.831  17.111  1.6834 -0.4833 -1.0508
 1106TIP3    H224734   1.997   1.693  17.107 -0.1919 -1.4377  1.1180
 1107TIP3   OH224735   6.608   3.140   5.954  0.2796 -1.5339 -0.0435
 1107TIP3    H124736   6.683   3.194   5.978 -0.6741  0.8020 -1.8888
 1107TIP3    H224737   6.538   3.169   6.013 -0.1898 -0.8212 -0.9250
 1108TIP3   OH224738   1.970   2.311   2.324 -0.1696 -0.1017 -0.4661
 1108TIP3    H124739   1.994   2.347   2.409  0.5505 -2.8830  0.6046
 1108TIP3    H224740   2.044   2.256   2.299 -1.6132 -1.6671 -1.4781
 1109TIP3   OH224741   6.703   3.977  16.973  0.2136  0.1378  0.9310
 1109TIP3    H124742   6.773   3.970  16.908  0.9069  0.2258  1.6676
 1109TIP3    H224743   6.646   4.046  16.939  0.0163 -0.5013 -0.0918
 1110TIP3   OH224744   6.294   1.119  13.438  0.4517  0.8357  0.1258
 1110TIP3    H124745   6.205   1.155  13.436  0.0845  0.0374  1.2036
 1110TIP3    H224746   6.319   1.114  13.346 -0.0993  2.3024 -0.1333
 1111TIP3   OH224747   3.608   2.312  17.327  0.4366  0.4517 -0.8367
 1111TIP3    H124748   3.702   2.303  17.314  0.5861 -0.6588  0.6919
 1111TIP3    H224749   3.575   2.222  17.324 -0.4094  0.7286 -0.2556
 1112TIP3   OH224750   2.127   3.765  12.670  0.4220  0.5188 -0.2441
 1112TIP3    H124751   2.057   3.816  12.631  0.5327  1.8347  1.1903
 1112TIP3    H224752   2.109   3.675  12.643 -0.8803  1.0455 -1.2240
 1113TIP3   OH224753   0.516   6.173   5.158 -0.4912  0.2688  0.1816
 1113TIP3    H124754   0.460   6.160   5.082  0.5976 -1.5074 -0.3998
 1113TIP3    H224755   0.579   6.100   5.154  1.7361  2.0163  0.8756
 1114TIP3   OH224756   1.460   5.110  16.346 -0.4728  0.3020 -0.2227
 1114TIP3    H124757   1.511   5.176  16.301  2.0882 -0.7306  0.9767
 1114TIP3    H224758   1.371   5.122  16.313 -0.1055  4.0796 -0.3119
 1115TIP3   OH224759   5.342   1.909   3.212 -0.3953  0.5748 -0.1527
 1115TIP3    H124760   5.340   1.985   3.269  1.5089 -0.3305  1.2210
 1115TIP3    H224761   5.421   1.861   3.238  0.7915  0.2487 -3.7342
 1116TIP3   OH224762   6.736   0.870  14.984  0.2132 -0.0443 -0.0222
 1116TIP3    H124763   6.703   0.780  14.982  2.5641 -1.0754  1.9670
 1116TIP3    H224764   6.736   0.893  15.077  0.4321  1.7319 -0.4311
 1117TIP3   OH224765   0.416   3.767   0.277  0.1148  0.1947 -0.2902
 1117TIP3    H124766   0.416   3.672   0.265 -1.4555  0.0433  0.7055
 1117TIP3    H224767   0.409   3.802   0.188 -1.5226 -0.6872 -0.5444
 1118TIP3   OH224768   3.063   2.457  13.768 -0.2088  0.5932 -0.3757
 1118TIP3    H124769   3.012   2.397  13.714  0.6706  0.2440 -0.8432
 1118TIP3    H224770   3.058   2.419  13.856  0.2645 -0.1422 -0.6497
 1119TIP3   OH224771   0.130   3.192   1.237  0.3039 -0.0583  0.5455
 1119TIP3    H124772   0.209   3.186   1.290  0.3128  0.3549  0.5828
 1119TIP3    H224773   0.127   3.110   1.189  0.7824 -0.0523  0.5024
 1120TIP3   OH224774   3.031   0.600  14.886  0.1392  0.5025  0.0374
 1120TIP3    H124775   3.113   0.615  14.838 -0.9853  0.9386 -1.8689
 1120TIP3    H224776   3.016   0.506  14.878  1.0198  0.2150  1.4304
 1121TIP3   OH224777   2.055   4.492  15.057  0.2972  0.2657  0.3866
 1121TIP3    H124778   2.062   4.479  14.963  1.9121  1.1281  0.3502
 1121TIP3    H224779   1.969   4.531  15.070  0.2979  0.7004 -0.8064
 1122TIP3   OH224780   1.718   2.768   1.147  0.1029 -0.6871  0.2542
 1122TIP3    H124781   1.668   2.835   1.100 -0.8671 -0.1375  1.9848
 1122TIP3    H224782   1.727   2.696   1.084  1.7893  1.2695 -1.9118
 1123TIP3   OH224783   1.136   3.935   0.970  0.0189  0.0789 -0.1073
 1123TIP3    H124784   1.177   3.998   0.911  0.4173  0.4167  0.5207
 1123TIP3    H224785   1.103   3.989   1.042  1.8509 -0.5717  1.2896
 1124TIP3   OH224786   0.661   3.562   5.457  0.0581  0.7943 -0.1713
 1124TIP3    H124787   0.708   3.634   5.414 -1.6870  2.2048  0.1510
 1124TIP3    H224788   0.610   3.522   5.387  2.1714 -1.2313 -0.6836
 1125TIP3   OH224789   3.468   4.801  13.883 -0.0023  0.3977  0.0024
 1125TIP3    H124790   3.498   4.729  13.938  0.5855 -0.6908 -1.6901
 1125TIP3    H224791   3.507   4.879  13.923 -0.6262 -0.1897  1.8433
 1126TIP3   OH224792   4.806   3.457   3.217 -0.2883 -0.4100 -0.2281
 1126TIP3    H124793   4.880   3.435   3.274 -0.1377 -2.1941 -1.0315
 1126TIP3    H224794   4.844   3.508   3.146  0.5577 -2.5583 -1.4421
 1127TIP3   OH224795   1.749   0.647  15.270 -0.2443  0.3031  0.3411
 1127TIP3    H124796   1.700   0.724  15.298 -1.5831 -0.6955  0.8544
 1127TIP3    H224797   1.682   0.581  15.251  0.7483 -0.1099 -2.1559
 1128TIP3   OH224798   2.125   1.785   1.322  0.1325 -0.0507 -0.0648
 1128TIP3    H124799   2.089   1.851   1.262  1.0044  1.6973  1.2258
 1128TIP3    H224800   2.082   1.803   1.405 -1.6127 -2.9235 -0.2430
 1129TIP3   OH224801   6.343   0.721  12.814 -0.0870  0.0044 -0.3817
 1129TIP3    H124802   6.405   0.668  12.865 -0.9072 -1.0693 -0.4585
 1129TIP3    H224803   6.343   0.681  12.727 -1.0423 -0.1544 -0.3178
 1130TIP3   OH224804   5.071   1.593   1.312  0.3473 -0.3773  0.8554
 1130TIP3    H124805   5.035   1.680   1.330 -0.0953 -0.0026 -1.5313
 1130TIP3    H224806   5.152   1.610   1.264  0.0924 -1.2640  0.0794
 1131TIP3   OH224807   5.892   2.382  11.867 -0.6361  0.1384  0.1115
 1131TIP3    H124808   5.825   2.371  11.799 -0.9470  0.3423  0.3823
 1131TIP3    H224809   5.863   2.325  11.938  0.9505 -1.9950 -0.8341
 1132TIP3   OH224810   2.511   3.380   1.472  0.6741  0.2916 -0.0224
 1132TIP3    H124811   2.443   3.429   1.425 -1.4682 -2.0771  0.3912
 1132TIP3    H224812   2.522   3.299   1.422  2.7816  0.3011  0.2999
 1133TIP3   OH224813   1.734   3.965   5.208  0.1296 -0.1538 -0.3531
 1133TIP3    H124814   1.714   4.042   5.154  0.7912  0.6853  0.5600
 1133TIP3    H224815   1.776   4.001   5.286 -0.3248 -1.3816  0.4895
 1134TIP3   OH224816   3.023   5.481  17.047  0.3368 -0.4529  0.0208
 1134TIP3    H124817   3.028   5.522  16.961 -1.8371  0.0554  0.0672
 1134TIP3    H224818   2.957   5.412  17.037  0.3725 -0.6754  1.1597
 1135TIP3   OH224819   3.152   1.325   6.119  0.3631  0.2121  0.4999
 1135TIP3    H124820   3.206   1.397   6.089 -0.6831  1.4127  1.3634
 1135TIP3    H224821   3.079   1.367   6.164 -0.4732 -1.3840  0.7195
 1136TIP3   OH224822   4.385   0.043  11.674 -0.5755 -0.2521 -0.0810
 1136TIP3    H124823   4.471   0.017  11.704 -0.5022 -2.1604 -1.7234
 1136TIP3    H224824   4.350   0.098  11.744  1.1635 -1.0630  1.4948
 1137TIP3   OH224825   5.339   5.139  16.118  0.1535  0.1158 -0.4067
 1137TIP3    H124826   5.430   5.115  16.134  0.1209  0.2541 -0.0168
 1137TIP3    H224827   5.309   5.178  16.200 -1.1967 -2.7015  0.5388
 1138TIP3   OH224828   6.442   6.035  10.699 -0.2891 -0.1959 -0.3935
 1138TIP3    H124829   6.480   6.000  10.619  1.4312 -1.8883  1.1006
 1138TIP3    H224830   6.353   6.000  10.701  0.0323 -1.0671 -1.0122
 1139TIP3   OH224831   4.885   1.687  16.474 -0.2315 -0.1489  0.2917
 1139TIP3    H124832   4.869   1.695  16.380 -1.0509 -0.6420  0.3855
 1139TIP3    H224833   4.858   1.772  16.510 -1.2155 -0.4412  0.2526
 1140TIP3   OH224834   1.140   3.180   1.573 -0.2018  0.1425 -0.1432
 1140TIP3    H124835   1.233   3.193   1.556 -0.2826 -0.7226 -1.4759
 1140TIP3    H224836   1.132   3.086   1.591 -0.8287  0.1781 -0.2039
 1141TIP3   OH224837   0.256   1.163  13.371 -0.1410  0.4783  0.9908
 1141TIP3    H124838   0.275   1.217  13.448 -1.6630  1.0943  0.9748
 1141TIP3    H224839   0.208   1.221  13.312 -1.4215 -0.7538  0.7723
 1142TIP3   OH224840   1.459   1.877   1.603  0.4305 -0.1552 -0.3016
 1142TIP3    H124841   1.441   1.955   1.552  0.6794  1.1732  1.5314
 1142TIP3    H224842   1.405   1.809   1.564 -0.7744  1.2502 -1.1546
 1143TIP3   OH224843   5.107   0.739  13.372 -0.4550  0.1537 -0.1685
 1143TIP3    H124844   5.049   0.704  13.304 -1.0316  0.7771 -0.0147
 1143TIP3    H224845   5.177   0.783  13.323 -1.8926  2.3196 -0.4542
 1144TIP3   OH224846   2.853   6.710   0.680 -0.1437  0.0273  0.6049
 1144TIP3    H124847   2.817   6.670   0.759  0.4503  0.8593  1.3154
 1144TIP3    H224848   2.943   6.676   0.674 -0.4616 -0.7173 -0.2169
 1145TIP3   OH224849   1.220   2.870  13.164 -0.1044  0.6015 -0.0123
 1145TIP3    H124850   1.274   2.926  13.220 -1.1093  0.2098  1.4005
 1145TIP3    H224851   1.240   2.781  13.192 -1.2624  0.4391  0.3528
 1146TIP3   OH224852   6.328   1.159   3.866  0.0017  0.1760 -0.2935
 1146TIP3    H124853   6.420   1.161   3.838 -0.4211  0.8434 -1.7112
 1146TIP3    H224854   6.294   1.245   3.842 -1.1055 -0.2100 -0.1505
 1147TIP3   OH224855   6.475   0.106   5.206  0.2223 -0.4659 -0.4016
 1147TIP3    H124856   6.440   0.083   5.292 -1.0849 -0.2038 -0.8384
 1147TIP3    H224857   6.510   0.024   5.171 -2.1221 -1.3221 -0.9031
 1148TIP3   OH224858   3.172   5.448  15.543 -0.3733  0.4235  0.3281
 1148TIP3    H124859   3.118   5.450  15.622  1.3556 -0.9523  1.6466
 1148TIP3    H224860   3.258   5.479  15.572  0.3396 -0.2454 -0.9733
 1149TIP3   OH224861   1.433   0.143   0.719  0.1571  0.0060 -0.3053
 1149TIP3    H124862   1.459   0.201   0.647 -2.1131 -0.8254 -1.9062
 1149TIP3    H224863   1.480   0.061   0.701  1.4266  0.5099  0.5568
 1150TIP3   OH224864   0.041   2.141   0.226  0.1785 -0.0788 -0.2913
 1150TIP3    H124865   0.017   2.227   0.262  0.5784 -0.8391  1.9733
 1150TIP3    H224866   0.136   2.143   0.221  0.1775 -0.3280 -0.3961
 1151TIP3   OH224867   1.948   3.436  17.403  0.0943 -0.8306 -0.1797
 1151TIP3    H124868   1.905   3.514  17.367 -0.6744 -0.1671  2.0602
 1151TIP3    H224869   2.030   3.429  17.353  0.4602  1.7647 -0.0622
 1152TIP3   OH224870   1.494   0.170  16.395  0.3393  0.4828 -0.7437
 1152TIP3    H124871   1.543   0.161  16.477 -1.0107  0.4366  0.0845
 1152TIP3    H224872   1.405   0.194  16.422 -0.7736 -1.8048 -2.0344
 1153TIP3   OH224873   3.129   1.308   2.972  0.0108 -0.1296 -0.7073
 1153TIP3    H124874   3.135   1.283   3.064 -1.5054 -1.3159 -0.8993
 1153TIP3    H224875   3.134   1.404   2.972  3.0253 -0.1753  0.3058
 1154TIP3   OH224876   2.857   5.527   2.946  0.1059 -0.2185 -0.7640
 1154TIP3    H124877   2.790   5.488   2.889 -0.1064  0.0015 -0.6630
 1154TIP3    H224878   2.877   5.611   2.906 -0.9009  0.4660  0.1344
 1155TIP3   OH224879   3.748   6.538   6.132 -0.3598  0.5471 -0.0556
 1155TIP3    H124880   3.757   6.602   6.202 -1.8909 -1.5020  2.2074
 1155TIP3    H224881   3.813   6.471   6.152 -1.7544 -0.7624  0.3293
 1156TIP3   OH224882   2.682   4.061  16.879 -0.4086 -0.1942  0.2440
 1156TIP3    H124883   2.702   4.012  16.800  1.1001  0.8320 -0.0468
 1156TIP3    H224884   2.656   4.147  16.848  2.8064  1.1364  0.8168
 1157TIP3   OH224885   5.704   0.183  10.840 -0.1671  0.2842 -0.0093
 1157TIP3    H124886   5.695   0.143  10.753  0.6067 -1.1113  0.5205
 1157TIP3    H224887   5.625   0.156  10.887  0.3216 -0.5803  0.3257
 1158TIP3   OH224888   4.144   0.163  17.046 -0.6631  0.5211 -0.0258
 1158TIP3    H124889   4.070   0.192  16.994 -0.6929 -0.2119 -0.3991
 1158TIP3    H224890   4.221   0.186  16.993 -0.5960  1.5763  0.5065
 1159TIP3   OH224891   0.754   5.294   4.208 -0.1967  0.2986 -0.1941
 1159TIP3    H124892   0.709   5.259   4.285  1.0778 -0.8774  0.0476
 1159TIP3    H224893   0.683   5.316   4.147 -1.1421 -0.6828  0.5038
 1160TIP3   OH224894   1.107   0.506   3.049 -0.1320 -0.1575  0.0162
 1160TIP3    H124895   1.183   0.466   3.090  0.0910 -1.2505 -1.3862
 1160TIP3    H224896   1.083   0.578   3.108  2.2465  0.5094  0.2885
 1161TIP3   OH224897   2.611   4.005   4.365  0.3690  0.4821  0.1953
 1161TIP3    H124898   2.565   4.087   4.349  1.7771  1.3417  0.3648
 1161TIP3    H224899   2.589   3.950   4.289 -1.5124  0.5488  0.6444
 1162TIP3   OH224900   3.035   3.755   4.837 -0.0864 -0.4882  0.3452
 1162TIP3    H124901   3.120   3.730   4.873 -0.0114  0.0029  0.5126
 1162TIP3    H224902   3.047   3.845   4.806 -0.6674 -0.2447  0.8022
 1163TIP3   OH224903   6.648   2.054  16.227  0.4297 -0.5936  0.3449
 1163TIP3    H124904   6.646   2.088  16.137  1.0804 -2.6812 -0.5414
 1163TIP3    H224905   6.556   2.047  16.252  0.1628 -1.4232 -0.7870
 1164TIP3   OH224906   5.058   3.487   4.093  0.1998  0.1245 -0.2010
 1164TIP3    H124907   5.059   3.583   4.093  0.0268  0.1344  0.8160
 1164TIP3    H224908   5.001   3.464   4.019 -0.9500  0.8334  0.4356
 1165TIP3   OH224909   2.291   0.417   4.352  0.5266 -0.2622 -0.6747
 1165TIP3    H124910   2.349   0.480   4.396 -0.4572 -0.9248  1.7330
 1165TIP3    H224911   2.228   0.391   4.419 -1.4235 -1.0006 -2.6704
 1166TIP3   OH224912   6.219   6.512  13.559  0.0308  0.3584  0.4941
 1166TIP3    H124913   6.199   6.563  13.481 -0.7465  0.2700  0.6268
 1166TIP3    H224914   6.312   6.490  13.550 -0.8564 -3.1766 -2.5136
 1167TIP3   OH224915   3.176   4.565   3.186 -0.6761  0.1199 -0.0134
 1167TIP3    H124916   3.143   4.650   3.155 -0.0990 -0.4988 -2.5070
 1167TIP3    H224917   3.133   4.500   3.130 -0.3601 -1.1883  1.1991
 1168TIP3   OH224918   5.896   3.848  11.025 -0.2160  0.1675  0.4336
 1168TIP3    H124919   5.962   3.876  11.088 -1.8534  0.2655  2.2147
 1168TIP3    H224920   5.841   3.926  11.012 -2.3073 -0.9408  2.1374
 1169TIP3   OH224921   5.124   0.603   6.044 -0.5147  0.2474 -0.2202
 1169TIP3    H124922   5.142   0.662   6.117 -2.0279 -1.3613  1.5597
 1169TIP3    H224923   5.032   0.579   6.054 -0.5119 -0.7857 -2.1031
 1170TIP3   OH224924   3.978   4.875  12.066  0.6613 -0.4268 -0.2521
 1170TIP3    H124925   4.038   4.943  12.037  1.2959 -0.0229  1.8237
 1170TIP3    H224926   4.016   4.794  12.033  0.4722  0.1079 -1.8468
 1171TIP3   OH224927   3.273   3.828  15.991  0.9134 -0.4704  0.4294
 1171TIP3    H124928   3.198   3.883  16.015  0.6837 -0.4845 -0.2191
 1171TIP3    H224929   3.326   3.822  16.070  1.2245  1.1304  0.3616
 1172TIP3   OH224930   2.530   1.270   4.892  0.4025  0.3121  0.1144
 1172TIP3    H124931   2.520   1.365   4.883 -2.5514  0.0057 -0.6468
 1172TIP3    H224932   2.519   1.253   4.985 -2.3725  0.4906 -0.1129
 1173TIP3   OH224933   0.780   3.604  15.240 -0.0113 -0.1663 -0.4845
 1173TIP3    H124934   0.781   3.693  15.204 -1.7646 -0.1905 -0.6874
 1173TIP3    H224935   0.688   3.589  15.262  0.8059 -0.3274  3.5830
 1174TIP3   OH224936   2.425   6.273  13.417 -0.4530 -0.7711 -0.3921
 1174TIP3    H124937   2.414   6.186  13.456  0.2092 -1.4619 -1.6985
 1174TIP3    H224938   2.369   6.330  13.470  1.8428 -1.2413  2.8504
 1175TIP3   OH224939   1.373   3.456  10.666 -0.3684  0.1075  0.0495
 1175TIP3    H124940   1.361   3.548  10.688 -2.5628 -0.1016 -0.0459
 1175TIP3    H224941   1.294   3.432  10.618 -0.0242 -1.9117  0.3823
 1176TIP3   OH224942   2.326   0.689  12.192  0.3777 -0.9544  0.4967
 1176TIP3    H124943   2.290   0.670  12.105  4.3004  0.5371 -1.6958
 1176TIP3    H224944   2.352   0.603  12.226  2.5472 -1.3439 -1.7949
 1177TIP3   OH224945   0.503   0.178   6.083 -0.4212  0.9197  0.3460
 1177TIP3    H124946   0.426   0.234   6.095 -0.6750  1.0552 -1.6370
 1177TIP3    H224947   0.548   0.214   6.008 -0.6516 -1.5532 -1.1004
 1178TIP3   OH224948   1.089   3.904   3.115  0.2755 -0.1694  0.4707
 1178TIP3    H124949   1.178   3.869   3.120  0.3157 -0.1583 -0.0871
 1178TIP3    H224950   1.084   3.968   3.186  0.0758 -1.5541  1.7615
 1179TIP3   OH224951   5.188   1.961   2.454 -0.5426  0.1725  0.5540
 1179TIP3    H124952   5.116   1.929   2.401 -2.4176  1.3465  2.2266
 1179TIP3    H224953   5.210   2.046   2.416 -1.3906  0.6822  1.1577
 1180TIP3   OH224954   0.487   5.218  16.213  0.0519 -0.4048  0.2781
 1180TIP3    H124955   0.434   5.200  16.290 -0.2696  0.1882  0.2080
 1180TIP3    H224956   0.532   5.136  16.194 -0.4982 -0.7879  0.6106
 1181TIP3   OH224957   4.375   3.442  16.202  0.1332 -0.2753  0.0798
 1181TIP3    H124958   4.411   3.354  16.213  0.9637  0.1275  0.6248
 1181TIP3    H224959   4.299   3.429  16.145  0.0315 -1.3965  0.4414
 1182TIP3   OH224960   4.570   3.222  14.768  0.2286 -0.1262 -0.1555
 1182TIP3    H124961   4.498   3.160  14.763 -0.1918  0.3657 -0.1898
 1182TIP3    H224962   4.595   3.221  14.861 -1.6247  1.7262  0.4366
 1183TIP3   OH224963   0.894   2.003  15.561  0.1551 -0.7515  0.6456
 1183TIP3    H124964   0.929   1.940  15.625 -0.8144  0.1390  2.1310
 1183TIP3    H224965   0.965   2.066  15.549  0.0330 -0.4039  1.6155
 1184TIP3   OH224966   5.910   6.568   5.777  0.2343 -0.4951 -0.4109
 1184TIP3    H124967   5.912   6.480   5.740  1.2809 -0.6742  0.0482
 1184TIP3    H224968   5.911   6.627   5.701 -3.2251 -0.7965 -0.8871
 1185TIP3   OH224969   5.030   4.387  11.596 -0.6926  0.2063  0.0505
 1185TIP3    H124970   4.941   4.419  11.582 -1.5527 -1.3728  1.5542
 1185TIP3    H224971   5.079   4.464  11.627 -1.2819  1.2882 -1.5858
 1186TIP3   OH224972   0.432   2.318  15.515  0.2389  0.6559  0.1486
 1186TIP3    H124973   0.524   2.294  15.514  0.5364  1.6087  1.5784
 1186TIP3    H224974   0.425   2.389  15.452  0.5565  0.7776  0.2476
 1187TIP3   OH224975   0.459   0.639   3.759  0.0632 -0.0916  0.3040
 1187TIP3    H124976   0.532   0.630   3.820 -1.2517 -2.8689  1.7033
 1187TIP3    H224977   0.381   0.640   3.815 -1.0525  1.1229 -1.1951
 1188TIP3   OH224978   4.450   2.744   4.852 -0.1486  0.1308  0.1879
 1188TIP3    H124979   4.498   2.699   4.782 -2.6683 -0.9040 -0.9789
 1188TIP3    H224980   4.441   2.678   4.921  0.1191  0.3454  0.4331
 1189TIP3   OH224981   4.930   3.732  15.902  0.1328  0.5410 -0.0547
 1189TIP3    H124982   4.876   3.742  15.824  1.3951 -0.8789 -1.2007
 1189TIP3    H224983   4.952   3.821  15.929  1.0639  1.0952 -2.3994
 1190TIP3   OH224984   2.826   3.505   0.295  0.6009  0.1589  0.3221
 1190TIP3    H124985   2.851   3.597   0.308  0.8840  0.1653 -0.2422
 1190TIP3    H224986   2.786   3.479   0.378 -2.7281  1.8281 -0.5572
 1191TIP3   OH224987   4.950   4.374   5.400 -0.0515  0.0954  0.4663
 1191TIP3    H124988   4.981   4.333   5.481 -0.5343 -0.5597  0.3232
 1191TIP3    H224989   4.855   4.378   5.409 -0.5059 -3.0263 -1.4140
 1192TIP3   OH224990   0.757   2.710   0.690  0.1254  0.4686  0.1387
 1192TIP3    H124991   0.677   2.757   0.665  1.1449  1.5305 -1.3114
 1192TIP3    H224992   0.821   2.735   0.623  0.2968 -4.4383 -1.8933
 1193TIP3   OH224993   4.144   2.170   1.737 -0.1760 -0.4013 -0.6254
 1193TIP3    H124994   4.199   2.244   1.714  0.6448 -0.6861  0.3593
 1193TIP3    H224995   4.058   2.208   1.755 -0.0489  0.1634 -1.1775
 1194TIP3   OH224996   5.840   4.885   4.812 -0.2236 -0.2514  0.2622
 1194TIP3    H124997   5.847   4.937   4.732  0.0776 -1.0159 -0.2216
 1194TIP3    H224998   5.911   4.821   4.805  0.1837  0.0436  1.4255
 1195TIP3   OH224999   0.119   5.678   5.270 -0.2886 -0.3265 -0.8001
 1195TIP3    H125000   0.091   5.695   5.360  0.1522 -0.5720 -0.6136
 1195TIP3    H225001   0.112   5.763   5.227 -0.5439 -0.2163 -0.5472
 1196TIP3   OH225002   0.283   2.484  12.891  0.1057 -0.6237  0.5009
 1196TIP3    H125003   0.287   2.543  12.967 -0.5656 -0.1925  0.2125
 1196TIP3    H225004   0.199   2.505  12.849  0.8669 -0.2052 -0.8804
 1197TIP3   OH225005   0.568   0.857  12.872  0.1772  0.0461  0.2610
 1197TIP3    H125006   0.642   0.825  12.820  0.2630  0.4031  0.1621
 1197TIP3    H225007   0.608   0.891  12.952  0.2957  1.7409 -0.4804
 1198TIP3   OH225008   0.601   5.626  13.342 -0.2841 -0.2838 -0.0201
 1198TIP3    H125009   0.608   5.630  13.438 -1.9076  0.3142  0.1171
 1198TIP3    H225010   0.545   5.550  13.325  2.6100 -2.4048 -0.7429
 1199TIP3   OH225011   1.243   5.467   1.615  0.6752  0.0056  0.5578
 1199TIP3    H125012   1.171   5.529   1.627 -0.7243 -1.7232  1.4778
 1199TIP3    H225013   1.321   5.516   1.643 -0.1707  1.7701 -0.0316
 1200TIP3   OH225014   4.813   3.234  17.453 -0.0236  0.7760  0.4240
 1200TIP3    H125015   4.879   3.242  17.522 -0.3127  2.5860  0.5401
 1200TIP3    H225016   4.732   3.213  17.499  0.2967 -0.7464  0.3440
 1201TIP3   OH225017   5.043   6.000   3.099 -0.4685  0.3042 -0.4680
 1201TIP3    H125018   5.107   6.011   3.028  1.9531  0.1231  1.5203
 1201TIP3    H225019   5.018   6.090   3.122 -2.0776  0.3331 -2.1586
 1202TIP3   OH225020   4.863   1.159   5.736  0.2573  0.1576  0.8237
 1202TIP3    H125021   4.805   1.083   5.736 -2.4341  2.0592  1.2705
 1202TIP3    H225022   4.889   1.170   5.828  0.3865 -0.0221  0.8091
 1203TIP3   OH225023   2.368   3.683  14.330 -0.2197  0.3687  0.0696
 1203TIP3    H125024   2.379   3.740  14.253 -3.7069  0.3213 -0.6023
 1203TIP3    H225025   2.311   3.732  14.389 -0.7219 -1.1671  0.9095
 1204TIP3   OH225026   2.281   0.492  12.381 -0.1308  0.3590  0.3512
 1204TIP3    H125027   2.359   0.436  12.381  0.4937  1.2135  0.3381
 1204TIP3    H225028   2.258   0.499  12.474  1.4157  2.2602  0.6570
 1205TIP3   OH225029   3.838   4.733   3.619 -0.2992  0.0405 -0.5241
 1205TIP3    H125030   3.857   4.762   3.530 -0.8202 -2.6300 -1.6103
 1205TIP3    H225031   3.871   4.804   3.675  2.5394  0.6310 -2.6917
 1206TIP3   OH225032   3.553   5.999   0.891 -1.1411 -0.3179  0.4352
 1206TIP3    H125033   3.559   5.943   0.814  1.1516  2.5856 -1.7414
 1206TIP3    H225034   3.644   6.012   0.919 -1.5176  2.2872  0.7366
 1207TIP3   OH225035   0.023   0.909  12.240  0.5685 -0.4694 -0.4969
 1207TIP3    H125036  -0.060   0.954  12.252  0.7834 -0.1052 -0.3639
 1207TIP3    H225037   0.034   0.857  12.320 -0.0390 -1.3497 -0.9715
 1208TIP3   OH225038   2.391   6.503   4.931 -0.2726 -0.5483 -0.1605
 1208TIP3    H125039   2.344   6.425   4.961 -0.5385 -0.5026 -0.4621
 1208TIP3    H225040   2.381   6.502   4.836  0.3183 -0.5279 -0.2287
 1209TIP3   OH225041   4.307   2.188   5.025  0.6684 -0.0362 -0.2494
 1209TIP3    H125042   4.335   2.264   4.973  0.3963  1.1482  1.2478
 1209TIP3    H225043   4.260   2.133   4.963  0.6845  1.1290 -1.3457
 1210TIP3   OH225044   4.256   1.012   5.509  0.0921  0.0849  0.3623
 1210TIP3    H125045   4.278   1.074   5.440  1.5645  2.8545  3.0777
 1210TIP3    H225046   4.339   0.968   5.529 -0.5068 -1.3216 -0.1578
 1211TIP3   OH225047   5.630   6.280   2.684  0.2637 -0.1200  0.2177
 1211TIP3    H125048   5.632   6.358   2.629 -1.2103 -0.2771 -0.1050
 1211TIP3    H225049   5.608   6.312   2.771 -0.0926 -0.1361  0.1369
 1212TIP3   OH225050   0.424   5.762  14.953 -0.0005  0.7037 -0.1214
 1212TIP3    H125051   0.361   5.822  14.913 -0.4498 -0.3697 -1.0902
 1212TIP3    H225052   0.391   5.675  14.930 -0.4487 -0.0190  2.8683
 1213TIP3   OH225053   5.305   2.217   2.335  0.2458 -0.3908 -0.6053
 1213TIP3    H125054   5.389   2.259   2.320 -1.1801  1.8323 -3.2364
 1213TIP3    H225055   5.268   2.263   2.410  0.4153  0.2696 -0.9174
 1214TIP3   OH225056   5.369   6.657   2.737  0.2514 -0.4467 -0.4605
 1214TIP3    H125057   5.401   6.603   2.665  2.1755  2.0442 -1.6489
 1214TIP3    H225058   5.449   6.686   2.783 -0.8143 -0.3589  1.4672
 1215TIP3   OH225059   3.537   5.632  14.481  0.2420 -0.3944 -0.5259
 1215TIP3    H125060   3.535   5.567  14.411 -1.0901 -0.1584 -0.7315
 1215TIP3    H225061   3.483   5.595  14.550 -0.8831  0.6474 -0.8141
 1216TIP3   OH225062   5.758   0.082   3.109 -0.3696 -0.5505 -0.1291
 1216TIP3    H125063   5.805   0.155   3.068 -0.9589  0.3180  0.6962
 1216TIP3    H225064   5.827   0.019   3.131  0.0177 -0.8046 -1.9171
 1217TIP3   OH225065   5.204   5.379   5.530 -0.3560 -0.5438 -0.2199
 1217TIP3    H125066   5.164   5.441   5.470 -0.2744  0.3724  0.6508
 1217TIP3    H225067   5.143   5.305   5.533 -3.9308  2.1483  3.6261
 1218TIP3   OH225068   1.374   2.004  12.360 -0.1934  0.0266 -0.0840
 1218TIP3    H125069   1.458   2.009  12.406 -0.0057  1.7180 -0.5447
 1218TIP3    H225070   1.396   2.020  12.268 -1.1391  1.7976 -0.0422
 1219TIP3   OH225071   5.407   2.639   4.558 -0.7928  0.3160  0.5816
 1219TIP3    H125072   5.433   2.696   4.486  0.8021 -1.8902 -0.6894
 1219TIP3    H225073   5.480   2.642   4.620  1.6082 -3.6211 -1.6267
 1220TIP3   OH225074   1.546   5.121   3.365  0.2968 -0.2860 -0.7147
 1220TIP3    H125075   1.624   5.071   3.388 -0.0662 -0.1449  0.9540
 1220TIP3    H225076   1.573   5.177   3.292  2.4879  1.4840  1.2905
 1221TIP3   OH225077   1.574   6.746   0.006 -0.2509  0.0687 -0.5063
 1221TIP3    H125078   1.564   6.765   0.099  0.5568 -0.1572 -0.3655
 1221TIP3    H225079   1.504   6.795  -0.036 -0.7513  0.0124  0.2409
 1222TIP3   OH225080   0.241   0.124   3.776 -0.0991 -0.1850 -0.1832
 1222TIP3    H125081   0.228   0.218   3.784 -0.2685 -0.2127 -0.1225
 1222TIP3    H225082   0.160   0.092   3.736  0.3378 -0.1810 -1.0848
 1223TIP3   OH225083   0.659   6.446  11.267  0.5135  0.0672  0.1221
 1223TIP3    H125084   0.752   6.426  11.281  0.7228  1.5750  1.2300
 1223TIP3    H225085   0.634   6.394  11.191  1.6775 -2.0630  1.1002
 1224TIP3   OH225086   4.292   0.967   2.892  0.4575  0.3107 -0.5660
 1224TIP3    H125087   4.342   0.968   2.973  1.9883 -0.5767 -1.4546
 1224TIP3    H225088   4.207   1.005   2.916  1.5854  2.0860  0.9487
 1225TIP3   OH225089   2.556   0.052   0.056  0.0607  0.6832  0.2990
 1225TIP3    H125090   2.623   0.112   0.022  1.6129 -0.6697  0.8343
 1225TIP3    H225091   2.557   0.068   0.150 -1.9944  2.2009  0.1258
 1226TIP3   OH225092   2.015   0.227   1.564 -0.3654  1.0170 -0.0310
 1226TIP3    H125093   2.041   0.319   1.568  1.6611  0.4504  1.3694
 1226TIP3    H225094   2.012   0.199   1.655  1.6942 -0.9363 -0.4656
 1227TIP3   OH225095   4.172   6.320   0.996  0.4090  0.0886  0.2394
 1227TIP3    H125096   4.246   6.340   1.053 -0.0269  1.1235  0.4728
 1227TIP3    H225097   4.098   6.365   1.037 -0.6356 -1.9521  0.7103
 1228TIP3   OH225098   0.950   2.168   1.231 -0.8117  0.4869  0.5193
 1228TIP3    H125099   0.930   2.248   1.181 -1.3698 -0.1650 -0.3419
 1228TIP3    H225100   0.890   2.102   1.195 -0.3807 -0.3160  1.2365
 1229TIP3   OH225101   6.717   5.240   6.585 -0.3637  0.2527 -0.1028
 1229TIP3    H125102   6.785   5.307   6.591 -0.2556  0.0482  1.1054
 1229TIP3    H225103   6.687   5.245   6.494  1.0963  0.5022 -0.5996
 1230TIP3   OH225104   3.242   2.400   1.097  0.5842 -0.1388  0.0527
 1230TIP3    H125105   3.231   2.493   1.117  2.9171  0.6184 -1.6915
 1230TIP3    H225106   3.270   2.361   1.180  0.2109  0.8407  0.6541
 1231TIP3   OH225107   5.230   6.609  16.920 -0.3194  0.0409 -0.3489
 1231TIP3    H125108   5.248   6.543  16.853 -0.6279  0.7238 -1.1209
 1231TIP3    H225109   5.161   6.663  16.883 -0.0282  0.8388  0.2483
 1232TIP3   OH225110   6.328   1.088  16.799 -0.2726  0.1074  0.0292
 1232TIP3    H125111   6.369   1.169  16.768 -0.8303  0.4685  0.2167
 1232TIP3    H225112   6.235   1.110  16.807 -0.3332 -0.3681  0.6829
 1233TIP3   OH225113   0.596   6.239   3.566  0.1691 -0.1044  0.2250
 1233TIP3    H125114   0.576   6.327   3.596  0.6852 -0.5989  2.1643
 1233TIP3    H225115   0.667   6.250   3.504  1.1235  0.7780  1.4289
 1234TIP3   OH225116   2.285   0.875   4.373 -0.4504 -0.5700  0.2045
 1234TIP3    H125117   2.340   0.915   4.306 -0.4273  0.5070  0.8364
 1234TIP3    H225118   2.215   0.831   4.324  0.0986 -0.6246 -0.5478
 1235TIP3   OH225119   4.140   6.090   4.695 -0.1812 -0.0819 -0.3759
 1235TIP3    H125120   4.175   6.096   4.606 -3.2114  0.6530 -1.6329
 1235TIP3    H225121   4.136   6.181   4.726 -1.1783 -0.1201 -0.3708
 1236TIP3   OH225122   5.973   2.051  12.586  0.0206  0.1542 -0.4926
 1236TIP3    H125123   6.003   2.122  12.643  0.7150 -0.4196 -0.1255
 1236TIP3    H225124   5.877   2.059  12.587  0.0565  0.6289  0.1377
 1237TIP3   OH225125   5.444   3.917   6.143 -1.0839 -0.7115  0.1493
 1237TIP3    H125126   5.388   3.941   6.069  0.2081 -0.0838 -0.6796
 1237TIP3    H225127   5.435   3.990   6.204  0.1782  0.3049 -0.8107
 1238TIP3   OH225128   5.326   2.663   5.156  0.4566 -0.1018 -0.0333
 1238TIP3    H125129   5.310   2.757   5.167 -0.6306  0.1394 -2.8391
 1238TIP3    H225130   5.264   2.621   5.217 -1.0470  1.0208 -0.7279
 1239TIP3   OH225131   6.041   6.668   3.734 -0.4917  0.4395  0.0376
 1239TIP3    H125132   6.068   6.743   3.787  0.9623  0.0078 -0.0648
 1239TIP3    H225133   6.118   6.611   3.732 -1.3760 -0.7736 -0.3950
 1240TIP3   OH225134   4.922   1.134  14.458  0.1536 -0.3903 -0.6458
 1240TIP3    H125135   4.955   1.223  14.447  1.0727 -0.8899 -2.3115
 1240TIP3    H225136   4.827   1.143  14.456  0.1448  0.7774  1.5797
 1241TIP3   OH225137   3.071   5.615  16.397 -0.4421  0.2331 -0.0936
 1241TIP3    H125138   3.144   5.590  16.340 -0.1160 -1.1054  0.8484
 1241TIP3    H225139   3.010   5.541  16.390 -1.1453  0.7893  0.0686
 1242TIP3   OH225140   2.830   2.653   0.141  0.3471  0.0993 -0.3360
 1242TIP3    H125141   2.866   2.584   0.198  0.5300 -0.1085 -0.7029
 1242TIP3    H225142   2.907   2.705   0.116  0.0131  1.5879  1.4392
 1243TIP3   OH225143   2.353   2.586   2.811 -0.6913  0.0373  0.6943
 1243TIP3    H125144   2.280   2.525   2.801  0.0031 -1.1018  2.2204
 1243TIP3    H225145   2.331   2.637   2.889 -0.0669 -0.0282  0.9190
 1244TIP3   OH225146   3.341   2.821  11.088  0.1018 -0.0591  0.7323
 1244TIP3    H125147   3.425   2.798  11.049 -1.1632 -1.6366 -1.3190
 1244TIP3    H225148   3.276   2.796  11.021 -2.1173 -0.5994  2.9222
 1245TIP3   OH225149   5.407   0.904  14.065 -0.6448  0.6924 -0.5886
 1245TIP3    H125150   5.370   0.992  14.079 -2.2259 -0.0924  0.4459
 1245TIP3    H225151   5.424   0.872  14.153 -1.1466 -0.4701 -0.9031
 1246TIP3   OH225152   1.279   0.498   2.024 -0.0209 -0.2383  0.0517
 1246TIP3    H125153   1.343   0.437   1.985  0.1787 -0.1646  0.2619
 1246TIP3    H225154   1.196   0.450   2.021 -0.3993  0.4300 -2.1404
 1247TIP3   OH225155   4.247   6.422   3.008 -0.3232  0.4815  0.3735
 1247TIP3    H125156   4.174   6.367   2.979 -0.1938 -0.8052  2.2711
 1247TIP3    H225157   4.226   6.509   2.975 -0.4369 -0.6691 -2.9448
 1248TIP3   OH225158   2.455   4.261   4.839 -0.3539 -0.1578 -0.6042
 1248TIP3    H125159   2.518   4.292   4.905 -0.8280  0.9384 -0.6467
 1248TIP3    H225160   2.388   4.215   4.890 -2.1113  2.8565  0.1201
 1249TIP3   OH225161   2.004   0.395  12.929 -0.2058 -0.0950  0.2879
 1249TIP3    H125162   2.017   0.317  12.876 -1.2016  0.4520 -0.8422
 1249TIP3    H225163   2.020   0.367  13.019  3.0019 -0.7164 -0.3742
 1250TIP3   OH225164   3.156   1.930   2.019  0.0714  0.5279 -0.4343
 1250TIP3    H125165   3.151   2.015   1.974  1.6301  0.3948 -0.9462
 1250TIP3    H225166   3.067   1.913   2.048 -0.5346  1.7347 -1.4590
 1251TIP3   OH225167   3.735   0.115  13.727  0.0721 -0.0941 -0.2614
 1251TIP3    H125168   3.660   0.056  13.734  0.8467 -1.1195 -0.4013
 1251TIP3    H225169   3.708   0.194  13.775 -1.1818 -0.3431 -0.5199
 1252TIP3   OH225170   5.539   1.560  16.624 -0.4193  0.4833  0.2306
 1252TIP3    H125171   5.460   1.589  16.578 -0.7494  0.0678  0.5210
 1252TIP3    H225172   5.539   1.464  16.614  1.1847  0.6035 -1.5726
 1253TIP3   OH225173   5.978   3.009   0.281  0.3158 -0.7207 -0.7043
 1253TIP3    H125174   6.016   2.921   0.272  1.9715 -0.0636 -0.4966
 1253TIP3    H225175   6.022   3.046   0.357 -1.2567 -0.1309 -0.0516
 1254TIP3   OH225176   3.615   3.564  11.195 -0.0969 -0.1531  0.4916
 1254TIP3    H125177   3.520   3.576  11.196  0.0739  1.8333 -0.6568
 1254TIP3    H225178   3.639   3.576  11.103  1.0838 -2.7741  0.3854
 1255TIP3   OH225179   2.564   1.384  14.479  0.0145 -0.6347  1.0245
 1255TIP3    H125180   2.521   1.416  14.558 -1.4448  1.7214 -0.6094
 1255TIP3    H225181   2.497   1.387  14.411  2.0775  0.9513 -1.1238
 1256TIP3   OH225182   3.193   3.550  12.744 -0.3123  0.2589  0.4550
 1256TIP3    H125183   3.285   3.541  12.771 -0.0677  2.9623  0.7720
 1256TIP3    H225184   3.193   3.526  12.651  0.4328 -1.0692  0.7754
 1257TIP3   OH225185   1.934   5.413  13.809  0.4363 -0.4763 -0.2730
 1257TIP3    H125186   1.927   5.416  13.904  1.1916  1.9273 -0.2262
 1257TIP3    H225187   2.028   5.414  13.792  0.3046 -0.7388 -1.0499
 1258TIP3   OH225188   2.617   0.501  16.361  1.2668  0.2580 -0.2676
 1258TIP3    H125189   2.672   0.481  16.286  0.0866 -2.7386 -0.4657
 1258TIP3    H225190   2.557   0.427  16.368 -1.3674  2.3214  1.2026
 1259TIP3   OH225191   6.690   5.285   2.272  0.8586  0.6220  0.1994
 1259TIP3    H125192   6.640   5.367   2.272 -0.2873 -0.0279  1.6196
 1259TIP3    H225193   6.630   5.220   2.235  1.0920  0.0863  0.7354
 1260TIP3   OH225194   1.405   0.330  14.885 -1.1387  0.0693 -0.3040
 1260TIP3    H125195   1.491   0.314  14.925 -0.9947  0.8414 -0.2879
 1260TIP3    H225196   1.349   0.262  14.922  0.1071 -2.3366 -2.5389
 1261TIP3   OH225197   0.216   5.940  12.934 -0.3279  0.6308  0.7994
 1261TIP3    H125198   0.226   5.901  13.021 -0.6959  1.8747  1.4158
 1261TIP3    H225199   0.205   6.033  12.951 -2.7644  0.6314 -0.4372
 1262TIP3   OH225200   1.828   2.594   1.348  0.1265 -0.0284  0.0977
 1262TIP3    H125201   1.881   2.674   1.340 -0.5553  0.3920 -0.3204
 1262TIP3    H225202   1.767   2.598   1.275 -1.6916  0.4341  1.5617
 1263TIP3   OH225203   1.343   6.245  13.219 -0.1594  0.2309  0.0950
 1263TIP3    H125204   1.382   6.300  13.286 -2.3823  0.8829  0.9334
 1263TIP3    H225205   1.340   6.157  13.257 -1.3421  0.5844  0.8609
 1264TIP3   OH225206   3.686   2.203   4.317  0.4160  0.3943  0.3095
 1264TIP3    H125207   3.702   2.289   4.356 -0.2353  0.8359 -0.3747
 1264TIP3    H225208   3.752   2.194   4.249  2.2447 -0.8261  2.1180
 1265TIP3   OH225209   6.206   3.715   3.126 -0.9364  0.0626  0.8179
 1265TIP3    H125210   6.156   3.768   3.189 -0.1972  0.2399  1.2650
 1265TIP3    H225211   6.278   3.678   3.178  0.7259  1.6074 -0.2659
 1266TIP3   OH225212   5.139   2.483  13.972 -0.1623  0.1175 -0.1784
 1266TIP3    H125213   5.233   2.495  13.955 -0.2649 -0.8066 -1.5501
 1266TIP3    H225214   5.133   2.473  14.067  1.2650 -0.8785 -0.1673
 1267TIP3   OH225215   4.677   2.889  17.353  0.3193 -0.4100  0.7863
 1267TIP3    H125216   4.714   2.970  17.319  0.1879 -0.7216 -0.1615
 1267TIP3    H225217   4.739   2.821  17.326 -0.5428 -0.8465 -0.2061
 1268TIP3   OH225218   5.979   0.021  14.451  0.4980  0.4393 -0.5337
 1268TIP3    H125219   6.070   0.037  14.427  0.6720  0.4128  0.0839
 1268TIP3    H225220   5.984  -0.045  14.520 -0.0015  0.3059 -0.6222
 1269TIP3   OH225221   1.698   1.202  16.826  0.7277  0.3094 -0.2501
 1269TIP3    H125222   1.687   1.114  16.862 -0.1702  1.2236  1.8837
 1269TIP3    H225223   1.774   1.237  16.872  0.5826  0.9272 -0.4739
 1270TIP3   OH225224   0.241   1.234   0.943  0.4203 -0.2315 -0.0382
 1270TIP3    H125225   0.191   1.238   1.024  2.3903  2.1559  1.1964
 1270TIP3    H225226   0.262   1.141   0.932  0.7306 -0.5513  2.6452
 1271TIP3   OH225227   5.535   2.044   4.598  0.6848  1.0759 -0.1423
 1271TIP3    H125228   5.594   2.010   4.665  2.2002  1.1398 -1.3829
 1271TIP3    H225229   5.541   1.982   4.526 -0.3868  1.3598 -0.5075
 1272TIP3   OH225230   4.332   5.623   3.252 -0.3437  0.7575 -0.4415
 1272TIP3    H125231   4.273   5.698   3.259  1.5016  2.1426  2.4783
 1272TIP3    H225232   4.412   5.659   3.214  0.4408  0.2075  0.6517
 1273TIP3   OH225233   6.206   5.148   6.758 -0.2878 -0.3332  0.3303
 1273TIP3    H125234   6.253   5.214   6.707 -0.6076 -0.0933  0.3395
 1273TIP3    H225235   6.210   5.069   6.704  1.5228 -0.7765  1.0626
 1274TIP3   OH225236   3.568   2.777  15.069 -0.3415 -0.3903  0.6385
 1274TIP3    H125237   3.486   2.734  15.045 -0.8683  0.2883  1.1685
 1274TIP3    H225238   3.578   2.761  15.163 -1.0463  1.3987  1.0631
 1275TIP3   OH225239   6.225   6.252  10.936 -0.2086 -0.4160  0.3437
 1275TIP3    H125240   6.207   6.170  10.982  0.4594 -1.4412 -1.1623
 1275TIP3    H225241   6.215   6.231  10.844  1.7858  0.7000 -0.1887
 1276TIP3   OH225242   6.450   1.723  13.116  0.0074 -0.7855  0.1950
 1276TIP3    H125243   6.466   1.666  13.191 -2.9958 -0.4159  1.2231
 1276TIP3    H225244   6.390   1.674  13.060 -0.9064  0.4937  0.0207
 1277TIP3   OH225245   5.381   6.654   2.054 -0.6187  0.0704  0.1366
 1277TIP3    H125246   5.361   6.717   2.123  0.5717  0.0446  0.5377
 1277TIP3    H225247   5.341   6.691   1.975 -0.8555  0.7797  0.5768
 1278TIP3   OH225248   5.899   4.105   0.552 -0.5530  0.1720 -0.2269
 1278TIP3    H125249   5.933   4.106   0.462 -1.2525  0.2573 -0.4998
 1278TIP3    H225250   5.909   4.014   0.580  1.2127  0.4661  0.2331
 1279TIP3   OH225251   1.870   1.902  17.474  0.3614  0.0508  0.5214
 1279TIP3    H125252   1.789   1.909  17.524 -0.0266 -0.3099 -0.0501
 1279TIP3    H225253   1.923   1.838  17.522 -0.8506 -1.8813 -0.6318
 1280TIP3   OH225254   4.793   1.954   5.397 -0.0763 -0.6042 -0.1893
 1280TIP3    H125255   4.861   1.922   5.456 -0.4679 -0.3258  0.4210
 1280TIP3    H225256   4.812   1.912   5.313  0.3106 -1.2387  0.2128
 1281TIP3   OH225257   3.303   5.510   0.402 -0.1878 -0.0566  0.0566
 1281TIP3    H125258   3.212   5.485   0.391  0.4046 -1.4604 -2.5385
 1281TIP3    H225259   3.309   5.596   0.362 -0.6556  0.8009  1.7550
 1282TIP3   OH225260   5.380   3.261   2.680  0.0346  0.1852 -0.3887
 1282TIP3    H125261   5.461   3.212   2.695  0.2196  0.7250  0.4413
 1282TIP3    H225262   5.370   3.316   2.758 -1.3415 -0.1641 -0.2846
 1283TIP3   OH225263   0.105   0.832  14.194  0.1297 -0.3892 -0.2833
 1283TIP3    H125264   0.090   0.769  14.124  1.1330 -2.6159  1.3922
 1283TIP3    H225265   0.199   0.847  14.193  0.5838 -2.4431  2.0781
 1284TIP3   OH225266   5.123   2.079   3.185  0.2106  0.5741  0.1371
 1284TIP3    H125267   5.050   2.023   3.160  1.8098 -1.4018 -0.3974
 1284TIP3    H225268   5.198   2.045   3.136  2.3186  0.0165  3.3749
 1285TIP3   OH225269   0.424   5.925   0.973  0.4325 -0.1442  0.0221
 1285TIP3    H125270   0.512   5.928   0.936 -0.2129 -1.2998 -1.7218
 1285TIP3    H225271   0.372   5.984   0.918  0.1561  0.8712  1.3012
 1286TIP3   OH225272   5.670   4.749  16.229 -0.0038 -0.0981 -0.0155
 1286TIP3    H125273   5.721   4.720  16.154  1.2898  1.9691 -0.0070
 1286TIP3    H225274   5.658   4.670  16.282  0.1989 -1.3164 -1.7098
 1287TIP3   OH225275   4.758   5.755  17.413  0.3460 -0.0395  0.0308
 1287TIP3    H125276   4.785   5.837  17.454  4.9025  0.8648 -3.9298
 1287TIP3    H225277   4.708   5.782  17.336 -0.1159 -1.1772 -0.0927
 1288TIP3   OH225278   4.068   5.261   3.339 -0.4255 -0.5259 -0.1322
 1288TIP3    H125279   4.005   5.314   3.289 -0.7228 -1.5845 -0.9066
 1288TIP3    H225280   4.043   5.274   3.430 -1.5174 -0.6100 -0.4064
 1289TIP3   OH225281   3.618   4.303   4.389 -0.5327 -0.3574  0.5330
 1289TIP3    H125282   3.624   4.332   4.298 -2.7229 -2.1266 -0.2527
 1289TIP3    H225283   3.556   4.364   4.429 -0.0704  0.0130  0.7090
 1290TIP3   OH225284   4.740   3.451   1.507 -0.2951  0.0517 -0.3330
 1290TIP3    H125285   4.751   3.475   1.599 -0.6819 -0.5393 -0.1240
 1290TIP3    H225286   4.739   3.534   1.460 -0.8663  0.4013  0.2852
 1291TIP3   OH225287   0.261   1.528   5.380  0.3078  0.0765  0.5670
 1291TIP3    H125288   0.180   1.578   5.379  1.7227  2.6133  1.4154
 1291TIP3    H225289   0.238   1.445   5.421 -1.6844  1.0736  1.6041
 1292TIP3   OH225290   2.328   2.148   3.805  0.0580  0.3882 -0.0582
 1292TIP3    H125291   2.362   2.235   3.782 -0.4441 -0.1177 -3.1877
 1292TIP3    H225292   2.233   2.159   3.808  0.0867  0.3433  1.6388
 1293TIP3   OH225293   6.463   3.412   3.713 -0.7728  0.1837  0.1771
 1293TIP3    H125294   6.402   3.409   3.639 -1.1987 -0.1749  0.5400
 1293TIP3    H225295   6.520   3.486   3.693 -0.4657 -0.2992 -0.8451
 1294TIP3   OH225296   2.626   4.214   5.817 -0.4631  0.1204 -0.1064
 1294TIP3    H125297   2.624   4.266   5.897 -0.8413 -1.1497  0.7313
 1294TIP3    H225298   2.671   4.269   5.754  0.3195  0.9341  1.1263
 1295TIP3   OH225299   5.737   6.550  11.563 -0.1885  0.2212 -0.2954
 1295TIP3    H125300   5.694   6.632  11.587  0.7254  0.1481  1.8434
 1295TIP3    H225301   5.685   6.483  11.608 -0.2704 -0.2866 -1.1230
 1296TIP3   OH225302   1.754   0.299   5.140  0.0811 -0.0168 -0.4318
 1296TIP3    H125303   1.780   0.282   5.049  0.0731  1.0110 -0.6317
 1296TIP3    H225304   1.668   0.257   5.148 -1.1239  2.0336 -1.6919
 1297TIP3   OH225305   5.323   1.703  13.245 -0.2116 -0.0634  0.0934
 1297TIP3    H125306   5.406   1.691  13.199 -0.1643  0.3238  0.0764
 1297TIP3    H225307   5.309   1.621  13.291  0.2370 -0.0910  0.1829
 1298TIP3   OH225308   3.793   2.465   5.606  0.2376  0.7549  0.7430
 1298TIP3    H125309   3.767   2.555   5.586  0.1045  0.6559  0.4610
 1298TIP3    H225310   3.772   2.454   5.699 -0.2708  0.8393  0.6427
 1299TIP3   OH225311   1.961   2.861   0.891 -0.7269  0.0785 -0.2147
 1299TIP3    H125312   1.878   2.855   0.843  0.7205  0.3815 -3.0203
 1299TIP3    H225313   2.007   2.780   0.868  0.2209  0.4624  0.2879
 1300TIP3   OH225314   0.330   0.676  17.271  0.4650 -0.6483  0.4908
 1300TIP3    H125315   0.253   0.637  17.312  0.4247 -1.1332 -0.0252
 1300TIP3    H225316   0.341   0.761  17.315  0.5716 -1.2444  1.6559
 1301TIP3   OH225317   4.062   6.672   6.305 -0.0612  0.0356 -0.2683
 1301TIP3    H125318   3.976   6.689   6.344  0.0010  0.4343 -0.3013
 1301TIP3    H225319   4.076   6.578   6.319 -1.2409 -0.3977 -1.7388
 1302TIP3   OH225320   1.089   1.555   4.740 -0.3541  0.4443  0.0322
 1302TIP3    H125321   1.118   1.467   4.716 -0.1315  0.2992  0.8158
 1302TIP3    H225322   1.159   1.590   4.795 -1.0361  0.6118  0.8069
 1303TIP3   OH225323   0.822   1.819  15.016  0.7061  0.1888  0.5673
 1303TIP3    H125324   0.791   1.735  14.981 -0.0280  0.6663  0.0581
 1303TIP3    H225325   0.911   1.827  14.982  0.9216 -0.5519  0.9231
 1304TIP3   OH225326   2.321   5.471   5.991  0.4418 -0.0600 -0.5682
 1304TIP3    H125327   2.396   5.415   5.969  0.3273  0.6184 -2.9300
 1304TIP3    H225328   2.254   5.411   6.020  1.0949 -0.9289 -0.8170
 1305TIP3   OH225329   4.162   5.120  11.798  0.2552  0.0672  0.0151
 1305TIP3    H125330   4.216   5.079  11.730 -0.2113  0.3666 -0.5425
 1305TIP3    H225331   4.218   5.188  11.836  0.7539 -0.5495  0.4015
 1306TIP3   OH225332   6.103   3.079   1.239 -0.0140 -0.5356  0.0959
 1306TIP3    H125333   6.159   3.109   1.310 -0.2430  1.6474 -0.5625
 1306TIP3    H225334   6.024   3.132   1.247 -0.4877 -1.0344 -1.1087
 1307TIP3   OH225335   5.672   5.675   4.155  0.3565 -0.3115 -0.2375
 1307TIP3    H125336   5.649   5.592   4.196 -0.8722  1.1647  2.3195
 1307TIP3    H225337   5.589   5.711   4.125  0.8420  0.1230 -1.0983
 1308TIP3   OH225338   3.465   3.288   4.790 -0.2958  0.0959 -0.1256
 1308TIP3    H125339   3.474   3.281   4.695 -1.7296  0.6250 -0.3265
 1308TIP3    H225340   3.504   3.207   4.824  2.3470  0.9241 -0.9824
 1309TIP3   OH225341   3.579   0.748   0.390  0.1672 -0.2550 -0.3110
 1309TIP3    H125342   3.543   0.681   0.448 -1.2837 -0.6863 -1.6165
 1309TIP3    H225343   3.611   0.817   0.448  0.2002 -1.3590  1.0081
 1310TIP3   OH225344   4.395   1.986  16.561 -0.0649  0.0074 -0.0849
 1310TIP3    H125345   4.360   2.018  16.644  1.7439 -0.2960  0.8445
 1310TIP3    H225346   4.441   2.062  16.525  0.3076 -0.2484 -0.1439
 1311TIP3   OH225347   1.329   4.892   2.622 -0.0662 -0.9767  0.0463
 1311TIP3    H125348   1.376   4.815   2.590 -0.7591 -1.1142 -0.6708
 1311TIP3    H225349   1.390   4.964   2.612  1.0547 -1.6122  1.8915
 1312TIP3   OH225350   3.164   4.417  16.113  0.7969 -0.2033 -0.7388
 1312TIP3    H125351   3.120   4.465  16.184 -0.0201 -0.7560 -0.8627
 1312TIP3    H225352   3.189   4.334  16.153 -0.2357 -0.7798 -1.2513
 1313TIP3   OH225353   5.145   0.449  16.091 -0.2384 -0.8159 -0.3401
 1313TIP3    H125354   5.138   0.535  16.132 -1.5913 -0.7755 -0.6218
 1313TIP3    H225355   5.153   0.388  16.164  1.9363 -0.3954 -0.1495
 1314TIP3   OH225356   5.512   5.468  15.997  0.5230 -0.3586 -0.3028
 1314TIP3    H125357   5.517   5.553  15.953 -1.0089 -0.1041 -0.0681
 1314TIP3    H225358   5.485   5.407  15.928  0.9863 -0.5260 -0.3341
 1315TIP3   OH225359   4.506   4.750   1.462 -0.5260 -0.0144 -0.2383
 1315TIP3    H125360   4.422   4.712   1.434 -0.3390 -1.0679  0.5793
 1315TIP3    H225361   4.482   4.816   1.527 -0.7366 -0.1571 -0.1710
 1316TIP3   OH225362   6.018   1.796  13.837 -0.4135 -0.3150 -0.1732
 1316TIP3    H125363   6.054   1.720  13.883 -1.7411 -0.1064  1.2792
 1316TIP3    H225364   6.073   1.804  13.759 -0.1957 -2.7318 -0.3642
 1317TIP3   OH225365   5.568   1.613  13.174  0.0911  0.3336 -0.0078
 1317TIP3    H125366   5.532   1.533  13.211 -1.3988  1.1500  0.3757
 1317TIP3    H225367   5.648   1.585  13.128 -1.5252 -1.7203 -1.7535
 1318TIP3   OH225368   6.152   3.410  16.432 -0.3241 -0.6961 -0.1835
 1318TIP3    H125369   6.144   3.315  16.428 -2.7141 -0.5638 -0.1440
 1318TIP3    H225370   6.104   3.435  16.511 -1.4046  0.6288 -1.1907
 1319TIP3   OH225371   4.570   4.294  11.397  0.1042 -0.0455 -0.2837
 1319TIP3    H125372   4.532   4.318  11.313 -1.4156  0.4593  0.5181
 1319TIP3    H225373   4.585   4.199  11.391 -0.7539 -0.1540 -0.8268
 1320TIP3   OH225374   3.163   1.678  12.428 -0.3394  0.0531  0.0187
 1320TIP3    H125375   3.180   1.589  12.398 -0.2705 -0.1093  0.5351
 1320TIP3    H225376   3.247   1.710  12.458 -0.0144  0.8855 -1.6706
 1321TIP3   OH225377   5.591   4.370   5.670  0.4032  0.7844  0.0549
 1321TIP3    H125378   5.567   4.427   5.743 -2.1628 -1.9846  1.6075
 1321TIP3    H225379   5.687   4.371   5.669  0.7781 -0.6472  5.0395
 1322TIP3   OH225380   0.111   0.227   5.398 -0.2141 -0.9240 -0.1560
 1322TIP3    H125381   0.198   0.233   5.438 -0.6117  0.5745  0.5511
 1322TIP3    H225382   0.077   0.143   5.427  0.6909 -1.1732  0.2098
 1323TIP3   OH225383   5.789   5.716  17.476  0.4694 -0.1361  0.1525
 1323TIP3    H125384   5.739   5.768  17.413 -0.1097 -1.3461 -0.4259
 1323TIP3    H225385   5.732   5.710  17.552  0.2479 -0.4662 -0.0346
 1324TIP3   OH225386   6.085   4.495   3.725  0.5727 -0.0278  0.0615
 1324TIP3    H125387   5.992   4.476   3.740 -0.0107  2.5296  0.2309
 1324TIP3    H225388   6.130   4.450   3.797 -0.4962 -1.3551 -0.0492
 1325TIP3   OH225389   0.123   1.457   3.014 -0.2349 -0.1482  0.9994
 1325TIP3    H125390   0.188   1.444   3.082  0.1156  0.7209  0.8447
 1325TIP3    H225391   0.078   1.372   3.007  0.9067 -0.7770  1.0664
 1326TIP3   OH225392   3.658   4.865  11.682 -0.0665  0.0402 -0.3099
 1326TIP3    H125393   3.729   4.824  11.732  0.7962  1.4991 -0.3063
 1326TIP3    H225394   3.695   4.881  11.596 -1.3721 -1.9185 -1.3086
 1327TIP3   OH225395   4.801   3.550   1.746  0.4039  0.2438 -0.5748
 1327TIP3    H125396   4.870   3.617   1.742  0.6727 -0.0524 -0.8447
 1327TIP3    H225397   4.824   3.497   1.823  0.6921 -0.0903 -0.8893
 1328TIP3   OH225398   0.725   4.843  13.709 -0.1651  0.1670  0.0585
 1328TIP3    H125399   0.802   4.870  13.658  0.7213 -0.2767  1.1148
 1328TIP3    H225400   0.734   4.889  13.792 -0.3261 -0.8915  0.6803
 1329TIP3   OH225401   3.299   1.079  13.687  0.1908 -0.1412 -0.1016
 1329TIP3    H125402   3.276   0.989  13.666  0.4359 -0.8512  2.3228
 1329TIP3    H225403   3.394   1.083  13.675 -0.0665  0.5034 -2.3843
 1330TIP3   OH225404   4.196   2.100   5.945 -0.0720  0.2742 -0.1681
 1330TIP3    H125405   4.232   2.012   5.951 -1.1072 -0.1539  0.1654
 1330TIP3    H225406   4.192   2.130   6.036 -0.8974  0.1482 -0.1508
 1331TIP3   OH225407   2.097   3.062   0.545  0.3574  0.5023  0.7323
 1331TIP3    H125408   2.107   3.057   0.640 -0.4424 -0.4935  0.7706
 1331TIP3    H225409   2.107   3.156   0.526  0.1323  0.7731  1.8409
 1332TIP3   OH225410   6.156   6.522  16.708 -0.0543 -0.3180 -0.4342
 1332TIP3    H125411   6.245   6.526  16.743 -0.7220  0.1755  1.2769
 1332TIP3    H225412   6.142   6.609  16.671 -0.8530  0.6741  2.0273
 1333TIP3   OH225413   0.056   3.955  16.133  0.1762  0.5854  0.6812
 1333TIP3    H125414   0.143   3.916  16.141 -0.5601 -1.0620  0.9851
 1333TIP3    H225415   0.006   3.917  16.205 -0.3632  2.8033  1.5568
 1334TIP3   OH225416   3.224   3.987   4.737 -0.3628 -0.1296 -0.3948
 1334TIP3    H125417   3.276   4.067   4.734 -1.3286  0.4805 -1.3877
 1334TIP3    H225418   3.223   3.963   4.830  0.5600  0.5844 -0.1886
 1335TIP3   OH225419   3.302   0.341   5.135 -0.4500 -0.2602  0.6426
 1335TIP3    H125420   3.390   0.348   5.172 -0.8227 -0.9243  1.7143
 1335TIP3    H225421   3.255   0.416   5.172 -0.3522  0.0680  0.1067
 1336TIP3   OH225422   1.656   4.551   4.066 -0.0053  0.6577  0.0583
 1336TIP3    H125423   1.718   4.555   3.994 -0.4886  1.7256 -0.3303
 1336TIP3    H225424   1.703   4.509   4.138  0.1076 -1.5577 -1.2290
 1337TIP3   OH225425   6.414   4.726   0.971 -0.3428  0.1407 -0.4116
 1337TIP3    H125426   6.343   4.674   1.009  0.1233 -0.4947 -0.4007
 1337TIP3    H225427   6.404   4.813   1.011 -0.5574 -0.1977  0.2907
 1338TIP3   OH225428   5.411   3.977  15.650  0.5947 -0.0052  0.0875
 1338TIP3    H125429   5.368   3.912  15.705  0.3057  0.9612  1.0577
 1338TIP3    H225430   5.363   3.976  15.568  0.3671 -0.7500  0.2249
 1339TIP3   OH225431   6.502   3.461   0.613  0.1928 -0.9184  0.1021
 1339TIP3    H125432   6.523   3.552   0.633  0.8945 -1.1227  0.3108
 1339TIP3    H225433   6.502   3.457   0.517 -1.3596 -0.3575  0.0510
 1340TIP3   OH225434   1.784   0.349  13.494  0.2350 -0.1782 -0.8368
 1340TIP3    H125435   1.726   0.316  13.426 -0.6462  0.5717 -0.4699
 1340TIP3    H225436   1.734   0.420  13.536 -0.0439 -1.8115  1.8178
 1341TIP3   OH225437   6.151   2.024   2.994  0.1028 -0.0785  0.2506
 1341TIP3    H125438   6.202   1.944   2.999  1.4052  0.8014  3.1075
 1341TIP3    H225439   6.085   2.015   3.063  0.2315  1.2546  0.5844
 1342TIP3   OH225440   1.258   2.218   5.672 -0.3890  0.0370  0.4412
 1342TIP3    H125441   1.249   2.246   5.763 -0.3994 -1.5836  0.9677
 1342TIP3    H225442   1.352   2.227   5.653 -0.5396  1.3845  0.2424
 1343TIP3   OH225443   2.521   3.886   5.993  0.0409  0.2523  0.4093
 1343TIP3    H125444   2.456   3.821   5.967  0.7174 -0.2958  0.0590
 1343TIP3    H225445   2.475   3.970   5.985 -0.5235 -0.0968 -0.1393
 1344TIP3   OH225446   6.637   2.013   1.018 -0.2513 -0.4064  0.0499
 1344TIP3    H125447   6.546   2.018   1.046 -0.9086  0.0650 -2.0001
 1344TIP3    H225448   6.663   2.104   1.000  1.0013 -0.4069  1.6125
 1345TIP3   OH225449   5.240   0.585   2.777  0.2970 -0.0323  0.3087
 1345TIP3    H125450   5.259   0.627   2.694  0.3703 -0.1348  0.2728
 1345TIP3    H225451   5.164   0.632   2.812 -0.3406 -0.5976 -0.2641
 1346TIP3   OH225452   2.453   1.957  16.358  0.2036 -0.4104 -0.7361
 1346TIP3    H125453   2.493   1.977  16.443 -2.6011  2.4226  0.1171
 1346TIP3    H225454   2.527   1.949  16.298  2.1899  2.2166  1.1184
 1347TIP3   OH225455   5.296   0.142   4.714 -0.5535  0.1851 -0.7937
 1347TIP3    H125456   5.213   0.138   4.763  0.2581  0.6522  0.6669
 1347TIP3    H225457   5.296   0.230   4.676 -0.9641 -0.0055 -1.2478
 1348TIP3   OH225458   0.093   5.509   3.490 -0.5486  0.3261  0.2975
 1348TIP3    H125459   0.158   5.461   3.541 -2.2819 -0.3711  1.9907
 1348TIP3    H225460   0.118   5.601   3.500 -0.2740  0.1298  1.6433
 1349TIP3   OH225461   3.724   4.502   2.836 -0.5319  0.5960 -0.2471
 1349TIP3    H125462   3.773   4.584   2.829  0.4434 -0.0880 -2.3724
 1349TIP3    H225463   3.648   4.514   2.779  0.4139 -0.4400 -1.8129
 1350TIP3   OH225464   6.517   1.314   3.668  0.0839  0.0604  0.5547
 1350TIP3    H125465   6.608   1.320   3.696  0.5962 -0.7947 -0.7887
 1350TIP3    H225466   6.522   1.279   3.579 -1.5883 -0.5685  0.6695
 1351TIP3   OH225467   6.324   0.657  15.702 -0.3466  0.1522  0.0318
 1351TIP3    H125468   6.279   0.734  15.666  0.6561  0.5502 -0.4093
 1351TIP3    H225469   6.324   0.593  15.631  0.2028  0.3325 -0.1323
 1352TIP3   OH225470   6.238   4.945   5.325  0.1027 -0.0070  0.1333
 1352TIP3    H125471   6.216   4.891   5.400 -0.6907 -0.6618 -0.5613
 1352TIP3    H225472   6.170   5.012   5.322 -0.3839 -0.5226 -0.5263
 1353TIP3   OH225473   3.007   0.958  11.886  0.4321  0.4093 -0.4321
 1353TIP3    H125474   3.029   1.032  11.830  2.2493  0.1177 -0.1563
 1353TIP3    H225475   3.040   0.881  11.840 -1.4357 -0.2826 -0.7194
 1354TIP3   OH225476   3.910   6.495   2.837 -0.1067  0.2118  0.3442
 1354TIP3    H125477   3.875   6.556   2.772 -0.6554  0.0834  0.5106
 1354TIP3    H225478   3.991   6.461   2.798  0.1080  0.9049  0.1757
 1355TIP3   OH225479   3.058   3.045   6.939 -0.2462  0.1053  0.0008
 1355TIP3    H125480   3.151   3.022   6.928 -0.2482  0.5218 -1.0412
 1355TIP3    H225481   3.059   3.121   6.996 -0.1266 -1.3548  2.0441
 1356TIP3   OH225482   4.009   4.857   4.664  0.2265 -0.0589 -0.3568
 1356TIP3    H125483   4.097   4.891   4.649 -0.7886  2.2546 -1.6391
 1356TIP3    H225484   3.996   4.791   4.595  0.3660  0.8650 -1.2933
 1357TIP3   OH225485   1.724   6.351  14.688  0.5663 -0.2351 -0.3460
 1357TIP3    H125486   1.726   6.388  14.600  0.8558 -0.3338 -0.3835
 1357TIP3    H225487   1.704   6.424  14.745 -3.6544 -0.7601 -0.7999
 1358TIP3   OH225488   1.012   5.751   5.445  0.0656 -0.1683  0.0022
 1358TIP3    H125489   0.949   5.795   5.389  1.7640  0.4641 -1.5171
 1358TIP3    H225490   0.991   5.658   5.438 -0.5921  0.0171 -0.5670
 1359TIP3   OH225491   3.189   2.126   0.174  0.3437 -0.0776  0.3344
 1359TIP3    H125492   3.171   2.134   0.268  0.3970 -1.2096  0.4608
 1359TIP3    H225493   3.261   2.186   0.157  0.7646 -0.3350  1.1565
 1360TIP3   OH225494   3.122   6.297  16.046  0.1337 -0.2972  0.1912
 1360TIP3    H125495   3.156   6.211  16.022 -1.0684 -0.9705  0.8657
 1360TIP3    H225496   3.156   6.313  16.134 -0.6499 -0.6409  0.5646
 1361TIP3   OH225497   6.310   1.620  12.851 -0.1194 -0.1398 -0.1512
 1361TIP3    H125498   6.398   1.626  12.813  0.0673  1.3943  0.4721
 1361TIP3    H225499   6.260   1.688  12.806 -0.0240  1.3891  1.9177
 1362TIP3   OH225500   6.012   5.823   0.633  0.0915 -0.0995  0.2120
 1362TIP3    H125501   6.094   5.784   0.662  0.1524 -2.0956 -2.3202
 1362TIP3    H225502   6.036   5.881   0.561 -0.6041  0.0069  0.0507
 1363TIP3   OH225503   2.609   4.171   3.228 -0.3386 -0.7067 -0.5908
 1363TIP3    H125504   2.599   4.173   3.324  0.6427 -1.6348 -0.4563
 1363TIP3    H225505   2.531   4.217   3.196 -1.3737 -1.5336  0.6155
 1364TIP3   OH225506   2.139   3.177  15.216 -0.1776 -0.0251 -0.1400
 1364TIP3    H125507   2.110   3.090  15.192 -1.4205  0.7515 -1.5759
 1364TIP3    H225508   2.235   3.173  15.211 -0.2596 -1.0511 -1.0995
 1365TIP3   OH225509   3.270   3.442   1.849 -0.4631 -0.0909  0.1996
 1365TIP3    H125510   3.311   3.373   1.797  1.3382  0.8425  0.2821
 1365TIP3    H225511   3.343   3.496   1.879 -1.5846  0.3628  2.3272
 1366TIP3   OH225512   0.387   5.235  14.336  0.2200 -0.1995 -0.0382
 1366TIP3    H125513   0.444   5.306  14.367  0.4820  0.0180 -0.9989
 1366TIP3    H225514   0.302   5.254  14.376  0.2157  0.8259 -0.4976
 1367TIP3   OH225515   4.664   1.895   5.814 -0.1968 -0.1234  0.3689
 1367TIP3    H125516   4.707   1.847   5.884  0.0926  2.1845  1.8743
 1367TIP3    H225517   4.581   1.925   5.853  0.3302  1.8774  0.0609
 1368TIP3   OH225518   4.750   1.129  11.871  0.3073  0.3469 -0.1691
 1368TIP3    H125519   4.799   1.135  11.789  2.4413  1.1940  1.0841
 1368TIP3    H225520   4.676   1.072  11.851  1.6760 -0.8308 -2.2556
 1369TIP3   OH225521   3.281   1.721   5.381 -0.5941 -0.1267  0.3780
 1369TIP3    H125522   3.223   1.656   5.340  0.4031  1.0241 -3.2192
 1369TIP3    H225523   3.364   1.676   5.392 -0.4875 -0.0649 -0.1592
 1370TIP3   OH225524   4.957   0.408  13.346 -0.5529  0.2918  0.1814
 1370TIP3    H125525   4.934   0.315  13.348  0.0986  0.0792 -1.1245
 1370TIP3    H225526   4.926   0.438  13.260  1.7021  0.5795 -0.6104
 1371TIP3   OH225527   1.315   6.584   1.859 -0.6599 -0.8012  0.4109
 1371TIP3    H125528   1.387   6.532   1.825  0.4094  0.0500  1.3126
 1371TIP3    H225529   1.289   6.540   1.940 -1.3738 -1.2769 -0.0649
 1372TIP3   OH225530   3.801   0.207  11.420 -0.1722  0.3867 -0.6662
 1372TIP3    H125531   3.760   0.270  11.361  0.4849  2.1817  0.6934
 1372TIP3    H225532   3.881   0.180  11.376 -1.6610 -1.4823 -2.3754
 1373TIP3   OH225533   1.857   2.947   5.965 -0.2025  0.4797 -0.0834
 1373TIP3    H125534   1.788   2.888   5.933 -0.0966  1.3770 -2.0847
 1373TIP3    H225535   1.846   3.027   5.914  2.0425  0.8071 -0.1601
 1374TIP3   OH225536   1.151   1.249   5.872 -0.4169  0.0086 -0.3424
 1374TIP3    H125537   1.206   1.316   5.832 -0.4511 -0.5054 -1.2822
 1374TIP3    H225538   1.214   1.187   5.910 -0.2869 -0.8052 -1.7875
 1375TIP3   OH225539   3.023   6.162   1.667  0.4861 -0.4256 -0.3201
 1375TIP3    H125540   3.008   6.085   1.611 -0.2878  0.2670 -1.1010
 1375TIP3    H225541   3.096   6.137   1.723  2.9894 -0.3409 -3.2395
 1376TIP3   OH225542   2.795   2.828  12.709 -0.0209 -0.4605 -0.3091
 1376TIP3    H125543   2.774   2.868  12.793 -1.2186 -1.3620 -0.1488
 1376TIP3    H225544   2.852   2.891  12.665  1.2665 -0.3089  1.4818
 1377TIP3   OH225545   4.938   1.168  16.547  0.4273  0.1171 -0.6433
 1377TIP3    H125546   4.915   1.106  16.477  0.0765 -0.0235 -0.4107
 1377TIP3    H225547   4.926   1.254  16.508 -0.0258  0.0417 -0.6832
 1378TIP3   OH225548   6.505   1.501  14.442 -0.3821  1.0089 -0.1345
 1378TIP3    H125549   6.419   1.488  14.401 -0.5012  2.5788 -0.4488
 1378TIP3    H225550   6.546   1.570  14.390  0.3668  1.4911  1.0585
 1379TIP3   OH225551   3.144   2.924  11.682 -0.4582 -0.3189  0.0538
 1379TIP3    H125552   3.069   2.880  11.641 -0.2404 -0.1276 -0.5571
 1379TIP3    H225553   3.186   2.972  11.611 -0.3004  0.3409  0.5792
 1380TIP3   OH225554   0.464   2.048  11.378  0.1265  0.1236 -0.1706
 1380TIP3    H125555   0.407   1.997  11.320  0.1114 -0.1143  0.0553
 1380TIP3    H225556   0.548   2.050  11.333  0.7831 -1.9996  0.8510
 1381TIP3   OH225557   1.311   2.492   2.658  0.7100 -0.5142 -0.3608
 1381TIP3    H125558   1.236   2.551   2.650  0.0082 -1.2936  0.3847
 1381TIP3    H225559   1.386   2.551   2.667 -0.2213  0.3545  2.8269
 1382TIP3   OH225560   3.924   5.886  10.794  0.5977  0.0026 -0.1083
 1382TIP3    H125561   3.873   5.919  10.720 -0.4411  1.9657  1.3846
 1382TIP3    H225562   4.000   5.944  10.799  0.9305 -0.4430  0.0543
 1383TIP3   OH225563   6.078   6.140  16.440  0.0336 -0.3638 -0.0926
 1383TIP3    H125564   5.985   6.161  16.428  0.0799 -0.2477 -0.2552
 1383TIP3    H225565   6.098   6.172  16.528  0.7314  2.6667 -1.2157
 1384TIP3   OH225566   1.928   4.904  11.793  0.3590  0.0087  0.1804
 1384TIP3    H125567   1.974   4.915  11.711 -0.2693  0.7344 -0.0889
 1384TIP3    H225568   1.989   4.934  11.860  0.8152 -0.4434 -0.0257
 1385TIP3   OH225569   5.812   5.174   5.524 -0.1891  0.3969  0.0705
 1385TIP3    H125570   5.739   5.172   5.463 -0.9260  1.6042  0.8704
 1385TIP3    H225571   5.864   5.250   5.498  0.1516  0.2145  0.2116
 1386TIP3   OH225572   6.403   6.192  11.213  0.3245  0.0137 -0.3817
 1386TIP3    H125573   6.478   6.203  11.270  0.4355 -0.7767 -0.3693
 1386TIP3    H225574   6.373   6.282  11.195  0.9107  0.3057  0.0737
 1387TIP3   OH225575   1.529   2.307   4.252 -0.7733  0.4518 -0.5822
 1387TIP3    H125576   1.511   2.273   4.164  0.7722 -1.0538 -0.3756
 1387TIP3    H225577   1.587   2.241   4.292  0.5897  2.3080  0.6830
 1388TIP3   OH225578   3.491   6.511  17.242  0.3282  0.1604  0.5405
 1388TIP3    H125579   3.413   6.473  17.202 -0.8624  2.5722  0.3969
 1388TIP3    H225580   3.537   6.553  17.169  2.4791 -2.1937  0.3983
 1389TIP3   OH225581   6.247   6.346  13.202 -0.0946  0.1998  0.3269
 1389TIP3    H125582   6.330   6.394  13.200  0.8305 -1.1895 -3.5445
 1389TIP3    H225583   6.193   6.391  13.137 -1.1612 -0.9277  0.4085
 1390TIP3   OH225584   1.477   0.246  15.490 -0.4348 -0.2487  0.4853
 1390TIP3    H125585   1.441   0.261  15.578  0.1594  0.9834  0.5386
 1390TIP3    H225586   1.543   0.314  15.480 -1.3737  0.4296 -1.4312
 1391TIP3   OH225587   2.638   5.923   4.806 -1.1603 -0.9540 -0.7732
 1391TIP3    H125588   2.693   5.863   4.757  1.3241  1.8366 -1.7138
 1391TIP3    H225589   2.652   5.899   4.898  0.8609 -1.0162 -1.0525
 1392TIP3   OH225590   1.806   0.413  14.237 -0.1279 -0.4418  0.0720
 1392TIP3    H125591   1.775   0.323  14.225 -0.7145 -0.0433 -1.8186
 1392TIP3    H225592   1.740   0.467  14.195 -1.4955  1.2369  3.9329
 1393TIP3   OH225593   1.062   2.484  16.549  0.4191 -0.9414  0.4574
 1393TIP3    H125594   1.158   2.481  16.552  0.3939 -1.6001  0.7519
 1393TIP3    H225595   1.037   2.516  16.636  0.4101  0.7393 -0.1235
 1394TIP3   OH225596   2.313   0.398  13.707  0.2743 -0.4810 -0.4507
 1394TIP3    H125597   2.340   0.467  13.646 -0.2665 -0.5340 -0.7524
 1394TIP3    H225598   2.282   0.327  13.651 -3.0117  0.5666 -0.1411
 1395TIP3   OH225599   5.519   1.164   5.474  0.5183  0.3746  0.2476
 1395TIP3    H125600   5.564   1.215   5.406 -1.0487  0.7450 -0.5665
 1395TIP3    H225601   5.533   1.073   5.448 -0.0219  0.5099 -0.5666
 1396TIP3   OH225602   0.472   3.840  15.299 -0.0029 -0.6474 -0.0356
 1396TIP3    H125603   0.564   3.863  15.313  0.1004 -1.2681  0.3535
 1396TIP3    H225604   0.468   3.746  15.315 -0.8449 -0.5012  0.7130
 1397TIP3   OH225605   5.430   5.017   5.442 -0.1641  0.3384 -0.1484
 1397TIP3    H125606   5.365   5.048   5.379 -0.0475 -1.7084 -1.3751
 1397TIP3    H225607   5.380   4.998   5.521 -0.3450  2.7219  0.3953
 1398TIP3   OH225608   1.161   0.508   0.060  0.3516  0.3174  0.4671
 1398TIP3    H125609   1.234   0.493  -0.001 -0.6800 -0.6937 -0.5568
 1398TIP3    H225610   1.092   0.546   0.005  0.4187  2.2704  1.6337
 1399TIP3   OH225611   5.230   1.944   3.590  0.1773 -1.0023  0.1250
 1399TIP3    H125612   5.173   1.887   3.642 -1.4976  0.1539 -0.3422
 1399TIP3    H225613   5.295   1.885   3.551 -2.0645 -2.8062 -1.1437
 1400TIP3   OH225614   0.990   0.727   3.227  0.0271 -0.2399 -0.3352
 1400TIP3    H125615   0.977   0.750   3.319 -0.0638 -1.3702 -0.0601
 1400TIP3    H225616   0.960   0.805   3.179  0.3086  0.4535  0.5864
 1401TIP3   OH225617   5.139   1.727  14.694 -0.0486 -0.1519  0.1450
 1401TIP3    H125618   5.172   1.799  14.746  0.2926 -0.0423 -0.2166
 1401TIP3    H225619   5.214   1.698  14.642 -1.1039  1.8643 -2.7433
 1402TIP3   OH225620   4.901   5.432  11.131  0.1773  0.3694  0.7800
 1402TIP3    H125621   4.848   5.381  11.070  0.5508  0.6071  0.2562
 1402TIP3    H225622   4.981   5.380  11.143  0.5128  0.7700  0.3277
 1403TIP3   OH225623   0.521   5.454   3.310 -0.0117  0.1337 -0.0396
 1403TIP3    H125624   0.501   5.541   3.346 -1.5101 -0.3725  0.4255
 1403TIP3    H225625   0.437   5.422   3.276  0.9272 -0.3073 -2.0822
 1404TIP3   OH225626   6.707   2.465   5.842 -0.2295 -0.3147  1.0183
 1404TIP3    H125627   6.787   2.420   5.815  0.1028  0.8826 -0.0852
 1404TIP3    H225628   6.733   2.556   5.853 -1.3489  0.0132  1.0623
 1405TIP3   OH225629   3.429   5.938  13.465  0.4247  0.1985  0.4258
 1405TIP3    H125630   3.468   5.962  13.381  3.7185 -1.2388  1.4021
 1405TIP3    H225631   3.381   5.858  13.447  1.3417 -0.2548 -0.0526
 1406TIP3   OH225632   6.099   0.885   2.762 -0.3125  0.2279 -0.0188
 1406TIP3    H125633   6.188   0.849   2.756 -0.0695  0.8472 -0.3259
 1406TIP3    H225634   6.080   0.915   2.673 -1.1277 -0.5679 -0.1193
 1407TIP3   OH225635   0.681   1.004   5.171 -0.1213 -0.2204 -0.0814
 1407TIP3    H125636   0.735   0.927   5.188  1.8376  0.1706 -3.4842
 1407TIP3    H225637   0.591   0.973   5.179  0.4370 -1.3507  4.0461
 1408TIP3   OH225638   0.195   4.160   5.146  1.2351 -0.3403 -0.0495
 1408TIP3    H125639   0.241   4.084   5.110 -0.2578 -1.1707 -0.2769
 1408TIP3    H225640   0.180   4.138   5.238 -0.7914 -1.1801 -0.5231
 1409TIP3   OH225641   1.351   1.158   2.289  0.1992 -0.5083  0.1779
 1409TIP3    H125642   1.291   1.107   2.234  0.7762 -1.4769  0.4033
 1409TIP3    H225643   1.294   1.201   2.353 -0.2813 -1.2216  0.2474
 1410TIP3   OH225644   0.119   5.715  13.495  0.1537  0.3541  0.1589
 1410TIP3    H125645   0.113   5.710  13.591 -1.5416 -0.0291  0.0616
 1410TIP3    H225646   0.060   5.786  13.471  0.2983  0.2147 -0.6252
 1411TIP3   OH225647   5.158   0.448  13.024  0.2247  0.2306 -0.1242
 1411TIP3    H125648   5.234   0.486  13.068 -0.9433  1.6666  0.7449
 1411TIP3    H225649   5.093   0.518  13.024 -1.4070 -1.2109 -0.0800
 1412TIP3   OH225650   4.351   3.479  12.474 -0.0141 -0.1602  0.0684
 1412TIP3    H125651   4.381   3.484  12.383 -1.6032 -2.7234 -0.6965
 1412TIP3    H225652   4.386   3.396  12.506 -1.4104 -0.4194  1.0017
 1413TIP3   OH225653   5.044   3.427  13.348 -0.1867  0.4074 -0.0811
 1413TIP3    H125654   5.019   3.372  13.422  0.0263  0.9046  0.3647
 1413TIP3    H225655   5.060   3.365  13.276  1.3261 -0.2304  0.7715
 1414TIP3   OH225656   4.443   0.965  15.542  0.0592  0.1621 -0.0870
 1414TIP3    H125657   4.510   0.897  15.544 -1.5452 -1.4725  1.4549
 1414TIP3    H225658   4.366   0.923  15.504 -1.4743  0.5560  2.3937
 1415TIP3   OH225659   0.231   2.142  12.452 -0.2351 -0.1120 -0.3833
 1415TIP3    H125660   0.272   2.210  12.398 -1.2808  0.1303 -0.8968
 1415TIP3    H225661   0.139   2.166  12.456 -0.1283  0.1388  1.9424
 1416TIP3   OH225662   4.323   3.285  11.445 -0.0077  0.0033  0.0037
 1416TIP3    H125663   4.407   3.260  11.405  0.6586  0.4921  1.0442
 1416TIP3    H225664   4.327   3.380  11.450 -0.4405 -0.0010  0.4513
 1417TIP3   OH225665   5.324   3.024   6.020 -0.0140 -0.4238 -0.2781
 1417TIP3    H125666   5.416   3.042   6.005 -0.2775  0.0168 -1.3972
 1417TIP3    H225667   5.316   2.929   6.008  0.0773 -0.2996 -1.4090
 1418TIP3   OH225668   6.582   0.942   3.735 -0.4895  0.1346  0.0788
 1418TIP3    H125669   6.617   0.856   3.712  0.9124  0.6029  0.3598
 1418TIP3    H225670   6.489   0.936   3.714 -0.1761 -1.0239 -1.1289
 1419TIP3   OH225671   0.335   0.926   3.203  0.5336  0.4562 -0.1611
 1419TIP3    H125672   0.242   0.905   3.211  0.2351  0.6212 -2.4071
 1419TIP3    H225673   0.354   0.980   3.279 -0.7377 -1.0241  1.3011
 1420TIP3   OH225674   0.624   5.261  16.493 -0.4257  0.2073  0.3782
 1420TIP3    H125675   0.644   5.222  16.578  1.0369  0.4126  0.1462
 1420TIP3    H225676   0.543   5.310  16.508  0.2867  0.9896  1.8834
 1421TIP3   OH225677   4.508   2.417   0.664  0.7210 -0.0603 -0.0056
 1421TIP3    H125678   4.560   2.430   0.584  1.1893 -0.7372  0.1800
 1421TIP3    H225679   4.573   2.414   0.734  0.2862  0.8712  0.4563
 1422TIP3   OH225680   6.499   3.552   5.801 -0.2876  0.2910 -0.0008
 1422TIP3    H125681   6.471   3.518   5.886  1.1736  0.1595  0.4486
 1422TIP3    H225682   6.464   3.490   5.738 -0.8756  0.0566  0.5445
 1423TIP3   OH225683   5.175   1.327   4.016 -0.2438 -0.5091  0.5299
 1423TIP3    H125684   5.096   1.343   4.068  0.3590 -0.6759  1.5315
 1423TIP3    H225685   5.148   1.262   3.951 -1.5967  1.3062 -0.8265
 1424TIP3   OH225686   4.267   5.317   4.571  0.5342  0.3064  0.6749
 1424TIP3    H125687   4.322   5.355   4.640  0.8053  2.0438 -0.4406
 1424TIP3    H225688   4.328   5.281   4.508  0.3498  0.5366  0.3602
 1425TIP3   OH225689   0.364   3.309   5.077  0.3344 -0.4720 -0.6174
 1425TIP3    H125690   0.387   3.221   5.108  0.6655 -0.3752 -0.5783
 1425TIP3    H225691   0.381   3.305   4.982 -1.3698 -0.9864 -0.9241
 1426TIP3   OH225692   0.462   1.598  12.819 -0.0434  0.5293 -0.2239
 1426TIP3    H125693   0.369   1.593  12.842 -0.2325  1.1622 -0.8129
 1426TIP3    H225694   0.484   1.690  12.829 -0.0365  0.7632 -2.1472
 1427TIP3   OH225695   2.382   0.619   6.535 -0.2201 -0.3048  0.7437
 1427TIP3    H125696   2.393   0.525   6.519 -0.4256 -0.4116  1.2090
 1427TIP3    H225697   2.324   0.649   6.465 -0.0689 -0.5030  0.5318
 1428TIP3   OH225698   0.190   5.185   0.460 -0.9369 -0.3402 -0.0971
 1428TIP3    H125699   0.229   5.099   0.475  1.2458  0.8122  1.3940
 1428TIP3    H225700   0.258   5.234   0.413 -0.4497  1.7130  2.4727
 1429TIP3   OH225701   6.684   2.823  14.103 -0.5407  0.0249 -0.6058
 1429TIP3    H125702   6.770   2.859  14.083 -0.5811  0.4941  0.0572
 1429TIP3    H225703   6.684   2.736  14.061  1.4958 -1.4449  2.1032
 1430TIP3   OH225704   4.727   4.348  11.920 -0.0526  0.5854 -0.1967
 1430TIP3    H125705   4.746   4.437  11.890  0.6310  0.8038  0.8395
 1430TIP3    H225706   4.643   4.355  11.965  0.5255  0.9559  0.8614
 1431TIP3   OH225707   2.773   6.333   1.184  0.0242 -0.1232 -0.0160
 1431TIP3    H125708   2.734   6.328   1.097  1.5327  1.3164 -0.8224
 1431TIP3    H225709   2.844   6.268   1.182  1.1686  1.0887 -0.5131
 1432TIP3   OH225710   2.580   4.534  16.143  0.0249 -0.1451 -0.3079
 1432TIP3    H125711   2.634   4.467  16.100  0.2628 -0.1927  0.0628
 1432TIP3    H225712   2.595   4.614  16.092 -1.4486 -0.6966 -1.7148
 1433TIP3   OH225713   6.159   2.573   2.490 -0.0016 -0.4633 -0.4942
 1433TIP3    H125714   6.080   2.613   2.526 -0.5409 -2.1324  0.2835
 1433TIP3    H225715   6.127   2.496   2.443  1.0901 -0.6441 -0.9630
 1434TIP3   OH225716   1.339   1.994   0.828 -0.1177 -0.0958  0.0429
 1434TIP3    H125717   1.415   2.019   0.881 -0.1009  1.7552 -0.7609
 1434TIP3    H225718   1.264   2.026   0.878 -0.3661 -1.4709  0.5913
 1435TIP3   OH225719   0.418   2.829   4.319 -0.0880  0.3591  0.0238
 1435TIP3    H125720   0.480   2.800   4.386  0.8483 -0.5915 -1.1966
 1435TIP3    H225721   0.457   2.910   4.284 -0.2540  0.5145  0.1972
 1436TIP3   OH225722   5.897   5.376   6.319 -0.0159 -0.3610  0.0899
 1436TIP3    H125723   5.913   5.429   6.242  1.1220 -0.9690 -0.1205
 1436TIP3    H225724   5.891   5.439   6.391 -0.1333  0.1408 -0.3561
 1437TIP3   OH225725   4.984   0.673  12.805 -0.0653 -0.2405  0.2611
 1437TIP3    H125726   4.944   0.748  12.849  0.8373 -0.7401  2.0504
 1437TIP3    H225727   4.969   0.688  12.712 -0.1289  2.0309  0.5892
 1438TIP3   OH225728   5.433   3.076   5.258 -0.2434  0.4702 -0.5877
 1438TIP3    H125729   5.404   3.136   5.326 -0.4491  2.3213 -2.2286
 1438TIP3    H225730   5.354   3.031   5.230  0.3334 -3.3392  2.9811
 1439TIP3   OH225731   1.622   0.937   6.288 -0.1338 -0.2464  0.4665
 1439TIP3    H125732   1.654   0.870   6.350  0.3302 -0.1250  0.3653
 1439TIP3    H225733   1.628   0.894   6.203  0.0912 -0.1023  0.4100
 1440TIP3   OH225734   1.077   4.084   5.637  1.0612 -0.5048  0.1913
 1440TIP3    H125735   1.151   4.144   5.634  0.3105  0.5129  1.3893
 1440TIP3    H225736   1.064   4.065   5.730  1.1680 -2.4153 -0.1286
 1441TIP3   OH225737   4.574   6.525  14.877  0.6820  0.0402 -0.3291
 1441TIP3    H125738   4.509   6.455  14.876  1.9956 -1.2719 -3.1337
 1441TIP3    H225739   4.534   6.595  14.824 -0.0887  0.9945  1.4107
 1442TIP3   OH225740   5.730   4.357   1.601 -0.4186  0.8242 -0.5914
 1442TIP3    H125741   5.784   4.380   1.525  0.3013 -2.3711 -1.1683
 1442TIP3    H225742   5.790   4.310   1.659 -1.5084  1.2726  0.9568
 1443TIP3   OH225743   2.049   1.822  11.919  0.3939 -0.1553  0.0624
 1443TIP3    H125744   2.131   1.814  11.967  1.3433 -1.1249 -1.6166
 1443TIP3    H225745   2.014   1.733  11.917 -0.3136  0.1167  0.1224
 1444TIP3   OH225746   0.923   0.433  16.951  0.0317 -0.3098  0.1731
 1444TIP3    H125747   0.863   0.365  16.985 -0.4534 -0.0723 -0.2016
 1444TIP3    H225748   0.957   0.476  17.030  1.7517 -2.1473  0.5280
 1445TIP3   OH225749   5.555   0.610  15.053 -0.3930  0.1797  0.1594
 1445TIP3    H125750   5.524   0.520  15.067 -0.6682  0.0855 -0.8990
 1445TIP3    H225751   5.491   0.665  15.098 -0.5928 -0.1360  0.2612
 1446TIP3   OH225752   0.026   0.743   0.534  0.1335 -0.0022 -0.4763
 1446TIP3    H125753   0.044   0.816   0.594 -0.7091  0.1829 -0.4330
 1446TIP3    H225754   0.085   0.674   0.563  1.5584  0.9386 -1.0618
 1447TIP3   OH225755   4.666   3.928  17.420 -0.1317  0.0506 -0.3709
 1447TIP3    H125756   4.622   3.846  17.443  0.9445  0.2673  3.0330
 1447TIP3    H225757   4.751   3.900  17.384 -0.1441 -0.3305 -0.1094
 1448TIP3   OH225758   0.410   3.389  17.391 -0.4335 -0.0629  0.6665
 1448TIP3    H125759   0.324   3.428  17.407 -1.1181 -1.7419  1.3822
 1448TIP3    H225760   0.394   3.322  17.324  0.4518  0.0591  0.3206
 1449TIP3   OH225761   0.449   1.225   5.636 -0.0837 -0.1542  0.2425
 1449TIP3    H125762   0.530   1.202   5.589  0.6556  0.9959  0.9085
 1449TIP3    H225763   0.383   1.233   5.567 -0.0103 -2.4755 -0.1973
 1450TIP3   OH225764   0.567   3.219   6.625  0.4039  0.1286 -0.1716
 1450TIP3    H125765   0.497   3.283   6.637  1.7602  1.7618 -0.5386
 1450TIP3    H225766   0.611   3.247   6.544  1.6970 -0.6205  0.2432
 1451TIP3   OH225767   4.123   4.062  13.332 -0.0134 -0.0049  0.7339
 1451TIP3    H125768   4.156   3.995  13.393  2.0776  2.0984  2.1098
 1451TIP3    H225769   4.117   4.017  13.248  1.3827 -1.9063  1.5639
 1452TIP3   OH225770   3.187   2.639   1.671  0.3854 -0.5205  0.1372
 1452TIP3    H125771   3.280   2.631   1.692  0.5150  0.6499  0.1085
 1452TIP3    H225772   3.143   2.626   1.755  0.5747 -1.0446  0.1569
 1453TIP3   OH225773   5.887   3.256   1.233 -0.1840 -0.5501 -0.1017
 1453TIP3    H125774   5.925   3.299   1.157 -2.4297  0.8446 -0.5075
 1453TIP3    H225775   5.870   3.327   1.295 -1.8913 -1.1270  0.1337
 1454TIP3   OH225776   2.258   1.736  14.794  0.3066  0.6032 -0.0827
 1454TIP3    H125777   2.322   1.805  14.813  0.8397  0.0742  0.0573
 1454TIP3    H225778   2.280   1.707  14.705  2.2112 -1.6345  1.0202
 1455TIP3   OH225779   1.088   1.979  13.049 -0.8818 -0.2487 -0.1291
 1455TIP3    H125780   1.128   2.057  13.010 -2.2972  0.6291  0.0754
 1455TIP3    H225781   0.999   2.007  13.070 -0.5653 -1.0663  2.5866
 1456TIP3   OH225782   0.354   2.658   5.768  0.4458 -0.2244  0.0655
 1456TIP3    H125783   0.400   2.660   5.851 -0.6253  0.7394  0.6690
 1456TIP3    H225784   0.263   2.677   5.791  0.1561  0.2022 -1.3370
 1457TIP3   OH225785   1.927   4.058   3.464 -0.0201  0.3002  0.0182
 1457TIP3    H125786   1.847   4.109   3.452 -0.6558 -0.5773  0.4119
 1457TIP3    H225787   1.928   4.036   3.557  0.1695 -0.5229 -0.1723
 1458TIP3   OH225788   5.000   1.836   1.421  0.6362  0.2710 -0.3666
 1458TIP3    H125789   4.971   1.925   1.440 -1.8595 -0.4381 -0.4258
 1458TIP3    H225790   5.082   1.826   1.469 -0.0425  1.9697  1.2745
 1459TIP3   OH225791   2.457   5.871   1.779  0.4155  0.1587 -0.2575
 1459TIP3    H125792   2.499   5.904   1.858 -1.5200 -2.2306  1.9501
 1459TIP3    H225793   2.404   5.945   1.748 -0.1956  0.6523  1.7797
 1460TIP3   OH225794   0.639   1.226  17.378  0.5427 -0.3381 -0.6996
 1460TIP3    H125795   0.578   1.195  17.445  0.3149  0.6852 -0.4112
 1460TIP3    H225796   0.702   1.281  17.425 -0.6890  1.9175 -1.5060
 1461TIP3   OH225797   4.334   0.712   2.744 -0.1078  0.0793  0.5700
 1461TIP3    H125798   4.316   0.806   2.755 -2.1035 -0.1769 -0.0899
 1461TIP3    H225799   4.363   0.704   2.653  0.8709  0.1302  0.8607
 1462TIP3   OH225800   2.535   3.704   3.776 -0.3342 -0.3604  0.7633
 1462TIP3    H125801   2.604   3.769   3.765 -1.0482  0.5192  1.3496
 1462TIP3    H225802   2.454   3.756   3.781 -1.1966 -1.4185 -1.1340
 1463TIP3   OH225803   1.116   4.364  15.420  0.3461 -0.2868 -0.2696
 1463TIP3    H125804   1.078   4.423  15.355 -0.0786 -0.0970  0.1444
 1463TIP3    H225805   1.180   4.418  15.466 -0.3937  0.0048  0.4399
 1464TIP3   OH225806   3.780   3.297  14.491 -0.3060  0.0146  0.5681
 1464TIP3    H125807   3.831   3.277  14.412  0.3429  1.0049  0.7190
 1464TIP3    H225808   3.745   3.384  14.474  0.3614  0.5050  1.6269
 1465TIP3   OH225809   3.713   4.139  14.927  0.5003 -0.2633 -0.0222
 1465TIP3    H125810   3.672   4.161  15.011 -1.7111 -2.5651 -0.3950
 1465TIP3    H225811   3.709   4.221  14.877  1.4903  1.0412  1.8922
 1466TIP3   OH225812   2.546   3.660  15.491  0.6182  0.6381  0.4123
 1466TIP3    H125813   2.592   3.590  15.537  1.2914  0.3165 -0.6991
 1466TIP3    H225814   2.613   3.700  15.435 -0.2520  0.6953 -0.6384
 1467TIP3   OH225815   5.780   5.364   5.158 -0.2129  0.0901 -0.6031
 1467TIP3    H125816   5.709   5.371   5.222 -0.4129  1.2720 -0.9165
 1467TIP3    H225817   5.836   5.439   5.178  1.5488 -1.4148  0.3234
 1468TIP3   OH225818   4.725   0.418  16.993 -0.8023  0.1376  0.5460
 1468TIP3    H125819   4.710   0.329  17.023 -0.9415  0.4938  1.5780
 1468TIP3    H225820   4.644   0.465  17.012 -1.1766  0.2269 -1.0930
 1469TIP3   OH225821   6.435   6.620   3.873 -0.4379 -0.5847 -0.8785
 1469TIP3    H125822   6.527   6.626   3.846 -0.3645 -0.9382 -0.7146
 1469TIP3    H225823   6.437   6.562   3.950 -0.6935  0.0956 -0.3591
 1470TIP3   OH225824   3.512   4.331  17.396 -0.4981 -0.9990 -0.4597
 1470TIP3    H125825   3.584   4.287  17.350 -0.2997 -0.9108 -0.2300
 1470TIP3    H225826   3.433   4.301  17.350 -0.5216 -2.9272  0.7323
 1471TIP3   OH225827   2.264   3.953  15.021  0.3070 -0.0877 -0.5992
 1471TIP3    H125828   2.288   4.041  14.994 -1.9727  0.7450 -0.0973
 1471TIP3    H225829   2.189   3.965  15.080 -1.4525 -2.4523 -2.1657
 1472TIP3   OH225830   2.555   5.761  16.309  0.0129 -0.8227  0.2818
 1472TIP3    H125831   2.644   5.754  16.273  0.0650 -3.9585  0.7135
 1472TIP3    H225832   2.563   5.822  16.382  2.1071 -1.9128  1.0407
 1473TIP3   OH225833   4.367   1.655  15.606 -0.5682  0.1746  0.1931
 1473TIP3    H125834   4.410   1.740  15.617  0.7325 -0.6133  1.4460
 1473TIP3    H225835   4.393   1.626  15.519  1.0317 -0.0222  0.6997
 1474TIP3   OH225836   4.255   5.187   6.335 -0.1467  0.0112  0.9442
 1474TIP3    H125837   4.311   5.262   6.350 -1.6381  1.5744 -0.8386
 1474TIP3    H225838   4.313   5.120   6.297  0.8368  0.9648  0.7338
 1475TIP3   OH225839   3.676   4.195   3.456  0.1595  0.3683 -0.1372
 1475TIP3    H125840   3.764   4.209   3.490  0.4737 -0.4222 -0.5846
 1475TIP3    H225841   3.618   4.235   3.521  0.6801 -1.7854  1.7890
 1476TIP3   OH225842   2.441   4.681   0.554  0.5271  0.3098  0.3863
 1476TIP3    H125843   2.361   4.720   0.518 -0.1835 -1.9614 -0.7108
 1476TIP3    H225844   2.435   4.696   0.649 -0.9307  0.6575  0.2551
 1477TIP3   OH225845   4.126   0.021   6.581  0.4257  0.0777 -0.4737
 1477TIP3    H125846   4.066   0.095   6.572 -1.1106 -1.1517 -0.9780
 1477TIP3    H225847   4.149  -0.002   6.491 -1.4879 -1.8261 -0.5616
 1478TIP3   OH225848   0.101   5.160  16.023 -0.1537  0.3851  0.3516
 1478TIP3    H125849   0.145   5.091  16.073  0.1681  0.1440 -0.2564
 1478TIP3    H225850   0.052   5.209  16.089  0.1827  0.0117  0.8923
 1479TIP3   OH225851   3.510   1.469  13.399 -0.3204  0.2117 -0.2765
 1479TIP3    H125852   3.482   1.495  13.487  1.5832 -1.8752  1.0530
 1479TIP3    H225853   3.471   1.383  13.386 -0.0582  0.2240 -1.2271
 1480TIP3   OH225854   6.398   3.493  17.427  0.3036 -0.3855 -0.3596
 1480TIP3    H125855   6.465   3.540  17.378  1.1955 -2.6212 -1.4085
 1480TIP3    H225856   6.334   3.465  17.361 -1.3407  1.0932  0.5308
 1481TIP3   OH225857   2.383   3.203  15.536 -0.2373  0.1454 -0.2444
 1481TIP3    H125858   2.437   3.281  15.547 -1.7173  1.1060  0.6659
 1481TIP3    H225859   2.312   3.214  15.601 -1.4887 -1.0509 -1.3493
 1482TIP3   OH225860   6.275   2.662   5.027 -0.1541  0.4459  0.2612
 1482TIP3    H125861   6.358   2.669   5.075  0.5904 -1.7264 -0.5810
 1482TIP3    H225862   6.261   2.750   4.992  0.5088  1.4739  2.4247
 1483TIP3   OH225863   3.463   6.148  11.873  0.4727  0.1958  0.4571
 1483TIP3    H125864   3.423   6.104  11.948 -1.1785  1.3425  0.3024
 1483TIP3    H225865   3.517   6.217  11.911 -0.7440  1.0903  0.6266
 1484TIP3   OH225866   4.131   3.305  15.098  0.2290  0.1485  0.1254
 1484TIP3    H125867   4.205   3.308  15.038  1.2785 -0.2910  1.3490
 1484TIP3    H225868   4.055   3.328  15.044  0.9383 -1.3764 -1.6175
 1485TIP3   OH225869   0.527   0.320  15.686  0.1278 -0.2499 -0.1972
 1485TIP3    H125870   0.565   0.405  15.706  0.0066 -0.0617 -0.7636
 1485TIP3    H225871   0.530   0.313  15.591 -1.3639 -0.1603 -0.2837
 1486TIP3   OH225872   1.140   4.614   0.804  0.5695  0.3756 -0.2171
 1486TIP3    H125873   1.141   4.698   0.758 -1.4884  0.3517 -0.4186
 1486TIP3    H225874   1.074   4.626   0.872 -2.5950 -2.1320 -2.5422
 1487TIP3   OH225875   5.577   3.482   2.381  0.4041 -0.2837 -0.3283
 1487TIP3    H125876   5.518   3.433   2.324  0.4376 -0.2552 -0.3875
 1487TIP3    H225877   5.634   3.416   2.419  1.9589 -0.0976 -2.1589
 1488TIP3   OH225878   2.723   3.061  14.638 -0.1048 -0.5864 -0.2215
 1488TIP3    H125879   2.704   2.981  14.590 -1.3794  0.3255 -1.3043
 1488TIP3    H225880   2.690   3.131  14.582  0.2827  0.6555  1.0444
 1489TIP3   OH225881   5.253   4.346  14.540 -0.5689  0.4244 -0.5571
 1489TIP3    H125882   5.222   4.354  14.630 -0.1939 -0.8954 -0.2815
 1489TIP3    H225883   5.234   4.255  14.517  2.6737 -0.4001 -0.4868
 1490TIP3   OH225884   5.590   6.452   4.162  0.6745 -0.1331  0.0884
 1490TIP3    H125885   5.617   6.536   4.198 -0.5295 -0.3362  1.5477
 1490TIP3    H225886   5.538   6.476   4.084  1.3097  0.4123 -0.1780
 1491TIP3   OH225887   3.844   2.136  16.939  0.1743  0.3197  0.0822
 1491TIP3    H125888   3.828   2.104  17.028  0.5621  0.4106  0.1875
 1491TIP3    H225889   3.850   2.057  16.885 -0.0168  0.2627  0.1438
 1492TIP3   OH225890   6.084   3.942  11.203  0.4415  0.1614  0.2376
 1492TIP3    H125891   6.094   3.939  11.298 -0.2162  1.3058  0.3618
 1492TIP3    H225892   6.164   3.901  11.170  0.6062 -0.3938  1.2781
 1493TIP3   OH225893   0.955   4.742   3.206 -0.1395  0.2501  0.5591
 1493TIP3    H125894   0.974   4.831   3.176  0.1414  0.4519  1.3221
 1493TIP3    H225895   0.931   4.752   3.298 -3.3242 -0.0618 -0.1173
 1494TIP3   OH225896   4.853   6.483   5.773  0.9720 -0.0624  0.1928
 1494TIP3    H125897   4.848   6.445   5.861  2.9699  0.5409  0.6093
 1494TIP3    H225898   4.807   6.419   5.718 -0.5606 -0.3247  1.6704
 1495TIP3   OH225899   6.296   1.963  11.249  0.6661  0.3697 -0.3967
 1495TIP3    H125900   6.356   1.994  11.318  0.0719  0.7396 -0.0363
 1495TIP3    H225901   6.302   1.868  11.254  0.2716  0.3790  0.5035
 1496TIP3   OH225902   6.545   1.094   1.250 -0.2788  0.0277  0.0794
 1496TIP3    H125903   6.608   1.115   1.319 -0.1832  0.0890 -0.0261
 1496TIP3    H225904   6.543   1.171   1.194  0.9139 -0.6537 -0.9428
 1497TIP3   OH225905   0.391   5.888  16.789  0.0910  0.7964  0.0081
 1497TIP3    H125906   0.410   5.837  16.710  2.9311 -1.6200  2.0182
 1497TIP3    H225907   0.301   5.866  16.811  0.8102 -2.5602  0.0730
 1498TIP3   OH225908   0.950   6.156   3.149 -0.3660  0.2236 -0.4193
 1498TIP3    H125909   0.911   6.141   3.063 -1.1109 -2.9108  0.3331
 1498TIP3    H225910   0.879   6.195   3.201 -0.1994  1.2371 -0.9213
 1499TIP3   OH225911   3.845   1.550  14.294 -0.1034 -0.4884  0.0036
 1499TIP3    H125912   3.928   1.534  14.339 -0.3598  0.0485  0.6875
 1499TIP3    H225913   3.789   1.590  14.361 -1.6651 -2.8222  0.2158
 1500TIP3   OH225914   6.250   3.430   3.528  0.3086  0.2905  0.1334
 1500TIP3    H125915   6.295   3.425   3.444 -0.1946 -3.1248 -0.0592
 1500TIP3    H225916   6.160   3.454   3.506  0.7002  1.7174 -0.0129
 1501TIP3   OH225917   0.038   0.816   2.827 -0.1680  0.5030  0.0528
 1501TIP3    H125918   0.019   0.811   2.921  0.5924  0.7931  0.2306
 1501TIP3    H225919  -0.030   0.764   2.786 -0.2738  0.0343  0.7994
 1502TIP3   OH225920   6.360   6.653  17.388 -0.0051 -0.2092  0.0763
 1502TIP3    H125921   6.403   6.606  17.460  0.2918  1.1327  0.8200
 1502TIP3    H225922   6.432   6.701  17.346 -0.3061 -0.3609 -0.6076
 1503TIP3   OH225923   3.314   5.494  17.103  0.2506  0.0229 -0.2736
 1503TIP3    H125924   3.337   5.540  17.185 -1.9269 -0.4500  0.6673
 1503TIP3    H225925   3.219   5.501  17.097  0.1812 -1.5220 -1.8454
 1504TIP3   OH225926   1.030   2.801  13.665  0.3399 -0.2044  0.0037
 1504TIP3    H125927   1.125   2.789  13.663  0.1794 -1.6606  0.1074
 1504TIP3    H225928   1.017   2.893  13.640  1.6100 -0.7594 -3.2699
 1505TIP3   OH225929   0.055   5.844  10.575 -0.2970  0.0442 -0.0790
 1505TIP3    H125930   0.123   5.803  10.629  1.4700 -0.4525 -2.4927
 1505TIP3    H225931   0.029   5.922  10.624  0.6953 -0.7287  1.7711
 1506TIP3   OH225932   2.403   0.067  16.530  0.5633  0.0042 -0.0461
 1506TIP3    H125933   2.488   0.027  16.515  0.4968 -0.2145  0.1371
 1506TIP3    H225934   2.344  -0.007  16.547  0.5729  0.2067  0.9435
 1507TIP3   OH225935   1.308   4.388   7.030  0.6845 -0.2951 -0.0718
 1507TIP3    H125936   1.350   4.348   6.953 -0.9430 -0.7441 -0.7798
 1507TIP3    H225937   1.244   4.323   7.058 -0.6007  0.9629  0.0199
 1508TIP3   OH225938   0.107   1.145  15.936  0.2101  0.5651 -0.0631
 1508TIP3    H125939   0.158   1.090  15.878 -0.9758  1.4213 -2.0242
 1508TIP3    H225940   0.055   1.201  15.878 -1.6525  0.9336  1.7993
 1509TIP3   OH225941   4.378   5.811   0.147  0.4450  0.1039  0.2307
 1509TIP3    H125942   4.323   5.888   0.158  0.3457  0.4093 -1.9619
 1509TIP3    H225943   4.317   5.741   0.124  0.7948 -0.0110 -0.3580
 1510TIP3   OH225944   5.769   3.778   1.781  0.3771  0.0467  0.2096
 1510TIP3    H125945   5.798   3.698   1.824  0.0324  1.0513  2.4281
 1510TIP3    H225946   5.673   3.774   1.783  0.3336 -0.1405 -1.0338
 1511TIP3   OH225947   6.635   1.838   4.941  0.3947 -0.3520  0.0200
 1511TIP3    H125948   6.565   1.881   4.990 -0.1812 -0.4542 -0.6898
 1511TIP3    H225949   6.712   1.892   4.959 -0.1128  0.4371 -0.0926
 1512TIP3   OH225950   0.087   0.911  16.328 -0.5699  0.0278  0.0122
 1512TIP3    H125951   0.168   0.877  16.365  0.4186  1.2354 -0.9607
 1512TIP3    H225952   0.031   0.834  16.317  0.1181 -0.7149  1.4471
 1513TIP3   OH225953   0.192   4.769  12.652 -0.1797 -0.1304  0.4819
 1513TIP3    H125954   0.210   4.679  12.626 -0.5816 -0.0084 -0.2335
 1513TIP3    H225955   0.255   4.787  12.722 -0.4586 -1.1483  1.0162
 1514TIP3   OH225956   4.462   0.169   0.713 -0.5407 -0.2003  0.4577
 1514TIP3    H125957   4.497   0.241   0.765  0.8969 -1.5327  1.4405
 1514TIP3    H225958   4.394   0.130   0.768  0.2517 -0.9571  0.9330
 1515TIP3   OH225959   4.243   0.182   4.249 -0.4653  0.2169  0.3195
 1515TIP3    H125960   4.235   0.092   4.218 -0.5101 -1.0735  3.6289
 1515TIP3    H225961   4.153   0.213   4.258 -0.4480  0.6913 -0.9173
 1516TIP3   OH225962   5.041   0.172   3.898 -0.2278 -0.0468  0.8763
 1516TIP3    H125963   5.116   0.179   3.957 -0.3749  1.6369  0.9147
 1516TIP3    H225964   5.058   0.093   3.846  0.8330 -0.4953  1.8795
 1517TIP3   OH225965   0.975   4.170   3.205 -0.1509 -0.3265 -0.6195
 1517TIP3    H125966   0.951   4.145   3.116  1.0018  0.6649 -1.2257
 1517TIP3    H225967   0.933   4.255   3.218 -0.8878 -0.7765  0.0581
 1518TIP3   OH225968   4.857   0.447   5.918 -0.4459 -0.2787  0.5151
 1518TIP3    H125969   4.869   0.409   5.831  0.7249  1.6059 -0.2007
 1518TIP3    H225970   4.872   0.373   5.978 -1.2355 -1.5999 -0.8410
 1519TIP3   OH225971   5.487   2.718   3.017  0.0584 -0.7300  0.0236
 1519TIP3    H125972   5.402   2.757   3.038 -0.4942 -0.3669 -2.5966
 1519TIP3    H225973   5.547   2.753   3.084 -1.0719  2.1038 -0.3216
 1520TIP3   OH225974   1.963   0.471   0.131 -0.2163 -0.3702  0.3588
 1520TIP3    H125975   1.938   0.499   0.043  0.0889 -0.9984  0.0620
 1520TIP3    H225976   2.055   0.446   0.123  0.5593  1.8570  1.4230
 1521TIP3   OH225977   3.748   3.949   3.939 -0.3777 -0.5704  0.2989
 1521TIP3    H125978   3.816   3.977   3.878 -1.0046  1.4992  0.4529
 1521TIP3    H225979   3.789   3.880   3.990  0.3550 -1.9818 -2.0400
 1522TIP3   OH225980   6.006   2.278   0.112  0.1826  0.0089  0.0955
 1522TIP3    H125981   6.071   2.347   0.124  1.7782 -1.2818 -0.6853
 1522TIP3    H225982   5.940   2.296   0.178  1.6880  0.9961  1.4229
 1523TIP3   OH225983   6.504   4.002  13.286  0.0483 -0.5944 -0.3939
 1523TIP3    H125984   6.479   4.055  13.210 -0.9833 -1.2814 -0.5502
 1523TIP3    H225985   6.474   4.053  13.361  1.9485  0.5697 -0.3377
 1524TIP3   OH225986   2.886   0.111   2.319  0.1327 -0.2488 -0.0865
 1524TIP3    H125987   2.838   0.029   2.307  0.7072 -0.8433  1.4524
 1524TIP3    H225988   2.965   0.086   2.368  0.2106  1.2476  0.6026
 1525TIP3   OH225989   3.709   4.518  16.812 -0.0247  0.1237  0.1848
 1525TIP3    H125990   3.694   4.499  16.905 -1.3108 -0.3707 -0.1009
 1525TIP3    H225991   3.659   4.598  16.796  1.8298  1.3615  0.3663
 1526TIP3   OH225992   4.492   4.957  14.924  0.0390  0.2032  0.0902
 1526TIP3    H125993   4.571   4.923  14.881  0.2733 -0.4717  1.0162
 1526TIP3    H225994   4.501   5.053  14.919  0.9192  0.1307  0.1843
 1527TIP3   OH225995   5.142   2.373   4.031 -0.4927 -0.2650  0.1609
 1527TIP3    H125996   5.155   2.289   4.073 -0.6569  0.1579  1.0760
 1527TIP3    H225997   5.163   2.357   3.939  1.6051 -0.7755  0.6911
 1528TIP3   OH225998   5.035   3.132   2.243 -0.0687 -0.0086 -0.0781
 1528TIP3    H125999   4.945   3.157   2.263 -0.1328 -0.4344  0.1659
 1528TIP3    H226000   5.040   3.039   2.266  0.3926 -0.0213 -0.2239
 1529TIP3   OH226001   0.696   0.539  14.160 -0.5306  0.3147 -0.0043
 1529TIP3    H126002   0.688   0.476  14.232  0.9355  1.2570  1.0574
 1529TIP3    H226003   0.787   0.531  14.132 -0.7593  0.8385 -0.9430
 1530TIP3   OH226004   6.098   0.724  12.353  0.0994  0.4307  0.3794
 1530TIP3    H126005   6.007   0.744  12.328  0.1506  2.2688  1.4229
 1530TIP3    H226006   6.091   0.692  12.443  0.4307 -0.0140  0.2460
 1531TIP3   OH226007   0.483   5.647  12.555 -0.6133 -0.0270 -0.4081
 1531TIP3    H126008   0.451   5.636  12.466 -1.6418 -0.4893  0.0039
 1531TIP3    H226009   0.429   5.716  12.592 -0.4177 -0.0659 -0.0376
 1532TIP3   OH226010   5.428   0.121   6.456  0.0813  0.0241 -0.0071
 1532TIP3    H126011   5.512   0.075   6.455  0.7610  1.2493 -0.4166
 1532TIP3    H226012   5.364   0.053   6.481  0.9938 -1.2451 -0.9556
 1533TIP3   OH226013   1.661   2.149  17.482  0.0950 -0.0392 -0.0845
 1533TIP3    H126014   1.612   2.230  17.477  1.3236  0.7294 -0.1812
 1533TIP3    H226015   1.695   2.147  17.572  0.1534 -0.3976 -0.1104
 1534TIP3   OH226016   2.365   2.285  14.784 -0.0948 -0.4169 -0.3512
 1534TIP3    H126017   2.385   2.334  14.704 -0.6815 -0.0931 -0.3052
 1534TIP3    H226018   2.284   2.324  14.817 -1.1773 -2.1212 -0.8714
 1535TIP3   OH226019   2.746   5.372   1.063  0.6000  0.5026  0.4896
 1535TIP3    H126020   2.680   5.434   1.034  0.4291  0.3220  0.4877
 1535TIP3    H226021   2.711   5.286   1.038 -0.2753  0.1973  2.5550
 1536TIP3   OH226022   5.575   1.935   2.467 -0.3466 -0.4923 -0.4833
 1536TIP3    H126023   5.610   1.920   2.379 -1.1256 -0.1401 -0.8641
 1536TIP3    H226024   5.512   1.865   2.480 -0.5752 -0.2673 -0.3884
 1537TIP3   OH226025   1.897   0.895  15.780 -0.0991 -0.4207  0.6863
 1537TIP3    H126026   1.979   0.943  15.773  0.4006 -1.1571  1.3828
 1537TIP3    H226027   1.871   0.905  15.872  0.7421 -2.6159  1.2297
 1538TIP3   OH226028   0.904   4.311  10.768 -0.3736 -0.1972 -1.0286
 1538TIP3    H126029   0.938   4.279  10.852 -1.2535 -1.6208 -1.1807
 1538TIP3    H226030   0.982   4.323  10.714  0.4580  2.8982  0.6126
 1539TIP3   OH226031   0.684   1.657   5.149  0.0805  0.1360 -0.1518
 1539TIP3    H126032   0.626   1.699   5.214  1.1558  2.2367 -0.4483
 1539TIP3    H226033   0.653   1.690   5.065  0.5972 -0.1426 -0.4568
 1540TIP3   OH226034   0.874   0.927  13.469  0.1269 -0.3069  0.3599
 1540TIP3    H126035   0.957   0.904  13.427 -0.2243  1.3329 -1.3456
 1540TIP3    H226036   0.896   0.937  13.562  2.1198  1.2770 -0.2202
 1541TIP3   OH226037   2.287   5.588  16.022 -0.4438  0.0802 -0.3632
 1541TIP3    H126038   2.221   5.641  16.067 -1.1582 -0.5095 -0.7072
 1541TIP3    H226039   2.371   5.620  16.057 -0.8511  1.4502 -0.5923
 1542TIP3   OH226040   2.209   0.837   3.403 -0.1497 -0.2182  0.1450
 1542TIP3    H126041   2.165   0.759   3.368 -0.9609  0.0326  0.5779
 1542TIP3    H226042   2.183   0.907   3.344 -0.4937 -0.0302  0.5189
 1543TIP3   OH226043   2.108   2.893  15.124 -0.3159  0.8516  0.2411
 1543TIP3    H126044   2.062   2.941  15.055 -0.8567 -1.1052 -0.8209
 1543TIP3    H226045   2.038   2.853  15.176  0.1044 -1.3239 -0.7811
 1544TIP3   OH226046   2.751   3.832  17.172  0.4034  0.0163 -0.2576
 1544TIP3    H126047   2.842   3.810  17.194  0.0419 -1.0564  0.2390
 1544TIP3    H226048   2.699   3.767  17.219 -0.6585  0.9919 -0.0444
 1545TIP3   OH226049   0.645   1.145   5.455  0.1046  0.3530 -0.7621
 1545TIP3    H126050   0.713   1.212   5.448 -0.0201  0.3392 -2.8400
 1545TIP3    H226051   0.629   1.118   5.364 -0.5619 -1.7749 -0.0857
 1546TIP3   OH226052   1.159   4.467  16.121 -0.0730 -0.4849 -0.5144
 1546TIP3    H126053   1.226   4.443  16.057 -1.1879 -1.3102 -1.4081
 1546TIP3    H226054   1.118   4.545  16.085  0.1647 -0.1875 -0.1456
 1547TIP3   OH226055   2.139   4.810  15.001  0.8742 -0.2419 -0.2652
 1547TIP3    H126056   2.137   4.786  15.094  1.4317 -1.3679 -0.5165
 1547TIP3    H226057   2.062   4.765  14.964  0.1573  0.9074 -0.2089
 1548TIP3   OH226058   4.021   3.476  17.173 -0.5560  0.5048  1.0512
 1548TIP3    H126059   4.031   3.410  17.104  0.3249  0.6022  1.0770
 1548TIP3    H226060   4.110   3.509  17.188 -0.7913  0.7292  1.9949
 1549TIP3   OH226061   4.288   0.183   0.464  0.4392 -0.2858 -0.3432
 1549TIP3    H126062   4.295   0.123   0.538  2.4333 -1.8658 -1.6888
 1549TIP3    H226063   4.280   0.270   0.504  1.7590 -1.0351  1.7372
 1550TIP3   OH226064   2.463   4.671   0.861  0.0890 -0.6509 -0.1534
 1550TIP3    H126065   2.468   4.754   0.908  2.2394 -0.1123 -1.2094
 1550TIP3    H226066   2.383   4.630   0.893  0.3554  0.6145  2.3865
 1551TIP3   OH226067   0.423   1.369  12.009  0.9299 -0.3254  0.1814
 1551TIP3    H126068   0.481   1.445  12.006 -1.1133  1.3076 -1.9520
 1551TIP3    H226069   0.440   1.322  11.928  0.0375 -0.3908  0.0177
 1552TIP3   OH226070   6.464   0.447  16.165  0.1640  0.6284 -0.3986
 1552TIP3    H126071   6.558   0.432  16.159 -0.3039 -2.9703 -0.6084
 1552TIP3    H226072   6.441   0.489  16.082  1.1392 -1.7094 -1.9284
 1553TIP3   OH226073   2.946   4.120  12.804 -0.6340  0.4017  0.1000
 1553TIP3    H126074   2.906   4.195  12.761 -2.4696 -0.1416  0.7719
 1553TIP3    H226075   2.964   4.058  12.734 -1.1931  0.5675 -0.1911
 1554TIP3   OH226076   5.634   1.831   5.875 -0.4061  0.2449  0.3134
 1554TIP3    H126077   5.729   1.820   5.868 -0.2253  1.5063  0.4790
 1554TIP3    H226078   5.598   1.744   5.860  0.6629  0.1166 -1.8404
 1555TIP3   OH226079   1.610   2.121  11.250 -0.0086 -0.5395 -0.3782
 1555TIP3    H126080   1.523   2.160  11.238  0.2669 -0.0074 -0.7152
 1555TIP3    H226081   1.637   2.151  11.337  0.6313  0.9173 -1.0466
 1556TIP3   OH226082   5.677   0.272   0.623 -0.2406  0.3527  0.1766
 1556TIP3    H126083   5.587   0.242   0.613 -0.5108  1.2272 -0.1161
 1556TIP3    H226084   5.730   0.201   0.584 -0.9090  0.6313 -1.3294
 1557TIP3   OH226085   3.334   4.878   3.017 -0.6507  0.1807 -0.1174
 1557TIP3    H126086   3.258   4.858   3.072 -0.3905  1.0148  0.5734
 1557TIP3    H226087   3.328   4.973   3.003  0.9157  0.4839  0.9858
 1558TIP3   OH226088   0.389   5.515   6.378 -0.9883  0.2419 -0.2980
 1558TIP3    H126089   0.434   5.556   6.452 -0.5729 -1.3225  0.3700
 1558TIP3    H226090   0.313   5.570   6.362  0.2353  2.0086 -0.3397
 1559TIP3   OH226091   0.766   2.153   4.820 -0.2819  0.0207  0.0669
 1559TIP3    H126092   0.703   2.222   4.841 -1.4009 -0.9617  0.0362
 1559TIP3    H226093   0.851   2.191   4.841 -0.8919  1.3088  0.3032
 1560TIP3   OH226094   4.410   2.597   5.452 -0.3368 -0.2472  0.0680
 1560TIP3    H126095   4.458   2.517   5.430  1.7384  0.8118  0.4474
 1560TIP3    H226096   4.322   2.567   5.475  0.5777 -2.5134  0.9276
 1561TIP3   OH226097   5.418   6.173   0.155 -0.3475  0.5963 -0.1862
 1561TIP3    H126098   5.380   6.112   0.218 -0.2409 -0.6449 -1.2828
 1561TIP3    H226099   5.345   6.231   0.131  0.0342  2.2603  2.3582
 1562TIP3   OH226100   0.138   0.432  14.133 -0.6610 -0.4846 -0.5014
 1562TIP3    H126101   0.118   0.489  14.207 -1.3913 -0.2649 -0.8583
 1562TIP3    H226102   0.219   0.468  14.096 -0.8678  0.0445 -0.4466
 1563TIP3   OH226103   6.466   4.029  14.574  0.1109 -0.5452  0.0970
 1563TIP3    H126104   6.395   4.045  14.513  0.3666 -0.6565 -0.2333
 1563TIP3    H226105   6.483   3.935  14.567  0.4013 -0.4901  0.0490
 1564TIP3   OH226106   6.551   6.086   2.339  0.0014  0.1334  0.2037
 1564TIP3    H126107   6.458   6.099   2.322 -0.0254  0.9112  0.8994
 1564TIP3    H226108   6.554   6.008   2.395 -0.3019  0.5900  0.8650
 1565TIP3   OH226109   2.728   3.896  12.116  0.1565  0.3766 -0.0023
 1565TIP3    H126110   2.729   3.881  12.210  0.3776 -1.5043 -0.2581
 1565TIP3    H226111   2.692   3.984  12.106 -1.3615  0.0209  1.7541
 1566TIP3   OH226112   4.288   3.078   2.349 -0.2100 -0.0401 -0.0876
 1566TIP3    H126113   4.231   3.054   2.276 -1.2584 -0.9616  0.9812
 1566TIP3    H226114   4.373   3.039   2.328  0.0641  1.3344 -1.6947
 1567TIP3   OH226115   2.902   3.571   5.822 -0.6507  0.2408 -0.1279
 1567TIP3    H126116   2.828   3.522   5.857 -1.2663 -0.2249 -1.9676
 1567TIP3    H226117   2.923   3.635   5.890 -1.3958 -0.9541  1.2958
 1568TIP3   OH226118   3.366   4.067  11.115  0.6055 -0.1931  0.5793
 1568TIP3    H126119   3.334   3.978  11.099  2.1550 -0.8890  1.1807
 1568TIP3    H226120   3.447   4.073  11.064  0.3415  1.0141  0.2672
 1569TIP3   OH226121   6.107   0.411  11.237 -0.2416  0.4308 -0.1574
 1569TIP3    H126122   6.040   0.419  11.169  2.4152  1.5327 -2.8752
 1569TIP3    H226123   6.137   0.501  11.252  1.0891 -0.0863  0.4446
 1570TIP3   OH226124   0.806   4.114   3.959 -0.6798 -0.1054  0.6837
 1570TIP3    H126125   0.869   4.106   3.887 -0.9026  1.5202  0.2596
 1570TIP3    H226126   0.855   4.086   4.037 -0.3018 -1.4716 -0.0228
 1571TIP3   OH226127   2.587   4.502   3.069 -0.3528  0.0919 -0.2439
 1571TIP3    H126128   2.551   4.417   3.042 -1.7935  0.4881  0.3653
 1571TIP3    H226129   2.656   4.480   3.131 -0.2491 -0.6551 -0.6112
 1572TIP3   OH226130   3.723   5.146   4.546  0.2742 -0.2023  0.1395
 1572TIP3    H126131   3.663   5.170   4.617  0.2655 -2.3438  0.9453
 1572TIP3    H226132   3.804   5.192   4.568 -0.9606  2.6887 -0.9430
 1573TIP3   OH226133   6.449   1.935  15.737 -0.0337 -0.0962 -0.2970
 1573TIP3    H126134   6.468   1.880  15.812 -0.3630  0.5628  0.2856
 1573TIP3    H226135   6.365   1.975  15.757  0.6121  1.3142 -0.2726
 1574TIP3   OH226136   3.134   2.322   3.104 -0.2606  0.0522 -0.0366
 1574TIP3    H126137   3.198   2.392   3.088 -0.0618 -0.3443 -1.0799
 1574TIP3    H226138   3.073   2.359   3.168 -1.9227  2.3259 -2.7069
 1575TIP3   OH226139   0.563   1.187  15.813  0.0843 -0.0325 -0.1901
 1575TIP3    H126140   0.567   1.187  15.909  1.1103 -0.3365 -0.2170
 1575TIP3    H226141   0.483   1.141  15.792 -0.0993 -0.0508  0.5249
 1576TIP3   OH226142   2.368   6.166   2.184 -0.4456  0.0920  0.3017
 1576TIP3    H126143   2.345   6.079   2.150 -0.5831 -0.0624  0.7763
 1576TIP3    H226144   2.460   6.178   2.160 -0.6087  0.0965 -0.3442
 1577TIP3   OH226145   4.363   0.773   3.616 -0.0453  0.1451  0.0903
 1577TIP3    H126146   4.292   0.833   3.593 -1.5861 -1.8105 -0.5508
 1577TIP3    H226147   4.337   0.735   3.700  1.3925  1.0204  0.9807
 1578TIP3   OH226148   0.514   3.603  13.926 -1.4314 -0.1656 -0.6576
 1578TIP3    H126149   0.526   3.517  13.967  0.0944 -0.0891 -0.8793
 1578TIP3    H226150   0.596   3.618  13.879 -2.0526  1.0016 -1.3986
 1579TIP3   OH226151   4.428   6.658   1.975 -0.6493  0.2287  0.5903
 1579TIP3    H126152   4.522   6.640   1.979 -0.2977  1.5198 -1.1005
 1579TIP3    H226153   4.401   6.665   2.067  0.8685 -0.2652  1.0995
 1580TIP3   OH226154   3.083   6.588  14.782  0.4535 -0.3070  0.2682
 1580TIP3    H126155   3.139   6.610  14.857  0.3623 -2.4799  1.0560
 1580TIP3    H226156   3.000   6.562  14.821 -0.7095  1.5749 -0.8170
 1581TIP3   OH226157   0.746   5.772  15.888  0.6314 -0.0172 -0.2552
 1581TIP3    H126158   0.731   5.858  15.849  1.9328  0.1480 -0.4325
 1581TIP3    H226159   0.761   5.791  15.981 -2.1870 -0.3828  0.3783
 1582TIP3   OH226160   3.153   5.502   5.528  0.0610 -0.0210 -0.1476
 1582TIP3    H126161   3.153   5.408   5.544 -1.9544  0.2751  2.1453
 1582TIP3    H226162   3.157   5.542   5.615 -0.4545  2.0037 -0.9802
 1583TIP3   OH226163   3.975   1.490  15.600 -0.0635  0.1331  0.4480
 1583TIP3    H126164   3.898   1.468  15.547 -0.6918 -0.6221  1.6490
 1583TIP3    H226165   3.944   1.487  15.690  1.8052 -2.2568  1.1167
 1584TIP3   OH226166   5.680   1.573  16.034 -0.2226  0.5928  0.0014
 1584TIP3    H126167   5.696   1.555  16.126 -0.3478  2.5170  0.4380
 1584TIP3    H226168   5.692   1.668  16.025 -2.3789  0.8008 -1.5022
 1585TIP3   OH226169   5.434   1.589  17.355  0.4491 -0.2486 -0.0940
 1585TIP3    H126170   5.520   1.549  17.366  1.2528  0.9849 -1.4951
 1585TIP3    H226171   5.375   1.516  17.340  1.6236 -1.0084 -1.1960
 1586TIP3   OH226172   4.326   0.129  15.983  0.2046 -0.0809 -0.4332
 1586TIP3    H126173   4.321   0.198  16.050 -1.1512  1.1416 -1.7293
 1586TIP3    H226174   4.383   0.063  16.022  0.9855  1.4368  1.1537
 1587TIP3   OH226175   1.526   1.178   4.370 -0.5505 -0.2028 -0.7247
 1587TIP3    H126176   1.470   1.114   4.414 -1.4045  1.0790  0.1279
 1587TIP3    H226177   1.559   1.132   4.293 -1.4438 -1.5330 -0.3494
 1588TIP3   OH226178   0.546   0.736   6.099  0.0332 -0.4360  0.0005
 1588TIP3    H126179   0.633   0.699   6.084  0.6554  0.2026  1.7711
 1588TIP3    H226180   0.487   0.677   6.054  1.2900 -1.5721 -0.2254
 1589TIP3   OH226181   6.165   1.580   5.329 -0.1162  0.0462  0.1844
 1589TIP3    H126182   6.084   1.528   5.328 -0.3125  0.3285 -1.4931
 1589TIP3    H226183   6.182   1.599   5.237  1.6265  0.3861  0.5496
 1590TIP3   OH226184   1.439   3.660  12.991  0.8067  0.0111  0.1349
 1590TIP3    H126185   1.443   3.631  12.900  2.0103 -0.9117  0.4544
 1590TIP3    H226186   1.490   3.594  13.039 -0.4028  0.0726  1.5767
 1591TIP3   OH226187   1.735   0.093  17.283  0.1934  0.0995  0.7769
 1591TIP3    H126188   1.664   0.054  17.231  1.2542 -0.0416 -0.6258
 1591TIP3    H226189   1.714   0.069  17.373  0.7744 -3.8634  0.0366
 1592TIP3   OH226190   1.989   2.943  16.355  0.4603 -0.1038 -0.4605
 1592TIP3    H126191   2.069   2.896  16.378  2.1944  1.1183 -3.4619
 1592TIP3    H226192   1.984   3.013  16.420  1.9633 -0.0958 -0.3116
 1593TIP3   OH226193   3.215   5.046  11.390 -0.0999  0.4276 -0.1389
 1593TIP3    H126194   3.277   4.983  11.428 -0.6431  0.8637  1.5201
 1593TIP3    H226195   3.129   5.009  11.410 -0.4059  0.4664 -1.3275
 1594TIP3   OH226196   1.352   2.091   5.355  0.3395  0.3236  0.6260
 1594TIP3    H126197   1.430   2.046   5.323  0.3344  0.9246 -0.2626
 1594TIP3    H226198   1.383   2.176   5.385  0.2528 -0.0177  1.7372
 1595TIP3   OH226199   6.363   5.091  16.822 -0.0832 -0.4206  0.7164
 1595TIP3    H126200   6.337   5.022  16.883 -0.4467 -0.7478  0.1977
 1595TIP3    H226201   6.382   5.166  16.879 -0.1241 -0.8072  1.2533
 1596TIP3   OH226202   5.396   3.516  11.448  0.1815 -0.0603 -0.1396
 1596TIP3    H126203   5.460   3.462  11.493 -0.0919 -2.2306 -2.1355
 1596TIP3    H226204   5.447   3.587  11.408  0.7770  0.2917  1.1938
 1597TIP3   OH226205   1.730   1.490   0.158 -0.5211  0.0691  0.4032
 1597TIP3    H126206   1.651   1.463   0.110 -0.4225 -3.7638  2.0127
 1597TIP3    H226207   1.802   1.452   0.108  0.1283  1.3430  0.3357
 1598TIP3   OH226208   3.068   0.619  13.136 -0.2357  0.3030  0.3911
 1598TIP3    H126209   3.153   0.644  13.099 -0.1734 -1.4181 -0.7290
 1598TIP3    H226210   3.004   0.667  13.084 -0.0516 -0.4185 -0.5124
 1599TIP3   OH226211   3.563   3.829   3.753  0.4719  0.4118 -0.3377
 1599TIP3    H126212   3.636   3.840   3.692  0.2284  1.7547 -0.4193
 1599TIP3    H226213   3.598   3.860   3.837  0.1433  0.6248 -0.2776
 1600TIP3   OH226214   1.956   1.445   3.441  0.2389 -0.0897  0.2562
 1600TIP3    H126215   1.964   1.524   3.387 -1.2008 -0.0640  0.0430
 1600TIP3    H226216   1.911   1.475   3.520 -0.4819 -0.7250  0.0956
 1601TIP3   OH226217   0.144   6.467  12.397 -0.4392 -0.4079 -0.4736
 1601TIP3    H126218   0.146   6.408  12.473 -3.8800 -2.9408 -2.0627
 1601TIP3    H226219   0.201   6.425  12.333 -0.1854 -0.1107 -0.4441
 1602TIP3   OH226220   5.813   4.647  12.054 -0.2718 -0.1597 -0.4600
 1602TIP3    H126221   5.811   4.739  12.080  0.2546 -0.3933  0.4825
 1602TIP3    H226222   5.753   4.603  12.115 -1.4861 -0.2709 -1.7034
 1603TIP3   OH226223   2.149   4.656   4.780  0.0194  0.3044 -0.1137
 1603TIP3    H126224   2.216   4.589   4.766 -1.1102 -0.6415 -1.2227
 1603TIP3    H226225   2.198   4.734   4.808  1.6333 -0.2204 -1.3252
 1604TIP3   OH226226   0.952   0.208  13.948 -0.5602 -0.2760  0.1451
 1604TIP3    H126227   0.975   0.279  14.007 -1.0129  0.5167 -0.6161
 1604TIP3    H226228   1.035   0.180  13.909 -0.6108  1.3985 -1.2787
 1605TIP3   OH226229   4.508   4.697  11.190 -0.0624  0.2180 -0.1586
 1605TIP3    H126230   4.426   4.733  11.158 -0.8238  1.1624  2.5930
 1605TIP3    H226231   4.525   4.744  11.272  2.6719 -0.7119 -0.0903
 1606TIP3   OH226232   4.704   0.840  16.742  0.0565  0.4281 -0.0864
 1606TIP3    H126233   4.739   0.926  16.764 -1.8387  1.3871 -0.6548
 1606TIP3    H226234   4.708   0.836  16.646 -2.9832  1.3712 -0.3538
 1607TIP3   OH226235   0.010   6.349  11.189  0.3031 -0.0670 -0.3762
 1607TIP3    H126236  -0.015   6.440  11.204 -0.9056 -0.3988 -0.2601
 1607TIP3    H226237   0.099   6.342  11.225  0.0303  0.8167  0.5173
 1608TIP3   OH226238   6.702   1.882  17.335 -0.2529 -0.3364  0.1907
 1608TIP3    H126239   6.792   1.913  17.341 -0.0495 -0.6074 -1.1772
 1608TIP3    H226240   6.654   1.957  17.298 -0.1060 -0.9646 -1.3665
 1609TIP3   OH226241   0.101   3.948   3.749 -0.0986  0.3831  0.5811
 1609TIP3    H126242   0.018   3.976   3.711 -0.1177 -2.3783 -1.8074
 1609TIP3    H226243   0.167   4.002   3.706 -0.4843  0.8414  0.5600
 1610TIP3   OH226244   1.576   5.549   0.001  0.4762  0.0469 -0.2807
 1610TIP3    H126245   1.524   5.570  -0.077 -2.4643 -0.6104  1.3593
 1610TIP3    H226246   1.576   5.453   0.005  1.1327  0.0593  0.1997
 1611TIP3   OH226247   6.550   1.588   2.521 -0.0547 -0.6181  0.3070
 1611TIP3    H126248   6.571   1.646   2.594 -0.6742 -2.2122  1.8325
 1611TIP3    H226249   6.471   1.626   2.483  0.0720  0.0411  0.6863
 1612TIP3   OH226250   3.998   1.659  13.372  0.2740 -0.0908 -0.5478
 1612TIP3    H126251   4.043   1.623  13.295  0.3491 -0.9077 -0.1333
 1612TIP3    H226252   3.909   1.677  13.342 -0.0709 -1.6228 -0.4917
 1613TIP3   OH226253   1.836   6.370  12.039 -0.0177 -0.6470  0.4405
 1613TIP3    H126254   1.903   6.437  12.023  1.2728 -1.8260  0.7367
 1613TIP3    H226255   1.843   6.311  11.964 -1.1446 -0.4907  0.1854
 1614TIP3   OH226256   6.001   4.015  14.014  0.3527  0.0272  0.2957
 1614TIP3    H126257   5.978   4.026  14.106 -0.7832 -0.6076  0.0981
 1614TIP3    H226258   5.992   3.921  13.998 -1.6286  0.3904 -1.0118
 1615TIP3   OH226259   5.130   2.495   2.567  0.3191  0.0975  0.4677
 1615TIP3    H126260   5.097   2.426   2.510 -0.8263  0.5746  0.5306
 1615TIP3    H226261   5.069   2.495   2.642 -1.0642  2.6187 -0.5509
 1616TIP3   OH226262   6.624   4.702  11.976  0.0279 -0.0333 -0.3627
 1616TIP3    H126263   6.708   4.663  11.951  0.8565  1.3277  0.1988
 1616TIP3    H226264   6.629   4.707  12.072 -1.7450 -2.1996 -0.0750
 1617TIP3   OH226265   2.844   5.678  11.169 -0.1917 -0.4170 -0.7637
 1617TIP3    H126266   2.841   5.598  11.116 -2.2504 -0.1023 -1.2127
 1617TIP3    H226267   2.855   5.646  11.259  0.1001 -1.1490 -1.0491
 1618TIP3   OH226268   1.384   4.519   0.741 -0.0545 -0.1305 -0.0546
 1618TIP3    H126269   1.354   4.546   0.655 -1.1030 -0.7451  0.0983
 1618TIP3    H226270   1.313   4.543   0.800  1.9022  3.2841  1.2349
 1619TIP3   OH226271   3.111   2.378  14.048 -0.2498  0.2216  0.4601
 1619TIP3    H126272   3.181   2.414  14.103  1.0385  0.3081 -1.1677
 1619TIP3    H226273   3.140   2.289  14.027  0.1553  0.7645 -1.4577
 1620TIP3   OH226274   5.644   0.224   3.582  0.0552  0.2681  0.1551
 1620TIP3    H126275   5.719   0.212   3.524  0.7244  2.5594  0.4396
 1620TIP3    H226276   5.568   0.222   3.523  0.5098 -0.0122 -0.4351
 1621TIP3   OH226277   5.260   6.328  13.595 -0.2022  0.3369  0.0732
 1621TIP3    H126278   5.246   6.237  13.572 -2.8054  1.2908 -2.8753
 1621TIP3    H226279   5.342   6.352  13.550 -0.0737 -0.2671 -0.0258
 1622TIP3   OH226280   3.376   4.399  13.870  0.1884 -0.7477  0.1316
 1622TIP3    H126281   3.378   4.364  13.781 -1.1769  0.0796 -0.2584
 1622TIP3    H226282   3.309   4.468  13.867  1.8688  1.0511  1.1449
 1623TIP3   OH226283   5.706   4.073   3.701  0.5815  0.2059 -0.3052
 1623TIP3    H126284   5.703   4.097   3.608  3.2344  2.9539  0.1948
 1623TIP3    H226285   5.640   4.129   3.742 -1.1086 -1.5201 -0.5215
 1624TIP3   OH226286   5.867   6.550   5.491  0.6179 -0.5240 -0.2521
 1624TIP3    H126287   5.777   6.538   5.523  0.6501 -0.9621 -0.3321
 1624TIP3    H226288   5.867   6.509   5.405  0.6274  0.3449 -0.6763
 1625TIP3   OH226289   5.995   1.178   0.916 -0.1356  0.4104 -0.1158
 1625TIP3    H126290   5.916   1.183   0.970  0.9908  0.8707  1.5758
 1625TIP3    H226291   5.995   1.259   0.865 -0.1114  1.0425  0.8539
 1626TIP3   OH226292   2.560   1.246  16.586 -0.4560  0.1828  0.2944
 1626TIP3    H126293   2.627   1.299  16.544  1.5847 -0.4881  2.5307
 1626TIP3    H226294   2.479   1.271  16.541  1.2625  0.7808 -2.7341
 1627TIP3   OH226295   3.218   4.980  12.706 -0.0306 -0.6596 -0.5094
 1627TIP3    H126296   3.292   5.040  12.713  0.0065 -0.8832  2.3697
 1627TIP3    H226297   3.244   4.903  12.757 -1.7212 -1.2900 -0.5210
 1628TIP3   OH226298   3.634   3.595   0.547  0.2328  0.3569 -0.3880
 1628TIP3    H126299   3.681   3.619   0.627  1.8485  0.1608 -1.2297
 1628TIP3    H226300   3.676   3.515   0.518 -0.3289  0.4243 -1.4340
 1629TIP3   OH226301   0.255   2.174   5.543  0.4026  0.2409 -0.4107
 1629TIP3    H126302   0.319   2.240   5.569  1.1377 -0.5212 -0.2230
 1629TIP3    H226303   0.230   2.198   5.454  0.9393  0.5718 -0.4775
 1630TIP3   OH226304   6.400   4.892  11.964  0.3945 -0.0145 -0.6963
 1630TIP3    H126305   6.370   4.824  11.904 -0.6227 -1.7727  1.6237
 1630TIP3    H226306   6.494   4.874  11.975  0.2463 -0.7215 -0.5352
 1631TIP3   OH226307   1.563   3.589  16.018  0.1440 -0.5816 -0.0029
 1631TIP3    H126308   1.623   3.626  15.954  2.2134 -0.3017  1.9469
 1631TIP3    H226309   1.516   3.664  16.053  0.5324 -0.4375  0.2285
 1632TIP3   OH226310   4.204   1.094  11.478  0.0065  0.5702  0.1844
 1632TIP3    H126311   4.280   1.053  11.435  0.0297  0.5545  0.2397
 1632TIP3    H226312   4.129   1.047  11.444 -0.0902  1.5058 -0.9385
 1633TIP3   OH226313   2.475   5.327  15.067 -0.1991  0.5159  0.0013
 1633TIP3    H126314   2.496   5.417  15.092  0.5888 -0.0993  1.7090
 1633TIP3    H226315   2.478   5.328  14.972 -1.8180  2.6576 -0.1071
 1634TIP3   OH226316   4.364   0.587  11.560 -0.1504 -0.8257 -0.1884
 1634TIP3    H126317   4.383   0.500  11.594  0.0710 -0.3596  0.8969
 1634TIP3    H226318   4.383   0.580  11.466  0.6798 -1.7030  0.0322
 1635TIP3   OH226319   1.826   6.120  13.751  0.0160  0.5512 -0.3374
 1635TIP3    H126320   1.756   6.146  13.691 -0.0587  0.4103 -0.3104
 1635TIP3    H226321   1.883   6.063  13.699  0.0452  0.5670 -0.3226
 1636TIP3   OH226322   4.431   1.318  13.472  0.1013  0.6953 -0.0384
 1636TIP3    H126323   4.408   1.308  13.380 -2.1504  2.2218  0.2981
 1636TIP3    H226324   4.379   1.392  13.503 -0.0383 -0.4434  2.7548
 1637TIP3   OH226325   1.168   3.979  11.363  0.3484  0.4430  0.0764
 1637TIP3    H126326   1.243   3.920  11.364 -0.5671 -0.8169 -1.4204
 1637TIP3    H226327   1.179   4.031  11.283 -0.3450  0.2745 -0.1370
 1638TIP3   OH226328   0.351   6.276   2.493  0.1932 -0.5165 -0.6910
 1638TIP3    H126329   0.430   6.269   2.547 -0.7488  0.7282  0.9376
 1638TIP3    H226330   0.384   6.288   2.404  1.8651  0.5713  0.0207
 1639TIP3   OH226331   0.698   4.986  15.654 -0.1119  0.5401 -0.1133
 1639TIP3    H126332   0.694   5.051  15.724  0.5613 -0.2132  0.6344
 1639TIP3    H226333   0.694   4.901  15.699  0.8458  0.0375 -0.9435
 1640TIP3   OH226334   4.867   3.877  15.083  0.0454 -0.5438 -0.4460
 1640TIP3    H126335   4.828   3.941  15.024 -0.1143 -2.0310 -2.0158
 1640TIP3    H226336   4.814   3.882  15.163  0.7964  2.1130 -0.0284
 1641TIP3   OH226337   4.201   4.366  11.181 -0.4210 -0.1834  0.1139
 1641TIP3    H126338   4.131   4.323  11.133 -1.1174  0.5623  0.4303
 1641TIP3    H226339   4.221   4.307  11.253 -1.7638  0.2325  0.8797
 1642TIP3   OH226340   6.426   0.360   4.517 -0.0760 -0.6390 -0.5910
 1642TIP3    H126341   6.417   0.280   4.569  1.9432 -0.9156 -0.6195
 1642TIP3    H226342   6.476   0.420   4.571  1.6280 -0.7523 -1.9620
 1643TIP3   OH226343   4.543   0.356   5.375  0.6338 -0.3711  0.7820
 1643TIP3    H126344   4.635   0.335   5.364  0.2829 -2.8146  1.7624
 1643TIP3    H226345   4.506   0.351   5.287  1.3590  0.2644  0.4389
 1644TIP3   OH226346   3.622   3.296  16.186  0.5168  0.4528 -0.4180
 1644TIP3    H126347   3.659   3.384  16.179  2.0209 -0.2031 -1.0585
 1644TIP3    H226348   3.580   3.295  16.272  0.6141  1.7374 -0.3312
 1645TIP3   OH226349   2.573   3.422  16.825 -0.0114 -0.1312  0.2338
 1645TIP3    H126350   2.558   3.512  16.854 -0.1041 -0.3245  0.7842
 1645TIP3    H226351   2.512   3.370  16.877  1.7897 -0.8163  1.7320
 1646TIP3   OH226352   6.202   5.219   2.498 -0.1454  0.4891  0.0253
 1646TIP3    H126353   6.256   5.144   2.524 -1.4976  0.0337  1.7113
 1646TIP3    H226354   6.120   5.207   2.545 -0.9319  2.3026 -0.7749
 1647TIP3   OH226355   5.451   6.540  13.743  0.2699 -0.3268 -0.2853
 1647TIP3    H126356   5.481   6.455  13.711  0.6123 -0.5681  0.6651
 1647TIP3    H226357   5.357   6.527  13.760 -0.4315  0.3832 -3.1002
 1648TIP3   OH226358   3.953   2.758   2.595  0.9117 -0.8617  0.6443
 1648TIP3    H126359   4.023   2.760   2.660  1.7395  1.1357 -0.2412
 1648TIP3    H226360   3.999   2.759   2.511 -0.0787  2.0910  0.0201
 1649TIP3   OH226361   4.359   3.359  14.955  0.0589  0.2013 -0.7238
 1649TIP3    H126362   4.443   3.402  14.971  0.1230 -0.5171  1.0585
 1649TIP3    H226363   4.373   3.310  14.873  1.1696  0.5878 -0.7854
 1650TIP3   OH226364   6.049   5.093   3.163 -0.5690 -0.9603  0.3819
 1650TIP3    H126365   6.135   5.130   3.183 -0.9464  0.0994  0.1069
 1650TIP3    H226366   5.987   5.160   3.191 -1.2325 -0.8299 -1.3055
 1651TIP3   OH226367   6.735   3.355  14.556 -0.5644 -0.3812 -0.4751
 1651TIP3    H126368   6.722   3.309  14.473  1.6029 -1.3015 -0.3784
 1651TIP3    H226369   6.760   3.286  14.618  1.5651  0.7139 -0.0227
 1652TIP3   OH226370   4.753   5.996  11.850 -0.3599  0.6305  0.3935
 1652TIP3    H126371   4.659   5.990  11.868 -0.5571  0.7738 -0.5098
 1652TIP3    H226372   4.757   6.023  11.758  0.5677  0.7738  0.4736
 1653TIP3   OH226373   2.539   5.539   0.924  0.2499 -0.5043  0.6002
 1653TIP3    H126374   2.555   5.591   1.002  0.5320 -0.5078  0.5464
 1653TIP3    H226375   2.457   5.572   0.889  0.2122 -0.3852  0.8015
 1654TIP3   OH226376   0.793   4.872   1.797  0.0285 -0.5482 -0.0424
 1654TIP3    H126377   0.785   4.967   1.794  1.2608 -0.3879  1.0883
 1654TIP3    H226378   0.715   4.840   1.751 -0.5230  0.9940 -0.2279
 1655TIP3   OH226379   0.749   3.718  13.858  0.5072  0.3442 -0.2420
 1655TIP3    H126380   0.768   3.810  13.840 -0.1931  0.5578  0.0746
 1655TIP3    H226381   0.737   3.714  13.953  0.8120 -0.1343 -0.2176
 1656TIP3   OH226382   5.492   3.435   4.040 -0.7291 -0.2187  0.0322
 1656TIP3    H126383   5.429   3.493   4.083 -0.2787  0.5598 -0.3411
 1656TIP3    H226384   5.465   3.434   3.948 -0.9425 -0.8842  0.0961
 1657TIP3   OH226385   0.069   5.337   5.818 -0.3498 -0.7638 -0.1049
 1657TIP3    H126386   0.056   5.266   5.754 -0.8969 -0.7311 -0.0342
 1657TIP3    H226387   0.151   5.313   5.862  1.3640  0.4226 -2.3828
 1658TIP3   OH226388   0.146   6.123  13.946  0.3347 -0.2241  0.5010
 1658TIP3    H126389   0.117   6.140  13.857 -1.1456 -1.3205  0.7431
 1658TIP3    H226390   0.224   6.068  13.937 -0.3030 -1.0455 -0.1189
 1659TIP3   OH226391   0.059   6.690  12.526 -0.1147 -0.0417 -0.3126
 1659TIP3    H126392   0.090   6.612  12.480 -0.4342 -0.0790 -0.4731
 1659TIP3    H226393   0.101   6.687  12.612 -1.1753 -1.1280  0.2057
 1660TIP3   OH226394   4.010   4.552  17.065 -0.0797 -0.1475  0.4034
 1660TIP3    H126395   3.938   4.596  17.110 -0.5507 -0.4528 -0.0430
 1660TIP3    H226396   4.079   4.547  17.131 -0.1754  0.8422  0.6064
 1661TIP3   OH226397   0.986   2.976  13.050 -0.2693 -0.6137 -0.0858
 1661TIP3    H126398   0.924   2.962  13.121  0.7368  0.0774  0.9734
 1661TIP3    H226399   1.069   2.943  13.084  0.4979  0.8931 -0.4189
 1662TIP3   OH226400   2.292   6.686   5.291  0.7390 -0.4626 -0.7112
 1662TIP3    H126401   2.339   6.760   5.254 -0.8133 -0.8543 -3.7296
 1662TIP3    H226402   2.351   6.611   5.278  0.5268 -0.4621 -1.7058
 1663TIP3   OH226403   0.879   6.234   2.109 -0.0194 -0.1762  0.0975
 1663TIP3    H126404   0.962   6.191   2.090 -0.0973 -0.8367  1.1431
 1663TIP3    H226405   0.829   6.227   2.028  0.6445 -0.4894 -0.2899
 1664TIP3   OH226406   4.887   6.612  14.347  0.5116 -0.6318 -0.9025
 1664TIP3    H126407   4.965   6.666  14.364 -1.2196  1.7620 -0.0664
 1664TIP3    H226408   4.890   6.544  14.414  1.4177 -0.0305 -0.3107
 1665TIP3   OH226409   2.754   3.273   5.230 -0.4731  0.1250  0.7784
 1665TIP3    H126410   2.849   3.283   5.231 -0.4327 -0.1513  0.1780
 1665TIP3    H226411   2.723   3.345   5.173 -0.5619 -0.2232  0.3826
 1666TIP3   OH226412   4.047   1.712   3.068  0.2242 -0.2235  0.1964
 1666TIP3    H126413   4.067   1.777   3.001 -0.6085 -0.0275  0.1326
 1666TIP3    H226414   4.004   1.641   3.020 -1.0377  0.2342  0.6125
 1667TIP3   OH226415   2.615   4.583   2.532  0.3720  0.5601 -0.7675
 1667TIP3    H126416   2.599   4.572   2.438 -0.0659 -0.4841 -0.5819
 1667TIP3    H226417   2.541   4.634   2.564 -0.3649 -0.5363 -0.6930
 1668TIP3   OH226418   6.483   5.526  14.668 -0.5839 -0.6299  0.0336
 1668TIP3    H126419   6.394   5.561  14.658 -1.1736 -1.0228  2.9161
 1668TIP3    H226420   6.535   5.601  14.697 -0.5723 -0.9128  0.7691
 1669TIP3   OH226421   6.432   4.340   5.794  0.7571  0.9388  0.1617
 1669TIP3    H126422   6.350   4.387   5.811  0.3142  0.4298 -0.5274
 1669TIP3    H226423   6.474   4.390   5.724 -0.4491 -0.4949 -1.6810
 1670TIP3   OH226424   6.497   5.329   3.350 -0.6443 -0.4455 -0.1799
 1670TIP3    H126425   6.405   5.314   3.330 -0.5391 -0.2101 -0.8732
 1670TIP3    H226426   6.539   5.337   3.265 -0.0294 -0.2601  0.1329
 1671TIP3   OH226427   6.555   4.240  12.455 -0.0750 -0.3270 -1.0278
 1671TIP3    H126428   6.605   4.282  12.526 -0.4053 -0.5387 -0.6647
 1671TIP3    H226429   6.613   4.246  12.379  0.1839  0.1294 -0.8048
 1672TIP3   OH226430   5.043   5.705  11.333  0.1627  0.2640  0.5534
 1672TIP3    H126431   4.959   5.724  11.376 -1.2565 -1.5101 -1.2260
 1672TIP3    H226432   5.071   5.622  11.370 -1.0629 -1.2736 -1.7137
 1673TIP3   OH226433   0.294   2.091  13.447 -0.9862 -0.4853 -0.0250
 1673TIP3    H126434   0.388   2.074  13.449 -1.0066 -0.9312 -1.6658
 1673TIP3    H226435   0.286   2.185  13.465 -0.1732 -0.3047 -0.5508
 1674TIP3   OH226436   3.391   5.389   3.953  0.3896  0.4135 -0.5553
 1674TIP3    H126437   3.361   5.401   3.862 -0.6305  0.4625 -0.2228
 1674TIP3    H226438   3.452   5.461   3.967 -0.0391  0.8662 -0.9559
 1675TIP3   OH226439   5.117   5.685  13.712  0.0790 -0.2735  0.2086
 1675TIP3    H126440   5.194   5.731  13.681  1.7612 -0.7594  3.2548
 1675TIP3    H226441   5.049   5.752  13.716  0.1850  0.1233 -2.6840
 1676TIP3   OH226442   0.396   2.794  14.636 -0.3249 -0.5091  0.6590
 1676TIP3    H126443   0.438   2.709  14.619 -0.8800 -0.2650 -2.5759
 1676TIP3    H226444   0.468   2.853  14.656  0.5585 -0.9368 -1.0419
 1677TIP3   OH226445   0.475   0.339   2.763 -0.2833  0.2017  0.2518
 1677TIP3    H126446   0.569   0.334   2.747 -0.3791  0.1563 -0.3072
 1677TIP3    H226447   0.468   0.381   2.849  0.2370  0.6610  0.0811
 1678TIP3   OH226448   6.363   4.718   2.273  0.0349 -0.6580 -0.1216
 1678TIP3    H126449   6.277   4.675   2.271  0.1249 -0.8617  0.1977
 1678TIP3    H226450   6.410   4.682   2.198 -1.1918  1.6819 -2.1136
 1679TIP3   OH226451   0.230   4.325   0.134 -0.9282  0.3448  0.0032
 1679TIP3    H126452   0.325   4.325   0.140 -0.5790  1.5981 -3.3358
 1679TIP3    H226453   0.201   4.380   0.207  1.1681  2.4154 -0.5848
 1680TIP3   OH226454   4.268   6.680   6.800 -0.1805  0.6386 -0.3488
 1680TIP3    H126455   4.226   6.598   6.828  0.0829  0.7457  0.3601
 1680TIP3    H226456   4.221   6.703   6.720 -0.2765 -0.1918 -0.5482
 1681TIP3   OH226457   4.712   4.789  15.803 -0.0227 -0.5402 -0.2997
 1681TIP3    H126458   4.756   4.839  15.872 -0.4076 -0.4799 -0.0901
 1681TIP3    H226459   4.631   4.839  15.786 -0.0779 -0.7209 -0.5779
 1682TIP3   OH226460   6.383   2.825  13.225  0.1627  0.0515  0.4484
 1682TIP3    H126461   6.420   2.737  13.219  3.6905  1.3034  1.3895
 1682TIP3    H226462   6.365   2.850  13.134 -1.2339 -1.7021  0.1957
 1683TIP3   OH226463   3.162   4.472  13.222  0.1248 -0.1180 -0.3160
 1683TIP3    H126464   3.091   4.529  13.192 -0.0682 -0.2869 -0.1805
 1683TIP3    H226465   3.163   4.482  13.317  0.2067 -0.2056 -0.3077
 1684TIP3   OH226466   4.471   5.221   3.004 -0.2108 -0.1968  0.0947
 1684TIP3    H126467   4.488   5.129   3.026 -1.0746  0.0785  2.1155
 1684TIP3    H226468   4.419   5.254   3.077 -2.0495  1.2704 -1.7731
 1685TIP3   OH226469   0.077   5.298   4.036 -0.0515  0.0250  0.0312
 1685TIP3    H126470   0.125   5.256   4.107  0.6306 -0.3708 -0.6467
 1685TIP3    H226471  -0.010   5.258   4.038  0.9838 -2.5849 -1.5099
 1686TIP3   OH226472   2.325   2.336  15.452  0.3424 -0.3786  0.0259
 1686TIP3    H126473   2.374   2.298  15.524 -0.0437  0.8044  0.9554
 1686TIP3    H226474   2.313   2.428  15.477 -0.7162 -0.1943 -1.0457
 1687TIP3   OH226475   5.769   5.727  11.346  0.3359 -0.1064 -0.4460
 1687TIP3    H126476   5.789   5.642  11.385 -1.1880  0.0176  0.7085
 1687TIP3    H226477   5.718   5.706  11.268  0.2568 -0.2579 -0.3539
 1688TIP3   OH226478   6.074   0.707  16.298  0.1562 -0.1760  0.5395
 1688TIP3    H126479   6.116   0.668  16.221 -0.6309  0.4863 -0.2486
 1688TIP3    H226480   5.998   0.753  16.263 -0.1307  0.2712  1.7037
 1689TIP3   OH226481   2.228   1.418  15.584 -0.1482 -0.4889  0.5230
 1689TIP3    H126482   2.180   1.476  15.525 -0.5307  0.0149  1.3141
 1689TIP3    H226483   2.161   1.382  15.642  0.0981 -1.6483  0.1267
 1690TIP3   OH226484   1.998   2.270   4.991  0.6888 -0.8764 -0.1833
 1690TIP3    H126485   1.939   2.341   4.964  1.6274 -0.0886 -0.2309
 1690TIP3    H226486   2.006   2.280   5.086 -0.2474 -1.7809  0.0047
 1691TIP3   OH226487   4.015   4.164  12.882  0.2788  0.1653  0.1385
 1691TIP3    H126488   3.974   4.230  12.938 -0.6920 -0.2349 -0.0713
 1691TIP3    H226489   3.965   4.168  12.800  1.1394  0.1594 -0.3961
 1692TIP3   OH226490   4.809   5.294   5.414  0.0034  0.4059 -0.2867
 1692TIP3    H126491   4.834   5.381   5.445  0.2920  0.2189  0.0096
 1692TIP3    H226492   4.746   5.263   5.479  0.8198 -0.1002  0.2844
 1693TIP3   OH226493   1.971   0.203   3.718 -0.1243 -0.4918 -0.3569
 1693TIP3    H126494   2.049   0.245   3.754 -1.7630  2.2793  0.2320
 1693TIP3    H226495   1.966   0.236   3.628 -0.5759 -0.6995 -0.4085
 1694TIP3   OH226496   5.832   3.389  17.269  0.3621 -0.0442  0.5175
 1694TIP3    H126497   5.829   3.293  17.264  1.9559 -0.0795 -0.9149
 1694TIP3    H226498   5.838   3.417  17.177  0.8798  1.3688  0.9588
 1695TIP3   OH226499   4.026   6.089  12.054  0.1982 -0.0275 -0.1065
 1695TIP3    H126500   4.068   6.082  11.969 -0.1480  0.4275 -0.3241
 1695TIP3    H226501   4.024   6.183  12.072 -0.8465 -0.0202 -0.1783
 1696TIP3   OH226502   0.533   5.793   3.947 -0.4952  0.6178 -0.1395
 1696TIP3    H126503   0.459   5.758   3.997  0.8219  1.0186  2.2287
 1696TIP3    H226504   0.533   5.887   3.968 -0.6325  1.0654 -1.9467
 1697TIP3   OH226505   4.337   2.536  15.219  0.3034 -0.4867 -0.1446
 1697TIP3    H126506   4.263   2.531  15.279 -0.1282 -0.6366 -0.6812
 1697TIP3    H226507   4.404   2.481  15.258  0.3254  0.0756  0.6184
 1698TIP3   OH226508   2.953   2.759   5.852  0.2217  0.3183  0.4007
 1698TIP3    H126509   2.989   2.784   5.937  0.8974  0.9654 -0.0616
 1698TIP3    H226510   3.028   2.765   5.792  0.1306 -1.5914  0.0150
 1699TIP3   OH226511   0.662   2.514   5.805 -0.1058 -0.0537 -0.2535
 1699TIP3    H126512   0.633   2.565   5.730 -0.5061 -0.2547 -0.2363
 1699TIP3    H226513   0.588   2.515   5.866 -0.0125 -0.4068 -0.1295
 1700TIP3   OH226514   3.418   0.660   3.808 -0.3927  0.1056 -0.1409
 1700TIP3    H126515   3.386   0.750   3.823  0.0959  0.3554 -0.6003
 1700TIP3    H226516   3.512   0.670   3.795 -0.0562 -0.6576  1.4367
 1701TIP3   OH226517   4.845   1.188   2.728  0.4563  0.0734  0.6849
 1701TIP3    H126518   4.824   1.281   2.720  0.6174  0.0841  0.3730
 1701TIP3    H226519   4.782   1.155   2.792 -0.4885  0.1147 -0.1985
 1702TIP3   OH226520   5.104   3.020   0.589 -0.4793 -0.3477 -0.4131
 1702TIP3    H126521   5.119   2.949   0.526 -0.1886 -1.7117  1.1164
 1702TIP3    H226522   5.128   2.982   0.673 -2.0512  1.0030  0.7017
 1703TIP3   OH226523   1.116   5.493  11.677  0.8295  1.0436 -0.3627
 1703TIP3    H126524   1.130   5.573  11.728 -1.9455  1.9670 -0.8863
 1703TIP3    H226525   1.199   5.478  11.632  1.5860  3.3556  0.1428
 1704TIP3   OH226526   4.393   2.861   2.735  0.0322 -0.1965 -0.4718
 1704TIP3    H126527   4.324   2.927   2.739  0.5986  0.5544 -2.2050
 1704TIP3    H226528   4.474   2.911   2.737  0.6259 -1.0958  2.0945
 1705TIP3   OH226529   1.079   3.977  14.067  0.2882 -0.1546  0.2802
 1705TIP3    H126530   1.158   3.925  14.053  0.5121  0.1434  0.3938
 1705TIP3    H226531   1.012   3.936  14.013  0.6522 -0.1144 -0.2047
 1706TIP3   OH226532   2.372   4.513  13.764  0.0670 -0.4347  0.1792
 1706TIP3    H126533   2.450   4.501  13.818 -0.0209 -1.8385  0.0348
 1706TIP3    H226534   2.329   4.427  13.764 -1.1392  0.1426 -0.2697
 1707TIP3   OH226535   5.517   4.078   0.589 -0.5132  0.5918 -0.2399
 1707TIP3    H126536   5.526   4.162   0.544 -1.0022 -0.6484 -2.8482
 1707TIP3    H226537   5.565   4.016   0.534 -1.7869 -1.1753  0.5446
 1708TIP3   OH226538   2.743   3.193  13.345  0.1696 -0.1930  0.3699
 1708TIP3    H126539   2.743   3.127  13.276 -0.7711  3.1780 -3.2366
 1708TIP3    H226540   2.832   3.230  13.344 -0.0431  0.3409  0.4684
 1709TIP3   OH226541   1.823   4.647  14.975  0.0056 -0.4012  0.1251
 1709TIP3    H126542   1.780   4.715  14.924  0.9453 -0.0670 -0.2421
 1709TIP3    H226543   1.803   4.669  15.066  0.2751  0.3424  0.0032
 1710TIP3   OH226544   5.838   2.900  17.122  0.1407  0.4866 -0.2468
 1710TIP3    H126545   5.772   2.859  17.178  2.0529 -1.8448  0.4680
 1710TIP3    H226546   5.876   2.968  17.178  1.0796 -0.8940  0.8730
 1711TIP3   OH226547   2.977   2.029  12.799  0.5307  0.1641  0.9600
 1711TIP3    H126548   3.052   1.999  12.747 -1.5291  0.5887 -2.6114
 1711TIP3    H226549   2.920   1.953  12.805 -0.2619  0.7064  0.5746
 1712TIP3   OH226550   3.046   3.060   2.043  0.0476  0.1501  0.1219
 1712TIP3    H126551   2.961   3.031   2.076 -0.2345  0.2575 -0.4812
 1712TIP3    H226552   3.057   3.011   1.961  0.4647  0.3014  0.0870
 1713TIP3   OH226553   3.209   6.584  16.099  0.2369  0.2461 -0.2673
 1713TIP3    H126554   3.268   6.646  16.056  2.6175 -0.8861  1.1038
 1713TIP3    H226555   3.192   6.517  16.032  0.2204  0.7693 -0.7942
 1714TIP3   OH226556   4.130   3.496   5.880 -0.1760 -0.0616 -0.3322
 1714TIP3    H126557   4.203   3.434   5.887  0.1367  0.3360 -0.0466
 1714TIP3    H226558   4.097   3.484   5.791  0.6480  0.2026 -0.6785
 1715TIP3   OH226559   0.529   3.401  13.150 -0.1497  0.3055 -0.7753
 1715TIP3    H126560   0.470   3.330  13.177 -1.0254  1.1341 -0.4350
 1715TIP3    H226561   0.561   3.375  13.064 -0.2917 -0.6043 -0.5562
 1716TIP3   OH226562   0.121   5.049  11.069  0.1537  0.1578  0.1725
 1716TIP3    H126563   0.082   4.985  11.128  0.4063 -0.1765 -0.0189
 1716TIP3    H226564   0.205   5.011  11.045 -0.8618 -0.8132 -2.1733
 1717TIP3   OH226565   4.693   0.531   4.216  0.0775  0.5393  0.4141
 1717TIP3    H126566   4.644   0.606   4.185 -0.7897  0.4518  1.5254
 1717TIP3    H226567   4.770   0.527   4.159  0.6880  2.8886  1.0027
 1718TIP3   OH226568   1.886   2.518  15.998 -0.0843  0.9285  0.2896
 1718TIP3    H126569   1.959   2.508  15.937  2.1171 -1.0371  2.9997
 1718TIP3    H226570   1.891   2.610  16.026 -0.6757  1.6593 -1.7618
 1719TIP3   OH226571   6.735   5.446   4.353 -0.1401 -0.1284  0.1709
 1719TIP3    H126572   6.754   5.486   4.269  0.1619 -2.4816 -0.9571
 1719TIP3    H226573   6.707   5.519   4.408  0.3605  1.5891 -1.7217
 1720TIP3   OH226574   2.501   2.440   5.213  0.4860 -0.3368 -0.5565
 1720TIP3    H126575   2.546   2.524   5.215  0.6773 -0.3350 -2.4664
 1720TIP3    H226576   2.570   2.375   5.222  0.6765 -0.3030 -1.6198
 1721TIP3   OH226577   5.046   1.496   5.153  0.2669 -0.3528  0.4232
 1721TIP3    H126578   5.106   1.523   5.083  0.6974 -1.1494  0.4649
 1721TIP3    H226579   5.077   1.408   5.178  0.5910  0.2052  2.1191
 1722TIP3   OH226580   6.544   0.851  15.973  0.1406 -0.1812 -0.3508
 1722TIP3    H126581   6.489   0.891  15.906 -0.3577  0.2995  0.3291
 1722TIP3    H226582   6.578   0.925  16.023  1.7032 -0.4564 -0.9789
 1723TIP3   OH226583   1.938   0.547  16.084 -0.3692 -0.8717 -0.2313
 1723TIP3    H126584   1.875   0.553  16.012  0.1468 -0.8717 -0.6901
 1723TIP3    H226585   2.003   0.484  16.054  0.1088 -0.5132  0.0365
 1724TIP3   OH226586   5.109   3.732   3.917 -0.6626 -0.1755  0.1997
 1724TIP3    H126587   5.069   3.817   3.931  1.5687  1.1673 -0.9556
 1724TIP3    H226588   5.160   3.715   3.997 -0.5719 -0.0917  0.1600
 1725TIP3   OH226589   5.815   4.150  13.543  0.0955  0.3980 -0.3745
 1725TIP3    H126590   5.728   4.160  13.503 -0.0717  0.6223  0.0354
 1725TIP3    H226591   5.802   4.084  13.611  1.0259 -2.2264 -2.5503
 1726TIP3   OH226592   2.785   0.286  15.198 -0.3667  0.0226 -0.4083
 1726TIP3    H126593   2.783   0.338  15.117 -0.5794  1.4419  0.4854
 1726TIP3    H226594   2.702   0.307  15.242  0.3230  0.3029  0.7985
 1727TIP3   OH226595   2.432   3.950   3.107  0.1058 -0.0280 -0.3792
 1727TIP3    H126596   2.457   4.038   3.135  0.4091 -0.2310 -0.0008
 1727TIP3    H226597   2.500   3.924   3.045 -0.0774  0.0677 -0.6240
 1728TIP3   OH226598   1.401   2.370   2.892 -0.5645  0.4042 -0.2195
 1728TIP3    H126599   1.338   2.301   2.911  0.9637 -0.8037  0.6875
 1728TIP3    H226600   1.375   2.403   2.806 -1.5301 -1.0962 -0.5353
 1729TIP3   OH226601   4.920   2.641  15.743 -0.1984  0.3330 -0.2308
 1729TIP3    H126602   4.935   2.735  15.752  0.8171  0.1590  0.0163
 1729TIP3    H226603   4.986   2.601  15.799  0.2415 -0.5572 -1.3554
 1730TIP3   OH226604   0.902   4.679  15.285  0.6904 -0.2748 -0.0877
 1730TIP3    H126605   0.878   4.589  15.264 -1.0348  0.0556  0.3360
 1730TIP3    H226606   0.850   4.701  15.363  0.9506  1.1318 -0.2722
 1731TIP3   OH226607   5.370   6.655   0.221 -0.0297 -0.3302  0.1387
 1731TIP3    H126608   5.446   6.659   0.279  0.9700 -0.1171 -1.1539
 1731TIP3    H226609   5.300   6.618   0.276  0.4185  1.3208  1.9411
 1732TIP3   OH226610   2.616   4.607   4.686 -0.0879  0.1534 -0.1613
 1732TIP3    H126611   2.581   4.606   4.775 -0.2438  0.4505 -0.2181
 1732TIP3    H226612   2.590   4.692   4.651  0.6093  0.3438 -0.2380
 1733TIP3   OH226613   2.359   3.206   6.564 -0.0593  0.1622  0.5391
 1733TIP3    H126614   2.321   3.189   6.478  1.4627  2.2975 -0.6691
 1733TIP3    H226615   2.362   3.302   6.570  3.3838  0.1669  1.2305
 1734TIP3   OH226616   5.259   4.622  13.190  0.1401 -0.3779 -0.3475
 1734TIP3    H126617   5.215   4.701  13.159 -1.8605 -0.2105  2.4574
 1734TIP3    H226618   5.193   4.578  13.243  1.8169 -2.9547 -0.2365
 1735TIP3   OH226619   3.006   3.267  12.043 -0.2472 -0.0624  0.1872
 1735TIP3    H126620   3.100   3.251  12.049 -0.1457  0.5943  0.4051
 1735TIP3    H226621   2.978   3.216  11.967  0.4494  0.4995 -0.4625
 1736TIP3   OH226622   5.359   0.088  16.493  0.2719 -0.0129 -0.0729
 1736TIP3    H126623   5.338   0.026  16.423  0.6935 -1.3719  0.9688
 1736TIP3    H226624   5.307   0.166  16.472 -0.7516 -0.9277 -1.0909
 1737TIP3   OH226625   5.070   1.437   5.994  0.4487  0.0818 -0.1386
 1737TIP3    H126626   5.000   1.432   6.058  1.2208  0.5308  0.7624
 1737TIP3    H226627   5.087   1.346   5.970  0.7610 -0.1647  0.9772
 1738TIP3   OH226628   5.785   4.431  12.864  0.1510  0.5391  0.0396
 1738TIP3    H126629   5.709   4.385  12.828  0.0271  1.1015 -0.4146
 1738TIP3    H226630   5.748   4.490  12.930  0.2751  0.2630  0.3611
 1739TIP3   OH226631   3.147   1.330   1.541 -0.0711 -0.0283 -0.1632
 1739TIP3    H126632   3.181   1.240   1.544 -1.4275 -0.6293 -1.7103
 1739TIP3    H226633   3.223   1.385   1.562  0.8194 -1.5111  0.6389
 1740TIP3   OH226634   4.384   0.184  14.488  0.2221  0.2722  0.2500
 1740TIP3    H126635   4.356   0.265  14.530  2.2133 -0.1744  2.6413
 1740TIP3    H226636   4.442   0.212  14.417  0.1054  0.9581  0.4203
 1741TIP3   OH226637   3.560   4.229   6.280  0.0070 -0.0972 -0.2532
 1741TIP3    H126638   3.569   4.275   6.364  3.2326  0.4132 -0.7662
 1741TIP3    H226639   3.614   4.278   6.219  0.6356 -2.4828 -1.7512
 1742TIP3   OH226640   0.818   2.478   4.967 -0.5186  0.6927 -0.6898
 1742TIP3    H126641   0.894   2.470   5.024 -0.4664  2.4037 -0.4813
 1742TIP3    H226642   0.854   2.511   4.884 -1.2887  4.7678  0.3928
 1743TIP3   OH226643   5.524   3.451   2.882 -0.3769  0.4940 -0.2818
 1743TIP3    H126644   5.457   3.493   2.935  2.9611  3.4418  2.1234
 1743TIP3    H226645   5.525   3.500   2.800 -0.8477  0.7278 -0.1479
 1744TIP3   OH226646   4.091   0.294  11.394  0.5503  0.2435  0.3387
 1744TIP3    H126647   4.179   0.295  11.431  1.1953  2.1021 -1.0415
 1744TIP3    H226648   4.043   0.358  11.447  0.6645  0.8018 -0.2191
 1745TIP3   OH226649   3.138   6.181   2.575  0.3518 -0.1356  0.4417
 1745TIP3    H126650   3.101   6.105   2.530 -1.5158  0.6737  0.5289
 1745TIP3    H226651   3.074   6.202   2.644  0.9648  1.3327  0.6047
 1746TIP3   OH226652   6.220   4.855   0.145  0.1012  0.0299 -0.3246
 1746TIP3    H126653   6.272   4.780   0.174  0.8834  1.0457  1.0475
 1746TIP3    H226654   6.183   4.891   0.226 -1.5375  0.2300 -1.1200
 1747TIP3   OH226655   1.627   4.165   5.991 -0.5924  0.7494 -0.4674
 1747TIP3    H126656   1.581   4.163   6.076  1.2835 -0.6345  0.5911
 1747TIP3    H226657   1.653   4.074   5.976  0.2395  1.2019 -1.9120
 1748TIP3   OH226658   3.524   4.142   4.006 -0.7049 -0.1308 -0.3393
 1748TIP3    H126659   3.595   4.078   4.005 -0.1746  0.4550 -0.5266
 1748TIP3    H226660   3.510   4.163   3.913 -1.3222 -0.4602 -0.3240
 1749TIP3   OH226661   5.140   5.283  11.183  0.0206 -0.1384 -0.6599
 1749TIP3    H126662   5.129   5.194  11.151  0.7544 -0.5609  0.2346
 1749TIP3    H226663   5.217   5.316  11.137 -0.4185  0.1515 -1.2065
 1750TIP3   OH226664   6.605   5.114   0.147  0.2523  0.2719 -0.1519
 1750TIP3    H126665   6.693   5.150   0.158  0.5139  0.0223 -1.2695
 1750TIP3    H226666   6.613   5.051   0.075 -0.6084 -0.5941  0.4686
 1751TIP3   OH226667   3.400   2.547  11.612  0.0266  0.0309 -0.0559
 1751TIP3    H126668   3.404   2.632  11.655 -1.0043  0.4692 -0.7839
 1751TIP3    H226669   3.372   2.567  11.523  1.3189 -0.9293 -0.7167
 1752TIP3   OH226670   2.221   2.726  17.341 -0.0344  0.1920  0.5384
 1752TIP3    H126671   2.230   2.814  17.378  1.4900 -0.1736  1.1081
 1752TIP3    H226672   2.310   2.691  17.341 -0.7179 -1.6687  1.1106
 1753TIP3   OH226673   5.869   0.148  12.774  0.2781  0.1281 -0.2200
 1753TIP3    H126674   5.797   0.091  12.747 -0.8151  0.2363  2.1344
 1753TIP3    H226675   5.867   0.145  12.870  2.5110  1.2997 -0.0582
 1754TIP3   OH226676   5.427   1.361  12.032 -0.1557 -0.5221  0.1730
 1754TIP3    H126677   5.344   1.344  12.077  0.4780  0.5421  1.8080
 1754TIP3    H226678   5.495   1.341  12.096  0.7617  1.3613 -0.1213
 1755TIP3   OH226679   1.368   5.015  10.486 -0.4937  0.1063  0.2356
 1755TIP3    H126680   1.402   4.947  10.545 -0.5481  1.1409  1.4834
 1755TIP3    H226681   1.293   5.052  10.533  0.0556  1.6123 -0.0449
 1756TIP3   OH226682   2.904   4.879   3.858  0.1592 -0.0711  0.0352
 1756TIP3    H126683   2.980   4.859   3.802  0.1731  3.0005 -1.2209
 1756TIP3    H226684   2.828   4.855   3.805  0.2134 -0.5729  0.1826
 1757TIP3   OH226685   2.371   4.090   4.637  0.0442  0.0434  0.5895
 1757TIP3    H126686   2.434   4.024   4.663 -0.5894 -0.0586  1.9551
 1757TIP3    H226687   2.399   4.169   4.682 -1.1196 -0.1511  1.6956
 1758TIP3   OH226688   2.838   2.767   4.374 -0.1821 -0.3941 -0.0207
 1758TIP3    H126689   2.806   2.699   4.314  0.4110  0.8162 -1.8117
 1758TIP3    H226690   2.759   2.795   4.422 -1.9293  1.9478 -3.7484
 1759TIP3   OH226691   0.430   2.629   3.260 -0.4886  0.1034  0.0978
 1759TIP3    H126692   0.382   2.605   3.339 -0.8833  0.3510 -0.0647
 1759TIP3    H226693   0.375   2.598   3.188  1.1073 -2.5807 -0.1089
 1760TIP3   OH226694   2.023   1.809   4.380 -0.2044 -0.4084 -0.2341
 1760TIP3    H126695   2.037   1.777   4.469  0.0122  0.6385  0.1129
 1760TIP3    H226696   1.936   1.849   4.382 -0.0364 -0.0326 -0.3871
 1761TIP3   OH226697   5.622   1.878  13.224  0.3111 -0.0772  0.0445
 1761TIP3    H126698   5.584   1.794  13.199 -0.8850 -0.0475  1.6117
 1761TIP3    H226699   5.693   1.856  13.284  0.6404  0.0108 -0.3034
 1762TIP3   OH226700   6.565   4.366  11.892 -0.0210  0.6101 -0.3135
 1762TIP3    H126701   6.637   4.370  11.955 -1.2144 -1.1938  1.2180
 1762TIP3    H226702   6.587   4.292  11.836 -0.6238  0.1292  0.0841
 1763TIP3   OH226703   1.751   3.691  15.283  0.3981 -0.0972 -0.0404
 1763TIP3    H126704   1.822   3.691  15.218 -1.2095  2.3979 -1.9996
 1763TIP3    H226705   1.760   3.775  15.328 -0.7510 -0.1434  0.3017
 1764TIP3   OH226706   2.461   4.567  15.216 -0.0408 -0.0601 -0.3538
 1764TIP3    H126707   2.435   4.646  15.168 -0.1330 -0.2512 -0.6217
 1764TIP3    H226708   2.411   4.572  15.297 -1.4237 -0.7255 -1.1170
 1765TIP3   OH226709   6.626   3.769   4.335  0.7384  0.2081 -0.3503
 1765TIP3    H126710   6.701   3.766   4.276 -0.5156  0.6655 -2.0400
 1765TIP3    H226711   6.600   3.861   4.337  0.6566  0.1846  0.8401
 1766TIP3   OH226712   0.436   5.661   5.718  0.3767  0.4298  0.4448
 1766TIP3    H126713   0.411   5.602   5.789  0.4464  1.0783  1.0293
 1766TIP3    H226714   0.532   5.663   5.721  0.3617  2.4968  2.1186
 1767TIP3   OH226715   6.244   1.344  14.066 -0.0420  0.2362  0.5117
 1767TIP3    H126716   6.213   1.273  14.011 -2.0267  1.1996  0.3029
 1767TIP3    H226717   6.339   1.331  14.071  0.3506  0.4243 -3.5975
 1768TIP3   OH226718   3.687   2.539  12.189  0.0226 -0.5320 -0.5868
 1768TIP3    H126719   3.642   2.552  12.105 -0.7556  0.1238 -0.0776
 1768TIP3    H226720   3.653   2.608  12.246  0.7427 -0.8047  0.1944
 1769TIP3   OH226721   5.031   5.103  13.927  0.4206 -0.2989  0.2638
 1769TIP3    H126722   4.983   5.032  13.970  3.5274 -2.1858  0.8689
 1769TIP3    H226723   5.009   5.093  13.834 -1.4348 -0.1465  0.6391
 1770TIP3   OH226724   0.565   5.307  15.247 -0.0758 -0.4314 -0.6400
 1770TIP3    H126725   0.609   5.292  15.331  0.0542  0.1546 -0.6030
 1770TIP3    H226726   0.562   5.220  15.206  1.3408 -0.4513 -0.7534
 1771TIP3   OH226727   5.015   6.630  12.859 -0.0609 -0.4776 -0.0132
 1771TIP3    H126728   4.971   6.640  12.943  0.7712  0.9245  0.2848
 1771TIP3    H226729   4.954   6.580  12.805 -0.3970 -1.8482  1.5750
 1772TIP3   OH226730   4.772   5.760   0.216  0.3994 -0.3006  0.3881
 1772TIP3    H126731   4.782   5.722   0.129 -2.6040  0.4724 -0.3960
 1772TIP3    H226732   4.764   5.685   0.275 -0.5716 -0.8721 -0.4494
 1773TIP3   OH226733   3.423   0.002  16.267 -0.1757  0.0646  0.1848
 1773TIP3    H126734   3.442   0.022  16.359 -0.6552 -1.4892  0.6439
 1773TIP3    H226735   3.327   0.001  16.263 -0.1703 -1.2045 -0.0009
 1774TIP3   OH226736   1.869   3.317  12.406  0.0951  0.2876  0.1270
 1774TIP3    H126737   1.779   3.299  12.379 -0.1463  0.4733  0.7870
 1774TIP3    H226738   1.920   3.315  12.325 -0.4653 -0.0528 -0.2183
 1775TIP3   OH226739   5.256   0.742  13.610 -0.6223  0.1319 -0.1611
 1775TIP3    H126740   5.210   0.810  13.659 -1.5031 -1.2006  0.9382
 1775TIP3    H226741   5.194   0.716  13.542  0.2707  1.3840 -1.5163
 1776TIP3   OH226742   4.161   3.410  11.998  0.9754 -0.3823  0.5275
 1776TIP3    H126743   4.126   3.405  11.909  0.5965 -1.0040  0.7041
 1776TIP3    H226744   4.255   3.424  11.986  1.4347 -3.3141 -0.0507
 1777TIP3   OH226745   0.292   3.403   1.909 -0.4339 -0.0744 -0.0715
 1777TIP3    H126746   0.271   3.495   1.899 -1.3225 -0.2216  0.3098
 1777TIP3    H226747   0.239   3.374   1.984  0.5688 -0.6620  0.4421
 1778TIP3   OH226748   4.550   3.352  16.987 -0.0326 -0.4469 -0.0615
 1778TIP3    H126749   4.644   3.361  16.968  0.3032 -0.3533  1.4860
 1778TIP3    H226750   4.531   3.427  17.044 -0.8082 -1.0234  0.4466
 1779TIP3   OH226751   0.522   2.433   4.025 -0.1199  0.2082 -0.2847
 1779TIP3    H126752   0.587   2.474   3.968  0.1588 -2.1136 -1.8023
 1779TIP3    H226753   0.458   2.397   3.964 -1.5314  0.3401  1.0812
 1780TIP3   OH226754   4.669   5.075   1.554 -0.2850 -0.2663  0.1671
 1780TIP3    H126755   4.612   5.146   1.582 -0.9070 -0.9309  0.5928
 1780TIP3    H226756   4.625   4.995   1.582  0.9333 -0.7902  0.6742
 1781TIP3   OH226757   4.361   1.955  13.520  0.1446 -0.3869  0.0641
 1781TIP3    H126758   4.412   2.034  13.535  0.7876 -0.8601  0.4334
 1781TIP3    H226759   4.273   1.976  13.553  0.3876  0.0761  0.4272
 1782TIP3   OH226760   3.399   1.451   1.139  0.0182  0.1263 -0.1756
 1782TIP3    H126761   3.456   1.447   1.216 -0.2909  0.2930  0.0655
 1782TIP3    H226762   3.393   1.544   1.118  0.9854  0.0059 -1.0798
 1783TIP3   OH226763   4.929   1.258  16.199  0.5110 -0.4878 -0.4154
 1783TIP3    H126764   4.952   1.318  16.127  0.2421  0.3066  0.1478
 1783TIP3    H226765   4.843   1.224  16.175 -0.1384  0.7263  0.1049
 1784TIP3   OH226766   4.495   1.944   0.610  0.1274  0.2244 -0.2600
 1784TIP3    H126767   4.563   1.881   0.585 -0.9002 -1.2295  0.4796
 1784TIP3    H226768   4.542   2.009   0.662  1.8709  2.0360 -3.7215
 1785TIP3   OH226769   1.890   3.358   3.414  0.2079 -0.1396 -0.2056
 1785TIP3    H126770   1.885   3.353   3.509  0.0761 -0.9373 -0.2443
 1785TIP3    H226771   1.910   3.268   3.386  1.1850  0.2676 -0.8720
 1786TIP3   OH226772   3.169   5.918  15.726 -0.6617  1.0228  0.5462
 1786TIP3    H126773   3.162   5.906  15.631 -1.8987 -0.0560  0.7393
 1786TIP3    H226774   3.215   5.839  15.756 -0.3980  1.2959  0.8609
 1787TIP3   OH226775   0.373   0.955   4.919  0.6656 -0.1618 -0.0730
 1787TIP3    H126776   0.379   0.920   5.008  1.8434  0.4066  0.0874
 1787TIP3    H226777   0.283   0.935   4.892  0.9780 -2.4299  0.3711
 1788TIP3   OH226778   2.355   4.823  14.402 -0.5287 -0.0841  0.3352
 1788TIP3    H126779   2.405   4.904  14.391 -0.2413 -0.3630 -0.4877
 1788TIP3    H226780   2.265   4.848  14.383 -0.5332  0.1752  0.6920
 1789TIP3   OH226781   6.615   5.183  12.804 -0.1317  0.0256 -0.2017
 1789TIP3    H126782   6.544   5.237  12.838  1.2572  1.6555  0.2261
 1789TIP3    H226783   6.578   5.095  12.798 -1.7946  0.5966  1.1602
 1790TIP3   OH226784   3.028   5.258  13.761 -0.2276 -0.2865  0.0576
 1790TIP3    H126785   2.992   5.261  13.672 -0.9304  0.4022  0.3481
 1790TIP3    H226786   3.073   5.174  13.766  0.4087 -0.0416 -1.1727
 1791TIP3   OH226787   0.817   0.792  14.049  0.0272 -0.3372  0.4356
 1791TIP3    H126788   0.775   0.750  13.974  1.3997  1.3247 -1.3748
 1791TIP3    H226789   0.854   0.720  14.100 -0.8857 -1.5110 -0.5120
 1792TIP3   OH226790   3.887   5.285   1.698  0.2493 -0.3193  0.2181
 1792TIP3    H126791   3.797   5.318   1.692  0.4924  0.1238 -2.1065
 1792TIP3    H226792   3.941   5.363   1.702  0.6467 -0.4309 -1.7508
 1793TIP3   OH226793   2.171   2.350  14.335 -0.0541 -0.1206 -0.1590
 1793TIP3    H126794   2.217   2.360  14.252  2.0199  0.0638  0.9266
 1793TIP3    H226795   2.119   2.429  14.344 -2.0902 -1.1067 -2.2429
 1794TIP3   OH226796   6.682   6.731  16.952  0.2832  0.2809  0.9550
 1794TIP3    H126797   6.648   6.786  16.881 -0.3239  1.3665  2.0630
 1794TIP3    H226798   6.770   6.707  16.923  0.6859  2.1003  0.5597
 1795TIP3   OH226799   0.395   6.560   1.347  0.3824 -0.5705  0.2956
 1795TIP3    H126800   0.421   6.486   1.293  1.4447  0.3025 -0.4186
 1795TIP3    H226801   0.444   6.549   1.429  1.6380  0.0964 -0.3548
 1796TIP3   OH226802   2.349   3.585   2.899  0.4289  0.0534  0.3104
 1796TIP3    H126803   2.267   3.623   2.930  0.4779  0.3457  0.0938
 1796TIP3    H226804   2.402   3.572   2.977 -0.0337 -0.6430  0.5073
 1797TIP3   OH226805   0.570   0.710   5.647 -0.1366 -0.3520  0.0529
 1797TIP3    H126806   0.513   0.752   5.711  0.2094 -0.4001  0.3959
 1797TIP3    H226807   0.559   0.616   5.663  0.3631 -0.3512  0.4057
 1798TIP3   OH226808   1.567   5.317  12.243 -0.1525 -0.0429 -0.3809
 1798TIP3    H126809   1.591   5.261  12.169 -0.8597  0.0090 -0.6587
 1798TIP3    H226810   1.578   5.260  12.320 -2.0891 -1.0333 -0.7496
 1799TIP3   OH226811   6.650   3.181   0.106 -0.6058  0.4041  0.0575
 1799TIP3    H126812   6.725   3.228   0.068 -1.8829  2.2968 -0.2612
 1799TIP3    H226813   6.654   3.201   0.199 -0.0266 -0.5157  0.2343
 1800TIP3   OH226814   6.234   1.225   0.060  0.3360  0.3303 -0.6309
 1800TIP3    H126815   6.283   1.154   0.017 -0.2904  0.0448 -0.8946
 1800TIP3    H226816   6.143   1.195   0.059  0.1725  0.7940 -0.0323
 1801TIP3   OH226817   5.632   4.782  15.885  0.4138 -0.1241  0.1049
 1801TIP3    H126818   5.642   4.866  15.841  0.8016 -0.6255 -0.7932
 1801TIP3    H226819   5.672   4.719  15.825 -0.7302 -1.0776  0.3093
 1802TIP3   OH226820   4.991   1.611  10.800 -0.1406 -0.0620  0.3472
 1802TIP3    H126821   5.016   1.689  10.751  0.0988  1.4763  2.7812
 1802TIP3    H226822   4.925   1.642  10.862 -0.2802 -1.8662  1.1562
 1803TIP3   OH226823   0.528   0.130   3.752 -0.0895  0.5904 -0.1510
 1803TIP3    H126824   0.433   0.128   3.744 -0.3017 -2.1508  1.5336
 1803TIP3    H226825   0.559   0.171   3.672 -2.6839  1.8112 -0.6084
 1804TIP3   OH226826   2.680   2.992   4.171  0.1008  0.1399 -0.1769
 1804TIP3    H126827   2.610   2.999   4.105  1.8156 -0.3614 -2.1566
 1804TIP3    H226828   2.655   3.056   4.238 -1.1643  1.5657 -1.8688
 1805TIP3   OH226829   5.183   3.470  12.516  0.3425  0.0184  0.7913
 1805TIP3    H126830   5.174   3.429  12.602  0.8285 -1.2623  0.2576
 1805TIP3    H226831   5.135   3.414  12.456  0.4318  0.6155  0.1356
 1806TIP3   OH226832   3.510   4.368  11.979  0.2929  0.3192  0.5569
 1806TIP3    H126833   3.569   4.382  11.905  1.3778 -0.0560  1.3281
 1806TIP3    H226834   3.459   4.448  11.984  0.4455  0.4893 -0.3836
 1807TIP3   OH226835   0.861   4.192   2.870 -0.1749  0.4078 -0.1211
 1807TIP3    H126836   0.945   4.149   2.887  0.0273  0.7548 -0.2310
 1807TIP3    H226837   0.869   4.225   2.781 -0.8557 -0.5427 -0.5461
 1808TIP3   OH226838   1.890   6.594  16.556 -0.5701  0.3273  0.0668
 1808TIP3    H126839   1.885   6.578  16.462 -0.3375 -0.5899  0.1995
 1808TIP3    H226840   1.822   6.537  16.593 -1.0171  1.0758  0.4138
 1809TIP3   OH226841   0.703   2.046  11.245  0.0158 -0.0766  0.1744
 1809TIP3    H126842   0.734   1.956  11.254 -0.6528 -0.2795  0.5071
 1809TIP3    H226843   0.719   2.067  11.153  0.6570 -0.3522  0.2195
 1810TIP3   OH226844   5.614   1.613  17.110  0.0756 -0.1366 -0.5452
 1810TIP3    H126845   5.540   1.580  17.162 -0.2770 -1.4106 -1.7860
 1810TIP3    H226846   5.685   1.552  17.128  0.5876  0.6041 -0.0058
 1811TIP3   OH226847   4.758   2.217   1.663  0.0907  0.3560  0.3136
 1811TIP3    H126848   4.755   2.162   1.741 -0.7094  2.5306  1.9238
 1811TIP3    H226849   4.807   2.295   1.690  1.8718  0.1864 -2.0992
 1812TIP3   OH226850   2.863   2.472   3.536  0.4353  0.1238  0.7297
 1812TIP3    H126851   2.940   2.528   3.523 -0.0351  0.3420 -1.5654
 1812TIP3    H226852   2.869   2.408   3.466 -0.9381 -0.5059  1.1652
 1813TIP3   OH226853   4.363   3.682  14.777  0.8565  0.1911 -0.1559
 1813TIP3    H126854   4.422   3.743  14.732 -0.3513  0.9493 -0.7716
 1813TIP3    H226855   4.380   3.597  14.736  1.0381  0.5345 -0.8091
 1814TIP3   OH226856   3.292   0.570  11.509  0.1837  0.4687 -0.3372
 1814TIP3    H126857   3.361   0.526  11.460 -0.1936  0.5899 -0.9897
 1814TIP3    H226858   3.268   0.645  11.455 -2.3325 -1.0223 -1.5112
 1815TIP3   OH226859   5.045   1.828  15.007 -0.1153  0.2073 -0.5198
 1815TIP3    H126860   5.102   1.850  14.933  1.1226 -1.7048 -0.1893
 1815TIP3    H226861   4.990   1.757  14.975  0.6515 -0.8624  0.4345
 1816TIP3   OH226862   4.467   4.308   0.555  0.0737  0.4940  0.3629
 1816TIP3    H126863   4.502   4.396   0.569  0.2167  0.1735  2.2973
 1816TIP3    H226864   4.378   4.312   0.590 -1.2138  0.7378 -2.6434
 1817TIP3   OH226865   4.964   3.817   6.458 -0.2331 -0.1770  0.1097
 1817TIP3    H126866   5.000   3.729   6.446 -0.5724 -0.2784 -0.1532
 1817TIP3    H226867   4.885   3.804   6.509 -0.1213  0.0078  0.3319
 1818TIP3   OH226868   1.837   0.561   5.114 -0.5552 -0.4154  0.1363
 1818TIP3    H126869   1.786   0.480   5.120 -0.1129 -0.8291 -1.3158
 1818TIP3    H226870   1.915   0.544   5.167 -0.9322 -0.5411  0.6681
 1819TIP3   OH226871   1.063   3.306   3.566 -0.7039  0.4874  0.5774
 1819TIP3    H126872   1.131   3.367   3.593  0.5772 -1.1150  1.1802
 1819TIP3    H226873   1.070   3.303   3.471  1.6590 -1.2736  0.7155
 1820TIP3   OH226874   3.143   4.556  16.381  0.5687 -0.2496  0.4760
 1820TIP3    H126875   3.233   4.554  16.349 -0.5777  0.7195 -3.3367
 1820TIP3    H226876   3.111   4.643  16.357 -1.3774 -0.4876  1.9233
 1821TIP3   OH226877   3.401   3.496   1.377  0.5983 -0.0753  0.7047
 1821TIP3    H126878   3.493   3.487   1.401  0.0277 -0.6054  2.9701
 1821TIP3    H226879   3.354   3.443   1.442 -1.1420 -2.6059 -2.3242
 1822TIP3   OH226880   5.804   3.794  15.998  0.5270 -0.1925 -0.3472
 1822TIP3    H126881   5.787   3.802  15.904 -0.6666 -1.3921 -0.2681
 1822TIP3    H226882   5.830   3.882  16.026  2.8698 -0.2210 -2.1433
 1823TIP3   OH226883   2.381   2.349  17.385 -0.5039 -0.0043  0.0411
 1823TIP3    H126884   2.406   2.260  17.360 -0.8509  0.2566 -1.3583
 1823TIP3    H226885   2.332   2.339  17.466  0.4477 -0.9617  0.5195
 1824TIP3   OH226886   6.461   4.296  15.529 -0.1225  0.6370 -0.4200
 1824TIP3    H126887   6.499   4.305  15.441 -0.1696  1.3228 -0.3758
 1824TIP3    H226888   6.518   4.349  15.585 -1.1137  1.6638 -0.3500
 1825TIP3   OH226889   5.418   1.166  15.576 -0.6200 -0.4441  0.2042
 1825TIP3    H126890   5.343   1.144  15.632  0.2803 -1.1112  1.1692
 1825TIP3    H226891   5.493   1.164  15.634  0.1348  0.4901 -0.7045
 1826TIP3   OH226892   3.205   2.130  16.927 -0.6211  0.3281  0.3156
 1826TIP3    H126893   3.159   2.155  16.847 -1.0971  0.3024  0.5750
 1826TIP3    H226894   3.168   2.187  16.995  0.2288  0.7903  0.4014
 1827TIP3   OH226895   4.766   4.399   4.529  0.2463 -0.4491 -0.1649
 1827TIP3    H126896   4.678   4.428   4.552  0.2118 -0.6078 -0.0932
 1827TIP3    H226897   4.798   4.465   4.467 -0.0336 -0.5421 -0.4127
 1828TIP3   OH226898   3.429   0.478  16.458 -0.5846 -0.1832 -0.1908
 1828TIP3    H126899   3.359   0.432  16.504 -3.0690  2.3524 -1.1534
 1828TIP3    H226900   3.493   0.499  16.526 -1.2016 -1.7280  0.9161
 1829TIP3   OH226901   6.653   4.433  15.685  0.1234 -0.1186 -0.4424
 1829TIP3    H126902   6.626   4.512  15.732 -2.4519 -0.6914 -0.7833
 1829TIP3    H226903   6.735   4.457  15.643  0.6682  1.5627  1.4160
 1830TIP3   OH226904   6.521   6.742  15.372  0.6135 -0.5823 -0.2163
 1830TIP3    H126905   6.557   6.680  15.436 -0.3429  0.2402  1.1703
 1830TIP3    H226906   6.440   6.700  15.342  1.0808 -0.9849 -0.9382
 1831TIP3   OH226907   2.231   5.352   2.221  0.5727  0.2570  0.2592
 1831TIP3    H126908   2.319   5.388   2.232 -0.1164  1.7081  1.3908
 1831TIP3    H226909   2.184   5.419   2.171  0.5316 -1.2602 -1.8884
 1832TIP3   OH226910   0.892   2.459   3.904  0.0798  0.1651  0.5073
 1832TIP3    H126911   0.840   2.531   3.867 -0.0282  0.0512  0.4376
 1832TIP3    H226912   0.859   2.381   3.860  0.7995  0.1779 -0.0751
 1833TIP3   OH226913   4.234   0.508   5.016  0.1061 -0.0686  0.0284
 1833TIP3    H126914   4.242   0.548   4.930  2.8029 -0.8983 -0.2045
 1833TIP3    H226915   4.229   0.582   5.076 -2.2145  0.5213 -0.7853
 1834TIP3   OH226916   1.958   0.596  11.288 -0.0953  0.1418  0.2734
 1834TIP3    H126917   1.977   0.558  11.203  0.2394 -0.8740  0.7804
 1834TIP3    H226918   2.043   0.623  11.322 -0.2519  0.7426  0.2089
 1835TIP3   OH226919   3.006   6.327   4.672 -0.3752  0.0075 -0.6679
 1835TIP3    H126920   3.026   6.362   4.759 -0.6102 -0.4795 -0.4157
 1835TIP3    H226921   2.968   6.241   4.689 -0.3539 -0.1206 -1.2577
 1836TIP3   OH226922   2.087   3.189  10.673 -0.0175 -0.2903  0.4433
 1836TIP3    H126923   2.073   3.127  10.745  0.6856  0.9478  1.7017
 1836TIP3    H226924   2.142   3.257  10.711  1.6838 -0.3592 -1.7262
 1837TIP3   OH226925   6.201   2.389   3.403 -0.3490 -0.4914  0.1822
 1837TIP3    H126926   6.157   2.349   3.328  0.8126  1.5583 -1.7193
 1837TIP3    H226927   6.151   2.359   3.479 -2.3269 -1.7123 -1.4956
 1838TIP3   OH226928   5.115   5.414   1.354 -0.1772 -0.0294 -0.2706
 1838TIP3    H126929   5.031   5.460   1.364  0.4391  1.1936 -0.5201
 1838TIP3    H226930   5.161   5.430   1.436 -0.1338 -0.5998 -0.1798
 1839TIP3   OH226931   2.345   4.649   3.784 -0.0670 -0.0829 -0.2347
 1839TIP3    H126932   2.261   4.605   3.796 -0.3384  0.3167 -0.6195
 1839TIP3    H226933   2.356   4.704   3.861  0.6148 -1.3499  0.5993
 1840TIP3   OH226934   0.526   6.275  13.796  0.2363 -0.1847  0.3929
 1840TIP3    H126935   0.494   6.218  13.865  0.2746  0.7385  1.1922
 1840TIP3    H226936   0.447   6.319  13.763  0.4402  0.9053  1.2789
 1841TIP3   OH226937   5.021   1.000   0.038 -0.1814  0.3899 -0.1356
 1841TIP3    H126938   5.024   1.094   0.019 -1.6712  0.3133 -0.9578
 1841TIP3    H226939   4.934   0.985   0.075 -0.2452 -0.7632 -0.6806
 1842TIP3   OH226940   0.781   5.764   3.475 -0.0418 -0.1260 -0.2939
 1842TIP3    H126941   0.771   5.837   3.413 -1.1672 -1.0865 -1.2924
 1842TIP3    H226942   0.770   5.804   3.561 -0.4447  0.9303 -0.8182
 1843TIP3   OH226943   0.669   4.222   1.252  0.1839  0.6506  0.1174
 1843TIP3    H126944   0.679   4.136   1.292  3.2393  1.0950  0.5665
 1843TIP3    H226945   0.656   4.203   1.159  3.7406 -0.4552 -0.3273
 1844TIP3   OH226946   1.382   3.152  13.932  0.2619  0.4960 -0.1242
 1844TIP3    H126947   1.298   3.199  13.932 -0.2821 -0.4553 -0.5582
 1844TIP3    H226948   1.390   3.119  14.022  1.2277  2.3738  0.5413
 1845TIP3   OH226949   0.027   4.430   1.790 -0.2836  0.2540  0.5079
 1845TIP3    H126950  -0.034   4.501   1.775 -0.0230  0.4740  0.4739
 1845TIP3    H226951  -0.017   4.373   1.853 -0.5751  0.3401  0.3836
 1846TIP3   OH226952   4.601   4.266   0.248  0.4498  0.0493  0.2418
 1846TIP3    H126953   4.553   4.277   0.330  0.6972 -1.7248  0.6785
 1846TIP3    H226954   4.581   4.344   0.197 -3.5242 -0.9070  0.0554
 1847TIP3   OH226955   2.786   3.595  12.814  0.0545 -0.1210  0.2101
 1847TIP3    H126956   2.761   3.557  12.898 -1.9563  0.1374 -0.2194
 1847TIP3    H226957   2.772   3.525  12.751 -2.1309  0.7610 -0.3690
 1848TIP3   OH226958   5.566   1.633  11.733  0.3846 -0.3245  0.8080
 1848TIP3    H126959   5.527   1.582  11.662  0.8631 -0.3173  0.5363
 1848TIP3    H226960   5.491   1.670  11.779  0.0737  0.1074 -0.0183
 1849TIP3   OH226961   4.120   1.159  11.725 -0.6189  0.4119 -0.0071
 1849TIP3    H126962   4.151   1.159  11.634  0.3024  0.5736  0.2978
 1849TIP3    H226963   4.131   1.068  11.753 -1.0744  0.3232 -0.1097
 1850TIP3   OH226964   2.243   2.734  14.497 -0.4029 -0.4218 -0.3053
 1850TIP3    H126965   2.335   2.717  14.475 -0.1980  1.5410 -1.2301
 1850TIP3    H226966   2.236   2.711  14.590  1.3875  0.6273  0.1453
 1851TIP3   OH226967   1.767   3.146  11.936  0.5956  0.2389  0.5219
 1851TIP3    H126968   1.740   3.220  11.882  1.2315 -0.5375 -0.9139
 1851TIP3    H226969   1.863   3.147  11.931  0.6301 -0.3389  0.9735
 1852TIP3   OH226970   3.356   3.667   4.664 -0.3224 -0.0245 -0.4461
 1852TIP3    H126971   3.446   3.654   4.692 -0.6419 -0.3359  0.4824
 1852TIP3    H226972   3.307   3.682   4.746 -1.0911  0.2398 -0.9381
 1853TIP3   OH226973   4.461   1.910   3.487  0.2122 -0.0916  0.4199
 1853TIP3    H126974   4.404   1.985   3.469 -0.4805 -0.1484  2.1178
 1853TIP3    H226975   4.442   1.848   3.417  1.9145  1.8495 -1.9131
 1854TIP3   OH226976   6.459   3.358  11.503  0.4892  0.6658  0.1471
 1854TIP3    H126977   6.527   3.291  11.493  2.0405  2.0838  0.7648
 1854TIP3    H226978   6.442   3.362  11.598  0.1924  0.9523  0.0863
 1855TIP3   OH226979   3.199   4.128   0.173  0.2425  0.1036  0.0738
 1855TIP3    H126980   3.271   4.097   0.228 -0.9205  0.2421  1.7499
 1855TIP3    H226981   3.212   4.222   0.166  1.4490 -0.1475 -1.5283
 1856TIP3   OH226982   2.405   1.527  11.305  0.0150  0.5329 -0.3705
 1856TIP3    H126983   2.374   1.447  11.262  1.2112  0.8641 -1.9333
 1856TIP3    H226984   2.470   1.496  11.368 -0.6330  0.1655  0.1296
 1857TIP3   OH226985   2.537   1.435   5.586 -0.4946 -0.2079 -0.3808
 1857TIP3    H126986   2.545   1.518   5.539  1.0076  0.3202  0.7314
 1857TIP3    H226987   2.490   1.377   5.525  0.1593  0.8590 -1.9606
 1858TIP3   OH226988   4.032   1.947   0.055 -0.1751 -0.2928 -0.3599
 1858TIP3    H126989   4.010   2.037   0.078 -0.4335 -0.1223 -1.2155
 1858TIP3    H226990   4.125   1.939   0.077 -0.4593 -0.2413  0.9491
 1859TIP3   OH226991   0.960   4.959  16.183 -0.1910 -0.2426  0.3377
 1859TIP3    H126992   0.992   4.893  16.245 -0.7880  1.5314  2.6643
 1859TIP3    H226993   0.884   4.998  16.227 -0.2591  1.5427 -1.2450
 1860TIP3   OH226994   1.032   5.335   6.396  0.6534  0.2093 -0.4438
 1860TIP3    H126995   1.054   5.381   6.477  0.2569 -0.1382 -0.1370
 1860TIP3    H226996   1.080   5.383   6.328  1.9001 -0.1678  0.1278
 1861TIP3   OH226997   4.394   0.476  14.520  0.2816  0.1326 -0.3716
 1861TIP3    H126998   4.477   0.497  14.564  0.1084  1.2772 -0.5602
 1861TIP3    H226999   4.390   0.538  14.447 -0.2574 -0.6075 -0.9834
 1862TIP3   OH227000   0.074   5.774  16.064 -0.9920  0.1409 -0.3724
 1862TIP3    H127001   0.133   5.783  15.990  1.3746  0.5114  1.4206
 1862TIP3    H227002   0.081   5.858  16.110 -2.8557  0.1360 -0.0207
 1863TIP3   OH227003   5.054   0.157   4.439  0.4257  0.2794 -0.1095
 1863TIP3    H127004   5.085   0.066   4.438  0.5199  0.2541 -2.7966
 1863TIP3    H227005   5.024   0.171   4.529 -0.3607 -2.6763  0.2150
 1864TIP3   OH227006   0.708   6.391  10.381  0.1277  0.0611  0.3916
 1864TIP3    H127007   0.698   6.404  10.476  0.6976 -1.0571  0.6194
 1864TIP3    H227008   0.781   6.329  10.373  2.1200  2.4054 -0.8964
 1865TIP3   OH227009   3.466   3.927   0.551  0.1960 -0.5167  0.0099
 1865TIP3    H127010   3.557   3.899   0.562 -0.1878 -1.7962  0.0392
 1865TIP3    H227011   3.439   3.887   0.468  0.1946  1.3591 -0.9662
 1866TIP3   OH227012   0.580   2.779   4.551  0.5724 -0.6859  0.2273
 1866TIP3    H127013   0.671   2.762   4.525 -0.1110 -1.1484 -2.0761
 1866TIP3    H227014   0.563   2.716   4.622  2.0094 -0.6167  0.6679
 1867TIP3   OH227015   6.634   0.313  14.343 -1.0146 -0.5080  0.0002
 1867TIP3    H127016   6.729   0.307  14.354 -1.0223 -2.2879 -0.5847
 1867TIP3    H227017   6.622   0.344  14.254 -0.9993  1.3312  0.6125
 1868TIP3   OH227018   4.048   1.917   2.608 -0.2261  0.1903  0.1442
 1868TIP3    H127019   4.043   1.912   2.513 -0.7857 -1.4004  0.2107
 1868TIP3    H227020   3.956   1.915   2.637 -0.0468 -0.3572  0.7210
 1869TIP3   OH227021   3.315   1.866  15.572 -0.0264 -0.4101 -0.6725
 1869TIP3    H127022   3.261   1.907  15.505 -0.1148  2.1128  0.8233
 1869TIP3    H227023   3.341   1.938  15.630 -0.7150 -2.5336  2.5334
 1870TIP3   OH227024   3.217   3.884   5.316  0.6248  0.0761 -0.2215
 1870TIP3    H127025   3.179   3.971   5.306 -2.5601 -1.0613  0.5380
 1870TIP3    H227026   3.240   3.878   5.409 -2.9694 -1.0777  0.7662
 1871TIP3   OH227027   6.699   5.611   0.607 -0.0242 -0.8785 -0.2865
 1871TIP3    H127028   6.708   5.567   0.522  1.1319 -0.2570 -0.5123
 1871TIP3    H227029   6.784   5.598   0.649 -0.3623 -0.6015  0.4924
 1872TIP3   OH227030   3.091   6.410   6.539  0.7356 -0.3435 -0.7883
 1872TIP3    H127031   3.086   6.327   6.586 -1.0844  0.2185  0.1249
 1872TIP3    H227032   3.074   6.388   6.448  0.6497 -1.0288 -0.6097
 1873TIP3   OH227033   0.770   3.504   1.376  0.3232  0.0835  0.0460
 1873TIP3    H127034   0.845   3.552   1.410 -0.3578  1.1574  0.0947
 1873TIP3    H227035   0.696   3.564   1.389 -0.4010 -0.6103 -0.7798
 1874TIP3   OH227036   0.433   6.661   5.445  0.3977 -0.0856 -0.7185
 1874TIP3    H127037   0.508   6.677   5.502 -1.2413 -1.5747  2.0710
 1874TIP3    H227038   0.433   6.567   5.430 -1.9633 -0.4753  1.1138
 1875TIP3   OH227039   2.587   0.398  15.400  0.6328 -0.2940 -0.3944
 1875TIP3    H127040   2.493   0.414  15.390 -0.0202 -2.3434  1.7442
 1875TIP3    H227041   2.603   0.405  15.494  2.3503 -1.3069 -0.5657
 1876TIP3   OH227042   0.928   6.459  10.988  0.1638 -0.0927  0.8768
 1876TIP3    H127043   0.924   6.381  10.932 -1.1818 -0.9697  2.1142
 1876TIP3    H227044   0.967   6.427  11.070  0.5043  0.7561  1.0473
 1877TIP3   OH227045   0.882   6.102   3.461  0.2682  0.1601 -0.3503
 1877TIP3    H127046   0.943   6.082   3.532 -0.9507 -2.4041  0.0718
 1877TIP3    H227047   0.915   6.051   3.387 -1.6974 -1.9831  0.1221
 1878TIP3   OH227048   3.805   2.793  10.816  0.1008 -0.4371 -0.0894
 1878TIP3    H127049   3.829   2.790  10.908  1.7703 -0.6650 -0.5108
 1878TIP3    H227050   3.873   2.744  10.771  0.6916  1.7186 -1.7146
 1879TIP3   OH227051   6.018   6.668  16.064  0.3694  0.3780 -0.4557
 1879TIP3    H127052   6.024   6.742  16.004 -2.6169 -0.0927 -1.5156
 1879TIP3    H227053   5.927   6.639  16.058  1.3020 -3.2567  0.0766
 1880TIP3   OH227054   4.840   6.404   0.828  0.3281 -0.3807 -0.2214
 1880TIP3    H127055   4.931   6.393   0.856  0.6683  0.0132 -1.1364
 1880TIP3    H227056   4.788   6.382   0.906  1.1935 -0.8751  0.2296
 1881TIP3   OH227057   4.254   5.873   4.818 -0.0231 -0.3941  0.0724
 1881TIP3    H127058   4.199   5.943   4.782  2.8020  2.7828  1.2753
 1881TIP3    H227059   4.305   5.841   4.744  0.8876  1.1961 -0.0427
 1882TIP3   OH227060   1.604   5.129   0.921  0.3516  0.2399 -0.0403
 1882TIP3    H127061   1.656   5.201   0.958 -1.3195  0.8199  1.3164
 1882TIP3    H227062   1.668   5.060   0.904  1.7521  1.3823  0.2964
 1883TIP3   OH227063   4.616   6.602   2.824  0.3933  0.0595 -0.7556
 1883TIP3    H127064   4.546   6.667   2.829 -0.6987 -1.0044 -1.6461
 1883TIP3    H227065   4.607   6.563   2.737  2.3205  0.1238 -1.0263
 1884TIP3   OH227066   4.065   3.783   5.058 -0.4601  0.6031 -0.0333
 1884TIP3    H127067   4.082   3.877   5.052 -0.4691  0.5725 -0.6100
 1884TIP3    H227068   4.151   3.744   5.073 -0.1481  0.5459 -1.7966
 1885TIP3   OH227069   4.164   1.016   2.434 -0.1329  0.5337  0.0068
 1885TIP3    H127070   4.246   1.058   2.459 -0.6538  0.3385  2.2710
 1885TIP3    H227071   4.189   0.925   2.415  0.0605  0.1822  1.7939
 1886TIP3   OH227072   0.054   1.546   6.760  0.1812 -0.2642 -0.0717
 1886TIP3    H127073   0.148   1.537   6.777  0.4395  0.5455 -0.9590
 1886TIP3    H227074   0.017   1.462   6.786  0.8430  0.0627  2.1494
 1887TIP3   OH227075   6.410   6.075  13.100 -0.0931  0.1155 -0.4733
 1887TIP3    H127076   6.437   6.029  13.180  3.6393  1.0803 -0.9977
 1887TIP3    H227077   6.435   6.166  13.115 -1.8371  0.8656 -1.7556
 1888TIP3   OH227078   6.279   2.159  14.863 -0.0662 -0.2033  0.3987
 1888TIP3    H127079   6.273   2.068  14.893 -0.5444 -0.1297  0.5225
 1888TIP3    H227080   6.353   2.195  14.913  3.6547 -1.9054 -3.2171
 1889TIP3   OH227081   2.907   2.706  15.820 -0.1139 -0.1926  0.0935
 1889TIP3    H127082   2.862   2.622  15.827 -1.6858  0.5438 -0.6421
 1889TIP3    H227083   2.887   2.737  15.732  0.2469  1.0512  0.4268
 1890TIP3   OH227084   2.492   0.079   1.470 -0.0984 -0.1814 -0.4937
 1890TIP3    H127085   2.475   0.110   1.559 -0.5086 -2.0276  0.1232
 1890TIP3    H227086   2.412   0.034   1.445  1.5434 -3.7109  0.0446
 1891TIP3   OH227087   1.671   2.056  16.911  0.0052 -0.1331  0.2209
 1891TIP3    H127088   1.678   1.964  16.937 -2.7622 -0.7491 -0.9247
 1891TIP3    H227089   1.611   2.095  16.975  0.2519  0.6086  0.0138
 1892TIP3   OH227090   3.168   0.915  14.740 -0.4045 -0.0891  0.2384
 1892TIP3    H127091   3.081   0.887  14.712  0.2598 -1.9066 -0.1224
 1892TIP3    H227092   3.152   0.962  14.823 -1.5800 -1.9445  1.1256
 1893TIP3   OH227093   2.060   0.632  13.163 -0.0209  0.1045 -0.2788
 1893TIP3    H127094   2.089   0.591  13.245  0.3915  0.2803 -0.3342
 1893TIP3    H227095   2.021   0.715  13.190  1.0114  0.6285 -0.3300
 1894TIP3   OH227096   2.796   1.035   1.676 -0.3905  0.0617  0.6481
 1894TIP3    H127097   2.887   1.006   1.669 -0.9381 -2.2394  1.8457
 1894TIP3    H227098   2.794   1.088   1.755 -0.2310 -0.7347  1.2056
 1895TIP3   OH227099   4.029   2.004  14.671  0.2065 -0.3783 -0.0258
 1895TIP3    H127100   4.002   1.948  14.598 -0.0306 -1.1693  0.6459
 1895TIP3    H227101   3.952   2.058  14.688  0.5147  0.3318 -0.8270
 1896TIP3   OH227102   5.921   2.699   2.585  0.7073 -0.3219 -0.1526
 1896TIP3    H127103   5.881   2.612   2.583 -1.9935  0.8080 -0.3678
 1896TIP3    H227104   5.924   2.721   2.678  0.3368 -0.2086 -0.1665
 1897TIP3   OH227105   0.607   4.435  15.435 -0.1878  0.1243  0.4640
 1897TIP3    H127106   0.677   4.410  15.375 -1.1509  0.8461 -1.0174
 1897TIP3    H227107   0.628   4.525  15.460 -0.8429  0.5293 -0.4027
 1898TIP3   OH227108   4.254   0.595   3.175  0.2069 -0.8453  0.5245
 1898TIP3    H127109   4.320   0.627   3.112 -1.7538  1.0084 -0.7285
 1898TIP3    H227110   4.301   0.590   3.258  1.9878  0.1833 -0.3533
 1899TIP3   OH227111   3.596   1.100   0.681 -0.1628 -0.7610  0.3931
 1899TIP3    H127112   3.605   1.192   0.706 -1.0965 -0.3800 -0.5794
 1899TIP3    H227113   3.531   1.065   0.742  0.1389 -0.7493  0.7178
 1900TIP3   OH227114   0.549   2.536   0.435 -0.2852 -0.4516  0.5208
 1900TIP3    H127115   0.564   2.622   0.396  0.0000 -0.7613 -0.0525
 1900TIP3    H227116   0.612   2.479   0.393 -0.5466 -0.9705  0.8248
 1901TIP3   OH227117   3.212   2.756  16.553 -0.1389 -0.1433  0.9797
 1901TIP3    H127118   3.153   2.705  16.608 -2.2244  0.9802 -0.1107
 1901TIP3    H227119   3.158   2.787  16.481  2.1961 -0.4658 -1.0482
 1902TIP3   OH227120   5.942   6.324   1.750 -0.2647  0.1808  0.0634
 1902TIP3    H127121   5.961   6.360   1.836 -0.7228 -1.8486  1.0595
 1902TIP3    H227122   6.023   6.280   1.724 -1.2741 -2.6092  1.2877
 1903TIP3   OH227123   2.432   6.460   1.553 -0.3897  0.5633 -0.1506
 1903TIP3    H127124   2.480   6.398   1.498  0.5451 -0.4445  1.6707
 1903TIP3    H227125   2.499   6.523   1.582 -0.3897 -0.0948  1.3792
 1904TIP3   OH227126   4.474   0.713   2.142 -0.0076  0.3126  0.9515
 1904TIP3    H127127   4.544   0.693   2.079 -0.8113  1.4051 -0.3720
 1904TIP3    H227128   4.465   0.809   2.137 -1.1172  0.2580  1.6160
 1905TIP3   OH227129   5.393   5.082   1.320 -0.0697  0.0847  0.2207
 1905TIP3    H127130   5.300   5.099   1.335 -0.1368  0.1098 -0.2201
 1905TIP3    H227131   5.411   5.003   1.371 -0.1300  0.5599  0.9941
 1906TIP3   OH227132   0.978   0.267   1.338 -0.2997 -0.2557  0.4962
 1906TIP3    H127133   1.064   0.239   1.368 -0.0305  2.3084  2.4309
 1906TIP3    H227134   0.993   0.297   1.248  0.5951 -0.7920  0.4550
 1907TIP3   OH227135   6.357   3.979  17.096 -0.0413 -0.1351  0.2573
 1907TIP3    H127136   6.390   3.895  17.064 -0.5829 -0.1750 -0.2160
 1907TIP3    H227137   6.387   4.043  17.031 -0.0790 -0.0361  0.3382
 1908TIP3   OH227138   1.330   0.412   0.288  0.3877  0.2954  0.5036
 1908TIP3    H127139   1.242   0.376   0.277  0.6618 -1.0221  2.1200
 1908TIP3    H227140   1.376   0.389   0.207 -0.6992  0.8674 -0.2898
 1909TIP3   OH227141   5.353   4.245  17.481  0.0396 -0.2132 -0.2677
 1909TIP3    H127142   5.305   4.247  17.398 -1.4080 -0.8932  0.5167
 1909TIP3    H227143   5.414   4.173  17.471  0.0754 -0.1106 -0.8467
 1910TIP3   OH227144   2.240   2.758   2.616 -0.0966  0.7167 -0.2691
 1910TIP3    H127145   2.314   2.738   2.674 -0.8099 -2.6536 -0.3138
 1910TIP3    H227146   2.278   2.760   2.528  0.3239  1.7954 -0.0855
 1911TIP3   OH227147   0.503   6.275   5.872  0.5921  0.2464  1.2330
 1911TIP3    H127148   0.427   6.327   5.846 -0.7399 -0.8693  2.6417
 1911TIP3    H227149   0.510   6.290   5.967  1.2267 -0.7774  1.3608
 1912TIP3   OH227150   3.071   1.650  11.843 -0.0149 -0.4100  0.0694
 1912TIP3    H127151   3.076   1.605  11.759 -0.1410  0.3079 -0.3285
 1912TIP3    H227152   2.981   1.681  11.848 -0.4120 -1.6669  1.1200
 1913TIP3   OH227153   1.846   2.085  15.255  0.1746 -0.4778 -0.2576
 1913TIP3    H127154   1.753   2.068  15.264  0.1257 -0.2993 -0.4352
 1913TIP3    H227155   1.886   1.998  15.253  0.2394 -0.5770  2.1580
 1914TIP3   OH227156   1.058   0.608   0.740  0.3366 -0.1562  0.4609
 1914TIP3    H127157   1.075   0.592   0.647 -0.4988 -0.9298  0.4317
 1914TIP3    H227158   1.140   0.583   0.783  1.0488  1.0467 -0.1288
 1915TIP3   OH227159   5.994   1.027   5.260 -0.2541  0.1831 -0.4041
 1915TIP3    H127160   6.045   0.949   5.239  0.5873  1.1805 -2.3837
 1915TIP3    H227161   5.991   1.029   5.355  0.4992 -1.7372 -0.2894
 1916TIP3   OH227162   5.584   4.312  12.400 -0.1038 -0.1320 -0.2698
 1916TIP3    H127163   5.600   4.218  12.401  1.1782  0.0490  1.8380
 1916TIP3    H227164   5.671   4.351  12.407 -0.7074  1.1817  0.2762
 1917TIP3   OH227165   5.388   4.520   0.032 -0.2667  0.4576  0.3948
 1917TIP3    H127166   5.402   4.570  -0.049 -1.6390  0.9018  0.4201
 1917TIP3    H227167   5.378   4.429   0.003 -1.6782  0.7392 -0.0405
 1918TIP3   OH227168   1.584   0.614  16.132  0.0484  0.0494 -0.0768
 1918TIP3    H127169   1.598   0.526  16.166  0.1501 -0.5423 -1.5869
 1918TIP3    H227170   1.501   0.609  16.086  0.0281  0.7587 -0.1277
 1919TIP3   OH227171   3.395   5.524   5.368 -0.1574  0.7292  0.3175
 1919TIP3    H127172   3.405   5.439   5.411 -0.1193  1.5690  2.0576
 1919TIP3    H227173   3.309   5.555   5.396 -0.0791  1.3617 -0.1227
 1920TIP3   OH227174   2.770   1.441   2.135  0.1482  0.5913  0.0089
 1920TIP3    H127175   2.753   1.530   2.168  1.7420  1.1919 -0.6414
 1920TIP3    H227176   2.853   1.417   2.177 -0.4900 -0.7873  0.5093
 1921TIP3   OH227177   4.822   2.781  12.417  0.1436  0.6519 -0.0063
 1921TIP3    H127178   4.773   2.838  12.358 -0.6662  1.3211  1.2566
 1921TIP3    H227179   4.868   2.720  12.359 -2.9239 -0.6634 -1.3140
 1922TIP3   OH227180   6.324   0.924   3.632  0.0603  0.4034 -0.7502
 1922TIP3    H127181   6.335   0.982   3.556  0.8629 -0.4506 -1.3097
 1922TIP3    H227182   6.295   0.841   3.594 -0.8655  0.3606  0.0202
 1923TIP3   OH227183   6.522   0.430  12.802  0.1889 -0.2368 -0.4689
 1923TIP3    H127184   6.610   0.416  12.836  1.1936  1.6794 -2.0908
 1923TIP3    H227185   6.488   0.342  12.788  1.7149 -1.0229  0.4865
 1924TIP3   OH227186   3.257   4.004  11.520  0.4712  0.0083  0.3499
 1924TIP3    H127187   3.178   3.978  11.568  1.7067 -0.2941  2.3463
 1924TIP3    H227188   3.267   3.938  11.452 -0.9426  0.0107  0.1225
 1925TIP3   OH227189   1.559   4.620   4.476 -0.0628 -0.0602  0.2499
 1925TIP3    H127190   1.639   4.570   4.462 -0.8801 -1.4048  0.1394
 1925TIP3    H227191   1.586   4.696   4.527  1.4096 -0.0261 -0.5358
 1926TIP3   OH227192   0.605   4.676  15.015 -0.4483  0.7191  0.4628
 1926TIP3    H127193   0.591   4.603  14.955 -0.9843  0.7912  0.4893
 1926TIP3    H227194   0.694   4.705  14.997 -0.0171 -0.3030  0.8515
 1927TIP3   OH227195   5.438   5.613   3.095  0.3458 -0.4116 -0.3467
 1927TIP3    H127196   5.353   5.604   3.052 -0.3109 -2.8212  1.2417
 1927TIP3    H227197   5.486   5.534   3.069  2.1307  0.9161 -1.2115
 1928TIP3   OH227198   4.445   4.931  15.194  0.2852  0.0368  0.7106
 1928TIP3    H127199   4.529   4.941  15.239  0.1705  1.5456  0.6624
 1928TIP3    H227200   4.468   4.908  15.104  0.6752  0.5867  0.6607
 1929TIP3   OH227201   3.164   6.503  11.902 -0.2376 -0.4739  0.3154
 1929TIP3    H127202   3.111   6.580  11.921 -0.3135 -0.4198 -0.0944
 1929TIP3    H227203   3.181   6.462  11.987  2.2840  1.5840  0.9385
 1930TIP3   OH227204   6.304   5.644  17.064 -0.1404 -0.8070 -0.0540
 1930TIP3    H127205   6.282   5.553  17.046 -2.5933 -0.4939  1.0746
 1930TIP3    H227206   6.290   5.655  17.158  0.1481  0.7343 -0.1579
 1931TIP3   OH227207   3.565   6.214   4.490  0.3524 -0.1640 -0.5617
 1931TIP3    H127208   3.533   6.224   4.401 -0.8353 -1.7779 -0.3754
 1931TIP3    H227209   3.530   6.289   4.538 -0.6309 -0.3045 -1.0443
 1932TIP3   OH227210   4.728   2.132  11.920 -0.3647  0.0464 -0.4192
 1932TIP3    H127211   4.814   2.149  11.883 -0.3499  0.8386 -0.0600
 1932TIP3    H227212   4.745   2.111  12.012 -0.4812 -0.7888 -0.5862
 1933TIP3   OH227213   1.039   2.627   6.505 -0.5791 -0.2592 -0.3327
 1933TIP3    H127214   0.984   2.555   6.537  0.0311 -0.4349  0.3456
 1933TIP3    H227215   1.125   2.587   6.490 -0.9558 -0.3013 -2.7121
 1934TIP3   OH227216   2.334   1.640  12.372  0.3467 -0.0565 -0.5070
 1934TIP3    H127217   2.396   1.633  12.446  0.3347  1.6660 -0.2973
 1934TIP3    H227218   2.389   1.633  12.294  0.8428  1.4027 -0.3202
 1935TIP3   OH227219   0.953   2.219  15.210 -0.3491  0.3428 -0.5702
 1935TIP3    H127220   0.897   2.257  15.278  1.0450  0.8086  0.3584
 1935TIP3    H227221   0.919   2.130  15.198  0.0429 -0.1536  1.5717
 1936TIP3   OH227222   2.480   5.595  11.666  0.2437 -0.7627  0.0907
 1936TIP3    H127223   2.551   5.539  11.697  1.7096  0.6445 -0.5679
 1936TIP3    H227224   2.489   5.675  11.718 -1.2768 -0.7839  0.4279
 1937TIP3   OH227225   5.821   3.225   0.256  0.8167  0.3819 -0.0542
 1937TIP3    H127226   5.878   3.150   0.274 -1.0753 -1.0609  0.2279
 1937TIP3    H227227   5.862   3.269   0.182  1.4734 -1.5391 -0.8977
 1938TIP3   OH227228   5.055   4.357   4.265 -0.4778  0.8886  0.0846
 1938TIP3    H127229   5.088   4.385   4.179  2.3550 -0.8215  0.4884
 1938TIP3    H227230   5.076   4.430   4.323  2.0413  0.2312  0.1437
 1939TIP3   OH227231   1.560   6.370  12.046 -0.1514  0.1939  0.1163
 1939TIP3    H127232   1.549   6.275  12.040 -1.8243  0.4119 -0.7474
 1939TIP3    H227233   1.654   6.382  12.063 -0.0271 -1.6196  0.9002
 1940TIP3   OH227234   0.667   2.638   3.859 -0.3425 -0.2237  0.6179
 1940TIP3    H127235   0.705   2.672   3.778  0.9569  0.9018  1.6507
 1940TIP3    H227236   0.573   2.657   3.851  0.0936  2.1784  0.3950
 1941TIP3   OH227237   4.449   1.304  14.272  0.0102  0.1348  0.2557
 1941TIP3    H127238   4.449   1.227  14.214 -1.0420 -0.8524  1.5001
 1941TIP3    H227239   4.444   1.379  14.213 -1.3246 -0.8503 -0.9526
 1942TIP3   OH227240   5.776   3.838   0.033  0.8804 -0.1337 -0.2860
 1942TIP3    H127241   5.755   3.748   0.056  0.1344 -0.4042 -1.8473
 1942TIP3    H227242   5.859   3.831  -0.015  1.7543  0.2566  1.1110
 1943TIP3   OH227243   4.983   6.565  11.748  0.2062  0.1456 -0.1625
 1943TIP3    H127244   4.912   6.502  11.733  0.5308 -0.6302  1.3479
 1943TIP3    H227245   4.991   6.569  11.843  0.9336  1.6712 -0.2564
 1944TIP3   OH227246   1.343   5.364  15.626 -0.1467 -0.8847 -0.0722
 1944TIP3    H127247   1.381   5.451  15.631 -1.1778 -0.4124 -0.1816
 1944TIP3    H227248   1.248   5.378  15.633 -0.4210 -1.8754 -1.3516
 1945TIP3   OH227249   0.931   0.932  13.741  0.0291  0.7622 -0.2608
 1945TIP3    H127250   1.008   0.877  13.755  0.6315  1.7274  0.2832
 1945TIP3    H227251   0.860   0.885  13.785  0.6663  0.7106  0.7586
 1946TIP3   OH227252   6.746   5.944  15.399  0.2576 -0.3366  0.4766
 1946TIP3    H127253   6.776   5.948  15.490 -0.9165 -1.1471  0.9310
 1946TIP3    H227254   6.745   5.850  15.378 -0.2990 -0.2148 -0.0743
 1947TIP3   OH227255   3.779   1.966   0.273 -0.1204  0.2742  0.2922
 1947TIP3    H127256   3.704   2.013   0.236  1.6546  3.4597  0.4201
 1947TIP3    H227257   3.850   1.982   0.212  0.3409 -3.7893 -0.5336
 1948TIP3   OH227258   4.793   3.873  11.670  0.4304 -0.0650 -0.4393
 1948TIP3    H127259   4.806   3.802  11.606  0.7731  0.9314 -1.5187
 1948TIP3    H227260   4.858   3.857  11.737  1.0853 -0.3021 -1.1151
 1949TIP3   OH227261   1.884   6.369  13.137  0.2494  0.4024 -0.0303
 1949TIP3    H127262   1.941   6.317  13.194  2.8687  0.7262 -2.1325
 1949TIP3    H227263   1.920   6.457  13.140 -0.8344  0.8880 -0.5901
 1950TIP3   OH227264   6.253   5.560  16.301 -0.0858 -0.4052 -0.6208
 1950TIP3    H127265   6.269   5.523  16.214 -0.1215 -1.2647 -0.2733
 1950TIP3    H227266   6.206   5.642  16.284  1.2438  0.2095 -1.4655
 1951TIP3   OH227267   1.633   2.451  16.840  0.3303 -0.4173  0.7381
 1951TIP3    H127268   1.659   2.453  16.748 -0.8824 -1.0843  0.3568
 1951TIP3    H227269   1.653   2.361  16.868 -0.7219 -0.6909  0.6641
 1952TIP3   OH227270   5.362   5.959  15.253 -0.2472  0.2529 -0.4342
 1952TIP3    H127271   5.401   5.874  15.273 -1.2958 -0.5162 -1.4901
 1952TIP3    H227272   5.356   6.003  15.338  0.1041 -0.8219  0.1713
 1953TIP3   OH227273   6.640   3.161  11.544  0.3701 -0.3360  0.3515
 1953TIP3    H127274   6.708   3.148  11.477 -0.0873  1.4034 -0.5321
 1953TIP3    H227275   6.682   3.219  11.608 -0.0229  0.1626  0.1685
 1954TIP3   OH227276   3.123   4.233   1.043  0.1168 -0.3176 -0.5284
 1954TIP3    H127277   3.090   4.174   1.111  0.6259  0.0614  0.0520
 1954TIP3    H227278   3.055   4.299   1.034  0.3586  0.0169  0.1018
 1955TIP3   OH227279   3.967   2.689   4.289 -0.4170 -0.0330 -0.0545
 1955TIP3    H127280   3.927   2.663   4.372 -2.4891 -0.4193 -1.1028
 1955TIP3    H227281   4.045   2.634   4.282 -0.5404 -0.4288  1.3221
 1956TIP3   OH227282   1.103   0.501  11.775 -0.2624 -0.3110 -0.6403
 1956TIP3    H127283   1.052   0.454  11.841  3.0185  0.2152  2.5946
 1956TIP3    H227284   1.059   0.586  11.768 -0.5083 -0.2298  1.2606
 1957TIP3   OH227285   1.930   1.278   2.861 -0.4769  0.3887  0.0796
 1957TIP3    H127286   1.854   1.274   2.804  1.6893 -0.7062 -3.0207
 1957TIP3    H227287   1.990   1.339   2.817  2.0911 -1.9636  0.0320
 1958TIP3   OH227288   1.957   5.027  16.383 -0.0815  0.2495 -0.4684
 1958TIP3    H127289   1.868   4.992  16.392 -0.7712  1.2856 -2.6947
 1958TIP3    H227290   1.977   5.018  16.290  2.0727  0.2953 -0.0626
 1959TIP3   OH227291   3.986   4.613  16.794 -1.0934  0.0181 -0.4930
 1959TIP3    H127292   3.893   4.596  16.800 -1.2773  0.8934 -0.6847
 1959TIP3    H227293   4.021   4.584  16.878 -1.4457 -0.8264 -0.6358
 1960TIP3   OH227294   6.184   6.450   4.125 -0.2853 -0.3808 -0.4680
 1960TIP3    H127295   6.274   6.480   4.140  0.6446 -2.2454 -1.9558
 1960TIP3    H227296   6.172   6.379   4.188 -1.0068  0.3013  0.1949
 1961TIP3   OH227297   0.520   2.566   3.556  0.4313 -0.2278 -0.1881
 1961TIP3    H127298   0.517   2.483   3.508  0.2456 -1.5038  1.9007
 1961TIP3    H227299   0.609   2.599   3.540  1.2693 -1.9286  0.6501
 1962TIP3   OH227300   6.744   5.856   3.125  0.4692  0.3243  0.7593
 1962TIP3    H127301   6.684   5.910   3.074  0.3343 -0.6718 -0.1695
 1962TIP3    H227302   6.742   5.895   3.213  0.8684  2.1955 -0.0238
 1963TIP3   OH227303   6.229   2.860   4.815 -0.4242 -0.1483  0.0346
 1963TIP3    H127304   6.310   2.840   4.767  0.3432 -2.0024  1.9182
 1963TIP3    H227305   6.243   2.948   4.849 -0.0191  0.2875 -1.1916
 1964TIP3   OH227306   3.772   0.515  14.804  0.0504 -0.1306 -0.5542
 1964TIP3    H127307   3.774   0.586  14.740  1.4984 -0.3191 -0.7327
 1964TIP3    H227308   3.753   0.437  14.752 -0.4765 -0.0427 -0.5031
 1965TIP3   OH227309   0.907   1.656  16.415  0.6706  0.0958 -0.4978
 1965TIP3    H127310   0.982   1.714  16.431 -0.2717  1.2350 -0.1021
 1965TIP3    H227311   0.915   1.633  16.322  2.8335 -1.7598  0.0486
 1966TIP3   OH227312   2.147   2.095  13.363  0.3973 -0.0849 -0.2660
 1966TIP3    H127313   2.066   2.046  13.380  0.0116  0.6975  0.2098
 1966TIP3    H227314   2.212   2.027  13.344 -0.4878 -0.7035 -1.1963
 1967TIP3   OH227315   1.972   5.834  16.033 -0.1152  0.2218  0.2387
 1967TIP3    H127316   2.064   5.859  16.033  0.3928 -1.4003 -1.6738
 1967TIP3    H227317   1.940   5.860  15.947 -0.9562 -0.8105  0.2150
 1968TIP3   OH227318   1.318   0.470  11.942  0.6140  0.0669 -0.3769
 1968TIP3    H127319   1.378   0.544  11.943 -1.1801  1.6049  1.1676
 1968TIP3    H227320   1.254   0.492  11.873 -0.5077  0.5073  0.7678
 1969TIP3   OH227321   3.004   2.696  16.723 -0.1065 -0.6848  0.2885
 1969TIP3    H127322   2.993   2.739  16.808  0.2956 -1.8313  0.9534
 1969TIP3    H227323   3.008   2.602  16.744  0.8233 -0.9427 -0.9142
 1970TIP3   OH227324   5.382   5.269   4.625  0.0838 -0.7430  0.2229
 1970TIP3    H127325   5.419   5.316   4.550 -0.9117  0.3913  0.4055
 1970TIP3    H227326   5.335   5.196   4.586  2.4695 -2.2698 -0.0134
 1971TIP3   OH227327   5.883   4.170   4.388  0.1076  0.1370 -0.4178
 1971TIP3    H127328   5.825   4.149   4.461 -0.7720  2.4093 -0.3544
 1971TIP3    H227329   5.966   4.195   4.429  0.1231 -0.1116 -0.2977
 1972TIP3   OH227330   6.341   1.955   0.845  0.1460  0.0965  0.5034
 1972TIP3    H127331   6.411   1.961   0.780  2.1058  0.1222  2.4998
 1972TIP3    H227332   6.300   1.870   0.828  1.9537 -0.8226  0.4717
 1973TIP3   OH227333   0.958   5.336   3.032 -0.2742 -0.0207 -0.0969
 1973TIP3    H127334   0.933   5.351   3.123 -1.0240  0.1393 -0.3174
 1973TIP3    H227335   0.881   5.293   2.993 -0.6683  1.4752 -1.0847
 1974TIP3   OH227336   6.705   2.628  15.282  0.3222  0.8308 -0.2602
 1974TIP3    H127337   6.721   2.590  15.195 -0.9474  1.6022 -0.8623
 1974TIP3    H227338   6.649   2.565  15.326  0.1682  0.8978 -0.3606
 1975TIP3   OH227339   2.047   3.524   4.127 -0.1608 -0.2107  0.3782
 1975TIP3    H127340   2.079   3.453   4.072  0.3101  0.4602 -0.2412
 1975TIP3    H227341   2.095   3.601   4.096  0.3421  0.1357  1.9321
 1976TIP3   OH227342   6.235   0.451   1.115  0.0055 -0.3033  0.1754
 1976TIP3    H127343   6.269   0.532   1.075 -0.0685 -1.1367 -1.6889
 1976TIP3    H227344   6.293   0.436   1.190  0.1484  1.3582  0.4468
 1977TIP3   OH227345   2.315   1.755  12.026 -0.0917  0.2570 -0.0085
 1977TIP3    H127346   2.323   1.736  11.933  1.7815  1.2782 -0.1058
 1977TIP3    H227347   2.282   1.674  12.064 -0.4012 -0.3456 -1.4901
 1978TIP3   OH227348   0.296   0.184  15.158  0.0773 -0.2929  1.2174
 1978TIP3    H127349   0.238   0.232  15.099 -0.0119 -1.7163  0.0805
 1978TIP3    H227350   0.273   0.092  15.144  1.4720 -0.7826  1.9704
 1979TIP3   OH227351   1.173   5.476  12.205  0.4906  0.0136 -0.1631
 1979TIP3    H127352   1.188   5.451  12.114  1.3734  0.4201 -0.1368
 1979TIP3    H227353   1.255   5.518  12.232  0.2306 -0.0944  0.8137
 1980TIP3   OH227354   4.902   0.163   0.391 -0.0046 -0.3274  0.1159
 1980TIP3    H127355   4.861   0.145   0.307 -0.1094  1.9678 -0.4053
 1980TIP3    H227356   4.837   0.136   0.456 -0.8917  0.0120 -0.6104
 1981TIP3   OH227357   3.015   2.692   5.189 -0.1058 -0.4724 -0.9252
 1981TIP3    H127358   2.952   2.660   5.124 -1.1041 -1.4458  0.4664
 1981TIP3    H227359   2.964   2.750   5.245  0.8481  0.7006 -1.2186
 1982TIP3   OH227360   4.076   2.040  16.085  0.2710  0.6420  0.2949
 1982TIP3    H127361   4.033   2.110  16.036  0.8603  1.2165  0.5846
 1982TIP3    H227362   4.038   1.960  16.049  1.8296  0.9448 -2.2543
 1983TIP3   OH227363   2.510   1.617   3.931 -0.6160  0.1680 -0.6056
 1983TIP3    H127364   2.561   1.556   3.985  0.5238 -1.1586 -3.0240
 1983TIP3    H227365   2.549   1.610   3.844 -2.6970  1.8296 -1.7568
 1984TIP3   OH227366   0.294   1.826   5.288  0.4719 -0.8645 -0.2176
 1984TIP3    H127367   0.232   1.765   5.327  0.2141  0.8879  2.3514
 1984TIP3    H227368   0.378   1.779   5.288  0.1066 -1.5536  0.8538
 1985TIP3   OH227369   2.966   5.716   2.338  0.2139 -0.0148 -0.0406
 1985TIP3    H127370   2.979   5.796   2.287 -0.6922 -1.2632 -2.3462
 1985TIP3    H227371   3.025   5.652   2.299  0.1978 -0.7786  1.1163
 1986TIP3   OH227372   0.746   1.772  11.172 -0.1513 -0.3274 -0.0114
 1986TIP3    H127373   0.830   1.744  11.137 -0.3111 -1.3447  0.3568
 1986TIP3    H227374   0.681   1.727  11.117 -0.4535  0.2936 -0.1702
 1987TIP3   OH227375   3.490   0.072  16.534 -0.1387 -0.3682 -0.2841
 1987TIP3    H127376   3.443   0.040  16.611 -0.0705 -1.2214 -0.5866
 1987TIP3    H227377   3.556   0.132  16.570  0.2140 -1.1288  0.3819
 1988TIP3   OH227378   2.857   4.509  12.149  0.3866  0.1125 -0.0801
 1988TIP3    H127379   2.809   4.521  12.067 -0.4761 -1.4298  0.1664
 1988TIP3    H227380   2.881   4.598  12.176 -3.1678  1.0999  0.3065
 1989TIP3   OH227381   1.618   5.214   4.441  0.0095  0.1060  0.7863
 1989TIP3    H127382   1.648   5.304   4.425  0.5623  0.3185  2.7475
 1989TIP3    H227383   1.626   5.203   4.535 -0.0801 -2.0164  0.5874
 1990TIP3   OH227384   1.446   3.215  17.082 -0.1547  0.1940  0.1264
 1990TIP3    H127385   1.477   3.131  17.046  0.0483  0.5087 -0.4528
 1990TIP3    H227386   1.354   3.218  17.057 -0.7976 -0.9041  2.1546
 1991TIP3   OH227387   0.280   3.823  14.852 -0.2584 -0.4887 -0.8659
 1991TIP3    H127388   0.187   3.813  14.831 -0.6627 -0.2097  0.6949
 1991TIP3    H227389   0.303   3.909  14.815 -0.4585 -0.8052 -1.7548
 1992TIP3   OH227390   6.553   3.549  12.240 -0.0989 -0.7201 -0.5137
 1992TIP3    H127391   6.493   3.604  12.290 -0.9227 -2.0705  0.0490
 1992TIP3    H227392   6.548   3.463  12.283  2.6613 -0.7547 -0.1107
 1993TIP3   OH227393   2.671   1.637  15.019  0.1289  0.0489 -0.3569
 1993TIP3    H127394   2.585   1.619  15.057 -0.0493  0.1490 -0.7141
 1993TIP3    H227395   2.655   1.705  14.954  0.4901  0.1145 -0.3784
 1994TIP3   OH227396   6.071   6.300  15.252  0.0519 -0.2072  0.1918
 1994TIP3    H127397   6.105   6.290  15.341  2.0493  3.3068  0.0231
 1994TIP3    H227398   5.989   6.348  15.263  1.3014  2.0704  0.1832
 1995TIP3   OH227399   3.701   5.258   5.157 -0.0782  0.0057 -0.6140
 1995TIP3    H127400   3.772   5.304   5.113 -0.5606  2.1024  0.6386
 1995TIP3    H227401   3.736   5.240   5.245 -0.2243 -1.2868 -0.7990
 1996TIP3   OH227402   1.292   4.756  15.504  0.6687 -0.6917 -0.4139
 1996TIP3    H127403   1.276   4.805  15.424 -0.1543  0.7312  0.5657
 1996TIP3    H227404   1.382   4.777  15.528  1.4185 -2.2905 -1.7049
 1997TIP3   OH227405   4.092   5.903   6.206  0.1907 -0.3839  0.0229
 1997TIP3    H127406   4.013   5.892   6.258  0.3698 -0.5161  0.2687
 1997TIP3    H227407   4.116   5.995   6.219  0.3344 -0.4620  0.3171
 1998TIP3   OH227408   1.503   3.285   1.101 -0.9447  0.4091  0.3994
 1998TIP3    H127409   1.565   3.330   1.044 -1.8680  0.4375 -0.6128
 1998TIP3    H227410   1.425   3.341   1.100 -1.2172  0.0598  1.1489
 1999TIP3   OH227411   5.992   5.429  16.076  0.4469 -0.4073  0.1644
 1999TIP3    H127412   5.970   5.370  16.148  1.8396 -0.8587  0.2569
 1999TIP3    H227413   5.910   5.472  16.055 -0.1245 -0.6998  1.6261
 2000TIP3   OH227414   3.784   5.329   3.245  0.1395 -0.3323  0.1154
 2000TIP3    H127415   3.767   5.318   3.151  1.5855 -0.2603 -0.1903
 2000TIP3    H227416   3.751   5.417   3.265 -0.2079 -0.3616 -0.3234
 2001TIP3   OH227417   6.317   0.432   3.244  0.0171 -0.3033  0.1049
 2001TIP3    H127418   6.362   0.348   3.253  0.3679 -0.0565  0.7132
 2001TIP3    H227419   6.224   0.409   3.237  0.2444 -0.8292 -1.4587
 2002TIP3   OH227420   6.126   2.881  15.584  0.0492  0.1545 -0.3922
 2002TIP3    H127421   6.064   2.948  15.611 -0.3084 -0.9076  1.5553
 2002TIP3    H227422   6.212   2.921  15.598 -0.1532  0.9832 -1.3920
 2003TIP3   OH227423   2.770   5.875  12.034  0.5158  0.3942 -0.3782
 2003TIP3    H127424   2.811   5.896  12.117  0.7065  2.2257 -0.8966
 2003TIP3    H227425   2.780   5.780  12.025  1.6311  0.3550  1.0629
 2004TIP3   OH227426   0.742   5.452  11.660  0.5822 -0.1279  0.4946
 2004TIP3    H127427   0.669   5.411  11.707 -1.3943  1.0266 -1.4075
 2004TIP3    H227428   0.702   5.494  11.584  3.4669 -1.0084 -1.7103
 2005TIP3   OH227429   4.485   4.911   5.066  0.3369  0.9661  0.6759
 2005TIP3    H127430   4.445   4.865   5.140 -0.1910  0.7107  0.2374
 2005TIP3    H227431   4.412   4.956   5.024  0.6593  1.2193  0.3854
 2006TIP3   OH227432   0.030   0.923  12.957 -0.0344 -0.2227 -0.0071
 2006TIP3    H127433   0.018   1.017  12.945  0.7146 -0.0383  0.6083
 2006TIP3    H227434  -0.005   0.884  12.877 -1.3042  0.5062  0.1750
 2007TIP3   OH227435   4.322   2.676  11.535 -0.1530  0.0129  0.0187
 2007TIP3    H127436   4.281   2.625  11.466 -0.0418  1.0555 -0.8446
 2007TIP3    H227437   4.262   2.669  11.609 -0.3935 -0.9160 -0.2516
 2008TIP3   OH227438   4.880   1.014  17.022  0.1621 -0.2882  0.0708
 2008TIP3    H127439   4.797   0.987  17.061  0.5547 -0.2375  0.9508
 2008TIP3    H227440   4.901   0.944  16.961 -1.4022  0.5312 -1.5090
 2009TIP3   OH227441   2.077   3.055   1.265  0.2441 -0.4610  0.5700
 2009TIP3    H127442   2.064   3.126   1.328  0.2965  0.5199 -0.4886
 2009TIP3    H227443   2.163   3.020   1.285  0.0150 -0.5466  1.4149
 2010TIP3   OH227444   3.205   2.325   3.479  0.2206 -0.1049 -0.1904
 2010TIP3    H127445   3.193   2.255   3.543  1.5545 -0.0183  0.1695
 2010TIP3    H227446   3.217   2.280   3.395 -2.7738 -0.2032 -0.6769
 2011TIP3   OH227447   6.153   0.418  15.850  0.0416  0.4167  0.5473
 2011TIP3    H127448   6.200   0.334  15.852  2.5375  1.6477 -0.8770
 2011TIP3    H227449   6.128   0.430  15.758 -1.1171  0.8323  0.8978
 2012TIP3   OH227450   2.452   5.275  16.526 -0.1972 -0.0032 -0.2176
 2012TIP3    H127451   2.521   5.210  16.517  0.3327  0.7082 -1.5529
 2012TIP3    H227452   2.378   5.226  16.563  0.3655 -1.2324 -0.6562
 2013TIP3   OH227453   2.124   5.960  15.393  0.3699  0.3493  0.3271
 2013TIP3    H127454   2.107   5.902  15.319 -0.1007  1.5904 -0.5825
 2013TIP3    H227455   2.126   5.902  15.469 -3.3816 -0.5852 -0.0553
 2014TIP3   OH227456   2.285   4.016  15.880 -0.3075  0.6118  0.0047
 2014TIP3    H127457   2.326   3.954  15.820 -0.3274  1.2946 -0.7268
 2014TIP3    H227458   2.270   4.095  15.828 -0.9591  0.9819  0.7232
 2015TIP3   OH227459   1.017   5.907   1.929 -0.2838  0.5278 -0.3145
 2015TIP3    H127460   1.051   5.996   1.933 -1.1007  0.8216  0.3897
 2015TIP3    H227461   0.984   5.890   2.018 -1.1072 -0.0760 -0.7237
 2016TIP3   OH227462   6.522   3.249   5.683  0.3945  0.0411  0.7752
 2016TIP3    H127463   6.433   3.216   5.672  0.8943 -0.5873 -1.9591
 2016TIP3    H227464   6.564   3.185   5.740 -0.6608 -0.0348  1.5130
 2017TIP3   OH227465   4.568   4.046  11.745 -0.4671  0.1331  0.3012
 2017TIP3    H127466   4.516   4.103  11.688 -1.5124 -1.0984 -0.0139
 2017TIP3    H227467   4.606   3.981  11.686 -0.3475 -0.2762  0.8204
 2018TIP3   OH227468   5.691   4.949  16.872 -0.2798  0.6219  0.1791
 2018TIP3    H127469   5.722   5.017  16.932  1.0937  0.3278 -0.1632
 2018TIP3    H227470   5.767   4.929  16.817 -0.4178 -1.6391  0.7073
 2019TIP3   OH227471   4.042   1.083   0.244  0.0553  0.6304  0.5434
 2019TIP3    H127472   4.094   1.113   0.170  1.4318 -1.3469  0.6270
 2019TIP3    H227473   4.078   0.997   0.266 -1.8670  0.1174  2.0133
 2020TIP3   OH227474   6.257   6.615   4.789  0.7053 -0.4022  0.3619
 2020TIP3    H127475   6.217   6.530   4.809 -0.3033 -0.8209 -2.9091
 2020TIP3    H227476   6.351   6.597   4.790  0.5380 -1.3632  0.4212
 2021TIP3   OH227477   4.431   2.600  15.504 -0.2618  0.0614 -0.1253
 2021TIP3    H127478   4.375   2.557  15.568  0.7751 -0.6848  0.3153
 2021TIP3    H227479   4.450   2.533  15.438  0.3248  0.2118 -0.1198
 2022TIP3   OH227480   3.315   3.674  17.314 -0.1318  0.2914  0.4497
 2022TIP3    H127481   3.297   3.588  17.354  1.5643  0.3180  1.3730
 2022TIP3    H227482   3.299   3.736  17.385  0.1548  0.5992  0.2444
 2023TIP3   OH227483   5.163   2.345   3.166  0.2105 -1.0216 -0.2712
 2023TIP3    H127484   5.255   2.353   3.141 -0.4378 -2.0875 -3.5029
 2023TIP3    H227485   5.148   2.251   3.172 -0.6139 -0.8483  0.4854
 2024TIP3   OH227486   3.837   6.193  15.886  0.0091  0.3291  0.5298
 2024TIP3    H127487   3.811   6.218  15.797 -1.3976 -0.5201  0.6669
 2024TIP3    H227488   3.786   6.114  15.904 -0.5260  1.0538  2.4605
 2025TIP3   OH227489   5.968   2.243  12.817  0.1378 -0.3760 -0.4589
 2025TIP3    H127490   5.966   2.177  12.887  2.2258  0.8412  0.8534
 2025TIP3    H227491   5.901   2.307  12.842 -1.1334 -1.3821 -1.1633
 2026TIP3   OH227492   3.779   4.662   4.512  0.4342  0.7828  0.3938
 2026TIP3    H127493   3.852   4.600   4.512  0.0221  0.2646  1.6391
 2026TIP3    H227494   3.706   4.614   4.551 -1.0999  0.7371 -2.2574
 2027TIP3   OH227495   0.622   5.927   5.511 -0.2560  0.3949  0.0371
 2027TIP3    H127496   0.577   5.863   5.455 -1.1065  0.7250  0.3271
 2027TIP3    H227497   0.602   6.011   5.471 -0.6530  0.6133  0.6804
 2028TIP3   OH227498   0.042   2.777   3.638  0.3032  0.3923 -0.5378
 2028TIP3    H127499   0.047   2.737   3.725  0.9223 -0.8011 -1.0940
 2028TIP3    H227500   0.019   2.868   3.654 -0.7792 -0.0968  0.8054
 2029TIP3   OH227501   1.890   1.185   1.813  0.3057  0.1478 -0.2961
 2029TIP3    H127502   1.873   1.091   1.819  1.3072  0.0113  1.2129
 2029TIP3    H227503   1.818   1.220   1.761  0.0533 -1.4840 -1.1026
 2030TIP3   OH227504   4.588   2.686  14.244  0.2160  0.2748 -0.4478
 2030TIP3    H127505   4.520   2.705  14.179  0.6259  0.9162 -0.6941
 2030TIP3    H227506   4.554   2.725  14.325 -0.1295 -0.2168 -0.3465
 2031TIP3   OH227507   2.237   6.238  11.545  0.1439 -0.2987 -0.0718
 2031TIP3    H127508   2.151   6.247  11.588  0.1972 -0.7918  0.1446
 2031TIP3    H227509   2.225   6.278  11.459  0.1831  1.2192  0.5812
 2032TIP3   OH227510   2.122   3.474   1.902  0.1345 -0.1532  0.0301
 2032TIP3    H127511   2.034   3.482   1.937  0.0687 -0.6808 -0.0089
 2032TIP3    H227512   2.179   3.499   1.975  0.0563 -2.5456  1.0009
 2033TIP3   OH227513   2.422   1.474  14.705  0.2607 -0.1816 -0.3358
 2033TIP3    H127514   2.416   1.478  14.800 -1.4047  0.5130 -0.4334
 2033TIP3    H227515   2.364   1.543  14.674 -0.9865 -1.8169 -1.8767
 2034TIP3   OH227516   1.610   0.739   4.986 -0.0733  0.2907  0.3385
 2034TIP3    H127517   1.575   0.787   4.911 -0.5776 -0.6239 -0.0250
 2034TIP3    H227518   1.659   0.666   4.947  1.3644  0.9366  0.8589
 2035TIP3   OH227519   4.748   4.055   2.085  0.9347 -0.0973 -0.5199
 2035TIP3    H127520   4.790   3.974   2.058 -0.8784 -1.3491  0.2318
 2035TIP3    H227521   4.759   4.058   2.180  1.2918  0.7267 -0.5760
 2036TIP3   OH227522   5.150   1.019   2.852 -0.6458  0.3973 -0.1326
 2036TIP3    H127523   5.202   0.955   2.804  1.4972  0.6941  1.6109
 2036TIP3    H227524   5.142   1.094   2.792 -1.9364 -0.8690 -1.6358
 2037TIP3   OH227525   5.614   2.727   5.448  0.3579 -0.2077  0.3789
 2037TIP3    H127526   5.586   2.636   5.453 -0.0587 -0.0928  0.2644
 2037TIP3    H227527   5.676   2.730   5.375 -1.2711 -0.0154 -1.0658
 2038TIP3   OH227528   1.222   0.429  15.656  0.0416 -0.3633  0.1786
 2038TIP3    H127529   1.198   0.454  15.746  0.6954 -0.4951  0.3911
 2038TIP3    H227530   1.273   0.349  15.667 -0.5021 -0.7906 -0.3713
 2039TIP3   OH227531   3.080   2.383   4.935 -0.4604 -0.2533  0.5242
 2039TIP3    H127532   3.136   2.451   4.899 -1.0248  0.9848  1.9118
 2039TIP3    H227533   3.024   2.357   4.861 -0.3310  0.8736  0.0048
 2040TIP3   OH227534   2.314   5.350  16.994 -0.3553 -0.0546 -0.0694
 2040TIP3    H127535   2.405   5.375  16.976 -0.9161  2.0604 -0.1758
 2040TIP3    H227536   2.314   5.325  17.086  0.1634  0.8635  0.1916
 2041TIP3   OH227537   1.695   1.768  11.600 -0.2253 -0.0710 -0.0024
 2041TIP3    H127538   1.718   1.687  11.645 -2.0345 -0.6520 -0.0132
 2041TIP3    H227539   1.649   1.739  11.521  0.8475  0.9579 -1.0466
 2042TIP3   OH227540   3.477   0.922   2.799 -0.5070  0.2620  0.2938
 2042TIP3    H127541   3.390   0.961   2.797 -0.5402  0.1524 -0.5895
 2042TIP3    H227542   3.536   0.994   2.778 -0.3766  0.3404  0.9090
 2043TIP3   OH227543   5.275   1.060   1.829  0.1145  0.0508 -0.6472
 2043TIP3    H127544   5.245   0.997   1.763 -0.5360 -1.0639  0.6523
 2043TIP3    H227545   5.208   1.057   1.897  1.6362 -0.1848  0.8973
 2044TIP3   OH227546   0.322   0.539  12.945  0.3077  0.0932 -0.2659
 2044TIP3    H127547   0.361   0.546  13.032 -1.2193 -0.9307  0.5275
 2044TIP3    H227548   0.357   0.458  12.909  0.3542  0.1377 -0.3231
 2045TIP3   OH227549   3.715   2.937   5.405 -0.2399 -0.0354  0.1354
 2045TIP3    H127550   3.641   2.997   5.393 -1.0954 -0.9339  0.8068
 2045TIP3    H227551   3.769   2.979   5.472 -0.7349  0.0789  0.4649
 2046TIP3   OH227552   5.979   3.898  16.413 -0.2470  0.3908  0.2459
 2046TIP3    H127553   5.933   3.955  16.352  0.3043  0.4440 -0.1260
 2046TIP3    H227554   6.053   3.863  16.363  0.1340  0.3267  0.8409
 2047TIP3   OH227555   3.702   1.671   3.098  0.6453 -0.5110  0.3205
 2047TIP3    H127556   3.757   1.749   3.086  1.5508 -0.9393  1.5106
 2047TIP3    H227557   3.765   1.599   3.104 -0.0931 -1.1078  1.0097
 2048TIP3   OH227558   3.772   2.147  12.038  0.2277 -0.8251  0.5904
 2048TIP3    H127559   3.707   2.173  11.973 -0.6685 -1.5107  1.1911
 2048TIP3    H227560   3.823   2.227  12.055  0.7143 -0.7219 -1.1865
 2049TIP3   OH227561   2.902   4.463  14.738 -0.0335  0.7593  0.1779
 2049TIP3    H127562   2.946   4.448  14.822 -0.1526  1.7248  0.4210
 2049TIP3    H227563   2.963   4.428  14.673  0.1622  0.2050  0.6516
 2050TIP3   OH227564   6.292   2.559   0.598  0.3657 -0.1253 -0.4716
 2050TIP3    H127565   6.326   2.542   0.686  0.8538  0.6484 -0.4985
 2050TIP3    H227566   6.278   2.654   0.596 -2.2443 -0.4447 -0.3233
 2051TIP3   OH227567   1.974   4.735  12.421 -0.1578 -0.0387 -0.0900
 2051TIP3    H127568   1.927   4.761  12.500 -0.3548 -2.3284  0.6284
 2051TIP3    H227569   1.964   4.809  12.361 -1.8192  0.8979  1.2564
 2052TIP3   OH227570   5.395   4.745  16.043  0.3151 -0.3663  0.1605
 2052TIP3    H127571   5.479   4.749  15.997  1.2079  0.5761  1.7821
 2052TIP3    H227572   5.396   4.822  16.100 -1.9426  0.0149 -0.2478
 2053TIP3   OH227573   0.516   0.631   4.095  0.3309 -0.4050  0.3643
 2053TIP3    H127574   0.506   0.725   4.085 -0.8947 -0.4803  0.7834
 2053TIP3    H227575   0.447   0.605   4.156 -0.2932 -1.7860 -0.8668
 2054TIP3   OH227576   0.999   0.968  12.498  0.2909  0.0750  0.1860
 2054TIP3    H127577   0.967   1.009  12.418  1.0062 -0.5022 -0.4218
 2054TIP3    H227578   1.010   0.876  12.475  2.1688  0.2027  0.3967
 2055TIP3   OH227579   1.131   1.024   0.140 -0.0750 -0.0612  0.4762
 2055TIP3    H127580   1.180   1.067   0.070 -0.3480  0.4483  0.5907
 2055TIP3    H227581   1.196   1.008   0.209  0.6118 -2.2846 -0.6234
 2056TIP3   OH227582   2.664   0.646   2.601  0.0768 -0.0418 -0.0834
 2056TIP3    H127583   2.694   0.734   2.578 -1.3801  0.1092 -1.5919
 2056TIP3    H227584   2.575   0.641   2.566  0.4918 -2.4742 -1.0037
 2057TIP3   OH227585   1.714   3.037   6.304  0.0726 -0.1143  0.0021
 2057TIP3    H127586   1.639   3.067   6.357  1.4934  0.8703  1.5600
 2057TIP3    H227587   1.791   3.067   6.353  1.4998 -1.0729 -1.5667
 2058TIP3   OH227588   4.605   2.424  13.207  0.4859  0.7148 -0.2324
 2058TIP3    H127589   4.567   2.391  13.126 -0.7126  0.4224  0.4329
 2058TIP3    H227590   4.620   2.346  13.261  1.3181  0.9009 -0.1733
 2059TIP3   OH227591   3.003   0.980  11.374  0.1465 -0.2084 -0.2132
 2059TIP3    H127592   2.928   0.926  11.352  0.9231 -1.6345  0.5339
 2059TIP3    H227593   2.973   1.070  11.358 -1.1772 -0.8315 -1.4220
 2060TIP3   OH227594   3.272   3.326  16.911  0.5317 -0.4703  0.2599
 2060TIP3    H127595   3.273   3.419  16.937 -0.4158 -0.3891  0.0150
 2060TIP3    H227596   3.359   3.311  16.874  0.6772  0.3339  0.2586
 2061TIP3   OH227597   0.986   1.747   1.705  0.4190 -0.1336  0.1205
 2061TIP3    H127598   0.966   1.797   1.784  3.4702  0.2662  0.7532
 2061TIP3    H227599   0.945   1.662   1.720 -0.2834  0.4047  1.4687
 2062TIP3   OH227600   5.728   3.885   6.094 -0.3154 -0.2774 -0.4756
 2062TIP3    H127601   5.782   3.831   6.152 -0.6591 -0.7632 -0.5998
 2062TIP3    H227602   5.640   3.878   6.130 -0.3052  0.4900 -0.2889
 2063TIP3   OH227603   4.604   4.361  12.647 -0.1366 -0.4874 -0.3784
 2063TIP3    H127604   4.696   4.387  12.650  0.0673 -1.2553  0.3857
 2063TIP3    H227605   4.556   4.440  12.672  0.4329 -0.5738  1.1346
 2064TIP3   OH227606   4.143   4.973   6.527  0.2885  0.2455  0.1633
 2064TIP3    H127607   4.068   4.988   6.585 -0.4349  0.3596 -0.7726
 2064TIP3    H227608   4.183   5.059   6.516 -0.0907  0.3757 -0.1975
 2065TIP3   OH227609   4.616   4.075   6.147 -0.0798 -0.1149 -0.1717
 2065TIP3    H127610   4.670   4.099   6.071 -1.6358 -0.5182 -1.4697
 2065TIP3    H227611   4.612   4.155   6.199  1.0945  0.1480 -0.4446
 2066TIP3   OH227612   0.801   5.431   3.252 -0.5795 -0.3288  0.0515
 2066TIP3    H127613   0.706   5.442   3.249 -0.8328 -1.9872  0.7312
 2066TIP3    H227614   0.835   5.520   3.267 -2.1287  0.0874  1.4807
 2067TIP3   OH227615   0.053   3.534   4.800 -0.2068  0.0510  0.2951
 2067TIP3    H127616   0.011   3.453   4.829  0.0321  0.7978  2.9495
 2067TIP3    H227617  -0.004   3.603   4.831  1.4410  0.9909  1.3674
 2068TIP3   OH227618   3.994   1.870  11.511  0.1199  0.0967 -0.7670
 2068TIP3    H127619   4.084   1.876  11.544 -0.1692  0.5439 -0.0523
 2068TIP3    H227620   3.952   1.804  11.565 -0.1719  0.3671 -0.6572
 2069TIP3   OH227621   6.445   5.892   5.848 -0.1870 -0.8991  0.4211
 2069TIP3    H127622   6.418   5.821   5.790 -0.1266 -0.9049  0.3994
 2069TIP3    H227623   6.365   5.919   5.893 -0.1892 -1.0585  0.5139
 2070TIP3   OH227624   6.483   4.155   1.779  0.0770 -0.0195 -0.4663
 2070TIP3    H127625   6.539   4.184   1.851  0.5740 -0.3476 -0.7210
 2070TIP3    H227626   6.407   4.213   1.783  0.4493  0.4480 -0.1396
 2071TIP3   OH227627   3.556   2.624  13.312 -0.7587 -0.3530 -0.5809
 2071TIP3    H127628   3.584   2.629  13.404  0.8849  0.7849 -1.0860
 2071TIP3    H227629   3.468   2.588  13.315 -1.0806  0.4868  1.5137
 2072TIP3   OH227630   1.953   1.226  12.728  0.0974  0.0919  0.4453
 2072TIP3    H127631   1.898   1.290  12.773  0.0316  0.6458 -0.3819
 2072TIP3    H227632   1.938   1.243  12.635  0.1644 -1.0682  0.2036
 2073TIP3   OH227633   2.513   1.769  13.370 -0.4082  0.0459 -0.0419
 2073TIP3    H127634   2.559   1.710  13.429  0.3535 -0.3171 -0.9837
 2073TIP3    H227635   2.473   1.834  13.428  2.0659  0.9380  0.7668
 2074TIP3   OH227636   5.318   5.532   4.671  0.1243 -0.5348 -0.0409
 2074TIP3    H127637   5.347   5.442   4.660 -0.4533 -0.7178 -0.0985
 2074TIP3    H227638   5.231   5.534   4.631  0.3943  0.1990 -0.6071
 2075TIP3   OH227639   0.779   4.011   1.925  0.3344 -0.1687 -0.1460
 2075TIP3    H127640   0.709   3.968   1.877 -1.4878  1.6136  0.7934
 2075TIP3    H227641   0.772   4.104   1.901  0.5113  0.4932  2.1064
 2076TIP3   OH227642   4.058   0.111  11.181  0.1009  0.3462 -0.3481
 2076TIP3    H127643   4.061   0.189  11.236 -0.3842  0.4953 -0.5322
 2076TIP3    H227644   4.009   0.047  11.233 -1.9401  1.0635 -1.3194
 2077TIP3   OH227645   2.070   6.643   2.685 -0.7268 -0.4504 -0.4241
 2077TIP3    H127646   2.150   6.621   2.734 -0.9555 -0.2965  0.0239
 2077TIP3    H227647   2.090   6.620   2.595 -0.0215 -0.0001 -0.3832
 2078TIP3   OH227648   6.618   1.464   4.684 -0.6417 -0.0405 -0.1611
 2078TIP3    H127649   6.697   1.423   4.719  1.1747  1.6785 -1.9644
 2078TIP3    H227650   6.617   1.441   4.592 -3.5191 -1.7764  0.1892
 2079TIP3   OH227651   2.659   2.581  13.728 -0.4603 -0.0737 -0.2300
 2079TIP3    H127652   2.585   2.624  13.771  0.2302 -0.0822  1.0074
 2079TIP3    H227653   2.725   2.650  13.720 -0.5281 -0.1034 -1.1934
 2080TIP3   OH227654   4.147   5.713   6.561  0.2755 -0.1688 -0.0395
 2080TIP3    H127655   4.239   5.717   6.535  0.3143  0.5067  0.2067
 2080TIP3    H227656   4.112   5.800   6.541  0.0299  0.0118  1.1442
 2081TIP3   OH227657   3.931   4.977   4.375  0.6003 -0.1440  0.7778
 2081TIP3    H127658   3.846   4.938   4.353  1.0538 -0.3111 -0.8655
 2081TIP3    H227659   3.913   5.070   4.385  0.3166 -0.0611 -0.3249
 2082TIP3   OH227660   6.378   6.430   5.752  0.1555 -0.6656 -0.4448
 2082TIP3    H127661   6.455   6.458   5.803 -1.0019 -2.2187  2.3701
 2082TIP3    H227662   6.317   6.503   5.758 -0.4776 -1.3014  1.6542
 2083TIP3   OH227663   0.513   1.788  15.123 -0.5710 -0.3443 -0.1196
 2083TIP3    H127664   0.481   1.706  15.160 -0.5099 -0.2304  0.1906
 2083TIP3    H227665   0.606   1.773  15.107 -0.4007 -0.1101  0.5950
 2084TIP3   OH227666   3.448   1.136   0.440  0.5587 -0.2799 -0.2674
 2084TIP3    H127667   3.472   1.098   0.525 -1.1193 -0.5350  0.1249
 2084TIP3    H227668   3.495   1.219   0.437 -0.6619  0.5427  1.6951
 2085TIP3   OH227669   5.392   4.350  14.856 -0.3478  0.1832  0.3740
 2085TIP3    H127670   5.481   4.386  14.852  0.8999 -2.6972 -2.5879
 2085TIP3    H227671   5.340   4.408  14.802  0.9791 -0.7444 -2.0444
 2086TIP3   OH227672   0.479   0.619   2.180  0.2883 -0.3771  0.0105
 2086TIP3    H127673   0.418   0.552   2.149 -0.1660 -0.2533  0.6171
 2086TIP3    H227674   0.562   0.597   2.138  0.9070 -3.0288  2.3480
 2087TIP3   OH227675   1.078   6.093  11.855 -0.3932  0.2168  0.1708
 2087TIP3    H127676   1.038   6.180  11.864 -0.4104  0.3249 -0.8803
 2087TIP3    H227677   1.063   6.051  11.940  0.3253  1.5340  0.9963
 2088TIP3   OH227678   2.635   4.693  12.319 -0.2843 -0.6274 -0.1507
 2088TIP3    H127679   2.603   4.779  12.293  0.0409 -0.7830 -1.0882
 2088TIP3    H227680   2.564   4.633  12.297  0.5249 -0.9517 -2.0905
 2089TIP3   OH227681   0.154   1.976  14.639  0.0006  0.5455 -0.7350
 2089TIP3    H127682   0.222   1.916  14.611 -2.0466 -2.0997 -0.4500
 2089TIP3    H227683   0.193   2.024  14.713  1.3334 -1.3586 -0.1239
 2090TIP3   OH227684   4.712   4.618  15.579  0.5569  0.0917 -0.1787
 2090TIP3    H127685   4.628   4.618  15.626 -0.5174  1.3144 -1.9694
 2090TIP3    H227686   4.776   4.644  15.645 -0.6669  0.3271  0.9596
 2091TIP3   OH227687   0.193   5.390   1.562  0.3461  0.0128 -0.0235
 2091TIP3    H127688   0.267   5.383   1.502  1.7826  2.8458  1.2289
 2091TIP3    H227689   0.225   5.352   1.644 -0.6507 -1.3350 -0.2183
 2092TIP3   OH227690   4.735   3.775  15.706  0.7363 -0.0353 -0.3522
 2092TIP3    H127691   4.707   3.821  15.627  0.8239  0.2765 -0.2053
 2092TIP3    H227692   4.654   3.737  15.742  0.3941  1.2461  0.3179
 2093TIP3   OH227693   3.099   3.990  15.579  0.4333 -0.1078  0.1375
 2093TIP3    H127694   3.156   3.944  15.641  1.1560 -1.6133 -1.5521
 2093TIP3    H227695   3.160   4.038  15.522 -0.1803  0.8229  0.2459
 2094TIP3   OH227696   2.552   1.310   1.267 -0.4438 -0.0821  0.4102
 2094TIP3    H127697   2.618   1.313   1.197 -1.0880  0.8890 -0.1711
 2094TIP3    H227698   2.508   1.226   1.254 -0.9882  0.3603 -0.7739
 2095TIP3   OH227699   2.978   6.712  13.643  0.7031 -0.6964  0.4448
 2095TIP3    H127700   2.993   6.801  13.610  1.7021 -1.0048  0.0435
 2095TIP3    H227701   3.019   6.712  13.730 -3.8928  0.8398  2.9996
 2096TIP3   OH227702   6.596   3.757   6.802 -0.4832  0.0677 -0.3685
 2096TIP3    H127703   6.535   3.759   6.876 -0.0884 -0.6619 -0.0191
 2096TIP3    H227704   6.540   3.744   6.725 -0.9178  1.0504 -0.2371
 2097TIP3   OH227705   2.718   5.571   6.756 -0.1021 -0.9127 -0.5173
 2097TIP3    H127706   2.690   5.480   6.742 -1.4892 -0.2594 -2.4470
 2097TIP3    H227707   2.637   5.617   6.779  0.5545 -0.1059  0.2158
 2098TIP3   OH227708   0.458   6.401  17.030 -0.1618 -0.0002 -0.0667
 2098TIP3    H127709   0.405   6.376  17.106 -0.5772  0.5366 -0.1749
 2098TIP3    H227710   0.503   6.320  17.006 -1.0638 -0.5186 -0.0784
 2099TIP3   OH227711   6.171   6.464   0.281 -0.2010 -0.0818 -0.2579
 2099TIP3    H127712   6.096   6.521   0.267  1.3320  2.1203  0.0177
 2099TIP3    H227713   6.199   6.483   0.371  1.6851  0.4259 -0.9144
 2100TIP3   OH227714   6.344   0.540   1.565  0.0362  0.4431  0.4320
 2100TIP3    H127715   6.297   0.462   1.595 -0.7022  0.5359 -0.4396
 2100TIP3    H227716   6.293   0.613   1.599 -0.2611  0.5450 -0.2270
 2101TIP3   OH227717   1.937   1.952   1.255  0.4558  0.3806  0.1163
 2101TIP3    H127718   1.882   1.996   1.190 -0.7499 -0.3630  0.6202
 2101TIP3    H227719   1.919   1.998   1.337 -0.1818 -0.5119  0.4829
 2102TIP3   OH227720   6.375   3.161   0.301  0.9734  0.1974  0.1174
 2102TIP3    H127721   6.468   3.166   0.324  1.0775 -1.4298  0.1700
 2102TIP3    H227722   6.372   3.182   0.208  1.4379 -0.0758  0.0383
 2103TIP3   OH227723   3.122   1.737   1.291  0.0187 -0.2348  0.0183
 2103TIP3    H127724   3.061   1.668   1.265 -0.2148 -0.2432  0.5839
 2103TIP3    H227725   3.068   1.801   1.337  0.5293 -0.5343  1.0587
 2104TIP3   OH227726   2.060   6.402   6.186 -0.0805 -0.2141  0.5153
 2104TIP3    H127727   2.050   6.397   6.281 -1.7273 -0.7145  0.3363
 2104TIP3    H227728   2.018   6.484   6.161 -0.7886 -0.6885  0.1012
 2105TIP3   OH227729   5.431   6.704   1.522 -0.3589  0.2748 -0.0553
 2105TIP3    H127730   5.443   6.778   1.462  0.2843  0.3108  0.1115
 2105TIP3    H227731   5.448   6.627   1.468 -1.7529  0.1972 -0.4165
 2106TIP3   OH227732   3.117   1.017  15.373 -0.1271 -0.0113 -0.0727
 2106TIP3    H127733   3.044   1.074  15.398  0.3304  0.1314  1.0008
 2106TIP3    H227734   3.103   0.937  15.425  0.0213 -0.3179 -0.4992
 2107TIP3   OH227735   2.248   6.300   2.392  0.3072 -0.0854 -0.5675
 2107TIP3    H127736   2.302   6.236   2.345  1.1800  0.0059  0.2801
 2107TIP3    H227737   2.295   6.315   2.474 -2.0906 -1.6454  1.2297
 2108TIP3   OH227738   4.777   1.463   2.692 -0.2446  0.5588  0.0438
 2108TIP3    H127739   4.715   1.531   2.719  0.1739  1.4252 -1.1303
 2108TIP3    H227740   4.788   1.476   2.598  3.5205  1.9661  0.5227
 2109TIP3   OH227741   2.418   2.775   0.663 -0.4300  0.0698  0.4035
 2109TIP3    H127742   2.355   2.704   0.651 -1.6673  1.0443  0.9594
 2109TIP3    H227743   2.500   2.730   0.682 -0.8976 -1.2342 -0.4531
 2110TIP3   OH227744   2.734   3.878   3.711 -0.2438 -0.0418  0.4160
 2110TIP3    H127745   2.722   3.950   3.772  1.3519 -0.3171  1.0884
 2110TIP3    H227746   2.816   3.837   3.737 -1.0130 -2.0252 -0.0346
 2111TIP3   OH227747   0.089   4.809   3.069  0.6202 -0.5117  0.6206
 2111TIP3    H127748   0.120   4.729   3.112  2.8548  0.3561  0.7557
 2111TIP3    H227749   0.147   4.819   2.994 -0.8319  0.0322 -0.4797
 2112TIP3   OH227750   2.108   3.989   1.375  0.0665 -0.1758 -0.3581
 2112TIP3    H127751   2.023   4.029   1.393  1.4125  2.2312  1.1459
 2112TIP3    H227752   2.153   4.052   1.318  0.7766 -1.5414 -1.3614
 2113TIP3   OH227753   3.363   3.509   5.702  0.3362  0.6958  0.6587
 2113TIP3    H127754   3.344   3.473   5.789  0.4648 -0.0148  0.3983
 2113TIP3    H227755   3.288   3.565   5.682 -0.1906  0.0463  0.7908
 2114TIP3   OH227756   6.141   6.380  11.311  0.4583  0.2793 -0.1386
 2114TIP3    H127757   6.213   6.417  11.260 -0.6762 -0.0116 -2.0437
 2114TIP3    H227758   6.183   6.344  11.389  2.3772  0.1041 -1.1783
 2115TIP3   OH227759   5.663   0.970  16.027  0.0425  0.5471  0.0252
 2115TIP3    H127760   5.593   1.020  16.067 -0.5298  0.4439 -0.8171
 2115TIP3    H227761   5.623   0.930  15.949  0.4895 -1.1535  0.6108
 2116TIP3   OH227762   0.955   2.736  15.704 -0.4091  0.3160 -0.4005
 2116TIP3    H127763   0.981   2.821  15.668  1.7817  0.0400  0.3877
 2116TIP3    H227764   0.870   2.752  15.744 -0.7118  1.7711 -1.5392
 2117TIP3   OH227765   5.161   4.939  16.074  0.3037  0.3354 -0.4946
 2117TIP3    H127766   5.239   4.994  16.075  2.1606 -2.0774  1.5288
 2117TIP3    H227767   5.180   4.869  16.012  0.3904 -0.9722  0.9249
 2118TIP3   OH227768   6.177   3.419   6.308 -0.2163  0.2642 -0.5220
 2118TIP3    H127769   6.086   3.443   6.289  0.1194  1.5612 -0.5680
 2118TIP3    H227770   6.229   3.477   6.253  0.6506 -0.5218 -0.5550
 2119TIP3   OH227771   0.424   2.458   5.989 -0.1134 -0.0261  0.0747
 2119TIP3    H127772   0.471   2.508   6.056 -0.4036 -0.1528  0.3716
 2119TIP3    H227773   0.333   2.485   5.999 -0.1599 -0.0564 -0.2631
 2120TIP3   OH227774   6.065   4.458  13.020 -0.0065 -0.5230 -0.0478
 2120TIP3    H127775   6.033   4.444  12.931 -0.4915 -0.9281  0.1833
 2120TIP3    H227776   6.131   4.526  13.011  0.7924 -1.3766 -0.8916
 2121TIP3   OH227777   3.269   3.938   5.019 -0.8584 -0.7027 -0.0992
 2121TIP3    H127778   3.324   3.863   4.999  2.3788  1.6192 -0.5974
 2121TIP3    H227779   3.320   3.989   5.082 -2.5416  1.5102 -0.4185
 2122TIP3   OH227780   4.835   6.580  14.983 -0.4447 -0.1775  0.6196
 2122TIP3    H127781   4.863   6.670  14.969 -0.0467 -0.1167  1.6828
 2122TIP3    H227782   4.749   6.575  14.942  0.4383  0.0615 -1.3448
 2123TIP3   OH227783   5.068   5.822   2.090  0.0088  0.5667  0.6101
 2123TIP3    H127784   5.060   5.729   2.110  1.2160  0.3711  0.2730
 2123TIP3    H227785   5.162   5.839   2.095 -0.1824  1.7270  0.4693
 2124TIP3   OH227786   5.064   4.390  12.049  0.2176 -0.3888  0.2836
 2124TIP3    H127787   5.082   4.330  11.976  0.4093  2.0067 -1.7684
 2124TIP3    H227788   5.137   4.452  12.047 -0.1990  0.2202  2.0497
 2125TIP3   OH227789   6.549   3.746  17.005  0.2131  0.0621  0.9520
 2125TIP3    H127790   6.616   3.814  17.009  1.3281 -1.0608  2.7051
 2125TIP3    H227791   6.583   3.682  16.942  0.4977 -0.1815  1.3453
 2126TIP3   OH227792   4.318   4.000   1.648 -0.0721 -0.4383  0.0200
 2126TIP3    H127793   4.318   4.014   1.553 -0.2600  0.4279  0.1445
 2126TIP3    H227794   4.385   4.060   1.681 -0.8388  0.1235  0.5576
 2127TIP3   OH227795   1.083   4.944  15.709 -0.2414 -0.0797 -0.3549
 2127TIP3    H127796   1.126   4.859  15.704 -0.2202 -0.0454 -0.7761
 2127TIP3    H227797   1.036   4.942  15.792  1.3808  0.2551  0.6355
 2128TIP3   OH227798   2.420   1.204   5.131  0.1210 -0.5003 -0.2279
 2128TIP3    H127799   2.478   1.170   5.199  0.9794  1.7602  0.2602
 2128TIP3    H227800   2.332   1.178   5.160  0.5601 -0.4416  1.2457
 2129TIP3   OH227801   5.834   0.052   0.532 -0.2594 -0.5458  0.1316
 2129TIP3    H127802   5.865   0.092   0.451  0.2329 -1.0143  0.0825
 2129TIP3    H227803   5.913   0.040   0.585 -0.8152  2.0398  1.7580
 2130TIP3   OH227804   4.708   3.989  11.024 -0.1265  0.7514 -0.5250
 2130TIP3    H127805   4.652   3.922  10.987  0.9557 -0.8266  0.5803
 2130TIP3    H227806   4.787   3.988  10.969  0.3063  0.3836  0.0851
 2131TIP3   OH227807   1.903   6.474  13.446 -0.1229  0.9312 -0.3890
 2131TIP3    H127808   1.835   6.517  13.498 -0.6102 -0.0221 -0.2055
 2131TIP3    H227809   1.954   6.424  13.509 -1.0329 -0.6510 -0.8329
 2132TIP3   OH227810   5.582   3.443  16.553  0.2624  0.8427  0.0512
 2132TIP3    H127811   5.521   3.398  16.494 -2.6679  2.6830  1.4140
 2132TIP3    H227812   5.668   3.430  16.513 -1.1757 -0.4580 -2.9881
 2133TIP3   OH227813   1.956   1.199  15.505  0.1094 -0.6172  0.0475
 2133TIP3    H127814   1.861   1.200  15.489  0.3254  0.9223 -1.5158
 2133TIP3    H227815   1.967   1.242  15.589 -0.4828  1.9461 -1.0692
 2134TIP3   OH227816   3.775   3.163   1.597  0.5934  0.1506  0.1036
 2134TIP3    H127817   3.718   3.107   1.545  1.3857  0.3929 -1.0710
 2134TIP3    H227818   3.791   3.113   1.677 -0.3072 -0.4169 -0.0508
 2135TIP3   OH227819   5.783   2.638   0.560 -0.1363 -0.2955  0.4811
 2135TIP3    H127820   5.867   2.611   0.522 -0.3622 -1.4661  0.7794
 2135TIP3    H227821   5.749   2.702   0.498  0.2997 -0.9021 -0.4149
 2136TIP3   OH227822   0.544   1.353   3.058 -0.0509  0.2315 -0.1392
 2136TIP3    H127823   0.477   1.384   2.998  0.4397  1.8575  0.0901
 2136TIP3    H227824   0.498   1.340   3.141 -0.1712  1.0487 -0.0621
 2137TIP3   OH227825   1.745   6.410  14.415 -0.1312  0.0602  0.0091
 2137TIP3    H127826   1.791   6.480  14.369 -0.9501  0.9116  0.4442
 2137TIP3    H227827   1.743   6.337  14.353  2.3204 -0.2482  0.1879
 2138TIP3   OH227828   2.085   3.228  16.825  0.2098  0.3312 -0.0134
 2138TIP3    H127829   2.043   3.184  16.751 -0.8924  0.0602  0.7506
 2138TIP3    H227830   2.046   3.187  16.902  0.6568  1.2543  0.7168
 2139TIP3   OH227831   4.337   4.019  17.117  0.2382 -0.3536 -0.3975
 2139TIP3    H127832   4.389   3.941  17.098  0.9628 -0.2401  0.9546
 2139TIP3    H227833   4.394   4.093  17.095  0.2508 -0.2231  0.0560
 2140TIP3   OH227834   3.598   4.878  12.029  0.3697  0.6823 -0.3657
 2140TIP3    H127835   3.545   4.809  11.988  0.6756  0.6360 -0.6919
 2140TIP3    H227836   3.580   4.956  11.977 -0.7989  1.1234  0.6467
 2141TIP3   OH227837   2.358   3.523   1.283  0.3184  0.4220  0.2003
 2141TIP3    H127838   2.409   3.532   1.202 -2.3706  1.2894 -1.5345
 2141TIP3    H227839   2.337   3.613   1.308 -0.8971  0.0910  0.4549
 2142TIP3   OH227840   2.590   4.926   1.001 -0.2469 -0.3402 -0.4190
 2142TIP3    H127841   2.592   5.018   0.975 -0.0007 -0.3442 -0.4164
 2142TIP3    H227842   2.505   4.915   1.043 -0.8674 -0.4612 -1.6695
 2143TIP3   OH227843   1.794   1.980   6.389 -0.5727 -0.3972  0.4087
 2143TIP3    H127844   1.796   1.972   6.294  0.9107 -0.4339  0.4106
 2143TIP3    H227845   1.782   1.890   6.420  2.3636 -0.9594  0.2457
 2144TIP3   OH227846   2.228   4.972   4.367  0.3483  0.1532  0.1769
 2144TIP3    H127847   2.163   5.017   4.312  1.1029 -0.2698 -1.1012
 2144TIP3    H227848   2.307   4.968   4.313  1.5883  0.9732  1.8239
 2145TIP3   OH227849   0.640   0.182  12.088 -0.4469  0.0284 -0.2371
 2145TIP3    H127850   0.725   0.162  12.049  0.2932 -0.5324  1.5745
 2145TIP3    H227851   0.576   0.143  12.027  0.5126  1.0079 -1.9530
 2146TIP3   OH227852   2.160   4.975   0.660  0.5020 -0.2474 -0.6942
 2146TIP3    H127853   2.181   4.900   0.605  0.0681 -0.1056 -1.0590
 2146TIP3    H227854   2.067   4.991   0.644  0.4943  0.1108 -0.3034
 2147TIP3   OH227855   5.365   1.466  11.614  0.2120  0.1972 -0.1447
 2147TIP3    H127856   5.412   1.407  11.673 -0.3201  0.3246  0.4198
 2147TIP3    H227857   5.298   1.507  11.669  0.7673  1.5682 -0.4447
 2148TIP3   OH227858   4.043   3.311   4.196 -0.0741  0.2509  0.0917
 2148TIP3    H127859   4.035   3.372   4.123  0.7139  1.2143  0.7839
 2148TIP3    H227860   4.133   3.279   4.191 -0.8587 -2.0214 -1.1185
 2149TIP3   OH227861   4.483   4.278   2.900  0.4419 -0.7755 -1.0557
 2149TIP3    H127862   4.506   4.329   2.978  0.2610 -0.5982 -1.1160
 2149TIP3    H227863   4.562   4.227   2.880  0.7504 -0.2531 -1.1986
 2150TIP3   OH227864   0.606   3.898   4.154  0.2932  0.0180  0.4259
 2150TIP3    H127865   0.533   3.862   4.204  1.1036 -0.7470  1.1064
 2150TIP3    H227866   0.622   3.833   4.086 -0.8790  1.1123 -0.9344
 2151TIP3   OH227867   0.335   3.647  16.550  0.3356 -0.3811  0.1966
 2151TIP3    H127868   0.349   3.663  16.643  2.7809  0.9989 -0.3038
 2151TIP3    H227869   0.291   3.726  16.519 -0.2049 -0.7112  0.1153
 2152TIP3   OH227870   2.715   4.059   2.739 -0.2604 -0.0213  0.8242
 2152TIP3    H127871   2.710   3.981   2.684 -0.6886  1.3871 -1.2214
 2152TIP3    H227872   2.659   4.123   2.696  3.0619  2.7350  0.2076
 2153TIP3   OH227873   5.844   0.376  15.335 -0.2449  0.2420  0.1837
 2153TIP3    H127874   5.869   0.448  15.276  0.7197 -0.1904  0.0570
 2153TIP3    H227875   5.748   0.375  15.331 -0.3365  2.1134  0.8933
 2154TIP3   OH227876   6.397   4.801  16.646  0.0482  0.6613 -0.1968
 2154TIP3    H127877   6.358   4.728  16.599 -1.7541  1.1868  0.3713
 2154TIP3    H227878   6.322   4.850  16.680  0.9607  4.3748 -2.8635
 2155TIP3   OH227879   1.173   0.011  13.464  0.4001 -0.0441 -0.6146
 2155TIP3    H127880   1.094   0.039  13.510  1.9258  0.5185  1.8330
 2155TIP3    H227881   1.210   0.091  13.428  1.2309  0.1634  0.6136
 2156TIP3   OH227882   3.627   3.241   1.342  0.2497  0.3027  0.2619
 2156TIP3    H127883   3.538   3.207   1.341  0.4262 -0.1780  0.3731
 2156TIP3    H227884   3.670   3.198   1.267  0.5598  0.0389  0.5848
 2157TIP3   OH227885   6.563   6.445  12.664 -0.0899 -0.2314 -0.1223
 2157TIP3    H127886   6.474   6.412  12.652  0.0197 -0.3949 -0.4739
 2157TIP3    H227887   6.616   6.367  12.678 -0.1007 -0.0979  0.7534
 2158TIP3   OH227888   4.465   5.453   4.393 -0.0242  0.2453 -0.1714
 2158TIP3    H127889   4.466   5.366   4.353  1.0261 -0.3069  1.0000
 2158TIP3    H227890   4.556   5.484   4.385 -0.1296  0.7375  0.4576
 2159TIP3   OH227891   5.856   5.712   1.932  0.7446  0.3154  0.1057
 2159TIP3    H127892   5.927   5.723   1.868 -0.5799 -0.6758 -1.6413
 2159TIP3    H227893   5.794   5.653   1.888 -0.8114  0.5680  1.8590
 2160TIP3   OH227894   0.916   1.379  13.157 -0.0818  0.3580 -0.1933
 2160TIP3    H127895   0.934   1.322  13.232  2.1901 -0.7902 -1.5223
 2160TIP3    H227896   0.821   1.373  13.145 -0.2649 -0.8206  1.5032
 2161TIP3   OH227897   0.981   3.689   2.905  0.1948  0.1781 -0.7641
 2161TIP3    H127898   1.024   3.717   2.986 -0.0114  0.6814 -0.8240
 2161TIP3    H227899   0.911   3.753   2.893 -0.0403 -0.1485 -1.1131
 2162TIP3   OH227900   5.978   2.398  16.069 -0.1375  0.4120 -0.3828
 2162TIP3    H127901   5.950   2.489  16.067 -0.3245  0.3441 -0.7840
 2162TIP3    H227902   6.063   2.401  16.113 -0.3322  0.7263 -0.0115
 2163TIP3   OH227903   1.069   3.068   2.099  0.2969  0.4812 -0.1594
 2163TIP3    H127904   1.048   2.978   2.077 -0.2638  1.1741 -2.7997
 2163TIP3    H227905   1.066   3.115   2.016  0.6162  2.9438  1.1071
 2164TIP3   OH227906   0.902   0.108   6.299 -0.8460 -0.5634  0.3231
 2164TIP3    H127907   0.958   0.177   6.336 -0.4692 -1.1230  0.8098
 2164TIP3    H227908   0.951   0.074   6.225 -1.1305 -0.1690 -0.0541
 2165TIP3   OH227909   3.552   0.625  14.355  0.0210 -0.1609 -0.0116
 2165TIP3    H127910   3.472   0.635  14.304 -0.7672  0.9312  1.3938
 2165TIP3    H227911   3.601   0.705  14.337 -0.1840  0.1517  0.7969
 2166TIP3   OH227912   2.233   4.895  17.188  0.1209  0.3308 -0.3923
 2166TIP3    H127913   2.164   4.921  17.126  0.4712 -0.7813 -1.2891
 2166TIP3    H227914   2.314   4.925  17.146  0.3920 -0.7410 -0.6824
 2167TIP3   OH227915   5.435   3.455  10.835 -0.3721 -0.0290 -0.1414
 2167TIP3    H127916   5.360   3.480  10.888 -0.1504 -1.6408  1.0043
 2167TIP3    H227917   5.410   3.479  10.746 -1.7334  0.5768  0.3754
 2168TIP3   OH227918   5.568   3.167  14.800 -0.4960  0.6801  0.2394
 2168TIP3    H127919   5.557   3.093  14.740 -2.1866  1.9249 -1.0921
 2168TIP3    H227920   5.641   3.217  14.763  0.0794  0.1516  0.6468
 2169TIP3   OH227921   4.020   5.890   2.982  1.0565  0.2802  0.1422
 2169TIP3    H127922   4.004   5.952   2.911  0.9372 -0.8222 -0.8097
 2169TIP3    H227923   4.046   5.945   3.056  1.5184  1.4282 -0.8405
 2170TIP3   OH227924   2.466   4.191  17.133  0.0822  0.0578  0.1658
 2170TIP3    H127925   2.472   4.096  17.144 -0.1508  0.1396  1.1135
 2170TIP3    H227926   2.373   4.210  17.128  0.1414  0.0338 -2.3101
 2171TIP3   OH227927   0.859   4.824  12.572  0.2962  0.0987 -0.2289
 2171TIP3    H127928   0.860   4.914  12.604  0.6829  0.1908 -0.4974
 2171TIP3    H227929   0.899   4.829  12.485  1.1289 -0.4780  0.1175
 2172TIP3   OH227930   6.267   2.945   1.012 -0.3428  0.1986  0.2436
 2172TIP3    H127931   6.193   3.005   1.023 -0.4691 -0.1946  1.8293
 2172TIP3    H227932   6.341   2.991   1.051 -0.0830 -0.0300  0.0210
 2173TIP3   OH227933   5.146   4.694  16.952  0.9287 -0.0243 -0.2868
 2173TIP3    H127934   5.160   4.772  16.898  1.4891  0.3004  0.3038
 2173TIP3    H227935   5.076   4.719  17.013  0.7714 -0.1513 -0.4167
 2174TIP3   OH227936   3.913   2.605  11.765 -0.0980  0.1684  0.3788
 2174TIP3    H127937   3.947   2.515  11.761 -0.0674  0.2153 -2.6678
 2174TIP3    H227938   3.818   2.595  11.774  0.0008 -0.1209  1.1664
 2175TIP3   OH227939   2.754   1.881   4.279 -0.3736  0.1616 -0.4891
 2175TIP3    H127940   2.798   1.814   4.226 -0.4005 -0.7193  0.5748
 2175TIP3    H227941   2.660   1.863   4.266 -0.3858 -0.9356  0.8955
 2176TIP3   OH227942   2.100   1.687   2.600 -0.0241  0.0298 -0.4772
 2176TIP3    H127943   2.015   1.728   2.617 -0.3170 -0.5020 -0.6267
 2176TIP3    H227944   2.123   1.715   2.512 -0.2668 -0.1903 -0.6142
 2177TIP3   OH227945   3.875   5.075  11.805  0.3633  0.0363  0.4668
 2177TIP3    H127946   3.962   5.111  11.791 -0.5832  1.9226 -1.2275
 2177TIP3    H227947   3.887   4.980  11.800  2.3907  0.2137  1.0195
 2178TIP3   OH227948   3.723   5.794   2.935 -0.0679 -0.2054 -0.5085
 2178TIP3    H127949   3.649   5.797   2.874  0.7156 -0.6538 -1.5058
 2178TIP3    H227950   3.796   5.762   2.882  0.9148  0.5078  0.3855
 2179TIP3   OH227951   4.513   5.246  15.698  0.4960 -0.2096 -0.7720
 2179TIP3    H127952   4.596   5.217  15.660  1.0573  1.2034 -0.6945
 2179TIP3    H227953   4.537   5.289  15.780 -0.3265  0.0935 -0.6783
 2180TIP3   OH227954   3.946   4.929  12.423 -0.2222  0.1597  0.4326
 2180TIP3    H127955   3.880   4.948  12.356 -0.2578  0.6658  0.6028
 2180TIP3    H227956   3.990   4.850  12.392  0.6650  1.1202 -0.8731
 2181TIP3   OH227957   1.603   1.209   5.259 -0.4720 -0.6346  0.4391
 2181TIP3    H127958   1.557   1.141   5.309 -1.4501  0.7184  1.4496
 2181TIP3    H227959   1.634   1.271   5.325  0.0175  0.1315 -0.4841
 2182TIP3   OH227960   3.451   2.059  14.749 -0.6140 -0.2638  0.0693
 2182TIP3    H127961   3.499   2.042  14.830 -0.4123  0.9442  0.2166
 2182TIP3    H227962   3.397   2.136  14.768 -2.2416 -1.2594 -0.2610
 2183TIP3   OH227963   1.199   3.175   4.777 -0.6515 -0.1513 -0.1329
 2183TIP3    H127964   1.142   3.240   4.817 -0.2751  0.8040 -1.0893
 2183TIP3    H227965   1.140   3.116   4.730 -0.9804 -0.4072  0.5901
 2184TIP3   OH227966   0.945   5.118  11.940 -0.3584  0.3317 -0.6483
 2184TIP3    H127967   0.864   5.169  11.940 -0.6414 -0.1049 -0.2735
 2184TIP3    H227968   0.983   5.133  11.854 -1.3778 -0.3059 -1.2195
 2185TIP3   OH227969   2.235   2.093   3.023  0.0595 -0.4743  0.2820
 2185TIP3    H127970   2.262   2.151   3.094 -0.9159 -0.2718  0.4998
 2185TIP3    H227971   2.274   2.008   3.046 -0.1208 -0.3739  0.9872
 2186TIP3   OH227972   4.592   6.423  13.907  0.2306 -0.7590  0.4407
 2186TIP3    H127973   4.525   6.384  13.962 -1.5985 -1.2839 -1.9905
 2186TIP3    H227974   4.638   6.349  13.868 -0.0349 -0.4557 -0.4775
 2187TIP3   OH227975   3.327   1.170   1.077 -0.1209  0.3441 -0.4338
 2187TIP3    H127976   3.318   1.264   1.086 -0.2505  0.1773  1.7038
 2187TIP3    H227977   3.273   1.133   1.147  0.6226 -1.2821 -0.6580
 2188TIP3   OH227978   4.122   1.542   3.281  0.1703 -0.6048  0.2690
 2188TIP3    H127979   4.163   1.570   3.363  0.1051  0.2462  0.0251
 2188TIP3    H227980   4.107   1.624   3.233 -0.7383 -1.0041 -0.1479
 2189TIP3   OH227981   1.009   5.528   2.079  0.2150  0.4976  0.3233
 2189TIP3    H127982   0.993   5.622   2.076  0.0961  0.5895  2.6032
 2189TIP3    H227983   1.061   5.511   2.001 -1.8697  1.9869 -1.5342
 2190TIP3   OH227984   0.924   5.067   1.422 -0.1489  0.4760  0.1748
 2190TIP3    H127985   0.842   5.110   1.396 -0.1051  0.1948 -0.4356
 2190TIP3    H227986   0.944   5.007   1.350  0.3319  0.1757  0.5513
 2191TIP3   OH227987   2.573   2.994   0.833  0.0167 -0.7677  0.4424
 2191TIP3    H127988   2.637   3.058   0.801 -1.3713  0.8397  0.7384
 2191TIP3    H227989   2.568   2.929   0.763  1.8444 -0.8538  0.3519
 2192TIP3   OH227990   4.413   5.794  15.651  0.7672 -0.8340  0.6519
 2192TIP3    H127991   4.319   5.782  15.663  0.6469 -2.1121 -1.0886
 2192TIP3    H227992   4.426   5.782  15.557  2.3632  1.7588  0.4444
 2193TIP3   OH227993   4.180   6.008   4.147  0.7991  0.1978 -0.1778
 2193TIP3    H127994   4.099   6.058   4.138  0.0592 -0.7717  0.7612
 2193TIP3    H227995   4.193   5.967   4.062  0.2779  0.3467 -0.3331
 2194TIP3   OH227996   0.949   0.711  11.962 -0.7457 -0.2461  0.0400
 2194TIP3    H127997   0.939   0.746  12.050 -1.8598  0.9653 -0.5387
 2194TIP3    H227998   0.887   0.638  11.957 -0.0625 -0.8707  0.5173
 2195TIP3   OH227999   5.045   1.443  13.063  0.0020  0.4711 -0.1536
 2195TIP3    H128000   5.020   1.400  13.144  0.0540 -0.3237 -0.5475
 2195TIP3    H228001   5.021   1.534  13.076 -0.0437  0.3436  0.7293
 2196TIP3   OH228002   4.915   3.588   3.470  0.3179 -0.4038 -0.0351
 2196TIP3    H128003   4.834   3.635   3.490 -0.7150 -2.5519  1.1888
 2196TIP3    H228004   4.963   3.647   3.413 -0.8806  2.1224  1.3757
 2197TIP3   OH228005   4.477   3.982  14.788  0.3913  0.7230  0.4408
 2197TIP3    H128006   4.561   3.939  14.804  0.1149  0.2213  0.5647
 2197TIP3    H228007   4.497   4.075  14.789  0.8167  0.6276  1.2219
 2198TIP3   OH228008   5.191   2.111   2.132 -0.1112  0.3340 -0.2743
 2198TIP3    H128009   5.253   2.144   2.196  0.8190  0.8785 -1.4176
 2198TIP3    H228010   5.138   2.047   2.180  1.6271 -0.4975  0.6218
 2199TIP3   OH228011   0.511   2.933  10.712 -0.4659 -0.3816  0.7053
 2199TIP3    H128012   0.470   2.948  10.797  0.2414  1.7854  0.7183
 2199TIP3    H228013   0.527   2.839  10.710 -0.8357 -0.5443  2.8226
 2200TIP3   OH228014   5.410   1.120   6.563  0.0006 -0.6643  0.4415
 2200TIP3    H128015   5.449   1.185   6.506 -0.4590  0.2012  1.0921
 2200TIP3    H228016   5.463   1.122   6.642  0.4477 -1.6361  0.1828
 2201TIP3   OH228017   2.092   5.301  17.131 -0.4209 -0.2248 -0.5906
 2201TIP3    H128018   2.140   5.333  17.055 -1.2897 -0.7117 -1.3632
 2201TIP3    H228019   2.086   5.207  17.118  1.7860 -0.7383  1.4698
 2202TIP3   OH228020   5.599   5.738   0.175 -0.4465  0.1232 -0.3679
 2202TIP3    H128021   5.504   5.738   0.164 -0.3894 -1.2900 -1.0288
 2202TIP3    H228022   5.615   5.805   0.242 -1.8203  0.9281 -0.7994
 2203TIP3   OH228023   4.416   4.148   5.628 -0.5130  0.1460 -0.0342
 2203TIP3    H128024   4.355   4.075   5.645  1.3028 -1.0297  2.0118
 2203TIP3    H228025   4.489   4.108   5.581 -1.6053  1.7336 -3.3667
 2204TIP3   OH228026   3.904   5.678   2.763  0.1709  0.0576 -0.1508
 2204TIP3    H128027   3.939   5.701   2.849 -0.5067  0.0961  0.1198
 2204TIP3    H228028   3.973   5.703   2.701  1.7377 -2.2430  0.5432
 2205TIP3   OH228029   4.178   1.050   1.122  0.1785  0.5505  0.3061
 2205TIP3    H128030   4.267   1.018   1.131 -0.2255 -0.4124  1.0706
 2205TIP3    H228031   4.138   1.034   1.207 -0.9599  0.2043 -0.2708
 2206TIP3   OH228032   0.373   2.343  12.296 -0.4874  0.3921  0.6108
 2206TIP3    H128033   0.433   2.280  12.255 -1.6600 -0.0113 -0.5221
 2206TIP3    H228034   0.294   2.341  12.242 -1.2842  1.4207  1.6807
 2207TIP3   OH228035   4.949   1.877   3.073 -0.1903  0.1532  0.2365
 2207TIP3    H128036   4.881   1.856   3.009 -1.0954  1.5896  0.6868
 2207TIP3    H228037   5.018   1.813   3.056 -0.5730  0.2384 -1.8992
 2208TIP3   OH228038   6.199   1.733   0.772  0.5678  0.6636  0.2023
 2208TIP3    H128039   6.238   1.666   0.716  0.4572  1.9124 -1.4413
 2208TIP3    H228040   6.116   1.694   0.802  0.5159  0.0505 -0.7017
 2209TIP3   OH228041   1.192   5.037   0.982 -0.2980  0.1177 -0.2655
 2209TIP3    H128042   1.267   5.085   1.018 -0.0878  0.1049 -0.6782
 2209TIP3    H228043   1.182   5.071   0.893 -0.6376 -0.0465 -0.2907
 2210TIP3   OH228044   1.788   3.898  17.129 -0.2581 -0.3252  0.0502
 2210TIP3    H128045   1.817   3.808  17.142  0.0475  0.0017  1.8077
 2210TIP3    H228046   1.867   3.951  17.142 -0.9587  0.3637  1.7600
 2211TIP3   OH228047   1.525   0.912  12.479  0.8945 -0.0584  0.0147
 2211TIP3    H128048   1.578   0.839  12.510 -0.4075 -0.5625  1.1588
 2211TIP3    H228049   1.435   0.888  12.501  0.0280  0.3639 -2.6258
 2212TIP3   OH228050   1.411   0.694   3.871 -0.3212  0.2020  0.3353
 2212TIP3    H128051   1.435   0.617   3.820 -1.9985 -0.0622 -0.1288
 2212TIP3    H228052   1.365   0.658   3.947  1.7086  0.6126  1.8357
 2213TIP3   OH228053   6.403   3.416  16.229  0.0474  0.3374  0.1457
 2213TIP3    H128054   6.447   3.332  16.212 -1.7520 -0.4053 -1.1226
 2213TIP3    H228055   6.314   3.392  16.254 -0.1303  1.8593  1.1221
 2214TIP3   OH228056   2.722   3.375   1.668  0.1562 -0.0445  0.4972
 2214TIP3    H128057   2.643   3.386   1.615  0.0463  3.7828  1.1707
 2214TIP3    H228058   2.786   3.433   1.628  2.1255 -1.7618  1.0007
 2215TIP3   OH228059   1.070   4.425  16.678 -0.1560 -0.0829  0.2293
 2215TIP3    H128060   1.151   4.405  16.631  0.3685  0.4390  0.8758
 2215TIP3    H228061   1.007   4.359  16.647  0.2270  0.1051 -1.0063
 2216TIP3   OH228062   5.947   5.029   2.431 -0.4265 -0.2587  0.3975
 2216TIP3    H128063   5.982   4.966   2.368  0.7543 -0.7558  1.5116
 2216TIP3    H228064   5.998   5.015   2.511 -0.8267  1.4124  0.9979
 2217TIP3   OH228065   0.796   2.414  15.766 -0.1682  0.3914  0.5365
 2217TIP3    H128066   0.787   2.319  15.773 -0.2564  0.3612  0.0749
 2217TIP3    H228067   0.806   2.444  15.856  2.3123 -0.3066  0.5652
 2218TIP3   OH228068   0.513   2.952   1.181 -0.0251 -0.1768  0.0752
 2218TIP3    H128069   0.455   2.953   1.105 -1.5007  0.7484  1.1715
 2218TIP3    H228070   0.597   2.920   1.146 -0.2178  1.5793 -2.2357
 2219TIP3   OH228071   1.750   4.442   4.816 -0.0522  0.3500 -0.9055
 2219TIP3    H128072   1.670   4.485   4.844 -0.8933 -0.6938 -1.6178
 2219TIP3    H228073   1.806   4.513   4.784 -1.0551  1.0046 -1.2460
 2220TIP3   OH228074   5.795   0.060   5.341  0.0966  0.6182  0.1065
 2220TIP3    H128075   5.705   0.049   5.371 -0.6928 -0.9650 -2.5086
 2220TIP3    H228076   5.847   0.010   5.404 -1.1024 -0.1687  0.5102
 2221TIP3   OH228077   3.682   3.504   1.346 -0.4624  0.1774  0.3001
 2221TIP3    H128078   3.671   3.535   1.256 -0.5871  2.6283  1.0835
 2221TIP3    H228079   3.693   3.409   1.338 -0.7222  0.3024 -2.2578
 2222TIP3   OH228080   3.601   4.211  13.519 -0.0695 -0.0381 -0.0315
 2222TIP3    H128081   3.511   4.186  13.500 -0.3680  0.7187  0.3592
 2222TIP3    H228082   3.654   4.161  13.456 -0.8508  0.4920 -1.1400
 2223TIP3   OH228083   2.536   5.540  15.320  0.0943  0.1595  0.4132
 2223TIP3    H128084   2.583   5.460  15.297 -0.7556 -0.8119  1.8876
 2223TIP3    H228085   2.602   5.596  15.359  0.2736 -0.7350  1.4278
 2224TIP3   OH228086   0.217   2.503   3.436  0.1847 -0.3783 -0.0571
 2224TIP3    H128087   0.175   2.499   3.522  0.5840  1.1267  0.2426
 2224TIP3    H228088   0.147   2.484   3.374 -1.1849  2.6103  0.3893
 2225TIP3   OH228089   1.749   3.203   0.606 -0.0704  0.4967 -0.4386
 2225TIP3    H128090   1.763   3.165   0.520  0.0487  0.8473 -0.5780
 2225TIP3    H228091   1.785   3.292   0.599 -0.3571  0.6410 -0.1293
 2226TIP3   OH228092   5.932   5.428   2.577 -0.0873 -0.1173  0.4427
 2226TIP3    H128093   5.913   5.470   2.661  0.4594  0.2772  0.3732
 2226TIP3    H228094   5.916   5.335   2.592  1.8158 -0.3250  1.5451
 2227TIP3   OH228095   1.835   4.494   1.427 -0.1844 -0.0065  0.4329
 2227TIP3    H128096   1.905   4.541   1.383 -0.6057 -0.7484 -1.1220
 2227TIP3    H228097   1.756   4.547   1.411 -0.5677 -0.9134 -0.8884
 2228TIP3   OH228098   5.832   1.347  16.623 -0.5127  0.0231  0.6688
 2228TIP3    H128099   5.916   1.309  16.596 -0.4021 -0.3475  1.5140
 2228TIP3    H228100   5.782   1.354  16.541  0.2804  0.0992  0.1829
 2229TIP3   OH228101   4.850   0.212   4.831 -0.2248  0.2846  0.5002
 2229TIP3    H128102   4.939   0.178   4.819 -0.1129  1.4953 -3.8203
 2229TIP3    H228103   4.812   0.210   4.743 -3.5967  2.2499  1.7423
 2230TIP3   OH228104   0.077   4.093   5.394  0.4347  0.0665 -0.4371
 2230TIP3    H128105   0.140   4.091   5.467 -0.1539 -1.1411  0.0727
 2230TIP3    H228106   0.008   4.033   5.422 -1.1520  1.6576 -0.8100
 2231TIP3   OH228107   5.708   2.960   1.493  0.4214 -0.4359  0.2390
 2231TIP3    H128108   5.667   2.916   1.418  0.6159 -1.0343  0.4745
 2231TIP3    H228109   5.645   3.027   1.518  0.2325 -0.4008 -0.2957
 2232TIP3   OH228110   0.943   3.686   5.582  0.3854  0.0718  0.0208
 2232TIP3    H128111   0.928   3.598   5.616 -0.9410 -0.7599 -2.4256
 2232TIP3    H228112   0.920   3.744   5.654 -0.3609 -1.5674  1.1693
 2233TIP3   OH228113   1.663   0.439   0.689  0.2419  0.0083 -0.4892
 2233TIP3    H128114   1.723   0.366   0.675  0.6194  0.2588 -0.1985
 2233TIP3    H228115   1.585   0.417   0.638  0.8188 -0.0228 -1.3748
 2234TIP3   OH228116   4.907   1.208   1.077 -0.1175 -0.9686 -0.3964
 2234TIP3    H128117   4.998   1.182   1.092 -0.4557 -1.8267  0.2621
 2234TIP3    H228118   4.885   1.264   1.152  0.1473  0.0432 -1.0485
 2235TIP3   OH228119   3.421   0.088   5.210 -0.3676 -0.0019  0.3265
 2235TIP3    H128120   3.350   0.091   5.146 -1.2678  0.5387  1.3177
 2235TIP3    H228121   3.455   0.177   5.213 -0.0931 -0.1068  0.3410
 2236TIP3   OH228122   6.003   4.852   2.214 -0.7492 -0.3514  0.4281
 2236TIP3    H128123   5.924   4.873   2.164 -1.1370 -1.7270  0.4180
 2236TIP3    H228124   6.071   4.840   2.147 -0.2550  1.7415  0.4794
 2237TIP3   OH228125   1.621   1.915   5.676  0.1620 -0.3223  0.2758
 2237TIP3    H128126   1.618   1.859   5.754 -1.5653 -0.2532  0.2957
 2237TIP3    H228127   1.542   1.892   5.627  0.9246  0.0541 -1.1824
 2238TIP3   OH228128   2.543   3.867   1.419  0.1806  0.5841  0.0550
 2238TIP3    H128129   2.455   3.845   1.387  0.4424 -0.2301 -0.1133
 2238TIP3    H228130   2.555   3.812   1.496  0.9940 -0.1876 -0.6002
 2239TIP3   OH228131   2.410   5.091   0.423 -0.1586 -0.1111 -0.6662
 2239TIP3    H128132   2.416   5.154   0.494 -0.4377 -0.1096 -0.6463
 2239TIP3    H228133   2.500   5.060   0.411 -0.0975 -0.0452 -0.3750
 2240TIP3   OH228134   3.922   3.992  17.022  0.8014 -0.0794  0.2344
 2240TIP3    H128135   3.832   3.962  17.033  0.6354  1.1733  3.0706
 2240TIP3    H228136   3.914   4.086  17.005  1.5712 -0.2023 -0.9414
 2241TIP3   OH228137   2.251   5.359   0.953 -0.0943  0.6889 -0.2693
 2241TIP3    H128138   2.178   5.415   0.978  0.4986 -0.0219  3.9014
 2241TIP3    H228139   2.226   5.272   0.984  1.4247 -0.1422 -1.2321
 2242TIP3   OH228140   6.229   0.262  10.940 -0.2653 -0.6317  0.4880
 2242TIP3    H128141   6.202   0.189  10.885  0.4306 -0.5506  0.0278
 2242TIP3    H228142   6.149   0.288  10.986 -0.6430 -1.3084  0.2310
 2243TIP3   OH228143   2.727   4.818  13.272 -0.4165  0.5993  0.0573
 2243TIP3    H128144   2.737   4.894  13.214 -1.3755  0.9560  0.3392
 2243TIP3    H228145   2.667   4.848  13.340  0.1134 -0.0542  0.8242
 2244TIP3   OH228146   1.296   0.562   0.897  0.3005  0.0291  0.2418
 2244TIP3    H128147   1.374   0.595   0.852 -0.0390 -0.7491 -0.9424
 2244TIP3    H228148   1.304   0.467   0.893  0.4757 -0.0938  2.2447
 2245TIP3   OH228149   5.144   6.204  10.719  0.2910  0.2010  0.0700
 2245TIP3    H128150   5.184   6.126  10.757 -0.3437 -0.0841  0.1568
 2245TIP3    H228151   5.219   6.256  10.689  0.7157 -0.5162 -0.1542
 2246TIP3   OH228152   1.471   6.399  14.906 -0.2774  0.0084  0.5364
 2246TIP3    H128153   1.439   6.309  14.902 -1.8160  0.4411  1.9319
 2246TIP3    H228154   1.449   6.436  14.820  0.5377 -0.9629 -0.1152
 2247TIP3   OH228155   3.859   6.205   1.913  0.1511  0.1779 -0.4339
 2247TIP3    H128156   3.877   6.289   1.869  1.2856  0.0741 -0.2140
 2247TIP3    H228157   3.936   6.191   1.968 -1.7421  0.9563  2.6633
 2248TIP3   OH228158   5.960   4.627  11.592  0.6575 -0.2230  0.0204
 2248TIP3    H128159   5.989   4.574  11.666 -0.7449 -0.9621  0.0842
 2248TIP3    H228160   5.976   4.571  11.516  2.7910  0.8261 -0.3474
 2249TIP3   OH228161   2.658   0.227   6.672  0.4149 -0.0761  0.7315
 2249TIP3    H128162   2.585   0.171   6.699 -0.2732  0.4803  0.0933
 2249TIP3    H228163   2.645   0.308   6.722 -0.1082  0.4689 -0.2693
 2250TIP3   OH228164   3.132   0.256   3.552 -0.1131  0.2867 -0.4642
 2250TIP3    H128165   3.152   0.341   3.514  0.0945  1.0690  1.3156
 2250TIP3    H228166   3.054   0.272   3.605  0.5876 -0.3454  0.7907
 2251TIP3   OH228167   1.269   3.614   6.115  0.4053 -0.6705  0.6932
 2251TIP3    H128168   1.219   3.582   6.190 -0.2153 -1.2529  0.0408
 2251TIP3    H228169   1.270   3.541   6.054  0.4204 -0.0126 -0.1110
 2252TIP3   OH228170   6.474   4.388  13.148 -0.1262 -0.2280 -0.3951
 2252TIP3    H128171   6.471   4.439  13.067  0.1742 -0.5028 -0.5838
 2252TIP3    H228172   6.399   4.329  13.143  0.0130 -0.3915 -0.5748
 2253TIP3   OH228173   2.810   4.837  12.940  0.0969 -0.2310 -0.3795
 2253TIP3    H128174   2.890   4.844  12.993  0.3304  1.4767 -0.8845
 2253TIP3    H228175   2.750   4.900  12.980 -1.0367 -1.5112  0.0004
 2254TIP3   OH228176   5.334   4.331  13.746  0.0604  0.3307 -0.0513
 2254TIP3    H128177   5.278   4.256  13.721 -1.6269  2.3510 -2.9840
 2254TIP3    H228178   5.423   4.296  13.744 -0.7887 -2.2218  1.5261
 2255TIP3   OH228179   2.633   1.803  16.653 -0.7085 -0.0885 -0.6652
 2255TIP3    H128180   2.560   1.853  16.689 -2.2612 -0.0546 -3.5880
 2255TIP3    H228181   2.706   1.865  16.653 -1.8388  1.3298 -1.5871
 2256TIP3   OH228182   0.336   3.955   0.044 -0.0898 -0.0598  0.0256
 2256TIP3    H128183   0.367   4.046   0.054 -1.5682  0.3155  1.5333
 2256TIP3    H228184   0.348   3.937  -0.050  0.7539  1.4825 -0.2093
 2257TIP3   OH228185   4.577   3.713   3.049 -0.0677  0.6071  0.5120
 2257TIP3    H128186   4.564   3.633   3.102 -2.8146 -0.5280 -1.6083
 2257TIP3    H228187   4.556   3.784   3.109 -0.8283 -0.4681  1.5868
 2258TIP3   OH228188   2.973   3.317   1.529 -0.3879  0.1876 -0.0167
 2258TIP3    H128189   3.002   3.277   1.611 -2.1089 -0.0110  0.5348
 2258TIP3    H228190   2.968   3.244   1.467 -1.2449 -0.0578  0.3329
 2259TIP3   OH228191   5.549   0.937   4.159 -0.0699  0.0802  0.4751
 2259TIP3    H128192   5.558   1.032   4.164 -1.3619  0.2880 -0.5422
 2259TIP3    H228193   5.623   0.909   4.104 -1.1254  0.8477 -1.4554
 2260TIP3   OH228194   2.820   4.973   5.403  0.7314  0.4479  0.1231
 2260TIP3    H128195   2.767   4.980   5.482  1.0582  0.2786  0.3579
 2260TIP3    H228196   2.876   4.897   5.417  0.1720 -0.1141 -0.6454
 2261TIP3   OH228197   0.425   2.945   5.675  0.0774 -0.3870  0.0178
 2261TIP3    H128198   0.414   2.859   5.716  1.8436 -0.8992 -0.4858
 2261TIP3    H228199   0.395   3.007   5.741  2.6479 -1.1735  2.1404
 2262TIP3   OH228200   6.590   3.848   5.874  0.2091 -0.0993  0.3067
 2262TIP3    H128201   6.593   3.762   5.831  0.1915  0.3985 -0.7294
 2262TIP3    H228202   6.499   3.875   5.865  0.1961 -0.0085  0.7130
 2263TIP3   OH228203   5.508   3.974   2.295 -0.0155  0.4570 -0.0592
 2263TIP3    H128204   5.578   3.909   2.303 -0.3153  0.2260  0.7684
 2263TIP3    H228205   5.525   4.017   2.211  0.8464  0.0891 -0.0834
 2264TIP3   OH228206   6.371   2.056  17.234  0.0328  0.5116 -0.1018
 2264TIP3    H128207   6.318   2.069  17.155  0.0026 -0.5887 -0.2809
 2264TIP3    H228208   6.306   2.051  17.305 -0.3952 -3.0362 -0.5734
 2265TIP3   OH228209   0.616   3.318  13.708 -0.1800  0.3582  0.0509
 2265TIP3    H128210   0.540   3.270  13.674 -0.8996  1.8223 -0.4615
 2265TIP3    H228211   0.645   3.372  13.635  2.4092 -1.3353 -0.3072
 2266TIP3   OH228212   3.608   2.683   1.264 -0.4438  0.1974 -0.2525
 2266TIP3    H128213   3.635   2.592   1.278  1.4168  0.6445 -0.5588
 2266TIP3    H228214   3.516   2.686   1.291 -0.7843 -1.9409 -1.0021
 2267TIP3   OH228215   2.987   4.994   0.233  0.2201 -0.4713 -0.5656
 2267TIP3    H128216   3.006   5.079   0.195  1.3610 -0.3470  0.2301
 2267TIP3    H228217   2.892   4.986   0.229  0.2017  0.2706 -1.8253
 2268TIP3   OH228218   4.578   0.986   5.525 -0.3609 -0.4337  0.0434
 2268TIP3    H128219   4.571   0.898   5.488 -0.5191  0.2737 -1.6963
 2268TIP3    H228220   4.621   0.973   5.610  1.0911 -2.0343 -0.8732
 2269TIP3   OH228221   4.776   5.678  14.086  0.7030 -0.9695  0.1729
 2269TIP3    H128222   4.737   5.662  14.171 -0.9775  3.2341  0.4219
 2269TIP3    H228223   4.712   5.645  14.023 -0.6067  0.6758  0.5982
 2270TIP3   OH228224   6.353   0.057   2.535  0.0440 -0.1137 -0.0128
 2270TIP3    H128225   6.362   0.120   2.463  2.9894  1.3405  1.4793
 2270TIP3    H228226   6.289   0.097   2.593 -0.1345  0.1453 -0.3828
 2271TIP3   OH228227   3.218   6.343  16.285 -0.0294 -0.2010  0.0887
 2271TIP3    H128228   3.308   6.360  16.312  0.2188 -0.2093 -0.7140
 2271TIP3    H228229   3.181   6.429  16.266 -0.2528 -0.1821  0.5894
 2272TIP3   OH228230   0.116   5.120   4.857  0.1924  0.1483 -0.4231
 2272TIP3    H128231   0.132   5.032   4.892 -0.7096 -0.4200 -1.3953
 2272TIP3    H228232   0.196   5.142   4.810 -0.2460 -0.9431 -1.7365
 2273TIP3   OH228233   5.512   4.357  12.115  0.0210  0.3423 -0.2680
 2273TIP3    H128234   5.534   4.371  12.207  1.3428 -1.0073 -0.3535
 2273TIP3    H228235   5.426   4.398  12.105 -1.1704 -1.3436  2.1105
 2274TIP3   OH228236   2.366   6.488  14.633 -0.2607  0.1831  0.4273
 2274TIP3    H128237   2.285   6.539  14.643 -1.4398 -1.5903  0.3678
 2274TIP3    H228238   2.344   6.401  14.667  1.4469 -0.5103 -0.1420
 2275TIP3   OH228239   4.153   3.714  16.944 -0.6776  0.1294  0.1653
 2275TIP3    H128240   4.134   3.781  16.878 -0.1438  0.6543  0.5347
 2275TIP3    H228241   4.217   3.656  16.902 -0.1051  0.6384  0.3155
 2276TIP3   OH228242   6.493   4.990  13.821  0.3120 -0.3468 -0.0128
 2276TIP3    H128243   6.398   4.980  13.812  0.3254  1.0214 -3.0368
 2276TIP3    H228244   6.528   4.904  13.801 -0.2640 -0.3817 -0.9420
 2277TIP3   OH228245   4.588   4.252  15.381  0.2343 -0.7542 -0.2367
 2277TIP3    H128246   4.633   4.206  15.452  1.3590 -1.4011 -1.3287
 2277TIP3    H228247   4.499   4.264  15.413  0.7410 -0.9259  1.3213
 2278TIP3   OH228248   6.720   1.620  13.656  0.1791 -0.2363  0.2500
 2278TIP3    H128249   6.787   1.688  13.656 -1.0148  1.0594 -2.1536
 2278TIP3    H228250   6.678   1.627  13.741  1.9410  0.0610  1.1351
 2279TIP3   OH228251   4.975   5.352   6.140  0.3524  0.1743  0.1244
 2279TIP3    H128252   5.003   5.313   6.223 -0.8143  0.0588  0.4937
 2279TIP3    H228253   4.953   5.277   6.085  1.4571  0.2407 -0.4344
 2280TIP3   OH228254   1.082   5.152  11.027  1.0276  1.4977  0.0895
 2280TIP3    H128255   1.027   5.148  10.949 -0.4624 -2.5498  1.0992
 2280TIP3    H228256   1.158   5.097  11.006 -0.7266 -2.1015  2.1316
 2281TIP3   OH228257   4.646   5.689  16.883 -0.2717 -0.2861 -0.1801
 2281TIP3    H128258   4.681   5.608  16.920  0.1747  0.4905  1.2107
 2281TIP3    H228259   4.551   5.677  16.884 -0.1811 -1.0411 -0.5942
 2282TIP3   OH228260   2.725   1.957   5.379 -0.2896  0.2580 -0.7650
 2282TIP3    H128261   2.786   2.030   5.372 -0.0530  0.1143 -0.2329
 2282TIP3    H228262   2.680   1.956   5.295  1.6780 -0.7399 -1.8819
 2283TIP3   OH228263   0.820   5.338  10.936 -0.0411 -0.7321 -0.3961
 2283TIP3    H128264   0.750   5.393  10.902  0.0886 -0.2081  0.1801
 2283TIP3    H228265   0.818   5.351  11.031 -0.1946 -1.9291 -0.2124
 2284TIP3   OH228266   5.803   4.034   1.712 -0.6316  0.5316 -0.3812
 2284TIP3    H128267   5.801   4.030   1.616  2.1733  0.1117 -0.5045
 2284TIP3    H228268   5.795   3.943   1.739 -2.8746  0.7607 -0.0777
 2285TIP3   OH228269   5.094   6.190  14.158  0.6747  0.5291 -0.2361
 2285TIP3    H128270   5.064   6.238  14.081 -1.5759 -0.0309  0.2143
 2285TIP3    H228271   5.016   6.145  14.190  2.1803 -1.6440  0.6629
 2286TIP3   OH228272   1.260   1.697  16.787  0.3479  0.8267 -0.2868
 2286TIP3    H128273   1.190   1.632  16.785 -0.2170  1.4454 -2.6425
 2286TIP3    H228274   1.251   1.745  16.706  0.8680  3.7774  1.2741
 2287TIP3   OH228275   2.449   0.530   5.424  0.5273 -0.4252  0.6562
 2287TIP3    H128276   2.393   0.497   5.494 -0.7967 -0.5321 -0.4106
 2287TIP3    H228277   2.465   0.621   5.447 -2.5062  0.4902 -0.4028
 2288TIP3   OH228278   4.032   5.980   6.511 -0.7059  0.2545  0.1104
 2288TIP3    H128279   3.981   5.915   6.463 -0.3564  0.1499 -0.1265
 2288TIP3    H228280   3.994   6.064   6.487 -1.0934  0.1450  0.3348
 2289TIP3   OH228281   6.572   4.536   0.396 -0.3861 -0.0542 -0.1913
 2289TIP3    H128282   6.549   4.577   0.479 -1.0697  1.2662 -1.0109
 2289TIP3    H228283   6.532   4.591   0.330 -0.6627 -1.6178 -1.3838
 2290TIP3   OH228284   1.928   3.221  13.789 -0.3956  0.1857  0.1470
 2290TIP3    H128285   1.984   3.297  13.771 -1.1883  0.8445  0.4230
 2290TIP3    H228286   1.839   3.253  13.776 -0.7237 -0.8674 -0.3396
 2291TIP3   OH228287   6.430   2.859  11.391 -0.0121 -0.2867 -0.6362
 2291TIP3    H128288   6.499   2.885  11.453 -0.4826 -1.6995  0.5391
 2291TIP3    H228289   6.352   2.905  11.422 -0.6210 -2.1942  0.8657
 2292TIP3   OH228290   2.670   6.164  15.404 -0.0233  0.0099 -0.2049
 2292TIP3    H128291   2.726   6.239  15.385 -0.1604  0.5576  1.3707
 2292TIP3    H228292   2.668   6.159  15.500 -4.1806  1.2106 -0.0311
 2293TIP3   OH228293   5.770   4.605   0.498 -0.1319 -0.4008  0.1868
 2293TIP3    H128294   5.859   4.637   0.486 -0.9187  1.3684 -1.4443
 2293TIP3    H228295   5.781   4.513   0.522  2.1101 -0.2698 -0.1034
 2294TIP3   OH228296   0.928   1.518  17.070 -0.1607  0.4967  0.0834
 2294TIP3    H128297   0.913   1.549  16.981  0.0354  2.6584  0.7404
 2294TIP3    H228298   0.852   1.462  17.089 -0.5747  0.6031 -1.1635
 2295TIP3   OH228299   3.155   6.362  12.164 -0.3557 -0.1307 -0.6085
 2295TIP3    H128300   3.172   6.271  12.189 -1.4056 -0.0894  0.3287
 2295TIP3    H228301   3.190   6.414  12.237 -0.2829  0.1859 -0.8680
 2296TIP3   OH228302   0.610   6.483   2.799  1.1418 -0.1741  0.1859
 2296TIP3    H128303   0.610   6.561   2.742 -0.5457  0.8278  1.4788
 2296TIP3    H228304   0.648   6.514   2.881 -0.3988 -0.4334  1.0325
 2297TIP3   OH228305   6.742   2.999  12.799  1.2272 -0.2321  0.6771
 2297TIP3    H128306   6.674   2.953  12.848 -0.6558  1.9783  0.3123
 2297TIP3    H228307   6.764   3.074  12.853  0.1816  1.4314 -1.0529
 2298TIP3   OH228308   1.164   2.079   4.427 -0.3765 -0.1174  0.2145
 2298TIP3    H128309   1.102   2.043   4.364 -0.7697  2.3597 -0.9269
 2298TIP3    H228310   1.239   2.019   4.424 -1.5648 -1.6082 -0.4618
 2299TIP3   OH228311   4.253   5.135   1.296  0.1419 -0.4136 -0.0244
 2299TIP3    H128312   4.196   5.211   1.294 -0.1634 -0.6541 -1.7154
 2299TIP3    H228313   4.324   5.157   1.235  0.2303 -1.3396 -0.2653
 2300TIP3   OH228314   4.849   1.758  13.905 -0.2698  0.2414 -0.3976
 2300TIP3    H128315   4.806   1.818  13.844 -0.4159 -0.9628 -1.5272
 2300TIP3    H228316   4.821   1.788  13.991 -2.3212  0.3380 -1.0254
 2301TIP3   OH228317   1.039   3.338   4.927 -0.3977  0.3387 -0.1118
 2301TIP3    H128318   1.005   3.278   4.992  0.2427 -1.8318 -1.6763
 2301TIP3    H228319   0.972   3.406   4.919 -1.5888 -0.6533  1.0511
 2302TIP3   OH228320   3.302   1.396   2.200 -0.2273  0.4625 -0.5140
 2302TIP3    H128321   3.373   1.362   2.255 -0.8729  1.6458  1.1349
 2302TIP3    H228322   3.328   1.486   2.181 -0.8659  0.6187 -0.6618
 2303TIP3   OH228323   0.262   6.328  16.712 -0.4002 -0.5057 -0.3274
 2303TIP3    H128324   0.303   6.270  16.776 -0.8367  0.4879  0.8886
 2303TIP3    H228325   0.187   6.277  16.679  0.1923 -1.2647 -0.5469
 2304TIP3   OH228326   3.565   2.746  10.932 -0.3643 -0.4330  0.7069
 2304TIP3    H128327   3.503   2.694  10.882 -1.0691  0.6389  0.4219
 2304TIP3    H228328   3.640   2.757  10.874 -1.0833  0.6105 -0.0602
 2305TIP3   OH228329   2.181   5.430   5.687 -0.3041  0.3759 -0.1259
 2305TIP3    H128330   2.251   5.447   5.625 -0.2492 -0.8699 -0.4357
 2305TIP3    H228331   2.182   5.505   5.746  0.4847  0.9564 -0.8549
 2306TIP3   OH228332   0.346   4.216  14.527 -0.3416 -0.4153  0.9574
 2306TIP3    H128333   0.273   4.269  14.558 -1.7367 -1.4783 -0.3431
 2306TIP3    H228334   0.310   4.127  14.521  1.3729 -1.1659  1.2675
 2307TIP3   OH228335   4.082   4.500  14.021 -0.1302  0.5728  0.2211
 2307TIP3    H128336   4.161   4.552  14.035  0.4454 -0.2405  0.0924
 2307TIP3    H228337   4.115   4.414  13.996 -1.0363 -0.1558  1.4379
 2308TIP3   OH228338   3.949   0.819   1.191 -0.2346 -0.1170 -0.3875
 2308TIP3    H128339   3.895   0.884   1.235 -1.2004 -0.6915 -0.6872
 2308TIP3    H228340   3.888   0.772   1.134  0.5098 -1.0659 -0.4206
 2309TIP3   OH228341   2.006   0.024  11.597  0.3902 -0.2343  0.0610
 2309TIP3    H128342   2.097   0.054  11.604 -0.1646  2.2800 -1.9826
 2309TIP3    H228343   1.955   0.094  11.637 -0.7675 -0.8942 -0.2307
 2310TIP3   OH228344   2.110   4.536  14.518 -0.4349  0.3823 -0.2025
 2310TIP3    H128345   2.110   4.445  14.487 -0.0983  0.1949  0.3289
 2310TIP3    H228346   2.137   4.587  14.442  1.9899 -0.2340  0.1633
 2311TIP3   OH228347   3.730   2.684   2.035  0.1143 -0.0024 -0.2876
 2311TIP3    H128348   3.634   2.692   2.038  0.1938  0.8225  1.1032
 2311TIP3    H228349   3.759   2.764   1.991  0.2016  0.2661  0.2474
 2312TIP3   OH228350   6.158   5.031  13.339 -0.0499 -0.3426  0.4364
 2312TIP3    H128351   6.106   5.090  13.395 -1.0473 -0.1251 -0.6636
 2312TIP3    H228352   6.112   5.033  13.255  0.6694 -1.6718 -0.0071
 2313TIP3   OH228353   4.113   5.812   3.493  0.0577 -0.8898  0.0877
 2313TIP3    H128354   4.181   5.823   3.559 -0.1137  0.7268  0.0226
 2313TIP3    H228355   4.159   5.821   3.410 -0.2715  0.6486  0.0475
 2314TIP3   OH228356   0.561   3.360   3.752 -0.2261 -0.3976 -0.1172
 2314TIP3    H128357   0.558   3.441   3.803  0.5614 -0.7770  0.5648
 2314TIP3    H228358   0.646   3.322   3.774 -1.2639 -2.2606  0.8936
 2315TIP3   OH228359   0.476   4.875   5.000 -0.0979  0.4059 -0.1193
 2315TIP3    H128360   0.529   4.810   5.047 -2.1236 -1.5623 -0.3437
 2315TIP3    H228361   0.520   4.886   4.916  0.6030 -0.2769  0.1484
 2316TIP3   OH228362   6.448   5.514   1.062  0.4350  0.3828 -0.0099
 2316TIP3    H128363   6.358   5.496   1.090  0.5491 -1.4871 -0.7743
 2316TIP3    H228364   6.499   5.512   1.143 -0.2809  2.3176  0.5555
 2317TIP3   OH228365   0.862   3.076   3.046 -0.2805 -0.0987  0.4255
 2317TIP3    H128366   0.867   2.991   3.002 -0.9124  0.4043 -0.6756
 2317TIP3    H228367   0.771   3.083   3.074 -0.3167  0.3467  0.2140
 2318TIP3   OH228368   4.682   5.660  12.566 -0.4132  0.8026 -0.0735
 2318TIP3    H128369   4.662   5.674  12.473 -1.2126  0.6207  0.0568
 2318TIP3    H228370   4.693   5.747  12.602 -0.1399  0.8765 -0.3303
 2319TIP3   OH228371   4.261   0.432   0.542 -0.2066  0.4556 -0.2062
 2319TIP3    H128372   4.186   0.484   0.571 -0.2606  0.5318 -0.4807
 2319TIP3    H228373   4.336   0.467   0.590 -0.4288  0.0413  0.4584
 2320TIP3   OH228374   4.570   5.050  12.386  0.0402  0.0523 -0.2299
 2320TIP3    H128375   4.658   5.087  12.394 -0.2019  0.8866 -1.1760
 2320TIP3    H228376   4.561   5.029  12.293 -0.0576 -1.8929  0.1630
 2321TIP3   OH228377   3.778   5.365  15.543 -0.6634  0.6051  0.3526
 2321TIP3    H128378   3.859   5.409  15.517 -0.6967  0.2718 -0.3412
 2321TIP3    H228379   3.739   5.336  15.460 -1.5537  0.8650  0.6713
 2322TIP3   OH228380   1.459   0.453   5.099  0.1436 -0.1466  0.5789
 2322TIP3    H128381   1.457   0.358   5.111 -0.7018 -0.1513  0.4857
 2322TIP3    H228382   1.542   0.481   5.137  1.7795 -1.2599 -1.9532
 2323TIP3   OH228383   2.373   1.841   2.988  0.0746 -0.0425  0.1292
 2323TIP3    H128384   2.382   1.837   2.893  0.2359  3.0968 -0.0976
 2323TIP3    H228385   2.437   1.779   3.022  0.4860 -0.7157 -1.7949
 2324TIP3   OH228386   4.026   6.699  14.686  0.1037  0.4407  0.1068
 2324TIP3    H128387   3.941   6.656  14.689  0.7429 -1.0656 -1.6675
 2324TIP3    H228388   4.008   6.785  14.647 -0.9186  1.1759  2.0516
 2325TIP3   OH228389   1.065   2.986  12.109  0.4792 -0.3869 -0.3929
 2325TIP3    H128390   1.128   3.017  12.044  0.9278  1.0692  0.7010
 2325TIP3    H228391   0.999   3.054  12.113  0.4783 -0.4398  0.6987
 2326TIP3   OH228392   1.272   6.531   0.395  0.8743  0.4350 -0.3341
 2326TIP3    H128393   1.212   6.603   0.378  1.5096  1.8468  2.6669
 2326TIP3    H228394   1.335   6.533   0.323  0.7653  2.8010 -0.4243
 2327TIP3   OH228395   3.919   2.885   1.209 -0.1598  0.2306  0.2385
 2327TIP3    H128396   4.003   2.853   1.242  0.2224  1.0711  0.1316
 2327TIP3    H228397   3.896   2.956   1.269  0.3655  1.5439 -1.0460
 2328TIP3   OH228398   2.001   2.600  14.369 -0.1007  0.3426 -0.3458
 2328TIP3    H128399   1.921   2.626  14.415 -0.4103 -1.2471  0.0684
 2328TIP3    H228400   2.065   2.666  14.394 -0.6553  0.3261  1.2117
 2329TIP3   OH228401   2.837   2.303  12.328 -0.4465  0.1493  0.2938
 2329TIP3    H128402   2.780   2.246  12.277  2.3135 -2.3016 -0.2941
 2329TIP3    H228403   2.882   2.245  12.389  3.0336  1.4815 -0.7856
 2330TIP3   OH228404   0.073   4.939   5.422 -0.4617 -0.2453  0.2282
 2330TIP3    H128405   0.077   4.888   5.341  0.4446  0.4482 -0.1840
 2330TIP3    H228406   0.134   4.895   5.481  2.2009  1.6211 -0.9219
 2331TIP3   OH228407   1.851   3.607  14.826  0.3862 -0.1435  0.4153
 2331TIP3    H128408   1.816   3.678  14.773  0.8086 -0.1097  0.1772
 2331TIP3    H228409   1.908   3.558  14.767 -2.3276 -2.6156 -0.3581
 2332TIP3   OH228410   5.170   4.029   5.689  0.2072 -0.5147 -0.4655
 2332TIP3    H128411   5.215   3.974   5.624 -0.5144 -1.9366  0.1826
 2332TIP3    H228412   5.083   3.991   5.695 -0.2650  0.6366  0.1402
 2333TIP3   OH228413   2.537   6.419  16.493  0.0357  0.2958  0.0437
 2333TIP3    H128414   2.497   6.489  16.545  1.9485  0.2276  1.7468
 2333TIP3    H228415   2.540   6.454  16.404  1.6689  2.8293  0.9512
 2334TIP3   OH228416   0.086   3.458   0.848 -0.3310  0.3321 -0.3840
 2334TIP3    H128417   0.175   3.476   0.876 -0.3270  1.9560 -1.3203
 2334TIP3    H228418   0.094   3.384   0.788  0.0102 -1.2519  1.5148
 2335TIP3   OH228419   0.289   0.952  12.723  0.4840  0.0785 -0.3048
 2335TIP3    H128420   0.285   1.040  12.761  0.2155 -0.6457  1.4308
 2335TIP3    H228421   0.249   0.961  12.637 -1.6888  1.2232  0.7408
 2336TIP3   OH228422   4.699   6.187   0.117 -0.2672 -0.4135 -0.0555
 2336TIP3    H128423   4.604   6.196   0.119 -0.3418 -1.0682 -0.4274
 2336TIP3    H228424   4.728   6.223   0.200 -0.8133  0.1092 -0.0843
 2337TIP3   OH228425   6.290   1.628  11.656 -0.0766 -0.6709  0.3914
 2337TIP3    H128426   6.365   1.654  11.603 -1.0852 -0.4318 -0.9526
 2337TIP3    H228427   6.315   1.651  11.746  1.2992 -0.2617 -0.0778
 2338TIP3   OH228428   1.849   1.192  14.025 -0.1020 -0.6209  0.4857
 2338TIP3    H128429   1.770   1.147  13.995  0.0600 -1.4082  1.2211
 2338TIP3    H228430   1.921   1.131  14.007  0.3363  0.0336 -0.0572
 2339TIP3   OH228431   0.958   5.646   1.792 -0.7748 -0.2696 -0.6291
 2339TIP3    H128432   0.945   5.713   1.859 -0.5338 -2.0872  1.3545
 2339TIP3    H228433   1.001   5.692   1.720  0.7831  1.4236  1.2427
 2340TIP3   OH228434   6.150   0.732   3.917 -0.2150 -0.1722 -0.4948
 2340TIP3    H128435   6.237   0.739   3.955 -0.3791 -0.0208 -0.1417
 2340TIP3    H228436   6.138   0.814   3.869 -0.9057  0.6741  1.0426
 2341TIP3   OH228437   5.146   5.689  17.193 -0.1620  0.3030  0.2154
 2341TIP3    H128438   5.180   5.777  17.175  0.6912  0.1405  0.9642
 2341TIP3    H228439   5.206   5.630  17.147 -0.7384  0.0992 -0.2958
 2342TIP3   OH228440   2.615   4.897   1.484  0.1818  0.0356 -0.3008
 2342TIP3    H128441   2.550   4.905   1.554 -0.0769  0.0708 -0.5482
 2342TIP3    H228442   2.666   4.978   1.490  1.8366 -1.0426  1.5351
 2343TIP3   OH228443   5.221   0.788   6.272 -0.3282  0.8536  0.1353
 2343TIP3    H128444   5.271   0.869   6.263 -1.4852  1.3316 -2.9462
 2343TIP3    H228445   5.138   0.815   6.311 -0.7658  1.1965 -1.0171
 2344TIP3   OH228446   0.391   0.518  14.076 -0.1688 -0.7483  0.3867
 2344TIP3    H128447   0.420   0.568  14.152  0.3991 -0.3987 -0.0487
 2344TIP3    H228448   0.472   0.489  14.034 -0.4850 -2.7988  1.1092
 2345TIP3   OH228449   1.444   1.503   0.207  0.2121 -0.0150  0.5020
 2345TIP3    H128450   1.449   1.440   0.279 -0.2639  0.2994  0.8176
 2345TIP3    H228451   1.534   1.534   0.196  0.7076 -1.7117 -0.5563
 2346TIP3   OH228452   1.537   0.581  12.838  0.0658 -0.6689 -0.2008
 2346TIP3    H128453   1.478   0.542  12.903  0.7426 -0.0888  0.7886
 2346TIP3    H228454   1.575   0.507  12.793 -1.7320 -1.0610 -1.1729
 2347TIP3   OH228455   6.012   1.184  14.776  0.0848  0.4331  0.3016
 2347TIP3    H128456   6.091   1.201  14.725 -0.3432 -0.9858 -0.9145
 2347TIP3    H228457   6.039   1.194  14.867  2.0287 -1.3547 -0.0036
 2348TIP3   OH228458   1.580   5.003  16.934  0.0338  0.1383  0.1352
 2348TIP3    H128459   1.666   5.025  16.970 -0.5507  1.3364  0.8505
 2348TIP3    H228460   1.588   4.911  16.907  1.1701 -0.1215  1.2766
 2349TIP3   OH228461   0.725   2.044  15.149  0.5789  0.2599 -0.1911
 2349TIP3    H128462   0.665   2.082  15.085 -0.8137  1.0462  1.4920
 2349TIP3    H228463   0.743   1.956  15.117 -0.7445  0.3346 -1.2207
 2350TIP3   OH228464   6.529   5.632  17.386  0.3036  0.2198 -0.2693
 2350TIP3    H128465   6.443   5.611  17.350 -0.1587  0.3382  0.7221
 2350TIP3    H228466   6.518   5.624  17.481  1.1909  0.9630 -0.0851
 2351TIP3   OH228467   6.110   5.802   1.198 -0.0023  0.1747 -0.1629
 2351TIP3    H128468   6.155   5.750   1.131 -0.3646  1.4416 -1.4221
 2351TIP3    H228469   6.020   5.770   1.197 -0.1660  0.6356 -0.7642
 2352TIP3   OH228470   3.027   4.741  12.124  0.1794 -0.1382  0.0616
 2352TIP3    H128471   3.110   4.769  12.160  0.2154 -0.7859  0.4937
 2352TIP3    H228472   2.978   4.822  12.111  1.7396  0.5204 -2.4517
 2353TIP3   OH228473   5.027   3.756   3.270 -0.7918  0.1288  0.2585
 2353TIP3    H128474   4.963   3.811   3.225 -0.0722  1.3134  0.6474
 2353TIP3    H228475   5.101   3.751   3.209 -0.1240  1.1099  0.9638
 2354TIP3   OH228476   5.584   3.687  13.353 -0.8764  0.1431 -0.0287
 2354TIP3    H128477   5.585   3.760  13.291 -0.4225  0.3257  0.1902
 2354TIP3    H228478   5.508   3.635  13.328 -0.4831  0.0098 -0.9749
 2355TIP3   OH228479   5.348   2.356   3.822 -0.0284  0.1326  0.3426
 2355TIP3    H128480   5.408   2.378   3.894  2.4272  1.6399 -1.9714
 2355TIP3    H228481   5.362   2.263   3.807  0.4613  0.0987  0.9459
 2356TIP3   OH228482   5.559   2.932  13.904  0.2977 -0.1628  0.6442
 2356TIP3    H128483   5.652   2.924  13.883  0.4942  1.5345  0.7041
 2356TIP3    H228484   5.540   2.855  13.958  1.9214 -0.0293  1.4691
 2357TIP3   OH228485   5.162   3.392  14.542  0.0309  0.2928  0.3639
 2357TIP3    H128486   5.161   3.304  14.506  3.1781  0.2082  0.2221
 2357TIP3    H228487   5.118   3.446  14.476  1.4360 -0.6083 -1.3874
 2358TIP3   OH228488   4.324   4.332  15.431 -0.6829 -0.0285 -0.1587
 2358TIP3    H128489   4.307   4.247  15.389  0.1706 -0.4108  0.2349
 2358TIP3    H228490   4.325   4.395  15.359  1.6756 -0.8024 -0.8779
 2359TIP3   OH228491   2.454   6.006  11.655  0.1509 -0.1402 -0.0365
 2359TIP3    H128492   2.455   5.963  11.569  0.4685  2.7803 -1.6089
 2359TIP3    H228493   2.361   6.007  11.679 -0.2246  0.9019 -1.4076
 2360TIP3   OH228494   3.430   4.489   2.982 -0.0887 -0.2956  0.2818
 2360TIP3    H128495   3.474   4.566   3.018  0.1355 -0.2911  0.0107
 2360TIP3    H228496   3.502   4.433   2.952 -0.2402  0.7085 -2.2558
 2361TIP3   OH228497   3.707   0.928   4.529  0.3981  0.4440  0.1554
 2361TIP3    H128498   3.617   0.895   4.523  0.9389 -0.8364 -1.8869
 2361TIP3    H228499   3.697   1.024   4.527 -1.0185  0.4464  2.9554
 2362TIP3   OH228500   6.353   0.422  13.538 -0.2337  0.1176  0.4388
 2362TIP3    H128501   6.358   0.398  13.445  0.5557  0.0836  0.4828
 2362TIP3    H228502   6.265   0.456  13.549 -0.9236 -1.4589  0.0449
 2363TIP3   OH228503   5.557   2.632  13.150 -0.5802 -0.8317 -0.2568
 2363TIP3    H128504   5.612   2.669  13.219  0.5414 -0.3584 -1.3744
 2363TIP3    H228505   5.468   2.641  13.184  0.0230 -4.0468  2.7861
 2364TIP3   OH228506   0.430   0.916   5.776  0.5327 -0.7204  0.3215
 2364TIP3    H128507   0.379   0.959   5.707  2.1349 -1.3279 -1.3353
 2364TIP3    H228508   0.404   0.960   5.857 -1.7404 -0.2630 -0.5958
 2365TIP3   OH228509   6.167   2.679   3.355 -0.7699  0.0354  0.0003
 2365TIP3    H128510   6.182   2.594   3.396  0.8212  0.9600  1.4535
 2365TIP3    H228511   6.077   2.701   3.379 -0.1453  0.1939  2.4375
 2366TIP3   OH228512   0.094   3.857  14.241  0.2672 -0.9715 -0.0041
 2366TIP3    H128513   0.098   3.953  14.234 -2.3707 -0.8488 -1.2136
 2366TIP3    H228514   0.062   3.841  14.330 -1.1355 -0.5879 -0.4154
 2367TIP3   OH228515   5.202   4.793  14.402 -0.6770  0.5019  0.1386
 2367TIP3    H128516   5.173   4.702  14.402  1.5143 -0.2566  1.2777
 2367TIP3    H228517   5.121   4.844  14.396 -2.0700 -1.4767  1.1107
 2368TIP3   OH228518   3.924   1.265  11.903  0.4568  0.2606 -0.5643
 2368TIP3    H128519   3.948   1.217  11.983  0.7057 -0.4833 -1.0765
 2368TIP3    H228520   3.950   1.207  11.832  0.9775  1.2680 -1.2079
 2369TIP3   OH228521   0.327   1.549  12.297  0.8554 -0.4064  0.0066
 2369TIP3    H128522   0.235   1.566  12.319  0.6048  0.3052 -1.4512
 2369TIP3    H228523   0.349   1.618  12.235  1.8245 -1.6693 -1.0953
 2370TIP3   OH228524   6.642   4.818  15.485  0.3696 -0.0074  0.3332
 2370TIP3    H128525   6.700   4.861  15.423  0.5303 -0.3110  0.2693
 2370TIP3    H228526   6.568   4.877  15.494  1.7161  1.5673  2.1913
 2371TIP3   OH228527   5.954   4.451  12.247 -0.1831 -0.2613  0.2681
 2371TIP3    H128528   5.862   4.470  12.228 -0.0061 -0.4442 -0.8442
 2371TIP3    H228529   6.003   4.519  12.201  0.2282  0.2177  1.3877
 2372TIP3   OH228530   0.058   3.951   2.479 -0.3517  0.7541  0.3101
 2372TIP3    H128531   0.061   3.856   2.485 -2.6274  0.6455  1.0363
 2372TIP3    H228532   0.123   3.982   2.542  0.8629 -0.2864 -0.4036
 2373TIP3   OH228533   2.356   6.384   6.321  0.5603 -0.6355 -0.2086
 2373TIP3    H128534   2.305   6.326   6.378 -0.1989  0.1115 -0.1184
 2373TIP3    H228535   2.434   6.332   6.300 -1.0952 -2.5904 -1.9654
 2374TIP3   OH228536   1.539   4.257   0.539 -0.4277  0.0477  0.2684
 2374TIP3    H128537   1.456   4.274   0.584 -0.3900  0.2626  0.2581
 2374TIP3    H228538   1.513   4.231   0.450 -0.5203 -0.8118  0.5324
 2375TIP3   OH228539   3.401   2.137  11.327  0.5649  0.2647  0.5618
 2375TIP3    H128540   3.390   2.055  11.279 -1.7406  0.5050  0.5869
 2375TIP3    H228541   3.483   2.174  11.293  1.1886 -1.5886 -0.0766
 2376TIP3   OH228542   3.732   0.620  11.925 -0.4009 -0.5681  0.7511
 2376TIP3    H128543   3.726   0.527  11.906 -0.6181  0.0434 -2.9283
 2376TIP3    H228544   3.784   0.656  11.853 -1.7198  2.3559  1.1148
 2377TIP3   OH228545   5.319   0.623  16.756 -0.5719  0.6028  0.0794
 2377TIP3    H128546   5.385   0.569  16.799 -0.2646  1.4815  0.7346
 2377TIP3    H228547   5.245   0.564  16.741  0.5872 -0.5990 -1.3053
 2378TIP3   OH228548   0.094   0.532  14.734 -0.3137  0.8260  0.0300
 2378TIP3    H128549   0.015   0.478  14.736  0.2552 -0.3727 -3.5125
 2378TIP3    H228550   0.061   0.622  14.730 -1.5370  0.3722 -0.7611
 2379TIP3   OH228551   0.138   2.255  11.900 -0.4801  0.2073 -0.0161
 2379TIP3    H128552   0.178   2.319  11.841 -1.5561 -1.2773 -2.5419
 2379TIP3    H228553   0.046   2.251  11.873 -1.2560  0.0365  2.3865
 2380TIP3   OH228554   4.042   6.686   3.557 -0.1201  0.2611 -0.1867
 2380TIP3    H128555   4.011   6.655   3.472 -0.7298 -0.3101  0.2349
 2380TIP3    H228556   3.966   6.732   3.594 -0.0572 -0.0308  0.3109
 2381TIP3   OH228557   2.162   5.948   1.236 -0.9614  0.1400  0.1599
 2381TIP3    H128558   2.159   5.947   1.141  0.1877 -1.0389  0.1039
 2381TIP3    H228559   2.122   6.032   1.261  2.4963  2.5816 -1.5484
 2382TIP3   OH228560   0.731   1.336  12.646  0.4413  0.1198 -0.4864
 2382TIP3    H128561   0.752   1.247  12.616  1.1765  1.1107 -3.2538
 2382TIP3    H228562   0.810   1.365  12.691 -0.2938 -1.0308  1.7050
 2383TIP3   OH228563   4.281   6.341  15.570  0.0723  0.4490 -0.2322
 2383TIP3    H128564   4.309   6.416  15.517  1.2156  1.6549  1.9641
 2383TIP3    H228565   4.350   6.331  15.636  0.8652 -3.6446 -1.4078
 2384TIP3   OH228566   2.106   6.526   2.457  0.0335  0.2508  0.5884
 2384TIP3    H128567   2.132   6.597   2.398  0.7967  0.1308  0.7691
 2384TIP3    H228568   2.159   6.451   2.430 -0.4833 -0.1439  0.6531
 2385TIP3   OH228569   0.875   2.193   3.330  0.3732  0.3359 -0.2444
 2385TIP3    H128570   0.788   2.179   3.366  0.3544  1.7820  0.3357
 2385TIP3    H228571   0.860   2.234   3.244  0.4437  2.3346  0.6320
 2386TIP3   OH228572   1.112   2.200  16.187  0.2282 -0.3717  0.1585
 2386TIP3    H128573   1.026   2.163  16.170 -0.6354  1.4471  0.3454
 2386TIP3    H228574   1.161   2.129  16.229 -1.8080 -0.8799  1.8439
 2387TIP3   OH228575   4.232   0.001  17.218  0.1370 -0.2549  0.1676
 2387TIP3    H128576   4.195   0.067  17.160 -1.1303 -2.0309 -1.1635
 2387TIP3    H228577   4.257   0.049  17.297 -0.9586  1.7454 -0.6495
 2388TIP3   OH228578   2.592   3.979   0.652 -0.5680 -0.0037 -0.6073
 2388TIP3    H128579   2.618   3.924   0.726 -0.7742 -1.8719 -1.8547
 2388TIP3    H228580   2.586   4.067   0.689  1.5515 -0.4694  1.0848
 2389TIP3   OH228581   6.506   5.258  15.270 -0.1295  0.0757 -0.2843
 2389TIP3    H128582   6.543   5.171  15.283  0.1151  0.2312  0.0916
 2389TIP3    H228583   6.466   5.280  15.354 -0.6355  0.1193 -0.5335
 2390TIP3   OH228584   0.725   4.505   4.597  0.2246 -0.4512  0.4576
 2390TIP3    H128585   0.780   4.512   4.674 -0.1470 -1.5171  0.8439
 2390TIP3    H228586   0.702   4.412   4.592 -2.5590  0.0962  1.0535
 2391TIP3   OH228587   3.849   1.626  16.670 -0.2470  0.5613 -0.0971
 2391TIP3    H128588   3.902   1.551  16.642  0.7841  0.2493  2.4635
 2391TIP3    H228589   3.838   1.678  16.590  0.0216 -1.6798 -1.6717
 2392TIP3   OH228590   6.442   4.034  13.027 -0.0389  0.1307  0.5734
 2392TIP3    H128591   6.389   4.105  12.991 -0.3510 -0.2584  0.2634
 2392TIP3    H228592   6.419   3.958  12.975  0.8700 -0.0365  0.3941
 2393TIP3   OH228593   0.147   1.316   3.394 -0.2338 -0.2760 -0.2143
 2393TIP3    H128594   0.055   1.293   3.399 -0.6220  0.9324 -1.1884
 2393TIP3    H228595   0.147   1.411   3.381  1.2175  0.1300  2.1085
 2394TIP3   OH228596   4.840   0.737   2.300  0.1977  0.2768  0.3865
 2394TIP3    H128597   4.770   0.748   2.363  0.2548  0.8717  0.3450
 2394TIP3    H228598   4.914   0.703   2.352  0.0789  0.2531  0.5392
 2395TIP3   OH228599   3.125   1.590   1.040  0.1268 -0.1070 -0.1646
 2395TIP3    H128600   3.181   1.644   0.984 -0.5480  0.4196 -0.3449
 2395TIP3    H228601   3.092   1.521   0.982  0.0472 -0.0205 -0.2213
 2396TIP3   OH228602   1.993   2.788   1.232 -0.4889 -0.2869 -0.4305
 2396TIP3    H128603   1.915   2.791   1.176 -0.1412  0.6919 -0.8819
 2396TIP3    H228604   2.057   2.843   1.186  0.6887 -1.5696 -0.3991
 2397TIP3   OH228605   3.520   1.420   6.122  0.9972  0.3341  0.2221
 2397TIP3    H128606   3.465   1.499   6.124  0.6802  0.3212 -2.8585
 2397TIP3    H228607   3.458   1.348   6.113  1.3102 -0.2947  2.5985
 2398TIP3   OH228608   0.078   4.092  13.796 -0.4387  0.4125  0.3172
 2398TIP3    H128609   0.007   4.101  13.733 -0.5764  2.9195  0.7278
 2398TIP3    H228610   0.039   4.119  13.880  0.6410  0.6075  0.7768
 2399TIP3   OH228611   4.344   5.575  14.586  0.1461 -0.8652  0.2760
 2399TIP3    H128612   4.349   5.482  14.565 -1.0103 -1.0379  0.6747
 2399TIP3    H228613   4.353   5.619  14.501 -0.0847 -1.3767 -0.0185
 2400TIP3   OH228614   3.379   1.907   0.091  0.3909 -0.0695 -0.1115
 2400TIP3    H128615   3.301   1.945   0.132  1.1839  0.1340  1.2473
 2400TIP3    H228616   3.347   1.826   0.051 -0.2257 -0.8530  1.8648
 2401TIP3   OH228617   5.141   2.435   3.629  0.0969 -0.4239  0.0777
 2401TIP3    H128618   5.213   2.432   3.693 -0.6742  0.1093  0.9963
 2401TIP3    H228619   5.136   2.346   3.595  1.3408 -0.4209 -0.1729
 2402TIP3   OH228620   0.090   6.141   1.118 -0.0433  0.4459 -0.0032
 2402TIP3    H128621   0.141   6.219   1.141 -0.1888 -0.3250  3.6088
 2402TIP3    H228622  -0.001   6.172   1.117 -0.2714  0.2399  2.9719
 2403TIP3   OH228623   6.135   1.292  17.116  0.1745 -0.1056 -0.6277
 2403TIP3    H128624   6.101   1.263  17.031  0.5224 -1.1175 -0.4364
 2403TIP3    H228625   6.202   1.227  17.138  0.8934  0.7853 -0.1081
 2404TIP3   OH228626   0.824   2.048  13.066 -0.3360  0.2758  0.0645
 2404TIP3    H128627   0.807   2.043  13.160 -0.2393  1.2016  0.1424
 2404TIP3    H228628   0.740   2.075  13.028 -1.7374 -4.2344 -0.6830
 2405TIP3   OH228629   6.031   2.670  16.749  0.3637  0.1407  0.0528
 2405TIP3    H128630   5.979   2.693  16.826 -0.7749 -1.3712 -0.2050
 2405TIP3    H228631   6.041   2.575  16.754  1.0092  0.1154 -1.2125
 2406TIP3   OH228632   0.910   5.239  16.410 -0.3569 -0.3720 -0.4540
 2406TIP3    H128633   0.850   5.224  16.337 -1.2868 -2.2448  0.6111
 2406TIP3    H228634   0.904   5.333  16.427 -0.0695  0.1113 -2.7798
 2407TIP3   OH228635   6.175   5.195  14.821 -0.0077  0.0112 -0.3594
 2407TIP3    H128636   6.221   5.203  14.905  2.3371  0.1547 -1.5568
 2407TIP3    H228637   6.209   5.267  14.768 -1.0006 -0.4082 -1.6348
 2408TIP3   OH228638   4.203   0.723  14.681  0.1059  0.5442  0.5581
 2408TIP3    H128639   4.217   0.636  14.719  0.8166  0.6112  0.4732
 2408TIP3    H228640   4.110   0.739  14.690 -0.0453 -0.2656  0.4979
 2409TIP3   OH228641   4.920   0.588   3.152  0.0923  0.2712  0.1646
 2409TIP3    H128642   4.983   0.651   3.116 -0.4266 -0.0189 -1.3289
 2409TIP3    H228643   4.966   0.547   3.225  1.2848  0.7633 -0.2880
 2410TIP3   OH228644   6.129   3.090  16.804 -0.1024 -0.4379 -0.1266
 2410TIP3    H128645   6.057   3.082  16.743  0.3391 -2.1173 -0.4616
 2410TIP3    H228646   6.193   3.024  16.776  1.2888  0.5576  0.5401
 2411TIP3   OH228647   4.407   6.078   3.865  0.4258  0.0000  0.4518
 2411TIP3    H128648   4.383   6.147   3.927  3.3472  2.1540 -0.5999
 2411TIP3    H228649   4.425   6.002   3.920  1.5226  1.4246  2.1741
 2412TIP3   OH228650   6.257   4.174   5.993 -0.1923  0.8610  0.1963
 2412TIP3    H128651   6.169   4.163   5.957 -0.3720  0.2726  0.8043
 2412TIP3    H228652   6.293   4.249   5.944 -0.6679  0.5034 -0.7321
 2413TIP3   OH228653   2.423   5.829   2.625  0.6416 -0.2236 -0.0568
 2413TIP3    H128654   2.449   5.743   2.656 -2.2830 -1.1544  0.0111
 2413TIP3    H228655   2.387   5.814   2.538 -1.7307  0.5387  0.7094
 2414TIP3   OH228656   3.225   3.380  13.865  0.7237  0.0066  0.4435
 2414TIP3    H128657   3.152   3.335  13.907  0.3173  1.3154  1.1999
 2414TIP3    H228658   3.297   3.318  13.867 -0.3455 -1.3027 -0.2850
 2415TIP3   OH228659   2.549   4.172  11.167 -0.2218  1.0417  0.4368
 2415TIP3    H128660   2.464   4.210  11.146 -0.2177  1.3484  0.9382
 2415TIP3    H228661   2.608   4.202  11.098 -0.7822 -0.1932 -0.6080
 2416TIP3   OH228662   1.125   1.144  11.807  0.1225 -0.2011  0.4341
 2416TIP3    H128663   1.215   1.166  11.783  0.6058 -1.2072  1.2319
 2416TIP3    H228664   1.072   1.177  11.735  1.1202  0.4985  0.0032
 2417TIP3   OH228665   2.772   5.923  15.873  0.1505  0.0163 -0.1363
 2417TIP3    H128666   2.815   5.838  15.879  0.4430  0.2308  1.1765
 2417TIP3    H228667   2.775   5.958  15.963 -2.9610 -0.0282  0.0982
 2418TIP3   OH228668   1.392   3.996  16.701 -0.7201  0.1367  0.3430
 2418TIP3    H128669   1.393   3.916  16.649 -0.4259  2.0189 -2.8135
 2418TIP3    H228670   1.312   3.990  16.753 -0.5241 -2.2994  0.4730
 2419TIP3   OH228671   4.507   3.761  12.643 -0.3286  0.0678  0.5449
 2419TIP3    H128672   4.438   3.696  12.633 -1.7203  1.5526  0.1060
 2419TIP3    H228673   4.551   3.763  12.558 -0.6333  0.0835  0.3873
 2420TIP3   OH228674   3.983   2.935   0.020 -0.1337 -0.0442  0.7117
 2420TIP3    H128675   3.933   2.856   0.041  0.8373 -0.6344  0.8530
 2420TIP3    H228676   4.074   2.907   0.023  0.2499  1.1871  1.1860
 2421TIP3   OH228677   5.456   6.181   5.231  0.2836 -0.0467 -0.8058
 2421TIP3    H128678   5.476   6.111   5.169  0.3589 -0.1930 -0.6194
 2421TIP3    H228679   5.360   6.179   5.239  0.2047  0.5083 -1.5310
 2422TIP3   OH228680   2.510   6.067  15.972 -0.0179 -0.5452 -0.5137
 2422TIP3    H128681   2.515   6.154  16.011 -2.2892  0.0057 -1.2940
 2422TIP3    H228682   2.556   6.075  15.888 -0.2838 -0.0368 -0.6162
 2423TIP3   OH228683   1.061   4.851  12.381 -0.2775 -0.6305  0.1504
 2423TIP3    H128684   1.072   4.884  12.292 -0.5417 -0.3548  0.2190
 2423TIP3    H228685   1.148   4.858  12.420  0.3335 -2.6901 -0.7211
 2424TIP3   OH228686   3.749   0.097   0.320  0.2227 -0.1935 -0.2512
 2424TIP3    H128687   3.840   0.109   0.344  0.2800  0.0687 -0.5944
 2424TIP3    H228688   3.703   0.089   0.404  0.5964 -0.6525 -0.0813
 2425TIP3   OH228689   1.155   0.442   2.560  0.6114  0.1029 -0.3581
 2425TIP3    H128690   1.227   0.429   2.498 -0.1862 -0.7895 -1.1152
 2425TIP3    H228691   1.087   0.485   2.509 -0.2983 -1.2186 -0.3080
 2426TIP3   OH228692   3.046   4.296  14.497 -0.0780  0.9017 -0.3959
 2426TIP3    H128693   2.985   4.248  14.440  1.5580 -0.2340 -1.2587
 2426TIP3    H228694   3.060   4.379  14.450  0.7724  0.2295 -1.3814
 2427TIP3   OH228695   3.311   6.492  16.925 -0.2709 -0.0806 -0.1233
 2427TIP3    H128696   3.265   6.561  16.973 -0.0891  0.8672 -1.2792
 2427TIP3    H228697   3.342   6.432  16.993 -1.1100  0.5483  0.8430
 2428TIP3   OH228698   1.856   2.872  11.753 -0.2036  0.0139 -0.4442
 2428TIP3    H128699   1.852   2.832  11.666  0.6715 -0.7369 -0.1490
 2428TIP3    H228700   1.930   2.932  11.749  1.6049 -2.0421  0.5803
 2429TIP3   OH228701   5.311   6.320  15.125 -0.0457  0.5143 -0.1663
 2429TIP3    H128702   5.290   6.235  15.086 -2.7113  0.0074  2.1234
 2429TIP3    H228703   5.275   6.384  15.063 -2.0813 -0.2082  0.2003
 2430TIP3   OH228704   0.824   4.918   3.957 -0.1930  0.1039  0.5474
 2430TIP3    H128705   0.912   4.947   3.934  0.5989  0.0997  3.2510
 2430TIP3    H228706   0.831   4.823   3.967 -0.5641  0.0693  0.5033
 2431TIP3   OH228707   3.808   1.925   2.945 -0.3039  0.0131 -0.1536
 2431TIP3    H128708   3.798   1.887   2.858  1.2081 -0.0486 -0.3231
 2431TIP3    H228709   3.813   2.019   2.930  0.4103 -0.0254 -0.1919
 2432TIP3   OH228710   6.312   2.566  14.229 -1.0042  0.4844 -0.0582
 2432TIP3    H128711   6.312   2.520  14.313 -1.0177 -0.2823 -0.4725
 2432TIP3    H228712   6.354   2.650  14.248 -0.6480  0.1572  0.6277
 2433TIP3   OH228713   6.595   1.048  14.463  0.5099  0.1392 -0.3680
 2433TIP3    H128714   6.513   0.999  14.460  0.1253  0.6991  0.6410
 2433TIP3    H228715   6.568   1.140  14.470  1.2169  0.4940 -1.8778
 2434TIP3   OH228716   3.460   2.945  15.812 -0.2568  0.0347  0.9867
 2434TIP3    H128717   3.458   3.013  15.879 -0.5035 -0.5724  1.6053
 2434TIP3    H228718   3.539   2.895  15.830 -1.2490 -1.2275  1.9455
 2435TIP3   OH228719   1.563   3.481  15.689 -0.0547  0.4782  0.2381
 2435TIP3    H128720   1.643   3.518  15.653  0.3611 -0.9323 -0.3751
 2435TIP3    H228721   1.587   3.391  15.713 -1.2803  0.2378  0.6533
 2436TIP3   OH228722   6.219   6.452  11.905  0.2570  0.6002 -0.0738
 2436TIP3    H128723   6.218   6.494  11.819 -1.5762 -0.3343 -0.5624
 2436TIP3    H228724   6.174   6.369  11.891 -1.1341  0.9254  2.0102
 2437TIP3   OH228725   2.202   2.770  11.999 -0.0915  0.0432  0.1168
 2437TIP3    H128726   2.239   2.846  11.954 -0.0482 -0.7593 -1.2479
 2437TIP3    H228727   2.130   2.741  11.942 -0.4546 -0.6237  0.8887
 2438TIP3   OH228728   5.643   0.097  14.524  0.1058 -0.3446 -0.2371
 2438TIP3    H128729   5.665   0.010  14.558 -0.6929 -1.1371 -1.6333
 2438TIP3    H228730   5.692   0.103  14.441  2.2976  1.6749  1.0776
 2439TIP3   OH228731   1.557   2.420   1.139 -0.3376 -0.2852 -0.0377
 2439TIP3    H128732   1.641   2.440   1.097 -0.8747  0.2227 -0.9067
 2439TIP3    H228733   1.502   2.386   1.068 -1.3874  0.9253  0.1559
 2440TIP3   OH228734   3.065   3.110   0.562  0.0982 -0.0294 -0.0036
 2440TIP3    H128735   3.040   3.042   0.499  0.2340  0.6758 -0.8289
 2440TIP3    H228736   3.123   3.168   0.513  1.9981 -0.6694  1.3929
 2441TIP3   OH228737   5.578   3.113  16.515 -0.2363 -0.2611  0.2650
 2441TIP3    H128738   5.649   3.177  16.508 -0.1855 -0.2528  0.8252
 2441TIP3    H228739   5.591   3.054  16.441  0.5616 -0.4603  0.5569
 2442TIP3   OH228740   5.400   3.812   2.087 -0.1732 -0.1479 -0.2964
 2442TIP3    H128741   5.477   3.858   2.121 -0.3595 -0.2191  0.2377
 2442TIP3    H228742   5.395   3.733   2.141  0.0825 -0.7459 -1.1370
 2443TIP3   OH228743   2.930   2.135   5.386  0.3299 -1.2186 -0.0834
 2443TIP3    H128744   3.010   2.097   5.423  2.1532  3.2939  1.2941
 2443TIP3    H228745   2.958   2.176   5.304 -0.2666  0.9665  0.7164
 2444TIP3   OH228746   2.127   1.254  16.131 -0.3457 -0.5139 -0.2964
 2444TIP3    H128747   2.058   1.230  16.069  0.1216 -2.5492 -0.1128
 2444TIP3    H228748   2.192   1.300  16.079 -0.7165 -0.7471 -0.9728
 2445TIP3   OH228749   3.105   3.426   2.619 -0.0145  0.6669  0.3663
 2445TIP3    H128750   3.104   3.330   2.626  0.7347  0.6689  0.4787
 2445TIP3    H228751   3.084   3.443   2.527 -0.9378  0.4265  0.5125
 2446TIP3   OH228752   4.236   6.262  12.386  0.5835  0.2228 -0.2645
 2446TIP3    H128753   4.241   6.330  12.318  3.8939  1.5899  1.1304
 2446TIP3    H228754   4.288   6.190  12.351  0.3772 -0.0024 -0.1050
 2447TIP3   OH228755   4.421   2.248  15.955 -0.8783  0.6606  0.1271
 2447TIP3    H128756   4.408   2.153  15.965 -2.1981  0.8579  0.4372
 2447TIP3    H228757   4.512   2.262  15.979 -0.6558 -0.5390  0.0497
 2448TIP3   OH228758   2.650   4.482   0.047  0.4976 -0.1216  0.1758
 2448TIP3    H128759   2.596   4.534   0.106  0.8130 -0.7517  1.0398
 2448TIP3    H228760   2.590   4.455  -0.023  0.1919  0.8842  0.0368
 2449TIP3   OH228761   3.427   2.310   2.668  0.4635  0.6375  0.0923
 2449TIP3    H128762   3.497   2.362   2.628  0.9209  1.2980  1.6784
 2449TIP3    H228763   3.467   2.269   2.744 -0.6585  0.3571  0.5598
 2450TIP3   OH228764   0.377   2.624   1.741 -0.1995 -0.3325 -0.4546
 2450TIP3    H128765   0.405   2.642   1.831  0.3399 -1.4609 -0.3842
 2450TIP3    H228766   0.457   2.598   1.695 -0.7334 -1.4182 -0.8162
 2451TIP3   OH228767   4.462   0.932  12.555 -0.2457  0.4132 -0.2218
 2451TIP3    H128768   4.499   0.968  12.475  2.0080 -0.1052  0.5150
 2451TIP3    H228769   4.480   0.997  12.622  2.2401 -1.1288  0.7546
 2452TIP3   OH228770   0.651   0.068  16.209 -0.1020 -0.0408 -0.1131
 2452TIP3    H128771   0.630  -0.013  16.255  0.3281  0.0584  0.2591
 2452TIP3    H228772   0.714   0.113  16.266  0.1035  0.2831 -0.5892
 2453TIP3   OH228773   6.265   1.275   0.884 -0.1543  0.1693  0.5233
 2453TIP3    H128774   6.175   1.246   0.898  0.3987 -1.9000  0.1317
 2453TIP3    H228775   6.297   1.221   0.812  2.2036 -1.0873  2.3353
 2454TIP3   OH228776   3.803   2.276  11.656 -0.3696  0.6671  0.2279
 2454TIP3    H128777   3.783   2.253  11.565  0.3461 -1.3311  0.5165
 2454TIP3    H228778   3.899   2.268  11.662 -0.3085  1.7809  0.9200
 2455TIP3   OH228779   4.871   6.322   1.280 -0.1351 -0.6649 -0.6731
 2455TIP3    H128780   4.954   6.276   1.294 -0.3855 -1.2791 -1.1534
 2455TIP3    H228781   4.896   6.414   1.273  0.6434 -0.9425 -1.8869
 2456TIP3   OH228782   3.761   5.359  15.830  0.3602  0.0430  0.0208
 2456TIP3    H128783   3.753   5.363  15.735 -0.5634 -2.1511 -0.0475
 2456TIP3    H228784   3.674   5.382  15.862 -0.7773 -3.6630  0.0686
 2457TIP3   OH228785   0.413   3.276   2.335 -0.4219  0.3545  0.8418
 2457TIP3    H128786   0.333   3.222   2.336 -0.3546 -0.0398 -2.3481
 2457TIP3    H228787   0.385   3.358   2.293  1.2208 -0.8994 -3.2430
 2458TIP3   OH228788   3.391   5.124   2.923  0.5185  0.0354  0.1074
 2458TIP3    H128789   3.371   5.147   2.833  0.9639  2.4309  0.5427
 2458TIP3    H228790   3.486   5.114   2.925  0.6375  1.1241  0.5106
 2459TIP3   OH228791   2.223   0.640   6.271 -0.0186  0.1369 -0.1353
 2459TIP3    H128792   2.277   0.657   6.194 -1.6624  0.8658 -1.1947
 2459TIP3    H228793   2.216   0.544   6.275  0.2969  0.0858 -0.7549
 2460TIP3   OH228794   6.507   5.539   2.611  0.5447  0.4416  0.0780
 2460TIP3    H128795   6.483   5.623   2.651 -1.7353 -0.5069  0.8773
 2460TIP3    H228796   6.424   5.501   2.582  1.1865 -2.4644  1.6254
 2461TIP3   OH228797   5.881   0.267   4.269 -0.2061 -0.1535 -0.4923
 2461TIP3    H128798   5.935   0.257   4.347 -0.6436 -1.3601 -0.3218
 2461TIP3    H228799   5.912   0.198   4.210 -1.1711 -0.4962 -0.6115
 2462TIP3   OH228800   5.939   1.774  13.248  0.3503 -0.0698  0.4162
 2462TIP3    H128801   5.913   1.741  13.162  1.8039 -0.7392  0.2089
 2462TIP3    H228802   6.017   1.724  13.271  1.2505  1.5874  1.1697
 2463TIP3   OH228803   4.751   2.435  14.266  0.3920 -0.0316 -0.4867
 2463TIP3    H128804   4.796   2.519  14.269 -1.4482  0.9821  0.5179
 2463TIP3    H228805   4.663   2.457  14.236 -0.4455 -1.4378  0.8080
 2464TIP3   OH228806   6.029   2.567  12.012 -0.4456  0.2275 -0.2365
 2464TIP3    H128807   5.978   2.514  11.950  0.7303  1.3372 -2.2425
 2464TIP3    H228808   5.962   2.617  12.060 -1.3541  1.5276 -2.6827
 2465TIP3   OH228809   2.751   3.345   2.271  0.4065  0.5615  0.1070
 2465TIP3    H128810   2.755   3.336   2.367  1.5321  0.5138  0.0785
 2465TIP3    H228811   2.817   3.412   2.251  0.0758  0.6783 -0.6290
 2466TIP3   OH228812   6.264   4.377   1.655 -0.7193 -0.3787 -0.0356
 2466TIP3    H128813   6.249   4.305   1.715 -0.9182 -1.0775 -0.8980
 2466TIP3    H228814   6.285   4.335   1.571  0.0314  0.5656 -0.3450
 2467TIP3   OH228815   1.562   6.433   4.813 -0.1533  0.3411 -0.4125
 2467TIP3    H128816   1.645   6.447   4.767  1.5156 -1.5971  1.7453
 2467TIP3    H228817   1.501   6.493   4.771  2.5081  2.4386 -1.6168
 2468TIP3   OH228818   3.762   0.976  12.986  0.2608  0.6720 -0.1992
 2468TIP3    H128819   3.688   1.014  12.939 -0.0444 -1.7934 -1.9144
 2468TIP3    H228820   3.814   1.052  13.014 -1.3465  2.3692 -1.5437
 2469TIP3   OH228821   6.710   3.263   3.746  0.0665  0.3319  0.4464
 2469TIP3    H128822   6.627   3.310   3.751 -0.9262 -1.3915  1.3628
 2469TIP3    H228823   6.752   3.295   3.666 -1.9910  0.4377 -0.6437
 2470TIP3   OH228824   5.528   2.535  12.867  0.0544 -0.0274  0.5458
 2470TIP3    H128825   5.528   2.561  12.960 -1.2034  1.5607  0.1557
 2470TIP3    H228826   5.435   2.526  12.846  0.2921  0.5363 -0.7963
 2471TIP3   OH228827   5.070   3.926  12.634  0.4852 -0.3075  0.4208
 2471TIP3    H128828   5.091   3.942  12.726  1.2527 -0.2085  0.2349
 2471TIP3    H228829   5.098   4.006  12.589  0.6251 -0.5775  0.0258
 2472TIP3   OH228830   0.197   5.874   2.741 -0.5729 -0.5464  0.3626
 2472TIP3    H128831   0.178   5.960   2.704 -1.4360 -1.1051 -0.5641
 2472TIP3    H228832   0.264   5.838   2.684  0.3386 -0.2116  1.1953
 2473TIP3   OH228833   3.548   3.425  17.044  0.2464  0.2131  0.2465
 2473TIP3    H128834   3.590   3.387  17.122 -1.0070 -0.6781  0.5177
 2473TIP3    H228835   3.488   3.492  17.079  0.9885  1.0802 -0.0960
 2474TIP3   OH228836   2.869   1.168  13.994  0.3012 -0.3148 -0.3461
 2474TIP3    H128837   2.803   1.103  14.018  0.9427 -0.4500  1.2030
 2474TIP3    H228838   2.940   1.117  13.956  0.6737 -0.5049  0.5827
 2475TIP3   OH228839   2.035   0.562  15.286 -0.1864 -0.9635  0.1879
 2475TIP3    H128840   1.944   0.565  15.257  0.0864 -1.3498 -0.7335
 2475TIP3    H228841   2.040   0.484  15.341 -0.8815  0.1748  1.9502
 2476TIP3   OH228842   6.517   5.650  13.321 -0.3323 -0.5749  0.3999
 2476TIP3    H128843   6.422   5.641  13.324 -0.5225  0.6162 -1.0814
 2476TIP3    H228844   6.540   5.686  13.407 -0.9105 -2.8878  1.6327
 2477TIP3   OH228845   3.251   1.277   4.887  0.1025 -0.0209 -1.2576
 2477TIP3    H128846   3.182   1.339   4.912 -0.7387 -0.4759 -2.3270
 2477TIP3    H228847   3.283   1.311   4.803  0.6533 -0.2309 -1.1316
 2478TIP3   OH228848   1.885   6.177   0.019 -0.2572  0.0664  0.1017
 2478TIP3    H128849   1.837   6.219  -0.052  2.1773  1.6770 -0.6801
 2478TIP3    H228850   1.855   6.086   0.017 -3.7398  1.0395  0.1487
 2479TIP3   OH228851   0.641   4.662   1.451 -0.3825 -0.0727 -0.3106
 2479TIP3    H128852   0.598   4.646   1.535 -0.0326 -4.2746 -0.7374
 2479TIP3    H228853   0.734   4.649   1.468  0.5866  4.7496 -0.3331
 2480TIP3   OH228854   3.935   2.160  13.344  0.2619 -0.1816  0.0517
 2480TIP3    H128855   3.849   2.178  13.305  0.0434  0.8773  0.9635
 2480TIP3    H228856   3.969   2.087  13.294 -1.3853 -0.9469 -0.0164
 2481TIP3   OH228857   3.304   4.359  12.610 -0.1800  0.0350  0.0457
 2481TIP3    H128858   3.309   4.277  12.562 -1.6848  1.0241 -1.9341
 2481TIP3    H228859   3.217   4.359  12.650  0.4976 -0.1008  1.6233
 2482TIP3   OH228860   0.677   0.324  17.434  0.4197  0.2656  0.0317
 2482TIP3    H128861   0.605   0.366  17.387  0.4828  2.1508  1.5279
 2482TIP3    H228862   0.634   0.282  17.509  0.7234  0.2729  0.2097
 2483TIP3   OH228863   6.290   5.558   3.065  0.1858 -0.0098 -0.5465
 2483TIP3    H128864   6.245   5.564   2.981 -0.2648 -0.4650 -0.3413
 2483TIP3    H228865   6.375   5.599   3.049 -0.0401  0.2465 -1.1208
 2484TIP3   OH228866   0.579   1.607  17.058  0.2120 -0.5007  0.1064
 2484TIP3    H128867   0.617   1.653  16.984 -0.0603 -0.1757  0.1674
 2484TIP3    H228868   0.558   1.520  17.025 -1.0157  0.0250 -0.5265
 2485TIP3   OH228869   2.220   4.746   4.040 -0.1374  0.6199  0.1038
 2485TIP3    H128870   2.193   4.836   4.018 -2.4479  0.1836  0.8325
 2485TIP3    H228871   2.259   4.754   4.127 -2.5085  0.6966  1.2598
 2486TIP3   OH228872   0.998   4.371   4.398 -0.6431  0.4263  0.6963
 2486TIP3    H128873   1.012   4.282   4.429  0.5380  0.2980 -0.1652
 2486TIP3    H228874   1.062   4.383   4.328 -1.2770  1.7051  0.3041
 2487TIP3   OH228875   6.478   3.506  13.153 -0.0108  0.4920  0.4516
 2487TIP3    H128876   6.551   3.473  13.101  0.4171  0.0538  1.3169
 2487TIP3    H228877   6.443   3.578  13.101 -0.6981 -1.0131 -1.2785
 2488TIP3   OH228878   5.857   0.019  13.457  0.1481 -0.7136  0.1749
 2488TIP3    H128879   5.852  -0.039  13.533 -0.3091 -0.6935  0.1595
 2488TIP3    H228880   5.787   0.083  13.470  2.2263  1.4560  1.4872
 2489TIP3   OH228881   1.832   0.104  13.261 -0.6979 -0.0934 -0.2471
 2489TIP3    H128882   1.791   0.061  13.186  0.9199 -0.7310 -0.8276
 2489TIP3    H228883   1.916   0.058  13.271 -0.8721 -0.0130  1.9582
 2490TIP3   OH228884   0.575   5.195   2.009 -0.2985 -0.3695  0.3036
 2490TIP3    H128885   0.491   5.150   2.018 -1.4011  1.6308  0.5422
 2490TIP3    H228886   0.552   5.288   2.002  1.9645  0.5744  3.1741
 2491TIP3   OH228887   0.289   0.882  15.325 -0.4041  0.5479 -0.6305
 2491TIP3    H128888   0.204   0.922  15.308 -1.9497 -1.7019  1.0575
 2491TIP3    H228889   0.294   0.809  15.263 -0.6158 -0.4505  0.4828
 2492TIP3   OH228890   4.697   6.470   3.251 -0.2715  0.0104 -0.3006
 2492TIP3    H128891   4.749   6.514   3.319 -0.2747  1.8219 -1.4123
 2492TIP3    H228892   4.759   6.454   3.180 -1.0253  1.5888 -1.3690
 2493TIP3   OH228893   3.339   6.359   4.020  0.3006 -0.4486 -0.3397
 2493TIP3    H128894   3.391   6.332   3.944  0.3301  0.6991 -0.7369
 2493TIP3    H228895   3.250   6.370   3.986  0.3677  0.3401 -0.2855
 2494TIP3   OH228896   0.846   6.726  13.853  0.0708 -0.3769  0.7909
 2494TIP3    H128897   0.915   6.667  13.883  1.1558  1.0512  1.2049
 2494TIP3    H228898   0.867   6.810  13.894 -0.3421  0.7897 -1.2624
 2495TIP3   OH228899   6.077   6.664   5.023  0.0990  0.2235  0.2586
 2495TIP3    H128900   6.004   6.606   5.000 -0.4629  0.0830  2.2178
 2495TIP3    H228901   6.151   6.630   4.973 -1.2053  0.5686 -2.0505
 2496TIP3   OH228902   5.175   2.556   5.365  0.1321 -0.0428 -0.2356
 2496TIP3    H128903   5.101   2.512   5.405 -0.8670  1.5197 -0.2626
 2496TIP3    H228904   5.241   2.561   5.435 -0.6988  0.6008  0.5204
 2497TIP3   OH228905   2.123   2.545   4.439 -0.2981  0.2758 -0.0778
 2497TIP3    H128906   2.139   2.529   4.532 -2.4358 -1.6724  0.0509
 2497TIP3    H228907   2.172   2.475   4.394  1.9375  2.0664 -0.6136
 2498TIP3   OH228908   5.991   2.354   2.411  0.3274  0.6478 -0.0864
 2498TIP3    H128909   6.050   2.297   2.363 -0.2908  1.3464 -1.7549
 2498TIP3    H228910   5.922   2.295   2.442  0.8059  0.1634  0.0853
 2499TIP3   OH228911   5.615   1.368  12.698  0.3573  0.2112  0.0082
 2499TIP3    H128912   5.612   1.460  12.673  0.0677  0.2760  0.2764
 2499TIP3    H228913   5.526   1.348  12.727  0.2130 -0.3647 -0.7860
 2500TIP3   OH228914   0.480   2.022  16.388 -0.6120 -0.1474 -0.4007
 2500TIP3    H128915   0.563   2.035  16.434 -0.9316 -0.0187  0.1508
 2500TIP3    H228916   0.503   1.970  16.311 -0.3547 -2.2056  0.9677
 2501TIP3   OH228917   4.931   1.496   3.120 -0.1668 -0.3525  0.6198
 2501TIP3    H128918   5.005   1.554   3.138 -0.5491  0.3092  0.1174
 2501TIP3    H228919   4.857   1.538   3.163 -0.3471 -0.7572  0.7080
 2502TIP3   OH228920   4.734   0.130   4.288 -0.4184 -0.2462 -0.5206
 2502TIP3    H128921   4.743   0.050   4.237 -1.2869 -2.5027  2.5531
 2502TIP3    H228922   4.641   0.135   4.310  0.0123  0.1105  1.4705
 2503TIP3   OH228923   4.180   3.764  14.473  0.4002  0.0157 -0.1919
 2503TIP3    H128924   4.174   3.735  14.564  2.8178  2.1071  0.7694
 2503TIP3    H228925   4.266   3.808  14.468  0.3369  0.0002 -3.4810
 2504TIP3   OH228926   3.330   6.082  13.665  0.3387  0.1070  0.2779
 2504TIP3    H128927   3.370   6.037  13.740  0.2444 -1.6726 -0.6874
 2504TIP3    H228928   3.367   6.039  13.588 -0.6814  0.8938 -0.6870
 2505TIP3   OH228929   5.841   4.581  10.693  0.6945  0.2329 -0.5041
 2505TIP3    H128930   5.753   4.575  10.730  0.7535 -0.3222 -0.4508
 2505TIP3    H228931   5.839   4.524  10.616  0.5695  1.3787 -1.3897
 2506TIP3   OH228932   4.912   1.910   2.745 -0.1520 -0.7932 -0.2425
 2506TIP3    H128933   4.921   1.849   2.672 -1.0738 -0.2584 -0.8290
 2506TIP3    H228934   4.843   1.971   2.717 -2.0599 -1.8152  1.9321
 2507TIP3   OH228935   3.293   2.575   5.556  0.3080 -0.6944  0.3796
 2507TIP3    H128936   3.314   2.496   5.506  0.4031  0.4924 -1.5272
 2507TIP3    H228937   3.261   2.637   5.491  1.1844  1.1930  1.6789
 2508TIP3   OH228938   3.091   3.470  12.201 -0.3653  0.0092 -0.1602
 2508TIP3    H128939   3.006   3.512  12.215 -0.9056 -0.7692 -1.0311
 2508TIP3    H228940   3.070   3.379  12.180  0.7285 -0.4108  0.4759
 2509TIP3   OH228941   0.492   0.865  14.716 -0.9993 -0.4013 -0.4414
 2509TIP3    H128942   0.447   0.884  14.634  2.6085  2.0213 -2.0892
 2509TIP3    H228943   0.495   0.769  14.720 -1.4651 -0.6047 -3.0509
 2510TIP3   OH228944   3.688   6.320   5.483 -0.1606  0.1937  0.3276
 2510TIP3    H128945   3.741   6.380   5.535  1.1965 -1.4141  0.8777
 2510TIP3    H228946   3.745   6.292   5.412 -0.6708 -0.6570  0.2367
 2511TIP3   OH228947   6.423   2.957  16.907 -0.6582 -0.2218 -0.0483
 2511TIP3    H128948   6.518   2.960  16.895 -0.6635 -1.1209 -0.4059
 2511TIP3    H228949   6.411   2.968  17.002 -0.1498 -0.6910  0.0791
 2512TIP3   OH228950   2.970   6.698  11.790  0.0779 -0.0714  0.6593
 2512TIP3    H128951   2.908   6.771  11.781  0.9185  0.5457 -0.3645
 2512TIP3    H228952   3.049   6.738  11.827  0.6035 -0.4012 -0.0708
 2513TIP3   OH228953   6.584   0.488   2.142  0.1625  0.1556  1.0570
 2513TIP3    H128954   6.677   0.472   2.158  0.3703  0.5744  0.3188
 2513TIP3    H228955   6.574   0.583   2.151  0.3305  0.4510 -1.3074
 2514TIP3   OH228956   4.844   3.772  16.363  0.5086  0.4450  0.2065
 2514TIP3    H128957   4.826   3.841  16.426  0.2344 -0.1053  0.7394
 2514TIP3    H228958   4.856   3.818  16.280 -0.2871  1.0780  0.4305
 2515TIP3   OH228959   0.188   2.943   3.856  0.6202  0.7248 -0.0967
 2515TIP3    H128960   0.210   2.968   3.766 -3.0168 -0.6151 -1.5479
 2515TIP3    H228961   0.118   3.004   3.881  0.0342 -0.3404  0.9410
 2516TIP3   OH228962   4.266   2.142   2.367  0.0127  0.5673  0.6826
 2516TIP3    H128963   4.173   2.160   2.384 -0.4792 -1.7974  0.7693
 2516TIP3    H228964   4.269   2.123   2.273 -0.0531 -1.6479  1.0865
 2517TIP3   OH228965   2.941   3.052   0.212 -0.3674 -0.6158  0.0001
 2517TIP3    H128966   3.000   3.109   0.262 -0.9056 -0.5549  0.5687
 2517TIP3    H228967   2.981   3.048   0.125  1.0636 -1.4192  0.6531
 2518TIP3   OH228968   5.787   4.871  12.289 -0.2460  0.1314  0.5143
 2518TIP3    H128969   5.699   4.887  12.322  0.2587  0.9387  1.5356
 2518TIP3    H228970   5.836   4.841  12.365 -0.1360 -2.5079 -0.5008
 2519TIP3   OH228971   1.231   3.686  12.412 -0.6920  0.0449 -0.1497
 2519TIP3    H128972   1.180   3.610  12.439  0.0845  0.9544  4.6701
 2519TIP3    H228973   1.165   3.750  12.385 -1.6699 -0.7793  0.2089
 2520TIP3   OH228974   0.399   0.694  15.110  0.0542  0.3438 -0.4309
 2520TIP3    H128975   0.489   0.698  15.077  0.1714  1.6578 -0.0029
 2520TIP3    H228976   0.349   0.657  15.037  1.2015 -2.2445 -0.0219
 2521TIP3   OH228977   4.481   6.721  16.828  0.0014  0.4230 -0.2784
 2521TIP3    H128978   4.559   6.710  16.882  0.4938 -0.8076 -1.2114
 2521TIP3    H228979   4.477   6.816  16.812  0.4661  0.6780  0.9589
 2522TIP3   OH228980   0.697   6.426  15.363 -0.4209 -0.6238  0.8052
 2522TIP3    H128981   0.669   6.516  15.381 -2.7398 -0.6292 -2.0399
 2522TIP3    H228982   0.637   6.372  15.414 -1.4735 -0.5393 -0.2938
 2523TIP3   OH228983   1.491   3.721  14.624 -0.0420  0.0798 -0.3297
 2523TIP3    H128984   1.398   3.698  14.635  0.0948 -0.8676 -0.9942
 2523TIP3    H228985   1.519   3.669  14.549  1.5092 -1.0540  0.9735
 2524TIP3   OH228986   4.984   1.681   0.634 -0.3329 -0.3557  0.2619
 2524TIP3    H128987   5.006   1.658   0.724 -0.7257 -0.0891  0.4311
 2524TIP3    H228988   4.967   1.775   0.637 -1.4527 -0.5332  0.1541
 2525TIP3   OH228989   1.605   4.406  13.243 -0.4052  0.2183  0.5123
 2525TIP3    H128990   1.657   4.429  13.166 -1.2136 -0.3984 -0.2323
 2525TIP3    H228991   1.618   4.480  13.303 -2.5570  2.4900 -1.6006
 2526TIP3   OH228992   1.930   4.604   0.320 -0.2928  0.3754 -0.3335
 2526TIP3    H128993   1.914   4.563   0.235  1.0543 -1.1464  0.0957
 2526TIP3    H228994   1.844   4.607   0.362 -0.6265 -0.8753 -0.8885
 2527TIP3   OH228995   0.272   0.454   6.688 -0.2012  0.0834  0.1542
 2527TIP3    H128996   0.318   0.512   6.748  0.9094 -0.1828 -0.4114
 2527TIP3    H228997   0.282   0.496   6.602 -0.3908 -0.3522 -0.0835
 2528TIP3   OH228998   4.682   4.950   3.488  0.1943 -0.0593 -0.0292
 2528TIP3    H128999   4.660   4.869   3.533  0.6042 -0.0967  0.1095
 2528TIP3    H229000   4.597   4.985   3.459 -0.0747 -0.0401  0.7575
 2529TIP3   OH229001   2.845   3.723   5.024  0.1937  0.7708 -0.2889
 2529TIP3    H129002   2.908   3.732   4.951  3.3119  1.0296  2.2206
 2529TIP3    H229003   2.872   3.789   5.087 -1.1342 -0.7149  1.9690
 2530TIP3   OH229004   4.463   1.389  11.726  0.3270  0.3007  0.3863
 2530TIP3    H129005   4.533   1.346  11.677 -0.7976 -0.5113 -0.5877
 2530TIP3    H229006   4.395   1.405  11.660 -1.0713 -0.4668  1.5913
 2531TIP3   OH229007   1.829   6.508  16.276 -0.5203 -0.0689  0.6747
 2531TIP3    H129008   1.748   6.469  16.311 -0.2936  0.3690  1.7211
 2531TIP3    H229009   1.888   6.433  16.265 -0.9808 -0.3600  0.1355
 2532TIP3   OH229010   0.331   5.851   1.384  0.3942  0.0621  0.0885
 2532TIP3    H129011   0.266   5.879   1.320  0.1316 -1.5022 -0.3849
 2532TIP3    H229012   0.321   5.755   1.387  2.5899 -0.2061  0.1057
 2533TIP3   OH229013   6.117   1.166   2.504 -0.5541 -0.4309  0.3042
 2533TIP3    H129014   6.124   1.090   2.447  0.3018  0.4411 -0.8018
 2533TIP3    H229015   6.033   1.155   2.549 -0.5045 -1.9384  0.0589
 2534TIP3   OH229016   2.744   1.213   1.056  0.0219 -0.0934 -0.2835
 2534TIP3    H129017   2.782   1.298   1.032 -0.4149  0.4742  0.9306
 2534TIP3    H229018   2.816   1.151   1.046  1.4220  0.9923  2.2180
 2535TIP3   OH229019   0.998   1.051   6.003  0.1649 -0.1066 -0.1213
 2535TIP3    H129020   1.044   1.046   6.087  0.5892  0.9505 -0.2717
 2535TIP3    H229021   1.052   1.110   5.950 -1.5110  1.4747 -0.1841
 2536TIP3   OH229022   0.487   2.088  17.244  0.1518 -0.3916 -0.3561
 2536TIP3    H129023   0.407   2.051  17.206 -0.3937  0.7034 -0.3200
 2536TIP3    H229024   0.457   2.167  17.290  1.2552  0.0308 -0.3391
 2537TIP3   OH229025   2.500   3.947  14.345  0.4582  0.7684 -0.6569
 2537TIP3    H129026   2.556   3.893  14.401 -0.6281 -0.8684 -1.0820
 2537TIP3    H229027   2.444   3.995  14.406 -0.1228 -0.3403 -0.2981
 2538TIP3   OH229028   2.268   0.177  12.510  0.0302 -0.7421  0.1714
 2538TIP3    H129029   2.246   0.214  12.424  1.9889 -0.3267 -0.1784
 2538TIP3    H229030   2.361   0.158  12.506  0.1771 -0.6983  2.2383
 2539TIP3   OH229031   4.918   0.614  14.500 -0.1144 -0.7273  0.2270
 2539TIP3    H129032   4.892   0.702  14.527 -0.0998 -0.5057 -0.4598
 2539TIP3    H229033   4.838   0.562  14.507 -0.3563 -0.4353 -0.2542
 2540TIP3   OH229034   0.058   6.590   4.932 -0.2415  0.2018 -0.0818
 2540TIP3    H129035   0.114   6.537   4.876 -1.7021 -0.4892 -0.9431
 2540TIP3    H229036   0.047   6.537   5.011 -1.7920 -0.9200 -0.9856
 2541TIP3   OH229037   2.763   2.968  13.612 -0.2538  0.1236  0.1270
 2541TIP3    H129038   2.712   3.049  13.622 -0.1179  0.4146 -1.2726
 2541TIP3    H229039   2.706   2.911  13.560 -0.3089 -0.6673  1.0250
 2542TIP3   OH229040   2.906   2.116  14.126  0.1306  0.0530 -0.4604
 2542TIP3    H129041   2.865   2.087  14.045 -0.3225  1.2255 -0.6666
 2542TIP3    H229042   2.832   2.138  14.184  0.4521 -0.2986  0.0922
 2543TIP3   OH229043   5.071   4.344   3.491 -0.5842  0.1861 -0.0696
 2543TIP3    H129044   5.120   4.300   3.422 -0.9187 -0.0313 -0.1698
 2543TIP3    H229045   5.132   4.346   3.565 -1.2155 -2.2875  0.6192
 2544TIP3   OH229046   6.424   0.193   3.141  0.1958 -0.2313  0.1663
 2544TIP3    H129047   6.348   0.135   3.139  0.8953 -1.1830  0.4439
 2544TIP3    H229048   6.485   0.154   3.078  1.0807 -0.3842  1.0934
 2545TIP3   OH229049   2.869   4.017   5.564 -0.2066  0.8529 -0.0025
 2545TIP3    H129050   2.881   3.922   5.561 -0.7084  0.7529  0.7489
 2545TIP3    H229051   2.831   4.033   5.650 -1.8109  1.5331 -0.7822
 2546TIP3   OH229052   1.229   1.438   5.667 -0.1445 -0.1386 -0.5354
 2546TIP3    H129053   1.147   1.483   5.687 -0.1657 -0.4955  0.1989
 2546TIP3    H229054   1.298   1.493   5.705  0.2218  1.4737 -3.2294
 2547TIP3   OH229055   5.823   3.434  14.123 -0.0861  0.0224  0.3807
 2547TIP3    H129056   5.855   3.506  14.178 -0.7670  0.9381 -0.3859
 2547TIP3    H229057   5.901   3.405  14.075  0.3894 -0.3960  1.3823
 2548TIP3   OH229058   0.401   0.103  15.822 -0.7509 -0.2607 -0.6540
 2548TIP3    H129059   0.433   0.034  15.764  3.6857  0.4813  0.6010
 2548TIP3    H229060   0.420   0.184  15.775 -0.0187  0.2481  0.4938
 2549TIP3   OH229061   2.515   1.795  11.287 -0.2540  0.0632 -0.0881
 2549TIP3    H129062   2.485   1.705  11.301 -0.5804 -0.0445 -1.3129
 2549TIP3    H229063   2.603   1.786  11.252 -0.1407  0.2422  0.1464
 2550TIP3   OH229064   4.121   1.114   4.929  0.1219  0.0256  0.4333
 2550TIP3    H129065   4.213   1.114   4.900  0.8089 -0.1107  2.4494
 2550TIP3    H229066   4.108   1.027   4.966 -1.4089 -0.5844 -1.4261
 2551TIP3   OH229067   3.612   3.537  16.074 -0.4480 -0.7572 -0.2104
 2551TIP3    H129068   3.559   3.486  16.012  0.2403 -0.5860 -0.9532
 2551TIP3    H229069   3.617   3.624  16.035 -1.1200 -0.2726  0.7568
 2552TIP3   OH229070   5.281   5.818  14.858  0.4903 -0.4743 -0.2026
 2552TIP3    H129071   5.353   5.758  14.876  1.6800  1.3449  1.5017
 2552TIP3    H229072   5.231   5.775  14.789  2.7302 -2.1751 -0.8846
 2553TIP3   OH229073   6.058   6.223  11.832 -0.1611  0.1079 -0.5032
 2553TIP3    H129074   5.971   6.261  11.842  0.0941  0.9092 -1.2098
 2553TIP3    H229075   6.048   6.132  11.857 -0.9209  0.4931  0.6872
 2554TIP3   OH229076   5.237   1.959  11.328  0.1566 -0.2898 -0.2018
 2554TIP3    H129077   5.322   2.003  11.320 -0.6036  1.2635 -0.2084
 2554TIP3    H229078   5.187   2.015  11.388 -0.8190 -1.2564 -0.0816
 2555TIP3   OH229079   3.294   3.374   4.057 -0.1273 -0.3196  0.0530
 2555TIP3    H129080   3.214   3.422   4.036 -0.3146 -0.8606 -0.5246
 2555TIP3    H229081   3.285   3.351   4.149 -0.0764  0.6584  0.3086
 2556TIP3   OH229082   4.756   2.932  11.147  0.3399  0.1637 -0.1009
 2556TIP3    H129083   4.710   2.959  11.067  1.7341  0.5422 -0.8114
 2556TIP3    H229084   4.848   2.944  11.126  0.7784 -0.7262  1.2314
 2557TIP3   OH229085   2.246   1.872  11.598  0.4421  1.1484 -0.5677
 2557TIP3    H129086   2.279   1.930  11.528  1.0424  0.9999 -0.4154
 2557TIP3    H229087   2.171   1.919  11.635  0.0118  1.1519 -1.4237
 2558TIP3   OH229088   4.168   0.147   1.595 -0.1927  0.6128  0.2707
 2558TIP3    H129089   4.201   0.190   1.674 -0.9311  0.7311  0.5181
 2558TIP3    H229090   4.132   0.064   1.626 -0.8977  0.8594  0.1343
 2559TIP3   OH229091   5.083   1.777  16.823 -0.7700 -0.5714  0.3267
 2559TIP3    H129092   5.162   1.777  16.769 -1.0483 -0.3679 -0.0844
 2559TIP3    H229093   5.075   1.867  16.854 -1.3945 -0.3324 -0.4697
 2560TIP3   OH229094   0.699   6.329  16.860  0.1090 -0.1898  0.3436
 2560TIP3    H129095   0.676   6.363  16.773  1.8735  0.4027  0.0710
 2560TIP3    H229096   0.716   6.236  16.846 -1.1548 -0.4501  0.3900
 2561TIP3   OH229097   1.097   1.355   1.104  0.3444 -0.0673 -0.6358
 2561TIP3    H129098   1.056   1.284   1.056 -0.9072 -1.4509  2.2339
 2561TIP3    H229099   1.026   1.396   1.153  1.5758  0.8717  0.4558
 2562TIP3   OH229100   6.018   3.708   0.923 -0.2961  0.3157 -0.3955
 2562TIP3    H129101   6.086   3.692   0.859  0.2405 -0.6330  0.3845
 2562TIP3    H229102   5.970   3.784   0.889  1.6387  1.5235 -0.5676
 2563TIP3   OH229103   4.056   4.025   2.019  0.2311 -0.3159  0.1377
 2563TIP3    H129104   4.095   3.956   2.073  1.7236 -0.3901 -0.9561
 2563TIP3    H229105   4.067   3.993   1.929 -1.2876  0.2543 -0.2758
 2564TIP3   OH229106   2.166   5.983  11.736 -0.2631  0.1996  0.2828
 2564TIP3    H129107   2.129   6.065  11.769 -2.3348  0.1536 -1.7168
 2564TIP3    H229108   2.120   5.966  11.654 -0.4599 -3.3568  0.9586
 2565TIP3   OH229109   4.450   3.666   2.069  0.3639 -0.3796  0.4229
 2565TIP3    H129110   4.383   3.731   2.090 -0.7937 -1.5308  0.4572
 2565TIP3    H229111   4.486   3.693   1.985 -1.2466 -0.5466 -0.3658
 2566TIP3   OH229112   2.911   4.220  13.699 -0.0839 -0.0742 -0.7655
 2566TIP3    H129113   2.940   4.147  13.754  0.5855 -0.5737 -1.7506
 2566TIP3    H229114   2.988   4.242  13.647  0.7237  3.3768  1.5863
 2567TIP3   OH229115   3.512   0.290   3.903  0.2741  0.1521  0.0333
 2567TIP3    H129116   3.591   0.343   3.889  0.2895  0.8175  2.2639
 2567TIP3    H229117   3.442   0.343   3.865  0.5492  0.9484  0.5796
 2568TIP3   OH229118   3.793   6.188  15.628  0.0071 -0.1362 -0.1495
 2568TIP3    H129119   3.711   6.143  15.605 -0.0654 -0.3604  0.5372
 2568TIP3    H229120   3.861   6.135  15.587 -0.2381  0.5732 -1.5289
 2569TIP3   OH229121   6.529   1.644   1.908 -0.1948 -0.2814 -0.0579
 2569TIP3    H129122   6.460   1.658   1.844 -1.1938 -3.2954  0.2343
 2569TIP3    H229123   6.484   1.633   1.991  0.7095 -1.0800  0.3514
 2570TIP3   OH229124   6.428   2.616   5.411  0.1054  0.7402  0.3093
 2570TIP3    H129125   6.334   2.609   5.423  0.0227 -1.2183 -1.0241
 2570TIP3    H229126   6.439   2.637   5.318  0.9572 -0.6381  0.0584
 2571TIP3   OH229127   2.725   0.567  12.352  0.1030 -0.0590 -0.3227
 2571TIP3    H129128   2.813   0.530  12.355  0.3837  0.6137  0.0641
 2571TIP3    H229129   2.736   0.656  12.386 -0.5537  0.3738 -1.2090
 2572TIP3   OH229130   5.605   0.278   1.024  0.5552  0.6702  0.5619
 2572TIP3    H129131   5.573   0.368   1.035  0.5804  0.6957  0.4281
 2572TIP3    H229132   5.687   0.288   0.975 -0.2674  0.4560 -0.8987
 2573TIP3   OH229133   1.825   2.103   3.905  0.2574 -0.5513  0.7340
 2573TIP3    H129134   1.805   2.162   3.977 -1.7299  0.1003 -0.2801
 2573TIP3    H229135   1.753   2.114   3.843  2.3894 -0.2155 -1.9260
 2574TIP3   OH229136   6.183   5.098   2.873  0.3757 -0.3428 -0.4296
 2574TIP3    H129137   6.227   5.148   2.942  0.3666 -1.0112  0.0721
 2574TIP3    H229138   6.208   5.007   2.890 -1.5377 -0.8229  0.1678
 2575TIP3   OH229139   3.583   4.253  11.588 -0.1676  0.2087 -0.3790
 2575TIP3    H129140   3.536   4.171  11.601 -0.8926  0.0829 -3.1868
 2575TIP3    H229141   3.671   4.226  11.561  0.1038  0.3884  0.3109
 2576TIP3   OH229142   3.676   0.226   1.702 -1.2265  0.4505 -0.0562
 2576TIP3    H129143   3.624   0.286   1.755 -0.3716 -0.5625  2.0348
 2576TIP3    H229144   3.748   0.200   1.758 -0.6894 -1.2972 -1.4525
 2577TIP3   OH229145   5.534   1.970   0.478  0.0700  0.3212 -0.1325
 2577TIP3    H129146   5.530   2.028   0.401 -2.6404  0.5935  0.1405
 2577TIP3    H229147   5.478   1.896   0.455  0.7750 -0.5484  0.8774
 2578TIP3   OH229148   5.218   1.482  17.013 -0.1249 -0.1581  0.2894
 2578TIP3    H129149   5.264   1.555  17.055 -0.0522  0.0158 -0.0847
 2578TIP3    H229150   5.253   1.404  17.056  1.3245 -0.0962 -0.6977
 2579TIP3   OH229151   5.743   0.827   0.491 -0.4423  0.4942 -0.4216
 2579TIP3    H129152   5.669   0.884   0.510 -0.4925  0.2338  0.2054
 2579TIP3    H229153   5.712   0.739   0.514  0.0422  0.3782 -0.1927
 2580TIP3   OH229154   3.499   5.651  14.762  0.0971  1.0145 -0.3083
 2580TIP3    H129155   3.490   5.745  14.749  0.0496  1.2945  1.4917
 2580TIP3    H229156   3.409   5.619  14.766  0.1126  0.8183 -1.2422
 2581TIP3   OH229157   5.269   1.414  12.450  0.2637  0.0004 -0.3156
 2581TIP3    H129158   5.348   1.447  12.407 -0.3834  1.0693 -0.7049
 2581TIP3    H229159   5.260   1.325  12.417  1.3270 -0.1615 -0.2225
 2582TIP3   OH229160   3.343   2.363   2.361  0.0895 -0.1283 -0.8353
 2582TIP3    H129161   3.321   2.276   2.395  0.7217  0.0325  0.0280
 2582TIP3    H229162   3.260   2.410   2.361  0.1788  0.1558  1.4179
 2583TIP3   OH229163   2.342   5.120   2.015 -0.1503 -0.1512  0.6541
 2583TIP3    H129164   2.363   5.209   2.041  2.7741 -0.7893  0.7852
 2583TIP3    H229165   2.420   5.069   2.036 -0.7180 -2.2702 -1.8115
 2584TIP3   OH229166   6.057   0.608   6.030 -0.1120 -0.3625  0.0197
 2584TIP3    H129167   5.985   0.626   6.091  1.5217 -1.2018  2.3648
 2584TIP3    H229168   6.039   0.520   5.997 -0.3820 -0.4043  0.2730
 2585TIP3   OH229169   1.698   0.284   4.123  0.6078  0.5385 -0.3464
 2585TIP3    H129170   1.784   0.273   4.082  0.1244  0.6486 -1.3932
 2585TIP3    H229171   1.716   0.343   4.197  1.4967  0.2612 -0.3207
 2586TIP3   OH229172   4.098   3.607  13.106  0.0284  0.0824  0.5182
 2586TIP3    H129173   4.048   3.673  13.058  0.9001  0.2348 -0.1996
 2586TIP3    H229174   4.125   3.651  13.187  2.6164  1.4407 -0.9905
 2587TIP3   OH229175   3.274   5.306  13.464  0.3773  0.7091 -1.3316
 2587TIP3    H129176   3.308   5.324  13.376  0.8856 -0.9570 -1.5054
 2587TIP3    H229177   3.252   5.392  13.499  1.6061  1.5362 -2.5024
 2588TIP3   OH229178   0.459   4.210   2.288 -0.5492 -0.2899 -0.1164
 2588TIP3    H129179   0.370   4.224   2.255  0.0118  2.6049 -0.6706
 2588TIP3    H229180   0.463   4.261   2.369  0.8360  0.2806 -0.5236
 2589TIP3   OH229181   6.138   6.352  14.453  0.1044  0.2609 -0.0227
 2589TIP3    H129182   6.057   6.330  14.499  0.6315  0.7007  1.1443
 2589TIP3    H229183   6.208   6.329  14.514  0.9526 -1.2986 -1.4890
 2590TIP3   OH229184   4.774   4.441  11.141 -0.0964  0.1783  0.0192
 2590TIP3    H129185   4.681   4.430  11.162  0.2068 -0.6265  1.0625
 2590TIP3    H229186   4.776   4.507  11.072 -1.3817  0.8890  0.6320
 2591TIP3   OH229187   6.003   5.285  15.394 -0.3096 -0.6552  0.2321
 2591TIP3    H129188   5.957   5.229  15.331 -1.0507  0.5272 -0.3102
 2591TIP3    H229189   6.068   5.331  15.342  0.6416 -1.3387  0.7680
 2592TIP3   OH229190   1.111   2.934  15.634  0.1348 -0.4296  0.1476
 2592TIP3    H129191   1.175   2.894  15.576 -1.5402 -1.3374 -1.1580
 2592TIP3    H229192   1.144   3.023  15.649  1.9947 -1.0786  0.0527
 2593TIP3   OH229193   5.443   6.697   4.826 -0.4314  0.1126 -1.1786
 2593TIP3    H129194   5.377   6.628   4.828 -0.7973  0.4140  1.6433
 2593TIP3    H229195   5.396   6.773   4.790 -1.3846  0.0611 -0.1186
 2594TIP3   OH229196   4.915   2.209  15.665  0.0622 -0.4082  0.2402
 2594TIP3    H129197   4.871   2.274  15.611  1.2717  0.4075  0.1869
 2594TIP3    H229198   4.863   2.205  15.745  0.6482  1.5955  0.7727
 2595TIP3   OH229199   6.484   5.852  12.855  0.1619 -0.1503 -0.1165
 2595TIP3    H129200   6.418   5.801  12.901  0.0481 -0.7092 -0.8717
 2595TIP3    H229201   6.436   5.894  12.784  0.7760 -1.4443 -1.3499
 2596TIP3   OH229202   4.938   3.278  11.997  0.1461 -0.6850 -0.2192
 2596TIP3    H129203   4.928   3.186  12.020  1.1063 -1.0236 -1.0854
 2596TIP3    H229204   4.860   3.299  11.945 -0.3742 -0.8335  0.4980
 2597TIP3   OH229205   4.412   2.008  14.452 -0.7305  0.0399 -0.9502
 2597TIP3    H129206   4.473   1.955  14.505 -1.1446 -0.2371 -0.7475
 2597TIP3    H229207   4.465   2.038  14.378 -0.4878 -0.6718 -1.0742
 2598TIP3   OH229208   3.766   5.817  11.671 -0.7314  0.3454  0.9956
 2598TIP3    H129209   3.797   5.866  11.748 -0.6990 -0.9337  1.8164
 2598TIP3    H229210   3.771   5.881  11.600  2.1543  0.7322  1.4262
 2599TIP3   OH229211   3.594   3.700   2.187 -0.4913  0.0279  0.2097
 2599TIP3    H129212   3.580   3.794   2.176  0.7597  0.1656 -0.3144
 2599TIP3    H229213   3.689   3.691   2.196 -0.6383 -1.1428  0.7442
 2600TIP3   OH229214   0.196   0.836   4.312 -0.6214  0.5856  0.1915
 2600TIP3    H129215   0.161   0.833   4.223  1.0646 -3.4975 -0.5586
 2600TIP3    H229216   0.145   0.771   4.360  0.0017  1.0742  1.5746
 2601TIP3   OH229217   4.068   5.465  11.992  0.1085 -0.3159 -0.2402
 2601TIP3    H129218   4.004   5.403  12.026 -1.5870  1.3144 -0.2852
 2601TIP3    H229219   4.091   5.519  12.068  2.1438 -1.3834 -0.0199
 2602TIP3   OH229220   3.046   6.695  14.504 -0.1055  0.4568 -0.3344
 2602TIP3    H129221   3.132   6.669  14.471  0.5077  1.4120  0.4569
 2602TIP3    H229222   3.047   6.669  14.596 -0.6489  0.5113 -0.3105
 2603TIP3   OH229223   0.008   3.007   2.059 -0.1237  0.4841 -0.1942
 2603TIP3    H129224   0.035   2.984   1.970  0.4063 -0.9452  0.3228
 2603TIP3    H229225   0.063   2.954   2.116 -1.2503  0.5255  0.9764
 2604TIP3   OH229226   2.344   3.306   7.320 -0.3016 -0.8482  0.0239
 2604TIP3    H129227   2.409   3.325   7.252 -2.0709  1.6573 -1.1523
 2604TIP3    H229228   2.260   3.321   7.276 -1.5448  0.0404  2.5374
 2605TIP3   OH229229   0.823   0.812   5.307  0.4045  0.2201 -0.3778
 2605TIP3    H129230   0.910   0.799   5.269 -0.4754  0.7503 -2.6778
 2605TIP3    H229231   0.774   0.734   5.281 -0.1299  0.4416 -0.0414
 2606TIP3   OH229232   5.898   1.678  14.902  0.3061 -0.5852 -0.5831
 2606TIP3    H129233   5.913   1.620  14.828 -1.3321 -0.4949 -1.0421
 2606TIP3    H229234   5.981   1.682  14.948  1.7036  0.2380 -3.0203
 2607TIP3   OH229235   5.830   5.857  15.574  0.2534  0.0883 -0.4449
 2607TIP3    H129236   5.778   5.932  15.546  0.4656  1.1976  1.8417
 2607TIP3    H229237   5.921   5.883  15.557  0.3860  0.7810  1.0900
 2608TIP3   OH229238   3.542   1.642   5.399  0.4483 -0.4038  0.0176
 2608TIP3    H129239   3.621   1.591   5.415  0.0597 -0.6322  1.3501
 2608TIP3    H229240   3.563   1.730   5.431  0.0583 -0.5567  0.7182
 2609TIP3   OH229241   0.851   2.721  11.863 -0.1110  0.0475 -0.0796
 2609TIP3    H129242   0.838   2.769  11.945 -0.1280  0.3273 -0.2461
 2609TIP3    H229243   0.833   2.785  11.795  0.7603  0.0508 -0.3113
 2610TIP3   OH229244   5.388   3.579   4.360  0.1233  0.3365 -0.0080
 2610TIP3    H129245   5.447   3.611   4.429 -0.4276  0.6249  0.3347
 2610TIP3    H229246   5.412   3.487   4.349  0.8765  0.5396 -0.1240
 2611TIP3   OH229247   2.520   1.118   0.918 -0.1359  0.9519 -0.0495
 2611TIP3    H129248   2.597   1.136   0.973  0.1944  0.7463 -0.4411
 2611TIP3    H229249   2.516   1.192   0.858 -0.2024  0.9291 -0.0726
 2612TIP3   OH229250   3.189   2.161  10.574 -0.2413  0.0701  0.3289
 2612TIP3    H129251   3.097   2.140  10.558  0.5075 -2.3043 -1.4604
 2612TIP3    H229252   3.229   2.077  10.598  1.4453  1.0889  1.2963
 2613TIP3   OH229253   2.491   0.277   2.228 -0.0676 -0.1952 -0.3902
 2613TIP3    H129254   2.540   0.296   2.308  0.2429 -0.2920 -0.5545
 2613TIP3    H229255   2.409   0.326   2.238  1.2732  2.4415 -1.4544
 2614TIP3   OH229256   1.062   1.633  17.448 -0.3060  0.3324 -0.3359
 2614TIP3    H129257   0.969   1.636  17.469 -0.4044 -0.5697 -0.5612
 2614TIP3    H229258   1.065   1.637  17.352 -0.0050  2.0366 -0.2713
 2615TIP3   OH229259   5.297   4.541   5.566  0.3639 -0.1193 -0.3311
 2615TIP3    H129260   5.312   4.588   5.484 -0.0504 -0.8581 -0.8384
 2615TIP3    H229261   5.340   4.457   5.554  0.1577 -0.2942  0.1490
 2616TIP3   OH229262   3.567   1.377   0.347  0.2615  0.5427  0.4344
 2616TIP3    H129263   3.657   1.343   0.352 -0.6945 -2.0381  1.1690
 2616TIP3    H229264   3.561   1.414   0.258  2.1960  1.3452  0.5774
 2617TIP3   OH229265   5.292   1.667   1.077 -0.1321  0.1298 -0.0845
 2617TIP3    H129266   5.229   1.670   1.004 -2.4111  2.3264  1.7749
 2617TIP3    H229267   5.363   1.611   1.045 -2.2709 -1.2453 -2.9439
 2618TIP3   OH229268   6.386   6.523  12.903 -0.0469 -0.3405  0.1825
 2618TIP3    H129269   6.469   6.570  12.889  0.6344 -1.6672 -0.3778
 2618TIP3    H229270   6.407   6.432  12.885 -1.8294 -0.6035 -0.8247
 2619TIP3   OH229271   4.745   4.267   2.565 -0.1693  0.2550 -0.2914
 2619TIP3    H129272   4.668   4.220   2.597 -0.7170  1.1924 -0.1802
 2619TIP3    H229273   4.709   4.345   2.523  0.6607  0.1295 -1.2731
 2620TIP3   OH229274   6.657   6.053  12.937  0.2505 -0.2491 -0.1108
 2620TIP3    H129275   6.690   6.048  13.027 -1.2574  0.8212  0.5671
 2620TIP3    H229276   6.572   6.009  12.941  0.4163 -0.6717 -1.1457
 2621TIP3   OH229277   0.813   3.091  12.040  0.1490  0.4602  0.2276
 2621TIP3    H129278   0.794   3.169  11.988 -0.1188  0.4670  0.3349
 2621TIP3    H229279   0.752   3.025  12.008 -1.2925  0.9786  1.7476
 2622TIP3   OH229280   3.550   0.106  13.187  0.6670  0.6006 -0.3826
 2622TIP3    H129281   3.598   0.066  13.259  0.5256  1.4956  0.2177
 2622TIP3    H229282   3.504   0.180  13.226 -0.3706  0.3894 -1.1560
 2623TIP3   OH229283   3.296   2.218  12.314 -0.4694 -0.2909 -0.2369
 2623TIP3    H129284   3.359   2.188  12.379 -1.5355 -0.8976  0.5515
 2623TIP3    H229285   3.292   2.313  12.327 -1.5920 -0.5169  1.5065
 2624TIP3   OH229286   1.006   1.004  14.501 -0.5182  0.2238  0.3707
 2624TIP3    H129287   1.022   0.917  14.464 -0.8225  0.0062  0.7557
 2624TIP3    H229288   1.067   1.010  14.575 -2.0612 -0.5491  1.7573
 2625TIP3   OH229289   5.539   4.021   6.549  0.1486  0.1621 -0.3559
 2625TIP3    H129290   5.459   4.065   6.520 -0.1160  1.2414  1.8235
 2625TIP3    H229291   5.523   3.928   6.531 -1.3938  0.4069 -0.4307
 2626TIP3   OH229292   6.429   5.711  12.575  0.0862 -0.3062  0.1500
 2626TIP3    H129293   6.413   5.784  12.635  2.8716 -0.4780  1.2654
 2626TIP3    H229294   6.384   5.637  12.615 -1.1760  0.3661  0.0190
 2627TIP3   OH229295   5.995   2.673   4.112  0.2815 -0.0266  0.5855
 2627TIP3    H129296   6.036   2.652   4.196  0.7718 -2.6933 -0.2056
 2627TIP3    H229297   6.042   2.750   4.080  0.9888  0.2202  2.1579
 2628TIP3   OH229298   4.043   2.281   3.867  0.6021  0.7538 -0.2745
 2628TIP3    H129299   3.948   2.266   3.865  0.6571  0.0450  1.2443
 2628TIP3    H229300   4.079   2.219   3.803  0.0969  0.5743 -0.3871
 2629TIP3   OH229301   2.049   5.544   2.157  0.3053 -0.2275 -0.2141
 2629TIP3    H129302   2.102   5.595   2.095  0.7614 -1.1064 -0.5610
 2629TIP3    H229303   1.968   5.595   2.166  1.4234  1.4551  0.8001
 2630TIP3   OH229304   0.024   0.531  11.162  0.1591  0.2195 -0.0045
 2630TIP3    H129305   0.007   0.569  11.076  0.0341  0.6869  0.2242
 2630TIP3    H229306  -0.059   0.539  11.209  1.2164  3.7161  1.5832
 2631TIP3   OH229307   4.477   2.891   5.506 -0.0419 -0.1676  0.5257
 2631TIP3    H129308   4.562   2.859   5.473 -0.4672 -1.4723  0.6154
 2631TIP3    H229309   4.418   2.817   5.493 -1.6458  1.3070 -1.2327
 2632TIP3   OH229310   6.011   0.083  11.579  0.2112  0.4569 -0.2756
 2632TIP3    H129311   6.045   0.068  11.667 -0.9113  1.4885  0.3673
 2632TIP3    H229312   6.014  -0.003  11.537 -1.2402 -0.5155  1.4965
 2633TIP3   OH229313   1.526   0.041   4.571  0.3072 -0.2561  0.0328
 2633TIP3    H129314   1.466   0.060   4.499  0.7072 -0.5992 -0.3946
 2633TIP3    H229315   1.474  -0.007   4.635 -0.8547  2.4724  1.3036
 2634TIP3   OH229316   2.089   4.492   1.821  0.1265 -0.0413  0.3167
 2634TIP3    H129317   2.061   4.402   1.809  1.0956 -0.4012  0.6928
 2634TIP3    H229318   2.143   4.491   1.900  0.0294  0.8949  0.4154
 2635TIP3   OH229319   0.039   6.227   4.312 -0.6742  0.1789  0.2481
 2635TIP3    H129320  -0.004   6.307   4.343  0.2865 -0.3346  3.2380
 2635TIP3    H229321   0.127   6.230   4.349  0.2226 -1.1456 -1.6018
 2636TIP3   OH229322   6.290   1.482   4.347  0.3952  0.0954  0.3701
 2636TIP3    H129323   6.349   1.484   4.272 -0.3398  1.9165 -0.2335
 2636TIP3    H229324   6.258   1.392   4.350 -0.0908  0.1127 -1.9599
 2637TIP3   OH229325   1.762   2.212  13.443 -0.5880 -0.6641  0.1054
 2637TIP3    H129326   1.699   2.164  13.497 -1.1661 -0.6892 -0.5813
 2637TIP3    H229327   1.791   2.283  13.500 -0.1160 -1.5069  0.9478
 2638TIP3   OH229328   3.981   4.506   6.089 -0.2330  0.0629 -0.0302
 2638TIP3    H129329   4.028   4.567   6.033  0.1963 -0.0031  0.2479
 2638TIP3    H229330   3.994   4.421   6.049 -1.1240  0.1827 -0.6114
 2639TIP3   OH229331   1.209   6.634  17.311 -0.3368  0.6334 -0.3044
 2639TIP3    H129332   1.184   6.556  17.261 -2.3330  0.8172  0.3464
 2639TIP3    H229333   1.237   6.697  17.245  0.9236 -0.4566 -0.8714
 2640TIP3   OH229334   4.181   2.385  10.688  0.4204 -0.1956 -0.1077
 2640TIP3    H129335   4.106   2.442  10.670  1.3697  0.8970 -0.7637
 2640TIP3    H229336   4.182   2.376  10.784 -0.9678 -0.8475 -0.1331
 2641TIP3   OH229337   2.668   5.295   3.621  0.3121 -0.0048  0.4475
 2641TIP3    H129338   2.586   5.259   3.585  1.7876 -0.1093 -3.2660
 2641TIP3    H229339   2.720   5.317   3.544  3.9783 -0.2467  2.6379
 2642TIP3   OH229340   2.913   1.378  14.278 -0.7539 -0.1788 -0.1943
 2642TIP3    H129341   2.881   1.393  14.189 -0.5381  1.5658 -0.0069
 2642TIP3    H229342   2.995   1.330  14.265  0.1053  1.4278 -1.0647
 2643TIP3   OH229343   6.503   3.013   1.778 -0.0419  0.2752 -0.4386
 2643TIP3    H129344   6.443   2.938   1.783 -1.6338  1.4665 -1.1868
 2643TIP3    H229345   6.479   3.068   1.853  2.0875 -0.5631  0.9884
 2644TIP3   OH229346   2.483   0.256  15.074  0.0047 -0.0282 -0.2530
 2644TIP3    H129347   2.547   0.326  15.057 -0.8806  0.4918 -1.7141
 2644TIP3    H229348   2.450   0.274  15.162  0.6594  0.6902 -0.1446
 2645TIP3   OH229349   1.081   1.916  12.068 -0.0523 -0.0480  0.0245
 2645TIP3    H129350   1.139   1.863  12.014 -1.7387 -0.5752 -1.3735
 2645TIP3    H229351   1.102   1.891  12.158  2.4110  0.4060 -0.3685
 2646TIP3   OH229352   4.100   1.186   4.273 -0.6155 -0.1482  0.6875
 2646TIP3    H129353   4.026   1.196   4.332 -0.2045  0.9846  1.0527
 2646TIP3    H229354   4.173   1.228   4.319 -0.0325 -0.2059 -0.1572
 2647TIP3   OH229355   0.296   5.611  12.866 -0.3164  0.3054  0.0591
 2647TIP3    H129356   0.370   5.551  12.862  0.0324  0.5715  1.7330
 2647TIP3    H229357   0.301   5.660  12.784  0.1173 -1.0815 -0.7795
 2648TIP3   OH229358   5.551   5.771  15.251 -0.2365  0.3221  0.3229
 2648TIP3    H129359   5.606   5.709  15.202 -0.8726 -0.3518  0.4535
 2648TIP3    H229360   5.562   5.746  15.342  0.4191  1.1563  0.4883
 2649TIP3   OH229361   4.167   2.261   4.179 -0.4826 -0.0821  0.0331
 2649TIP3    H129362   4.172   2.234   4.088 -1.1437 -1.3036  0.3376
 2649TIP3    H229363   4.138   2.182   4.226 -0.1390  0.5170  1.2946
 2650TIP3   OH229364   5.276   5.229  13.982 -0.0032  0.2842 -1.1623
 2650TIP3    H129365   5.207   5.165  13.962 -1.5141  1.1617  0.9807
 2650TIP3    H229366   5.244   5.311  13.946 -0.5169  0.8744  0.5750
 2651TIP3   OH229367   1.862   6.202   0.566  0.0403  0.1908  0.2797
 2651TIP3    H129368   1.876   6.243   0.480 -0.5905  0.5233  0.3310
 2651TIP3    H229369   1.767   6.204   0.579  0.1497  0.4018  1.1111
 2652TIP3   OH229370   1.766   5.332   4.994 -0.0918  0.0022  0.2618
 2652TIP3    H129371   1.833   5.400   4.999  1.5883 -1.5638  0.1030
 2652TIP3    H229372   1.709   5.348   5.069  0.9331  0.9007  0.8603
 2653TIP3   OH229373   4.007   5.708   1.362 -0.2752  0.1578 -0.0460
 2653TIP3    H129374   4.102   5.701   1.354 -0.1201  0.6837  1.1911
 2653TIP3    H229375   3.992   5.735   1.452 -1.6858 -1.5579  0.2833
 2654TIP3   OH229376   1.982   0.934  15.443  0.1176  0.4225 -0.5379
 2654TIP3    H129377   1.974   1.028  15.455  1.9592  0.6471 -0.8538
 2654TIP3    H229378   1.985   0.922  15.348 -0.3243  0.0087 -0.5068
 2655TIP3   OH229379   6.725   6.042  14.147 -0.2554  0.1960  0.5452
 2655TIP3    H129380   6.670   6.108  14.189 -1.7146 -0.1019 -0.7931
 2655TIP3    H229381   6.761   6.087  14.070 -2.0867 -0.7702 -0.9658
 2656TIP3   OH229382   6.128   0.680   1.956  0.8456 -0.2125 -0.0051
 2656TIP3    H129383   6.205   0.634   1.924  1.2364 -0.0185  0.6379
 2656TIP3    H229384   6.146   0.772   1.938 -0.5985 -0.3504 -2.7203
 2657TIP3   OH229385   3.506   4.992  17.363  0.1669  0.1516  0.4698
 2657TIP3    H129386   3.579   4.987  17.425  0.8209 -0.3159 -0.3214
 2657TIP3    H229387   3.547   5.009  17.278 -0.7456  1.1675  0.2120
 2658TIP3   OH229388   5.742   4.868   0.577 -0.5468  0.1170 -0.3245
 2658TIP3    H129389   5.745   4.775   0.556 -0.3769  0.3697 -1.4567
 2658TIP3    H229390   5.668   4.876   0.637 -0.8317 -0.6842 -0.5554
 2659TIP3   OH229391   5.589   0.332  11.146  0.0428 -0.2537  0.0272
 2659TIP3    H129392   5.525   0.265  11.172  0.5735 -0.5127  0.7121
 2659TIP3    H229393   5.544   0.385  11.080 -1.5198  0.6154  1.6975
 2660TIP3   OH229394   2.864   4.601  13.502  0.0202  0.7372 -0.3069
 2660TIP3    H129395   2.870   4.647  13.585  0.4974  2.2717 -1.1495
 2660TIP3    H229396   2.770   4.595  13.484 -0.1732 -0.8123  0.9281
 2661TIP3   OH229397   4.391   2.966   0.313 -0.8627 -0.3021 -0.1228
 2661TIP3    H129398   4.453   2.979   0.385 -1.8271 -0.1604  0.7135
 2661TIP3    H229399   4.369   3.055   0.284  1.0947 -0.3610 -2.0445
 2662TIP3   OH229400   3.095   1.078   5.368  0.1964  0.2091 -0.2373
 2662TIP3    H129401   3.191   1.075   5.373  0.3932 -1.8156 -2.8070
 2662TIP3    H229402   3.069   1.142   5.435  3.3842  1.6772 -0.2082
 2663TIP3   OH229403   1.430   0.979  16.778  0.2725 -0.1545  0.0021
 2663TIP3    H129404   1.511   0.928  16.780 -0.6777 -1.7880 -1.3595
 2663TIP3    H229405   1.441   1.037  16.702  0.0451 -0.5742 -0.3494
 2664TIP3   OH229406   3.907   5.273  12.327 -0.4938  0.1333 -0.3719
 2664TIP3    H129407   3.909   5.314  12.241 -0.3621 -0.8276 -0.8316
 2664TIP3    H229408   3.891   5.180  12.310 -1.4484  0.0747  0.6831
 2665TIP3   OH229409   2.585   1.333  12.844  0.0434  0.3613 -0.3105
 2665TIP3    H129410   2.536   1.252  12.830  2.0351 -1.4322  2.0749
 2665TIP3    H229411   2.673   1.303  12.866  1.1092  3.2642 -0.2906
 2666TIP3   OH229412   4.189   3.871   2.206  0.4820 -0.1339  0.5164
 2666TIP3    H129413   4.128   3.799   2.222  1.1385 -0.4481  1.7494
 2666TIP3    H229414   4.256   3.861   2.274  2.0196  0.0891 -0.9211
 2667TIP3   OH229415   0.707   5.176   1.308  0.4592 -0.4544 -0.5613
 2667TIP3    H129416   0.749   5.251   1.267 -0.2322  0.1031 -0.2632
 2667TIP3    H229417   0.691   5.115   1.237 -0.3069  0.3011 -1.0432
 2668TIP3   OH229418   0.620   2.957  14.616 -0.0463 -0.2136 -0.0439
 2668TIP3    H129419   0.566   3.012  14.558 -1.4652 -1.7797 -0.2764
 2668TIP3    H229420   0.685   3.018  14.653 -0.2385  1.1832 -1.8729
 2669TIP3   OH229421   2.259   5.715  16.342  0.4956 -0.4697  0.3915
 2669TIP3    H129422   2.217   5.629  16.342  1.2826 -0.8698  0.0776
 2669TIP3    H229423   2.351   5.696  16.322  0.3022  0.6133 -1.8603
 2670TIP3   OH229424   5.867   4.502   5.701 -0.4151 -0.7524  0.0231
 2670TIP3    H129425   5.871   4.556   5.780  1.4616 -0.6467 -0.1083
 2670TIP3    H229426   5.871   4.565   5.629 -2.4400 -0.8240 -0.2217
 2671TIP3   OH229427   2.745   6.677  13.517  0.1312 -0.4492 -0.2538
 2671TIP3    H129428   2.829   6.685  13.563 -0.1333  0.3830  0.1064
 2671TIP3    H229429   2.702   6.602  13.558 -0.4293  0.7331  1.4450
 2672TIP3   OH229430   2.460   3.395  16.131 -0.7207  0.0208  1.0777
 2672TIP3    H129431   2.428   3.472  16.179 -0.3202  0.6404  0.3743
 2672TIP3    H229432   2.449   3.323  16.192  0.1001  0.8454  2.2421
 2673TIP3   OH229433   5.682   3.481   5.017  0.1596  0.2777 -0.1071
 2673TIP3    H129434   5.670   3.387   5.032 -2.2892  0.3611 -1.0534
 2673TIP3    H229435   5.685   3.491   4.922 -1.3743  1.2803 -0.0912
 2674TIP3   OH229436   3.733   4.425  13.338  0.2832 -0.0149 -0.3253
 2674TIP3    H129437   3.702   4.349  13.387  2.2566 -1.1682 -0.7434
 2674TIP3    H229438   3.772   4.389  13.259 -1.1161  1.6700 -1.8731
 2675TIP3   OH229439   4.912   4.952   4.170  0.0378 -0.3487 -0.1822
 2675TIP3    H129440   4.830   4.988   4.205 -0.3357 -0.9169 -0.4558
 2675TIP3    H229441   4.911   4.860   4.197 -0.6801 -1.0386 -2.3913
 2676TIP3   OH229442   4.981   6.626   6.641 -0.4193 -0.3262 -0.4901
 2676TIP3    H129443   4.892   6.625   6.605 -0.0530 -0.1408 -1.4456
 2676TIP3    H229444   4.997   6.534   6.665 -0.4623 -0.5828 -1.3872
 2677TIP3   OH229445   3.381   5.251   5.512 -0.3363 -0.2835 -0.1337
 2677TIP3    H129446   3.397   5.193   5.437 -1.7217  0.8544 -1.3740
 2677TIP3    H229447   3.306   5.212   5.557 -0.7739  0.1007 -0.5181
 2678TIP3   OH229448   3.728   1.226  14.352  0.5601 -0.1254 -0.0605
 2678TIP3    H129449   3.770   1.288  14.413  0.3912 -1.8711  1.9309
 2678TIP3    H229450   3.662   1.181  14.405 -1.1762 -0.1898 -2.1408
 2679TIP3   OH229451   2.249   2.702  14.058  0.0005 -0.0926 -0.1681
 2679TIP3    H129452   2.216   2.778  14.011 -1.7595 -0.6154  0.1609
 2679TIP3    H229453   2.293   2.739  14.135 -0.5595  0.6141 -0.1745
 2680TIP3   OH229454   4.243   5.371   0.315 -0.3791 -0.6141  0.0749
 2680TIP3    H129455   4.293   5.391   0.236 -1.8735  1.4281 -0.4257
 2680TIP3    H229456   4.294   5.411   0.386 -0.5267  0.1300 -0.2355
 2681TIP3   OH229457   1.733   1.303  12.452  0.3399  0.2071  0.1172
 2681TIP3    H129458   1.676   1.285  12.527 -1.2966  1.7580 -0.6844
 2681TIP3    H229459   1.797   1.232  12.453 -0.2054 -0.3268  2.4204
 2682TIP3   OH229460   1.544   5.857  17.275 -0.6462 -0.4671 -0.3999
 2682TIP3    H129461   1.531   5.947  17.244  1.2773  0.3013  0.8049
 2682TIP3    H229462   1.472   5.842  17.335  0.0947  1.0769  0.9562
 2683TIP3   OH229463   6.180   0.608  13.698  0.1413  0.1931 -1.2019
 2683TIP3    H129464   6.190   0.672  13.627 -0.8351  1.0508 -0.6022
 2683TIP3    H229465   6.246   0.633  13.762 -0.2299  0.6173 -0.9748
 2684TIP3   OH229466   5.672   2.611  11.531 -0.1915 -0.1479  0.4099
 2684TIP3    H129467   5.692   2.699  11.565 -0.9764  1.1222 -2.2063
 2684TIP3    H229468   5.695   2.615  11.439 -0.6681 -2.5999  0.1222
 2685TIP3   OH229469   2.473   1.510   2.722  0.5357 -0.1498 -0.5958
 2685TIP3    H129470   2.548   1.451   2.728  1.2255  0.7420 -0.2004
 2685TIP3    H229471   2.464   1.528   2.628  1.4419  0.5131 -0.5638
 2686TIP3   OH229472   0.094   4.005   3.051  0.0967  0.0857 -0.0078
 2686TIP3    H129473   0.034   3.932   3.060 -1.0450  1.1224  1.3180
 2686TIP3    H229474   0.181   3.966   3.055 -0.4842 -1.2938 -0.4807
 2687TIP3   OH229475   3.613   5.559  11.668  0.3588 -0.9408 -0.4163
 2687TIP3    H129476   3.679   5.625  11.648  0.0300  0.1516  1.7611
 2687TIP3    H229477   3.533   5.609  11.683 -0.3819 -2.0299 -0.6561
 2688TIP3   OH229478   5.670   0.484   3.666  0.2541 -0.5478 -0.2399
 2688TIP3    H129479   5.663   0.541   3.589 -1.4604 -0.4283 -0.0446
 2688TIP3    H229480   5.643   0.398   3.633 -2.9929 -0.0239  0.6555
 2689TIP3   OH229481   3.842   1.794  14.186  0.0790 -0.2784  0.1451
 2689TIP3    H129482   3.752   1.810  14.215  0.1264 -1.6571  1.1058
 2689TIP3    H229483   3.864   1.708  14.221  1.2014 -0.6952 -1.4942
 2690TIP3   OH229484   5.195   3.286   1.444  0.2258 -0.4800  0.3653
 2690TIP3    H129485   5.234   3.264   1.529 -0.5424  2.8298  1.7459
 2690TIP3    H229486   5.256   3.250   1.380  2.7429 -0.0793  2.3557
 2691TIP3   OH229487   4.296   2.138  16.791 -0.2584  0.3322  0.0229
 2691TIP3    H129488   4.216   2.165  16.836  0.7673  2.4406  0.7162
 2691TIP3    H229489   4.366   2.184  16.837  1.3692 -1.3498 -0.6448
 2692TIP3   OH229490   2.361   5.407   6.347  0.3965  0.2827 -0.0087
 2692TIP3    H129491   2.386   5.319   6.376 -0.5635  0.2856  0.8674
 2692TIP3    H229492   2.266   5.403   6.336 -0.0823  1.8915  2.5972
 2693TIP3   OH229493   2.439   3.278  12.272  0.0814 -0.0515  0.2470
 2693TIP3    H129494   2.433   3.186  12.298 -2.2507  0.1982  0.7969
 2693TIP3    H229495   2.402   3.327  12.345 -1.4739  1.0933 -1.2223
 2694TIP3   OH229496   3.412   3.557  11.413  0.2070 -0.4924  0.2692
 2694TIP3    H129497   3.446   3.471  11.437 -0.4423 -0.0171  3.3006
 2694TIP3    H229498   3.357   3.583  11.487 -1.1299  1.7537 -1.3644
 2695TIP3   OH229499   3.405   4.453   3.766 -0.8559  0.7707  0.0682
 2695TIP3    H129500   3.476   4.411   3.718 -0.8771 -4.1897  3.6475
 2695TIP3    H229501   3.449   4.506   3.833 -0.7741  2.4906 -1.2752
 2696TIP3   OH229502   5.769   0.807   2.309  0.0636  0.0066  0.1092
 2696TIP3    H129503   5.722   0.733   2.271  0.4988 -0.3895  0.3370
 2696TIP3    H229504   5.700   0.860   2.350 -0.4468  0.5717 -1.3938
 2697TIP3   OH229505   1.325   3.350  11.124 -0.2034  0.5618 -0.0741
 2697TIP3    H129506   1.341   3.426  11.180  0.8214 -0.2033  0.7126
 2697TIP3    H229507   1.400   3.347  11.065  0.8393 -0.9798  1.2508
 2698TIP3   OH229508   2.812   4.831  14.488 -0.1480 -0.1853 -0.2207
 2698TIP3    H129509   2.763   4.855  14.409  0.7519 -0.7786 -0.9764
 2698TIP3    H229510   2.802   4.736  14.495  0.9611 -0.3272 -0.4336
 2699TIP3   OH229511   1.125   5.335   2.819 -0.0383 -0.0122  0.2075
 2699TIP3    H129512   1.065   5.322   2.892 -0.5843  0.8920 -0.0569
 2699TIP3    H229513   1.188   5.263   2.826 -1.7567 -1.6365 -0.1218
 2700TIP3   OH229514   1.032   1.905   2.003 -0.4265 -0.2103 -0.7836
 2700TIP3    H129515   1.100   1.912   2.070  1.3005  0.6987 -2.5170
 2700TIP3    H229516   1.008   1.996   1.984  0.8212 -0.2467 -2.9328
 2701TIP3   OH229517   5.589   4.641   1.967 -0.0109  0.2012  0.1485
 2701TIP3    H129518   5.576   4.587   2.044  3.6893 -0.1544  0.6956
 2701TIP3    H229519   5.580   4.580   1.893 -2.6931  0.3741  0.2314
 2702TIP3   OH229520   5.747   6.713  16.823 -0.3023 -0.1919 -0.3228
 2702TIP3    H129521   5.756   6.787  16.763 -1.3574  0.9705  0.8954
 2702TIP3    H229522   5.789   6.742  16.904 -2.4403 -0.1227  0.8188
 2703TIP3   OH229523   1.677   5.535  12.078  0.0006 -0.1017  0.4823
 2703TIP3    H129524   1.687   5.461  12.138  0.5531 -2.3381 -2.1720
 2703TIP3    H229525   1.714   5.610  12.126 -0.5952 -1.4784  3.2766
 2704TIP3   OH229526   1.860   2.507  14.956  0.4634 -0.8247  0.5787
 2704TIP3    H129527   1.780   2.555  14.980  0.6644  0.1037 -0.5401
 2704TIP3    H229528   1.885   2.462  15.037 -1.2355 -1.2231  0.9381
 2705TIP3   OH229529   2.299   5.670   1.174 -0.0699  0.0348  0.2035
 2705TIP3    H129530   2.378   5.616   1.177 -0.7223 -1.0942  4.5671
 2705TIP3    H229531   2.328   5.757   1.202 -0.3172 -0.4727  2.1767
 2706TIP3   OH229532   3.385   4.352  15.362 -0.0962 -0.4187  0.1215
 2706TIP3    H129533   3.479   4.368  15.362  0.2001 -1.9218 -0.7331
 2706TIP3    H229534   3.368   4.311  15.448  0.0403 -0.2045  0.2508
 2707TIP3   OH229535   3.589   0.139  11.853  0.5191 -0.1554  0.2917
 2707TIP3    H129536   3.498   0.168  11.857 -0.0480 -1.7624 -0.3889
 2707TIP3    H229537   3.625   0.185  11.776  0.4060  0.7612  0.7730
 2708TIP3   OH229538   5.081   2.990  12.807 -0.1578  0.0702 -0.4224
 2708TIP3    H129539   5.061   2.940  12.728 -0.0745 -0.3829 -0.1620
 2708TIP3    H229540   4.997   2.996  12.853 -0.1235 -0.0204 -0.3478
 2709TIP3   OH229541   1.560   6.488  17.426 -0.5528  0.4107  0.2421
 2709TIP3    H129542   1.646   6.472  17.388 -1.1612  0.2655 -1.0930
 2709TIP3    H229543   1.567   6.577  17.463 -0.2144  0.9045 -0.9771
 2710TIP3   OH229544   1.767   2.401  15.250 -0.1070  0.1294 -0.0618
 2710TIP3    H129545   1.762   2.355  15.333  0.8455  0.6749  0.3173
 2710TIP3    H229546   1.816   2.342  15.192  1.3485  0.7406  0.5034
 2711TIP3   OH229547   4.924   2.372  10.873 -0.0086 -0.8271  0.1485
 2711TIP3    H129548   5.001   2.315  10.873 -0.4823 -1.4925 -0.4030
 2711TIP3    H229549   4.895   2.373  10.782  1.1002  1.8889 -0.2723
 2712TIP3   OH229550   6.434   3.972   0.157  0.1566 -0.0214  0.2501
 2712TIP3    H129551   6.453   4.053   0.203 -1.0207  0.4755 -0.0932
 2712TIP3    H229552   6.424   3.998   0.065  2.3426 -0.9668 -0.3477
 2713TIP3   OH229553   0.008   5.915  13.326 -0.0835 -0.4911  0.4001
 2713TIP3    H129554   0.071   5.880  13.263 -0.3085 -0.0742 -0.0698
 2713TIP3    H229555   0.031   6.007  13.335 -0.9158 -0.2174 -0.1552
 2714TIP3   OH229556   0.367   4.142   0.406 -0.7585 -0.4828  0.7686
 2714TIP3    H129557   0.436   4.077   0.421  0.7641  0.6613 -0.8707
 2714TIP3    H229558   0.319   4.145   0.488 -1.0388 -3.7854  0.8780
 2715TIP3   OH229559   4.777   6.556   4.145 -0.1312  0.0130  0.1534
 2715TIP3    H129560   4.786   6.634   4.089 -0.7311 -1.7219 -2.5196
 2715TIP3    H229561   4.689   6.563   4.182 -0.4265  0.2770 -0.5930
 2716TIP3   OH229562   4.971   2.533   4.808  0.1277  0.3769 -0.3210
 2716TIP3    H129563   4.945   2.491   4.726 -0.9185  0.7624 -0.1970
 2716TIP3    H229564   5.052   2.579   4.787  0.2016 -0.0500 -0.9769
 2717TIP3   OH229565   3.868   6.572  14.313 -0.3691  0.2407 -0.5744
 2717TIP3    H129566   3.836   6.482  14.308 -1.5873  0.6748 -0.8282
 2717TIP3    H229567   3.886   6.596  14.222  0.6526  0.0281 -0.4446
 2718TIP3   OH229568   5.108   3.158   6.185  0.5009 -0.2098 -0.6221
 2718TIP3    H129569   5.170   3.088   6.164 -0.8286 -1.5005 -0.4079
 2718TIP3    H229570   5.099   3.155   6.280  0.7104  0.5147 -0.5725
 2719TIP3   OH229571   0.026   3.683   5.567  0.0504  0.3971  0.3301
 2719TIP3    H129572   0.050   3.642   5.485  2.1297 -0.1854  1.1687
 2719TIP3    H229573  -0.068   3.700   5.559  0.4753  1.9639 -2.8387
 2720TIP3   OH229574   3.822   2.872  14.647  0.4351  0.3232  0.0044
 2720TIP3    H129575   3.817   2.785  14.608  0.4596 -1.6641  3.8994
 2720TIP3    H229576   3.732   2.903  14.648  0.5756  0.9557 -2.4679
 2721TIP3   OH229577   1.200   3.094  16.964  0.0792  0.1037 -0.6326
 2721TIP3    H129578   1.116   3.102  17.008 -0.0047 -2.5682 -0.1160
 2721TIP3    H229579   1.194   3.151  16.888 -2.1331  0.1316 -0.4865
 2722TIP3   OH229580   5.938   2.448  16.434  0.2352  0.4695 -0.6857
 2722TIP3    H129581   5.873   2.450  16.503  0.4048 -0.7917 -0.4668
 2722TIP3    H229582   5.958   2.355  16.422  3.1738  0.8355  0.3819
 2723TIP3   OH229583   6.165   1.398  11.715 -0.2796  0.2687  0.1290
 2723TIP3    H129584   6.176   1.483  11.673 -0.5816  1.2345  1.9117
 2723TIP3    H229585   6.252   1.359  11.712  0.0886  1.0655  0.1869
 2724TIP3   OH229586   6.265   4.535   5.418 -0.6661  0.1494 -0.1407
 2724TIP3    H129587   6.228   4.461   5.466 -0.8729  0.2634 -0.1192
 2724TIP3    H229588   6.192   4.597   5.412 -1.0362 -0.3984 -1.7506
 2725TIP3   OH229589   3.456   5.389   0.632 -0.1744 -0.2025  0.0864
 2725TIP3    H129590   3.530   5.448   0.618  0.3846 -0.5880  1.2839
 2725TIP3    H229591   3.388   5.422   0.574 -0.2024  2.2011  1.3323
 2726TIP3   OH229592   2.082   6.091   1.852  0.4063 -0.0086 -0.8474
 2726TIP3    H129593   2.050   6.171   1.809 -2.5787 -1.4823 -1.6028
 2726TIP3    H229594   2.074   6.110   1.946 -0.9904  0.3632 -1.0191
 2727TIP3   OH229595   1.328   2.623  14.904  0.0202  0.2549 -0.8589
 2727TIP3    H129596   1.318   2.563  14.830 -0.2029  1.2779 -1.6738
 2727TIP3    H229597   1.242   2.663  14.914  0.2716  0.7247 -0.5602
 2728TIP3   OH229598   6.617   4.012  15.256 -0.1907 -0.0039  0.2019
 2728TIP3    H129599   6.570   4.095  15.256  0.4090  0.3455 -0.4261
 2728TIP3    H229600   6.655   4.006  15.344  0.4833  0.8075 -0.0198
 2729TIP3   OH229601   0.951   5.803   4.221 -0.4582 -0.0100  0.0152
 2729TIP3    H129602   0.984   5.890   4.242 -0.5252 -0.0583  0.3368
 2729TIP3    H229603   1.006   5.773   4.149 -0.3377  0.2396  0.0035
 2730TIP3   OH229604   5.150   4.622  12.603  0.0778 -0.5325  0.5476
 2730TIP3    H129605   5.131   4.707  12.564  1.4296  0.1643  1.3523
 2730TIP3    H229606   5.074   4.568  12.580 -0.6526  0.7818 -0.2520
 2731TIP3   OH229607   1.332   3.533  12.142  0.1843  0.1191 -0.1358
 2731TIP3    H129608   1.358   3.445  12.167  1.7808  0.1579 -1.4266
 2731TIP3    H229609   1.315   3.578  12.225  1.5695 -0.7739  0.6721
 2732TIP3   OH229610   2.481   0.148   2.527 -0.3539  0.4744  0.4181
 2732TIP3    H129611   2.528   0.231   2.516 -1.6981  1.0366 -1.8752
 2732TIP3    H229612   2.407   0.155   2.466 -2.2899 -1.1544  2.4287
 2733TIP3   OH229613   2.122   0.780   5.574 -0.2451 -0.9694 -0.1069
 2733TIP3    H129614   2.133   0.871   5.544 -0.8218 -0.1460  2.0446
 2733TIP3    H229615   2.122   0.729   5.493  0.7149  0.8647 -1.3464
 2734TIP3   OH229616   0.377   2.385   1.493  0.1904  0.1768 -0.1681
 2734TIP3    H129617   0.386   2.427   1.408  0.6032 -2.0992 -1.3115
 2734TIP3    H229618   0.434   2.436   1.551 -0.7461  2.2756 -0.9762
 2735TIP3   OH229619   0.880   2.385  13.240 -0.3129 -0.0040 -0.3317
 2735TIP3    H129620   0.916   2.297  13.228 -2.9883 -0.8819 -3.4783
 2735TIP3    H229621   0.921   2.438  13.171 -0.8728  0.4565 -0.3169
 2736TIP3   OH229622   1.847   4.268   6.204  0.2332 -0.4236 -0.4772
 2736TIP3    H129623   1.857   4.177   6.176  1.4215 -0.4179 -0.1233
 2736TIP3    H229624   1.795   4.308   6.134 -1.9928 -1.7905  0.2809
 2737TIP3   OH229625   3.479   5.158  13.591  0.2936  0.3037  0.1959
 2737TIP3    H129626   3.410   5.191  13.534  1.5691 -0.3180 -1.8033
 2737TIP3    H229627   3.455   5.067  13.608 -0.3746  0.6461  1.1497
 2738TIP3   OH229628   4.699   2.140  12.520 -0.6097  0.1712  0.0560
 2738TIP3    H129629   4.791   2.138  12.492 -0.2408 -1.0138  1.2182
 2738TIP3    H229630   4.703   2.162  12.613 -1.4682 -0.1802  0.1834
 2739TIP3   OH229631   1.582   0.270  11.971  0.1942  0.2549  0.5753
 2739TIP3    H129632   1.648   0.303  11.910  0.0811  0.5403  0.6089
 2739TIP3    H229633   1.553   0.347  12.020  1.3621 -0.2029  2.0647
 2740TIP3   OH229634   0.943   3.243  11.619  0.1347  0.4704  0.1690
 2740TIP3    H129635   1.027   3.270  11.582  2.3409 -2.5674  2.4256
 2740TIP3    H229636   0.943   3.277  11.708 -1.2968  0.8289  0.0567
 2741TIP3   OH229637   1.092   2.832   2.984 -1.0567  0.2548  0.2165
 2741TIP3    H129638   0.999   2.812   2.990 -0.8118 -0.5912  1.6970
 2741TIP3    H229639   1.134   2.747   2.974 -0.3738  0.5023  0.8524
 2742TIP3   OH229640   3.929   4.171  13.598  0.5045 -0.1247  0.3666
 2742TIP3    H129641   3.907   4.264  13.595 -0.6559 -0.4052 -1.5340
 2742TIP3    H229642   4.013   4.164  13.553  2.1794  0.3289  3.2378
 2743TIP3   OH229643   5.018   5.070  15.719  0.3541 -0.1413 -0.1006
 2743TIP3    H129644   4.998   4.980  15.747 -1.7129  0.1853 -0.4307
 2743TIP3    H229645   5.091   5.096  15.775  0.5174 -1.7743  0.5015
 2744TIP3   OH229646   2.821   3.090   0.702 -0.7595  0.1029  0.0511
 2744TIP3    H129647   2.857   3.012   0.659  0.4294  0.7724 -0.2082
 2744TIP3    H229648   2.863   3.091   0.789  1.1637  1.7375 -0.8136
 2745TIP3   OH229649   4.006   4.248   6.032 -0.0217 -0.4293 -0.4162
 2745TIP3    H129650   4.053   4.214   5.956  0.9187 -1.5756  0.6273
 2745TIP3    H229651   3.947   4.177   6.057  1.5139 -1.1684  1.4200
 2746TIP3   OH229652   5.935   4.801  17.450  0.2799 -0.3243  0.0943
 2746TIP3    H129653   5.878   4.812  17.526 -2.0672 -2.1889 -1.2633
 2746TIP3    H229654   6.013   4.853  17.471 -0.9757  0.5998  2.9919
 2747TIP3   OH229655   1.292   3.969  17.336  0.2125  0.0309  0.3165
 2747TIP3    H129656   1.260   3.881  17.318  1.3948 -0.2628 -0.4717
 2747TIP3    H229657   1.387   3.961  17.337  0.4530  1.6401 -1.9010
 2748TIP3   OH229658   3.891   4.557  15.706  0.9792  0.1103 -0.2333
 2748TIP3    H129659   3.889   4.571  15.801 -1.0103  0.2430 -0.2638
 2748TIP3    H229660   3.970   4.603  15.677  1.5067  0.2425  1.3137
 2749TIP3   OH229661   5.929   5.669   3.219 -0.5616 -0.0762  0.2872
 2749TIP3    H129662   5.946   5.684   3.313 -0.4610  0.2392  0.2205
 2749TIP3    H229663   5.875   5.743   3.192  1.4162  1.1893 -0.4539
 2750TIP3   OH229664   4.494   6.491   1.434 -0.0796 -0.5410 -0.1590
 2750TIP3    H129665   4.470   6.560   1.496 -2.0608 -2.8426  1.8473
 2750TIP3    H229666   4.412   6.469   1.389  0.1009 -2.6612  0.4469
 2751TIP3   OH229667   3.781   4.700  12.224  0.1606  0.2858 -0.2158
 2751TIP3    H129668   3.781   4.610  12.191 -2.4625  0.5894 -1.3256
 2751TIP3    H229669   3.823   4.752  12.156 -0.9997  0.2562 -0.9886
 2752TIP3   OH229670   3.975   3.916  14.400 -0.2316 -0.6849 -0.0717
 2752TIP3    H129671   4.057   3.869  14.387  0.3651  0.7389 -2.0908
 2752TIP3    H229672   3.935   3.919  14.313 -0.5115  1.9095  0.0434
 2753TIP3   OH229673   0.985   1.619   2.025 -0.0637  0.0318  0.5471
 2753TIP3    H129674   1.001   1.709   2.052  1.1844 -1.0295  3.8826
 2753TIP3    H229675   0.890   1.612   2.016 -0.1759  1.6391  0.3186
 2754TIP3   OH229676   4.185   2.461   5.457 -0.1015 -0.6001  0.3777
 2754TIP3    H129677   4.251   2.401   5.422  1.3114  0.8767  0.3394
 2754TIP3    H229678   4.114   2.459   5.393  1.5028  0.4509 -1.5839
 2755TIP3   OH229679   4.339   2.483  14.120 -0.0152 -0.1724 -0.6956
 2755TIP3    H129680   4.281   2.484  14.195  2.3690  0.7857  1.2961
 2755TIP3    H229681   4.307   2.554  14.064  0.7839  2.3094  1.7473
 2756TIP3   OH229682   6.567   2.042  12.612 -0.4076  0.0791  0.2542
 2756TIP3    H129683   6.516   2.122  12.626 -1.2800 -0.1072 -1.6069
 2756TIP3    H229684   6.511   1.972  12.647 -0.4406  0.1005  0.2446
 2757TIP3   OH229685   5.915   1.258  14.076  0.2383  0.7692 -0.2386
 2757TIP3    H129686   5.877   1.226  13.994  0.1068 -0.1952  0.1886
 2757TIP3    H229687   6.007   1.233  14.071  0.3794  1.2976 -0.3745
 2758TIP3   OH229688   3.103   4.969  13.707 -0.1805 -0.2284  0.3920
 2758TIP3    H129689   3.031   4.990  13.648  1.1849  3.0496 -0.3293
 2758TIP3    H229690   3.174   4.940  13.650 -0.5363 -2.5485  1.0193
 2759TIP3   OH229691   4.628   5.251   5.191  0.5298 -0.3855 -0.5654
 2759TIP3    H129692   4.612   5.333   5.239  0.2255 -0.1163 -1.1134
 2759TIP3    H229693   4.693   5.205   5.244  1.6761  0.7884 -0.8957
 2760TIP3   OH229694   1.632   1.579   3.857 -0.0715  0.3914  0.4693
 2760TIP3    H129695   1.606   1.536   3.939  0.4777 -1.0873 -0.0998
 2760TIP3    H229696   1.554   1.627   3.829 -0.1519  1.2467  2.0442
 2761TIP3   OH229697   5.299   4.001   4.210 -0.3334 -0.1397  0.0506
 2761TIP3    H129698   5.237   4.047   4.154 -0.9922  2.5057  2.6955
 2761TIP3    H229699   5.384   4.017   4.169 -0.9350  0.1327 -1.1571
 2762TIP3   OH229700   3.050   1.434   1.248  0.2564  0.0287 -0.6218
 2762TIP3    H129701   3.117   1.462   1.186  0.5577 -1.5581 -1.0513
 2762TIP3    H229702   2.985   1.389   1.194 -0.0831 -0.3298  0.0729
 2763TIP3   OH229703   0.510   5.049   5.666 -0.3615 -0.7082 -0.3348
 2763TIP3    H129704   0.468   5.089   5.590 -1.2106 -1.7841 -0.4506
 2763TIP3    H229705   0.593   5.096   5.674 -1.6792  1.7606  0.1385
 2764TIP3   OH229706   6.571   2.538   1.421  0.0436  0.9353 -0.0383
 2764TIP3    H129707   6.630   2.469   1.391 -0.6941  0.1754  0.2211
 2764TIP3    H229708   6.625   2.617   1.424  1.1500  0.1701  0.6306
 2765TIP3   OH229709   1.581   2.475  16.564 -0.1908 -0.1201  0.1612
 2765TIP3    H129710   1.604   2.568  16.573  0.2028 -0.0953 -1.0119
 2765TIP3    H229711   1.661   2.433  16.534 -0.4797 -0.7851  0.3092
 2766TIP3   OH229712   4.652   1.626   2.172  0.1438 -0.3165 -0.4093
 2766TIP3    H129713   4.631   1.557   2.109 -0.4841 -0.8120  0.3210
 2766TIP3    H229714   4.745   1.645   2.157  0.2021 -0.9840 -0.9387
 2767TIP3   OH229715   2.349   5.900  13.294 -0.4230 -0.8340 -0.1777
 2767TIP3    H129716   2.431   5.894  13.245  0.6406  2.4844  0.8805
 2767TIP3    H229717   2.288   5.941  13.232 -0.2118 -0.1278  0.0713
 2768TIP3   OH229718   1.929   3.122   1.824 -0.7451  0.3495 -0.3443
 2768TIP3    H129719   1.990   3.113   1.897 -1.5227 -2.1365  0.1000
 2768TIP3    H229720   1.947   3.209   1.788  1.6645  0.4857  0.9746
 2769TIP3   OH229721   5.995   1.572   2.367  0.0884 -0.2508  0.2603
 2769TIP3    H129722   6.001   1.492   2.419 -0.9856  0.0209  0.8397
 2769TIP3    H229723   6.078   1.617   2.381  1.3162 -1.9454 -1.2535
 2770TIP3   OH229724   6.644   3.094   4.310  0.0210 -0.3825 -0.1587
 2770TIP3    H129725   6.735   3.066   4.303  0.3591  0.6907 -0.2610
 2770TIP3    H229726   6.639   3.137   4.395 -0.3302 -0.2412 -0.2511
 2771TIP3   OH229727   0.458   3.856  17.045 -0.3069  0.5488  0.3745
 2771TIP3    H129728   0.514   3.796  17.095 -0.0777 -0.7275 -1.3138
 2771TIP3    H229729   0.512   3.932  17.028  1.6871 -1.3001 -2.6108
 2772TIP3   OH229730   0.759   1.959   2.933 -0.3575  0.0417  0.2434
 2772TIP3    H129731   0.839   1.967   2.985  1.9154  0.1572 -2.9614
 2772TIP3    H229732   0.761   1.869   2.900 -2.6750 -0.5928  1.6112
 2773TIP3   OH229733   0.221   1.454  16.926  0.8817  0.3675  0.9926
 2773TIP3    H129734   0.172   1.379  16.961  0.5824  0.4983  0.8538
 2773TIP3    H229735   0.181   1.530  16.969 -1.0854  0.7655 -1.3533
 2774TIP3   OH229736   0.109   3.047   2.912  0.3927 -0.1009 -0.2271
 2774TIP3    H129737   0.034   2.996   2.944  0.2383  0.3562  0.1357
 2774TIP3    H229738   0.080   3.138   2.915  1.2892  0.1609  0.8153
 2775TIP3   OH229739   2.936   3.359   4.289  0.1160 -0.0431  0.2225
 2775TIP3    H129740   2.980   3.435   4.328  0.0891 -0.7237  1.6455
 2775TIP3    H229741   2.848   3.361   4.326 -0.7714  0.7100 -1.7912
 2776TIP3   OH229742   1.040   4.504   3.027  0.1259 -0.5022 -0.3140
 2776TIP3    H129743   1.043   4.440   2.956 -2.2389 -1.1334  0.0782
 2776TIP3    H229744   1.022   4.587   2.983  0.2464 -0.6110 -0.5758
 2777TIP3   OH229745   1.580   3.778   4.485  0.0020 -0.5324 -0.0698
 2777TIP3    H129746   1.626   3.694   4.481 -2.1461 -1.8087  0.1873
 2777TIP3    H229747   1.512   3.764   4.551  1.6579  2.5703  2.5269
 2778TIP3   OH229748   4.895   3.939   3.101 -0.1229  0.2587  0.1503
 2778TIP3    H129749   4.866   4.026   3.074 -0.6585 -0.2792 -1.0905
 2778TIP3    H229750   4.925   3.897   3.020  0.1784 -0.6892  0.7357
 2779TIP3   OH229751   4.802   2.907  16.049 -0.3155 -0.1084 -0.8908
 2779TIP3    H129752   4.819   2.996  16.081  1.9924 -1.0704  0.8869
 2779TIP3    H229753   4.830   2.908  15.958 -0.5533  1.0619 -0.9635
 2780TIP3   OH229754   4.100   5.607  12.400 -0.2812 -0.3085  0.2543
 2780TIP3    H129755   4.104   5.695  12.364  0.2550  0.2156  1.5420
 2780TIP3    H229756   4.052   5.616  12.482  1.7329 -0.7695  1.5556
 2781TIP3   OH229757   5.042   5.175   4.277 -0.4819 -0.8808 -0.1595
 2781TIP3    H129758   5.051   5.090   4.234 -0.4304 -1.4126  0.8743
 2781TIP3    H229759   5.059   5.239   4.208  1.4081 -1.7297 -0.5285
 2782TIP3   OH229760   6.218   0.042   3.935 -0.3700 -0.4261 -0.9134
 2782TIP3    H129761   6.295  -0.016   3.931 -0.2920 -0.2607 -1.8230
 2782TIP3    H229762   6.248   0.125   3.900 -0.2117  0.5152  1.2748
 2783TIP3   OH229763   3.557   6.043   5.919 -0.2709  0.4482 -0.1471
 2783TIP3    H129764   3.546   6.063   5.826 -0.8869  0.2132 -0.1306
 2783TIP3    H229765   3.504   6.108   5.964 -1.5784 -0.6236 -0.0585
 2784TIP3   OH229766   0.568   0.433  13.546 -0.6371  0.0940  0.3776
 2784TIP3    H129767   0.653   0.460  13.513 -0.6928  1.3159  1.1822
 2784TIP3    H229768   0.524   0.394  13.470  0.7232 -0.8182  0.0265
 2785TIP3   OH229769   6.567   6.052   4.500  0.5655 -0.9216 -0.1712
 2785TIP3    H129770   6.558   6.126   4.439  0.3320 -1.2679 -0.5612
 2785TIP3    H229771   6.636   5.997   4.461 -1.0130 -2.2254 -1.2658
 2786TIP3   OH229772   4.707   2.060   4.043  0.2547 -0.1921 -0.1322
 2786TIP3    H129773   4.708   2.063   4.139 -2.7729  1.1319 -0.0313
 2786TIP3    H229774   4.768   1.989   4.021  2.0318  0.3016  2.6711
 2787TIP3   OH229775   3.684   6.038   3.776  0.0008 -0.1918 -0.2918
 2787TIP3    H129776   3.691   5.944   3.759  1.2586 -0.4993  1.6335
 2787TIP3    H229777   3.761   6.076   3.732 -1.8184  0.3893 -3.2768
 2788TIP3   OH229778   4.248   5.436   0.979  0.0111  0.3013  0.2467
 2788TIP3    H129779   4.332   5.480   0.973 -0.7826  2.0789  1.4142
 2788TIP3    H229780   4.235   5.420   1.072 -0.3422 -1.2463 -0.0364
 2789TIP3   OH229781   3.046   3.766  16.473  0.2974  0.3577 -0.3394
 2789TIP3    H129782   3.063   3.857  16.497  2.8800 -0.2597  0.5673
 2789TIP3    H229783   3.002   3.771  16.389 -1.4996  2.4588  0.6298
 2790TIP3   OH229784   3.802   2.224  15.145  0.2309  0.1477 -0.3407
 2790TIP3    H129785   3.764   2.155  15.200 -0.1769  0.1492 -0.6223
 2790TIP3    H229786   3.730   2.285  15.128  0.5705  0.6057 -0.1594
 2791TIP3   OH229787   5.267   1.170  12.350 -0.0039 -0.1065  0.8109
 2791TIP3    H129788   5.262   1.198  12.259 -2.9471 -0.2932  0.8254
 2791TIP3    H229789   5.331   1.098  12.349  0.6405  0.4416 -0.9245
 2792TIP3   OH229790   0.759   5.352   6.343 -0.3177 -0.0551 -0.4489
 2792TIP3    H129791   0.741   5.326   6.434 -2.5108 -0.0455 -0.8311
 2792TIP3    H229792   0.851   5.328   6.329 -0.4709 -1.7918  1.1818
 2793TIP3   OH229793   2.843   5.873  16.938 -0.9022 -0.2681 -0.2539
 2793TIP3    H129794   2.792   5.796  16.964 -1.6467  0.9455  2.1772
 2793TIP3    H229795   2.820   5.940  17.002 -0.6987  2.1953 -2.5723
 2794TIP3   OH229796   3.773   1.358  13.346 -0.3599  0.5334  0.3982
 2794TIP3    H129797   3.683   1.393  13.346 -1.2098 -1.4986  1.1852
 2794TIP3    H229798   3.785   1.326  13.435  0.3356 -1.1804 -0.2897
 2795TIP3   OH229799   3.633   4.455   1.852  0.1221 -0.1245 -0.0397
 2795TIP3    H129800   3.657   4.371   1.892  1.5727 -0.3337 -1.2638
 2795TIP3    H229801   3.625   4.436   1.759 -1.3713  0.7400 -0.1119
 2796TIP3   OH229802   5.184   3.578  13.623 -0.1849  0.5784 -0.1758
 2796TIP3    H129803   5.201   3.671  13.610  2.4972  0.3764  1.2601
 2796TIP3    H229804   5.133   3.552  13.546 -0.4331  3.0593 -0.9338
 2797TIP3   OH229805   1.233   3.891   6.076 -0.5673 -0.1834  0.0224
 2797TIP3    H129806   1.240   3.798   6.097 -2.4195 -0.1190  1.1849
 2797TIP3    H229807   1.267   3.936   6.154 -0.2652  0.1199 -0.2800
 2798TIP3   OH229808   3.243   1.403  17.083  0.2475  0.0362 -0.2546
 2798TIP3    H129809   3.191   1.427  17.006  0.6203  3.0553  0.3343
 2798TIP3    H229810   3.284   1.320  17.058 -0.3060  0.4685 -2.9678
 2799TIP3   OH229811   4.066   1.946  13.275 -0.7133  0.1599  0.4807
 2799TIP3    H129812   4.141   1.968  13.220 -0.4746  1.7599  1.3871
 2799TIP3    H229813   4.068   1.850  13.281 -0.0549  0.0238 -1.2825
 2800TIP3   OH229814   5.627   4.759   5.371 -0.5591 -0.3948 -0.0885
 2800TIP3    H129815   5.622   4.677   5.322 -0.6174 -1.0280  0.9529
 2800TIP3    H229816   5.537   4.792   5.372 -1.2829 -2.1901  2.5699
 2801TIP3   OH229817   1.732   1.549  14.278  0.0900  0.1310 -0.2844
 2801TIP3    H129818   1.801   1.483  14.268 -0.7590 -0.7750 -0.2639
 2801TIP3    H229819   1.723   1.559  14.373 -1.8101 -1.9392 -0.1836
 2802TIP3   OH229820   6.291   1.481   0.706 -0.3270 -0.4772  0.3247
 2802TIP3    H129821   6.302   1.433   0.788 -2.6016 -1.7547 -0.0246
 2802TIP3    H229822   6.364   1.452   0.651  0.9719  0.0620  1.7039
 2803TIP3   OH229823   5.258   0.466  13.693  0.2191 -0.2605 -0.4209
 2803TIP3    H129824   5.258   0.557  13.663  0.9542 -0.1490 -0.0994
 2803TIP3    H229825   5.338   0.428  13.656 -0.0213 -0.7464 -0.4534
 2804TIP3   OH229826   5.852   3.925   3.383 -0.4735 -0.9309 -0.1597
 2804TIP3    H129827   5.811   3.934   3.297 -1.4892  0.9965  0.4701
 2804TIP3    H229828   5.791   3.871   3.433 -1.1459  0.0357  0.0854
 2805TIP3   OH229829   3.801   5.164   0.557  0.4885 -0.2855 -0.2405
 2805TIP3    H129830   3.848   5.088   0.523 -0.6824 -0.6449 -1.1327
 2805TIP3    H229831   3.742   5.128   0.624  0.8823  0.0374  0.2846
 2806TIP3   OH229832   2.625   5.427   5.147 -0.4421 -0.4919 -0.3334
 2806TIP3    H129833   2.607   5.352   5.204 -1.7735  1.2256  1.6761
 2806TIP3    H229834   2.721   5.428   5.138 -0.1356 -0.7299  2.1450
 2807TIP3   OH229835   2.263   4.605  14.284 -0.1707  0.0348 -0.3125
 2807TIP3    H129836   2.297   4.676  14.339  1.8577 -0.9767 -0.1454
 2807TIP3    H229837   2.334   4.587  14.222 -0.3489 -2.2216  0.0463
 2808TIP3   OH229838   4.893   0.917   3.132  0.1029  0.1334 -0.2426
 2808TIP3    H129839   4.981   0.883   3.150  0.0513  0.0728 -0.1073
 2808TIP3    H229840   4.886   0.997   3.184  0.2939  0.4575 -0.7104
 2809TIP3   OH229841   4.744   2.095   4.619 -0.3208  0.5767  0.1345
 2809TIP3    H129842   4.835   2.076   4.643 -0.4754 -0.1482  0.1733
 2809TIP3    H229843   4.700   2.107   4.703 -0.1186  1.6325  0.0956
 2810TIP3   OH229844   0.232   1.985   0.884 -0.0730  0.3373 -0.3638
 2810TIP3    H129845   0.194   1.991   0.796 -1.8017 -1.2437  0.2009
 2810TIP3    H229846   0.202   2.065   0.928 -0.8235  0.2243 -0.6501
 2811TIP3   OH229847   4.931   5.009  11.420  0.0941  0.3732 -0.4368
 2811TIP3    H129848   4.998   5.062  11.462 -1.0148  0.5461  1.2135
 2811TIP3    H229849   4.848   5.051  11.445 -0.6756 -0.1371 -1.9626
 2812TIP3   OH229850   5.739   6.360  12.574 -0.4068  0.1759  0.2878
 2812TIP3    H129851   5.691   6.415  12.637 -0.3779  0.3118  0.1942
 2812TIP3    H229852   5.789   6.299  12.627 -1.2323 -0.4308  0.3751
 2813TIP3   OH229853   1.284   2.747  13.616 -0.0414 -0.1024 -0.1135
 2813TIP3    H129854   1.349   2.755  13.685 -2.4267 -1.3607  2.4838
 2813TIP3    H229855   1.292   2.656  13.586 -0.2924 -0.1297 -0.0975
 2814TIP3   OH229856   5.827   1.385   4.969  0.5384 -0.0091  0.5270
 2814TIP3    H129857   5.825   1.374   5.064 -1.5564 -1.4910  0.3914
 2814TIP3    H229858   5.864   1.303   4.936 -2.5834 -1.3650 -0.0011
 2815TIP3   OH229859   1.548   3.880   4.218 -0.5400 -0.0554 -0.1666
 2815TIP3    H129860   1.639   3.897   4.196 -0.1412 -0.0366  1.3587
 2815TIP3    H229861   1.550   3.856   4.311 -2.2587  1.4778  0.3245
 2816TIP3   OH229862   0.916   0.336   2.654 -0.3529  0.6369 -0.2642
 2816TIP3    H129863   0.893   0.418   2.698  1.2547 -0.1284  2.1878
 2816TIP3    H229864   1.011   0.329   2.664 -0.4586 -1.5576 -0.3380
 2817TIP3   OH229865   4.893   6.681   6.020  0.2759  0.1837  0.7126
 2817TIP3    H129866   4.804   6.646   6.019 -0.2902  1.5355 -0.5288
 2817TIP3    H229867   4.949   6.604   6.011 -0.8840 -0.5162 -1.0964
 2818TIP3   OH229868   2.732   3.463  11.962  0.2275 -0.4565  0.1487
 2818TIP3    H129869   2.807   3.522  11.975  0.4549 -0.6968 -0.0383
 2818TIP3    H229870   2.763   3.378  11.994  0.7316 -1.0166 -1.6713
 2819TIP3   OH229871   4.868   4.762  11.561  0.0046 -0.1254 -0.0367
 2819TIP3    H129872   4.813   4.732  11.489 -0.0085 -2.7655  0.9617
 2819TIP3    H229873   4.884   4.855  11.543 -1.6542 -0.2171 -2.3208
 2820TIP3   OH229874   3.089   6.716   5.444 -0.4659 -0.1847 -0.3762
 2820TIP3    H129875   3.056   6.641   5.494 -1.0386  0.4223  0.1838
 2820TIP3    H229876   3.182   6.720   5.467  0.2105 -2.2648 -2.4297
 2821TIP3   OH229877   3.045   2.932  15.546 -0.2722 -0.3060  0.1566
 2821TIP3    H129878   3.043   2.950  15.640 -0.7722  1.0819 -0.0980
 2821TIP3    H229879   3.115   2.988  15.513 -0.8385  0.0330 -0.4632
 2822TIP3   OH229880   1.076   2.937   5.998 -0.3997  0.0107  0.3442
 2822TIP3    H129881   1.109   2.860   6.043  1.4664  1.6148  1.8776
 2822TIP3    H229882   1.151   2.971   5.949 -0.7935  1.5920  0.7820
 2823TIP3   OH229883   6.094   1.024  15.755  0.0256  0.2847  0.7966
 2823TIP3    H129884   6.092   0.949  15.814 -0.4259  0.1943  0.6672
 2823TIP3    H229885   6.148   1.089  15.801  1.9122 -0.7475  0.1356
 2824TIP3   OH229886   3.517   4.287  16.429  0.4347 -0.5346  0.0778
 2824TIP3    H129887   3.538   4.380  16.420 -0.4226 -0.0721  2.1988
 2824TIP3    H229888   3.538   4.267  16.520 -0.2500 -2.2030 -0.1011
 2825TIP3   OH229889   4.757   2.643   1.207 -0.7172  0.6456 -0.1652
 2825TIP3    H129890   4.839   2.661   1.252  1.3280 -3.1303 -1.9096
 2825TIP3    H229891   4.694   2.624   1.277  0.2097  2.2390  1.1630
 2826TIP3   OH229892   2.867   6.420  16.002  0.1148 -0.6969 -0.6426
 2826TIP3    H129893   2.853   6.437  15.909  1.4428  3.1904 -0.3363
 2826TIP3    H229894   2.946   6.366  16.005 -0.1293 -1.1432 -1.7776
 2827TIP3   OH229895   2.970   0.406  11.387 -0.6577  0.5270 -0.2517
 2827TIP3    H129896   2.891   0.453  11.414 -0.8048  0.7580 -1.0808
 2827TIP3    H229897   2.970   0.409  11.292 -0.0159 -0.0868 -0.2861
 2828TIP3   OH229898   1.551   2.497   5.228  0.3450  0.1652 -0.2606
 2828TIP3    H129899   1.544   2.592   5.215 -2.0549  0.0361 -0.3240
 2828TIP3    H229900   1.487   2.477   5.297  3.0480 -1.0433  2.0970
 2829TIP3   OH229901   6.581   3.943   2.016  0.1958  0.6745 -0.3799
 2829TIP3    H129902   6.549   3.905   1.934  0.9182  1.5831 -1.1020
 2829TIP3    H229903   6.635   4.017   1.988  0.8213  0.7191  0.9007
 2830TIP3   OH229904   2.520   1.595  14.058 -0.3234  0.6039 -0.7013
 2830TIP3    H129905   2.458   1.664  14.035 -0.2918  0.0753 -2.4857
 2830TIP3    H229906   2.466   1.516  14.064  0.0729  0.2584 -1.6268
 2831TIP3   OH229907   5.633   5.508   4.687  0.6141  0.0122 -0.0865
 2831TIP3    H129908   5.615   5.594   4.726 -0.0837  0.3138 -1.0432
 2831TIP3    H229909   5.720   5.484   4.721  1.2498  1.5314 -0.5649
 2832TIP3   OH229910   5.058   0.337   1.713 -0.5392  0.3472 -0.8784
 2832TIP3    H129911   5.034   0.248   1.685  0.7980 -0.1202 -0.5847
 2832TIP3    H229912   5.046   0.336   1.808 -0.7883  0.5735 -0.9057
 2833TIP3   OH229913   4.122   3.236   1.984  0.8907 -0.1553  0.1962
 2833TIP3    H129914   4.043   3.232   2.038  1.7828 -1.1369  1.4628
 2833TIP3    H229915   4.171   3.311   2.018 -1.3961  3.4304 -3.4295
 2834TIP3   OH229916   2.193   5.092   3.924 -0.2192 -0.4301 -0.4058
 2834TIP3    H129917   2.168   5.176   3.963  0.4823  0.1725 -1.2346
 2834TIP3    H229918   2.110   5.044   3.918 -0.4646 -0.2567  1.1123
 2835TIP3   OH229919   4.594   6.476   2.587 -0.1967 -0.1770  0.4026
 2835TIP3    H129920   4.553   6.422   2.519  1.2161  0.9291 -1.4665
 2835TIP3    H229921   4.672   6.426   2.612 -0.3005 -0.2267  0.6219
 2836TIP3   OH229922   4.258   2.699  13.184 -0.6416 -0.1796  0.6283
 2836TIP3    H129923   4.292   2.622  13.228  2.1347  0.9183  0.6011
 2836TIP3    H229924   4.264   2.679  13.091  3.3524  1.1097  0.4202
 2837TIP3   OH229925   1.504   3.768  15.727 -0.2449 -0.3714 -0.2816
 2837TIP3    H129926   1.524   3.675  15.726 -0.3024 -0.3964  0.3621
 2837TIP3    H229927   1.564   3.805  15.792  0.2562  0.1564 -1.0191
 2838TIP3   OH229928   2.780   2.089  12.990  0.1082  0.3175  0.0261
 2838TIP3    H129929   2.866   2.079  12.949  0.4327  1.3557  0.4278
 2838TIP3    H229930   2.732   2.010  12.965  0.9668  0.0165 -0.7098
 2839TIP3   OH229931   6.319   2.624  13.940  0.6841 -0.3517 -0.6743
 2839TIP3    H129932   6.347   2.702  13.987 -0.5663  0.0453 -0.5444
 2839TIP3    H229933   6.244   2.654  13.888  1.1078 -1.1297 -1.7613
 2840TIP3   OH229934   4.924   0.823  17.350 -0.5233 -0.2237  0.3403
 2840TIP3    H129935   4.979   0.891  17.388  0.5480 -0.7248 -0.2954
 2840TIP3    H229936   4.964   0.803  17.266 -1.2745 -1.0907  0.1732
 2841TIP3   OH229937   0.584   4.442  11.948 -0.2328 -0.7062  0.2321
 2841TIP3    H129938   0.577   4.347  11.953  1.8994 -0.8411  2.0828
 2841TIP3    H229939   0.501   4.474  11.984 -1.5017 -1.7918 -1.5488
 2842TIP3   OH229940   4.509   5.123  14.163 -0.1746  0.0983 -0.5510
 2842TIP3    H129941   4.538   5.059  14.228  2.2931 -0.1625 -1.7950
 2842TIP3    H229942   4.575   5.119  14.094 -1.6185  1.8017 -2.1365
 2843TIP3   OH229943   3.697   5.174   2.541  0.2659 -0.0690  0.1816
 2843TIP3    H129944   3.696   5.096   2.486  2.7638  0.6345 -0.9943
 2843TIP3    H229945   3.614   5.219   2.521 -0.2818 -1.3904 -0.6286
 2844TIP3   OH229946   2.601   5.398   1.770  0.0862  0.7209 -0.1568
 2844TIP3    H129947   2.615   5.321   1.714  1.0513 -0.5959  1.7745
 2844TIP3    H229948   2.674   5.397   1.832 -2.0926  0.6628  2.6551
 2845TIP3   OH229949   5.911   0.683  11.004 -0.5623  0.4689 -0.6034
 2845TIP3    H129950   5.973   0.744  11.043  0.6189 -2.1326  1.8887
 2845TIP3    H229951   5.961   0.640  10.934  0.4178 -1.3115  1.1141
 2846TIP3   OH229952   3.059   5.126  12.120  0.2980  0.4623  0.0780
 2846TIP3    H129953   3.060   5.165  12.207  0.5781 -0.9953  0.7683
 2846TIP3    H229954   3.127   5.172  12.072  0.7029  0.7310  0.8971
 2847TIP3   OH229955   1.008   4.782   1.965 -0.1381  0.0776  0.2767
 2847TIP3    H129956   1.087   4.752   1.920 -0.1376 -1.3264  1.1691
 2847TIP3    H229957   0.937   4.765   1.903 -0.2135 -2.4091  0.9561
 2848TIP3   OH229958   0.709   3.764   2.385 -0.7171 -0.1651  0.5611
 2848TIP3    H129959   0.764   3.726   2.317 -1.2879  1.6535 -0.9914
 2848TIP3    H229960   0.665   3.688   2.425  1.4340 -1.4712  0.5875
 2849TIP3   OH229961   1.801   4.803   1.639  0.3821  0.3328 -0.0083
 2849TIP3    H129962   1.734   4.764   1.695  0.9431 -1.4881 -0.5674
 2849TIP3    H229963   1.860   4.731   1.618  0.5831  1.1170 -2.3741
 2850TIP3   OH229964   3.560   1.568   2.179 -0.0813  0.7480  0.1556
 2850TIP3    H129965   3.485   1.625   2.193 -0.5769 -0.2793  2.0633
 2850TIP3    H229966   3.636   1.623   2.196 -0.2297  2.0902 -2.7952
 2851TIP3   OH229967   2.262   1.552  17.273  0.2206  0.2537 -0.9458
 2851TIP3    H129968   2.347   1.520  17.244 -0.7691 -1.6620 -1.9145
 2851TIP3    H229969   2.233   1.487  17.338 -1.5314 -0.5550 -2.4301
 2852TIP3   OH229970   2.062   1.877   0.929  0.0132  0.5290  0.2970
 2852TIP3    H129971   2.073   1.920   0.844  1.6500  1.7064  1.0727
 2852TIP3    H229972   1.998   1.807   0.912  2.9123 -1.6608 -2.7705
 2853TIP3   OH229973   3.851   1.195  11.340 -0.0444  0.0052  0.3937
 2853TIP3    H129974   3.922   1.131  11.342  0.2975  0.4052  1.5337
 2853TIP3    H229975   3.889   1.272  11.297 -0.2339 -0.2784 -0.3008
 2854TIP3   OH229976   1.134   5.411   6.661  0.4854 -0.1163  0.1920
 2854TIP3    H129977   1.123   5.384   6.752 -1.0781 -0.3278 -0.0227
 2854TIP3    H229978   1.151   5.505   6.665  0.5948 -0.1556  0.7108
 2855TIP3   OH229979   1.350   5.056  15.728  0.0831  0.3293  0.6310
 2855TIP3    H129980   1.420   5.076  15.666 -0.1680 -0.8825 -0.0805
 2855TIP3    H229981   1.280   5.019  15.674 -0.1052 -0.8270  1.6286
 2856TIP3   OH229982   5.842   2.389   0.309  0.0100 -0.0430 -0.0080
 2856TIP3    H129983   5.769   2.451   0.315  0.1684  0.1211  0.2064
 2856TIP3    H229984   5.911   2.428   0.362  0.3258 -0.0991 -0.3780
 2857TIP3   OH229985   5.203   5.951  15.561  0.3954 -0.1720 -0.1848
 2857TIP3    H129986   5.248   6.031  15.537  3.4159 -1.5731  0.3213
 2857TIP3    H229987   5.172   5.966  15.650  0.8173  0.4829 -0.1467
 2858TIP3   OH229988   4.123   6.238  13.848  0.2638  0.0133  0.0549
 2858TIP3    H129989   4.052   6.174  13.852 -0.1843  0.4029 -1.1122
 2858TIP3    H229990   4.093   6.303  13.784  0.3433  1.8247  1.7332
 2859TIP3   OH229991   0.764   6.389  10.677 -0.0172  0.2043  0.1011
 2859TIP3    H129992   0.825   6.337  10.730  0.2715  0.2790 -0.1612
 2859TIP3    H229993   0.686   6.396  10.732 -0.1087 -0.6242  0.0837
 2860TIP3   OH229994   6.344   0.998   3.333 -0.1794 -1.0098 -0.9458
 2860TIP3    H129995   6.281   0.927   3.345 -0.1145 -0.9341 -0.1110
 2860TIP3    H229996   6.347   1.012   3.238 -0.3039 -2.0197 -1.1068
 2861TIP3   OH229997   4.823   5.525   3.937 -0.5647  0.1469 -0.0301
 2861TIP3    H129998   4.811   5.616   3.908 -0.6822  0.0170 -0.3870
 2861TIP3    H229999   4.822   5.474   3.857 -1.8785 -0.3247  0.2632
 2862TIP3   OH230000   1.696   1.693   1.760 -0.2626 -0.2973 -0.6081
 2862TIP3    H130001   1.682   1.604   1.726  1.6827  0.1562 -2.9053
 2862TIP3    H230002   1.647   1.749   1.699 -0.5515  0.2978  0.1622
 2863TIP3   OH230003   1.986   4.364  11.602 -0.3229  0.6547 -0.4852
 2863TIP3    H130004   1.953   4.385  11.514  0.0816  0.9373 -0.5714
 2863TIP3    H230005   2.024   4.446  11.633  0.9436  0.1588 -0.6667
 2864TIP3   OH230006   2.704   3.114  11.271 -0.2561  0.3660 -0.3948
 2864TIP3    H130007   2.744   3.199  11.288 -1.2249  0.8947 -0.6503
 2864TIP3    H230008   2.636   3.106  11.339  2.2102 -1.9123  2.0446
 2865TIP3   OH230009   3.789   5.443   5.739 -0.4396  0.3309  0.7083
 2865TIP3    H130010   3.786   5.379   5.811 -4.7755 -0.9688 -0.2933
 2865TIP3    H230011   3.781   5.528   5.783 -0.0193 -0.2075  1.8746
 2866TIP3   OH230012   2.303   1.882   0.057 -0.1546 -0.7431  0.0575
 2866TIP3    H130013   2.374   1.895   0.119 -0.7971 -0.8926  0.8401
 2866TIP3    H230014   2.343   1.833  -0.015  1.0919  1.1595 -0.6216
 2867TIP3   OH230015   2.774   3.117   0.989  0.0739 -0.6874  0.2947
 2867TIP3    H130016   2.776   3.189   1.053  1.0829 -0.2455 -0.2162
 2867TIP3    H230017   2.860   3.075   0.997  1.2550  0.9232 -2.4591
 2868TIP3   OH230018   4.538   5.305  17.215  0.6546  0.1716 -0.3708
 2868TIP3    H130019   4.566   5.397  17.220  0.3080  0.2559  0.0469
 2868TIP3    H230020   4.466   5.307  17.152 -0.2476  0.4120  0.6517
 2869TIP3   OH230021   6.643   2.525  15.652 -0.2228  0.4264  0.2249
 2869TIP3    H130022   6.720   2.471  15.638 -0.6722 -1.1017  3.0185
 2869TIP3    H230023   6.571   2.474  15.616 -0.3300  0.3375  0.5627
 2870TIP3   OH230024   1.019   6.132  12.215  0.2425  1.1018  0.2380
 2870TIP3    H130025   1.091   6.076  12.187  0.2614  0.5382  1.3624
 2870TIP3    H230026   1.036   6.149  12.308 -0.6744  1.5713  0.3331
 2871TIP3   OH230027   2.494   5.770  17.398  0.0197  0.3838  0.2901
 2871TIP3    H130028   2.543   5.741  17.474  2.7240  0.5726 -1.2621
 2871TIP3    H230029   2.481   5.691  17.346  0.1741  0.6039 -0.0887
 2872TIP3   OH230030   5.370   4.877   1.989 -0.1294 -0.2070  0.1551
 2872TIP3    H130031   5.435   4.947   1.996 -1.9825  1.5416  0.5128
 2872TIP3    H230032   5.401   4.823   1.916  1.2856  1.0242 -0.2055
 2873TIP3   OH230033   1.420   4.581   1.389  0.1668  0.0533 -0.2644
 2873TIP3    H130034   1.501   4.631   1.376 -0.1772  1.4409  2.2206
 2873TIP3    H230035   1.403   4.588   1.483 -2.8690 -0.1626 -0.7043
 2874TIP3   OH230036   3.726   3.808   1.258  0.6969 -0.0102  0.0983
 2874TIP3    H130037   3.703   3.840   1.171  0.5503 -0.4483 -0.0251
 2874TIP3    H230038   3.786   3.735   1.242 -1.4778 -1.9565  0.2315
 2875TIP3   OH230039   1.035   4.994   3.034  0.2088  0.2188  0.1003
 2875TIP3    H130040   1.001   5.050   3.104  0.5960 -1.5578  1.8162
 2875TIP3    H230041   0.959   4.975   2.980 -0.3224  0.8677  0.5993
 2876TIP3   OH230042   2.240   1.003   5.459 -0.5531 -0.1335  0.1747
 2876TIP3    H130043   2.330   1.007   5.428 -0.2363 -1.7537  0.8136
 2876TIP3    H230044   2.188   1.036   5.385  0.4234 -1.0333 -0.9479
 2877TIP3   OH230045   6.490   3.532  14.391  0.5440 -0.0561 -0.0933
 2877TIP3    H130046   6.513   3.468  14.458  1.2611 -0.8867 -1.0985
 2877TIP3    H230047   6.561   3.527  14.327 -1.1361 -0.8436 -2.0068
 2878TIP3   OH230048   3.673   6.671  12.785 -1.1913  0.1375 -0.4283
 2878TIP3    H130049   3.712   6.610  12.722 -0.7172 -0.8860  0.8118
 2878TIP3    H230050   3.639   6.614  12.854 -0.6870  1.2920  0.7912
 2879TIP3   OH230051   5.367   4.305   3.384 -0.4158 -0.6478  0.3155
 2879TIP3    H130052   5.383   4.214   3.361 -0.0336 -0.3458 -0.6531
 2879TIP3    H230053   5.393   4.355   3.307  1.0099  0.4141  1.4135
 2880TIP3   OH230054   1.538   5.283   1.387  0.4104  0.0216 -0.2054
 2880TIP3    H130055   1.596   5.232   1.330 -0.9587 -0.7133 -1.0257
 2880TIP3    H230056   1.457   5.231   1.390 -0.6481  1.6109 -0.1408
 2881TIP3   OH230057   2.476   2.213   1.188  0.2892 -0.6758  0.4900
 2881TIP3    H130058   2.456   2.149   1.256 -3.5508  0.3864  0.5562
 2881TIP3    H230059   2.407   2.201   1.122  1.1111  1.5231 -0.8834
 2882TIP3   OH230060   1.188   4.912  13.432 -0.0316  0.1052 -0.0235
 2882TIP3    H130061   1.139   4.836  13.463  0.9885 -0.5125  0.1092
 2882TIP3    H230062   1.268   4.875  13.396  0.2917  1.0950 -0.3390
 2883TIP3   OH230063   3.389   1.601  16.694  0.0942  0.3013 -0.0055
 2883TIP3    H130064   3.451   1.529  16.703  0.4011  0.6704  0.9633
 2883TIP3    H230065   3.365   1.601  16.601 -1.1108 -2.0201  0.2427
 2884TIP3   OH230066   3.738   4.151  14.101 -0.2643  0.0661  0.1369
 2884TIP3    H130067   3.654   4.193  14.083 -0.7749 -1.1791 -0.5189
 2884TIP3    H230068   3.788   4.162  14.020 -0.1638 -0.0454  0.1827
 2885TIP3   OH230069   5.146   2.407  15.545  0.0005  0.0566  0.4640
 2885TIP3    H130070   5.125   2.367  15.630  0.4625  0.5191  0.8000
 2885TIP3    H230071   5.070   2.388  15.491 -0.7550  0.6278  1.2891
 2886TIP3   OH230072   6.478   1.829   2.261 -0.2090  0.0375 -0.4821
 2886TIP3    H130073   6.407   1.833   2.197  0.2566  0.1841 -0.9929
 2886TIP3    H230074   6.529   1.752   2.235 -0.0773  0.0366 -0.2250
 2887TIP3   OH230075   1.292   1.619   2.808 -0.3227  0.0408  0.2448
 2887TIP3    H130076   1.299   1.674   2.730  0.0622 -0.6745 -0.2442
 2887TIP3    H230077   1.248   1.540   2.777  1.3380 -0.9695  0.3334
 2888TIP3   OH230078   4.006   6.505   1.868  0.3772  0.0623 -0.2040
 2888TIP3    H130079   3.925   6.531   1.824  0.4339 -1.3204 -1.1803
 2888TIP3    H230080   4.070   6.570   1.840 -0.6421  1.9697  1.6326
 2889TIP3   OH230081   0.438   0.160   3.300  0.3585  0.3837  0.7811
 2889TIP3    H130082   0.383   0.237   3.287 -1.3078 -0.8648  0.0798
 2889TIP3    H230083   0.524   0.186   3.268 -0.1669  1.9470  0.5706
 2890TIP3   OH230084   3.015   1.424   0.140 -0.2849 -0.1700 -0.7101
 2890TIP3    H130085   3.051   1.337   0.124  0.6360 -0.0025  0.3346
 2890TIP3    H230086   3.010   1.464   0.054  0.1067 -0.9357 -1.0981
 2891TIP3   OH230087   4.095   3.856  15.094  0.3329  0.4440  0.3633
 2891TIP3    H130088   4.135   3.912  15.028 -1.8098 -0.3886 -1.7931
 2891TIP3    H230089   4.094   3.769  15.054  1.1181 -0.6265  2.5179
 2892TIP3   OH230090   1.800   2.408  12.653  0.2722 -0.3810  0.2046
 2892TIP3    H130091   1.801   2.381  12.745  0.6141  2.6023  1.1710
 2892TIP3    H230092   1.892   2.413  12.629  0.2416  0.5321  0.2622
 2893TIP3   OH230093   2.780   2.039  16.895  0.1060 -0.3720 -0.1813
 2893TIP3    H130094   2.782   2.114  16.954  1.5934  0.6284 -1.4395
 2893TIP3    H230095   2.695   1.999  16.911  0.1806  0.2206  2.1530
 2894TIP3   OH230096   5.204   3.833  15.816  0.3308  0.0118 -0.5198
 2894TIP3    H130097   5.246   3.770  15.875  0.5429  1.5363  1.0318
 2894TIP3    H230098   5.161   3.779  15.750  0.7179 -1.7406  0.6012
 2895TIP3   OH230099   3.405   1.521   2.788  0.0506  0.2867  0.4336
 2895TIP3    H130100   3.363   1.436   2.780 -0.5840  0.6448 -0.1790
 2895TIP3    H230101   3.422   1.531   2.881  1.2829 -1.0427  0.3794
 2896TIP3   OH230102   0.902   4.438   3.341  0.1338 -0.2689 -0.5414
 2896TIP3    H130103   0.872   4.418   3.430  1.6200  0.1967  0.0880
 2896TIP3    H230104   0.977   4.496   3.353  2.2521 -2.4877 -1.9247
 2897TIP3   OH230105   0.500   1.931  10.954  0.5628 -0.3838  0.3739
 2897TIP3    H130106   0.529   1.847  10.987  0.9836  0.3322  1.9023
 2897TIP3    H230107   0.576   1.989  10.963 -0.1365  0.5160  0.7309
 2898TIP3   OH230108   2.811   4.363   2.808  0.5217  0.1832 -0.6646
 2898TIP3    H130109   2.816   4.301   2.881 -2.5827  2.0275  1.3544
 2898TIP3    H230110   2.720   4.394   2.809  0.9210  1.9180 -4.0250
 2899TIP3   OH230111   6.571   2.322  15.303  0.0612 -0.0183  0.1953
 2899TIP3    H130112   6.507   2.390  15.321  0.9731  0.4235  1.9814
 2899TIP3    H230113   6.573   2.268  15.382  0.1564 -1.4816 -0.7552
 2900TIP3   OH230114   0.176   1.594  16.452  0.2370  0.2787 -0.2402
 2900TIP3    H130115   0.140   1.506  16.465 -0.8156  0.7293 -0.0100
 2900TIP3    H230116   0.100   1.651  16.453  1.0240  1.3838  1.3508
 2901TIP3   OH230117   1.082   0.037  16.641  0.1000  0.0031  0.6475
 2901TIP3    H130118   1.068   0.089  16.720 -0.4149  0.7796  0.0574
 2901TIP3    H230119   1.032  -0.044  16.656 -2.7892  1.5040 -0.2052
 2902TIP3   OH230120   6.556   5.659   3.012  0.4820 -0.2387  0.0592
 2902TIP3    H130121   6.504   5.734   2.983 -0.5138 -0.1955  1.8517
 2902TIP3    H230122   6.639   5.697   3.040  0.4824  0.0256 -0.2943
 2903TIP3   OH230123   6.182   3.402  16.859  0.0667  0.0040 -0.4735
 2903TIP3    H130124   6.209   3.349  16.784  0.5815 -0.3879 -0.0155
 2903TIP3    H230125   6.250   3.389  16.924 -0.9908 -0.6494  0.5371
 2904TIP3   OH230126   2.598   3.336   4.738  0.1155 -0.1580 -0.5051
 2904TIP3    H130127   2.573   3.277   4.810 -1.3979 -1.0925 -1.7403
 2904TIP3    H230128   2.518   3.382   4.716  1.4033  3.0103  0.8928
 2905TIP3   OH230129   3.440   2.630   1.723  0.1367 -0.5817  0.1983
 2905TIP3    H130130   3.441   2.616   1.818  1.5494 -2.5158 -0.0420
 2905TIP3    H230131   3.523   2.594   1.693 -1.0498 -1.6841 -1.9892
 2906TIP3   OH230132   3.237   3.888   2.467  0.6325 -0.8108  0.7499
 2906TIP3    H130133   3.286   3.848   2.395  1.0761  1.2620 -0.1698
 2906TIP3    H230134   3.303   3.935   2.518 -0.0529 -0.0654  0.9660
 2907TIP3   OH230135   4.294   1.718   3.757 -0.0214  0.3149  0.0441
 2907TIP3    H130136   4.227   1.693   3.821 -0.0861 -0.8356 -0.4413
 2907TIP3    H230137   4.328   1.802   3.789 -0.3422 -0.0291  1.3577
 2908TIP3   OH230138   2.456   6.571   4.660  0.0472 -0.3043  0.3652
 2908TIP3    H130139   2.411   6.487   4.655  0.4069 -0.7415  3.0244
 2908TIP3    H230140   2.535   6.560   4.607 -1.0245 -0.8163 -1.1792
 2909TIP3   OH230141   6.075   1.516   3.179 -0.2968  0.0051  0.2874
 2909TIP3    H130142   6.165   1.489   3.165 -0.0388  0.9235  0.1125
 2909TIP3    H230143   6.028   1.435   3.201  0.3286 -0.6459 -0.7448
 2910TIP3   OH230144   1.097   2.406   2.482  0.8038  0.1434 -0.4334
 2910TIP3    H130145   1.021   2.418   2.539  0.5450  0.4899 -0.8482
 2910TIP3    H230146   1.172   2.415   2.540  0.5318 -2.0715  0.3564
 2911TIP3   OH230147   5.275   3.641  14.791 -0.5939 -0.0472 -0.1041
 2911TIP3    H130148   5.273   3.625  14.696 -0.9247 -0.6602  0.0003
 2911TIP3    H230149   5.186   3.668  14.812 -0.2726  1.0748 -0.1207
 2912TIP3   OH230150   4.651   0.081  12.997  0.4588  0.1122 -0.8956
 2912TIP3    H130151   4.592   0.155  12.984  0.8672  0.2598 -2.0996
 2912TIP3    H230152   4.593   0.004  12.996  0.2254  0.2876 -1.5699
 2913TIP3   OH230153   2.811   0.761  14.920  0.4857  0.7783  0.2769
 2913TIP3    H130154   2.773   0.749  14.833 -1.6394 -2.1607  1.4599
 2913TIP3    H230155   2.893   0.712  14.917  0.6487  1.0749 -0.1812
 2914TIP3   OH230156   3.689   4.846   5.069 -0.3302 -0.4644 -0.5694
 2914TIP3    H130157   3.705   4.939   5.054 -1.0039 -0.4901 -1.5147
 2914TIP3    H230158   3.771   4.803   5.042  0.5715 -0.0542  1.3463
 2915TIP3   OH230159   2.816   4.130  16.456  0.0550  0.1094 -0.1612
 2915TIP3    H130160   2.804   4.179  16.538 -1.7106 -1.6321  0.6886
 2915TIP3    H230161   2.771   4.047  16.470  1.9961 -1.3680 -1.9467
 2916TIP3   OH230162   0.580   3.831  11.830 -0.2688 -0.1599 -0.7008
 2916TIP3    H130163   0.554   3.748  11.869  1.7095 -0.9635 -0.9356
 2916TIP3    H230164   0.616   3.882  11.902 -0.1676 -0.0819 -0.8049
 2917TIP3   OH230165   3.600   4.781   2.992  0.3115 -0.6237 -0.4700
 2917TIP3    H130166   3.521   4.822   2.957 -0.1783  0.8111  2.0624
 2917TIP3    H230167   3.664   4.787   2.921 -1.0814  0.5253 -1.6889
 2918TIP3   OH230168   5.241   6.373  12.839 -0.4221  0.1710  0.2099
 2918TIP3    H130169   5.323   6.421  12.855 -1.4345  1.6526  1.2433
 2918TIP3    H230170   5.220   6.393  12.748 -0.1272  0.6003  0.2276
 2919TIP3   OH230171   1.948   5.047  13.872  1.2973 -0.5346  0.1448
 2919TIP3    H130172   1.949   5.087  13.959 -0.1909  0.3579 -0.2084
 2919TIP3    H230173   1.873   5.088  13.828  1.2664 -1.8860 -1.1272
 2920TIP3   OH230174   2.388   2.623  12.718 -0.2364  0.1614 -0.6775
 2920TIP3    H130175   2.359   2.694  12.776  2.2518  0.1153  0.7488
 2920TIP3    H230176   2.363   2.543  12.764 -0.1984  0.1150 -0.7370
 2921TIP3   OH230177   4.893   5.462   0.125  0.5682  0.0192  0.3637
 2921TIP3    H130178   4.985   5.438   0.121  0.7139  0.6404 -0.2277
 2921TIP3    H230179   4.884   5.514   0.205  1.0166  1.0646 -0.2389
 2922TIP3   OH230180   1.566   1.711  13.715 -0.6017  0.0251 -0.1624
 2922TIP3    H130181   1.506   1.752  13.652 -0.4605 -2.7325 -2.3050
 2922TIP3    H230182   1.653   1.726  13.678 -0.0900  1.7046  1.5381
 2923TIP3   OH230183   2.948   4.025   0.143  0.5198 -0.3978  0.2992
 2923TIP3    H130184   3.040   4.045   0.159  1.1843 -1.1074 -2.1492
 2923TIP3    H230185   2.911   4.106   0.107  0.3278 -0.2806  0.7580
 2924TIP3   OH230186   4.100   4.820   0.349  0.0817 -0.1914 -0.3923
 2924TIP3    H130187   4.174   4.841   0.291 -0.8672  0.4251 -1.4383
 2924TIP3    H230188   4.136   4.826   0.437  1.7208 -1.6823 -0.8980
 2925TIP3   OH230189   2.162   2.537   0.038  0.0774  0.4396 -0.1272
 2925TIP3    H130190   2.212   2.577   0.110 -0.6659  2.1139 -0.4993
 2925TIP3    H230191   2.182   2.592  -0.038  0.0457 -0.7030 -0.9843
 2926TIP3   OH230192   5.752   6.522  14.411  0.0528 -0.1637  0.0896
 2926TIP3    H130193   5.774   6.590  14.347  0.5068 -1.1509 -0.8532
 2926TIP3    H230194   5.830   6.514  14.465 -0.1678  0.3758  0.4841
 2927TIP3   OH230195   6.171   6.679   6.245  0.3570 -0.4411  0.2217
 2927TIP3    H130196   6.180   6.674   6.340 -0.6301  0.1352  0.3596
 2927TIP3    H230197   6.087   6.636   6.228  1.4062 -2.3049 -0.6022
 2928TIP3   OH230198   2.058   0.216  16.503  0.2648 -0.2435  0.3815
 2928TIP3    H130199   2.099   0.174  16.428 -2.5549 -3.0786  0.2465
 2928TIP3    H230200   1.975   0.250  16.469  0.1181  0.7814  1.6872
 2929TIP3   OH230201   6.487   3.652   0.884 -0.2749 -0.2700  0.0228
 2929TIP3    H130202   6.442   3.570   0.904 -1.1812  0.5010  1.3136
 2929TIP3    H230203   6.426   3.699   0.828  0.3219 -0.5297 -0.8658
 2930TIP3   OH230204   3.438   0.486  14.635  0.0715 -0.1201  0.1591
 2930TIP3    H130205   3.410   0.540  14.709  1.1019 -0.7956  1.0601
 2930TIP3    H230206   3.527   0.515  14.616  0.1941 -0.6637 -0.1214
 2931TIP3   OH230207   4.738   3.883   4.323  0.2224 -0.1855  0.0765
 2931TIP3    H130208   4.713   3.948   4.388  1.0138  0.5642 -0.3440
 2931TIP3    H230209   4.669   3.817   4.327 -1.4708  1.4571 -0.6019
 2932TIP3   OH230210   5.288   0.644   5.369 -0.1043  0.3146 -0.4245
 2932TIP3    H130211   5.210   0.692   5.396 -0.7265 -1.3422  0.9225
 2932TIP3    H230212   5.339   0.634   5.450 -0.4189 -1.9531 -0.4462
 2933TIP3   OH230213   2.656   2.207   2.188 -0.4897  0.0324 -0.5819
 2933TIP3    H130214   2.613   2.216   2.103  0.3478  1.1881 -0.9094
 2933TIP3    H230215   2.692   2.294   2.206 -0.4655 -0.2481  0.8579
 2934TIP3   OH230216   0.640   0.860  16.842  0.3822 -0.5122 -0.0755
 2934TIP3    H130217   0.594   0.822  16.917  0.6758 -1.9135 -0.5911
 2934TIP3    H230218   0.721   0.810  16.835 -0.9217 -2.4494 -3.0814
 2935TIP3   OH230219   5.767   1.820  15.221 -0.0985 -0.8059 -0.4843
 2935TIP3    H130220   5.734   1.812  15.311 -0.9502 -3.2024 -0.9223
 2935TIP3    H230221   5.769   1.914  15.204 -2.8430 -0.3686  1.0093
 2936TIP3   OH230222   0.093   0.251  14.997  0.5508  0.2545  0.4527
 2936TIP3    H130223   0.023   0.273  15.057 -1.8310 -1.7398 -1.3723
 2936TIP3    H230224   0.049   0.217  14.919  3.5234 -2.8235 -0.1549
 2937TIP3   OH230225   3.538   3.623  13.258 -0.0506  0.1987  0.2350
 2937TIP3    H130226   3.465   3.658  13.308 -1.1879  0.2629 -1.3840
 2937TIP3    H230227   3.551   3.685  13.187  0.9487 -0.3063 -0.0445
 2938TIP3   OH230228   1.366   1.024   4.728  0.3702 -0.1918 -0.2209
 2938TIP3    H130229   1.273   1.044   4.714  0.1177  0.5177  2.0000
 2938TIP3    H230230   1.407   1.109   4.743  0.7556 -0.6834  1.8027
 2939TIP3   OH230231   1.825   1.256  14.318 -0.4165  0.4039 -0.4067
 2939TIP3    H130232   1.915   1.288  14.328 -1.2059  2.4962  0.6654
 2939TIP3    H230233   1.818   1.233  14.225  1.9509 -2.3801 -0.0266
 2940TIP3   OH230234   5.665   6.318   3.152  0.5437  0.1482 -0.2154
 2940TIP3    H130235   5.613   6.240   3.175  0.7671  0.3850  1.1950
 2940TIP3    H230236   5.748   6.305   3.198  0.5689  1.2361  0.0584
 2941TIP3   OH230237   5.538   3.199   3.374 -0.8046  0.3042 -0.0239
 2941TIP3    H130238   5.585   3.255   3.311 -0.4609  0.2847  0.2122
 2941TIP3    H230239   5.453   3.184   3.333 -1.3519  1.9574  0.4401
 2942TIP3   OH230240   0.437   0.315   1.567 -0.2656 -0.2290  0.2475
 2942TIP3    H130241   0.529   0.343   1.568 -0.4932  0.5778 -0.2905
 2942TIP3    H230242   0.439   0.230   1.523  0.1458  0.1349 -0.4567
 2943TIP3   OH230243   6.526   5.296   5.602 -0.1854  0.1832  0.4797
 2943TIP3    H130244   6.554   5.205   5.590 -0.9611 -0.0879  0.6425
 2943TIP3    H230245   6.583   5.347   5.544 -1.0772 -0.6374 -1.2019
 2944TIP3   OH230246   6.082   0.929   0.187 -0.1642  0.5020 -0.2489
 2944TIP3    H130247   5.992   0.896   0.191  0.5938 -1.6896  0.0222
 2944TIP3    H230248   6.131   0.859   0.146  1.8783  0.6028  1.8537
 2945TIP3   OH230249   4.022   5.943  14.701  0.3391  0.5625  0.1350
 2945TIP3    H130250   3.970   5.994  14.638 -0.5125 -0.9770 -0.4515
 2945TIP3    H230251   4.099   5.998  14.718  0.8549  0.8570 -2.6477
 2946TIP3   OH230252   5.642   1.597  14.591 -0.0241 -0.1304 -0.2310
 2946TIP3    H130253   5.657   1.529  14.657  1.8350 -2.6207 -3.0164
 2946TIP3    H230254   5.690   1.673  14.625  3.6304 -2.2805 -0.0283
 2947TIP3   OH230255   1.958   5.332  12.157 -0.0381  0.1284 -0.0073
 2947TIP3    H130256   1.889   5.265  12.152  0.6459 -0.5790 -0.1018
 2947TIP3    H230257   1.940   5.388  12.082 -1.2533  0.6927  0.6682
 2948TIP3   OH230258   5.229   0.440  12.281  0.4002 -0.4208 -0.1129
 2948TIP3    H130259   5.285   0.423  12.357  0.4557 -1.2214 -0.3330
 2948TIP3    H230260   5.278   0.505  12.230  1.8164 -2.1432 -1.0304
 2949TIP3   OH230261   0.697   1.944   4.243  0.3996 -0.4878  0.1460
 2949TIP3    H130262   0.648   2.017   4.204 -0.3093  0.3622  2.4888
 2949TIP3    H230263   0.650   1.866   4.214 -0.4169  0.1337 -0.2667
 2950TIP3   OH230264   4.604   0.816   2.456 -0.1704 -0.6113 -0.5408
 2950TIP3    H130265   4.578   0.734   2.497 -0.6198  0.0181  0.4684
 2950TIP3    H230266   4.585   0.883   2.521 -2.4981  0.6587 -2.3585
 2951TIP3   OH230267   3.917   3.552   1.467 -0.1642 -0.2704  0.5345
 2951TIP3    H130268   3.977   3.513   1.403  0.6468  1.7348 -0.0114
 2951TIP3    H230269   3.834   3.558   1.421  0.0562 -0.1082  0.1526
 2952TIP3   OH230270   2.116   5.840  14.427 -0.0359  0.1149 -0.0852
 2952TIP3    H130271   2.068   5.912  14.386 -3.3134 -1.2720  0.9970
 2952TIP3    H230272   2.162   5.880  14.501 -1.0443  1.2504 -0.0491
 2953TIP3   OH230273   5.322   5.930  12.764 -0.4000  0.0706 -0.3998
 2953TIP3    H130274   5.282   5.907  12.848  2.4140 -0.0657  1.0204
 2953TIP3    H230275   5.273   6.006  12.734 -0.8724  0.7532  1.9048
 2954TIP3   OH230276   0.790   5.666   0.526 -0.0296  0.3511  0.0803
 2954TIP3    H130277   0.769   5.657   0.619 -0.0229  1.8025  0.2450
 2954TIP3    H230278   0.878   5.630   0.518 -1.1130 -2.5899  0.0247
 2955TIP3   OH230279   4.423   4.062  13.522  0.6760  0.5928  0.6640
 2955TIP3    H130280   4.350   4.064  13.584  0.3513 -1.4420  0.3946
 2955TIP3    H230281   4.456   3.972  13.525  1.5801  0.8190 -1.0471
 2956TIP3   OH230282   3.951   1.167   3.965 -0.1788  0.1950  0.8323
 2956TIP3    H130283   4.027   1.223   3.950 -0.6872  0.6094 -0.3244
 2956TIP3    H230284   3.939   1.169   4.060  0.9917  0.4578  0.9956
 2957TIP3   OH230285   4.889   3.301  17.113  0.1756 -0.2028 -0.1012
 2957TIP3    H130286   4.941   3.366  17.161 -2.1246  2.4334 -0.9574
 2957TIP3    H230287   4.914   3.313  17.021 -0.7160 -0.0800 -0.3349
 2958TIP3   OH230288   2.999   2.955   0.951 -0.2388 -0.0712  0.4847
 2958TIP3    H130289   2.984   2.871   0.908  1.2653  0.6235 -1.5787
 2958TIP3    H230290   3.085   2.946   0.993  0.2217  0.5889 -0.2777
 2959TIP3   OH230291   3.772   5.174  11.491  0.0644  0.2541 -0.0061
 2959TIP3    H130292   3.692   5.183  11.542 -0.5846  1.8217 -1.2393
 2959TIP3    H230293   3.750   5.205  11.404  1.3557 -1.6491 -1.1045
 2960TIP3   OH230294   0.552   4.672   5.170 -0.2817 -0.0497 -0.1334
 2960TIP3    H130295   0.459   4.679   5.193 -0.4540  1.1959 -1.0989
 2960TIP3    H230296   0.558   4.594   5.115 -0.9714  0.4758 -0.9800
 2961TIP3   OH230297   5.453   0.720  11.670 -0.8982  0.0735  0.4461
 2961TIP3    H130298   5.535   0.763  11.644 -0.4639  0.4466  2.2622
 2961TIP3    H230299   5.390   0.749  11.605  0.3367 -0.0047 -0.8479
 2962TIP3   OH230300   5.255   1.774   4.600  0.2056 -0.2678 -0.2118
 2962TIP3    H130301   5.337   1.739   4.565  1.6370  2.4077  0.2265
 2962TIP3    H230302   5.211   1.811   4.524 -0.5500 -1.5046 -0.4083
 2963TIP3   OH230303   3.765   2.225   4.661  0.3250  0.5680 -0.3255
 2963TIP3    H130304   3.672   2.248   4.653  0.5043  1.5059  0.1504
 2963TIP3    H230305   3.789   2.251   4.750  0.6177 -1.2953  0.1688
 2964TIP3   OH230306   3.551   6.639  10.484  0.3666 -1.0337 -0.0898
 2964TIP3    H130307   3.566   6.704  10.552 -2.1909 -2.1819  1.7595
 2964TIP3    H230308   3.622   6.576  10.495  0.5203 -0.7081  0.9130
 2965TIP3   OH230309   3.604   2.822  16.129  0.0941 -0.0455  0.3002
 2965TIP3    H130310   3.536   2.883  16.159  0.3162  1.0409 -1.3015
 2965TIP3    H230311   3.677   2.836  16.189 -0.3827  0.1847  0.8399
 2966TIP3   OH230312   3.069   2.828   1.491 -0.0003 -0.0704 -0.4953
 2966TIP3    H130313   2.974   2.836   1.506  0.1416  1.2656 -0.1603
 2966TIP3    H230314   3.093   2.746   1.533 -0.9350 -0.2086 -0.1938
 2967TIP3   OH230315   0.069   6.368   3.242 -0.2185 -0.3578  0.0547
 2967TIP3    H130316   0.119   6.414   3.309 -0.6446 -0.3488  0.3776
 2967TIP3    H230317   0.090   6.413   3.160 -0.9574  0.7173  0.4193
 2968TIP3   OH230318   4.833   1.715  13.541 -0.0745  0.2474 -0.1848
 2968TIP3    H130319   4.798   1.783  13.598 -0.3943 -0.1672  0.1145
 2968TIP3    H230320   4.915   1.688  13.583 -0.7622 -0.7089  0.5968
 2969TIP3   OH230321   2.044   3.200  15.463  0.7575 -0.3654  0.2594
 2969TIP3    H130322   2.099   3.183  15.387 -0.6642 -0.2184 -0.8455
 2969TIP3    H230323   2.019   3.113  15.495 -1.6649 -0.5481 -1.7770
 2970TIP3   OH230324   3.479   4.327   6.534  0.4215 -0.1991  0.0299
 2970TIP3    H130325   3.406   4.320   6.596 -0.6111 -0.3486 -1.1645
 2970TIP3    H230326   3.557   4.323   6.589 -0.4575 -0.1467  1.3376
 2971TIP3   OH230327   2.358   5.520   4.137 -0.1605 -0.2604  0.6228
 2971TIP3    H130328   2.342   5.614   4.137 -1.2294 -0.4317  0.4729
 2971TIP3    H230329   2.452   5.511   4.153 -0.1705  0.8118  1.3758
 2972TIP3   OH230330   6.208   5.257   1.505  0.0916  0.0834  0.0200
 2972TIP3    H130331   6.281   5.257   1.442 -0.0604  3.0350 -0.3021
 2972TIP3    H230332   6.130   5.250   1.450  0.0249  0.9275 -0.0093
 2973TIP3   OH230333   1.267   0.659   3.434  0.4580 -0.2910 -0.0996
 2973TIP3    H130334   1.242   0.567   3.438  0.4415 -0.2879 -0.1366
 2973TIP3    H230335   1.317   0.668   3.353 -0.5283 -0.0199 -0.6893
 2974TIP3   OH230336   6.269   1.610  12.224  0.1903  0.0513  0.2421
 2974TIP3    H130337   6.240   1.657  12.146 -1.1857  0.1358  0.7737
 2974TIP3    H230338   6.236   1.521  12.213 -1.7559  0.5380  1.5677
 2975TIP3   OH230339   0.779   3.808   1.035  0.2386  0.5997  0.4137
 2975TIP3    H130340   0.839   3.788   1.106  1.5575  1.6453 -0.3604
 2975TIP3    H230341   0.790   3.737   0.972  0.4100  0.6146  0.4283
 2976TIP3   OH230342   4.786   3.176  16.125 -0.5842 -0.2172  0.3451
 2976TIP3    H130343   4.865   3.226  16.145  0.1343 -0.6166 -1.3007
 2976TIP3    H230344   4.731   3.237  16.076  0.0095 -0.7776 -1.0858
 2977TIP3   OH230345   5.520   5.766  15.579 -0.2371 -0.7828 -0.0555
 2977TIP3    H130346   5.473   5.801  15.654 -1.7826 -2.2296 -0.2831
 2977TIP3    H230347   5.574   5.695  15.614 -0.1108 -0.7434 -0.1645
 2978TIP3   OH230348   1.544   2.125  14.665  0.8385 -0.2872  0.2955
 2978TIP3    H130349   1.485   2.056  14.634  1.2574 -0.6566  0.3091
 2978TIP3    H230350   1.599   2.083  14.731  1.2510 -0.0032  0.1451
 2979TIP3   OH230351   4.691   1.190   2.975 -0.8771  0.3494 -0.3867
 2979TIP3    H130352   4.654   1.103   2.983 -1.4208  0.5977 -0.1071
 2979TIP3    H230353   4.734   1.205   3.059 -1.1347  0.5009 -0.2779
 2980TIP3   OH230354   0.592   2.279   3.735  0.4085 -0.0571  0.0547
 2980TIP3    H130355   0.545   2.197   3.720  0.3753 -0.1517  0.6357
 2980TIP3    H230356   0.525   2.347   3.731  0.4171 -0.0695 -0.3128
 2981TIP3   OH230357   1.677   6.015   2.802  0.0303 -0.7944  0.1698
 2981TIP3    H130358   1.700   6.103   2.773  0.8517 -1.1550 -0.2924
 2981TIP3    H230359   1.642   5.972   2.725 -1.1938 -0.6144  0.5996
 2982TIP3   OH230360   5.827   6.000   1.044 -0.2371  0.1682  0.2176
 2982TIP3    H130361   5.860   5.939   0.979 -0.4193  0.6156 -0.3093
 2982TIP3    H230362   5.739   6.022   1.014  0.8069  2.8945 -1.2579
 2983TIP3   OH230363   5.855   1.298   6.105 -0.1194  0.4094  0.0221
 2983TIP3    H130364   5.835   1.382   6.146  0.2732  0.3915  0.2580
 2983TIP3    H230365   5.850   1.235   6.176  0.1571  0.3177 -0.0393
 2984TIP3   OH230366   3.827   3.122  15.757 -0.3866 -0.7906 -0.0134
 2984TIP3    H130367   3.806   3.189  15.693  0.1692 -0.3696  0.2341
 2984TIP3    H230368   3.785   3.042  15.724  1.8766 -1.1812 -2.2024
 2985TIP3   OH230369   2.569   0.654   6.270 -0.3672 -0.3460  0.6225
 2985TIP3    H130370   2.503   0.721   6.288 -0.8750 -0.7494  0.3141
 2985TIP3    H230371   2.580   0.656   6.175  1.0411  0.6073  0.7673
 2986TIP3   OH230372   4.583   4.770   3.884  0.4439  0.1298  0.1732
 2986TIP3    H130373   4.674   4.796   3.872  0.4386  0.0433 -0.0621
 2986TIP3    H230374   4.545   4.839   3.938  0.3870  0.7016 -0.5713
 2987TIP3   OH230375   2.250   5.463   0.091 -0.1337  0.4577 -0.1105
 2987TIP3    H130376   2.160   5.444   0.066  0.2170  0.3195 -1.3830
 2987TIP3    H230377   2.275   5.392   0.150 -0.8061  0.4046  0.1113
 2988TIP3   OH230378   0.729   1.890   3.265 -0.2168  0.4366  0.4517
 2988TIP3    H130379   0.795   1.837   3.220 -0.8549 -0.6106  0.7206
 2988TIP3    H230380   0.771   1.915   3.347  0.7368  1.8587 -0.4251
 2989TIP3   OH230381   5.840   5.034  15.658  0.3131 -0.3418  0.2189
 2989TIP3    H130382   5.812   4.946  15.632  0.0062 -0.1936  0.0433
 2989TIP3    H230383   5.762   5.089  15.647  1.1675  0.5105 -2.2921
 2990TIP3   OH230384   1.588   5.358  16.569  0.0539  0.0286 -0.2185
 2990TIP3    H130385   1.523   5.401  16.514 -0.9175 -2.6716 -1.3297
 2990TIP3    H230386   1.538   5.322  16.642  0.8703  0.7996  0.7632
 2991TIP3   OH230387   6.127   0.427   4.181  0.2059 -0.1045 -0.0595
 2991TIP3    H130388   6.054   0.377   4.218  1.6951 -2.2716  0.1467
 2991TIP3    H230389   6.092   0.515   4.169 -1.6478 -0.3668  2.4921
 2992TIP3   OH230390   1.717   3.520   4.443  0.3116 -0.3182 -0.1152
 2992TIP3    H130391   1.698   3.453   4.509 -2.0955  0.4914  0.1187
 2992TIP3    H230392   1.728   3.470   4.361  0.1881 -1.1216  0.3450
 2993TIP3   OH230393   0.049   5.908  11.657  0.5814  0.2318 -0.0170
 2993TIP3    H130394  -0.022   5.948  11.707 -1.2649 -3.1734  0.3822
 2993TIP3    H230395   0.051   5.958  11.575 -3.6168 -0.5073 -0.8201
 2994TIP3   OH230396   5.099   2.481  15.889  0.0316 -0.6980  0.2693
 2994TIP3    H130397   5.087   2.407  15.948  0.6045 -1.1283 -0.1327
 2994TIP3    H230398   5.183   2.463  15.845 -0.6406 -0.6699 -1.0713
 2995TIP3   OH230399   6.745   2.201  14.188  0.2227 -0.0736  0.0586
 2995TIP3    H130400   6.705   2.115  14.196 -0.2663  0.0648 -0.8635
 2995TIP3    H230401   6.816   2.200  14.253 -0.3806 -0.8165  0.7250
 2996TIP3   OH230402   5.292   6.511   1.018 -0.3553 -0.1922 -0.4625
 2996TIP3    H130403   5.364   6.559   1.059 -0.8035 -0.2511  0.4149
 2996TIP3    H230404   5.281   6.554   0.933  2.0735 -1.5094 -1.5519
 2997TIP3   OH230405   3.006   0.776  15.812  0.3525 -0.1028 -0.0844
 2997TIP3    H130406   3.082   0.753  15.866 -0.0890 -3.4897 -0.6755
 2997TIP3    H230407   3.042   0.799  15.727  0.7932  0.2569  0.1946
 2998TIP3   OH230408   4.172   5.537   2.563  0.6773 -0.1091  0.0290
 2998TIP3    H130409   4.208   5.626   2.571 -1.0204  0.6159  0.2561
 2998TIP3    H230410   4.171   5.504   2.653 -0.7190  0.5399  0.2831
 2999TIP3   OH230411   0.055   4.557  17.454  0.0266 -0.8784 -0.4602
 2999TIP3    H130412   0.020   4.580  17.369  1.3294 -2.2801 -1.4392
 2999TIP3    H230413   0.148   4.539  17.438  0.3968 -0.7674  1.3316
 3000TIP3   OH230414   0.879   0.263  15.915 -0.4288  0.4519 -0.7682
 3000TIP3    H130415   0.790   0.247  15.944 -0.5494 -0.7712 -1.7327
 3000TIP3    H230416   0.882   0.227  15.826  1.4494 -0.9952 -0.1827
 3001TIP3   OH230417   1.685   1.713   2.470  0.6567 -0.1203 -0.4744
 3001TIP3    H130418   1.733   1.783   2.514  0.8564  0.0705 -0.9824
 3001TIP3    H230419   1.748   1.675   2.408 -0.0605  0.7006 -1.7735
 3002TIP3   OH230420   5.081   2.210  15.985 -0.4572  0.2560 -0.5359
 3002TIP3    H130421   5.144   2.184  15.917  1.2137  1.1254  0.6115
 3002TIP3    H230422   5.116   2.173  16.065 -0.7628  1.7481  0.3235
 3003TIP3   OH230423   2.688   1.013   2.606 -0.9562  0.4040 -0.0147
 3003TIP3    H130424   2.663   1.100   2.634 -1.8173 -0.4857  2.2052
 3003TIP3    H230425   2.695   0.962   2.687  2.4747 -0.8852 -0.9249
 3004TIP3   OH230426   0.179   2.632  16.778 -0.3936  0.6144 -0.0032
 3004TIP3    H130427   0.271   2.653  16.792 -0.5100  1.2636 -0.1659
 3004TIP3    H230428   0.140   2.714  16.747 -0.7730  0.0410 -1.1005
 3005TIP3   OH230429   3.163   2.738   0.736 -0.0923 -0.1429  0.6177
 3005TIP3    H130430   3.182   2.831   0.746 -1.0056  0.0415  0.6559
 3005TIP3    H230431   3.238   2.694   0.777  2.0289  0.5034 -2.2280
 3006TIP3   OH230432   0.824   5.378   1.121  0.3342 -0.6281  0.0535
 3006TIP3    H130433   0.887   5.324   1.074 -0.1789 -0.8480 -0.3864
 3006TIP3    H230434   0.755   5.396   1.057  0.6428  0.8121  0.0864
 3007TIP3   OH230435   2.255   5.978   2.398  0.6905 -0.2030 -0.2782
 3007TIP3    H130436   2.275   5.939   2.313  1.7883 -0.3239  0.0310
 3007TIP3    H230437   2.338   6.012   2.430  0.7662 -2.0516  1.7142
 3008TIP3   OH230438   0.883   4.320   2.612  0.2492 -0.3500  0.2262
 3008TIP3    H130439   0.899   4.262   2.538  0.7799 -0.5991  0.5275
 3008TIP3    H230440   0.790   4.342   2.606  0.0110 -1.3074  0.1510
 3009TIP3   OH230441   4.736   6.703   2.477 -0.2187  0.3478 -0.0230
 3009TIP3    H130442   4.747   6.636   2.545 -0.4860 -1.4851 -1.6859
 3009TIP3    H230443   4.642   6.720   2.475 -0.2776  0.0112 -0.2642
 3010TIP3   OH230444   1.001   0.909   2.465 -0.1456 -1.1508  0.9159
 3010TIP3    H130445   0.929   0.854   2.434 -1.1763  0.4413  0.3324
 3010TIP3    H230446   1.059   0.918   2.390 -0.3548 -0.8602  0.7879
 3011TIP3   OH230447   6.541   5.521   2.322  0.1543 -0.3879 -0.2632
 3011TIP3    H130448   6.588   5.598   2.290 -0.4012 -0.3199 -0.9656
 3011TIP3    H230449   6.521   5.540   2.413  1.0066 -0.1894 -0.1134
 3012TIP3   OH230450   4.679   5.377   0.704  0.6659  0.2500  0.0106
 3012TIP3    H130451   4.758   5.333   0.737  1.2407 -0.6129 -2.3045
 3012TIP3    H230452   4.706   5.468   0.691  0.5002  0.5480  1.5415
 3013TIP3   OH230453   2.295   1.000  12.098 -0.0502  0.0187 -0.4114
 3013TIP3    H130454   2.234   0.945  12.049 -1.2155  0.2630  0.6971
 3013TIP3    H230455   2.375   0.947  12.104 -1.0012 -1.4236  0.2933
 3014TIP3   OH230456   4.345   3.394  13.182  0.1901  0.5548 -0.1503
 3014TIP3    H130457   4.294   3.474  13.193  0.7691  0.7778  1.0883
 3014TIP3    H230458   4.401   3.411  13.106  1.7770  2.1546  1.2997
 3015TIP3   OH230459   3.869   2.162   6.129  0.4617 -0.7631  0.2509
 3015TIP3    H130460   3.930   2.090   6.142  0.8346 -0.6841 -0.9182
 3015TIP3    H230461   3.825   2.172   6.213  1.4755 -1.3647  0.8753
 3016TIP3   OH230462   3.397   3.056   5.044  0.2695  0.5865  0.4172
 3016TIP3    H130463   3.404   3.152   5.040 -1.2157  0.8099  1.7918
 3016TIP3    H230464   3.350   3.040   5.126  0.0126 -1.3043 -0.0660
 3017TIP3   OH230465   5.353   3.391   0.480  0.2322 -0.4331  0.3168
 3017TIP3    H130466   5.412   3.460   0.450 -0.4100  0.4579  1.0338
 3017TIP3    H230467   5.303   3.366   0.402  0.5552 -0.1734  0.0278
 3018TIP3   OH230468   0.088   5.442   3.017  0.2139 -0.2812 -0.6033
 3018TIP3    H130469   0.007   5.409   3.056 -0.4709 -0.3862 -2.0629
 3018TIP3    H230470   0.064   5.465   2.927  1.2116  2.0203 -0.3528
 3019TIP3   OH230471   4.584   3.436  15.671 -0.1779  0.0954 -0.3685
 3019TIP3    H130472   4.551   3.405  15.587 -0.1451  0.9960 -0.7202
 3019TIP3    H230473   4.574   3.531  15.667 -0.6666  0.1090  0.8592
 3020TIP3   OH230474   2.265   2.981   3.341 -0.4657  0.4257  0.0434
 3020TIP3    H130475   2.195   3.017   3.286 -1.4953  1.4703  1.9226
 3020TIP3    H230476   2.309   2.917   3.286 -3.5230 -1.0214 -0.9331
 3021TIP3   OH230477   4.601   1.549  12.509 -0.5673  0.0544  0.0944
 3021TIP3    H130478   4.589   1.641  12.533  1.5791  0.5331 -0.4647
 3021TIP3    H230479   4.673   1.519  12.564 -2.2494 -1.8435  1.4563
 3022TIP3   OH230480   0.216   2.835   3.256  0.4614 -0.2245 -0.0335
 3022TIP3    H130481   0.269   2.899   3.208 -0.3466  0.0373 -0.5807
 3022TIP3    H230482   0.211   2.759   3.199  0.0340 -0.1543 -0.0892
 3023TIP3   OH230483   0.767   2.717   3.586  0.5007 -0.1624  0.4477
 3023TIP3    H130484   0.857   2.731   3.614  0.6122  1.3315 -0.5550
 3023TIP3    H230485   0.769   2.727   3.491 -0.9190  1.2494  0.5208
 3024TIP3   OH230486   3.682   1.907   4.616 -0.3378 -0.4194 -0.9367
 3024TIP3    H130487   3.728   1.931   4.696  1.4680 -3.5012 -0.8882
 3024TIP3    H230488   3.602   1.863   4.646 -0.7309  0.3073 -0.9020
 3025TIP3   OH230489   0.022   1.198  13.027  0.8833 -0.6358  0.5894
 3025TIP3    H130490   0.009   1.250  12.948  0.8161  0.0317  1.0313
 3025TIP3    H230491   0.106   1.227  13.061  0.8762 -0.8681  0.8054
 3026TIP3   OH230492   5.481   3.402  12.498 -0.1174 -0.5283 -0.7720
 3026TIP3    H130493   5.391   3.402  12.530  0.4553  2.7643  1.3532
 3026TIP3    H230494   5.479   3.460  12.422  0.1597 -0.7826 -0.9788
 3027TIP3   OH230495   0.032   1.670  12.118 -0.0962 -0.1356 -0.3557
 3027TIP3    H130496   0.054   1.590  12.071 -0.4421  1.1036 -2.7989
 3027TIP3    H230497   0.112   1.722  12.115  0.3268 -0.5791  1.7791
 3028TIP3   OH230498   0.606   5.990  14.484 -0.3501 -0.3914  0.4312
 3028TIP3    H130499   0.695   5.952  14.484  0.1015  0.6317  1.0453
 3028TIP3    H230500   0.566   5.956  14.564  0.0844  0.4742  1.0256
 3029TIP3   OH230501   3.340   3.540   0.545  0.1512 -0.6576  0.5332
 3029TIP3    H130502   3.288   3.620   0.557  0.1217 -0.1708 -2.1805
 3029TIP3    H230503   3.430   3.568   0.562  0.1366 -0.0283 -0.3566
 3030TIP3   OH230504   5.351   1.263  14.080  0.0913  0.3820  0.4936
 3030TIP3    H130505   5.355   1.331  14.146 -2.4248  0.4834  0.6194
 3030TIP3    H230506   5.286   1.201  14.112  0.9833 -1.1367 -0.4917
 3031TIP3   OH230507   6.168   6.688  15.047 -0.4067  0.1400 -0.0379
 3031TIP3    H130508   6.188   6.642  15.129 -0.7403  0.0420 -0.0072
 3031TIP3    H230509   6.072   6.688  15.043 -0.4770  1.9255  0.5951
 3032TIP3   OH230510   6.547   2.151   1.321 -0.0049  0.1301  0.5530
 3032TIP3    H130511   6.474   2.124   1.376  0.3569  1.7278  1.8854
 3032TIP3    H230512   6.505   2.181   1.240 -0.7932  0.5311  1.0945
 3033TIP3   OH230513   4.889   4.593   1.242  0.2415 -0.2990  0.0165
 3033TIP3    H130514   4.848   4.560   1.322  1.6432 -0.2664  0.7726
 3033TIP3    H230515   4.823   4.650   1.203 -0.7602 -0.9469  0.7188
 3034TIP3   OH230516   0.820   1.334   6.089  0.0574  0.0197 -0.1270
 3034TIP3    H130517   0.907   1.374   6.096 -0.7302  1.9019 -0.5002
 3034TIP3    H230518   0.778   1.352   6.173 -0.0593 -0.6914 -0.0270
 3035TIP3   OH230519   5.820   0.957  15.679 -0.3843  0.0193 -0.2201
 3035TIP3    H130520   5.913   0.958  15.702 -0.0855 -0.0863 -1.3595
 3035TIP3    H230521   5.787   1.041  15.712  0.1469  0.1142  0.0896
 3036TIP3   OH230522   2.821   1.862  15.418 -0.0276 -0.0918  0.0549
 3036TIP3    H130523   2.849   1.848  15.509  0.4842 -1.7365 -0.3232
 3036TIP3    H230524   2.739   1.812  15.411 -1.0095  1.4422  0.0497
 3037TIP3   OH230525   1.236   3.571  11.367 -0.3063 -0.3756 -0.7880
 3037TIP3    H130526   1.250   3.481  11.395  0.2033 -0.3663 -1.0148
 3037TIP3    H230527   1.151   3.595  11.406 -0.0507 -0.6693 -0.0397
 3038TIP3   OH230528   6.616   1.038   5.857 -0.0120  0.1161 -0.6297
 3038TIP3    H130529   6.616   1.073   5.946  0.3039 -0.0931 -0.5471
 3038TIP3    H230530   6.703   1.058   5.823  0.3090 -0.9265 -0.4438
 3039TIP3   OH230531   4.585   2.506  16.619  0.4097 -0.6311  0.4868
 3039TIP3    H130532   4.677   2.520  16.641  0.4833  3.1963 -1.4658
 3039TIP3    H230533   4.537   2.531  16.698  1.0227  1.8387  0.1791
 3040TIP3   OH230534   0.278   3.706  13.960  0.2774  0.3884 -0.0622
 3040TIP3    H130535   0.253   3.726  13.869 -0.0762 -0.5671 -0.1943
 3040TIP3    H230536   0.365   3.666  13.952 -0.3424 -0.9915 -0.1448
 3041TIP3   OH230537   2.694   6.610   5.675 -0.4406  0.0315  0.5469
 3041TIP3    H130538   2.628   6.579   5.736  1.1902 -2.7680  1.0690
 3041TIP3    H230539   2.777   6.575   5.709  0.9098  0.7769 -1.7207
 3042TIP3   OH230540   5.653   0.462  17.195 -0.3216  0.4168 -0.5945
 3042TIP3    H130541   5.630   0.533  17.135  1.1343  1.9768  0.6240
 3042TIP3    H230542   5.619   0.490  17.280  1.5495  0.3765  0.2004
 3043TIP3   OH230543   2.185   3.713  13.214  0.4464  0.1826  0.2756
 3043TIP3    H130544   2.208   3.793  13.261 -0.4229  0.0600  0.9315
 3043TIP3    H230545   2.093   3.698  13.236 -0.9325  1.6526 -3.6543
 3044TIP3   OH230546   3.867   6.118  13.937 -0.3916  0.0309  0.1543
 3044TIP3    H130547   3.801   6.049  13.944  1.5562 -1.9686  0.1019
 3044TIP3    H230548   3.912   6.117  14.022  0.8424 -0.0735 -0.4725
 3045TIP3   OH230549   3.573   5.977   1.983  0.7775  0.4149  0.4514
 3045TIP3    H130550   3.589   5.981   2.077  1.5704  0.7946  0.3115
 3045TIP3    H230551   3.478   5.966   1.975  0.5967  1.2473  1.2813
 3046TIP3   OH230552   4.956   2.261  14.693  0.6554 -0.8612  0.0011
 3046TIP3    H130553   4.901   2.339  14.695  0.6487 -0.7439 -2.2510
 3046TIP3    H230554   5.037   2.287  14.737  0.0787 -0.0892  0.6275
 3047TIP3   OH230555   0.385   4.602  17.150 -0.3966  0.0060  0.3220
 3047TIP3    H130556   0.299   4.630  17.116 -0.2894 -0.4782 -0.3559
 3047TIP3    H230557   0.365   4.558  17.233 -0.8552 -0.5722 -0.0936
 3048TIP3   OH230558   3.298   4.036   6.686 -0.1358 -0.1240 -0.1422
 3048TIP3    H130559   3.299   4.132   6.690 -0.0149  0.0363 -2.4359
 3048TIP3    H230560   3.211   4.015   6.652 -0.3901 -0.8947  0.9334
 3049TIP3   OH230561   1.939   6.070  12.124 -0.9992  0.6228  0.1640
 3049TIP3    H130562   1.892   6.079  12.041 -1.3789 -1.2289  0.1479
 3049TIP3    H230563   1.878   6.104  12.190 -1.4507  0.3325 -0.1039
 3050TIP3   OH230564   2.906   0.208  14.266  0.0733 -0.1765 -0.0526
 3050TIP3    H130565   2.942   0.122  14.246 -0.7478 -0.1030 -2.1080
 3050TIP3    H230566   2.830   0.191  14.321  1.0337 -0.5804  1.2068
 3051TIP3   OH230567   2.626   4.458   3.572  0.0188  0.4493  0.7182
 3051TIP3    H130568   2.638   4.363   3.566 -0.5175  0.3920  0.5458
 3051TIP3    H230569   2.532   4.470   3.577  0.1361  0.8450  3.1711
 3052TIP3   OH230570   2.555   2.075   4.678 -0.1567  0.5288 -0.4347
 3052TIP3    H130571   2.527   2.037   4.595 -0.1095  0.9810 -0.6619
 3052TIP3    H230572   2.650   2.064   4.679 -0.3793 -1.7486  0.7076
 3053TIP3   OH230573   5.555   2.211   1.474  0.6561 -0.4460 -0.2188
 3053TIP3    H130574   5.483   2.249   1.425  1.3897  1.4032  0.0359
 3053TIP3    H230575   5.518   2.133   1.515 -0.6739 -0.5599 -1.5539
 3054TIP3   OH230576   5.987   3.430  15.285  0.5110  0.4552  0.9067
 3054TIP3    H130577   5.895   3.420  15.258  0.1134 -0.7558  2.4785
 3054TIP3    H230578   6.013   3.342  15.313  2.9697  0.2138 -1.7274
 3055TIP3   OH230579   1.364   3.174  16.297  0.4593  0.6468 -0.2579
 3055TIP3    H130580   1.336   3.202  16.210 -2.1324 -1.3076 -0.1790
 3055TIP3    H230581   1.386   3.256  16.342 -1.4117  2.0539 -1.7155
 3056TIP3   OH230582   5.530   4.471  16.041 -0.8453  0.3834  0.2377
 3056TIP3    H130583   5.466   4.416  15.996  0.1220 -1.0972  0.5917
 3056TIP3    H230584   5.480   4.547  16.071 -1.8880  0.5214 -1.7003
 3057TIP3   OH230585   0.326   6.334  15.012 -0.6832  0.0514 -0.1554
 3057TIP3    H130586   0.401   6.369  15.061 -0.6821  0.8424 -0.6901
 3057TIP3    H230587   0.354   6.246  14.985  0.5052  0.7214 -1.2462
 3058TIP3   OH230588   6.372   2.864   3.456 -0.2576 -0.5713  0.3537
 3058TIP3    H130589   6.341   2.952   3.480 -0.6235 -0.3400 -0.8912
 3058TIP3    H230590   6.303   2.829   3.400 -0.3619 -1.8819  1.2467
 3059TIP3   OH230591   5.715   1.082   5.248  0.1598 -0.1730 -0.1405
 3059TIP3    H130592   5.795   1.088   5.301  0.0392 -0.7061  0.1108
 3059TIP3    H230593   5.672   1.003   5.280  0.5795 -1.0917 -1.7254
 3060TIP3   OH230594   0.023   0.956   0.707 -0.2536  0.2642 -0.4461
 3060TIP3    H130595  -0.051   1.006   0.742  1.4377  1.8689  1.0584
 3060TIP3    H230596   0.056   0.907   0.783  1.5583  1.3299 -0.4981
 3061TIP3   OH230597   5.103   0.318   3.181  0.8798  0.0478 -0.0490
 3061TIP3    H130598   5.050   0.347   3.106  0.9472 -1.0935 -0.5529
 3061TIP3    H230599   5.067   0.367   3.255 -0.4664 -0.2016 -0.4928
 3062TIP3   OH230600   4.055   5.693  16.999 -0.1756 -0.0776  0.0944
 3062TIP3    H130601   4.110   5.622  16.966 -0.1221 -0.9959  2.0024
 3062TIP3    H230602   4.011   5.656  17.075 -0.3988  1.8316  0.9676
 3063TIP3   OH230603   1.255   1.601  12.338  0.4081 -0.0190  0.2446
 3063TIP3    H130604   1.347   1.576  12.331  0.2954 -0.5836  0.6472
 3063TIP3    H230605   1.217   1.533  12.394  0.2802  1.5815  2.1960
 3064TIP3   OH230606   6.605   1.261  15.329 -0.1207 -0.0326 -0.2108
 3064TIP3    H130607   6.651   1.185  15.293 -1.7483 -0.3073 -1.8594
 3064TIP3    H230608   6.612   1.250  15.424  0.4503 -1.7539 -0.4117
 3065TIP3   OH230609   5.185   3.771   2.985  0.3334  0.6064 -0.6222
 3065TIP3    H130610   5.118   3.807   2.927 -0.6470 -0.0881  0.0636
 3065TIP3    H230611   5.257   3.748   2.926 -1.3451 -1.8367 -1.9159
 3066TIP3   OH230612   3.450   5.648   3.721 -0.0664  0.3136 -0.6939
 3066TIP3    H130613   3.520   5.699   3.679 -0.3648  0.9089 -0.4813
 3066TIP3    H230614   3.396   5.714   3.766  0.7792 -0.3495  1.4528
 3067TIP3   OH230615   4.804   5.558  14.913 -0.5099 -0.0185  0.2506
 3067TIP3    H130616   4.750   5.613  14.970 -1.9797 -1.8369  0.7316
 3067TIP3    H230617   4.893   5.592  14.924 -1.0767  1.0240  1.9922
 3068TIP3   OH230618   1.641   6.139  14.833  0.1901  0.3641  0.1744
 3068TIP3    H130619   1.570   6.122  14.772 -0.9559 -0.3260  1.6365
 3068TIP3    H230620   1.680   6.221  14.802 -1.4868  0.9709 -0.4580
 3069TIP3   OH230621   2.857   4.390  16.045  0.7587 -0.2397 -0.4652
 3069TIP3    H130622   2.914   4.387  16.122  0.4340  0.0508 -0.2081
 3069TIP3    H230623   2.829   4.300  16.032 -0.2719 -0.1016  0.5935
 3070TIP3   OH230624   5.535   2.984   4.851 -0.3955  0.2349 -0.3558
 3070TIP3    H130625   5.542   2.931   4.931  0.9264  1.1019  0.1347
 3070TIP3    H230626   5.443   2.975   4.825 -0.7488 -0.4329  0.9997
 3071TIP3   OH230627   5.017   3.297  11.109  0.5800 -0.4124 -0.6738
 3071TIP3    H130628   5.033   3.310  11.203  0.3319  0.1516 -0.7082
 3071TIP3    H230629   5.019   3.202  11.098 -1.4527 -0.6199  0.2660
 3072TIP3   OH230630   5.886   5.058   0.167 -0.2225  0.4261  0.2531
 3072TIP3    H130631   5.856   5.099   0.086 -0.9740  0.7147  0.6681
 3072TIP3    H230632   5.973   5.096   0.183 -0.5759  1.2661  0.2171
 3073TIP3   OH230633   5.936   0.637  17.060  0.8481 -0.5647 -0.5075
 3073TIP3    H130634   5.990   0.579  17.114 -0.0560  0.8230  2.0043
 3073TIP3    H230635   5.991   0.714  17.047 -0.7271  1.3537  3.0342
 3074TIP3   OH230636   6.480   3.868   1.334 -0.0741  0.0247 -0.1756
 3074TIP3    H130637   6.526   3.937   1.286 -1.1256  1.9662  1.4451
 3074TIP3    H230638   6.388   3.895   1.331 -0.5541 -1.4896  0.2642
 3075TIP3   OH230639   1.988   0.629   4.606  0.2551 -0.8691 -0.9120
 3075TIP3    H130640   1.946   0.683   4.674  1.6416  2.4731 -2.4654
 3075TIP3    H230641   2.045   0.569   4.655 -0.4652 -0.1278  0.9416
 3076TIP3   OH230642   2.064   2.355   0.986 -0.2624  0.2353  0.7337
 3076TIP3    H130643   2.025   2.279   0.944 -1.8412  1.1828  0.4036
 3076TIP3    H230644   2.076   2.328   1.077  2.2987 -1.5001 -0.0193
 3077TIP3   OH230645   3.002   0.510  11.980 -0.0389  0.1236 -0.3387
 3077TIP3    H130646   3.094   0.499  12.002 -0.2142 -0.0576  0.3279
 3077TIP3    H230647   2.979   0.596  12.015 -0.1347  0.1477 -0.4594
 3078TIP3   OH230648   0.328   1.021  14.879  0.2963  0.0448 -0.5275
 3078TIP3    H130649   0.381   0.960  14.828  1.2656  0.6289 -0.2597
 3078TIP3    H230650   0.392   1.073  14.928 -0.5444  0.5962  0.0201
 3079TIP3   OH230651   0.590   0.229   2.311 -0.0625 -0.1528  0.0717
 3079TIP3    H130652   0.619   0.187   2.230  0.0148 -0.6440  0.3464
 3079TIP3    H230653   0.495   0.221   2.310 -0.3125  2.1308 -1.1951
 3080TIP3   OH230654   1.630   6.318  12.547  0.1544  0.1547 -0.2655
 3080TIP3    H130655   1.688   6.247  12.575 -0.5556 -0.2992  0.0866
 3080TIP3    H230656   1.572   6.332  12.622 -1.2567 -0.5207 -1.2046
 3081TIP3   OH230657   6.397   3.228   0.037 -0.0016  0.5157  0.3169
 3081TIP3    H130658   6.487   3.234   0.069 -0.2366 -0.5629  1.2606
 3081TIP3    H230659   6.372   3.318   0.019  1.4565  0.7813 -0.5191
 3082TIP3   OH230660   3.369   3.810  17.085 -0.0354  0.0018  0.4893
 3082TIP3    H130661   3.422   3.888  17.076 -0.3871  0.1140 -0.8765
 3082TIP3    H230662   3.390   3.776  17.172  0.7857  1.1087  0.7423
 3083TIP3   OH230663   4.238   0.986   2.028  0.5565 -0.1796  0.2144
 3083TIP3    H130664   4.195   0.901   2.041 -1.4474  0.8792  0.9602
 3083TIP3    H230665   4.243   1.024   2.115  1.3621  0.5060 -0.1257
 3084TIP3   OH230666   1.888   2.593   5.596  0.0211 -0.5863 -0.0226
 3084TIP3    H130667   1.980   2.587   5.623  0.4761 -0.2548 -1.4263
 3084TIP3    H230668   1.875   2.685   5.576 -0.7011 -0.5870  0.4127
 3085TIP3   OH230669   3.119   0.389   3.988 -0.8517 -0.6130 -0.5327
 3085TIP3    H130670   3.117   0.298   3.960 -0.6969 -0.4641 -1.0373
 3085TIP3    H230671   3.190   0.429   3.938  0.6357 -0.7463  1.3800
 3086TIP3   OH230672   0.562   4.418  12.286  0.4444 -0.3775 -0.5304
 3086TIP3    H130673   0.569   4.344  12.226 -1.0703 -0.8959 -0.1059
 3086TIP3    H230674   0.649   4.426  12.325  0.6787 -1.8123 -0.7132
 3087TIP3   OH230675   3.570   1.503   0.113 -0.1275  0.1124  0.1677
 3087TIP3    H130676   3.563   1.475   0.022  1.2977 -0.0554  0.0794
 3087TIP3    H230677   3.620   1.585   0.109 -1.6978  1.1288  0.6643
 3088TIP3   OH230678   0.584   2.108   3.054  0.2398 -0.1737  0.2229
 3088TIP3    H130679   0.616   2.091   3.143  0.0670  0.8763  0.5010
 3088TIP3    H230680   0.643   2.060   2.997  0.5281 -0.6256  0.8900
 3089TIP3   OH230681   3.469   2.570   5.789  0.3903 -0.7309  0.2194
 3089TIP3    H130682   3.410   2.592   5.717 -0.2882 -1.4484  0.5430
 3089TIP3    H230683   3.465   2.645   5.848  1.2601  0.0457 -0.6580
 3090TIP3   OH230684   4.629   4.034   4.542  0.4777 -0.4570  0.2869
 3090TIP3    H130685   4.576   4.107   4.507  0.0486 -1.5758 -1.5519
 3090TIP3    H230686   4.702   4.077   4.587  0.4988  1.1328 -1.1341
 3091TIP3   OH230687   1.184   2.788  15.895  0.6175  0.2834  0.1981
 3091TIP3    H130688   1.237   2.867  15.884  0.5357  0.2601 -0.3978
 3091TIP3    H230689   1.127   2.786  15.818  0.6505 -0.3854  0.1848
 3092TIP3   OH230690   1.189   4.244  14.046 -0.0522  0.6807  0.3244
 3092TIP3    H130691   1.138   4.163  14.049  0.1885  0.5364  0.5245
 3092TIP3    H230692   1.257   4.233  14.113  0.2246  0.8837  0.0824
 3093TIP3   OH230693   0.487   5.016  14.474  0.2152 -0.2355  0.5054
 3093TIP3    H130694   0.400   4.975  14.483 -0.3624  0.8660  0.1148
 3093TIP3    H230695   0.470   5.098  14.429  1.5184 -0.1313  0.1728
 3094TIP3   OH230696   0.653   5.162   3.374  0.1267 -0.0778 -0.7557
 3094TIP3    H130697   0.653   5.207   3.290  0.7298 -1.5038 -1.5756
 3094TIP3    H230698   0.596   5.086   3.361  1.6299 -1.3098 -0.4923
 3095TIP3   OH230699   5.382   1.695  14.573  0.5807 -0.6056 -0.3409
 3095TIP3    H130700   5.462   1.649  14.549  1.4877  1.3945 -1.4996
 3095TIP3    H230701   5.360   1.746  14.495 -1.2814 -0.3418  0.3016
 3096TIP3   OH230702   4.083   2.851  13.599 -0.2931  0.2509  0.4271
 3096TIP3    H130703   4.053   2.817  13.684 -0.0252  0.2016  0.5034
 3096TIP3    H230704   4.030   2.803  13.535 -0.8385  0.6387  0.5802
 3097TIP3   OH230705   1.126   6.345  14.694  0.2590  0.3285  0.1103
 3097TIP3    H130706   1.210   6.368  14.735  0.0212  1.5097 -0.0341
 3097TIP3    H230707   1.150   6.297  14.615  0.7594 -0.5159  0.7545
 3098TIP3   OH230708   1.283   1.242  16.323  0.2301 -0.2751 -0.0040
 3098TIP3    H130709   1.192   1.266  16.309  0.8678  2.4722 -0.1396
 3098TIP3    H230710   1.332   1.294  16.258  1.9864 -0.4929  1.0635
 3099TIP3   OH230711   5.535   0.769   6.289 -0.1134  0.2401 -0.5922
 3099TIP3    H130712   5.445   0.737   6.282 -0.4055  1.1284 -1.0867
 3099TIP3    H230713   5.584   0.695   6.325 -0.8554 -0.5816 -1.2129
 3100TIP3   OH230714   6.148   0.679  11.260 -0.6290  0.2466 -0.1137
 3100TIP3    H130715   6.138   0.762  11.215  0.0084  0.1243 -0.4963
 3100TIP3    H230716   6.085   0.683  11.332 -0.1626  1.3236  0.2588
 3101TIP3   OH230717   4.631   3.883   2.813 -0.2966 -0.2592 -0.1390
 3101TIP3    H130718   4.616   3.857   2.904  0.4530 -1.2091 -0.2642
 3101TIP3    H230719   4.722   3.857   2.796 -0.5898 -0.5887 -1.3193
 3102TIP3   OH230720   2.728   5.519  10.780 -0.2968  0.3544 -0.3431
 3102TIP3    H130721   2.680   5.587  10.732 -1.3700 -0.8285 -1.0387
 3102TIP3    H230722   2.715   5.440  10.727  0.0505 -0.6088  0.9612
 3103TIP3   OH230723   6.223   2.566   3.114 -0.4608 -0.4492 -0.3894
 3103TIP3    H130724   6.192   2.608   3.194 -0.5327 -2.3462  0.6360
 3103TIP3    H230725   6.282   2.630   3.074  1.2726 -0.2211  2.2977
 3104TIP3   OH230726   4.092   5.527   4.147 -0.2435  0.1851  0.4144
 3104TIP3    H130727   4.139   5.508   4.066 -1.5345  0.3801 -0.3994
 3104TIP3    H230728   4.156   5.575   4.200  0.6826 -0.1122 -0.3879
 3105TIP3   OH230729   1.049   6.171  17.144 -0.0328 -0.2626 -0.1295
 3105TIP3    H130730   0.975   6.112  17.158 -0.3447  0.0987 -0.2419
 3105TIP3    H230731   1.117   6.115  17.106 -0.3953 -0.5111 -0.4169
 3106TIP3   OH230732   3.564   5.399   4.258 -0.3612  0.0536  0.2881
 3106TIP3    H130733   3.567   5.303   4.260 -0.0517  0.0772  1.2945
 3106TIP3    H230734   3.543   5.425   4.347  1.7849  0.9856  0.5834
 3107TIP3   OH230735   6.019   3.868   3.665 -0.2330 -0.1228  0.2374
 3107TIP3    H130736   6.057   3.780   3.669 -0.4569 -0.2391 -0.1047
 3107TIP3    H230737   5.985   3.875   3.576 -0.4608  0.2102  0.3487
 3108TIP3   OH230738   6.382   1.580  15.135 -0.6398  0.0810  0.3083
 3108TIP3    H130739   6.442   1.576  15.060 -1.0969  1.3430 -0.1487
 3108TIP3    H230740   6.396   1.497  15.181  1.4818  0.3341  0.2391
 3109TIP3   OH230741   5.728   5.576   0.583 -0.2877  0.4060 -0.5789
 3109TIP3    H130742   5.695   5.649   0.530  1.4327 -0.8355 -3.6665
 3109TIP3    H230743   5.669   5.503   0.565  0.1092  0.0627 -0.5244
 3110TIP3   OH230744   4.499   4.412  11.156 -0.0372 -0.3644  0.1397
 3110TIP3    H130745   4.480   4.505  11.145  0.4870 -0.3496 -0.6926
 3110TIP3    H230746   4.433   4.368  11.103  0.8154 -0.3966 -0.9073
 3111TIP3   OH230747   2.027   5.624  11.365  0.1481  1.2310  0.1712
 3111TIP3    H130748   2.023   5.671  11.281 -0.3243  0.5018 -0.2308
 3111TIP3    H230749   2.058   5.536  11.341 -0.4368  0.8754  0.6862
 3112TIP3   OH230750   3.956   0.644  11.753  0.1417 -0.5120 -0.4127
 3112TIP3    H130751   4.000   0.618  11.834 -0.4216 -0.1531  0.0101
 3112TIP3    H230752   4.006   0.599  11.684  1.8494  0.7091 -0.0587
 3113TIP3   OH230753   1.480   0.967   5.348 -0.0451 -0.1136 -0.8821
 3113TIP3    H130754   1.548   0.916   5.304  1.5934  0.4288  0.8754
 3113TIP3    H230755   1.455   0.914   5.424 -0.9131  0.1237 -0.9855
 3114TIP3   OH230756   5.039   5.156   5.492 -0.6415 -0.0556  0.1993
 3114TIP3    H130757   4.956   5.181   5.453 -0.1413  1.3402 -0.0311
 3114TIP3    H230758   5.015   5.114   5.575 -1.6154 -0.9988 -0.5396
 3115TIP3   OH230759   2.919   0.811  14.134  0.2276  0.0548 -0.3073
 3115TIP3    H130760   2.971   0.828  14.213 -1.7750  0.8225  0.9378
 3115TIP3    H230761   2.921   0.893  14.086  0.6517 -0.1180 -0.5991
 3116TIP3   OH230762   5.326   1.177  15.068 -0.2086 -0.1006 -0.5639
 3116TIP3    H130763   5.380   1.250  15.098 -1.5226  0.3512  0.8688
 3116TIP3    H230764   5.345   1.169  14.975  1.4494  0.7610 -0.3318
 3117TIP3   OH230765   2.295   0.598  16.800 -0.3896  0.1622 -0.7471
 3117TIP3    H130766   2.293   0.690  16.771  2.2727 -0.4186 -3.1969
 3117TIP3    H230767   2.363   0.596  16.868  2.2265 -0.4496 -3.1939
 3118TIP3   OH230768   6.053   0.342   3.307 -0.4817 -0.3403  0.2213
 3118TIP3    H130769   6.028   0.393   3.230 -1.7887 -0.9376  0.2124
 3118TIP3    H230770   5.971   0.301   3.336  0.2295 -1.1503  1.1700
 3119TIP3   OH230771   0.307   5.901   1.953 -0.0427  0.0121  0.4176
 3119TIP3    H130772   0.331   5.976   1.899 -1.7506 -0.5960 -1.2581
 3119TIP3    H230773   0.307   5.827   1.893  0.3414 -1.1372  1.7736
 3120TIP3   OH230774   2.881   6.600   6.196  0.5300  0.1367 -0.3321
 3120TIP3    H130775   2.970   6.611   6.163  0.5609 -0.3010 -0.4028
 3120TIP3    H230776   2.877   6.508   6.224 -0.4542 -0.3976 -2.0685
 3121TIP3   OH230777   0.504   1.925   4.747  0.2699 -0.1833  1.0548
 3121TIP3    H130778   0.495   2.014   4.780 -2.2542 -0.6410  1.8990
 3121TIP3    H230779   0.519   1.935   4.653  0.5247  1.1348  1.2218
 3122TIP3   OH230780   0.147   1.308  14.913 -0.3658 -0.0025 -0.3025
 3122TIP3    H130781   0.218   1.330  14.854 -0.2132 -1.6599 -0.7796
 3122TIP3    H230782   0.189   1.297  14.998  0.1306 -1.7477 -0.7278
 3123TIP3   OH230783   1.835   2.069  17.224  0.1980 -0.3834 -0.1248
 3123TIP3    H130784   1.795   2.156  17.221 -1.3538 -1.1128 -1.7677
 3123TIP3    H230785   1.824   2.041  17.315  0.3168  0.9373  0.3203
 3124TIP3   OH230786   3.132   1.149   4.089  0.3536  0.4519  0.3686
 3124TIP3    H130787   3.175   1.162   4.004 -0.0890  0.7427  0.1841
 3124TIP3    H230788   3.066   1.081   4.072  1.5637 -0.9051  0.9461
 3125TIP3   OH230789   6.341   1.947   0.250 -0.2067  0.1376 -0.1686
 3125TIP3    H130790   6.430   1.953   0.217 -0.6706 -0.5057 -1.5894
 3125TIP3    H230791   6.349   1.895   0.331  0.5914 -0.7177 -0.7811
 3126TIP3   OH230792   0.197   6.320  14.517  0.4830 -0.0090  0.3863
 3126TIP3    H130793   0.138   6.329  14.591  1.0076  0.6760  0.7318
 3126TIP3    H230794   0.191   6.404  14.471 -1.3463 -1.0764 -1.5187
 3127TIP3   OH230795   0.281   2.777   5.451  0.0155 -0.4719 -0.2133
 3127TIP3    H130796   0.229   2.701   5.475  0.1736 -0.3183  0.6625
 3127TIP3    H230797   0.313   2.812   5.535  2.5266 -1.2595 -0.7536
 3128TIP3   OH230798   1.916   6.673  14.388  0.2066  0.3409 -0.6622
 3128TIP3    H130799   1.829   6.702  14.416  0.5431  0.2610  0.5388
 3128TIP3    H230800   1.958   6.752  14.355 -0.3408  0.3631 -1.3272
 3129TIP3   OH230801   0.751   6.381   3.383 -0.2295 -0.0039  0.2105
 3129TIP3    H130802   0.696   6.458   3.394 -2.7600 -1.2985 -2.0468
 3129TIP3    H230803   0.838   6.415   3.364 -1.4068  2.3793 -1.4110
 3130TIP3   OH230804   6.315   0.335   3.892  0.2649 -0.1810 -0.1193
 3130TIP3    H130805   6.222   0.355   3.893  0.2496 -0.2549  0.8436
 3130TIP3    H230806   6.324   0.268   3.824 -0.3000  0.1614 -0.5424
 3131TIP3   OH230807   1.824   3.456   5.828 -0.8210 -0.0463 -0.0466
 3131TIP3    H130808   1.919   3.461   5.820 -0.8755  0.8559 -0.1816
 3131TIP3    H230809   1.803   3.366   5.802 -0.0002 -0.2973  0.1147
 3132TIP3   OH230810   2.914   2.212   2.956 -0.0583 -0.3236 -0.5235
 3132TIP3    H130811   2.974   2.285   2.968 -0.4450  0.0564 -0.8723
 3132TIP3    H230812   2.858   2.213   3.033 -0.4237  0.0941 -0.7918
 3133TIP3   OH230813   4.271   6.030   2.401 -0.2509 -0.0154 -0.0534
 3133TIP3    H130814   4.197   6.047   2.344 -1.3197 -2.3083  0.5423
 3133TIP3    H230815   4.253   6.080   2.480 -0.3477  0.6881 -0.5167
 3134TIP3   OH230816   2.484   4.060   1.993  0.9802 -0.7461 -0.1237
 3134TIP3    H130817   2.536   4.035   1.916 -0.5946 -1.5373 -0.9901
 3134TIP3    H230818   2.468   4.153   1.981  0.5436 -0.9069 -0.9236
 3135TIP3   OH230819   5.944   6.309   2.913 -0.2235  0.0956  0.2990
 3135TIP3    H130820   6.006   6.312   2.986  1.8841 -1.8426 -1.2605
 3135TIP3    H230821   5.937   6.400   2.884  0.1851  0.6551  1.8453
 3136TIP3   OH230822   0.753   3.869   2.924 -0.0205  0.2208  0.1814
 3136TIP3    H130823   0.745   3.879   3.019  1.5671  1.6825  0.2008
 3136TIP3    H230824   0.733   3.956   2.888 -0.3641 -0.2507 -0.8111
 3137TIP3   OH230825   5.369   1.874  16.767  0.4585  0.0584  0.6571
 3137TIP3    H130826   5.458   1.848  16.792  0.2392 -0.1684  1.2384
 3137TIP3    H230827   5.381   1.951  16.711  1.0525 -0.4535  0.0661
 3138TIP3   OH230828   3.089   1.436  16.584  0.0267  0.1987 -0.3447
 3138TIP3    H130829   3.170   1.387  16.596  1.1058  1.7271 -1.1178
 3138TIP3    H230830   3.084   1.494  16.660 -0.9551 -0.6724  0.2827
 3139TIP3   OH230831   1.689   3.902   5.898  0.0984 -0.2895  0.0017
 3139TIP3    H130832   1.606   3.864   5.929  0.7192 -0.7329  1.2067
 3139TIP3    H230833   1.669   3.936   5.811 -1.5008  0.1453  0.5054
 3140TIP3   OH230834   0.844   1.034  17.331  0.2140  0.0044 -0.2713
 3140TIP3    H130835   0.853   0.986  17.414  1.6196 -0.9713 -0.9421
 3140TIP3    H230836   0.772   1.095  17.346  2.1060  1.7964  2.6253
 3141TIP3   OH230837   3.993   2.508   0.858 -0.5439  0.2540 -0.0440
 3141TIP3    H130838   3.982   2.596   0.822 -1.0599  0.3079  0.2306
 3141TIP3    H230839   4.087   2.499   0.872 -0.6293  1.4727  1.6705
 3142TIP3   OH230840   2.634   1.403  13.179 -0.0975  0.1396 -0.0256
 3142TIP3    H130841   2.584   1.364  13.250 -2.4629 -1.2811 -2.2888
 3142TIP3    H230842   2.666   1.327  13.129  0.1197  1.0773 -1.3495
 3143TIP3   OH230843   0.102   2.938  10.828 -0.5120  0.2904 -1.1879
 3143TIP3    H130844   0.095   2.845  10.805 -3.1280  0.3212 -0.8385
 3143TIP3    H230845   0.046   2.982  10.764 -2.7557  1.0997  1.1590
 3144TIP3   OH230846   0.689   2.237   2.645 -0.0304  0.1424 -0.9233
 3144TIP3    H130847   0.631   2.162   2.658 -1.8152  1.4985 -0.6672
 3144TIP3    H230848   0.692   2.249   2.550 -0.6599  0.4198 -0.9109
 3145TIP3   OH230849   0.649   6.196   3.210  0.3150 -0.0213  0.5007
 3145TIP3    H130850   0.689   6.277   3.243  0.0297  0.6504 -0.7297
 3145TIP3    H230851   0.559   6.221   3.188 -0.3348 -1.1354  1.7688
 3146TIP3   OH230852   6.279   3.635   5.023  0.5550  0.1184  0.7924
 3146TIP3    H130853   6.304   3.724   4.998 -2.3642  0.6289 -0.7309
 3146TIP3    H230854   6.284   3.635   5.118  2.8320  1.1325  0.7431
 3147TIP3   OH230855   0.098   6.685   1.567 -0.5102 -0.1539  0.3680
 3147TIP3    H130856   0.111   6.779   1.568 -1.6529  0.0861 -1.5268
 3147TIP3    H230857   0.032   6.669   1.634  0.1354  0.2849  1.1283
 3148TIP3   OH230858   5.032   3.131  17.298 -0.3374  0.0681  0.1982
 3148TIP3    H130859   4.998   3.118  17.210  1.2645 -0.3436 -0.3723
 3148TIP3    H230860   4.953   3.148  17.351 -1.2562  1.0981 -1.4186
 3149TIP3   OH230861   0.703   3.080  11.400  0.1276 -0.1572 -0.2960
 3149TIP3    H130862   0.761   3.108  11.330  0.2701  1.5455  0.4473
 3149TIP3    H230863   0.754   3.015  11.449  0.8256  0.2220 -0.5168
 3150TIP3   OH230864   4.270   6.173  11.761 -0.8007  0.2339  0.0900
 3150TIP3    H130865   4.192   6.118  11.763 -0.2420 -0.5622  0.4734
 3150TIP3    H230866   4.250   6.239  11.694 -1.4961 -0.4187 -0.3751
 3151TIP3   OH230867   0.396   5.048   1.679  0.0194  0.2808  0.5422
 3151TIP3    H130868   0.421   4.972   1.731 -0.4257 -0.2894 -0.0559
 3151TIP3    H230869   0.467   5.058   1.615  0.1775  0.4925  0.7512
 3152TIP3   OH230870   3.180   0.238  10.853 -0.4865 -0.4356  0.4091
 3152TIP3    H130871   3.089   0.210  10.866 -1.0089  0.6147 -0.7415
 3152TIP3    H230872   3.210   0.263  10.940 -1.5403 -0.1101  0.6929
 3153TIP3   OH230873   0.296   0.411   0.562  0.2576 -0.3897 -0.5133
 3153TIP3    H130874   0.297   0.454   0.477  0.1623  1.5598  0.4177
 3153TIP3    H230875   0.382   0.430   0.600 -0.0407 -0.3900  0.1959
 3154TIP3   OH230876   3.591   0.843  15.789  0.5431  0.2118 -0.2769
 3154TIP3    H130877   3.549   0.774  15.739 -1.4061  2.1115 -1.4373
 3154TIP3    H230878   3.550   0.838  15.875  0.6567 -0.2664 -0.2457
 3155TIP3   OH230879   3.980   4.670  12.853 -1.0030  0.5213  0.4748
 3155TIP3    H130880   3.973   4.765  12.858 -2.1989  0.6397 -1.8354
 3155TIP3    H230881   3.953   4.649  12.764 -4.6028 -2.2479  1.9207
 3156TIP3   OH230882   5.983   5.132  11.180 -0.3058 -0.3230  0.0073
 3156TIP3    H130883   5.984   5.053  11.126  0.1829  0.0203 -0.4922
 3156TIP3    H230884   5.993   5.204  11.118  0.4194  0.0660  0.5588
 3157TIP3   OH230885   0.725   1.481  16.555 -0.1898  0.2410  0.1226
 3157TIP3    H130886   0.760   1.551  16.500 -2.4731  2.3882  1.2284
 3157TIP3    H230887   0.640   1.460  16.517 -1.3418  1.0142  2.1443
 3158TIP3   OH230888   0.354   0.588   0.336  0.1949  0.4297 -0.6339
 3158TIP3    H130889   0.444   0.613   0.355  0.5629  0.3976 -2.1492
 3158TIP3    H230890   0.352   0.580   0.240 -0.9016 -1.5696 -0.4796
 3159TIP3   OH230891   2.919   2.582  17.245 -0.4427  0.2345  0.2737
 3159TIP3    H130892   2.905   2.542  17.330 -0.1406  0.1795  0.2974
 3159TIP3    H230893   3.014   2.588  17.236 -0.4827  0.8704  0.2404
 3160TIP3   OH230894   4.176   2.903  14.088 -0.1540  0.1866  0.1209
 3160TIP3    H130895   4.127   2.824  14.066  0.2997 -0.1339  0.2393
 3160TIP3    H230896   4.126   2.942  14.160 -1.1486  0.7669 -0.8487
 3161TIP3   OH230897   2.777   3.498  13.075  0.5247 -0.1954 -0.1305
 3161TIP3    H130898   2.800   3.565  13.139 -1.0829  0.5598 -0.2882
 3161TIP3    H230899   2.693   3.464  13.105  0.6277 -1.1278 -0.8501
 3162TIP3   OH230900   2.165   4.333  11.899 -0.0880 -0.0321 -0.0528
 3162TIP3    H130901   2.212   4.399  11.847  0.2785 -2.0117 -2.4616
 3162TIP3    H230902   2.082   4.322  11.853 -0.4182 -0.7495  0.6988
 3163TIP3   OH230903   4.318   6.426   1.767  0.1619 -0.5882  0.2835
 3163TIP3    H130904   4.260   6.440   1.692 -0.1412 -1.9819  0.2139
 3163TIP3    H230905   4.363   6.509   1.780  0.3554 -0.3606 -1.5772
 3164TIP3   OH230906   4.605   3.996  15.881 -0.3208 -0.0471  0.3354
 3164TIP3    H130907   4.630   4.057  15.950  0.1379 -1.5245  1.5361
 3164TIP3    H230908   4.682   3.990  15.824 -1.0692  2.0133 -1.0344
 3165TIP3   OH230909   1.741   5.946   5.677 -0.1844  0.7700  0.2056
 3165TIP3    H130910   1.729   5.940   5.583  1.2140 -1.4829  0.0902
 3165TIP3    H230911   1.836   5.936   5.690 -0.5730 -1.2965  1.9289
 3166TIP3   OH230912   6.345   4.363   5.001 -0.5175  0.2273  0.3064
 3166TIP3    H130913   6.363   4.418   5.078  1.3088 -3.4055  2.7922
 3166TIP3    H230914   6.419   4.380   4.943 -0.5254  1.1372  0.5432
 3167TIP3   OH230915   4.579   4.726   3.619 -0.1758  0.3743  0.6673
 3167TIP3    H130916   4.578   4.747   3.712 -0.0318  0.5151  0.6375
 3167TIP3    H230917   4.561   4.632   3.615 -0.9010  0.4984  0.7968
 3168TIP3   OH230918   4.713   3.899   5.061  0.1763  0.0787  0.0191
 3168TIP3    H130919   4.646   3.886   4.993 -0.8549  0.5818  0.9104
 3168TIP3    H230920   4.795   3.907   5.012 -0.6136  1.0439 -1.2216
 3169TIP3   OH230921   6.531   5.052  14.958 -0.0857  0.0334 -0.0247
 3169TIP3    H130922   6.525   5.019  14.869  1.4861  2.5074 -1.1626
 3169TIP3    H230923   6.453   5.107  14.968 -1.0807 -1.4580  0.7497
 3170TIP3   OH230924   4.374   1.561   0.903 -0.0417 -0.3951 -0.5584
 3170TIP3    H130925   4.397   1.516   0.822 -0.1477 -1.4287 -0.0244
 3170TIP3    H230926   4.443   1.537   0.965  0.3191  0.7944 -0.4657
 3171TIP3   OH230927   5.586   5.131   4.455 -0.2865  0.4746 -0.2459
 3171TIP3    H130928   5.579   5.089   4.540 -2.4725  2.4110  0.6516
 3171TIP3    H230929   5.680   5.139   4.439  0.1591 -1.1125  1.3441
 3172TIP3   OH230930   1.913   1.985   6.673 -0.5313 -0.1615  0.6563
 3172TIP3    H130931   1.926   1.891   6.672 -0.6542 -0.1752  0.0858
 3172TIP3    H230932   1.837   2.000   6.616  0.2720  0.3934 -0.3026
 3173TIP3   OH230933   3.866   6.482   0.219  0.4381 -0.1788  0.4350
 3173TIP3    H130934   3.861   6.387   0.209  0.5465  0.0017 -2.1730
 3173TIP3    H230935   3.950   6.498   0.261  1.5677 -1.2045 -1.2690
 3174TIP3   OH230936   0.304   5.341  15.008 -0.2721  0.1987 -0.3939
 3174TIP3    H130937   0.318   5.389  14.926  1.6097  0.0410 -0.2196
 3174TIP3    H230938   0.373   5.274  15.008 -0.2734  0.1520  1.2769
 3175TIP3   OH230939   2.108   0.299  15.779 -0.1829  0.3872  0.4116
 3175TIP3    H130940   2.148   0.261  15.701  0.3455  0.3231  0.7084
 3175TIP3    H230941   2.043   0.361  15.745 -0.7776 -0.4811 -0.0719
 3176TIP3   OH230942   3.264   3.721   6.390  0.2951 -0.3455  0.3019
 3176TIP3    H130943   3.296   3.789   6.331  0.2363  1.4924  2.2596
 3176TIP3    H230944   3.320   3.645   6.372  1.2668  0.6396 -1.0232
 3177TIP3   OH230945   2.781   4.852   4.778  0.0917  0.0504 -0.6901
 3177TIP3    H130946   2.870   4.884   4.791 -0.3245  0.8838  0.2520
 3177TIP3    H230947   2.787   4.758   4.796  0.7259  0.1475 -0.3490
 3178TIP3   OH230948   5.162   3.753   4.390  0.0102 -0.1767  0.0835
 3178TIP3    H130949   5.125   3.735   4.477  0.3853  1.1822  0.5477
 3178TIP3    H230950   5.242   3.700   4.388  1.3360  1.6018  1.6090
 3179TIP3   OH230951   1.745   6.602   4.689  0.8720 -0.2103 -0.0618
 3179TIP3    H130952   1.698   6.668   4.639  0.8119  2.0916  2.8049
 3179TIP3    H230953   1.823   6.647   4.722  1.6248 -2.0174  0.7919
 3180TIP3   OH230954   3.122   1.637  11.114  0.7298 -0.3735  0.4000
 3180TIP3    H130955   3.066   1.560  11.117 -0.0942  0.2422  1.6041
 3180TIP3    H230956   3.066   1.708  11.145  2.2816  0.2062  2.0036
 3181TIP3   OH230957   5.787   1.518  13.037  0.3172 -0.3621 -0.1733
 3181TIP3    H130958   5.853   1.490  13.101  1.6304  1.4652 -0.6465
 3181TIP3    H230959   5.770   1.439  12.985  0.7464 -1.3442  1.1144
 3182TIP3   OH230960   0.489   4.678   1.145 -0.6015 -0.4167  0.3988
 3182TIP3    H130961   0.394   4.683   1.140 -0.5575  0.9592  0.4850
 3182TIP3    H230962   0.507   4.650   1.235 -0.9305 -1.7561  0.0615
 3183TIP3   OH230963   3.959   1.545   4.190 -0.8087  0.0474 -0.0072
 3183TIP3    H130964   3.867   1.522   4.175 -1.2690 -0.2761  2.7113
 3183TIP3    H230965   4.003   1.461   4.203  0.0637  0.1604 -1.9618
 3184TIP3   OH230966   1.750   5.583  16.398 -0.1582  0.0095  0.3983
 3184TIP3    H130967   1.718   5.610  16.312  3.0688  1.3478 -0.5227
 3184TIP3    H230968   1.763   5.488  16.389  2.1225  0.4013 -1.4281
 3185TIP3   OH230969   3.792   0.469  16.945 -0.3140 -0.2365  0.7339
 3185TIP3    H130970   3.788   0.546  17.001 -1.4237  0.7667 -0.6689
 3185TIP3    H230971   3.716   0.416  16.972  1.0677 -1.4665  2.4715
 3186TIP3   OH230972   3.042   0.604  11.181  0.1881  0.2824 -0.3679
 3186TIP3    H130973   2.997   0.680  11.145 -0.1244  0.9433  1.3262
 3186TIP3    H230974   3.105   0.640  11.243  1.2807 -0.7695 -0.8211
 3187TIP3   OH230975   1.708   3.632   0.467  0.0865 -0.0866  0.2409
 3187TIP3    H130976   1.626   3.651   0.422  0.4679 -0.3822 -0.6016
 3187TIP3    H230977   1.683   3.577   0.541 -0.4226 -0.5306 -0.2560
 3188TIP3   OH230978   0.527   0.577  14.731 -0.2748  0.2876 -0.1717
 3188TIP3    H130979   0.452   0.528  14.699  0.4149  0.0117 -1.4749
 3188TIP3    H230980   0.592   0.510  14.752  0.8511  0.5695 -2.4269
 3189TIP3   OH230981   1.598   0.278   6.273 -0.7483  0.3868  0.7447
 3189TIP3    H130982   1.555   0.231   6.344 -0.2375 -0.8656  0.2612
 3189TIP3    H230983   1.539   0.267   6.198 -1.0687  1.3196  0.8474
 3190TIP3   OH230984   5.136   1.281   1.405 -0.3034  0.5789 -0.0800
 3190TIP3    H130985   5.048   1.264   1.437  0.1806 -0.1265  0.9010
 3190TIP3    H230986   5.149   1.375   1.420 -0.8628  0.6757 -0.1858
 3191TIP3   OH230987   1.305   1.179  17.469 -0.1424  0.0202  0.1922
 3191TIP3    H130988   1.375   1.114  17.469  0.6145  0.8121 -0.2179
 3191TIP3    H230989   1.297   1.205  17.377  0.3589  1.3264  0.5032
 3192TIP3   OH230990   4.532   3.637   2.716  0.1344  0.8039 -0.1817
 3192TIP3    H130991   4.504   3.704   2.654  1.9667  0.4427 -1.5032
 3192TIP3    H230992   4.564   3.686   2.792 -2.0721  1.2542  0.5274
 3193TIP3   OH230993   5.154   5.608   0.252 -0.0237 -0.4632 -0.0634
 3193TIP3    H130994   5.121   5.614   0.163  0.5417  0.5790 -0.2155
 3193TIP3    H230995   5.207   5.687   0.264 -1.5566  0.3616  1.8084
 3194TIP3   OH230996   1.204   1.902  13.967  0.1187 -0.1248  0.4680
 3194TIP3    H130997   1.296   1.908  13.940  0.2971 -0.5884  0.9563
 3194TIP3    H230998   1.155   1.934  13.892  0.6576 -0.4292 -0.0224
 3195TIP3   OH230999   0.120   2.287  12.191  0.1257 -0.4535  0.1905
 3195TIP3    H131000   0.126   2.279  12.096  0.2992  0.0096  0.1586
 3195TIP3    H231001   0.074   2.208  12.220 -1.6697  0.3030 -0.4521
 3196TIP3   OH231002   5.949   5.538   5.850  0.1498 -0.0918 -0.4715
 3196TIP3    H131003   5.886   5.529   5.922  0.7137 -0.9223 -0.0692
 3196TIP3    H231004   5.978   5.449   5.833 -0.2758  0.0449 -2.0172
 3197TIP3   OH231005   0.330   0.731   4.600  0.9894  0.1971  0.1496
 3197TIP3    H131006   0.401   0.701   4.656  1.8702 -1.4949 -1.7276
 3197TIP3    H231007   0.274   0.654   4.588  0.2448  0.8085 -0.4348
 3198TIP3   OH231008   3.344   0.523  16.110  0.3645  0.0254 -0.9095
 3198TIP3    H131009   3.306   0.440  16.141 -0.7674  1.3645  1.6241
 3198TIP3    H231010   3.294   0.590  16.157  1.8982  2.1252 -2.1447
 3199TIP3   OH231011   3.581   0.274  14.140  0.0550  0.1829 -0.0935
 3199TIP3    H131012   3.560   0.315  14.225  0.1447  0.8011 -0.3630
 3199TIP3    H231013   3.499   0.277  14.092 -0.2153 -0.9572  0.2863
 3200TIP3   OH231014   6.191   2.826  12.432 -0.4954  0.0784 -0.8807
 3200TIP3    H131015   6.106   2.800  12.468 -0.8366 -1.2000 -2.5064
 3200TIP3    H231016   6.211   2.759  12.366  1.4917  0.6956 -0.9722
 3201TIP3   OH231017   4.687   6.146   3.629  0.4948  0.6046  0.2344
 3201TIP3    H131018   4.757   6.187   3.681  1.2927 -0.9024  0.3834
 3201TIP3    H231019   4.708   6.167   3.539 -0.3409  2.3748  0.3999
 3202TIP3   OH231020   1.284   3.469   3.536 -0.1760  0.0143 -0.3136
 3202TIP3    H131021   1.299   3.412   3.461 -0.1212  0.2200 -0.4588
 3202TIP3    H231022   1.370   3.504   3.558 -0.0292 -0.8080  0.4616
 3203TIP3   OH231023   5.777   2.409  12.890 -0.1322  0.0927 -0.0354
 3203TIP3    H131024   5.825   2.491  12.897  0.4453  0.2144 -3.4948
 3203TIP3    H231025   5.687   2.435  12.869  0.5535  0.0415 -3.6820
 3204TIP3   OH231026   3.885   5.567  14.259 -0.4202  0.4281  0.0818
 3204TIP3    H131027   3.840   5.562  14.344  0.3901 -0.9878  0.4621
 3204TIP3    H231028   3.975   5.542  14.279 -0.1846  0.2341 -1.1851
 3205TIP3   OH231029   1.730   5.884   5.392  0.3711 -0.7350 -0.3895
 3205TIP3    H131030   1.655   5.865   5.336  0.2078  0.8292 -0.7590
 3205TIP3    H231031   1.743   5.978   5.383  0.6650 -0.5030  1.7878
 3206TIP3   OH231032   2.862   0.351   4.464  0.6021 -0.4600  0.6081
 3206TIP3    H131033   2.951   0.318   4.456  1.0793  0.5092  1.6030
 3206TIP3    H231034   2.871   0.446   4.462 -0.2763 -0.3262  1.8681
 3207TIP3   OH231035   1.154   5.285  17.483  0.1550  0.2125  0.0659
 3207TIP3    H131036   1.073   5.241  17.508  0.1125 -0.1821 -0.7300
 3207TIP3    H231037   1.196   5.226  17.421  0.5246  0.9021 -0.3617
 3208TIP3   OH231038   2.422   0.033  11.406 -0.5357 -0.2614  0.1471
 3208TIP3    H131039   2.366   0.052  11.331 -1.2602 -0.1783  0.6919
 3208TIP3    H231040   2.362  -0.002  11.472 -0.4024  1.9933  1.5797
 3209TIP3   OH231041   0.462   4.286  13.232 -0.7511  0.8797 -0.4250
 3209TIP3    H131042   0.529   4.316  13.171 -0.1510  0.7598  0.1646
 3209TIP3    H231043   0.459   4.354  13.300 -0.2905  0.2561  0.2390
 3210TIP3   OH231044   5.948   5.596   6.143  0.1423 -0.0054 -0.0417
 3210TIP3    H131045   5.956   5.639   6.058  1.2974 -0.4046 -0.1522
 3210TIP3    H231046   5.930   5.667   6.204  3.4312  0.9498  0.0081
 3211TIP3   OH231047   4.457   6.721  14.668 -0.1182  0.0801  0.1315
 3211TIP3    H131048   4.440   6.797  14.612  1.0444  0.1878 -0.0924
 3211TIP3    H231049   4.403   6.651  14.630 -0.0933  0.4108 -0.5336
 3212TIP3   OH231050   5.140   0.712  15.314  0.5914  0.2519 -0.1836
 3212TIP3    H131051   5.067   0.653  15.295 -0.3434  1.9539 -2.3516
 3212TIP3    H231052   5.098   0.796  15.334  1.9109  1.3891 -1.8916
 3213TIP3   OH231053   2.214   0.306   1.927 -0.2837  0.1464  0.7332
 3213TIP3    H131054   2.150   0.252   1.882  0.7197  1.2424 -2.2278
 3213TIP3    H231055   2.264   0.244   1.982 -0.2514 -1.6650 -1.2242
 3214TIP3   OH231056   1.051   3.243   0.006 -0.4471  0.2674 -0.1980
 3214TIP3    H131057   1.071   3.152   0.027 -0.8478  0.3123  0.4295
 3214TIP3    H231058   1.099   3.261  -0.075  0.0603 -0.3384 -0.0372
 3215TIP3   OH231059   1.231   4.160   2.618 -0.0493 -0.0167  0.3736
 3215TIP3    H131060   1.314   4.170   2.666  0.0946  0.6453 -0.0045
 3215TIP3    H231061   1.167   4.207   2.671  0.1324  0.8131 -0.1306
 3216TIP3   OH231062   0.924   3.701  16.904  0.2238 -0.3783 -0.1485
 3216TIP3    H131063   0.936   3.658  16.819  1.7361 -2.1024  0.8380
 3216TIP3    H231064   0.873   3.638  16.955  1.3953 -0.5088  0.9340
 3217TIP3   OH231065   6.356   3.412  17.076  0.0567  0.6716 -0.1493
 3217TIP3    H131066   6.303   3.475  17.124  2.0490  0.3161  2.7840
 3217TIP3    H231067   6.445   3.427  17.107  1.2531 -0.7887 -2.5609
 3218TIP3   OH231068   1.271   2.678   0.583 -0.1311 -0.3642  0.0558
 3218TIP3    H131069   1.266   2.773   0.593  1.4075 -0.3081  0.5663
 3218TIP3    H231070   1.261   2.644   0.671 -0.5963 -0.6745 -0.1159
 3219TIP3   OH231071   1.783   4.488  13.026 -0.0718 -0.0131 -0.4156
 3219TIP3    H131072   1.808   4.550  12.958 -1.7514 -0.0891 -1.1477
 3219TIP3    H231073   1.803   4.402  12.989  1.5023  0.0151  0.2831
 3220TIP3   OH231074   5.456   0.196  13.871  0.1077 -0.1000 -0.3567
 3220TIP3    H131075   5.478   0.285  13.842 -0.7046 -0.4681 -2.2940
 3220TIP3    H231076   5.500   0.187  13.955 -0.7667  2.5539  0.4847
 3221TIP3   OH231077   1.828   1.036  16.390  0.4039 -0.6289 -0.2326
 3221TIP3    H131078   1.873   0.953  16.374  0.9155 -0.3161 -0.4144
 3221TIP3    H231079   1.896   1.097  16.418 -0.0969 -0.4966  0.7811
 3222TIP3   OH231080   2.017   5.967  13.641  0.3958 -0.3447  0.1563
 3222TIP3    H131081   1.948   5.902  13.658  0.0668 -0.0425  0.0063
 3222TIP3    H231082   2.030   5.964  13.546  0.1472  0.0329  0.1067
 3223TIP3   OH231083   3.684   0.661  12.854 -0.1227  0.0871 -0.1114
 3223TIP3    H131084   3.767   0.632  12.893 -0.1931 -0.2795 -0.2267
 3223TIP3    H231085   3.630   0.582  12.854  0.1662 -0.1362 -1.7286
 3224TIP3   OH231086   5.306   1.593   0.702  0.7362  0.8707 -0.3142
 3224TIP3    H131087   5.287   1.531   0.631 -1.1331  0.1614  0.7404
 3224TIP3    H231088   5.250   1.669   0.684  0.3784  0.7583  0.2866
 3225TIP3   OH231089   4.421   4.666  14.525 -0.6696 -0.1192 -0.2155
 3225TIP3    H131090   4.420   4.761  14.516  0.3625 -0.1107 -0.3613
 3225TIP3    H231091   4.497   4.648  14.580 -2.8107 -0.6529  2.8293
 3226TIP3   OH231092   1.711   5.803   1.839  0.5101  0.6880 -0.5407
 3226TIP3    H131093   1.745   5.759   1.762 -0.8774 -0.8732 -0.3264
 3226TIP3    H231094   1.681   5.732   1.896  3.2740  1.6250  2.3857
 3227TIP3   OH231095   5.267   5.126   0.735 -0.3252 -0.5592 -0.2393
 3227TIP3    H131096   5.180   5.101   0.703 -0.1660 -0.5708 -0.6678
 3227TIP3    H231097   5.328   5.072   0.685 -0.1440 -2.1143  1.5441
 3228TIP3   OH231098   0.348   4.128   1.464 -0.4270  0.1638  0.1932
 3228TIP3    H131099   0.354   4.190   1.392  1.9991  0.1782  0.3049
 3228TIP3    H231100   0.310   4.178   1.536  0.6828  1.3146  0.0205
 3229TIP3   OH231101   1.974   2.424   0.224 -0.6077 -0.0435  0.1009
 3229TIP3    H131102   2.034   2.454   0.156 -0.2490  0.4795  0.6391
 3229TIP3    H231103   1.974   2.329   0.215  1.1395 -0.1423  0.7641
 3230TIP3   OH231104   1.064   2.920   4.223 -0.2613 -0.0523 -0.1373
 3230TIP3    H131105   1.098   2.831   4.236 -0.7619 -0.3829 -0.9761
 3230TIP3    H231106   0.969   2.910   4.229 -0.3074  0.4929  0.0982
 3231TIP3   OH231107   2.445   6.526  17.230 -0.0787 -0.6369  0.2835
 3231TIP3    H131108   2.397   6.603  17.199 -2.1368 -0.9153  2.5108
 3231TIP3    H231109   2.377   6.459  17.242  0.8062 -1.0964  3.4867
 3232TIP3   OH231110   6.599   3.586  11.735  0.1553 -0.0447  0.1036
 3232TIP3    H131111   6.535   3.612  11.669 -0.8751 -1.7661  0.3630
 3232TIP3    H231112   6.682   3.618  11.702 -0.8554  2.6555 -0.0231
 3233TIP3   OH231113   5.118   0.088   5.627  0.0693 -0.0558  0.7826
 3233TIP3    H131114   5.140   0.143   5.701  0.6902  1.2884 -0.3685
 3233TIP3    H231115   5.031   0.119   5.599 -0.2289 -0.6559  1.0252
 3234TIP3   OH231116   3.344   2.642   3.384  0.0658  0.4103  0.6187
 3234TIP3    H131117   3.395   2.668   3.308  0.9918 -2.0992  0.2742
 3234TIP3    H231118   3.410   2.620   3.450 -0.5847 -0.8386  0.8965
 3235TIP3   OH231119   6.092   2.310  15.031  0.1255 -0.0604 -0.1009
 3235TIP3    H131120   6.155   2.250  14.992 -0.1951  0.5869 -1.7314
 3235TIP3    H231121   6.007   2.270  15.014 -0.0360  0.3652 -0.3091
 3236TIP3   OH231122   2.135   2.437   4.687 -0.3705 -0.0644  0.2683
 3236TIP3    H131123   2.086   2.414   4.766 -0.5089  0.3901  0.3179
 3236TIP3    H231124   2.224   2.408   4.705  0.3076  2.6413  1.8244
 3237TIP3   OH231125   5.668   3.517  14.510  0.4191 -0.1952  0.3710
 3237TIP3    H131126   5.724   3.591  14.535  0.1642 -0.2718  1.2116
 3237TIP3    H231127   5.664   3.464  14.589 -0.6455 -0.3188  0.2380
 3238TIP3   OH231128   5.130   1.183   0.358 -0.6870  0.8455 -0.0285
 3238TIP3    H131129   5.121   1.098   0.314  0.6385  1.3865 -1.4388
 3238TIP3    H231130   5.104   1.166   0.449 -0.4115 -1.0608 -0.2632
 3239TIP3   OH231131   4.329   3.378   4.240 -0.2985 -0.3604  0.2590
 3239TIP3    H131132   4.278   3.448   4.282 -0.0117  0.7016 -1.0963
 3239TIP3    H231133   4.335   3.310   4.307 -1.4129  0.5028  1.2906
 3240TIP3   OH231134   3.885   1.551  13.740 -0.9306 -0.0241  1.2925
 3240TIP3    H131135   3.894   1.459  13.763 -0.0823 -0.6455 -1.1946
 3240TIP3    H231136   3.975   1.583  13.737 -0.8268 -0.2886 -1.8682
 3241TIP3   OH231137   5.451   6.641   5.128 -0.4386  0.7247  0.1593
 3241TIP3    H131138   5.494   6.684   5.054 -1.0664  1.2514  0.0842
 3241TIP3    H231139   5.411   6.563   5.090  1.4594 -0.4436  0.4673
 3242TIP3   OH231140   1.712   0.843   6.053  0.0059 -0.3231 -0.4551
 3242TIP3    H131141   1.799   0.877   6.076  1.2101 -3.8981  1.0654
 3242TIP3    H231142   1.722   0.813   5.962 -0.2432  0.9047 -0.8999
 3243TIP3   OH231143   2.943   4.924   2.062  0.3268  0.1460 -0.0349
 3243TIP3    H131144   2.883   4.860   2.100  0.7320 -0.4734 -0.4272
 3243TIP3    H231145   2.987   4.963   2.137 -0.7550  0.8079  0.2781
 3244TIP3   OH231146   4.001   0.459   1.594  0.0868  0.7813  0.4430
 3244TIP3    H131147   4.031   0.456   1.503  0.5011 -2.0918  0.5926
 3244TIP3    H231148   3.986   0.368   1.617 -0.3675  1.4715  3.1685
 3245TIP3   OH231149   2.423   6.577   0.520  0.2828  0.2517  0.0426
 3245TIP3    H131150   2.333   6.582   0.552  0.5735 -0.0321  0.9498
 3245TIP3    H231151   2.430   6.648   0.457 -0.3187  0.8685  0.6482
 3246TIP3   OH231152   4.079   6.685  13.526  0.8617  0.5187  0.0721
 3246TIP3    H131153   4.051   6.692  13.617  2.6801 -1.1350  0.8274
 3246TIP3    H231154   4.082   6.775  13.495 -1.8205  1.0124  0.9278
 3247TIP3   OH231155   2.222   1.099  16.554 -0.5502 -0.2155 -0.0676
 3247TIP3    H131156   2.186   1.077  16.468 -0.8220 -1.2895  0.2979
 3247TIP3    H231157   2.230   1.014  16.598  0.5967  0.2071  0.5768
 3248TIP3   OH231158   2.101   5.878  13.993 -0.4313  0.0356  0.5031
 3248TIP3    H131159   2.175   5.938  13.993 -1.1579  1.0229  2.1182
 3248TIP3    H231160   2.115   5.821  13.918  1.0126  1.3411 -0.2617
 3249TIP3   OH231161   5.699   0.469  14.791 -0.4879 -0.5976 -0.2426
 3249TIP3    H131162   5.773   0.447  14.846  1.9256 -0.2206 -3.1124
 3249TIP3    H231163   5.649   0.388  14.783  1.2157 -1.6422 -0.5222
 3250TIP3   OH231164   0.486   1.779   3.252  1.0771 -0.8372 -0.0015
 3250TIP3    H131165   0.493   1.763   3.158 -1.1597  1.5439 -0.7287
 3250TIP3    H231166   0.564   1.829   3.274  1.2419 -0.7321 -0.7904
 3251TIP3   OH231167   5.593   2.899   5.103 -0.1321 -0.3039 -0.1653
 3251TIP3    H131168   5.678   2.858   5.123 -0.1030 -0.9553 -1.5066
 3251TIP3    H231169   5.557   2.922   5.188  0.3395 -2.1901  0.6010
 3252TIP3   OH231170   4.623   0.061  16.400  0.0847  0.6375  0.0511
 3252TIP3    H131171   4.545   0.033  16.352  0.3336  1.4794 -0.8812
 3252TIP3    H231172   4.643  -0.012  16.458 -1.3418  0.3763  0.2479
 3253TIP3   OH231173   6.015   4.429   5.203  0.3743 -0.3818  0.3243
 3253TIP3    H131174   6.014   4.370   5.128  0.7246 -0.3237  0.2734
 3253TIP3    H231175   6.100   4.472   5.199  0.5583 -0.6630  0.9775
 3254TIP3   OH231176   0.486   0.451  16.020 -0.5427 -0.0937  0.1500
 3254TIP3    H131177   0.527   0.367  16.001 -1.7827 -0.9419  1.0380
 3254TIP3    H231178   0.511   0.508  15.947  1.2238 -0.8893  0.0960
 3255TIP3   OH231179   6.607   3.545  14.743  0.3183 -0.2404 -0.5186
 3255TIP3    H131180   6.512   3.530  14.745  0.5648 -2.1516  2.1174
 3255TIP3    H231181   6.640   3.480  14.681  0.0474 -0.8443 -0.0433
 3256TIP3   OH231182   0.459   4.850   4.566  0.1302  0.0364  0.4300
 3256TIP3    H131183   0.502   4.852   4.652  0.3448  0.3885  0.3155
 3256TIP3    H231184   0.524   4.810   4.508  0.6374  1.2979  0.0831
 3257TIP3   OH231185   1.381   6.304  16.893 -0.1502 -0.3668 -0.1108
 3257TIP3    H131186   1.376   6.279  16.801  1.9374  0.0568 -0.4024
 3257TIP3    H231187   1.451   6.248  16.929  0.2711  0.6782  0.7548
 3258TIP3   OH231188   2.667   5.297   6.689  0.5968 -0.1823 -0.4343
 3258TIP3    H131189   2.748   5.296   6.738  0.0330 -1.4898  0.5219
 3258TIP3    H231190   2.694   5.313   6.598  1.8040  0.3953  0.0039
 3259TIP3   OH231191   0.785   3.035  13.449 -0.4899  0.6470  0.9547
 3259TIP3    H131192   0.854   3.062  13.510 -0.5956  1.9051  0.5526
 3259TIP3    H231193   0.705   3.040  13.501 -0.3493 -0.4041  1.3030
 3260TIP3   OH231194   0.021   3.479  13.713 -0.8277  0.3171  0.1807
 3260TIP3    H131195   0.079   3.447  13.782  0.2980  1.1291 -0.3595
 3260TIP3    H231196   0.066   3.456  13.632 -1.0207  1.3822 -0.2386
 3261TIP3   OH231197   6.183   1.501   1.637 -0.3476 -0.0602  0.4005
 3261TIP3    H131198   6.210   1.414   1.606 -4.4916 -1.6501  0.5992
 3261TIP3    H231199   6.194   1.496   1.732 -0.1664 -0.2068  0.3734
 3262TIP3   OH231200   4.546   3.636   3.675 -0.1263  0.0729  0.4336
 3262TIP3    H131201   4.462   3.681   3.664 -0.7728 -0.6635  2.0082
 3262TIP3    H231202   4.607   3.685   3.620 -1.4943  0.8736 -0.4360
 3263TIP3   OH231203   3.610   2.566   0.537  0.1842  0.0431  0.0021
 3263TIP3    H131204   3.639   2.555   0.446  0.1913  0.3027 -0.0292
 3263TIP3    H231205   3.552   2.492   0.553 -0.1001  0.1904 -0.3295
 3264TIP3   OH231206   0.306   1.566  13.146  0.7113 -0.3047  0.9024
 3264TIP3    H131207   0.396   1.536  13.156  0.4932 -0.4023  3.0731
 3264TIP3    H231208   0.307   1.657  13.176 -0.0273 -0.5197  1.6165
 3265TIP3   OH231209   4.444   1.342   1.649 -0.1100  0.8341 -0.4838
 3265TIP3    H131210   4.373   1.334   1.585  0.3993 -2.4920 -0.8285
 3265TIP3    H231211   4.502   1.268   1.630  0.5525  0.2163  3.2113
 3266TIP3   OH231212   2.184   5.990  15.971 -0.4121 -0.0813 -0.8596
 3266TIP3    H131213   2.218   6.008  15.884  0.2906  1.4883 -0.2954
 3266TIP3    H231214   2.260   6.003  16.029 -1.1578  0.1256  0.0892
 3267TIP3   OH231215   6.377   4.116   0.624  0.1997 -0.1535 -0.2496
 3267TIP3    H131216   6.436   4.064   0.678  0.1420 -0.8751 -0.8720
 3267TIP3    H231217   6.292   4.110   0.669  0.2847 -0.2464 -0.0986
 3268TIP3   OH231218   5.645   5.865  14.697  0.1265  0.1213 -0.5666
 3268TIP3    H131219   5.601   5.788  14.733 -0.5845  0.8278  0.1050
 3268TIP3    H231220   5.663   5.841  14.606  1.6488 -1.5561  0.1205
 3269TIP3   OH231221   2.336   3.652  16.190 -0.4535 -0.0038 -0.2487
 3269TIP3    H131222   2.335   3.654  16.285 -0.5049  2.3328 -0.2383
 3269TIP3    H231223   2.306   3.739  16.163  1.5451  0.1599 -2.3573
 3270TIP3   OH231224   2.881   4.648   2.487 -0.0903 -0.1034 -0.1126
 3270TIP3    H131225   2.952   4.610   2.538  0.9173  0.1822 -1.2576
 3270TIP3    H231226   2.803   4.599   2.513  0.1516  0.7950  2.5254
 3271TIP3   OH231227   4.476   1.555  11.199 -0.0114  0.3412  0.7252
 3271TIP3    H131228   4.537   1.481  11.192  0.4625  0.7711  0.2575
 3271TIP3    H231229   4.510   1.620  11.138 -0.4108  0.9593  1.1492
 3272TIP3   OH231230   4.567   1.887   6.210 -0.6797  0.5130  0.6123
 3272TIP3    H131231   4.506   1.905   6.282  1.0301 -1.3316  2.6785
 3272TIP3    H231232   4.653   1.879   6.253  0.2387 -1.9320 -1.4001
 3273TIP3   OH231233   5.419   4.805   3.892  0.4823 -0.1411  0.2327
 3273TIP3    H131234   5.484   4.849   3.947  0.4373  1.3364 -0.8423
 3273TIP3    H231235   5.464   4.726   3.861  1.4780  0.4062  0.2137
 3274TIP3   OH231236   4.131   5.510  11.631 -0.0900 -0.1861  0.5989
 3274TIP3    H131237   4.139   5.600  11.663 -1.9726 -0.1562  1.0891
 3274TIP3    H231238   4.213   5.468  11.658  1.7497  1.8397 -1.3822
 3275TIP3   OH231239   2.346   1.926   4.813  0.0128 -0.5989  0.3629
 3275TIP3    H131240   2.406   2.000   4.802 -2.2054  1.4664  1.2164
 3275TIP3    H231241   2.351   1.904   4.906  0.3958 -1.3036  0.1807
 3276TIP3   OH231242   4.980   4.523   0.454 -0.6066 -0.2411  0.1836
 3276TIP3    H131243   5.065   4.536   0.497 -0.4157 -0.1885 -0.2067
 3276TIP3    H231244   4.949   4.612   0.437 -0.0303 -0.2534 -1.0556
 3277TIP3   OH231245   0.497   5.953   2.674 -0.2148 -1.1014  0.0857
 3277TIP3    H131246   0.575   5.920   2.717 -0.4910 -2.2199 -0.2443
 3277TIP3    H231247   0.522   6.040   2.642  0.1078 -0.4124  2.1070
 3278TIP3   OH231248   3.487   4.647  12.222  0.1675  0.2042  0.7312
 3278TIP3    H131249   3.570   4.688  12.244 -0.0355  0.3340  1.2683
 3278TIP3    H231250   3.478   4.661  12.128  1.5924 -1.3379  0.3190
 3279TIP3   OH231251   5.695   2.117   0.659  0.6020  0.3720  0.4204
 3279TIP3    H131252   5.759   2.054   0.691  0.4561  0.7335  1.4821
 3279TIP3    H231253   5.641   2.068   0.597  0.9981 -0.3203  0.6119
 3280TIP3   OH231254   3.901   0.192   3.384 -0.2586 -0.6501 -0.3961
 3280TIP3    H131255   3.875   0.110   3.341  0.9051 -0.8080 -0.8298
 3280TIP3    H231256   3.840   0.200   3.457 -0.7741 -1.5957 -0.6952
 3281TIP3   OH231257   3.411   3.460   4.476 -0.0649 -0.5288  0.6540
 3281TIP3    H131258   3.407   3.523   4.404  2.1221 -1.3223 -0.2386
 3281TIP3    H231259   3.384   3.511   4.553 -0.3423  0.9214 -0.3567
 3282TIP3   OH231260   5.968   6.002  15.170  0.1356 -0.5946 -0.3325
 3282TIP3    H131261   5.997   5.913  15.188  0.9932 -0.1216  0.7378
 3282TIP3    H231262   5.954   6.041  15.257 -2.2984 -0.3246 -0.7812
 3283TIP3   OH231263   5.550   1.294   6.130  0.7047  0.3448 -0.3130
 3283TIP3    H131264   5.512   1.269   6.046  2.0369  1.8726 -1.4255
 3283TIP3    H231265   5.645   1.294   6.114  1.0100  0.3142  1.3090
 3284TIP3   OH231266   1.583   3.673   1.033 -0.2961 -0.2243  0.5929
 3284TIP3    H131267   1.579   3.667   1.128 -1.3025 -0.6963  0.5370
 3284TIP3    H231268   1.491   3.681   1.006  0.0316  0.7358 -0.2872
 3285TIP3   OH231269   1.839   1.770  14.117 -0.0287 -0.0730 -0.1176
 3285TIP3    H131270   1.840   1.866  14.128 -2.0963 -0.1248  0.9956
 3285TIP3    H231271   1.779   1.739  14.185 -2.8490 -1.7512 -3.0711
 3286TIP3   OH231272   1.794   0.984   0.089  0.6795  0.4762  0.7371
 3286TIP3    H131273   1.713   0.967   0.138  0.7052 -1.0679  0.3056
 3286TIP3    H231274   1.863   0.945   0.143  1.0102  0.8879  0.6168
 3287TIP3   OH231275   0.921   1.681   2.525  0.3444  0.5531 -0.2524
 3287TIP3    H131276   0.882   1.615   2.467  1.3104 -0.8215  0.6039
 3287TIP3    H231277   0.918   1.641   2.612  0.8533  1.7026  0.3050
 3288TIP3   OH231278   0.128   3.315   3.529  0.6183  0.2660 -0.0393
 3288TIP3    H131279   0.106   3.343   3.440  1.2512  0.0581 -0.2673
 3288TIP3    H231280   0.178   3.388   3.565 -1.3671  1.2499  0.8957
 3289TIP3   OH231281   3.622   3.013   3.110 -0.5857 -0.3004 -1.0899
 3289TIP3    H131282   3.626   2.925   3.072  3.1824 -1.7677  1.9162
 3289TIP3    H231283   3.548   3.010   3.170 -1.0674 -1.1023 -1.7135
 3290TIP3   OH231284   1.790   5.957  17.001 -0.3215  0.0534 -0.2118
 3290TIP3    H131285   1.775   5.870  16.965 -1.3601  0.4375 -0.7629
 3290TIP3    H231286   1.868   5.989  16.957  0.1904 -0.6709  0.1527
 3291TIP3   OH231287   3.838   6.341   4.852 -0.0751  0.1455 -0.5142
 3291TIP3    H131288   3.889   6.264   4.878  1.7043  0.6607 -2.2351
 3291TIP3    H231289   3.828   6.332   4.757 -0.8523  1.4640 -0.5783
 3292TIP3   OH231290   1.761   3.913  17.453 -0.5467  0.0669  0.3366
 3292TIP3    H131291   1.665   3.914  17.447 -0.5862  2.7912  0.2815
 3292TIP3    H231292   1.787   4.003  17.436  2.0355 -0.5335  0.7091
 3293TIP3   OH231293   0.661   4.186  17.464  0.4512 -0.0788 -0.4911
 3293TIP3    H131294   0.736   4.126  17.469  1.0863  0.5792 -1.6655
 3293TIP3    H231295   0.631   4.195  17.555  0.1157 -2.4238 -0.3003
 3294TIP3   OH231296   0.585   1.036   1.287 -0.1587 -0.3575 -0.0827
 3294TIP3    H131297   0.513   1.003   1.341 -0.0402  0.5748  0.6581
 3294TIP3    H231298   0.621   0.957   1.246 -1.2573 -0.9017 -0.0530
 3295TIP3   OH231299   1.861   4.790  14.439 -0.2183  0.7614  0.6885
 3295TIP3    H131300   1.783   4.793  14.382 -1.9260  0.1691  2.8602
 3295TIP3    H231301   1.935   4.786  14.378 -1.8260  2.0010 -1.4844
 3296TIP3   OH231302   2.647   1.704   1.683  0.7167 -0.4219  0.4548
 3296TIP3    H131303   2.561   1.694   1.723  0.6706 -0.3830  0.3653
 3296TIP3    H231304   2.633   1.763   1.609  0.8220 -0.4065  0.4469
 3297TIP3   OH231305   2.196   0.875  15.695 -0.3814  0.0484  0.0802
 3297TIP3    H131306   2.197   0.873  15.600 -2.0074  1.9133 -0.0523
 3297TIP3    H231307   2.216   0.786  15.722 -0.1120 -0.5615 -1.9945
 3298TIP3   OH231308   4.336   3.494  11.156  0.2153 -0.8708  0.3065
 3298TIP3    H131309   4.369   3.572  11.112  1.0768 -0.6460  1.3112
 3298TIP3    H231310   4.256   3.523  11.200 -0.3012 -0.9431 -0.5710
 3299TIP3   OH231311   5.364   4.998  15.120 -0.2624  0.5446 -1.3316
 3299TIP3    H131312   5.375   4.919  15.067 -1.3865 -0.5894  0.0379
 3299TIP3    H231313   5.296   5.047  15.075 -1.3438 -0.4967 -0.8710
 3300TIP3   OH231314   4.566   1.603   6.139  0.2137  0.4456 -0.4775
 3300TIP3    H131315   4.599   1.688   6.168  1.2109 -0.0897  0.0445
 3300TIP3    H231316   4.472   1.615   6.127 -0.0098  1.0882  1.5959
 3301TIP3   OH231317   6.562   0.078   0.315 -0.5575  0.2974  0.5748
 3301TIP3    H131318   6.495   0.074   0.384  0.8159 -0.1173  1.9360
 3301TIP3    H231319   6.513   0.097   0.235 -2.2144  0.7437  1.6499
 3302TIP3   OH231320   0.516   0.841   5.410 -0.0213  0.6361  0.7034
 3302TIP3    H131321   0.544   0.929   5.436  1.6167 -0.0887  1.5243
 3302TIP3    H231322   0.537   0.786   5.485 -1.3452 -0.4198  0.3331
 3303TIP3   OH231323   5.594   5.162   0.844 -0.3370 -0.0017 -0.1971
 3303TIP3    H131324   5.638   5.247   0.841 -0.0328 -0.1443  0.1869
 3303TIP3    H231325   5.544   5.163   0.925 -0.0734 -0.3122 -0.0266
 3304TIP3   OH231326   6.299   4.071  11.381  0.5308  0.1288 -0.4134
 3304TIP3    H131327   6.313   3.987  11.337  0.8270 -0.5018  0.8307
 3304TIP3    H231328   6.315   4.137  11.313 -0.6437 -0.8189 -1.6601
 3305TIP3   OH231329   5.038   5.290  10.612 -0.3596  0.0167 -0.3254
 3305TIP3    H131330   5.117   5.265  10.565  0.1737 -0.0966  0.6173
 3305TIP3    H231331   5.068   5.315  10.699 -1.3971 -0.4000  0.1721
 3306TIP3   OH231332   1.920   2.548  13.327  0.0418 -0.2445  0.4508
 3306TIP3    H131333   2.005   2.512  13.302 -0.9203 -0.6952 -2.5416
 3306TIP3    H231334   1.930   2.642  13.318 -0.1198 -0.3657 -1.3333
 3307TIP3   OH231335   3.441   0.472  15.075 -0.2908 -0.0902  0.1511
 3307TIP3    H131336   3.436   0.552  15.023  0.2712  0.7945  1.4204
 3307TIP3    H231337   3.479   0.407  15.016 -1.2470  0.4176 -1.0606
 3308TIP3   OH231338   5.875   1.110  13.852 -0.2582  0.1253  0.2816
 3308TIP3    H131339   5.880   1.035  13.911  0.7376 -1.8495 -2.1038
 3308TIP3    H231340   5.799   1.092  13.797 -0.0026  0.8727 -0.3325
 3309TIP3   OH231341   1.762   1.613  14.552 -0.5450  0.0177  0.1254
 3309TIP3    H131342   1.846   1.650  14.579  1.5126 -2.6749 -1.9982
 3309TIP3    H231343   1.766   1.521  14.578 -1.1038 -1.1487 -3.3554
 3310TIP3   OH231344   4.781   2.925   5.484  0.2166 -0.2528  0.6192
 3310TIP3    H131345   4.809   2.989   5.418  0.4166 -2.1990 -1.3160
 3310TIP3    H231346   4.846   2.854   5.477 -1.8484 -2.2190  0.1799
 3311TIP3   OH231347   5.829   6.470   5.001 -0.8457  0.7313  0.5579
 3311TIP3    H131348   5.791   6.386   4.973 -0.3678  0.3590  0.9948
 3311TIP3    H231349   5.788   6.535   4.945 -0.3987  0.0816 -0.5574
 3312TIP3   OH231350   5.683   5.974  16.099  0.4159 -0.6627 -0.0577
 3312TIP3    H131351   5.649   6.044  16.043  0.3210  0.2960  1.1553
 3312TIP3    H231352   5.729   5.916  16.039  1.6764  1.1524 -0.9462
 3313TIP3   OH231353   0.500   2.605  14.438  0.0881 -0.4584 -0.1175
 3313TIP3    H131354   0.520   2.518  14.404  0.6033 -0.9038  1.2883
 3313TIP3    H231355   0.427   2.636  14.383  0.8238 -1.1701 -1.5519
 3314TIP3   OH231356   6.156   1.412  15.829  0.0444  0.1222  0.5625
 3314TIP3    H131357   6.149   1.494  15.879 -0.6245  0.0542  0.5847
 3314TIP3    H231358   6.145   1.439  15.738  1.1585  0.2313  0.4418
 3315TIP3   OH231359   6.102   3.885  10.767  0.1284 -0.2509 -0.0855
 3315TIP3    H131360   6.177   3.825  10.776  1.1914  1.0820  0.2822
 3315TIP3    H231361   6.027   3.833  10.794  1.1135 -1.2287  0.8970
 3316TIP3   OH231362   2.228   5.191   1.525 -0.0966 -0.2405 -0.4641
 3316TIP3    H131363   2.151   5.226   1.482 -0.1423 -1.1469 -1.1608
 3316TIP3    H231364   2.205   5.185   1.618 -1.1599 -1.2230 -0.7704
 3317TIP3   OH231365   5.261   2.606   0.108  0.0723  0.0466 -0.1052
 3317TIP3    H131366   5.277   2.568   0.195 -0.5533 -1.7469 -0.7400
 3317TIP3    H231367   5.326   2.565   0.051 -0.4027  0.1708 -0.7459
 3318TIP3   OH231368   0.465   1.372  17.013  0.3610  0.1974  0.7964
 3318TIP3    H131369   0.452   1.280  16.990  0.6414  0.6565 -1.4020
 3318TIP3    H231370   0.381   1.413  16.995  0.2457  0.4127  1.7470
 3319TIP3   OH231371   4.231   1.849   4.950  0.1991  0.6710  0.2393
 3319TIP3    H131372   4.143   1.816   4.970  1.3114 -2.9474 -0.0943
 3319TIP3    H231373   4.272   1.859   5.035  0.1535  0.1411  0.3296
 3320TIP3   OH231374   2.270   4.681  16.511 -0.2603  0.0746 -0.0280
 3320TIP3    H131375   2.365   4.689  16.522  0.0216 -1.3952 -1.0450
 3320TIP3    H231376   2.235   4.762  16.547  1.2340 -0.1870  2.2720
 3321TIP3   OH231377   4.833   0.596  16.646  0.1742 -0.0978  0.9279
 3321TIP3    H131378   4.857   0.616  16.555  0.9227  0.7938  1.3018
 3321TIP3    H231379   4.738   0.607  16.649  0.2125  0.4302  0.3771
 3322TIP3   OH231380   5.587   0.947  12.680 -0.4249 -0.0253 -0.1622
 3322TIP3    H131381   5.678   0.971  12.698 -0.4119 -1.3182  1.9095
 3322TIP3    H231382   5.540   0.967  12.761 -1.8828  0.0467 -0.9755
 3323TIP3   OH231383   2.316   5.211  11.383 -0.3165 -0.4861  0.7821
 3323TIP3    H131384   2.374   5.181  11.314 -1.4276 -0.6772 -0.0991
 3323TIP3    H231385   2.369   5.207  11.463  0.6697 -1.2547  0.1073
 3324TIP3   OH231386   3.339   0.298  14.031 -0.8018 -0.3724 -0.1445
 3324TIP3    H131387   3.284   0.357  13.980 -1.3510 -0.0617  0.7846
 3324TIP3    H231388   3.283   0.268  14.102  0.1646 -0.1894  0.7213
 3325TIP3   OH231389   2.337   6.324   1.185  0.3725 -0.0361  0.1035
 3325TIP3    H131390   2.383   6.402   1.217  0.3570  0.1109 -0.2287
 3325TIP3    H231391   2.289   6.292   1.261  0.7454  0.0131  0.3618
 3326TIP3   OH231392   5.688   4.639  12.664  0.4985 -0.2348  0.0345
 3326TIP3    H131393   5.650   4.645  12.752 -0.0355 -1.4914 -0.0779
 3326TIP3    H231394   5.692   4.729  12.633  1.3245  0.3134  1.6005
 3327TIP3   OH231395   0.909   6.068  15.565  0.2411 -0.7209 -0.5294
 3327TIP3    H131396   0.952   6.153  15.575  1.3262 -1.3496  0.2909
 3327TIP3    H231397   0.877   6.068  15.475 -1.0411  1.1258 -0.1335
 3328TIP3   OH231398   1.092   6.582   1.633  0.1993  0.2324  0.7632
 3328TIP3    H131399   1.058   6.658   1.680 -1.0491  0.2672 -0.1688
 3328TIP3    H231400   1.070   6.507   1.688 -1.4623  0.2496  0.1783
 3329TIP3   OH231401   3.200   5.656   2.088  0.0498  0.1008  0.4816
 3329TIP3    H131402   3.239   5.569   2.094  0.1586  0.2176  1.8383
 3329TIP3    H231403   3.105   5.640   2.089  0.0548  0.0051  1.5888
 3330TIP3   OH231404   3.553   4.359   5.159 -0.0640  0.0716  0.3437
 3330TIP3    H131405   3.607   4.366   5.238  1.8752  0.6831 -0.9720
 3330TIP3    H231406   3.506   4.442   5.155  0.1576  0.2122  0.6251
 3331TIP3   OH231407   2.930   4.159  11.770  0.3985  0.4011 -0.3697
 3331TIP3    H131408   2.915   4.219  11.843  0.1322 -0.4235  0.2704
 3331TIP3    H231409   2.844   4.120  11.753  0.8085 -0.7549  0.0933
 3332TIP3   OH231410   3.765   6.537  15.071  0.3826 -0.5985  0.3748
 3332TIP3    H131411   3.719   6.470  15.121  1.5559 -1.3004  0.5409
 3332TIP3    H231412   3.818   6.583  15.135  0.8618 -0.6173 -0.0040
 3333TIP3   OH231413   3.327   4.861  15.725  0.3514 -0.4151  0.1953
 3333TIP3    H131414   3.338   4.772  15.691  0.8281 -1.2377  2.3935
 3333TIP3    H231415   3.416   4.895  15.734  0.2817 -0.4783  1.2416
 3334TIP3   OH231416   3.576   1.317  16.682  0.1943  0.8070  0.6797
 3334TIP3    H131417   3.561   1.236  16.731 -1.6769  0.9902  0.4925
 3334TIP3    H231418   3.665   1.309  16.650  0.0971 -1.1451  0.7448
 3335TIP3   OH231419   0.380   6.158  16.023  0.2263 -0.0305 -0.2102
 3335TIP3    H131420   0.438   6.179  16.096  1.0053 -0.6494 -0.6256
 3335TIP3    H231421   0.337   6.240  16.002  0.4291  0.2829  0.5738
 3336TIP3   OH231422   2.201   0.230  12.231  0.4693 -0.3904 -0.0427
 3336TIP3    H131423   2.135   0.216  12.163  1.1847 -0.2502 -0.7748
 3336TIP3    H231424   2.256   0.301  12.198  0.4323  0.1332  0.9871
 3337TIP3   OH231425   5.252   2.543  12.864 -0.0791 -0.5847 -0.0686
 3337TIP3    H131426   5.166   2.583  12.878 -0.1424 -0.2818 -1.2148
 3337TIP3    H231427   5.274   2.503  12.948 -1.0478 -0.1068  0.4274
 3338TIP3   OH231428   2.928   4.873   2.837 -0.2365 -0.9446 -0.0238
 3338TIP3    H131429   2.874   4.797   2.859  0.0400 -0.5170  2.4865
 3338TIP3    H231430   3.004   4.866   2.895  0.3187  0.6979 -0.4826
 3339TIP3   OH231431   3.443   2.543  16.584 -0.4508  0.3170 -0.4612
 3339TIP3    H131432   3.429   2.508  16.672 -3.1150  2.1863 -0.0316
 3339TIP3    H231433   3.538   2.536  16.571  0.0435 -0.0371  2.5399
 3340TIP3   OH231434   4.575   4.700   0.267 -0.4365  1.2997  0.0667
 3340TIP3    H131435   4.615   4.620   0.235 -1.1107  0.7340  0.5921
 3340TIP3    H231436   4.598   4.767   0.203 -1.9734  0.1719 -1.7684
 3341TIP3   OH231437   4.603   0.582  12.263 -0.2846  0.0602  0.1015
 3341TIP3    H131438   4.615   0.650  12.197  2.0976  0.3705  0.7564
 3341TIP3    H231439   4.542   0.520  12.224 -1.1086  1.6612 -1.2307
 3342TIP3   OH231440   2.988   1.952   5.016 -0.6040  0.2492 -0.4868
 3342TIP3    H131441   3.045   1.918   4.947 -0.7303  0.8684 -0.9033
 3342TIP3    H231442   2.904   1.909   5.001 -0.0368 -1.3757  0.6851
 3343TIP3   OH231443   2.576   0.015  12.422 -0.6650 -0.3144  0.0396
 3343TIP3    H131444   2.626  -0.066  12.431  2.7338  1.7610  1.5203
 3343TIP3    H231445   2.579   0.056  12.508 -1.3955  1.8644 -0.8887
 3344TIP3   OH231446   0.539   1.961   4.490 -0.7231 -0.8285  0.6285
 3344TIP3    H131447   0.616   1.904   4.490  1.3415  1.7338 -0.4735
 3344TIP3    H231448   0.531   1.990   4.399 -1.4137  0.9284  1.2148
 3345TIP3   OH231449   3.995   1.291   2.023 -0.2912  0.2241 -0.0120
 3345TIP3    H131450   3.965   1.335   1.943  2.1154  0.5671 -0.8019
 3345TIP3    H231451   4.068   1.237   1.994 -1.0107 -1.6959  1.5485
 3346TIP3   OH231452   0.073   4.116  15.829 -0.0281 -0.5599  1.0227
 3346TIP3    H131453   0.167   4.100  15.834  0.0752 -0.9888 -1.2843
 3346TIP3    H231454   0.061   4.203  15.868  1.9806  1.3750 -2.2003
 3347TIP3   OH231455   3.516   3.303   2.151  0.7295  0.3760  0.4128
 3347TIP3    H131456   3.424   3.278   2.154  0.7370 -0.0336 -1.4808
 3347TIP3    H231457   3.543   3.307   2.242 -1.2527  0.8536  1.0157
 3348TIP3   OH231458   4.227   6.122   0.542  0.3910 -0.2727 -0.0724
 3348TIP3    H131459   4.267   6.139   0.628 -1.0701 -0.7158  0.7288
 3348TIP3    H231460   4.133   6.134   0.557  0.0628 -0.9299 -1.4734
 3349TIP3   OH231461   2.608   5.984  14.180 -0.2108  0.5259 -0.2447
 3349TIP3    H131462   2.560   5.902  14.190  1.6258 -0.8134 -1.6707
 3349TIP3    H231463   2.572   6.041  14.248 -1.1265 -1.6460  1.2147
 3350TIP3   OH231464   4.636   6.195  15.486  0.1663 -0.5558 -0.0723
 3350TIP3    H131465   4.723   6.175  15.453  0.1256  0.3114 -0.7662
 3350TIP3    H231466   4.605   6.267  15.430  0.5279  1.8073  2.4976
 3351TIP3   OH231467   5.471   2.745   6.654  0.4926  0.3161 -0.0159
 3351TIP3    H131468   5.436   2.812   6.596  0.5166 -0.3464 -0.8103
 3351TIP3    H231469   5.565   2.763   6.659  0.4130  0.6739  0.2230
 3352TIP3   OH231470   0.024   1.721  11.518  0.0310 -0.0034 -0.5569
 3352TIP3    H131471   0.078   1.794  11.548 -0.7140  0.2528  0.2061
 3352TIP3    H231472   0.054   1.704  11.429 -0.9516  2.3778 -1.4233
 3353TIP3   OH231473   5.357   1.281   5.112 -0.0998 -0.7440  0.2170
 3353TIP3    H131474   5.413   1.217   5.068 -0.1620 -0.3447 -0.4497
 3353TIP3    H231475   5.414   1.319   5.179  0.5995 -0.0050 -0.7606
 3354TIP3   OH231476   2.253   6.080  13.759 -0.3823 -0.7496  0.2464
 3354TIP3    H131477   2.185   6.012  13.749 -0.9119 -0.1546 -0.3775
 3354TIP3    H231478   2.285   6.093  13.670 -0.5808  0.1091  0.2978
 3355TIP3   OH231479   3.840   4.616   3.348  0.4670  0.2940  0.1600
 3355TIP3    H131480   3.911   4.560   3.380  0.5131 -0.0706 -0.5620
 3355TIP3    H231481   3.882   4.701   3.333  1.2188 -0.3881 -2.0086
 3356TIP3   OH231482   6.447   2.571   5.852  0.2830 -0.2894  0.0804
 3356TIP3    H131483   6.542   2.565   5.857  0.4721  1.3531 -0.9651
 3356TIP3    H231484   6.420   2.491   5.806  1.0799 -1.0479  0.8971
 3357TIP3   OH231485   1.559   1.858  14.227  0.1328 -0.9208  0.2914
 3357TIP3    H131486   1.583   1.876  14.318  0.6230  1.2487 -0.2126
 3357TIP3    H231487   1.585   1.937  14.180 -1.3029 -1.4806 -1.5292
 3358TIP3   OH231488   2.112   5.847   1.721  0.1129  0.3693 -1.1343
 3358TIP3    H131489   2.095   5.866   1.629 -0.9628  2.3077 -0.5880
 3358TIP3    H231490   2.111   5.932   1.764 -1.4330 -0.6122  0.9986
 3359TIP3   OH231491   3.898   1.236  10.945 -0.2536 -0.3331 -0.3217
 3359TIP3    H131492   3.921   1.303  11.009  0.1700  0.0317 -0.8446
 3359TIP3    H231493   3.804   1.225  10.954 -0.2553 -0.0026  0.0883
 3360TIP3   OH231494   6.295   1.515  16.523  0.0566  0.3390 -0.0800
 3360TIP3    H131495   6.327   1.485  16.438 -2.4419  0.3167 -1.0751
 3360TIP3    H231496   6.308   1.610  16.521  0.1316  0.3228 -0.4226
 3361TIP3   OH231497   3.992   0.602  15.244 -0.0498  0.3441 -0.2208
 3361TIP3    H131498   3.956   0.667  15.183  2.0941  0.7536 -1.1301
 3361TIP3    H231499   3.955   0.519  15.214 -1.8183  0.9455  0.1746
 3362TIP3   OH231500   5.464   4.176   5.935 -0.1023  0.0068  0.2690
 3362TIP3    H131501   5.407   4.229   5.878 -0.0037 -0.0294  0.1364
 3362TIP3    H231502   5.403   4.121   5.985 -0.2331  0.4994  0.6693
 3363TIP3   OH231503   6.436   5.999  11.043  0.5562 -0.5356 -0.0614
 3363TIP3    H131504   6.355   5.953  11.067 -0.4587  1.0734 -0.2333
 3363TIP3    H231505   6.434   6.079  11.096  1.7426 -0.1964 -0.5060
 3364TIP3   OH231506   3.446   4.108   2.440 -0.4008 -0.5105 -0.1876
 3364TIP3    H131507   3.373   4.163   2.468  0.9822  1.4386 -0.2487
 3364TIP3    H231508   3.502   4.101   2.518  1.1565  1.0981 -1.0947
 3365TIP3   OH231509   5.548   0.266   6.759 -0.1417  0.0709  0.0453
 3365TIP3    H131510   5.493   0.317   6.818 -1.0153 -0.4457 -0.3092
 3365TIP3    H231511   5.638   0.291   6.782 -0.5346  1.7595 -0.1168
 3366TIP3   OH231512   0.125   5.009  13.506 -0.3325 -0.1558  0.3796
 3366TIP3    H131513   0.167   4.983  13.424 -0.4420  3.3298 -0.9908
 3366TIP3    H231514   0.085   4.929  13.539  3.4570 -2.7270 -0.5619
 3367TIP3   OH231515   3.575   5.400  12.330 -0.5342 -0.0215 -0.1612
 3367TIP3    H131516   3.533   5.331  12.380  1.2735 -0.4414  0.8800
 3367TIP3    H231517   3.582   5.365  12.241 -1.1430 -0.4864 -0.0262
 3368TIP3   OH231518   3.931   2.533  12.881  0.1245  0.1729  0.0251
 3368TIP3    H131519   3.984   2.571  12.812 -1.1688  0.0212 -1.1038
 3368TIP3    H231520   3.849   2.583  12.879 -0.7577 -1.2092 -0.0128
 3369TIP3   OH231521   6.248   3.470   4.794 -0.1189 -0.3294  0.0789
 3369TIP3    H131522   6.229   3.532   4.864  0.6786 -2.2400  2.1011
 3369TIP3    H231523   6.319   3.510   4.744 -0.2338  0.7772  0.7714
 3370TIP3   OH231524   4.056   1.446   6.494 -0.3260  0.4288  0.2214
 3370TIP3    H131525   4.149   1.463   6.502 -0.2258  1.0921 -1.7658
 3370TIP3    H231526   4.050   1.359   6.456 -0.4376  1.0252 -1.1749
 3371TIP3   OH231527   5.978   6.558  12.667 -0.4681 -0.4811  0.2495
 3371TIP3    H131528   5.889   6.590  12.651  0.1045  1.1855  0.2026
 3371TIP3    H231529   6.011   6.538  12.579 -0.7595 -0.9936  0.2570
 3372TIP3   OH231530   3.041   0.335  16.454  0.1363 -0.0478 -0.3256
 3372TIP3    H131531   3.061   0.242  16.450 -0.2335 -0.1180 -0.5671
 3372TIP3    H231532   3.061   0.368  16.367  2.0448  0.4771  0.2538
 3373TIP3   OH231533   1.160   4.491  17.099  0.1957  0.0673 -0.1521
 3373TIP3    H131534   1.074   4.450  17.107 -0.7016  1.5042 -1.7234
 3373TIP3    H231535   1.222   4.419  17.103 -1.0159 -0.9541  1.6418
 3374TIP3   OH231536   1.136   2.210   2.892 -0.5170  0.3669 -0.1531
 3374TIP3    H131537   1.110   2.120   2.877 -1.6195  0.3101  1.7946
 3374TIP3    H231538   1.057   2.262   2.877 -0.6234  0.6886  1.3017
 3375TIP3   OH231539   0.187   0.947  12.479 -0.0858 -0.4771 -0.1248
 3375TIP3    H131540   0.123   1.001  12.433  0.5321  0.1918 -0.2137
 3375TIP3    H231541   0.253   0.926  12.414  1.3456  1.3488  0.6429
 3376TIP3   OH231542   2.864   3.752  15.946 -0.6374 -0.3811  0.0890
 3376TIP3    H131543   2.789   3.744  15.888  0.7182 -1.4342 -1.6467
 3376TIP3    H231544   2.897   3.841  15.931 -1.9772  0.4052  1.5162
 3377TIP3   OH231545   5.739   4.151   5.167 -0.8591  0.4073  0.3658
 3377TIP3    H131546   5.768   4.093   5.237  0.0484  1.1893  0.6682
 3377TIP3    H231547   5.689   4.219   5.212 -0.8979  0.5107  0.1660
 3378TIP3   OH231548   1.580   2.777   5.203  0.6656  0.1651 -0.4107
 3378TIP3    H131549   1.502   2.831   5.189  1.4095  2.4146  2.8492
 3378TIP3    H231550   1.641   2.806   5.136 -0.5996 -0.1791 -1.7469
 3379TIP3   OH231551   5.563   0.044  13.662  0.4130  0.2808  0.1487
 3379TIP3    H131552   5.547  -0.045  13.692 -1.9732 -0.0054 -1.6400
 3379TIP3    H231553   5.521   0.099  13.728  1.5858  0.1172  1.0697
 3380TIP3   OH231554   2.097   6.689   4.438  0.4095 -0.5699  0.4544
 3380TIP3    H131555   2.164   6.673   4.372  1.1718 -0.7265  1.2478
 3380TIP3    H231556   2.025   6.728   4.389  1.8124  1.4453 -0.1479
 3381TIP3   OH231557   5.693   1.047   6.674 -0.1217  0.3865  0.3395
 3381TIP3    H131558   5.692   1.029   6.580 -1.4411  1.7324  0.0640
 3381TIP3    H231559   5.697   0.961   6.715  0.2371 -0.2288 -0.9334
 3382TIP3   OH231560   5.875   3.374  12.567  0.3991 -0.1123 -0.2601
 3382TIP3    H131561   5.838   3.375  12.478  0.4508 -2.4464 -0.3610
 3382TIP3    H231562   5.814   3.428  12.618 -1.3929 -1.2210 -1.1044
 3383TIP3   OH231563   3.160   3.888  14.481 -0.2806  0.4324  0.4532
 3383TIP3    H131564   3.201   3.957  14.429 -1.2735  0.9142  0.2911
 3383TIP3    H231565   3.117   3.934  14.553  0.9700 -0.2103  1.6824
 3384TIP3   OH231566   5.797   1.006  11.840  0.4181 -0.4198 -0.4163
 3384TIP3    H131567   5.713   0.986  11.882  1.0249 -1.1761  0.4847
 3384TIP3    H231568   5.773   1.049  11.758 -0.8926 -2.1054 -0.9792
 3385TIP3   OH231569   5.083   3.780  16.701  0.0217  0.1215  0.4922
 3385TIP3    H131570   5.080   3.701  16.647  0.3167  0.3928  0.0757
 3385TIP3    H231571   5.146   3.758  16.770 -0.2236 -0.1639  0.6262
 3386TIP3   OH231572   2.399   5.776   3.554 -0.1959  0.2338 -0.0207
 3386TIP3    H131573   2.364   5.756   3.468 -0.0506  1.4789 -0.3839
 3386TIP3    H231574   2.349   5.853   3.583 -0.4123 -0.3108  1.1145
 3387TIP3   OH231575   2.603   6.284  12.360  0.2473  0.6676  0.3506
 3387TIP3    H131576   2.634   6.218  12.297 -1.9424  0.6727 -0.8438
 3387TIP3    H231577   2.508   6.276  12.358 -0.0400  3.1020  1.0294
 3388TIP3   OH231578   2.380   6.033   4.365  0.0353  0.1783  0.6360
 3388TIP3    H131579   2.474   6.022   4.346 -0.1409 -0.5510  0.1293
 3388TIP3    H231580   2.375   6.031   4.461  0.5879  0.6785  0.6792
 3389TIP3   OH231581   4.692   3.224  14.153 -0.2431  0.2359  0.5525
 3389TIP3    H131582   4.627   3.158  14.175  1.2384 -1.7026 -0.5048
 3389TIP3    H231583   4.658   3.306  14.189 -2.3243 -1.0334  1.6129
 3390TIP3   OH231584   2.389   2.260   5.047  1.1073 -0.4685 -0.2316
 3390TIP3    H131585   2.428   2.325   5.106  1.6394 -1.4081  0.4901
 3390TIP3    H231586   2.313   2.227   5.095  1.0572 -0.6416 -0.4275
 3391TIP3   OH231587   5.275   1.917   5.243  0.4346 -0.0443  0.1065
 3391TIP3    H131588   5.319   1.890   5.163  0.0856  0.6742 -0.3402
 3391TIP3    H231589   5.201   1.857   5.253  1.1103 -0.8272  0.4945
 3392TIP3   OH231590   0.720   3.995  14.180  0.1686  0.3995  0.5977
 3392TIP3    H131591   0.689   4.031  14.098 -1.5406  0.6728  1.3349
 3392TIP3    H231592   0.777   4.063  14.216 -0.0146  0.7722  0.1949
 3393TIP3   OH231593   0.422   2.984   4.811  0.4771 -0.3002 -0.5485
 3393TIP3    H131594   0.454   2.998   4.722 -0.1539  1.1932 -0.5750
 3393TIP3    H231595   0.373   2.902   4.806  2.7440 -1.7245 -0.8966
 3394TIP3   OH231596   0.258   6.183   5.548 -0.3571 -0.2714  0.1292
 3394TIP3    H131597   0.269   6.173   5.643 -2.3486 -1.0134  0.3425
 3394TIP3    H231598   0.279   6.274   5.530  0.2490 -0.1745  1.2538
 3395TIP3   OH231599   1.243   4.955   6.519 -0.1956  0.1114  0.0646
 3395TIP3    H131600   1.253   4.873   6.566  0.1025  0.3574  0.4361
 3395TIP3    H231601   1.245   5.022   6.588  0.7871  0.5155 -0.3497
 3396TIP3   OH231602   2.686   0.408   1.582 -0.2518 -0.2633  0.0992
 3396TIP3    H131603   2.740   0.440   1.654 -0.5017  1.4046 -0.3976
 3396TIP3    H231604   2.748   0.375   1.518  0.2412  1.6627 -0.4841
 3397TIP3   OH231605   1.134   0.210  14.716 -0.2389  0.2420  0.0975
 3397TIP3    H131606   1.170   0.201  14.805 -1.2174  0.0468  0.4826
 3397TIP3    H231607   1.092   0.126  14.699 -2.3876  1.1598  0.5265
 3398TIP3   OH231608   1.827   4.858  14.104  0.3600  0.4389  0.1764
 3398TIP3    H131609   1.912   4.856  14.149  0.1763 -1.8699  0.5060
 3398TIP3    H231610   1.792   4.945  14.125  2.1876  1.0637  0.8585
 3399TIP3   OH231611   5.516   1.336   6.412  0.6560  0.1558 -0.1030
 3399TIP3    H131612   5.586   1.390   6.449  0.9327  0.1690 -0.6365
 3399TIP3    H231613   5.524   1.347   6.318 -0.5004  0.6857 -0.1607
 3400TIP3   OH231614   4.246   5.891   3.277  0.5077 -0.0677  0.2229
 3400TIP3    H131615   4.339   5.908   3.268  0.6328 -1.0998 -0.5884
 3400TIP3    H231616   4.205   5.977   3.278  1.5501  0.4575  1.8018
 3401TIP3   OH231617   4.948   2.246   5.155 -0.7130 -0.0509 -0.1251
 3401TIP3    H131618   4.990   2.197   5.226  1.4019  0.4064 -0.9736
 3401TIP3    H231619   4.926   2.331   5.194  0.1695  0.0939  0.0817
 3402TIP3   OH231620   3.255   1.300  11.791 -0.5692  0.7606 -0.6411
 3402TIP3    H131621   3.202   1.254  11.726  1.5088 -1.7631 -0.7364
 3402TIP3    H231622   3.345   1.287  11.762  0.2422  3.2541  0.5014
 3403TIP3   OH231623   0.226   5.928   4.172  0.3420  0.0685 -0.2345
 3403TIP3    H131624   0.294   5.986   4.206  0.6728  1.1273 -2.5361
 3403TIP3    H231625   0.274   5.851   4.141  0.1503 -0.4573  0.7475
 3404TIP3   OH231626   6.121   1.624   0.272  0.2931 -0.0311  0.1450
 3404TIP3    H131627   6.186   1.673   0.323  0.2945 -0.4122  0.5159
 3404TIP3    H231628   6.117   1.670   0.188 -1.0628  1.7224  1.1056
 3405TIP3   OH231629   6.572   3.905  11.698  0.3175 -0.3623  0.3149
 3405TIP3    H131630   6.532   3.947  11.622  1.3320  1.0068  0.4964
 3405TIP3    H231631   6.623   3.832  11.662  2.3471  1.3990 -0.6148
 3406TIP3   OH231632   6.006   5.548  10.745  0.0481 -0.0169 -0.6911
 3406TIP3    H131633   6.101   5.556  10.739  0.4265  0.7374  3.4618
 3406TIP3    H231634   5.974   5.638  10.745 -0.4278 -0.1773 -0.1096
 3407TIP3   OH231635   2.035   0.106  16.021  0.7425  0.2641  0.4152
 3407TIP3    H131636   1.949   0.144  16.001  0.5277  0.8818  2.3338
 3407TIP3    H231637   2.089   0.129  15.945 -0.4620  0.9342 -0.2698
 3408TIP3   OH231638   4.953   1.197   4.436 -0.5336 -0.4472  0.2202
 3408TIP3    H131639   4.899   1.122   4.412 -0.2165 -0.6639  0.1851
 3408TIP3    H231640   4.995   1.171   4.517  0.6630 -0.8606 -0.5147
 3409TIP3   OH231641   2.037   3.979  15.181  0.0084 -0.0448 -0.4399
 3409TIP3    H131642   2.011   3.887  15.191 -0.5892  0.0979 -0.6614
 3409TIP3    H231643   1.958   4.023  15.150  0.9804  0.0758 -2.9360
 3410TIP3   OH231644   1.509   1.171  10.831 -0.2924  0.1790  0.4133
 3410TIP3    H131645   1.572   1.138  10.766  0.8971 -0.6839  1.9370
 3410TIP3    H231646   1.425   1.137  10.802 -0.3982  2.5066 -2.4646
 3411TIP3   OH231647   2.830   3.964  14.859  0.1185 -0.8412 -0.4251
 3411TIP3    H131648   2.758   3.903  14.842  0.0280 -0.2619 -2.4128
 3411TIP3    H231649   2.789   4.037  14.906  0.3878 -2.5690  2.7690
 3412TIP3   OH231650   4.801   4.962  15.999  0.2185 -0.0259  0.2045
 3412TIP3    H131651   4.729   4.993  16.053  1.0974 -0.3868  1.6179
 3412TIP3    H231652   4.833   5.041  15.954 -1.0445  0.1258 -0.4575
 3413TIP3   OH231653   4.101   0.396   2.099 -0.0210  0.0398  0.4667
 3413TIP3    H131654   4.047   0.401   2.020 -1.2382  2.2848  1.3590
 3413TIP3    H231655   4.176   0.453   2.080  0.9091 -1.2337  0.1237
 3414TIP3   OH231656   3.024   3.438   0.550  0.1891 -0.4632 -0.2577
 3414TIP3    H131657   3.089   3.411   0.485  1.2737  1.1426  0.1150
 3414TIP3    H231658   2.942   3.400   0.519  0.9160 -0.7736 -1.8862
 3415TIP3   OH231659   3.475   6.599   4.324 -0.2659  0.1360  0.9205
 3415TIP3    H131660   3.439   6.512   4.342 -0.3599 -0.3476 -1.3142
 3415TIP3    H231661   3.398   6.656   4.318 -0.3806 -0.0962  0.1242
 3416TIP3   OH231662   6.294   6.085  17.122  0.5285 -0.1864  0.3354
 3416TIP3    H131663   6.236   6.149  17.079 -0.3815 -1.3373 -0.2026
 3416TIP3    H231664   6.306   6.120  17.210  1.1915  1.4366 -0.3475
 3417TIP3   OH231665   2.118   0.867   5.827  0.1366 -0.6360 -0.3588
 3417TIP3    H131666   2.106   0.826   5.741 -1.6515 -2.2818  0.5881
 3417TIP3    H231667   2.182   0.811   5.872 -0.4169 -0.9612  0.0460
 3418TIP3   OH231668   4.289   6.687  11.997 -0.0964 -0.4004  0.2397
 3418TIP3    H131669   4.318   6.625  11.930  2.6673  0.1001  0.8503
 3418TIP3    H231670   4.251   6.760  11.947  0.2879 -0.8249 -0.7068
 3419TIP3   OH231671   6.590   2.901   0.418 -0.2124 -0.4125 -0.3792
 3419TIP3    H131672   6.566   2.931   0.331  1.7881 -0.7568 -1.0948
 3419TIP3    H231673   6.622   2.812   0.405  1.0099 -0.1349  0.5326
 3420TIP3   OH231674   6.659   3.344   2.626  0.2242 -0.2931  0.2655
 3420TIP3    H131675   6.702   3.293   2.695  0.5039 -0.3511  0.0512
 3420TIP3    H231676   6.731   3.374   2.570 -0.0834 -1.2833 -0.6986
 3421TIP3   OH231677   2.298   1.406   3.920 -0.2049 -0.6162 -0.7417
 3421TIP3    H131678   2.312   1.333   3.860 -0.5966 -0.4714 -1.0119
 3421TIP3    H231679   2.358   1.389   3.992 -0.0295 -1.0128 -0.9755
 3422TIP3   OH231680   0.890   2.653  12.773  0.2254  0.1319  0.9843
 3422TIP3    H131681   0.937   2.627  12.694  0.7577  0.3180  1.2403
 3422TIP3    H231682   0.802   2.675  12.742  0.3963  0.0890  0.4619
 3423TIP3   OH231683   5.204   0.332  15.860  0.5293  0.0372 -0.6436
 3423TIP3    H131684   5.209   0.377  15.944 -1.0643 -1.0575  0.0997
 3423TIP3    H231685   5.160   0.395  15.802  0.2708  0.2489 -0.2247
 3424TIP3   OH231686   4.803   2.437   5.300 -0.4016 -0.3994 -0.6033
 3424TIP3    H131687   4.719   2.412   5.338 -0.0680  1.1300  1.3253
 3424TIP3    H231688   4.785   2.521   5.258  0.6276  1.4389  2.3030
 3425TIP3   OH231689   0.316   2.497   0.910 -0.6614 -0.2953 -0.3132
 3425TIP3    H131690   0.250   2.430   0.891  0.9242 -1.4168 -2.3529
 3425TIP3    H231691   0.388   2.477   0.849  0.6376  2.1986  0.2792
 3426TIP3   OH231692   0.471   6.060   3.990  0.6763  0.5260 -0.1444
 3426TIP3    H131693   0.389   6.068   3.943  2.4179 -0.3739 -3.6367
 3426TIP3    H231694   0.479   6.143   4.039 -2.5742  0.2744  1.0392
 3427TIP3   OH231695   1.458   3.301  15.119  0.3200 -0.0793 -0.0392
 3427TIP3    H131696   1.499   3.363  15.179 -1.0819  0.7198  0.1526
 3427TIP3    H231697   1.396   3.252  15.173 -0.3758  0.0902 -0.6581
 3428TIP3   OH231698   5.163   1.653   0.383  0.1288 -0.5104  0.0791
 3428TIP3    H131699   5.159   1.564   0.348 -0.8977 -0.0752 -1.0042
 3428TIP3    H231700   5.090   1.657   0.445  0.9701 -0.7952  1.1163
 3429TIP3   OH231701   6.256   4.558  15.372  0.0856 -0.0975  0.1332
 3429TIP3    H131702   6.315   4.582  15.300  0.3117 -0.8991  0.0336
 3429TIP3    H231703   6.238   4.640  15.418  1.2199  0.1766  0.1111
 3430TIP3   OH231704   5.301   0.373   4.554 -0.0287  0.2168 -0.2528
 3430TIP3    H131705   5.215   0.404   4.582  0.3018 -0.0284  1.1107
 3430TIP3    H231706   5.345   0.450   4.518 -0.5663  0.4856 -0.3351
 3431TIP3   OH231707   2.380   4.407   0.582 -0.5690  0.4228  0.3576
 3431TIP3    H131708   2.389   4.500   0.602 -0.8041  0.1831  1.6740
 3431TIP3    H231709   2.288   4.396   0.557 -0.4777  0.5833 -0.0518
 3432TIP3   OH231710   0.460   1.559  15.903  0.0896  0.6732 -0.2826
 3432TIP3    H131711   0.487   1.530  15.990  1.3538 -0.5728 -1.0611
 3432TIP3    H231712   0.519   1.514  15.842 -1.5776  0.5024 -1.8785
 3433TIP3   OH231713   4.546   0.170   3.846 -0.3743  0.5091  0.2373
 3433TIP3    H131714   4.595   0.097   3.885  0.0386  0.8550  0.3696
 3433TIP3    H231715   4.454   0.144   3.855 -0.2284 -0.0494  0.1772
 3434TIP3   OH231716   0.482   0.242   0.801 -0.2474  0.0484 -0.9587
 3434TIP3    H131717   0.475   0.233   0.896  1.8916 -0.5278 -0.8022
 3434TIP3    H231718   0.470   0.336   0.785 -0.1902  0.2146 -0.0703
 3435TIP3   OH231719   2.767   4.546   3.282 -0.2938 -0.5841 -0.0355
 3435TIP3    H131720   2.838   4.482   3.292 -0.4426 -0.7409  0.0246
 3435TIP3    H231721   2.706   4.526   3.353  0.2259  0.3823  0.7157
 3436TIP3   OH231722   6.660   2.593  11.571  0.0570 -0.6164  0.1139
 3436TIP3    H131723   6.583   2.535  11.568 -1.3938  1.1354  1.2613
 3436TIP3    H231724   6.730   2.538  11.606 -1.1199 -1.8294  0.6441
 3437TIP3   OH231725   4.650   6.535   2.056 -0.7199 -0.3333 -0.0209
 3437TIP3    H131726   4.652   6.583   2.138  3.2768  0.8283 -0.5753
 3437TIP3    H231727   4.695   6.453   2.075 -0.3208 -0.3215 -0.8629
 3438TIP3   OH231728   3.317   4.824  15.379 -0.4443  0.1147  0.2807
 3438TIP3    H131729   3.312   4.781  15.464  0.4279 -1.0089 -0.2016
 3438TIP3    H231730   3.230   4.813  15.341 -0.2756 -1.1553  0.2183
 3439TIP3   OH231731   5.433   5.633  13.134 -0.0101  0.1179  0.1802
 3439TIP3    H131732   5.478   5.615  13.052  2.8081 -0.4372  1.7175
 3439TIP3    H231733   5.348   5.589  13.125  0.4186 -0.3451 -2.2069
 3440TIP3   OH231734   4.387   2.210   1.970  0.1750 -0.1845  0.3612
 3440TIP3    H131735   4.449   2.169   1.910 -2.0793 -1.1210 -1.4912
 3440TIP3    H231736   4.328   2.259   1.912  0.1357  2.0600  2.1806
 3441TIP3   OH231737   3.393   3.790  13.980 -0.1269  0.5646 -0.6674
 3441TIP3    H131738   3.454   3.743  14.036  1.1457  3.4335  0.5166
 3441TIP3    H231739   3.362   3.863  14.033 -3.4691  0.1090 -1.7788
 3442TIP3   OH231740   4.137   4.586  11.755 -0.2754  0.4474 -0.0695
 3442TIP3    H131741   4.137   4.578  11.659  2.7726 -0.7838 -0.0734
 3442TIP3    H231742   4.213   4.640  11.774 -0.0320 -0.4544  1.7065
 3443TIP3   OH231743   0.898   0.868   3.971 -0.1556  0.2063  0.0518
 3443TIP3    H131744   0.965   0.805   3.944 -1.6916 -0.6739 -2.1001
 3443TIP3    H231745   0.869   0.908   3.889 -1.4988  1.3596  1.0353
 3444TIP3   OH231746   2.619   3.838  13.785 -0.3302 -0.0289 -0.1217
 3444TIP3    H131747   2.558   3.783  13.737 -0.6825  0.0890  0.1832
 3444TIP3    H231748   2.651   3.782  13.856 -0.7549  0.1810  0.2403
 3445TIP3   OH231749   0.667   0.022   5.261 -0.6476 -0.4699  1.0357
 3445TIP3    H131750   0.679   0.097   5.319 -2.3896 -0.1134  0.9848
 3445TIP3    H231751   0.592   0.046   5.206  1.3414 -0.4604 -1.9243
 3446TIP3   OH231752   1.359   3.037   1.348 -0.3928  0.1383 -0.2775
 3446TIP3    H131753   1.389   3.128   1.346  0.1853 -0.0232  0.4810
 3446TIP3    H231754   1.305   3.027   1.270 -0.6212  1.1896 -0.2620
 3447TIP3   OH231755   1.260   0.458  15.165  0.2024 -0.0040 -0.2173
 3447TIP3    H131756   1.236   0.506  15.245 -0.7335 -1.1474  0.2256
 3447TIP3    H231757   1.337   0.504  15.132 -1.4681  2.7214 -0.6604
 3448TIP3   OH231758   5.796   3.404  12.322  0.1571 -0.2837  0.5086
 3448TIP3    H131759   5.817   3.346  12.248  0.4100 -0.3221  0.6121
 3448TIP3    H231760   5.745   3.475  12.282 -2.5884 -1.9571  0.7650
 3449TIP3   OH231761   4.743   6.018  14.090  0.2241  0.1340  0.0294
 3449TIP3    H131762   4.823   5.979  14.058  0.8463  1.4159 -0.0625
 3449TIP3    H231763   4.759   6.035  14.183 -0.7818 -1.6120  0.5664
 3450TIP3   OH231764   4.475   0.546  14.166  0.5694 -0.1504  0.0444
 3450TIP3    H131765   4.393   0.581  14.132  1.6533  2.4455 -0.1470
 3450TIP3    H231766   4.540   0.614  14.146  2.4139 -1.2702  1.8499
 3451TIP3   OH231767   4.809   1.308  14.723  0.0284  0.0521 -0.4798
 3451TIP3    H131768   4.881   1.369  14.731 -0.5311  0.7825 -0.8797
 3451TIP3    H231769   4.762   1.336  14.644 -1.6689  0.6698  0.6783
 3452TIP3   OH231770   0.965   2.552   0.829  0.1783  0.0239 -0.0453
 3452TIP3    H131771   1.008   2.623   0.875 -0.0655 -0.0170  0.2519
 3452TIP3    H231772   0.898   2.594   0.776  1.7295  0.2676 -1.9014
 3453TIP3   OH231773   2.149   2.391   2.764 -0.8765 -1.0384 -0.2363
 3453TIP3    H131774   2.175   2.299   2.758 -1.0492 -1.3407  2.4365
 3453TIP3    H231775   2.060   2.388   2.799 -0.9807  0.1502 -0.3776
 3454TIP3   OH231776   3.161   5.288   2.449 -0.3132 -0.2077 -0.0650
 3454TIP3    H131777   3.140   5.268   2.540  0.6436  0.1843  0.2496
 3454TIP3    H231778   3.236   5.232   2.428 -0.5130 -0.2813 -0.6065
 3455TIP3   OH231779   1.425   4.391  16.266  0.1808 -0.3591  0.2175
 3455TIP3    H131780   1.501   4.415  16.213 -0.2926  0.7166 -0.0126
 3455TIP3    H231781   1.351   4.397  16.205 -0.1750 -0.6537  0.6195
 3456TIP3   OH231782   5.549   1.090  13.353 -0.6571 -0.6080  0.1375
 3456TIP3    H131783   5.597   1.008  13.363 -1.6859 -1.0815  1.6418
 3456TIP3    H231784   5.602   1.143  13.293  1.5741 -1.1804  1.5231
 3457TIP3   OH231785   4.820   4.763  13.732  0.5473 -0.5787 -0.1451
 3457TIP3    H131786   4.906   4.795  13.761 -0.6476  1.4046  1.4973
 3457TIP3    H231787   4.817   4.785  13.639  2.6131 -2.6983 -0.8233
 3458TIP3   OH231788   5.194   1.870  13.839 -0.0774 -0.2724  0.8474
 3458TIP3    H131789   5.252   1.838  13.770  0.8932 -1.4371  2.1349
 3458TIP3    H231790   5.251   1.922  13.896 -0.9534  1.0273  0.5686
 3459TIP3   OH231791   4.339   1.267   1.281 -0.5246 -0.2934  0.0650
 3459TIP3    H131792   4.345   1.174   1.303 -0.5288  0.0634  1.6760
 3459TIP3    H231793   4.344   1.269   1.186  0.8274 -1.8460  0.0566
 3460TIP3   OH231794   6.104   6.185   5.185  0.2035 -0.0050  0.1495
 3460TIP3    H131795   6.198   6.164   5.180  0.0156 -0.8039 -0.0740
 3460TIP3    H231796   6.075   6.187   5.094 -0.1643 -0.5408  0.2532
 3461TIP3   OH231797   6.604   2.878   2.995  0.3351  0.3593 -0.4522
 3461TIP3    H131798   6.529   2.839   3.041  1.4737  0.1461  1.3293
 3461TIP3    H231799   6.564   2.929   2.924 -1.3377 -1.9459 -1.3053
 3462TIP3   OH231800   1.431   6.637  15.798 -0.1493 -0.0830  0.9454
 3462TIP3    H131801   1.490   6.635  15.873  0.6576  1.3679  0.3823
 3462TIP3    H231802   1.486   6.662  15.724 -1.1123 -0.5467  0.0247
 3463TIP3   OH231803   0.499   6.440   1.785 -0.0508  0.3316 -0.3561
 3463TIP3    H131804   0.522   6.456   1.694 -1.5202  0.0790 -0.7943
 3463TIP3    H231805   0.404   6.443   1.787 -0.0335  1.0728  1.3217
 3464TIP3   OH231806   1.228   3.956  13.667  0.6379  0.0468 -0.2674
 3464TIP3    H131807   1.196   4.046  13.657  0.7997  0.0555 -0.6838
 3464TIP3    H231808   1.222   3.918  13.580  0.3910 -0.4082 -0.0553
 3465TIP3   OH231809   0.722   5.832   0.979 -0.3932  0.1475 -0.4992
 3465TIP3    H131810   0.737   5.814   1.072 -0.5488  0.8654 -0.3331
 3465TIP3    H231811   0.779   5.770   0.934  2.7389  2.3428  0.1104
 3466TIP3   OH231812   0.068   0.125   1.009 -0.5225  0.7698  0.1708
 3466TIP3    H131813   0.028   0.044   0.975  0.1318  0.6724 -0.4072
 3466TIP3    H231814   0.112   0.097   1.089  1.3188  0.1086 -1.0124
 3467TIP3   OH231815   3.192   2.063  13.432 -0.3681  0.3694 -0.4808
 3467TIP3    H131816   3.101   2.049  13.405  0.2502 -1.6764 -1.6504
 3467TIP3    H231817   3.227   2.124  13.368 -0.4026 -0.3048 -1.1481
 3468TIP3   OH231818   5.118   2.686   0.541  0.3603  0.0855  0.1688
 3468TIP3    H131819   5.196   2.694   0.597 -0.3484  0.8762  1.0662
 3468TIP3    H231820   5.046   2.670   0.602 -0.5407  1.6443 -0.4393
 3469TIP3   OH231821   5.663   2.483   3.597 -0.2370 -0.9106  0.9528
 3469TIP3    H131822   5.684   2.391   3.578 -0.0918 -0.7385  0.2494
 3469TIP3    H231823   5.571   2.492   3.571  0.5499 -0.1230 -1.8787
 3470TIP3   OH231824   4.361   0.313  11.501  0.0640 -0.0581  0.7963
 3470TIP3    H131825   4.398   0.336  11.416 -1.4366  1.9246  0.6128
 3470TIP3    H231826   4.416   0.241  11.533  0.2635 -1.3304 -2.1261
 3471TIP3   OH231827   1.973   6.219  15.514  0.1836 -0.0666 -0.3168
 3471TIP3    H131828   1.904   6.186  15.572  0.4128 -0.5679 -0.3283
 3471TIP3    H231829   1.956   6.178  15.430 -1.0572  1.8144 -1.0597
 3472TIP3   OH231830   5.639   5.678  13.314  0.2279 -0.5551  0.0114
 3472TIP3    H131831   5.563   5.667  13.256  0.0552 -0.2325  0.1721
 3472TIP3    H231832   5.700   5.731  13.263 -0.4339  0.7842  0.5712
 3473TIP3   OH231833   2.383   4.306  12.857  0.5105  0.5494 -0.0312
 3473TIP3    H131834   2.475   4.310  12.830  1.2010 -0.2393  1.9673
 3473TIP3    H231835   2.363   4.213  12.862  0.7091  0.5547  2.7022
 3474TIP3   OH231836   6.365   2.122   4.073 -0.1023  0.0051 -0.0801
 3474TIP3    H131837   6.390   2.032   4.097 -0.5835 -0.4485 -1.2011
 3474TIP3    H231838   6.303   2.110   4.001 -1.8977  1.1490  1.1815
 3475TIP3   OH231839   1.948   6.239   2.825 -0.3152  0.0871 -0.5825
 3475TIP3    H131840   1.864   6.265   2.786  0.0447  0.8922 -0.8644
 3475TIP3    H231841   2.003   6.216   2.749 -0.1712 -0.0881 -0.4255
 3476TIP3   OH231842   3.420   3.756   5.147 -0.1178 -0.1933  0.1951
 3476TIP3    H131843   3.374   3.828   5.190 -0.1972  0.3641 -0.7869
 3476TIP3    H231844   3.448   3.699   5.218 -1.5780 -0.1005  0.8763
 3477TIP3   OH231845   5.893   4.129   2.463 -0.0400 -0.4184  0.4769
 3477TIP3    H131846   5.929   4.114   2.550  0.1873 -2.3044  0.1048
 3477TIP3    H231847   5.970   4.142   2.408 -0.1215 -0.4808  0.3483
 3478TIP3   OH231848   1.380   2.628   0.949  0.0915  0.1470 -0.3960
 3478TIP3    H131849   1.296   2.582   0.956  1.2156 -1.9867 -0.2425
 3478TIP3    H231850   1.440   2.563   0.912  1.5232  1.8615 -1.2340
 3479TIP3   OH231851   0.364   5.828  16.140  0.1697  0.5326 -0.0863
 3479TIP3    H131852   0.421   5.902  16.161 -0.4861  0.9749  0.1717
 3479TIP3    H231853   0.346   5.787  16.225 -1.1346  1.3221  0.0432
 3480TIP3   OH231854   0.154   0.002  13.076 -0.1684 -0.6595  0.5253
 3480TIP3    H131855   0.062  -0.024  13.083  0.1678 -1.4625  2.6839
 3480TIP3    H231856   0.202  -0.072  13.114  1.5172 -0.9668 -1.9930
 3481TIP3   OH231857   5.559   3.211   0.526  0.0701  0.1719  0.6096
 3481TIP3    H131858   5.539   3.182   0.437  0.6714 -0.1077  0.5597
 3481TIP3    H231859   5.495   3.280   0.544  0.8620  1.2731 -0.5978
 3482TIP3   OH231860   3.809   6.273   4.593 -0.3044  0.1824  0.3580
 3482TIP3    H131861   3.833   6.188   4.629 -2.6329 -0.0948  1.4742
 3482TIP3    H231862   3.727   6.256   4.545 -0.7097  1.7465  0.4531
 3483TIP3   OH231863   6.313   4.808  16.016  0.2513 -0.1711 -0.0727
 3483TIP3    H131864   6.250   4.878  16.033  0.1351  0.4420 -2.5949
 3483TIP3    H231865   6.298   4.784  15.925  3.5701 -0.0565 -0.7838
 3484TIP3   OH231866   0.419   0.326  12.239 -0.6064 -0.8427 -0.1709
 3484TIP3    H131867   0.350   0.285  12.188 -0.8446 -2.3559  1.2645
 3484TIP3    H231868   0.499   0.281  12.212  0.4258  2.5422 -3.6462
 3485TIP3   OH231869   3.579   2.569  17.476 -0.4828  0.1712  0.2734
 3485TIP3    H131870   3.517   2.626  17.430  1.0211  0.6755 -1.2330
 3485TIP3    H231871   3.572   2.485  17.430 -0.3495  0.1019  0.3785
 3486TIP3   OH231872   3.277   3.866   6.125  0.6463 -0.0538 -0.2924
 3486TIP3    H131873   3.254   3.849   6.033  2.0782 -2.1694 -0.3248
 3486TIP3    H231874   3.367   3.898   6.121  0.3961  0.7292  0.3193
 3487TIP3   OH231875   0.589   6.116   1.421 -0.4986 -0.4246  0.1699
 3487TIP3    H131876   0.640   6.167   1.484 -0.0405 -0.4827 -0.1483
 3487TIP3    H231877   0.514   6.171   1.400 -1.6161 -1.0952  2.0830
 3488TIP3   OH231878   5.021   0.228  14.196 -0.1577 -0.6549 -0.1658
 3488TIP3    H131879   5.068   0.260  14.119  1.3330 -2.4789 -0.0867
 3488TIP3    H231880   4.932   0.209  14.164  0.1095 -0.2898 -1.1540
 3489TIP3   OH231881   0.875   4.935   0.124 -0.5770  0.1382 -0.4578
 3489TIP3    H131882   0.955   4.896   0.090 -0.1459  2.1953 -2.0138
 3489TIP3    H231883   0.805   4.881   0.088  0.0324 -0.1134 -1.2871
 3490TIP3   OH231884   0.210   3.453  14.446  0.2954  1.1357 -0.4004
 3490TIP3    H131885   0.127   3.423  14.484  2.1211 -0.5946  2.6019
 3490TIP3    H231886   0.218   3.544  14.476 -0.1316  1.0584 -0.0359
 3491TIP3   OH231887   4.385   6.267   4.068  0.2413  0.4996  0.0021
 3491TIP3    H131888   4.441   6.343   4.052 -1.6493  1.8585 -0.5406
 3491TIP3    H231889   4.334   6.291   4.146 -0.0184 -0.4501  0.1363
 3492TIP3   OH231890   4.448   4.456   3.655 -0.9624  0.1428 -0.0872
 3492TIP3    H131891   4.420   4.385   3.713 -1.1653 -0.7893 -1.3042
 3492TIP3    H231892   4.368   4.507   3.640 -0.4865  1.7257  2.1840
 3493TIP3   OH231893   3.478   6.522   0.317  0.7077 -0.5047  0.2883
 3493TIP3    H131894   3.519   6.515   0.231 -0.4320 -2.6364 -0.1612
 3493TIP3    H231895   3.458   6.432   0.341 -0.1715  0.1559  2.2113
 3494TIP3   OH231896   0.083   1.766   4.237  0.3903 -0.3085 -0.5422
 3494TIP3    H131897   0.020   1.832   4.208 -0.1207  0.9741  2.9139
 3494TIP3    H231898   0.155   1.816   4.275  0.0912 -1.6018  2.0154
 3495TIP3   OH231899   5.172   3.012  13.567  0.6236  0.3654 -0.1382
 3495TIP3    H131900   5.209   3.071  13.632  0.5790 -0.0519  0.2663
 3495TIP3    H231901   5.080   3.001  13.594  0.7479 -0.2404  0.0424
 3496TIP3   OH231902   5.953   0.552   0.077  0.0704 -0.0753  0.0927
 3496TIP3    H131903   6.027   0.571   0.133 -0.4104 -0.6786  0.9509
 3496TIP3    H231904   5.985   0.485   0.016  0.4283  0.1866 -0.0101
 3497TIP3   OH231905   3.318   6.218   5.221  0.3155  0.3747 -0.3464
 3497TIP3    H131906   3.343   6.160   5.148 -0.6996  1.3366 -1.4967
 3497TIP3    H231907   3.234   6.184   5.251  1.3003 -0.7970  1.2880
 3498TIP3   OH231908   6.642   3.605  15.182 -0.1593 -0.5106  0.2047
 3498TIP3    H131909   6.547   3.611  15.173 -0.5215  0.3432  3.3012
 3498TIP3    H231910   6.675   3.683  15.138 -0.8487 -0.8136 -0.9029
 3499TIP3   OH231911   2.755   5.618  14.049  0.8010 -0.2558 -0.1724
 3499TIP3    H131912   2.710   5.534  14.043  1.7596 -0.7301 -1.3906
 3499TIP3    H231913   2.738   5.649  14.138 -0.9005 -0.9624 -0.2167
 3500TIP3   OH231914   5.040   1.910  12.908  0.1275  0.3086  0.2990
 3500TIP3    H131915   5.113   1.867  12.953 -0.3051 -0.5458  0.2024
 3500TIP3    H231916   5.076   1.994  12.878  0.7239  0.4246  1.2941
 3501TIP3   OH231917   1.435   5.917   4.920  0.1545 -0.1309 -0.4094
 3501TIP3    H131918   1.409   5.909   4.828 -0.9429  1.4194 -0.2661
 3501TIP3    H231919   1.491   5.995   4.922 -0.9447  0.6542  0.4448
 3502TIP3   OH231920   2.750   0.441  16.144  0.5517  0.5779  0.5242
 3502TIP3    H131921   2.735   0.447  16.049 -0.7486  0.0215  0.6753
 3502TIP3    H231922   2.752   0.346  16.161 -0.7205  0.6673  1.2608
 3503TIP3   OH231923   6.618   6.731  16.248 -0.0912 -0.0177 -0.1093
 3503TIP3    H131924   6.607   6.814  16.201  0.4831 -0.0546 -0.3228
 3503TIP3    H231925   6.712   6.714  16.245 -0.4331 -2.2822 -2.8732
 3504TIP3   OH231926   6.591   0.861   3.054 -0.5642  0.2495 -0.0287
 3504TIP3    H131927   6.544   0.814   3.122 -0.7800  0.9270  0.3028
 3504TIP3    H231928   6.522   0.899   2.999 -0.4673 -2.7317 -2.4417
 3505TIP3   OH231929   1.699   5.134  14.510  0.6746  0.1205 -0.4873
 3505TIP3    H131930   1.607   5.161  14.517 -0.1647 -2.3724 -0.9360
 3505TIP3    H231931   1.735   5.149  14.597 -1.0738 -1.7720  0.6397
 3506TIP3   OH231932   5.255   0.678  13.967  0.0554  0.0899 -0.0069
 3506TIP3    H131933   5.324   0.739  13.993 -0.8606  1.4772 -0.7298
 3506TIP3    H231934   5.206   0.725  13.899  0.3540 -2.1058 -1.8518
 3507TIP3   OH231935   5.820   5.066  13.371 -0.3717 -0.3066 -0.3025
 3507TIP3    H131936   5.866   5.093  13.292 -0.3993  2.5058  0.5341
 3507TIP3    H231937   5.824   4.970  13.370  4.1217 -0.3113 -1.1044
 3508TIP3   OH231938   6.192   0.811   1.624 -0.2383  0.2833 -0.1975
 3508TIP3    H131939   6.226   0.819   1.535 -1.5759  0.9221 -0.6715
 3508TIP3    H231940   6.242   0.874   1.675  0.0209  0.4505 -0.6573
 3509TIP3   OH231941   4.379   4.134  13.078 -0.1883 -0.3233 -0.0074
 3509TIP3    H131942   4.427   4.060  13.116  1.5281 -0.2714 -1.8908
 3509TIP3    H231943   4.327   4.095  13.008  0.5947  0.2147 -0.8978
 3510TIP3   OH231944   6.618   2.905   1.028 -0.1959 -0.6636 -0.2940
 3510TIP3    H131945   6.710   2.887   1.047  0.6024  1.2322 -2.0749
 3510TIP3    H231946   6.601   2.990   1.070 -1.6086 -1.6471  1.2628
 3511TIP3   OH231947   0.038   5.270  13.572  0.4424 -0.2503 -0.0592
 3511TIP3    H131948   0.070   5.180  13.565  0.0343 -0.2472 -3.5362
 3511TIP3    H231949   0.114   5.325  13.554  0.6308  0.1709  1.7851
 3512TIP3   OH231950   4.017   5.501  13.004  0.0938  0.0375 -0.0393
 3512TIP3    H131951   3.950   5.456  12.952  0.0399  0.1777 -0.0937
 3512TIP3    H231952   4.095   5.447  12.995  0.0581  0.0100 -0.1883
 3513TIP3   OH231953   0.816   1.451  11.730 -0.4720 -0.6439 -0.5198
 3513TIP3    H131954   0.759   1.392  11.680 -0.5006  0.4897 -1.8955
 3513TIP3    H231955   0.838   1.402  11.809 -3.6715 -0.9946  0.2865
 3514TIP3   OH231956   4.521   3.361  13.423  0.0968 -0.4916  0.4301
 3514TIP3    H131957   4.502   3.438  13.370 -1.3394  0.2732  1.9435
 3514TIP3    H231958   4.453   3.298  13.400 -0.8266  0.0211  1.6164
 3515TIP3   OH231959   3.301   2.311  11.742 -0.9426 -0.2919 -0.4618
 3515TIP3    H131960   3.364   2.382  11.730  1.3346 -1.9709  0.8382
 3515TIP3    H231961   3.244   2.342  11.812  2.2024 -0.9517  2.6712
 3516TIP3   OH231962   2.881   2.163   0.640  0.6074 -0.3364  0.2032
 3516TIP3    H131963   2.884   2.099   0.711  0.8684 -1.5001 -0.8135
 3516TIP3    H231964   2.796   2.147   0.597 -0.1276  1.2185  0.9825
 3517TIP3   OH231965   0.166   5.275   3.624  0.3004 -0.7475 -0.1148
 3517TIP3    H131966   0.151   5.233   3.709 -1.3790 -0.0705 -0.0368
 3517TIP3    H231967   0.105   5.230   3.565 -0.6894  0.7680 -0.2839
 3518TIP3   OH231968   4.544   5.482   5.403 -0.1243  0.0120 -0.6302
 3518TIP3    H131969   4.483   5.408   5.399  0.1233 -0.2349  0.0339
 3518TIP3    H231970   4.624   5.445   5.440 -0.5808  0.9572  1.4761
 3519TIP3   OH231971   5.825   5.141   4.167 -0.6163  0.0952  0.0451
 3519TIP3    H131972   5.792   5.228   4.145 -1.0905 -0.0681  0.0989
 3519TIP3    H231973   5.827   5.094   4.084  1.0203  0.5980 -0.2365
 3520TIP3   OH231974   6.147   5.670   2.825  0.0564  0.2337 -0.3332
 3520TIP3    H131975   6.216   5.715   2.776  1.4455 -1.8522 -0.4474
 3520TIP3    H231976   6.083   5.645   2.759  0.9026 -0.7634 -0.8108
 3521TIP3   OH231977   3.653   4.849  14.150  0.1313  0.3368 -0.3916
 3521TIP3    H131978   3.683   4.787  14.083 -1.0750  1.9179 -2.4983
 3521TIP3    H231979   3.721   4.917  14.152  0.4898 -0.0302  0.5168
 3522TIP3   OH231980   1.148   6.588   4.897  0.3820 -0.8480 -0.0054
 3522TIP3    H131981   1.159   6.493   4.887  2.0886 -0.7299  0.3655
 3522TIP3    H231982   1.118   6.599   4.987  0.0154 -1.0423 -0.1024
 3523TIP3   OH231983   5.887   0.791  13.694 -0.9688 -0.1344  0.0126
 3523TIP3    H131984   5.855   0.715  13.645 -0.8501 -0.8838  1.0787
 3523TIP3    H231985   5.820   0.807  13.760 -0.2900 -0.2244  0.7304
 3524TIP3   OH231986   6.136   3.576  13.260 -0.4607  0.4463 -0.4665
 3524TIP3    H131987   6.046   3.590  13.287 -1.5410 -1.9510 -2.3815
 3524TIP3    H231988   6.150   3.638  13.188 -1.8041 -1.3195 -2.3615
 3525TIP3   OH231989   6.245   0.769  14.908  0.1731 -0.4032 -0.3653
 3525TIP3    H131990   6.326   0.790  14.860  0.0280 -0.1438 -0.4975
 3525TIP3    H231991   6.243   0.832  14.980  2.5608 -3.2962  2.5906
 3526TIP3   OH231992   0.431   4.002   3.585  0.3704  0.6439 -0.2512
 3526TIP3    H131993   0.353   4.052   3.612  0.9734  1.7674 -0.5322
 3526TIP3    H231994   0.502   4.067   3.584  1.2818 -0.3335 -0.1555
 3527TIP3   OH231995   3.530   5.795   0.634 -0.3555 -1.1564  0.4233
 3527TIP3    H131996   3.611   5.769   0.679  1.1604  1.0753 -0.7748
 3527TIP3    H231997   3.520   5.732   0.563  1.0117 -0.8377 -0.0866
 3528TIP3   OH231998   5.765   1.422  14.235 -0.4228  0.5733 -0.4250
 3528TIP3    H131999   5.750   1.477  14.159  2.4337  1.5038 -0.4118
 3528TIP3    H232000   5.830   1.357  14.206  1.0185  1.1846  1.2501
 3529TIP3   OH232001   3.834   1.632   4.705  0.1207  0.3223 -0.0698
 3529TIP3    H132002   3.819   1.543   4.736  2.6619 -0.7231 -1.5139
 3529TIP3    H232003   3.811   1.688   4.779  1.0569 -1.7109  1.8434
 3530TIP3   OH232004   0.736   0.178   2.904  0.6150 -0.5937  0.0982
 3530TIP3    H132005   0.762   0.170   2.812  1.4067  0.1390  0.2448
 3530TIP3    H232006   0.783   0.256   2.935  0.3971 -0.8667  1.1381
 3531TIP3   OH232007   6.126   1.624   5.054 -0.4472  0.2057 -0.1929
 3531TIP3    H132008   6.079   1.614   4.971 -0.9999  0.6932  0.0535
 3531TIP3    H232009   6.119   1.717   5.075 -2.0588 -0.2150  1.3782
 3532TIP3   OH232010   6.171   0.655   3.160 -0.0410  0.6799  0.0213
 3532TIP3    H132011   6.144   0.618   3.075 -0.2009  1.3454 -0.2253
 3532TIP3    H232012   6.238   0.595   3.192 -1.0063 -0.3919  0.1189
 3533TIP3   OH232013   6.046   5.476  13.871 -0.1832  0.0669  0.2180
 3533TIP3    H132014   6.053   5.382  13.854  1.5341  0.5546 -2.2137
 3533TIP3    H232015   6.060   5.484  13.966 -1.5423 -2.1675  0.6941
 3534TIP3   OH232016   3.548   1.789  14.224 -0.4402  0.0938 -0.3521
 3534TIP3    H132017   3.569   1.714  14.279  1.6622 -0.3430 -1.6592
 3534TIP3    H232018   3.531   1.751  14.138 -2.2319  0.8984 -0.3934
 3535TIP3   OH232019   4.750   2.179   4.905 -0.1668  0.0222  0.3774
 3535TIP3    H132020   4.839   2.209   4.924 -0.6668  1.1083  1.0975
 3535TIP3    H232021   4.708   2.171   4.991 -1.0479  0.4307  0.0008
 3536TIP3   OH232022   6.695   2.748   6.528  0.0343  0.4980 -0.1738
 3536TIP3    H132023   6.708   2.706   6.614 -0.2997 -0.0400 -0.3802
 3536TIP3    H232024   6.737   2.833   6.537 -2.0325  1.4349  1.3066
 3537TIP3   OH232025   0.824   3.523   4.981  0.0287 -0.1441 -1.0941
 3537TIP3    H132026   0.870   3.602   5.008  0.8795 -0.8531 -0.3869
 3537TIP3    H232027   0.739   3.528   5.025  0.6998 -0.3909  0.3061
 3538TIP3   OH232028   2.134   0.776   1.688 -0.3043 -0.0863 -0.3168
 3538TIP3    H132029   2.116   0.682   1.680  0.6787 -0.2678 -0.5439
 3538TIP3    H232030   2.228   0.784   1.668 -0.3460  0.9241 -0.1481
 3539TIP3   OH232031   3.554   6.714   3.089  0.0241 -0.1787 -0.4773
 3539TIP3    H132032   3.582   6.790   3.038 -0.6352  0.5239  0.1791
 3539TIP3    H232033   3.464   6.734   3.114 -0.9203 -2.0849 -2.0015
 3540TIP3   OH232034   0.884   4.735  12.845  0.0952 -0.0054 -0.0713
 3540TIP3    H132035   0.879   4.756  12.751 -0.4086 -0.9063 -0.2556
 3540TIP3    H232036   0.796   4.706  12.868 -0.3663  2.1257  1.1851
 3541TIP3   OH232037   4.642   0.252  16.103 -0.0071  0.5496 -0.3218
 3541TIP3    H132038   4.606   0.262  16.191 -0.0581  0.8494 -0.3761
 3541TIP3    H232039   4.630   0.159  16.083 -1.3346  0.7651 -0.5889
 3542TIP3   OH232040   0.809   6.577  13.429  0.1769  0.3647  0.2318
 3542TIP3    H132041   0.776   6.554  13.516 -0.7323  1.1718  0.1086
 3542TIP3    H232042   0.816   6.672  13.430  2.5414  0.2540  0.2433
 3543TIP3   OH232043   6.679   1.824   3.273  0.0654  0.1384 -0.6304
 3543TIP3    H132044   6.762   1.847   3.232  0.3031  3.0795  1.1944
 3543TIP3    H232045   6.613   1.842   3.207  0.7021  0.7413 -1.1178
 3544TIP3   OH232046   2.908   0.386   4.829 -0.3335 -0.0530  0.2738
 3544TIP3    H132047   2.926   0.366   4.921  0.2125  0.4062  0.2752
 3544TIP3    H232048   2.893   0.481   4.829  3.4535  0.7218 -0.6235
 3545TIP3   OH232049   4.498   6.159  12.951  0.2182 -0.4537  0.1807
 3545TIP3    H132050   4.504   6.245  12.993  2.1243 -0.0654 -0.7504
 3545TIP3    H232051   4.572   6.110  12.986  0.3383 -1.0038 -0.8057
 3546TIP3   OH232052   3.039   5.627   6.241  0.3745 -0.0862  0.0353
 3546TIP3    H132053   3.017   5.705   6.292  1.1914  0.1071  0.1006
 3546TIP3    H232054   3.057   5.560   6.307  2.6494  0.4902  0.0750
 3547TIP3   OH232055   4.089   0.911  13.790 -0.0513  0.4645 -0.3222
 3547TIP3    H132056   4.052   0.843  13.733 -1.6307 -2.3224  3.5642
 3547TIP3    H232057   4.183   0.895  13.789  0.2017  1.5966 -3.2370
 3548TIP3   OH232058   6.538   4.239   3.848 -0.2689  0.0195  0.5186
 3548TIP3    H132059   6.556   4.157   3.801  0.2609  0.5392 -0.2057
 3548TIP3    H232060   6.442   4.243   3.853 -0.3020 -0.5690  0.4311
 3549TIP3   OH232061   5.260   4.385   1.782 -0.3043  0.4801  0.2953
 3549TIP3    H132062   5.198   4.454   1.807 -1.1395 -0.2368  0.2332
 3549TIP3    H232063   5.229   4.355   1.696  0.2686  0.2752  0.1572
 3550TIP3   OH232064   0.749   3.793   5.371 -0.3470 -0.3749 -0.3897
 3550TIP3    H132065   0.780   3.822   5.285 -3.0388 -0.0317 -1.3290
 3550TIP3    H232066   0.763   3.868   5.428 -0.1651  0.0216 -0.9496
 3551TIP3   OH232067   0.851   3.269   0.622 -0.4772  0.1309  0.1467
 3551TIP3    H132068   0.844   3.276   0.717 -0.5920 -0.8779  0.2209
 3551TIP3    H232069   0.909   3.341   0.597  0.7951 -0.4942  1.1606
 3552TIP3   OH232070   5.519   1.433  13.712  0.4993 -0.1969 -0.2174
 3552TIP3    H132071   5.532   1.348  13.671 -0.6859 -0.7948  0.5961
 3552TIP3    H232072   5.440   1.468  13.670 -0.6755 -0.7746  1.4398
 3553TIP3   OH232073   5.781   3.200   4.436  0.7130 -0.0526  0.0087
 3553TIP3    H132074   5.783   3.153   4.353  0.4967  1.1846 -0.7137
 3553TIP3    H232075   5.847   3.269   4.427 -1.9927  2.6310 -0.7250
 3554TIP3   OH232076   1.602   2.540   4.802  0.2366 -0.3071  0.3570
 3554TIP3    H132077   1.513   2.506   4.812 -0.9445  2.4938 -0.0065
 3554TIP3    H232078   1.621   2.532   4.709  0.3275 -0.7215  0.4061
 3555TIP3   OH232079   3.478   3.600   6.624  0.0294 -0.3656 -0.0154
 3555TIP3    H132080   3.433   3.577   6.543 -1.1262 -0.5794  0.6737
 3555TIP3    H232081   3.515   3.518   6.656 -1.5611 -0.7541  0.8995
 3556TIP3   OH232082   2.103   0.840   4.033  0.0887 -0.3694  0.0903
 3556TIP3    H132083   2.123   0.774   4.100 -0.1257 -0.2176  0.3033
 3556TIP3    H232084   2.093   0.789   3.953  2.0339 -0.3930 -0.1872
 3557TIP3   OH232085   6.422   3.313   4.086  0.2133  0.1982  0.3155
 3557TIP3    H132086   6.508   3.272   4.072  1.2077  2.3205 -0.2960
 3557TIP3    H232087   6.381   3.261   4.155  1.5850 -1.4639 -0.0779
 3558TIP3   OH232088   2.140   2.549  12.207  0.0679 -0.0038  0.5897
 3558TIP3    H132089   2.076   2.482  12.231 -1.0161  1.1429  0.9712
 3558TIP3    H232090   2.131   2.559  12.112 -1.8631  1.6308  0.8829
 3559TIP3   OH232091   0.700   2.385  12.594  0.2425  0.0571 -0.5016
 3559TIP3    H132092   0.615   2.426  12.610 -0.0863 -1.0948  0.9413
 3559TIP3    H232093   0.682   2.317  12.529 -0.5453 -1.8782  1.6001
 3560TIP3   OH232094   1.452   6.669  11.849  0.8150  0.0683 -0.0530
 3560TIP3    H132095   1.479   6.580  11.826  0.7490 -0.5037  1.9556
 3560TIP3    H232096   1.415   6.662  11.937 -1.4481  1.6853 -0.7833
 3561TIP3   OH232097   1.355   1.860  13.531  0.5591  0.1151  0.0174
 3561TIP3    H132098   1.307   1.936  13.564 -1.1067 -0.9011  0.0089
 3561TIP3    H232099   1.324   1.849  13.441  0.1310 -1.0825  0.2990
 3562TIP3   OH232100   4.521   4.973  15.719 -0.0587  0.0880 -0.1984
 3562TIP3    H132101   4.490   4.956  15.808 -0.4418  0.7128 -0.2080
 3562TIP3    H232102   4.475   5.052  15.692 -3.0094 -2.1864 -2.4337
 3563TIP3   OH232103   4.236   1.273   0.152 -0.2896 -0.1814  1.0781
 3563TIP3    H132104   4.213   1.347   0.208  0.4158  0.4925  0.5067
 3563TIP3    H232105   4.249   1.312   0.065 -0.8722 -1.1276  0.5462
 3564TIP3   OH232106   4.028   4.116   0.333 -0.1840 -1.0397 -0.5773
 3564TIP3    H132107   4.086   4.066   0.275  3.2032  1.2049  0.5569
 3564TIP3    H232108   3.990   4.184   0.276 -0.6330 -1.6781 -1.0557
 3565TIP3   OH232109   1.932   5.378  16.110 -0.2072  0.0182  0.0983
 3565TIP3    H132110   1.942   5.448  16.046  0.3232  0.9779  1.2107
 3565TIP3    H232111   1.928   5.298  16.057 -0.2927  0.8236 -1.1547
 3566TIP3   OH232112   5.105   5.591  13.445  0.2566 -0.0112 -0.4384
 3566TIP3    H132113   5.093   5.676  13.403 -1.7068 -0.4059 -0.8067
 3566TIP3    H232114   5.095   5.608  13.538  2.4480  0.5202 -0.2415
 3567TIP3   OH232115   5.919   5.443   2.024  0.4589 -0.8203  0.7216
 3567TIP3    H132116   5.948   5.532   2.003 -1.5650 -0.2875  0.0189
 3567TIP3    H232117   5.938   5.433   2.117 -0.5985  0.9154  1.1716
 3568TIP3   OH232118   6.547   4.999  11.280 -0.3399 -0.2938 -0.2525
 3568TIP3    H132119   6.632   4.956  11.270  1.3325  2.8831 -0.9313
 3568TIP3    H232120   6.505   4.989  11.195 -0.3084 -1.1761 -0.1713
 3569TIP3   OH232121   5.713   1.459  16.387 -0.0926  0.3509 -0.2017
 3569TIP3    H132122   5.645   1.526  16.377 -1.6083 -0.8708  1.3007
 3569TIP3    H232123   5.668   1.376  16.369  1.4314 -0.3942 -0.7870
 3570TIP3   OH232124   5.203   0.266   3.582 -0.0228  0.1668  0.0217
 3570TIP3    H132125   5.121   0.227   3.554 -0.4319  1.3837 -0.5515
 3570TIP3    H232126   5.182   0.309   3.665  0.1426  0.1174  0.0896
 3571TIP3   OH232127   6.539   3.634  13.705 -0.9260 -0.3894  0.2380
 3571TIP3    H132128   6.619   3.594  13.741 -0.8654  0.7532  1.4547
 3571TIP3    H232129   6.553   3.633  13.610  1.4763  1.5685  0.4628
 3572TIP3   OH232130   2.872   2.980  11.552 -0.3595  0.4508  0.3473
 3572TIP3    H132131   2.792   3.033  11.551  0.1600  1.3161  1.6035
 3572TIP3    H232132   2.920   3.007  11.474 -1.2454 -0.0215 -0.3724
 3573TIP3   OH232133   3.769   0.919   3.540 -0.5291  0.5889 -0.7652
 3573TIP3    H132134   3.687   0.913   3.589 -0.6121  2.2026 -0.6737
 3573TIP3    H232135   3.831   0.956   3.602  0.1663 -0.2154 -0.9713
 3574TIP3   OH232136   4.863   3.983  17.099 -0.0659 -0.1860 -0.6396
 3574TIP3    H132137   4.886   3.967  17.191 -2.4855  0.0736  0.0752
 3574TIP3    H232138   4.943   4.020  17.061  0.7221  0.6214  1.6192
 3575TIP3   OH232139   0.133   3.176  11.412  0.2700 -0.6854 -0.3014
 3575TIP3    H132140   0.187   3.255  11.419 -0.9606  0.1797 -0.2582
 3575TIP3    H232141   0.137   3.153  11.319  0.6330 -0.5804 -0.3147
 3576TIP3   OH232142   3.929   1.166   2.483  0.3956 -0.0099 -0.2221
 3576TIP3    H132143   4.017   1.130   2.476  0.1935 -0.4779 -0.4208
 3576TIP3    H232144   3.920   1.191   2.575  0.0056 -1.9010  0.3078
 3577TIP3   OH232145   0.268   4.927  13.255 -0.1744 -0.6647  0.0747
 3577TIP3    H132146   0.352   4.934  13.209 -0.3945  0.3528 -0.2043
 3577TIP3    H232147   0.209   4.886  13.192 -0.3218  0.1884 -0.3582
 3578TIP3   OH232148   6.669   1.842   4.653  0.6856 -0.0790  0.3067
 3578TIP3    H132149   6.616   1.861   4.731 -0.7171 -1.4715 -0.2466
 3578TIP3    H232150   6.754   1.817   4.689  0.9664  1.9696  1.2291
 3579TIP3   OH232151   6.194   0.187   3.661  0.6324  0.0851 -0.4077
 3579TIP3    H132152   6.209   0.157   3.572 -0.3299  2.2927 -1.3746
 3579TIP3    H232153   6.147   0.269   3.652  2.0779  1.3266  2.0794
 3580TIP3   OH232154   1.420   3.096   4.908 -0.3782  0.1935  0.0644
 3580TIP3    H132155   1.407   3.002   4.904 -1.1661  0.3098 -0.3613
 3580TIP3    H232156   1.339   3.133   4.872 -1.1447  1.0780  2.5434
 3581TIP3   OH232157   4.507   4.763   4.255 -0.2697  0.0972  0.0691
 3581TIP3    H132158   4.493   4.836   4.194 -0.6811  2.6146  2.9253
 3581TIP3    H232159   4.557   4.802   4.327 -0.6454 -2.4374  1.8075
 3582TIP3   OH232160   0.059   2.371   1.302 -0.4917  0.2686 -0.5467
 3582TIP3    H132161   0.134   2.412   1.345 -0.8673  2.0507 -1.5041
 3582TIP3    H232162   0.083   2.367   1.210  0.2184 -3.3265 -0.3713
 3583TIP3   OH232163   2.406   0.591   4.657  0.6636  0.0192  0.2661
 3583TIP3    H132164   2.448   0.673   4.684 -0.4496  1.2631 -1.5001
 3583TIP3    H232165   2.418   0.588   4.562 -0.2590 -1.3152  0.1512
 3584TIP3   OH232166   6.361   1.670   1.030 -0.0311  0.4172  0.1623
 3584TIP3    H132167   6.338   1.612   1.104 -0.7070  2.2076  1.4223
 3584TIP3    H232168   6.276   1.691   0.990  0.1759  0.8699 -0.0335
 3585TIP3   OH232169   1.189   1.841   1.230  0.1808 -0.7610 -0.4298
 3585TIP3    H132170   1.102   1.802   1.217  0.1311 -1.4247  1.5753
 3585TIP3    H232171   1.250   1.769   1.216  0.5694 -0.0467 -2.9800
 3586TIP3   OH232172   5.630   4.285  17.251  0.3753 -0.2774  0.0029
 3586TIP3    H132173   5.680   4.214  17.292  0.1569  0.0577  0.8839
 3586TIP3    H232174   5.687   4.317  17.181  0.0338 -1.9982 -1.1167
 3587TIP3   OH232175   3.845   3.416   0.361  0.0364 -0.4655  0.3109
 3587TIP3    H132176   3.824   3.451   0.275 -2.2310  0.2416  1.0860
 3587TIP3    H232177   3.810   3.326   0.360 -1.7058  0.1568  1.0489
 3588TIP3   OH232178   4.592   4.223  13.383 -0.1002  0.1389 -0.0477
 3588TIP3    H132179   4.548   4.154  13.433 -0.8722 -0.2668 -1.2344
 3588TIP3    H232180   4.671   4.243  13.434 -0.1416 -1.2416  0.6069
 3589TIP3   OH232181   4.379   3.688  13.123 -0.0702 -0.4566 -0.5642
 3589TIP3    H132182   4.388   3.783  13.126  2.3148 -0.6137 -0.7072
 3589TIP3    H232183   4.357   3.669  13.032  1.1152 -0.1093 -0.9410
 3590TIP3   OH232184   5.829   0.747   3.039  0.3200  0.5999 -0.4536
 3590TIP3    H132185   5.886   0.699   2.978  1.1557  0.0630  0.7163
 3590TIP3    H232186   5.742   0.742   2.999  0.7583 -0.1499 -1.3624
 3591TIP3   OH232187   5.784   5.725  14.109  0.5832  0.1348  0.0515
 3591TIP3    H132188   5.704   5.705  14.157  0.8891  0.1103  0.5606
 3591TIP3    H232189   5.853   5.724  14.175  0.9282  0.6734 -0.2866
 3592TIP3   OH232190   2.787   0.649  15.689 -0.0548 -0.3806  0.1100
 3592TIP3    H132191   2.707   0.701  15.679  0.1180 -0.0872  0.2265
 3592TIP3    H232192   2.853   0.712  15.718  0.3742 -0.5000 -0.5861
 3593TIP3   OH232193   5.892   5.880   5.982  0.8571 -0.2617  0.3846
 3593TIP3    H132194   5.928   5.965   6.004  0.3836  0.3493 -1.0600
 3593TIP3    H232195   5.801   5.897   5.958  0.7468 -1.1649  0.0876
 3594TIP3   OH232196   3.004   3.145  10.776  0.3913  0.0635 -0.6823
 3594TIP3    H132197   3.019   3.188  10.691 -2.2413  2.7353  0.0786
 3594TIP3    H232198   2.930   3.087  10.760  0.5448 -0.2040 -0.4263
 3595TIP3   OH232199   4.907   3.399  11.500  0.0569 -0.3910  0.0673
 3595TIP3    H132200   4.915   3.353  11.583  0.8110 -2.9614 -1.3231
 3595TIP3    H232201   4.856   3.339  11.444 -3.6036  2.7294 -0.3862
 3596TIP3   OH232202   6.024   4.946   4.219  0.4346 -0.0575 -0.4728
 3596TIP3    H132203   5.967   5.019   4.198  1.0917  0.9306  1.0101
 3596TIP3    H232204   6.111   4.974   4.192  0.3770 -1.2868 -2.1048
 3597TIP3   OH232205   0.765   6.248   1.597  0.2272 -0.0064  0.1306
 3597TIP3    H132206   0.815   6.319   1.556 -0.8491  0.1231 -0.9804
 3597TIP3    H232207   0.832   6.188   1.630  1.1636  1.4253  0.9694
 3598TIP3   OH232208   4.072   4.053   0.609 -0.1136 -0.2716  0.1944
 3598TIP3    H132209   4.064   4.082   0.518  1.6940 -1.7578 -0.4927
 3598TIP3    H232210   4.065   3.958   0.604  3.2244 -0.6823  1.1144
 3599TIP3   OH232211   3.670   5.685   0.850  0.0743 -0.0743  0.4577
 3599TIP3    H132212   3.692   5.673   0.942 -0.0467 -0.7791  0.4029
 3599TIP3    H232213   3.713   5.612   0.805 -0.5446 -0.2053  0.0643
 3600TIP3   OH232214   4.765   2.091   0.473 -0.5640 -0.2390  0.3665
 3600TIP3    H132215   4.684   2.056   0.436 -0.6353  0.5983 -0.2959
 3600TIP3    H232216   4.746   2.104   0.566 -1.9061  1.9322 -0.1548
 3601TIP3   OH232217   2.751   6.483   5.235  0.2931 -0.2938  0.0963
 3601TIP3    H132218   2.784   6.419   5.297  1.4890  1.6956  1.6278
 3601TIP3    H232219   2.807   6.472   5.158  0.3096 -1.2169  0.2216
 3602TIP3   OH232220   0.695   5.907  13.672 -0.2722 -0.1077  0.1869
 3602TIP3    H132221   0.625   5.938  13.614 -0.5483  0.2800  0.7282
 3602TIP3    H232222   0.669   5.934  13.759  0.4475 -0.1581  0.4270
 3603TIP3   OH232223   2.089   5.362  13.249  0.2273 -0.1547 -0.6310
 3603TIP3    H132224   2.160   5.308  13.284  1.9385  0.4744 -2.9175
 3603TIP3    H232225   2.013   5.305  13.250  1.0124 -1.2397  0.8225
 3604TIP3   OH232226   3.542   0.904   5.832  0.3839 -0.2269 -0.2823
 3604TIP3    H132227   3.521   0.874   5.920 -1.3865  4.9214  1.3710
 3604TIP3    H232228   3.617   0.962   5.843  0.5957 -0.0346 -2.2973
 3605TIP3   OH232229   2.102   6.489   1.442  0.3000 -0.5187  0.7933
 3605TIP3    H132230   2.006   6.484   1.450  0.4668 -1.0520  2.9569
 3605TIP3    H232231   2.118   6.580   1.417 -0.7394 -0.2994  0.8484
 3606TIP3   OH232232   2.686   2.120  15.509  0.3740  0.2255 -0.2497
 3606TIP3    H132233   2.657   2.164  15.429 -1.1357 -0.6713 -0.2353
 3606TIP3    H232234   2.738   2.046  15.478 -2.7865 -1.9994 -0.6368
 3607TIP3   OH232235   2.039   5.640  11.933  0.5097 -0.2981 -0.0258
 3607TIP3    H132236   2.053   5.705  12.001  0.1593 -0.5659  0.3124
 3607TIP3    H232237   2.007   5.690  11.858 -1.4131 -0.2305  0.7622
 3608TIP3   OH232238   5.170   3.901  16.438 -0.1045  0.3868  0.0917
 3608TIP3    H132239   5.202   3.844  16.508  1.8668  1.3886  0.0701
 3608TIP3    H232240   5.152   3.841  16.365 -0.9215 -0.5115  1.0004
 3609TIP3   OH232241   6.471   2.190   3.444 -0.3152  0.4233 -0.3334
 3609TIP3    H132242   6.481   2.172   3.537 -0.2127 -0.4777 -0.5138
 3609TIP3    H232243   6.454   2.284   3.440 -2.1616  0.1952  0.7472
 3610TIP3   OH232244   5.610   2.636  15.535  0.1035 -0.1817  0.1926
 3610TIP3    H132245   5.552   2.565  15.509  0.1570 -0.0992 -0.1604
 3610TIP3    H232246   5.567   2.716  15.503 -0.2278 -0.0021  1.0703
 3611TIP3   OH232247   3.357   0.444   2.012  0.7548  0.3475  0.2138
 3611TIP3    H132248   3.373   0.481   2.099 -0.1837 -0.1725  0.6254
 3611TIP3    H232249   3.364   0.349   2.025  1.0112  0.2866 -0.3681
 3612TIP3   OH232250   6.460   3.238  13.700 -0.3769 -0.3724 -0.0359
 3612TIP3    H132251   6.513   3.237  13.780 -1.8870 -1.2619  1.0032
 3612TIP3    H232252   6.375   3.272  13.729  0.0491  2.8229 -1.9978
 3613TIP3   OH232253   1.382   1.904   4.309  0.6138 -0.1446 -0.1628
 3613TIP3    H132254   1.448   1.917   4.377 -0.1416  0.2217  0.5218
 3613TIP3    H232255   1.408   1.822   4.266  1.7727  0.2416 -0.2303
 3614TIP3   OH232256   2.765   0.108   6.447  0.1321 -0.4924  0.1163
 3614TIP3    H132257   2.759   0.155   6.530 -1.6042  1.2023 -0.8887
 3614TIP3    H232258   2.843   0.053   6.457  1.6191  1.6964  1.8376
 3615TIP3   OH232259   1.470   4.748   2.432 -0.4411  0.0303 -0.4317
 3615TIP3    H132260   1.442   4.797   2.355  0.5329  1.4137  0.0733
 3615TIP3    H232261   1.403   4.679   2.442 -1.4354  0.7963 -1.5677
 3616TIP3   OH232262   3.637   4.007  17.014 -0.8633  0.2191  0.4770
 3616TIP3    H132263   3.641   3.917  16.982  1.1825  0.4317 -0.0026
 3616TIP3    H232264   3.607   4.058  16.939  0.7589  0.2792 -0.1755
 3617TIP3   OH232265   6.403   3.490   5.239 -0.2176  0.4233  0.4883
 3617TIP3    H132266   6.340   3.421   5.262 -1.1498  0.4769 -1.6292
 3617TIP3    H232267   6.484   3.443   5.221 -0.5855 -0.0467 -0.0054
 3618TIP3   OH232268   2.782   5.589  16.699  0.8115  0.4497  0.1915
 3618TIP3    H132269   2.829   5.671  16.688  0.1817  1.0946  1.9472
 3618TIP3    H232270   2.708   5.596  16.640  2.8843 -0.6586 -2.7523
 3619TIP3   OH232271   4.635   6.092   4.242  0.2920  0.6041 -0.3375
 3619TIP3    H132272   4.675   6.118   4.159  0.3284  0.2512 -0.4293
 3619TIP3    H232273   4.687   6.139   4.308  2.7194 -1.9262 -0.2360
 3620TIP3   OH232274   2.595   4.189   3.522 -0.8273  0.0861 -0.3313
 3620TIP3    H132275   2.677   4.142   3.534 -0.3108  0.2810 -2.6675
 3620TIP3    H232276   2.528   4.121   3.522 -0.3388 -0.4123 -1.2902
 3621TIP3   OH232277   2.675   0.500  12.933  0.0630  0.4006  0.3242
 3621TIP3    H132278   2.656   0.537  12.847  4.1652  0.9324 -0.5448
 3621TIP3    H232279   2.679   0.405  12.918  0.8473  0.4993 -0.1032
 3622TIP3   OH232280   0.990   4.734  14.324 -0.3657 -0.6584  0.5335
 3622TIP3    H132281   0.937   4.667  14.282 -0.7211 -0.3546  0.4836
 3622TIP3    H232282   1.027   4.784  14.252  1.2699 -1.8147  0.5257
 3623TIP3   OH232283   1.073   5.758   1.553  0.1398  0.1877 -0.2470
 3623TIP3    H132284   1.086   5.765   1.459 -0.6578 -0.2678 -0.3997
 3623TIP3    H232285   1.093   5.845   1.587 -1.8131  1.0292 -1.1197
 3624TIP3   OH232286   1.768   4.795   4.056  0.2822  0.2817 -0.3630
 3624TIP3    H132287   1.804   4.762   3.974 -0.5509  2.5825 -1.7564
 3624TIP3    H232288   1.729   4.718   4.098  0.6335 -0.9440 -2.1729
 3625TIP3   OH232289   1.789   3.738  12.324  0.2667 -0.0565  0.6467
 3625TIP3    H132290   1.849   3.809  12.346  0.1873  0.0743  0.4488
 3625TIP3    H232291   1.771   3.695  12.407  1.9692 -1.1578  0.4908
 3626TIP3   OH232292   4.156   5.494   6.159 -0.2950  0.2592 -0.3671
 3626TIP3    H132293   4.211   5.571   6.147  0.9103 -0.4711  0.2676
 3626TIP3    H232294   4.175   5.465   6.249 -0.6048 -0.8668 -0.6498
 3627TIP3   OH232295   6.193   5.180   6.022  0.5215  0.2432 -0.1131
 3627TIP3    H132296   6.119   5.226   6.060  0.6196  0.6778 -0.4341
 3627TIP3    H232297   6.256   5.172   6.093  0.0479 -0.3884  0.2374
 3628TIP3   OH232298   0.863   2.623   4.720  0.2285 -0.3837  0.5197
 3628TIP3    H132299   0.943   2.672   4.735 -0.1942 -0.0616  1.9405
 3628TIP3    H232300   0.873   2.585   4.633  2.0241 -0.5659  0.7704
 3629TIP3   OH232301   2.198   5.177   4.685 -0.3906 -0.0873  0.0964
 3629TIP3    H132302   2.220   5.181   4.778 -0.5189  0.8772  0.0959
 3629TIP3    H232303   2.114   5.131   4.682 -1.3745  1.5939  0.6480
 3630TIP3   OH232304   5.662   4.609  13.066 -0.3465 -0.1299 -0.0019
 3630TIP3    H132305   5.595   4.558  13.020  1.1884 -0.3609 -2.1015
 3630TIP3    H232306   5.624   4.697  13.074 -1.3501 -0.5457 -0.0827
 3631TIP3   OH232307   3.067   2.385  15.956  0.0571  0.1380 -0.1745
 3631TIP3    H132308   3.030   2.298  15.944  0.3657 -0.4409  2.4019
 3631TIP3    H232309   3.050   2.405  16.048  0.0180  2.8115 -0.6936
 3632TIP3   OH232310   0.936   5.386  13.196  0.4413  0.1698  0.0057
 3632TIP3    H132311   0.942   5.462  13.254  0.9223  0.6803 -0.7004
 3632TIP3    H232312   0.963   5.312  13.251  0.0597  0.5124  0.6703
 3633TIP3   OH232313   6.457   5.693   2.049  1.1429 -0.1239  0.0342
 3633TIP3    H132314   6.523   5.714   2.116  0.3193 -1.2631  1.2530
 3633TIP3    H232315   6.425   5.607   2.074 -0.5304  0.2332 -0.7605
 3634TIP3   OH232316   3.493   2.114   4.511 -0.4139 -0.1714  0.2088
 3634TIP3    H132317   3.559   2.077   4.569 -0.0838 -2.1280 -1.3001
 3634TIP3    H232318   3.543   2.147   4.436 -0.8988  1.5418  0.5930
 3635TIP3   OH232319   1.835   2.931   5.130  0.2438  0.2945  0.4107
 3635TIP3    H132320   1.916   2.981   5.132 -1.2308  2.9977 -1.1015
 3635TIP3    H232321   1.844   2.874   5.054  1.3583 -0.7623  1.2860
 3636TIP3   OH232322   2.777   2.096   2.570 -0.2122 -0.0908  0.3399
 3636TIP3    H132323   2.732   2.176   2.542  0.2646  0.0830  0.0650
 3636TIP3    H232324   2.836   2.075   2.498  0.6831  0.0916  1.0033
 3637TIP3   OH232325   3.309   1.493  12.678 -0.0928 -0.1359 -0.1247
 3637TIP3    H132326   3.389   1.444  12.696 -0.7280 -0.8436  0.9102
 3637TIP3    H232327   3.304   1.498  12.583  0.9102 -0.5457 -0.2069
 3638TIP3   OH232328   3.803   2.595  14.619 -0.8828  0.1492  0.4661
 3638TIP3    H132329   3.751   2.616  14.697 -0.1832  0.5584  0.8341
 3638TIP3    H232330   3.796   2.500  14.611 -2.7753  0.3007 -0.2806
 3639TIP3   OH232331   1.238   1.304   5.212  0.2461 -0.2116  0.0469
 3639TIP3    H132332   1.242   1.209   5.206 -0.5111 -0.3022  0.7176
 3639TIP3    H232333   1.145   1.324   5.223  0.5224  0.4768  1.4928
 3640TIP3   OH232334   1.251   1.452  14.973  0.7008 -0.4861 -0.5105
 3640TIP3    H132335   1.230   1.361  14.953 -1.5534 -0.2668  0.5748
 3640TIP3    H232336   1.166   1.495  14.981  1.5594  0.9130  2.6099
 3641TIP3   OH232337   6.604   0.106  11.413 -0.4953 -0.5827  0.1922
 3641TIP3    H132338   6.662   0.148  11.349 -2.1468 -0.5474 -1.3405
 3641TIP3    H232339   6.543   0.175  11.439 -0.4900 -0.8831  1.0366
 3642TIP3   OH232340   1.922   5.187   2.075 -0.0729  0.2964 -0.1551
 3642TIP3    H132341   1.937   5.193   2.170  0.5194  0.5737 -0.2584
 3642TIP3    H232342   1.999   5.229   2.036 -0.3254  0.2100 -0.7607
 3643TIP3   OH232343   3.163   0.760   1.340 -0.2829 -0.1399  0.3680
 3643TIP3    H132344   3.170   0.797   1.252  1.5345  0.8294  0.8671
 3643TIP3    H232345   3.103   0.819   1.385  0.9264  1.0312  0.5323
 3644TIP3   OH232346   2.409   1.549  16.734 -0.0533  0.4698  0.5510
 3644TIP3    H132347   2.390   1.643  16.736  0.0358  0.5519 -1.1005
 3644TIP3    H232348   2.499   1.544  16.703 -0.9489 -0.2007 -2.1551
 3645TIP3   OH232349   2.504   2.850  14.143  0.0527 -0.0793  0.1982
 3645TIP3    H132350   2.531   2.938  14.169 -2.1903  0.6086  0.3606
 3645TIP3    H232351   2.471   2.859  14.054 -0.9377 -0.5711  0.4969
 3646TIP3   OH232352   2.359   4.299   1.950 -0.3678 -0.0479  0.3067
 3646TIP3    H132353   2.292   4.364   1.973 -0.1602  0.3502 -0.1831
 3646TIP3    H232354   2.422   4.348   1.896 -0.5673 -0.8045 -0.6493
 3647TIP3   OH232355   1.210   2.598   2.992  0.6390  0.4293 -0.5379
 3647TIP3    H132356   1.271   2.538   2.948  1.8125  0.6517  0.7210
 3647TIP3    H232357   1.201   2.563   3.080 -1.0445  0.4509 -0.6747
 3648TIP3   OH232358   5.671   5.408  11.716  0.1506 -0.7463  0.1055
 3648TIP3    H132359   5.626   5.387  11.798 -1.2520  0.8244 -0.2079
 3648TIP3    H232360   5.600   5.428  11.655  1.2290 -0.5135 -1.0908
 3649TIP3   OH232361   5.865   1.557  16.777  0.5391 -0.3133  0.1257
 3649TIP3    H132362   5.820   1.483  16.735 -0.1912 -0.3427  0.9296
 3649TIP3    H232363   5.956   1.550  16.747 -0.0069 -0.1574 -1.6710
 3650TIP3   OH232364   5.728   4.614  11.774  0.0069 -0.2018  0.1868
 3650TIP3    H132365   5.786   4.583  11.844 -0.0906  0.9621  0.8138
 3650TIP3    H232366   5.788   4.648  11.708  0.2697 -3.7844 -1.6862
 3651TIP3   OH232367   5.265   0.324   2.695 -0.3309  0.2049 -0.4084
 3651TIP3    H132368   5.176   0.358   2.685 -0.7962 -0.8472 -0.0290
 3651TIP3    H232369   5.297   0.364   2.776 -1.3484 -1.1603  0.7409
 3652TIP3   OH232370   1.359   5.256  14.006  0.3835 -0.1035 -0.3042
 3652TIP3    H132371   1.360   5.270  14.101 -0.5393 -2.1754  0.0712
 3652TIP3    H232372   1.451   5.243  13.982  0.8169  2.0063 -0.0258
 3653TIP3   OH232373   5.553   4.178   4.416 -0.1404 -0.2216  0.0388
 3653TIP3    H132374   5.460   4.200   4.423 -0.0262  1.6382 -2.7879
 3653TIP3    H232375   5.599   4.257   4.444  0.4945 -0.0493 -1.4076
 3654TIP3   OH232376   6.454   0.108   3.748  0.2739 -0.5678  0.5490
 3654TIP3    H132377   6.388   0.129   3.682 -1.5972 -1.0421  2.1734
 3654TIP3    H232378   6.433   0.018   3.775  2.5712 -1.3071  0.0287
 3655TIP3   OH232379   1.932   3.091   3.375  0.1689  0.4200 -0.0161
 3655TIP3    H132380   1.985   3.076   3.297  0.0275  1.4640 -0.3369
 3655TIP3    H232381   1.943   3.012   3.428  0.2565 -0.3085 -1.0959
 3656TIP3   OH232382   1.228   4.437  13.844 -0.0672 -0.7321  0.1226
 3656TIP3    H132383   1.180   4.373  13.895 -1.0459 -0.6534 -0.6662
 3656TIP3    H232384   1.298   4.386  13.801  1.2921 -0.6524  2.1284
 3657TIP3   OH232385   1.456   6.115  14.616 -0.3107 -1.0406 -0.5178
 3657TIP3    H132386   1.389   6.165  14.662  1.3556  0.9756 -0.1272
 3657TIP3    H232387   1.455   6.148  14.527  0.2269 -0.8879 -0.4754
 3658TIP3   OH232388   1.333   0.065   5.410 -0.0864  0.5048 -0.3587
 3658TIP3    H132389   1.282   0.145   5.422 -0.1073  0.3724  0.5490
 3658TIP3    H232390   1.297   0.024   5.331 -1.6254  0.2511  0.4375
 3659TIP3   OH232391   0.804   1.835   1.487 -0.4704 -0.1870 -0.0502
 3659TIP3    H132392   0.770   1.912   1.533  0.7436  2.3114 -3.0130
 3659TIP3    H232393   0.888   1.817   1.528 -0.4318  0.5307  0.1909
 3660TIP3   OH232394   0.322   1.477  15.641  0.2820  0.1925  0.1913
 3660TIP3    H132395   0.255   1.410  15.629 -0.7316  0.5004  3.3060
 3660TIP3    H232396   0.405   1.430  15.626 -0.5106 -0.3754 -2.9288
 3661TIP3   OH232397   3.595   1.035   0.134  0.1233  0.0169  0.2021
 3661TIP3    H132398   3.673   0.988   0.104 -0.3041 -0.5592 -0.0082
 3661TIP3    H232399   3.629   1.099   0.197  0.9734  0.8885 -1.0807
 3662TIP3   OH232400   1.685   4.996  13.130 -0.0035 -0.2015  0.3779
 3662TIP3    H132401   1.603   4.950  13.145 -0.8545  0.9059 -0.6601
 3662TIP3    H232402   1.748   4.927  13.110 -0.5975 -1.0852  1.4611
 3663TIP3   OH232403   4.257   6.653   5.571  0.0275  0.0135 -0.7006
 3663TIP3    H132404   4.233   6.567   5.605  0.3832  0.6053  1.1744
 3663TIP3    H232405   4.352   6.649   5.562 -0.0891 -0.2581 -2.0964
 3664TIP3   OH232406   5.551   0.989   1.664 -0.5550  0.4793 -0.2437
 3664TIP3    H132407   5.503   0.934   1.603  1.0984  1.0742 -2.2137
 3664TIP3    H232408   5.568   1.070   1.616 -0.2878  1.5105  1.4854
 3665TIP3   OH232409   1.060   5.812  17.304 -0.1733 -0.1584 -0.2804
 3665TIP3    H132410   1.044   5.718  17.310 -0.7044  0.0070  0.9557
 3665TIP3    H232411   0.991   5.844  17.246 -0.1137 -0.4809 -0.5400
 3666TIP3   OH232412   3.796   1.496  11.809 -0.4914  0.0068 -0.2317
 3666TIP3    H132413   3.842   1.415  11.834  0.6219 -0.4601 -3.4125
 3666TIP3    H232414   3.726   1.467  11.751 -0.6434  1.2859 -0.7091
 3667TIP3   OH232415   2.466   2.694  13.882 -0.0322  0.1343 -0.1760
 3667TIP3    H132416   2.453   2.787  13.865  0.4871  0.1186 -0.6752
 3667TIP3    H232417   2.416   2.678  13.962 -2.0455  0.3282 -1.3315
 3668TIP3   OH232418   0.699   4.024   4.384  0.8987  0.6903 -0.3108
 3668TIP3    H132419   0.745   3.943   4.366  1.2015  0.7958 -0.0216
 3668TIP3    H232420   0.642   4.037   4.308  1.4251  0.6130 -0.7277
 3669TIP3   OH232421   5.030   6.147  12.571 -0.0488 -0.3019 -0.3376
 3669TIP3    H132422   4.954   6.195  12.539  0.2016  0.1231 -0.3134
 3669TIP3    H232423   4.994   6.073  12.618 -0.5229  0.8775  1.2572
 3670TIP3   OH232424   6.720   5.247  11.714  0.0271 -0.4023  0.5119
 3670TIP3    H132425   6.778   5.218  11.643 -0.5035  0.0111 -0.0943
 3670TIP3    H232426   6.636   5.206  11.694  0.2863 -1.6979  1.8436
 3671TIP3   OH232427   0.990   2.204  16.501  0.4079 -0.2567 -0.1019
 3671TIP3    H132428   0.925   2.248  16.446  1.3154 -0.0314 -1.0243
 3671TIP3    H232429   1.036   2.275  16.546 -0.3193 -0.4404  0.9665
 3672TIP3   OH232430   2.791   6.638   4.380 -0.0673 -0.0263  0.3750
 3672TIP3    H132431   2.862   6.601   4.327 -0.1225  1.4280 -0.7877
 3672TIP3    H232432   2.787   6.582   4.458  1.9021 -0.5438  0.1595
 3673TIP3   OH232433   3.613   3.340  15.299  0.1562  0.1713 -0.5739
 3673TIP3    H132434   3.674   3.394  15.350 -0.6726  0.7288 -0.1573
 3673TIP3    H232435   3.615   3.255  15.343 -0.4248  0.5995  0.3008
 3674TIP3   OH232436   0.915   1.681  16.143  0.1985 -0.1646 -0.1103
 3674TIP3    H132437   0.863   1.701  16.066 -1.1838  1.8336  1.2316
 3674TIP3    H232438   0.986   1.745  16.142 -0.1319  0.2197  0.5390
 3675TIP3   OH232439   6.492   1.255  12.597  0.1818 -0.0956  0.4837
 3675TIP3    H132440   6.403   1.288  12.603  0.2547  0.0819  0.5968
 3675TIP3    H232441   6.511   1.220  12.684  0.6615  0.9950  0.8340
 3676TIP3   OH232442   4.354   2.773   0.624 -0.0498  0.0108 -0.5327
 3676TIP3    H132443   4.419   2.734   0.565 -0.7569 -1.2167 -0.5459
 3676TIP3    H232444   4.394   2.854   0.654  0.9405 -0.0709 -1.5530
 3677TIP3   OH232445   5.278   3.047  12.157 -0.0761 -0.3002 -0.2969
 3677TIP3    H132446   5.232   3.013  12.234  0.6037  1.0598  0.7540
 3677TIP3    H232447   5.241   2.998  12.084 -3.3701  0.7676  0.4495
 3678TIP3   OH232448   2.671   3.947  17.475  0.2952  0.1038  0.9935
 3678TIP3    H132449   2.666   3.978  17.566  1.6315  1.4569  0.6438
 3678TIP3    H232450   2.742   3.998  17.436  1.9072 -2.6600  0.0336
 3679TIP3   OH232451   3.208   5.798   5.387  0.6392  0.1331  0.3534
 3679TIP3    H132452   3.217   5.845   5.470 -1.2815  0.0305  0.6680
 3679TIP3    H232453   3.116   5.772   5.384  1.0956 -1.5121 -0.9513
 3680TIP3   OH232454   3.856   5.293  12.636  0.2997 -0.6070  0.4025
 3680TIP3    H132455   3.926   5.241  12.596 -0.9098 -0.6634 -1.7948
 3680TIP3    H232456   3.891   5.382  12.637 -0.0292 -0.3913 -1.9471
 3681TIP3   OH232457   3.027   1.227  14.721  0.2553 -0.2202 -0.9756
 3681TIP3    H132458   3.016   1.145  14.673 -2.0642 -1.0740  0.8263
 3681TIP3    H232459   2.974   1.291  14.673 -1.1751 -0.7989 -0.2082
 3682TIP3   OH232460   2.013   6.626   0.191  0.6008 -0.2961 -0.2288
 3682TIP3    H132461   2.002   6.721   0.204  1.6378 -0.1093 -0.5677
 3682TIP3    H232462   1.957   6.586   0.257  0.0328  0.5558 -0.1766
 3683TIP3   OH232463   2.052   3.562  16.361 -0.0493 -0.1413  0.0822
 3683TIP3    H132464   2.036   3.488  16.420  0.1187 -0.3607 -0.1429
 3683TIP3    H232465   2.127   3.608  16.399 -0.7166  0.4399  0.7124
 3684TIP3   OH232466   3.806   4.175   5.325  0.9355  0.7053 -0.0234
 3684TIP3    H132467   3.869   4.174   5.253  0.6185  0.2163 -0.3011
 3684TIP3    H232468   3.777   4.266   5.331  1.9741  1.0204  0.3830
 3685TIP3   OH232469   6.066   3.683  15.187  0.4045 -0.4742 -0.1173
 3685TIP3    H132470   5.985   3.707  15.141 -0.0443  0.3111  1.0274
 3685TIP3    H232471   6.036   3.627  15.259  0.6763  0.8479  1.0922
 3686TIP3   OH232472   5.380   2.612  11.475 -0.4906  0.3887 -0.7106
 3686TIP3    H132473   5.366   2.524  11.440 -1.8822  0.2124  0.2484
 3686TIP3    H232474   5.475   2.617  11.489 -0.3894 -0.9395 -0.8282
 3687TIP3   OH232475   4.887   3.933  16.122 -0.0300 -0.0132 -0.4124
 3687TIP3    H132476   4.795   3.946  16.145 -0.2104 -1.7113 -0.0133
 3687TIP3    H232477   4.912   4.013  16.076 -1.7410  0.4211 -0.6617
 3688TIP3   OH232478   5.612   3.215   5.051  0.1738  0.6085 -0.3934
 3688TIP3    H132479   5.556   3.197   5.127  1.6499  0.1120  0.6285
 3688TIP3    H232480   5.616   3.132   5.004  2.8016 -0.4991  1.4877
 3689TIP3   OH232481   1.047   1.052  13.993 -0.0342  0.6997  0.0901
 3689TIP3    H132482   1.056   0.960  14.015  0.0096  1.1116  1.9717
 3689TIP3    H232483   1.132   1.091  14.016 -0.5327  1.4440  0.7647
 3690TIP3   OH232484   5.967   1.644  15.613  0.3793  0.4176 -0.1570
 3690TIP3    H132485   5.892   1.597  15.649  0.0621  1.2647  0.3302
 3690TIP3    H232486   5.969   1.621  15.520 -0.2397  0.0784 -0.0873
 3691TIP3   OH232487   5.242   4.071   3.760 -0.1409  0.3937 -0.0070
 3691TIP3    H132488   5.291   3.989   3.771 -1.5092 -0.4705 -0.2259
 3691TIP3    H232489   5.237   4.084   3.666  0.0459  0.7188  0.0268
 3692TIP3   OH232490   0.264   0.372  15.812  0.3915  0.5932  0.3379
 3692TIP3    H132491   0.354   0.359  15.781  1.0788  1.4908  1.8197
 3692TIP3    H232492   0.274   0.394  15.904 -1.5015 -1.2676  1.0749
 3693TIP3   OH232493   6.098   2.415  17.185  0.1032 -0.5970 -0.0908
 3693TIP3    H132494   6.011   2.442  17.215  0.9095  0.5907  1.3069
 3693TIP3    H232495   6.084   2.329  17.144 -1.4803 -1.2165  1.6240
 3694TIP3   OH232496   4.245   2.350  16.610  0.4383 -0.0975  0.1330
 3694TIP3    H132497   4.275   2.424  16.663  1.4975 -0.9490  0.7660
 3694TIP3    H232498   4.236   2.278  16.673  0.6318 -0.8312 -0.6625
 3695TIP3   OH232499   1.763   3.249   0.325 -0.0746  0.2292  0.2485
 3695TIP3    H132500   1.787   3.179   0.265  1.9172  0.0571  1.1842
 3695TIP3    H232501   1.815   3.324   0.296  0.9776  0.1245  1.7584
 3696TIP3   OH232502   1.382   6.589   1.554  0.2279  0.5379 -0.0991
 3696TIP3    H132503   1.382   6.511   1.498  0.7149  0.2295  0.3241
 3696TIP3    H232504   1.289   6.608   1.568  0.1022 -0.2317  0.1569
 3697TIP3   OH232505   6.089   4.041  12.209 -0.2922 -0.1023  0.3719
 3697TIP3    H132506   6.122   3.965  12.255  0.7417 -0.4307 -0.8606
 3697TIP3    H232507   5.993   4.032  12.212 -0.1875 -1.1611  0.6921
 3698TIP3   OH232508   4.701   5.907   5.949 -0.3783  0.0861  0.2815
 3698TIP3    H132509   4.616   5.865   5.960  0.0441 -0.5392  1.2490
 3698TIP3    H232510   4.761   5.835   5.928 -0.0116  0.4618  0.0359
 3699TIP3   OH232511   0.333   5.123  12.879 -0.1128 -0.7537 -0.0428
 3699TIP3    H132512   0.351   5.033  12.850 -0.4405 -1.4658  1.8214
 3699TIP3    H232513   0.416   5.169  12.866  0.3214 -1.5580 -0.1998
 3700TIP3   OH232514   4.842   1.473  15.183  0.1238  0.0314 -0.2088
 3700TIP3    H132515   4.797   1.404  15.134  1.9693 -1.6302  0.3084
 3700TIP3    H232516   4.780   1.496  15.253 -1.0397 -0.1414 -1.1423
 3701TIP3   OH232517   2.419   2.869  11.649  0.2983  0.3371 -0.0275
 3701TIP3    H132518   2.485   2.800  11.660  0.3717  0.5467  0.9984
 3701TIP3    H232519   2.356   2.833  11.587 -0.5833 -1.4032  1.7480
 3702TIP3   OH232520   2.376   3.619   5.107 -0.3154  0.4858  0.0076
 3702TIP3    H132521   2.436   3.655   5.173  1.2268  1.5150 -1.8557
 3702TIP3    H232522   2.432   3.566   5.050 -1.7431 -1.0127 -0.0818
 3703TIP3   OH232523   2.958   5.076   2.281 -0.3807  0.3468  0.1395
 3703TIP3    H132524   2.982   5.159   2.323 -1.2613  0.7262 -0.0811
 3703TIP3    H232525   2.985   5.009   2.343 -2.9712  0.9316  2.1060
 3704TIP3   OH232526   5.501   0.542  15.514 -0.3924  0.2498 -0.5950
 3704TIP3    H132527   5.495   0.527  15.609  1.7986 -1.6218 -0.6547
 3704TIP3    H232528   5.549   0.625  15.506 -0.1621  0.1724 -0.0573
 3705TIP3   OH232529   0.960   5.305   3.428 -0.4274  0.2720  0.0170
 3705TIP3    H132530   0.952   5.364   3.503 -0.3050  0.3144 -0.0034
 3705TIP3    H232531   0.898   5.341   3.363  0.1534  0.7880 -0.2613
 3706TIP3   OH232532   2.858   5.176   6.106  0.2244  0.1168 -0.3573
 3706TIP3    H132533   2.919   5.209   6.172  0.7813 -1.4500 -0.0525
 3706TIP3    H232534   2.786   5.138   6.156  0.5369 -0.8707 -0.6433
 3707TIP3   OH232535   4.539   1.306  11.300  0.1895  0.7386  0.7213
 3707TIP3    H132536   4.619   1.278  11.346 -0.1469 -1.7383 -0.0588
 3707TIP3    H232537   4.481   1.336  11.370  0.6536 -0.4933  1.6906
 3708TIP3   OH232538   1.700   2.278   2.830 -0.6153 -0.1515  0.0863
 3708TIP3    H132539   1.757   2.257   2.905  0.5442  0.1063 -0.7025
 3708TIP3    H232540   1.652   2.356   2.858  1.0808  0.9921 -0.0569
 3709TIP3   OH232541   3.929   0.205   6.486  0.5834  0.4511  0.4193
 3709TIP3    H132542   3.880   0.213   6.404  0.8787 -2.2029 -0.1011
 3709TIP3    H232543   3.863   0.184   6.551  0.7977 -2.0090 -0.0715
 3710TIP3   OH232544   5.755   1.668   3.991 -0.2838 -0.0346  0.0820
 3710TIP3    H132545   5.831   1.684   3.935  1.6030 -0.7693  2.2492
 3710TIP3    H232546   5.760   1.738   4.057 -0.8812 -0.7230  0.8723
 3711TIP3   OH232547   0.890   1.046  12.267 -0.4975 -0.1492  0.9894
 3711TIP3    H132548   0.953   1.046  12.194  0.3550 -1.1556  1.6897
 3711TIP3    H232549   0.804   1.049  12.224 -0.0196 -0.8924 -0.0855
 3712TIP3   OH232550   1.509   4.911  14.725 -0.0097  0.1333 -0.4250
 3712TIP3    H132551   1.527   4.903  14.818  1.7329  2.4687 -0.4673
 3712TIP3    H232552   1.477   5.001  14.714 -3.7470 -1.1578 -1.6682
 3713TIP3   OH232553   4.980   5.081   0.095  0.0516 -0.2536 -0.6723
 3713TIP3    H132554   4.964   5.056   0.004  0.1096 -1.3777 -0.3804
 3713TIP3    H232555   5.017   5.169   0.089  0.6387 -0.5555 -1.7704
 3714TIP3   OH232556   1.595   6.322   5.278 -0.3283  0.6687 -0.3949
 3714TIP3    H132557   1.619   6.374   5.354  0.6848  2.4813 -1.8726
 3714TIP3    H232558   1.500   6.310   5.286 -0.6427  2.9422 -0.0641
 3715TIP3   OH232559   5.785   0.714  12.356 -0.3808  0.4969 -0.2637
 3715TIP3    H132560   5.786   0.622  12.328 -1.3417  0.1431  0.8014
 3715TIP3    H232561   5.720   0.755  12.299 -0.6173  0.3072 -0.1343
 3716TIP3   OH232562   3.992   1.643   6.299  0.6949  0.2691 -0.3951
 3716TIP3    H132563   3.918   1.585   6.280  0.5248  0.9620 -1.9836
 3716TIP3    H232564   4.030   1.607   6.379 -0.5555 -0.8912 -0.2817
 3717TIP3   OH232565   6.076   2.117   6.703 -0.1862 -0.6311 -0.3886
 3717TIP3    H132566   6.043   2.201   6.732 -0.1232 -1.3707  2.0482
 3717TIP3    H232567   6.007   2.082   6.646 -1.3928 -0.0479  0.6685
 3718TIP3   OH232568   1.580   2.664   4.352  0.1199 -0.3971  0.0851
 3718TIP3    H132569   1.636   2.739   4.372 -0.1377 -0.3899  0.8145
 3718TIP3    H232570   1.571   2.666   4.257 -0.9142  1.2591  0.1739
 3719TIP3   OH232571   0.793   4.584   0.758  0.6249 -0.1976  0.1768
 3719TIP3    H132572   0.884   4.612   0.763  0.8428 -0.8816  0.2340
 3719TIP3    H232573   0.790   4.528   0.680  0.3267 -0.4170  0.3435
 3720TIP3   OH232574   4.991   0.186   6.070 -0.1776 -0.0700  0.0507
 3720TIP3    H132575   4.964   0.209   6.158 -1.1879 -0.6176 -0.0976
 3720TIP3    H232576   4.959   0.096   6.058  0.7310 -0.3222 -0.5515
 3721TIP3   OH232577   5.568   3.230  12.918 -0.0909  0.3209 -0.3191
 3721TIP3    H132578   5.480   3.193  12.926 -0.3647  0.9198 -0.4760
 3721TIP3    H232579   5.554   3.315  12.875  0.5064  0.6640  0.1542
 3722TIP3   OH232580   3.781   1.207   0.299  0.1070 -0.3230  0.3105
 3722TIP3    H132581   3.827   1.155   0.365  1.7663  0.2823 -0.3071
 3722TIP3    H232582   3.849   1.231   0.236 -0.7766  1.7788  0.0634
 3723TIP3   OH232583   2.263   0.203   0.256 -0.2065  0.0422 -0.3505
 3723TIP3    H132584   2.230   0.266   0.192  1.5417  0.4710 -0.8948
 3723TIP3    H232585   2.315   0.255   0.317  1.0602 -0.8068 -0.6648
 3724TIP3   OH232586   6.423   3.853   0.456  0.1553  0.2435 -0.1150
 3724TIP3    H132587   6.370   3.932   0.466 -0.8032 -0.3940 -0.0779
 3724TIP3    H232588   6.452   3.855   0.365 -0.2537  0.3988 -0.2434
 3725TIP3   OH232589   4.011   5.956  15.956  0.4246 -0.1991 -0.0558
 3725TIP3    H132590   3.937   5.908  15.917  0.4013 -0.1171 -0.1119
 3725TIP3    H232591   3.985   6.048  15.951  0.9307 -0.0913 -0.9375
 3726TIP3   OH232592   5.528   0.138  14.142  0.1435 -0.1086  0.0437
 3726TIP3    H132593   5.579   0.153  14.222  1.3169 -0.6735 -0.5674
 3726TIP3    H232594   5.554   0.050  14.113 -1.6408 -0.6703  0.0083
 3727TIP3   OH232595   2.893   5.503  12.256  0.5316  0.0667  0.3625
 3727TIP3    H132596   2.969   5.558  12.277  0.4648  0.0796  0.5625
 3727TIP3    H232597   2.891   5.502  12.160  0.0051  1.1339  0.3604
 3728TIP3   OH232598   3.074   5.004   2.637 -0.0974  0.2850  0.0915
 3728TIP3    H132599   3.168   4.995   2.656  0.0215  1.1475 -0.0614
 3728TIP3    H232600   3.031   4.963   2.712  0.3732 -2.4323 -0.9998
 3729TIP3   OH232601   4.144   1.870   2.867 -0.0142 -0.1507 -0.2511
 3729TIP3    H132602   4.084   1.907   2.802 -0.5417  1.2459  0.9944
 3729TIP3    H232603   4.220   1.842   2.815 -1.0696 -0.5634 -1.6595
 3730TIP3   OH232604   5.464   0.975   6.038 -0.5316 -0.4118  0.5146
 3730TIP3    H132605   5.551   0.957   6.074 -0.1360  1.5720  0.6643
 3730TIP3    H232606   5.414   1.010   6.112 -0.6944  0.7342 -0.1260
 3731TIP3   OH232607   0.784   2.573  13.944 -0.0628  0.2560 -0.7132
 3731TIP3    H132608   0.879   2.585  13.954 -0.1221 -0.2955  0.7203
 3731TIP3    H232609   0.751   2.565  14.034 -1.7346  2.3011 -1.0759
 3732TIP3   OH232610   1.478   6.443  13.372  0.0381 -0.0725  0.7168
 3732TIP3    H132611   1.453   6.425  13.463  2.1895  1.5378  1.7187
 3732TIP3    H232612   1.407   6.498  13.338 -1.3982 -1.6747  0.9434
 3733TIP3   OH232613   4.422   1.882  11.178  0.2552  0.0938 -0.0643
 3733TIP3    H132614   4.497   1.855  11.125  0.2253  1.5672 -0.9155
 3733TIP3    H232615   4.398   1.803  11.227  2.4014 -0.4063  0.3129
 3734TIP3   OH232616   5.468   1.189   0.001 -0.8895  0.4656  0.2977
 3734TIP3    H132617   5.532   1.138  -0.048 -0.9513 -0.0737  0.7639
 3734TIP3    H232618   5.403   1.216  -0.065 -0.7731  0.0685  0.0171
 3735TIP3   OH232619   3.845   3.076  14.143  0.4950  0.1723 -0.2354
 3735TIP3    H132620   3.930   3.108  14.172  1.2518 -0.1685 -1.9858
 3735TIP3    H232621   3.846   2.983  14.166  0.3113  0.3074  0.3403
 3736TIP3   OH232622   4.792   4.117  14.949  0.1150  0.2264  0.0075
 3736TIP3    H132623   4.875   4.163  14.964 -0.1165  0.6449  0.0254
 3736TIP3    H232624   4.727   4.168  14.998  0.0064 -0.6769  0.8335
 3737TIP3   OH232625   2.024   3.637  10.711  0.0597 -0.6448  0.1701
 3737TIP3    H132626   2.094   3.639  10.645  0.0080 -0.1139  0.1261
 3737TIP3    H232627   2.022   3.546  10.741  1.2186 -0.5259  0.6464
 3738TIP3   OH232628   3.463   6.031   5.428  0.5519 -0.7328 -0.4405
 3738TIP3    H132629   3.412   6.038   5.347 -1.4782  1.9302  0.9332
 3738TIP3    H232630   3.407   5.981   5.487  1.5112 -1.6341 -0.2683
 3739TIP3   OH232631   0.546   2.510   4.610 -0.1735 -0.0512 -0.1701
 3739TIP3    H132632   0.526   2.515   4.516  1.3687 -0.1497 -0.5253
 3739TIP3    H232633   0.540   2.417   4.631 -0.9481  0.0153 -0.0525
 3740TIP3   OH232634   0.757   0.982   1.660  0.4549 -0.1288  0.2885
 3740TIP3    H132635   0.772   0.902   1.711  0.8311 -1.0263 -1.1591
 3740TIP3    H232636   0.666   1.005   1.677  0.3419 -0.8682  0.7261
 3741TIP3   OH232637   3.505   0.456  11.354 -0.1819 -0.1375 -0.3066
 3741TIP3    H132638   3.563   0.414  11.290 -0.8133 -1.3795 -0.1017
 3741TIP3    H232639   3.562   0.514  11.404  0.5545 -0.0850 -1.1886
 3742TIP3   OH232640   5.149   1.032  13.141  0.2554  0.2998  0.6374
 3742TIP3    H132641   5.209   0.960  13.159  1.6831  1.1174 -0.6853
 3742TIP3    H232642   5.142   1.035  13.046 -0.9675  0.9858  0.7228
 3743TIP3   OH232643   0.571   2.316   4.977  0.3358  0.6644  0.1269
 3743TIP3    H132644   0.634   2.388   4.969  0.2105  0.8283  0.6093
 3743TIP3    H232645   0.560   2.304   5.071 -0.9608  1.1817  0.0572
 3744TIP3   OH232646   3.527   0.962   3.654 -0.4136  0.2504  0.3377
 3744TIP3    H132647   3.550   0.958   3.747  1.0506  0.8729  0.0428
 3744TIP3    H232648   3.467   1.035   3.647  0.2191  0.8172  0.6779
 3745TIP3   OH232649   5.320   2.037  14.022 -0.3647  0.4590  0.5251
 3745TIP3    H132650   5.414   2.019  14.021 -0.6905 -1.4809 -0.9447
 3745TIP3    H232651   5.303   2.068  14.110  1.7025  1.2192  0.7202
 3746TIP3   OH232652   2.154   2.552   5.638 -0.5961 -0.1987  0.1283
 3746TIP3    H132653   2.192   2.529   5.553 -1.8176  0.6288 -0.6817
 3746TIP3    H232654   2.222   2.603   5.682 -0.6593  1.1602 -1.2488
 3747TIP3   OH232655   0.160   0.233   1.619  0.2100 -0.3475 -0.4485
 3747TIP3    H132656   0.254   0.222   1.604  0.2418  1.7261 -2.1622
 3747TIP3    H232657   0.154   0.283   1.700  0.5273 -1.1944  0.1096
 3748TIP3   OH232658   4.374   2.688   4.156  0.1534 -0.3879 -0.0540
 3748TIP3    H132659   4.431   2.611   4.159  2.6648  1.2563 -1.7179
 3748TIP3    H232660   4.360   2.705   4.063  1.8043  2.5288  0.1186
 3749TIP3   OH232661   3.616   1.485   1.682  0.2561 -0.4479 -0.1995
 3749TIP3    H132662   3.618   1.436   1.765 -0.4314 -0.3364 -0.1094
 3749TIP3    H232663   3.695   1.458   1.636  0.5187 -0.7019  0.3883
 3750TIP3   OH232664   3.378   2.966   1.860  0.1671  0.0899  0.3940
 3750TIP3    H132665   3.415   2.902   1.800  1.0398  0.9607 -0.0271
 3750TIP3    H232666   3.287   2.938   1.872  0.3352 -0.8061 -0.3406
 3751TIP3   OH232667   5.548   0.231  14.759 -0.0542 -0.1423  0.1339
 3751TIP3    H132668   5.585   0.216  14.672  1.2662  1.4669  0.3674
 3751TIP3    H232669   5.464   0.274  14.742  0.2653  0.2992 -0.3661
 3752TIP3   OH232670   3.326   2.254  16.611 -0.3851  0.8027  0.1592
 3752TIP3    H132671   3.343   2.254  16.705 -0.6530 -0.1870  0.2215
 3752TIP3    H232672   3.315   2.161  16.589  0.8130  0.9220 -1.0677
 3753TIP3   OH232673   0.135   2.988   2.647 -0.0412  0.9431 -0.0297
 3753TIP3    H132674   0.133   3.004   2.742 -0.7157  1.1041 -0.0665
 3753TIP3    H232675   0.044   2.991   2.621 -0.0085 -0.7190 -0.4214
 3754TIP3   OH232676   4.000   0.674  14.938 -0.0282  0.0288 -0.6964
 3754TIP3    H132677   3.964   0.739  14.877  0.3798  0.6194 -0.3098
 3754TIP3    H232678   3.962   0.591  14.909  0.4232  0.2450 -1.9674
 3755TIP3   OH232679   2.739   1.203  11.363  0.3480 -0.0593  0.1760
 3755TIP3    H132680   2.712   1.289  11.332 -2.7321 -1.0457 -0.1698
 3755TIP3    H232681   2.783   1.163  11.288 -2.5427 -0.5246 -1.3871
 3756TIP3   OH232682   5.792   4.042  12.208  0.4774  0.2414 -0.0902
 3756TIP3    H132683   5.780   3.995  12.125  0.4796 -0.2022  0.1540
 3756TIP3    H232684   5.705   4.044  12.248  1.0551 -3.0800  1.7354
 3757TIP3   OH232685   2.656   3.519   5.037 -0.7651  0.2496 -0.2702
 3757TIP3    H132686   2.705   3.588   5.082 -0.3382  0.0015 -0.3422
 3757TIP3    H232687   2.718   3.486   4.971 -1.3307  0.5129 -0.9414
 3758TIP3   OH232688   2.486   0.088   5.794 -0.0254  0.2321 -0.2807
 3758TIP3    H132689   2.480  -0.007   5.802  1.2149  0.2605  1.6263
 3758TIP3    H232690   2.466   0.121   5.882  1.1783  1.6173 -0.4897
 3759TIP3   OH232691   5.253   0.787   4.824 -0.0045  0.4887  0.4695
 3759TIP3    H132692   5.182   0.768   4.885  0.4704 -2.0015  0.3723
 3759TIP3    H232693   5.314   0.714   4.835  2.4818  2.4384  0.4174
 3760TIP3   OH232694   2.623   5.618   2.157  0.3346 -0.0345 -0.2493
 3760TIP3    H132695   2.642   5.700   2.111  0.1236  0.3951  0.4196
 3760TIP3    H232696   2.707   5.573   2.160  0.4375  0.1172 -0.6853
 3761TIP3   OH232697   4.885   1.296   1.939 -0.0732  0.3458 -0.5932
 3761TIP3    H132698   4.969   1.333   1.914  0.6673 -0.3636  0.7353
 3761TIP3    H232699   4.835   1.370   1.974  1.2194  0.2470  1.6156
 3762TIP3   OH232700   4.147   6.374   5.568  0.0528 -0.4440 -0.3738
 3762TIP3    H132701   4.161   6.280   5.572  0.1522 -0.4149  0.0268
 3762TIP3    H232702   4.174   6.399   5.479  1.4573 -0.5729 -0.0141
 3763TIP3   OH232703   2.139   3.579   5.252  0.0162  0.0321  0.1095
 3763TIP3    H132704   2.215   3.593   5.196 -0.2717 -1.6070 -0.7498
 3763TIP3    H232705   2.076   3.534   5.196 -1.3170  0.7331  1.0162
 3764TIP3   OH232706   5.871   0.211  11.945 -0.7082 -0.1367  0.6992
 3764TIP3    H132707   5.937   0.151  11.909 -1.0926 -1.1984  1.6956
 3764TIP3    H232708   5.805   0.217  11.877 -0.6574 -0.8473  0.5760
 3765TIP3   OH232709   2.760   4.248  14.947  0.1897  0.2581  0.2995
 3765TIP3    H132710   2.679   4.297  14.964  0.0042 -0.3179  1.1252
 3765TIP3    H232711   2.830   4.312  14.960 -0.1093  0.6424  0.0359
 3766TIP3   OH232712   3.463   2.087  12.510 -0.0058  0.2753  0.4299
 3766TIP3    H132713   3.457   2.096  12.605 -0.4042 -1.9127  0.6636
 3766TIP3    H232714   3.541   2.035  12.495 -1.2476 -1.4770 -0.2449
 3767TIP3   OH232715   3.213   5.588  12.944  0.5644  0.0332  0.3778
 3767TIP3    H132716   3.175   5.649  12.880  1.9714  0.0418 -0.4992
 3767TIP3    H232717   3.180   5.502  12.917  1.2706  0.0152 -0.4832
 3768TIP3   OH232718   6.614   0.774  12.481  0.4251  0.2160 -0.1645
 3768TIP3    H132719   6.637   0.683  12.459  2.0086  1.0334 -2.2371
 3768TIP3    H232720   6.522   0.782  12.455  0.5144 -0.5701 -0.7680
 3769TIP3   OH232721   1.536   6.487  12.890  0.6551  0.8870 -0.0152
 3769TIP3    H132722   1.519   6.451  12.977 -0.3027  0.9076 -0.1829
 3769TIP3    H232723   1.629   6.470  12.874  1.3061  2.3993  1.7322
 3770TIP3   OH232724   0.984   2.028  13.388 -0.6203 -0.4606 -0.0337
 3770TIP3    H132725   1.028   2.101  13.343 -0.8484  0.1807  0.7564
 3770TIP3    H232726   0.891   2.044  13.375 -0.7012 -0.0748  0.9399
 3771TIP3   OH232727   2.700   4.135   3.856  0.1060 -0.3164  0.6901
 3771TIP3    H132728   2.619   4.176   3.826  0.1142 -0.5518  0.3399
 3771TIP3    H232729   2.733   4.193   3.925  0.2754  0.4250 -0.0040
 3772TIP3   OH232730   0.949   2.469   1.950  0.4804 -0.2805 -0.3126
 3772TIP3    H132731   0.952   2.480   2.045  1.5133 -0.6500 -0.2889
 3772TIP3    H232732   1.004   2.539   1.916 -1.1237  0.8243 -0.7560
 3773TIP3   OH232733   4.124   5.636   2.946 -0.1111 -0.3685 -0.3561
 3773TIP3    H132734   4.211   5.642   2.985  0.7843  0.2409 -2.2812
 3773TIP3    H232735   4.087   5.724   2.957  1.4738  0.8755 -3.5479
 3774TIP3   OH232736   6.511   4.573   3.270 -0.0599  0.4471 -0.2815
 3774TIP3    H132737   6.562   4.640   3.314  1.0961  0.6405 -1.8347
 3774TIP3    H232738   6.424   4.580   3.309  0.1079  2.6284 -0.1698
 3775TIP3   OH232739   4.436   4.495  14.312  0.4444  0.7290 -0.1880
 3775TIP3    H132740   4.508   4.437  14.336  1.9968  2.6840  0.1683
 3775TIP3    H232741   4.414   4.540  14.394  0.6562  2.0831 -0.8609
 3776TIP3   OH232742   0.205   1.709  14.895 -0.5284 -0.1802  0.5415
 3776TIP3    H132743   0.170   1.727  14.982 -0.9072  0.9706  0.1701
 3776TIP3    H232744   0.220   1.615  14.894  0.0478 -0.1279  2.0564
 3777TIP3   OH232745   5.543   1.858   6.848  0.4641  0.1714 -0.4370
 3777TIP3    H132746   5.488   1.860   6.770 -0.0179  0.3194 -0.0981
 3777TIP3    H232747   5.495   1.802   6.909 -0.1192  1.6047  0.4558
 3778TIP3   OH232748   0.216   4.221  16.676 -0.7179  0.4814  0.4338
 3778TIP3    H132749   0.185   4.294  16.731  2.1893  1.7419  0.5377
 3778TIP3    H232750   0.280   4.260  16.618  1.1314 -2.0207  0.6442
 3779TIP3   OH232751   5.297   3.036   0.321 -1.0508  0.3690 -0.1078
 3779TIP3    H132752   5.376   3.019   0.373 -0.8915  1.6505  0.1028
 3779TIP3    H232753   5.264   2.949   0.299  0.7801 -0.2154 -0.7501
 3780TIP3   OH232754   6.741   1.907   5.424 -0.3954  0.6810  0.7469
 3780TIP3    H132755   6.683   1.915   5.500 -0.9040  0.3932  0.3984
 3780TIP3    H232756   6.752   1.813   5.412 -0.5389  0.7182  0.3047
 3781TIP3   OH232757   6.009   2.276   4.171 -0.2588  0.2767  0.0429
 3781TIP3    H132758   6.062   2.296   4.248  0.2912 -1.0409  0.0258
 3781TIP3    H232759   6.067   2.291   4.097 -0.2266 -0.2033 -0.0281
 3782TIP3   OH232760   4.629   3.569   5.347 -0.0066  0.3798  0.2335
 3782TIP3    H132761   4.681   3.646   5.371 -0.6219  1.1849 -0.8646
 3782TIP3    H232762   4.538   3.597   5.362 -0.2625  0.0606 -0.6592
 3783TIP3   OH232763   4.137   6.222   3.866 -0.8336  0.7657 -0.1052
 3783TIP3    H132764   4.135   6.303   3.916  1.9397 -0.0195  1.5144
 3783TIP3    H232765   4.084   6.161   3.916  0.5624  0.4498  1.0350
 3784TIP3   OH232766   6.075   1.488  11.376 -0.3713  0.2003 -0.5829
 3784TIP3    H132767   6.112   1.570  11.343 -1.6774  0.9424 -0.2536
 3784TIP3    H232768   6.019   1.514  11.449  0.4345 -1.1561  0.5793
 3785TIP3   OH232769   0.370   2.703  12.529 -0.1003  0.3656  0.7386
 3785TIP3    H132770   0.448   2.713  12.475 -0.6497 -2.4003 -0.7515
 3785TIP3    H232771   0.393   2.743  12.613  2.7594  0.0045  0.2226
 3786TIP3   OH232772   3.599   0.276  11.595  0.3016 -0.1893  0.0712
 3786TIP3    H132773   3.668   0.269  11.528  0.5453 -4.3148  0.4681
 3786TIP3    H232774   3.519   0.292  11.545  0.7336 -1.4373 -1.0769
 3787TIP3   OH232775   0.909   0.788  17.156 -0.7002 -0.7381 -0.5149
 3787TIP3    H132776   0.997   0.811  17.127 -0.2688 -1.5148  0.1376
 3787TIP3    H232777   0.873   0.870  17.190  0.0635 -0.5750 -0.0778
 3788TIP3   OH232778   1.130   6.295   3.769  0.2760  0.4095 -0.0238
 3788TIP3    H132779   1.097   6.375   3.809 -0.1308  0.8193 -1.1381
 3788TIP3    H232780   1.073   6.281   3.694  0.8949 -0.4451 -0.3443
 3789TIP3   OH232781   5.473   5.210   4.210  0.7080 -0.1854 -0.2766
 3789TIP3    H132782   5.460   5.304   4.206 -0.3236 -0.3588 -1.3876
 3789TIP3    H232783   5.522   5.196   4.292 -2.2928  0.9907  1.9085
 3790TIP3   OH232784   0.422   1.553   4.514 -0.4399  0.1269 -0.0357
 3790TIP3    H132785   0.368   1.550   4.435  1.0250 -1.6751 -1.0529
 3790TIP3    H232786   0.508   1.581   4.484 -0.1305  0.5002  1.1253
 3791TIP3   OH232787   0.664   4.908  14.625 -0.0886 -0.1318 -0.1055
 3791TIP3    H132788   0.663   4.824  14.579  0.3131 -0.2644  0.1198
 3791TIP3    H232789   0.605   4.964  14.575 -0.1721 -0.4766 -0.3944
 3792TIP3   OH232790   4.664   5.791  17.146 -0.4459 -0.5754  0.6625
 3792TIP3    H132791   4.604   5.862  17.171  1.8348  1.8344 -0.3070
 3792TIP3    H232792   4.624   5.754  17.067 -1.4691 -0.0674  0.9199
 3793TIP3   OH232793   4.856   2.606  12.193  0.0767  0.0068  0.0496
 3793TIP3    H132794   4.792   2.646  12.134  1.3671  1.3338 -0.5200
 3793TIP3    H232795   4.934   2.594  12.139  0.2085 -2.0089  0.6080
 3794TIP3   OH232796   6.211   2.613  12.253 -0.7061 -0.2540  0.2212
 3794TIP3    H132797   6.154   2.581  12.183 -0.1346  1.8940 -1.3413
 3794TIP3    H232798   6.295   2.572  12.235 -0.5602  0.2907 -0.3931
 3795TIP3   OH232799   3.235   2.176  12.868 -0.1382 -0.3834 -0.0784
 3795TIP3    H132800   3.192   2.247  12.822 -2.3229 -3.2273 -2.8465
 3795TIP3    H232801   3.242   2.105  12.804  2.5246 -2.5132  2.2613
 3796TIP3   OH232802   5.916   2.910  15.380 -0.1596 -0.3379 -0.5159
 3796TIP3    H132803   5.993   2.862  15.411  0.4147  1.6713  1.4312
 3796TIP3    H232804   5.845   2.881  15.437 -0.1523 -0.0248 -0.3440
 3797TIP3   OH232805   1.185   3.860  11.973  0.6940 -0.6836 -0.3354
 3797TIP3    H132806   1.278   3.848  11.991  0.6534 -0.9022 -0.2642
 3797TIP3    H232807   1.146   3.774  11.993  0.3703 -0.3868  0.3365
 3798TIP3   OH232808   2.788   3.806  11.831  0.8306 -0.1268  0.4378
 3798TIP3    H132809   2.796   3.885  11.884  1.3823  0.4609 -0.4998
 3798TIP3    H232810   2.703   3.814  11.788  1.7467  1.0016 -1.2621
 3799TIP3   OH232811   2.753   4.611  15.526  0.4026  0.5624  0.3506
 3799TIP3    H132812   2.793   4.601  15.612  1.8205  1.4825 -0.1586
 3799TIP3    H232813   2.779   4.532  15.478 -1.6625 -0.6948  1.1922
 3800TIP3   OH232814   4.712   2.370  12.133  0.4517 -0.5804 -0.4200
 3800TIP3    H132815   4.770   2.433  12.176 -0.4660 -0.3449  0.5178
 3800TIP3    H232816   4.751   2.285  12.153  0.7145 -0.4027 -0.1629
 3801TIP3   OH232817   1.511   6.730  16.067 -0.5972  0.1936 -0.2086
 3801TIP3    H132818   1.604   6.707  16.061 -0.9503 -1.2944 -0.4177
 3801TIP3    H232819   1.511   6.824  16.082  0.9656  0.1134  0.5590
 3802TIP3   OH232820   1.151   5.078   5.840  0.3776  0.0415  0.0250
 3802TIP3    H132821   1.180   5.144   5.777  0.9222 -0.0942  0.1260
 3802TIP3    H232822   1.223   5.014   5.842 -0.6226 -1.1624 -0.9227
 3803TIP3   OH232823   0.140   6.719  12.245  0.3047  0.2373 -0.2903
 3803TIP3    H132824   0.147   6.646  12.307  0.2049  2.4485  2.5762
 3803TIP3    H232825   0.046   6.734  12.236  0.3079 -0.3235 -1.3461
 3804TIP3   OH232826   5.415   6.374  15.383  0.0999  0.4300 -0.2932
 3804TIP3    H132827   5.412   6.377  15.288 -0.0069 -0.0886 -0.3096
 3804TIP3    H232828   5.471   6.447  15.408  2.4440 -1.0722 -0.8951
 3805TIP3   OH232829   0.436   4.401   5.379 -0.2863  0.3648 -0.4569
 3805TIP3    H132830   0.473   4.378   5.294 -0.7899  0.8489 -0.8102
 3805TIP3    H232831   0.411   4.492   5.371  1.2186  0.9454  0.7605
 3806TIP3   OH232832   3.540   5.236  10.891  0.1475 -0.2005  0.6748
 3806TIP3    H132833   3.620   5.276  10.926 -0.2629  0.4677  0.8556
 3806TIP3    H232834   3.506   5.301  10.829 -0.6703 -0.1441  1.1768
 3807TIP3   OH232835   5.963   5.011  11.480 -0.4472 -0.0986 -0.4000
 3807TIP3    H132836   5.961   4.935  11.421 -2.9475 -2.8162  2.7472
 3807TIP3    H232837   6.039   4.996  11.536 -1.1278 -0.5625  0.4358
 3808TIP3   OH232838   4.574   2.712  15.178 -0.2407  0.1812  0.5806
 3808TIP3    H132839   4.533   2.703  15.265  0.2467  0.1792  0.8129
 3808TIP3    H232840   4.647   2.771  15.193 -0.1738  0.2019  0.1604
 3809TIP3   OH232841   4.812   0.485   6.885  0.3383 -0.3428  0.6441
 3809TIP3    H132842   4.752   0.465   6.813  0.9258 -0.5685  0.2168
 3809TIP3    H232843   4.781   0.570   6.918  0.2101 -0.1233 -0.0262
 3810TIP3   OH232844   6.049   1.407  13.742  0.3882 -0.0326  0.1593
 3810TIP3    H132845   6.026   1.461  13.817 -2.0995 -1.2971  0.4189
 3810TIP3    H232846   6.071   1.322  13.780 -1.4990 -0.8671 -0.4946
 3811TIP3   OH232847   3.528   3.795   2.882 -0.2344 -0.0895  0.1717
 3811TIP3    H132848   3.608   3.828   2.924 -1.4258  1.3708  1.4154
 3811TIP3    H232849   3.525   3.703   2.906  1.0985 -0.1771  0.0707
 3812TIP3   OH232850   5.803   1.573   6.080 -0.4157 -0.5936  0.3312
 3812TIP3    H132851   5.831   1.663   6.065 -1.1890  0.0666  2.4239
 3812TIP3    H232852   5.862   1.520   6.026  0.7260  1.0870 -0.1602
 3813TIP3   OH232853   4.383   6.627  13.811  0.3028 -0.2821  0.1756
 3813TIP3    H132854   4.328   6.694  13.770  1.0281 -0.9511 -2.0500
 3813TIP3    H232855   4.333   6.546  13.800  0.0293 -0.3355  1.6549
 3814TIP3   OH232856   2.416   4.680  17.219  0.4805  0.5807  0.2543
 3814TIP3    H132857   2.400   4.764  17.261 -0.6416  0.2317  0.5628
 3814TIP3    H232858   2.395   4.695  17.127  2.2568  1.1548 -0.1075
 3815TIP3   OH232859   6.098   6.061   5.666 -0.1995 -0.4496 -0.0690
 3815TIP3    H132860   6.163   6.010   5.618  0.1353 -0.0637 -0.0306
 3815TIP3    H232861   6.099   6.024   5.755  1.7995  1.1477  0.6608
 3816TIP3   OH232862   5.578   6.023  12.275 -0.0442 -0.1210  0.2154
 3816TIP3    H132863   5.548   6.097  12.328  1.8649  0.5975  0.3523
 3816TIP3    H232864   5.671   6.015  12.294  0.1077 -1.6186 -0.9491
 3817TIP3   OH232865   1.801   3.266   4.626 -0.0037  0.1558  0.0152
 3817TIP3    H132866   1.893   3.284   4.642  0.4142 -1.9580  0.2460
 3817TIP3    H232867   1.765   3.247   4.713  0.0837 -2.0591 -0.3995
 3818TIP3   OH232868   6.562   3.987   0.771 -0.3026 -0.2273  0.2710
 3818TIP3    H132869   6.605   4.058   0.818 -2.2954  0.5635  1.0060
 3818TIP3    H232870   6.538   3.924   0.839  0.9350 -1.3756 -0.3058
 3819TIP3   OH232871   1.782   1.242   3.358  0.0952 -0.1969 -0.0397
 3819TIP3    H132872   1.818   1.178   3.420  1.4215 -0.2834 -0.8511
 3819TIP3    H232873   1.844   1.315   3.361  0.0609 -0.1059 -1.0792
 3820TIP3   OH232874   0.297   2.923  14.980 -0.8512  0.3518  0.2685
 3820TIP3    H132875   0.378   2.973  14.970 -1.2090  1.2449  1.5444
 3820TIP3    H232876   0.230   2.990  14.996 -1.7484 -0.4061 -0.2416
 3821TIP3   OH232877   1.007   4.448   3.764 -0.1305  0.1665  0.6936
 3821TIP3    H132878   1.080   4.406   3.811  0.5392  0.7818  0.2225
 3821TIP3    H232879   0.970   4.509   3.828  2.0431  2.4895 -0.1011
 3822TIP3   OH232880   2.470   3.022   3.981 -0.9743  0.1629  0.4944
 3822TIP3    H132881   2.427   2.972   3.911 -0.9789  1.0372 -0.1415
 3822TIP3    H232882   2.502   3.101   3.938  0.8662 -0.2281  1.0567
 3823TIP3   OH232883   1.517   1.782  13.130 -0.1192 -0.4666 -0.3387
 3823TIP3    H132884   1.595   1.758  13.081  0.6141 -1.8332  1.3919
 3823TIP3    H232885   1.512   1.877  13.122 -0.0299 -0.6262 -2.9689
 3824TIP3   OH232886   0.847   6.451   1.439 -0.3675 -0.4623 -0.1414
 3824TIP3    H132887   0.843   6.541   1.469 -1.5734 -0.0855 -1.3357
 3824TIP3    H232888   0.869   6.458   1.346  3.5104 -1.5790  0.4817
 3825TIP3   OH232889   3.126   6.185   3.815 -0.2804  0.4349  0.4620
 3825TIP3    H132890   3.181   6.200   3.738 -0.0957 -1.8693  0.0746
 3825TIP3    H232891   3.088   6.271   3.834 -0.8229  0.9808 -2.5598
 3826TIP3   OH232892   1.905   3.009  13.601 -0.0514  0.2261 -0.0971
 3826TIP3    H132893   1.870   3.056  13.677 -0.9669  1.2285 -1.0937
 3826TIP3    H232894   1.982   3.059  13.575  0.7346 -0.5699  0.6088
 3827TIP3   OH232895   2.952   3.177  16.369 -0.2693 -0.0003  0.6989
 3827TIP3    H132896   2.941   3.227  16.450  0.9852  1.2946  0.1173
 3827TIP3    H232897   2.901   3.225  16.304  1.1969  0.7441  0.0626
 3828TIP3   OH232898   3.944   3.397   3.509 -0.3443 -0.3951 -0.6560
 3828TIP3    H132899   4.018   3.432   3.557 -0.4928  0.5449 -1.1040
 3828TIP3    H232900   3.881   3.469   3.504 -0.5279 -0.6112 -1.8568
 3829TIP3   OH232901   1.860   6.272  11.541 -0.7064  0.1710  0.3217
 3829TIP3    H132902   1.853   6.271  11.445  1.0074 -0.5011  0.1685
 3829TIP3    H232903   1.801   6.203  11.570 -1.7241  0.8016 -0.1965
 3830TIP3   OH232904   2.521   3.488  14.510  0.0018  0.7680  0.1175
 3830TIP3    H132905   2.484   3.563  14.462  0.6348  0.6553 -0.5479
 3830TIP3    H232906   2.453   3.466  14.574  0.5773  3.1465  1.6623
 3831TIP3   OH232907   2.414   4.686   3.219  0.3659 -0.4269 -0.0786
 3831TIP3    H132908   2.461   4.732   3.149 -2.0426  0.2784 -1.3593
 3831TIP3    H232909   2.378   4.756   3.273 -3.5615 -0.5430 -2.1905
 3832TIP3   OH232910   0.907   6.076   4.504 -0.2413  0.3635  0.4486
 3832TIP3    H132911   0.947   6.143   4.559 -0.7418  0.6038  0.5188
 3832TIP3    H232912   0.935   5.993   4.543 -0.8304  0.5347  1.2377
 3833TIP3   OH232913   1.366   2.308   5.127 -0.5270  0.3906 -0.1152
 3833TIP3    H132914   1.357   2.351   5.041 -0.1436  0.5437 -0.0778
 3833TIP3    H232915   1.318   2.365   5.187 -0.7480  0.3128 -0.2155
 3834TIP3   OH232916   2.930   0.522   0.940 -0.1638 -0.0186  0.5785
 3834TIP3    H132917   2.871   0.562   0.876 -0.1497  0.6261  0.9563
 3834TIP3    H232918   2.970   0.449   0.894  0.1164  0.6568 -0.2805
 3835TIP3   OH232919   3.099   1.252   1.842 -0.3130  0.3687 -0.5425
 3835TIP3    H132920   3.080   1.162   1.866  1.2747  0.0813 -0.2339
 3835TIP3    H232921   3.056   1.265   1.758  1.0962 -1.3303 -1.5749
 3836TIP3   OH232922   0.678   2.655   5.533  0.0352  0.1370 -0.6514
 3836TIP3    H132923   0.664   2.618   5.446 -2.2505  0.4907 -0.4999
 3836TIP3    H232924   0.721   2.739   5.517 -2.1244  1.1319 -1.6628
 3837TIP3   OH232925   4.431   4.929  14.541 -0.1195 -0.8002 -0.2920
 3837TIP3    H132926   4.515   4.968  14.516  0.0435 -1.3572 -0.6130
 3837TIP3    H232927   4.368   5.001  14.532  0.1979 -0.5820 -0.7946
 3838TIP3   OH232928   3.699   3.535  12.839 -0.0516  0.2671 -0.2218
 3838TIP3    H132929   3.636   3.546  12.768  1.4027  1.8788 -1.3426
 3838TIP3    H232930   3.647   3.502  12.912 -2.2161  1.6407 -1.0434
 3839TIP3   OH232931   2.898   2.005  11.952 -0.2232  0.1109 -0.1105
 3839TIP3    H132932   2.886   1.911  11.934 -0.0540  0.0143  0.2689
 3839TIP3    H232933   2.827   2.048  11.904  1.2033  0.0295 -2.4742
 3840TIP3   OH232934   1.454   3.225   0.628 -0.1792  0.1724 -0.6476
 3840TIP3    H132935   1.420   3.292   0.688  2.2063  1.1688 -0.2869
 3840TIP3    H232936   1.544   3.210   0.658 -0.5256 -3.1089 -0.8531
 3841TIP3   OH232937   5.288   3.675   6.273 -0.5554  0.2171  0.7400
 3841TIP3    H132938   5.211   3.623   6.294 -0.2009 -0.6632 -0.0452
 3841TIP3    H232939   5.351   3.654   6.342 -0.0177 -1.3006 -0.1652
 3842TIP3   OH232940   5.598   1.291   0.835 -0.2392 -0.5083 -0.2532
 3842TIP3    H132941   5.594   1.203   0.796 -0.7071 -0.9834  0.8234
 3842TIP3    H232942   5.658   1.340   0.779  1.4199 -2.0262  0.1093
 3843TIP3   OH232943   5.523   2.398   3.235  0.2986  0.0133  0.5025
 3843TIP3    H132944   5.617   2.413   3.242  0.0066  1.4059  2.0822
 3843TIP3    H232945   5.515   2.317   3.185  2.3644 -0.6393  1.1361
 3844TIP3   OH232946   5.424   3.825  12.046  0.0444  0.3011 -0.1505
 3844TIP3    H132947   5.330   3.806  12.056  0.3146 -0.2152  2.0675
 3844TIP3    H232948   5.429   3.920  12.035 -0.7097  0.4254  0.5010
 3845TIP3   OH232949   5.675   1.231  15.329 -0.5490  0.2021  0.2530
 3845TIP3    H132950   5.664   1.276  15.413 -1.0908  1.7809 -0.6195
 3845TIP3    H232951   5.641   1.293  15.264 -0.6041 -1.1777 -1.0961
 3846TIP3   OH232952   1.647   2.162   0.687 -0.0495 -0.3304 -0.1245
 3846TIP3    H132953   1.731   2.206   0.699  0.1265 -0.4593 -0.8256
 3846TIP3    H232954   1.607   2.208   0.613 -0.9442  0.2416  0.6994
 3847TIP3   OH232955   4.086   3.630  15.474 -0.5808  0.3942  0.0284
 3847TIP3    H132956   4.097   3.594  15.562  1.6010  2.2333  0.6076
 3847TIP3    H232957   4.101   3.555  15.416  0.1021 -0.4194  1.2078
 3848TIP3   OH232958   4.202   5.552  14.930  0.1261 -0.0785  0.1118
 3848TIP3    H132959   4.181   5.644  14.947 -0.6535 -0.2942  0.3612
 3848TIP3    H232960   4.297   5.550  14.921 -0.0144  1.3156 -3.2589
 3849TIP3   OH232961   2.938   0.853   5.263 -0.6718 -0.0969 -0.1936
 3849TIP3    H132962   2.878   0.805   5.320 -0.1561 -0.9708 -0.3524
 3849TIP3    H232963   2.980   0.917   5.320  1.4425 -2.3660  1.0312
 3850TIP3   OH232964   1.137   3.563   5.812  0.3109 -0.4841 -0.0632
 3850TIP3    H132965   1.059   3.583   5.863  0.0542 -0.4061 -0.4805
 3850TIP3    H232966   1.155   3.644   5.763 -1.4042 -1.5638 -2.6558
 3851TIP3   OH232967   2.443   3.922  17.222  0.1404 -0.0170 -0.1573
 3851TIP3    H132968   2.504   3.868  17.272 -1.3822 -0.6493  1.1530
 3851TIP3    H232969   2.365   3.925  17.278 -0.8664  1.0769 -1.5731
 3852TIP3   OH232970   2.121   3.330   4.927  0.0695 -1.1354 -0.1650
 3852TIP3    H132971   2.122   3.425   4.926 -0.2869 -1.1272 -0.1614
 3852TIP3    H232972   2.067   3.305   4.851  2.5033 -1.4214 -1.9106
 3853TIP3   OH232973   4.462   2.928  14.360 -0.1848 -0.5973  0.1284
 3853TIP3    H132974   4.466   2.949  14.267 -0.1395  0.0776  0.2747
 3853TIP3    H232975   4.443   3.012  14.402  0.8914 -0.6850  0.8206
 3854TIP3   OH232976   6.092   0.868   6.800 -0.2252 -0.2530  0.3381
 3854TIP3    H132977   6.090   0.929   6.874  0.2187 -0.9789  0.9711
 3854TIP3    H232978   6.174   0.888   6.755 -0.7829  0.5974 -0.3306
 3855TIP3   OH232979   4.173   2.228   0.935  0.0217  0.5569 -0.7927
 3855TIP3    H132980   4.152   2.292   1.003  0.9674 -0.3427  0.3964
 3855TIP3    H232981   4.156   2.143   0.976 -0.3458  0.0059 -2.0276
 3856TIP3   OH232982   1.696   4.251   4.637 -0.5612 -1.1589 -0.3865
 3856TIP3    H132983   1.709   4.261   4.543  0.3856  1.7209 -0.0158
 3856TIP3    H232984   1.716   4.336   4.674 -0.1518 -2.4048  2.5468
 3857TIP3   OH232985   6.418   5.981   1.295  0.3308  0.6145  0.2768
 3857TIP3    H132986   6.491   6.043   1.297  0.5788  0.4532 -1.5971
 3857TIP3    H232987   6.459   5.896   1.308  0.7250  0.3908 -1.9956
 3858TIP3   OH232988   2.346   1.347  14.304 -0.2954  0.2286  0.6927
 3858TIP3    H132989   2.341   1.253  14.320  0.2727  0.0974  0.1788
 3858TIP3    H232990   2.356   1.354  14.209  1.5444  0.6901  0.8662
 3859TIP3   OH232991   2.799   3.620  15.598  0.0935 -0.1970  0.2625
 3859TIP3    H132992   2.882   3.580  15.574 -0.4572 -1.0576 -0.2437
 3859TIP3    H232993   2.779   3.679  15.526 -0.8769 -1.7535 -0.8094
 3860TIP3   OH232994   4.504   6.191   0.965  0.0672 -0.0528 -0.4943
 3860TIP3    H132995   4.572   6.255   0.989 -0.2328  0.5201 -1.1241
 3860TIP3    H232996   4.553   6.113   0.939  0.4644  0.1341 -0.3294
 3861TIP3   OH232997   2.775   1.208   5.119 -0.4998  0.1162 -0.0285
 3861TIP3    H132998   2.773   1.124   5.074 -0.6879  0.8906 -1.5295
 3861TIP3    H232999   2.865   1.216   5.151 -0.5182 -0.7029  0.2407
 3862TIP3   OH233000   0.442   0.433  17.288  0.0588  0.0268  0.0308
 3862TIP3    H133001   0.406   0.519  17.267  2.5340  1.0125 -0.4849
 3862TIP3    H233002   0.439   0.384  17.206 -1.1108 -0.3519  0.2670
 3863TIP3   OH233003   0.263   6.645  11.036 -0.0309  0.2917  0.2744
 3863TIP3    H133004   0.278   6.609  10.949  0.9591 -0.3537  0.6862
 3863TIP3    H233005   0.325   6.718  11.042 -1.1697  1.3266 -0.1023
 3864TIP3   OH233006   1.219   5.524   1.345  0.1386  0.2451 -0.0080
 3864TIP3    H133007   1.301   5.540   1.299  0.4945 -3.5729 -1.0853
 3864TIP3    H233008   1.244   5.489   1.430 -0.4591  1.3051  0.6299
 3865TIP3   OH233009   4.341   3.225   3.160 -0.6293 -0.1684  0.2324
 3865TIP3    H133010   4.323   3.248   3.251  1.4511 -0.8277  0.8721
 3865TIP3    H233011   4.330   3.130   3.156  0.7218 -0.3462  0.2045
 3866TIP3   OH233012   2.812   6.338  12.974 -0.0294 -0.0299 -0.0309
 3866TIP3    H133013   2.878   6.318  13.039  0.4162 -0.1385 -0.5073
 3866TIP3    H233014   2.729   6.324  13.018  0.2520  0.6337  0.7445
 3867TIP3   OH233015   1.603   5.414   6.100 -0.0742  0.1789 -0.1340
 3867TIP3    H133016   1.617   5.328   6.141  1.0788  0.2562 -0.3314
 3867TIP3    H233017   1.650   5.476   6.155  1.7661  0.2477 -1.6583
 3868TIP3   OH233018   6.108   0.107   6.015 -0.1001  0.3970  0.0232
 3868TIP3    H133019   6.134   0.049   6.086 -0.4786  0.1896 -0.0012
 3868TIP3    H233020   6.149   0.069   5.937  0.1516  0.5109  0.1002
 3869TIP3   OH233021   1.262   1.810  13.286  0.5648  0.2347  0.5367
 3869TIP3    H133022   1.185   1.852  13.246  0.4326  2.1249  2.6268
 3869TIP3    H233023   1.319   1.791  13.211 -1.7188 -0.8751 -1.0394
 3870TIP3   OH233024   4.438   3.099  16.954  0.0452 -0.0917  0.0628
 3870TIP3    H133025   4.448   3.194  16.950  1.8435 -0.2600 -0.2422
 3870TIP3    H233026   4.510   3.065  16.902 -1.0493 -1.6299 -0.5356
 3871TIP3   OH233027   0.055   5.796  14.648  0.2857 -0.4863 -0.0911
 3871TIP3    H133028  -0.012   5.831  14.707  0.0078  1.3546 -1.4259
 3871TIP3    H233029   0.034   5.833  14.562  2.4247 -0.6754 -0.7576
 3872TIP3   OH233030   4.312   5.959  15.208  0.6450  0.0012 -0.1125
 3872TIP3    H133031   4.370   6.006  15.148  0.5547  0.1182 -0.1079
 3872TIP3    H233032   4.325   6.002  15.293  0.1716  0.3652 -0.2178
 3873TIP3   OH233033   2.134   6.390  15.873  0.2315  0.2305 -0.3707
 3873TIP3    H133034   2.093   6.474  15.897 -0.2406  0.2822 -1.3160
 3873TIP3    H233035   2.060   6.331  15.859  0.5725 -0.5089  0.7888
 3874TIP3   OH233036   0.911   6.079   6.053  0.5824 -0.2796 -0.1467
 3874TIP3    H133037   0.930   6.040   5.968  0.6604 -0.2757 -0.1314
 3874TIP3    H233038   0.991   6.127   6.075  0.5449 -0.2421 -0.0927
 3875TIP3   OH233039   6.571   1.170   0.534 -0.2323  0.3597 -0.2071
 3875TIP3    H133040   6.493   1.118   0.554 -0.2139  0.9905  1.7035
 3875TIP3    H233041   6.553   1.257   0.569  1.4245  0.4475  0.5431
 3876TIP3   OH233042   3.707   2.043   5.742  0.0842  0.3508  0.4793
 3876TIP3    H133043   3.794   2.075   5.768 -0.2830  0.6752  1.3566
 3876TIP3    H233044   3.653   2.121   5.737 -0.3004  0.0907  0.5108
 3877TIP3   OH233045   1.597   6.519  14.091  0.3492 -0.1106  0.8531
 3877TIP3    H133046   1.554   6.442  14.053  0.0239  0.0181  0.9635
 3877TIP3    H233047   1.690   6.495  14.093  0.0644 -1.2227  2.5549
 3878TIP3   OH233048   5.706   1.584  15.099  0.2564  0.0496 -0.2172
 3878TIP3    H133049   5.757   1.609  15.021 -2.0334  2.1356 -1.1993
 3878TIP3    H233050   5.701   1.665  15.151 -0.9834 -0.4144  0.4255
 3879TIP3   OH233051   1.844   3.010  15.605 -0.0281  0.5406  0.0528
 3879TIP3    H133052   1.830   2.922  15.569  1.0983 -0.1678  1.2786
 3879TIP3    H233053   1.797   3.010  15.688  2.3778  0.0188  1.5132
 3880TIP3   OH233054   1.147   3.663  15.989  0.1713 -0.7749  0.6708
 3880TIP3    H133055   1.131   3.757  15.990  0.2924 -0.7176 -0.8279
 3880TIP3    H233056   1.178   3.644  15.901  0.5047 -2.1716  1.0478
 3881TIP3   OH233057   4.076   2.627  14.194 -0.0109 -0.1872  0.2952
 3881TIP3    H133058   4.043   2.566  14.128  2.0631 -0.5433 -0.4874
 3881TIP3    H233059   4.114   2.571  14.261  1.1346  0.2122 -0.0051
 3882TIP3   OH233060   5.978   0.175  12.526 -0.4886  0.4950  0.0416
 3882TIP3    H133061   6.067   0.139  12.526 -1.5686 -2.6470 -2.2137
 3882TIP3    H233062   5.950   0.169  12.617  1.6863  2.0041  0.8918
 3883TIP3   OH233063   5.990   3.276   1.646 -0.9057  0.1548 -0.3363
 3883TIP3    H133064   5.926   3.206   1.633  0.0964 -1.2239  1.6077
 3883TIP3    H233065   6.036   3.252   1.726 -0.1202  2.7810  0.1190
 3884TIP3   OH233066   0.250   5.517  14.452  0.6320  0.2891 -0.0039
 3884TIP3    H133067   0.333   5.558  14.428  0.7732 -0.2826 -0.5033
 3884TIP3    H233068   0.184   5.569  14.405  0.8625 -0.4562 -1.1821
 3885TIP3   OH233069   0.128   6.328   0.724 -0.0672 -0.5543 -0.1142
 3885TIP3    H133070   0.082   6.370   0.651 -0.3145 -0.3239  0.1713
 3885TIP3    H233071   0.152   6.400   0.782  1.5041 -0.5678 -0.7245
 3886TIP3   OH233072   1.959   3.396   2.756  0.5209 -0.0483 -0.6650
 3886TIP3    H133073   1.959   3.488   2.727 -2.3697  1.0339  2.2006
 3886TIP3    H233074   1.909   3.349   2.690  1.0786  0.6220 -1.5900
 3887TIP3   OH233075   3.352   1.082  12.349 -0.5879 -0.1071  0.5557
 3887TIP3    H133076   3.418   1.033  12.299  0.8937  3.3741 -1.2298
 3887TIP3    H233077   3.292   1.116  12.282 -0.7032  1.6753  1.5151
 3888TIP3   OH233078   4.867   4.244  13.423 -0.3780 -0.8386  0.5609
 3888TIP3    H133079   4.853   4.190  13.501  0.0329  1.5640  2.4526
 3888TIP3    H233080   4.962   4.251  13.416 -0.4000  0.8813  1.3851
 3889TIP3   OH233081   4.547   5.625  13.904  0.0439 -0.1770 -0.6310
 3889TIP3    H133082   4.543   5.715  13.936  0.5132 -0.2572 -0.3455
 3889TIP3    H233083   4.501   5.574  13.970  0.7403 -0.2981 -0.2278
 3890TIP3   OH233084   0.017   2.077   2.716  0.2983 -0.0988 -0.1845
 3890TIP3    H133085   0.091   2.019   2.699  1.5105  0.9205  1.2605
 3890TIP3    H233086   0.050   2.164   2.695 -0.0803  0.4916  1.4774
 3891TIP3   OH233087   4.743   0.826   4.835 -0.3051 -0.2268  0.7006
 3891TIP3    H133088   4.771   0.746   4.790  1.1324 -0.1506  1.4003
 3891TIP3    H233089   4.818   0.885   4.828 -1.4313  1.1942 -0.0294
 3892TIP3   OH233090   2.474   5.067   4.637  0.0924 -0.0518 -0.1385
 3892TIP3    H133091   2.388   5.099   4.611  0.5296  1.2409 -0.0315
 3892TIP3    H233092   2.455   4.990   4.691 -1.0269  0.5648  0.3858
 3893TIP3   OH233093   6.116   1.887  16.086  0.2615  0.4821 -0.0494
 3893TIP3    H133094   6.104   1.976  16.053  1.5323  0.8615  0.4495
 3893TIP3    H233095   6.029   1.860  16.114 -0.0683  1.7655  0.2456
 3894TIP3   OH233096   5.240   1.382   0.537 -0.4565 -0.9611 -0.1041
 3894TIP3    H133097   5.146   1.397   0.550  0.1342  1.9201  1.5061
 3894TIP3    H233098   5.250   1.378   0.442 -2.0913 -0.3046 -0.3448
 3895TIP3   OH233099   0.479   1.160   0.115 -0.3945  0.8388 -0.4632
 3895TIP3    H133100   0.397   1.205   0.135  0.9374  2.0799  2.8696
 3895TIP3    H233101   0.479   1.083   0.171 -0.4677 -0.8117 -2.5896
 3896TIP3   OH233102   5.596   1.790   3.756 -0.2947  0.3804  0.0526
 3896TIP3    H133103   5.513   1.770   3.800 -0.4841 -0.4970 -0.6856
 3896TIP3    H233104   5.663   1.755   3.815 -0.5081 -0.0100  0.0687
 3897TIP3   OH233105   4.530   2.420  13.835 -0.4284  0.0717 -0.5527
 3897TIP3    H133106   4.511   2.377  13.918  0.6026 -0.5151 -0.6011
 3897TIP3    H233107   4.444   2.444  13.800 -0.8723  0.5280  0.7695
 3898TIP3   OH233108   2.038   5.958   3.363  0.0443  0.3278 -0.2939
 3898TIP3    H133109   2.065   5.932   3.275 -1.3758 -1.4944 -0.2331
 3898TIP3    H233110   1.942   5.962   3.359  0.0437  2.5229  0.5869
 3899TIP3   OH233111   5.397   3.082  12.651  0.5164 -0.4034  0.1501
 3899TIP3    H133112   5.404   3.009  12.713  0.2815  0.5757  1.3906
 3899TIP3    H233113   5.487   3.101  12.626  0.6695 -0.4174  0.6815
 3900TIP3   OH233114   0.170   5.797   2.235 -0.4994  0.1808  0.2496
 3900TIP3    H133115   0.253   5.750   2.233  0.0227  1.0299 -2.9090
 3900TIP3    H233116   0.194   5.885   2.264  0.4849  1.4450 -3.7964
 3901TIP3   OH233117   4.399   5.434   0.105 -0.0486 -0.1619  0.2115
 3901TIP3    H133118   4.481   5.451   0.057 -1.0456  0.9944 -1.1585
 3901TIP3    H233119   4.355   5.518   0.108 -1.1122 -0.7301  1.1157
 3902TIP3   OH233120   6.244   3.099   1.487 -0.5150  0.2292  0.1016
 3902TIP3    H133121   6.257   3.026   1.547  1.2448 -0.0826 -0.6022
 3902TIP3    H233122   6.149   3.109   1.481 -0.7469 -0.2448  2.2835
 3903TIP3   OH233123   3.314   0.193  11.742  0.0263 -0.2535  0.4764
 3903TIP3    H133124   3.340   0.127  11.677  0.8198  1.2000 -0.7214
 3903TIP3    H233125   3.257   0.253  11.694 -0.1078  0.3522  1.3670
 3904TIP3   OH233126   5.011   2.804  10.832 -0.8776 -0.8477  0.1339
 3904TIP3    H133127   4.944   2.800  10.763  0.1059  0.4140 -0.9383
 3904TIP3    H233128   5.094   2.810  10.785 -0.2493  1.2961  1.3844
 3905TIP3   OH233129   3.011   5.265  13.177 -0.3292 -0.2887  0.4242
 3905TIP3    H133130   3.012   5.345  13.229 -2.6913 -0.5639  1.0291
 3905TIP3    H233131   3.044   5.197  13.236  2.1293  0.2259 -0.2371
 3906TIP3   OH233132   3.435   2.781   4.064 -0.0097 -0.0732 -0.1859
 3906TIP3    H133133   3.498   2.834   4.112  0.9404 -1.4520  0.1465
 3906TIP3    H233134   3.394   2.726   4.130 -0.2832 -0.4336 -0.6459
 3907TIP3   OH233135   4.724   1.577  14.658 -0.3646  0.3247  0.2096
 3907TIP3    H133136   4.807   1.604  14.617 -0.1626  0.0967  0.4609
 3907TIP3    H233137   4.676   1.534  14.588 -0.5456  1.0247 -0.1114
 3908TIP3   OH233138   0.366   1.564   2.053  0.2649  0.2855  0.1347
 3908TIP3    H133139   0.375   1.608   1.968 -1.5026  0.9012  0.2105
 3908TIP3    H233140   0.423   1.613   2.112  0.1338  0.9840 -0.3110
 3909TIP3   OH233141   1.238   2.067   2.616 -0.2133  0.1534  0.1044
 3909TIP3    H133142   1.167   2.118   2.654 -0.2351 -0.7773  1.3982
 3909TIP3    H233143   1.193   1.995   2.571 -0.1175 -0.6241  1.2070
 3910TIP3   OH233144   0.651   3.977  11.617 -1.1944  0.1219 -0.3869
 3910TIP3    H133145   0.579   3.950  11.560  0.0215 -2.1892 -0.9566
 3910TIP3    H233146   0.632   3.936  11.701 -0.6382 -0.3772 -0.4986
 3911TIP3   OH233147   3.449   1.103   4.990 -0.0130  0.0315 -0.2011
 3911TIP3    H133148   3.373   1.156   4.966 -0.2293 -0.4635 -0.6463
 3911TIP3    H233149   3.502   1.101   4.910  0.7522  0.8302  0.2687
 3912TIP3   OH233150   0.205   2.501   6.465  0.1328  0.2426 -0.3491
 3912TIP3    H133151   0.245   2.454   6.538 -2.0690  0.5442  1.1301
 3912TIP3    H233152   0.147   2.437   6.423  0.1135  0.5447 -0.7928
 3913TIP3   OH233153   1.973   6.082  14.326 -0.6323  0.3341  0.8288
 3913TIP3    H133154   1.889   6.086  14.373 -0.8944 -0.8563  0.5121
 3913TIP3    H233155   1.950   6.096  14.234 -0.1201  2.6373  0.9959
 3914TIP3   OH233156   3.728   3.131   0.386 -0.4961 -0.2526  0.0045
 3914TIP3    H133157   3.724   3.064   0.318 -2.2681  1.0251 -1.2233
 3914TIP3    H233158   3.641   3.129   0.427 -0.4150  0.9725  0.2613
 3915TIP3   OH233159   0.248   0.671   0.685 -0.5506  0.7760  0.5409
 3915TIP3    H133160   0.323   0.622   0.717 -0.6608  1.6254  2.1627
 3915TIP3    H233161   0.172   0.626   0.724 -0.7377  1.3190  0.8043
 3916TIP3   OH233162   2.511   1.970   3.874 -0.1411  0.2683 -0.1809
 3916TIP3    H133163   2.531   1.903   3.808  0.0002 -1.6197  1.6788
 3916TIP3    H233164   2.429   2.009   3.843 -0.2551 -0.7787 -1.3173
 3917TIP3   OH233165   1.040   1.213  15.153 -0.2149  0.1950 -0.5223
 3917TIP3    H133166   1.025   1.133  15.204 -2.6235  0.1468 -1.1697
 3917TIP3    H233167   1.004   1.283  15.208 -1.8731  0.2705 -1.6168
 3918TIP3   OH233168   5.864   5.540  11.548  0.0504  0.4060  0.1824
 3918TIP3    H133169   5.785   5.513  11.596 -0.1790  0.2379 -0.2845
 3918TIP3    H233170   5.910   5.458  11.529  0.5997  0.5439  0.8976
 3919TIP3   OH233171   4.869   4.227  16.545  0.4002  0.3196  0.0794
 3919TIP3    H133172   4.946   4.279  16.521 -1.0737  2.7389  0.2245
 3919TIP3    H233173   4.805   4.248  16.478 -0.5661 -0.6436  0.6760
 3920TIP3   OH233174   6.525   3.677   2.434  0.4486  0.0623 -0.0016
 3920TIP3    H133175   6.532   3.599   2.378 -2.2372  0.8644 -1.6132
 3920TIP3    H233176   6.443   3.664   2.482 -0.0360  1.8538 -0.2800
 3921TIP3   OH233177   6.614   0.139  16.022  0.1700  0.1535  0.1002
 3921TIP3    H133178   6.620   0.220  15.971 -2.0274  0.0459 -0.4352
 3921TIP3    H233179   6.595   0.072  15.957  2.7697 -1.0160  0.4295
 3922TIP3   OH233180   1.037   0.703  12.438  0.3389 -0.0591 -0.0672
 3922TIP3    H133181   1.086   0.711  12.356 -0.2185  0.4237 -0.3623
 3922TIP3    H233182   1.036   0.609  12.456  1.2047 -0.0980 -0.1494
 3923TIP3   OH233183   0.467   3.173   4.356 -0.8900 -0.2024  0.7278
 3923TIP3    H133184   0.383   3.199   4.393 -0.3563 -0.3323  2.0721
 3923TIP3    H233185   0.514   3.132   4.429  1.2230  1.8682  0.6428
 3924TIP3   OH233186   1.775   5.976   5.038 -0.2553 -0.8382 -0.1379
 3924TIP3    H133187   1.685   5.976   5.070  0.1818  0.1134  1.1856
 3924TIP3    H233188   1.774   6.036   4.963 -0.7502 -0.9605 -0.2289
 3925TIP3   OH233189   6.695   2.766  13.732  0.3767  0.6540  0.1509
 3925TIP3    H133190   6.670   2.841  13.786  1.0963  1.3455 -0.4421
 3925TIP3    H233191   6.732   2.806  13.653  1.0521 -0.3337 -0.0446
 3926TIP3   OH233192   2.257   2.178   0.066  0.2819  0.4797  0.3958
 3926TIP3    H133193   2.281   2.086   0.066 -0.7217  0.1811 -0.8258
 3926TIP3    H233194   2.163   2.179   0.086  0.1998  1.2056  0.0282
 3927TIP3   OH233195   5.668   1.287   2.537  0.3947  0.5863  0.2429
 3927TIP3    H133196   5.663   1.356   2.471  0.3223  0.2314 -0.1301
 3927TIP3    H233197   5.577   1.262   2.553  0.4501  0.1424 -0.0985
 3928TIP3   OH233198   4.208   6.157  14.737  0.0610  0.2584  0.0276
 3928TIP3    H133199   4.136   6.191  14.790 -0.1573 -0.3829  0.1526
 3928TIP3    H233200   4.275   6.133  14.801  0.5402  1.2107 -0.1155
 3929TIP3   OH233201   1.119   3.080  11.314  0.2156  0.3053 -0.0315
 3929TIP3    H133202   1.037   3.087  11.264  0.2953  0.3414 -0.1576
 3929TIP3    H233203   1.171   3.016  11.266  0.3361  0.4208 -0.0566
 3930TIP3   OH233204   6.078   4.431   3.039 -0.3307  0.1581 -0.5599
 3930TIP3    H133205   6.174   4.429   3.047 -0.4667 -0.0540  1.8457
 3930TIP3    H233206   6.058   4.361   2.977  1.0780  0.5397 -1.5031
 3931TIP3   OH233207   5.346   3.539  13.261 -0.0621  0.2588  0.3532
 3931TIP3    H133208   5.294   3.611  13.226  1.6787  1.3102 -0.1849
 3931TIP3    H233209   5.301   3.460  13.231 -2.6737  1.0238  1.9192
 3932TIP3   OH233210   4.163   4.728  12.450  0.1224 -0.2518 -0.3299
 3932TIP3    H133211   4.224   4.791  12.412 -0.8477  0.9928  0.1007
 3932TIP3    H233212   4.156   4.658  12.385 -0.5829  1.2318 -1.9292
 3933TIP3   OH233213   4.416   3.319   2.285 -0.2967 -0.3391 -0.2054
 3933TIP3    H133214   4.372   3.242   2.322 -0.8924  0.3536  0.5730
 3933TIP3    H233215   4.452   3.289   2.202 -1.0632 -1.2988 -0.2061
 3934TIP3   OH233216   1.659   4.614  12.130 -0.4313 -0.5421 -0.1245
 3934TIP3    H133217   1.580   4.561  12.118  0.2255 -1.6986  0.4547
 3934TIP3    H233218   1.716   4.588  12.058 -0.3108 -0.2221 -0.1461
 3935TIP3   OH233219   0.615   6.309  14.427 -0.2428 -0.2527  0.4713
 3935TIP3    H133220   0.535   6.361  14.421 -0.1339 -0.2159 -0.9145
 3935TIP3    H233221   0.586   6.225  14.461 -0.6090  0.2766  1.5279
 3936TIP3   OH233222   6.149   3.003   5.099  0.1588  0.6093  0.4021
 3936TIP3    H133223   6.100   3.059   5.158 -0.2302 -0.5163  1.1823
 3936TIP3    H233224   6.096   2.999   5.020 -1.0531 -0.5725  1.2254
 3937TIP3   OH233225   1.973   0.433   1.312 -0.0751  0.3078 -0.4004
 3937TIP3    H133226   1.951   0.513   1.360  0.8821  0.0010  0.6102
 3937TIP3    H233227   1.928   0.364   1.360  0.6925  0.0240 -0.0793
 3938TIP3   OH233228   1.661   1.758  15.815 -0.0903 -0.3170 -0.2095
 3938TIP3    H133229   1.657   1.698  15.741  1.9089  0.9478 -1.4325
 3938TIP3    H233230   1.686   1.703  15.889  0.3832 -1.2178 -1.0233
 3939TIP3   OH233231   2.649   5.357   2.848 -0.2405  0.2051  0.2676
 3939TIP3    H133232   2.689   5.282   2.804  0.3116  1.0748 -0.7407
 3939TIP3    H233233   2.595   5.318   2.917 -0.1369 -1.1266 -0.3784
 3940TIP3   OH233234   1.831   6.475  10.770  0.2642  0.0497 -0.6631
 3940TIP3    H133235   1.898   6.409  10.788 -0.2511  0.1760  2.1017
 3940TIP3    H233236   1.879   6.558  10.766  0.6585 -0.2274 -2.1331
 3941TIP3   OH233237   3.202   0.015  12.500 -0.7321  0.3172  0.5190
 3941TIP3    H133238   3.194   0.009  12.596 -0.8144  1.3418  0.5854
 3941TIP3    H233239   3.149   0.091  12.476 -1.6840 -0.6183 -0.4917
 3942TIP3   OH233240   1.077   4.214  16.945 -0.0863  0.3035  0.2070
 3942TIP3    H133241   1.097   4.159  17.020  2.5523  1.8729  0.7874
 3942TIP3    H233242   1.043   4.296  16.982  0.1026  0.6515 -0.3600
 3943TIP3   OH233243   0.588   0.832   3.135  0.2862 -0.0966 -0.3647
 3943TIP3    H133244   0.504   0.873   3.156 -0.1510 -0.8646 -0.5711
 3943TIP3    H233245   0.566   0.762   3.073  1.4431  1.6566 -2.9537
 3944TIP3   OH233246   2.222   2.147  15.295 -0.3258  0.0598  0.3504
 3944TIP3    H133247   2.246   2.222  15.350 -1.2544 -0.3739  1.3835
 3944TIP3    H233248   2.144   2.111  15.337 -1.0422 -0.3197 -1.2449
 3945TIP3   OH233249   3.777   5.408   6.599  0.7602  0.9553  0.2493
 3945TIP3    H133250   3.824   5.382   6.519  1.7071  0.6332  0.8939
 3945TIP3    H233251   3.823   5.486   6.630  1.5585  0.0498  1.4476
 3946TIP3   OH233252   4.334   4.624  14.063 -0.4785 -0.2926 -0.1621
 3946TIP3    H133253   4.375   4.593  14.144  0.2841  1.3658  0.1285
 3946TIP3    H233254   4.388   4.588  13.993  0.4114  0.3488  0.1706
 3947TIP3   OH233255   2.281   3.822   3.802  0.3078  0.4991 -0.1151
 3947TIP3    H133256   2.300   3.901   3.752  0.1739 -0.0227 -1.0098
 3947TIP3    H233257   2.231   3.766   3.742  0.9260 -0.5166  0.2806
 3948TIP3   OH233258   5.887   1.594   0.490  0.2463  0.4332 -0.5212
 3948TIP3    H133259   5.956   1.629   0.434  1.3847  1.9962  1.6927
 3948TIP3    H233260   5.809   1.646   0.468  0.8208  1.4073 -0.3257
 3949TIP3   OH233261   6.010   0.775  16.701 -0.0920 -0.5414  0.6157
 3949TIP3    H133262   6.058   0.694  16.683 -0.8461 -1.1676  1.3306
 3949TIP3    H233263   5.918   0.752  16.688 -0.2841  0.3038  0.4651
 3950TIP3   OH233264   0.033   4.582  15.957  0.0342  0.2873  0.0579
 3950TIP3    H133265  -0.009   4.630  15.886  2.5366 -0.2839 -1.9799
 3950TIP3    H233266   0.086   4.647  16.002  0.6230  0.1488 -0.4187
 3951TIP3   OH233267   0.422   5.253   0.084 -0.5200 -0.2191 -0.3557
 3951TIP3    H133268   0.371   5.199   0.024 -0.0595 -0.3805 -0.6071
 3951TIP3    H233269   0.504   5.205   0.096 -0.0828  0.4498 -0.6282
 3952TIP3   OH233270   2.820   1.081  13.318 -0.4039 -0.0573  0.3590
 3952TIP3    H133271   2.820   1.160  13.372 -1.9713 -1.4322  2.5554
 3952TIP3    H233272   2.904   1.039  13.336 -0.6162 -0.1412  1.1542
 3953TIP3   OH233273   2.859   4.535   6.152 -0.1041  0.0559  0.1336
 3953TIP3    H133274   2.865   4.472   6.081 -0.7703 -1.0565  1.0385
 3953TIP3    H233275   2.885   4.487   6.230 -2.3150  0.3623  1.1246
 3954TIP3   OH233276   1.617   0.359  16.256 -0.2286  0.0590  0.2729
 3954TIP3    H133277   1.700   0.376  16.301  0.1252 -0.2057 -0.2696
 3954TIP3    H233278   1.578   0.286  16.304  0.7699 -1.0973 -0.6271
 3955TIP3   OH233279   0.154   4.223   4.566  0.0869  0.1245 -0.5829
 3955TIP3    H133280   0.059   4.223   4.553 -0.0796 -1.7414  0.2295
 3955TIP3    H233281   0.165   4.217   4.661  1.0107  0.3247 -0.6730
 3956TIP3   OH233282   0.668   5.766   4.287 -0.2423  0.3884  0.1700
 3956TIP3    H133283   0.741   5.732   4.236 -0.5489  0.8747 -0.6104
 3956TIP3    H233284   0.679   5.861   4.283 -1.4230  0.5031 -0.7378
 3957TIP3   OH233285   5.414   6.440   1.815 -0.5635  0.8437 -0.0220
 3957TIP3    H133286   5.334   6.492   1.804 -1.7608 -1.1441 -1.1229
 3957TIP3    H233287   5.389   6.370   1.875  0.6390  0.7152  0.3577
 3958TIP3   OH233288   5.467   0.114   1.243  0.0872  0.4159 -0.0381
 3958TIP3    H133289   5.385   0.163   1.251 -0.7552  0.0440 -3.9442
 3958TIP3    H233290   5.506   0.147   1.162  1.5919 -2.3803 -0.5793
 3959TIP3   OH233291   2.838   4.260   0.065  0.0424  0.0269 -0.2066
 3959TIP3    H133292   2.756   4.309   0.080  1.3292  1.8755  1.1770
 3959TIP3    H233293   2.890   4.319   0.010  0.8471 -0.6941 -0.2224
 3960TIP3   OH233294   1.867   6.617   5.248 -0.0388 -0.0730  0.0547
 3960TIP3    H133295   1.782   6.593   5.284 -0.0912 -1.1826 -0.7549
 3960TIP3    H233296   1.891   6.544   5.191  0.8907  0.7776 -0.6967
 3961TIP3   OH233297   2.738   3.014   6.288 -0.1088  0.2311  0.7312
 3961TIP3    H133298   2.760   2.991   6.198  1.1370 -1.3822  1.3978
 3961TIP3    H233299   2.815   2.987   6.339 -1.3590 -0.2500  2.4588
 3962TIP3   OH233300   1.221   1.765   1.535  0.5861  1.1410  0.1937
 3962TIP3    H133301   1.191   1.820   1.463 -3.5600 -4.2349 -2.9523
 3962TIP3    H233302   1.154   1.774   1.602 -0.0705  0.1191 -0.3034
 3963TIP3   OH233303   5.937   3.811  11.642  0.1367  0.1979 -0.2005
 3963TIP3    H133304   5.885   3.733  11.657  0.5921  0.1942  1.5417
 3963TIP3    H233305   6.000   3.813  11.715  1.9406  0.7246 -1.6856
 3964TIP3   OH233306   2.713   0.243   5.125  0.1403  0.2262 -0.1604
 3964TIP3    H133307   2.722   0.154   5.159 -0.2268 -0.1681 -1.0680
 3964TIP3    H233308   2.716   0.299   5.203 -1.2989 -0.6831  0.5879
 3965TIP3   OH233309   5.164   0.525  15.649  0.2380  0.4542 -0.3044
 3965TIP3    H133310   5.254   0.552  15.630  0.6344 -0.7981 -0.2791
 3965TIP3    H233311   5.142   0.464  15.578 -0.8800  1.3234 -0.7445
 3966TIP3   OH233312   2.990   2.268  13.552  0.1989  0.0694 -0.0044
 3966TIP3    H133313   3.076   2.240  13.581 -0.3899 -1.0317  0.7491
 3966TIP3    H233314   2.955   2.194  13.503 -0.4610  0.3688 -0.0008
 3967TIP3   OH233315   3.306   2.777   2.201  0.1869  0.1330 -0.6751
 3967TIP3    H133316   3.211   2.770   2.205  0.1646 -0.7841 -2.0936
 3967TIP3    H233317   3.336   2.744   2.285 -0.7050 -1.2582 -0.8667
 3968TIP3   OH233318   5.269   4.921  16.445  0.6965  0.0267  0.3107
 3968TIP3    H133319   5.261   5.017  16.445  0.1671  0.0112 -0.9283
 3968TIP3    H233320   5.352   4.904  16.401  1.5415 -0.0765  1.8813
 3969TIP3   OH233321   2.508   3.933   2.470 -0.2139  0.1013 -0.0400
 3969TIP3    H133322   2.491   3.921   2.377 -2.2566  0.2987  0.2743
 3969TIP3    H233323   2.529   3.845   2.503  0.5332  0.0346 -0.6633
 3970TIP3   OH233324   4.428   6.233  14.020  0.2451 -0.0036  0.0435
 3970TIP3    H133325   4.414   6.204  14.110  1.9134 -0.9983  0.0177
 3970TIP3    H233326   4.341   6.231  13.980 -0.0469 -2.9527  0.6470
 3971TIP3   OH233327   1.354   4.975  13.681  0.3075  0.2440 -0.5379
 3971TIP3    H133328   1.434   4.967  13.629  1.3574  0.2247  1.0077
 3971TIP3    H233329   1.290   4.920  13.636  1.0119  0.6155 -2.0613
 3972TIP3   OH233330   3.643   1.164   6.020 -0.1158 -0.0387  0.0597
 3972TIP3    H133331   3.718   1.195   6.070  0.3491  1.1973 -1.3209
 3972TIP3    H233332   3.567   1.193   6.070  0.2747 -1.5628  1.6292
 3973TIP3   OH233333   3.364   1.626  16.040  0.4130  0.0527  0.0886
 3973TIP3    H133334   3.275   1.592  16.031  0.5085 -0.0512 -0.5708
 3973TIP3    H233335   3.362   1.710  15.995  0.9637 -0.5520 -1.1297
 3974TIP3   OH233336   3.753   2.567   5.855 -0.3306  0.1220  0.0414
 3974TIP3    H133337   3.767   2.528   5.941 -1.4052 -1.3322 -0.4089
 3974TIP3    H233338   3.659   2.558   5.839 -0.0985  0.0042 -1.4383
 3975TIP3   OH233339   5.862   6.158  15.658 -0.2115 -0.2396 -0.3763
 3975TIP3    H133340   5.943   6.135  15.613 -1.5876 -1.7480 -2.2985
 3975TIP3    H233341   5.796   6.158  15.588 -1.8422  1.1445  1.0743
 3976TIP3   OH233342   4.520   3.632  13.328 -0.6768  0.0013  0.2621
 3976TIP3    H133343   4.465   3.660  13.255  0.4189  1.1259 -0.1761
 3976TIP3    H233344   4.585   3.703  13.338  0.8487 -1.3784  0.5763
 3977TIP3   OH233345   6.341   1.296  15.235  0.0529 -0.4739  0.3934
 3977TIP3    H133346   6.292   1.262  15.310  0.4808  0.3977  1.0833
 3977TIP3    H233347   6.425   1.251  15.239 -0.5853 -1.8415 -0.6911
 3978TIP3   OH233348   4.436   4.973  13.326 -0.4632  0.4301  0.6849
 3978TIP3    H133349   4.341   4.974  13.311 -0.6734 -1.0751  1.6238
 3978TIP3    H233350   4.471   5.035  13.263 -1.8101 -1.1557 -1.7886
 3979TIP3   OH233351   4.360   3.834  15.216  0.5353 -0.6793 -0.3773
 3979TIP3    H133352   4.265   3.831  15.212  0.5038  0.3767 -0.8629
 3979TIP3    H233353   4.389   3.766  15.156  0.1154 -2.1389  1.0164
 3980TIP3   OH233354   2.969   3.091  11.103  0.5453 -0.0919 -0.5486
 3980TIP3    H133355   3.003   3.023  11.045 -2.5515 -3.2657  0.9678
 3980TIP3    H233356   2.915   3.146  11.047  1.7336  0.1256 -1.5180
 3981TIP3   OH233357   2.516   0.398  14.737 -0.0164 -0.4222  0.1110
 3981TIP3    H133358   2.465   0.317  14.735  0.2217 -0.6251  1.6095
 3981TIP3    H233359   2.543   0.411  14.646 -0.4671 -1.7516 -0.2296
 3982TIP3   OH233360   6.217   2.884  15.212 -0.9323  0.0222  0.3701
 3982TIP3    H133361   6.217   2.951  15.280 -1.7786  2.4638 -1.8266
 3982TIP3    H233362   6.304   2.845  15.216 -0.1477  1.7401  1.3737
 3983TIP3   OH233363   3.335   1.570   5.645 -0.4803  0.4786  0.6068
 3983TIP3    H133364   3.367   1.651   5.605 -0.2762 -0.3918 -1.0632
 3983TIP3    H233365   3.317   1.512   5.571  0.2448 -1.3378  1.7906
 3984TIP3   OH233366   6.694   3.574   3.045  0.1174  0.0102 -0.6577
 3984TIP3    H133367   6.766   3.596   3.106 -0.1272  1.0873 -0.7350
 3984TIP3    H233368   6.728   3.597   2.959 -0.3508  0.6222 -0.6846
 3985TIP3   OH233369   0.108   0.359   2.457 -0.3744 -0.0309 -0.5435
 3985TIP3    H133370   0.139   0.445   2.428  1.8749 -0.3242  0.7145
 3985TIP3    H233371   0.122   0.301   2.383  1.3013  0.0562 -0.3278
 3986TIP3   OH233372   2.866   6.126  13.416  0.3915 -0.1845  0.1632
 3986TIP3    H133373   2.862   6.198  13.480  0.0028 -1.3409  1.4911
 3986TIP3    H233374   2.933   6.154  13.354 -0.9349  2.0858 -0.3610
 3987TIP3   OH233375   5.230   3.748  13.151 -0.0671  0.3487 -0.1424
 3987TIP3    H133376   5.140   3.737  13.182  0.6398  0.2452  2.0387
 3987TIP3    H233377   5.255   3.836  13.181  0.6601  0.2572 -0.4618
 3988TIP3   OH233378   2.472   4.845   5.606  0.3207 -0.1944  0.1182
 3988TIP3    H133379   2.523   4.922   5.583  2.1642 -0.9734  1.3656
 3988TIP3    H233380   2.417   4.828   5.529  0.5673  1.7768 -0.5288
 3989TIP3   OH233381   2.392   3.243   0.697 -0.7194 -0.0959 -0.1885
 3989TIP3    H133382   2.396   3.169   0.637 -0.2803 -1.9771  2.0251
 3989TIP3    H233383   2.483   3.259   0.722 -0.7279  1.6612 -1.0856
 3990TIP3   OH233384   5.521   3.689  14.871  0.0469 -0.5515  0.6567
 3990TIP3    H133385   5.434   3.653  14.850  0.4569 -1.6021  0.6987
 3990TIP3    H233386   5.527   3.684  14.966 -1.3971  3.2553  1.1285
 3991TIP3   OH233387   2.155   3.910   3.399  0.0753  0.2019  0.7578
 3991TIP3    H133388   2.077   3.953   3.434  0.0458  0.0750  0.8529
 3991TIP3    H233389   2.137   3.899   3.306  1.3244  3.0976  0.0845
 3992TIP3   OH233390   5.321   4.029  13.136  0.0466 -0.2902  0.1382
 3992TIP3    H133391   5.328   4.125  13.137 -2.3608 -0.0595  0.0698
 3992TIP3    H233392   5.370   4.002  13.058 -0.6503  1.0515 -0.8008
 3993TIP3   OH233393   4.540   3.281  12.518 -0.5884 -0.6171  0.1451
 3993TIP3    H133394   4.579   3.193  12.512  0.5819 -0.0671 -0.7781
 3993TIP3    H233395   4.570   3.314  12.602  1.7356  0.1105 -0.8969
 3994TIP3   OH233396   0.219   1.913   2.580 -0.3124  0.7547 -0.0183
 3994TIP3    H133397   0.200   1.894   2.489  1.8161  2.4054 -0.8817
 3994TIP3    H233398   0.274   1.841   2.610 -0.9858  0.2312 -0.0146
 3995TIP3   OH233399   3.036   5.779   3.397  0.4394  0.4021  0.0793
 3995TIP3    H133400   3.009   5.728   3.320  0.7316  0.2276  0.0894
 3995TIP3    H233401   2.989   5.862   3.389 -1.2872 -0.4511  0.8887
 3996TIP3   OH233402   4.997   0.216   0.744  0.5254  0.7725 -0.0812
 3996TIP3    H133403   5.084   0.247   0.718 -0.2456  2.6769 -0.5616
 3996TIP3    H233404   4.975   0.267   0.822 -0.2809  0.5218 -0.1352
 3997TIP3   OH233405   0.419   1.162   3.705 -0.4821  0.0154 -0.2206
 3997TIP3    H133406   0.475   1.166   3.782  0.7850  0.3659 -1.1252
 3997TIP3    H233407   0.373   1.246   3.704  1.8224  1.3586 -1.4904
 3998TIP3   OH233408   0.579   0.170  14.639 -1.0173 -0.0733 -0.4150
 3998TIP3    H133409   0.646   0.197  14.577  0.8905  1.1331  1.9917
 3998TIP3    H233410   0.501   0.153  14.585  0.4775  0.9242 -3.0603
 3999TIP3   OH233411   1.164   3.577  14.346  0.0726 -0.1092 -0.0951
 3999TIP3    H133412   1.081   3.555  14.305  0.8832 -0.8206 -1.4135
 3999TIP3    H233413   1.202   3.492  14.371  1.3037  0.0278 -1.3722
 4000TIP3   OH233414   6.414   0.455   1.312 -0.3299  0.0962 -0.0681
 4000TIP3    H133415   6.502   0.490   1.297 -0.4204  0.8373  1.0061
 4000TIP3    H233416   6.382   0.502   1.389 -1.8603  0.1792 -0.7083
 4001TIP3   OH233417   3.394   4.637  15.605  0.0080 -0.0049  0.1553
 4001TIP3    H133418   3.353   4.563  15.560 -0.1028 -1.1792  2.0481
 4001TIP3    H233419   3.473   4.598  15.645  1.1144  1.4159 -0.5626
 4002TIP3   OH233420   3.044   4.361   4.730  0.3223 -0.6896  0.1340
 4002TIP3    H133421   2.967   4.338   4.781  0.5678  1.2806  1.5006
 4002TIP3    H233422   3.014   4.428   4.668  0.6494 -0.9376 -0.3021
 4003TIP3   OH233423   2.369   1.825  16.743  0.1726 -0.2900 -0.2345
 4003TIP3    H133424   2.397   1.878  16.668  2.7909  1.7625  1.9988
 4003TIP3    H233425   2.273   1.829  16.740  0.1530 -0.1761 -3.2968
 4004TIP3   OH233426   5.295   1.111  14.784  0.3130 -0.4133  0.0156
 4004TIP3    H133427   5.204   1.082  14.785  0.4358 -0.8385 -0.6505
 4004TIP3    H233428   5.292   1.197  14.742  0.0217  0.3444  1.4931
 4005TIP3   OH233429   5.225   4.354   2.404  0.5404 -0.4827 -0.3360
 4005TIP3    H133430   5.302   4.357   2.349  0.4614 -0.9962 -0.4763
 4005TIP3    H233431   5.203   4.261   2.411  0.0460 -0.3571 -0.1454
 4006TIP3   OH233432   6.598   0.564  13.403 -0.4129  0.2726 -0.4166
 4006TIP3    H133433   6.631   0.505  13.335 -0.1798 -0.6555  0.4742
 4006TIP3    H233434   6.503   0.562  13.393 -0.4629 -0.8962  0.0918
 4007TIP3   OH233435   4.744   0.944   4.060 -0.2580 -0.4541  0.4851
 4007TIP3    H133436   4.666   0.893   4.082  0.3826 -0.8918  1.9015
 4007TIP3    H233437   4.764   0.921   3.969 -3.0047  1.3351 -0.6934
 4008TIP3   OH233438   6.322   1.905   4.899 -0.1294 -0.5760 -0.1563
 4008TIP3    H133439   6.275   1.962   4.838  2.6486  0.5406 -1.4099
 4008TIP3    H233440   6.325   1.820   4.855 -1.8522 -0.9913  0.4511
 4009TIP3   OH233441   6.667   0.717   3.638  0.2678  0.0819  0.1741
 4009TIP3    H133442   6.620   0.677   3.566  0.3219 -1.8720  1.1514
 4009TIP3    H233443   6.721   0.646   3.674  2.0767  1.6036  0.6354
 4010TIP3   OH233444   3.738   1.947  16.010 -0.2197  0.0743  0.3948
 4010TIP3    H133445   3.704   1.951  15.921  1.2949 -0.5931 -0.2581
 4010TIP3    H233446   3.821   1.900  16.002  0.4405  0.8566  2.0109
 4011TIP3   OH233447   2.842   2.822  13.837  0.3409 -0.4980  0.5097
 4011TIP3    H133448   2.853   2.897  13.895  0.0052 -0.1468  0.1192
 4011TIP3    H233449   2.851   2.858  13.749 -0.7064 -0.7508  0.2835
 4012TIP3   OH233450   0.753   0.054  17.359  0.3306 -0.2084  0.4682
 4012TIP3    H133451   0.679   0.053  17.421  0.7613  1.1709  1.0587
 4012TIP3    H233452   0.808  -0.019  17.386 -0.3713 -0.7056  0.5845
 4013TIP3   OH233453   0.635   3.409  16.734  0.3465 -0.0357  0.5101
 4013TIP3    H133454   0.722   3.389  16.769  0.4651 -0.7037 -0.1496
 4013TIP3    H233455   0.650   3.423  16.640 -0.0338  1.2880  0.6265
 4014TIP3   OH233456   3.281   6.478   0.929  0.0725  0.0085  0.2558
 4014TIP3    H133457   3.247   6.550   0.982  1.1427  0.0191  0.9736
 4014TIP3    H233458   3.285   6.404   0.989  0.9299 -0.0874  0.0989
 4015TIP3   OH233459   2.552   6.464   5.502 -0.4203 -0.3967  0.3314
 4015TIP3    H133460   2.523   6.423   5.583 -1.3068 -0.6806 -0.1077
 4015TIP3    H233461   2.632   6.510   5.525  0.7003 -2.4716  0.8187
 4016TIP3   OH233462   5.045   6.466   4.097 -0.4199  0.4461  0.2455
 4016TIP3    H133463   4.985   6.488   4.168 -1.5609 -0.9228 -0.2528
 4016TIP3    H233464   5.120   6.525   4.110  0.1783 -0.8096  3.5402
 4017TIP3   OH233465   2.667   5.094   4.412 -0.3405  0.7053  0.3012
 4017TIP3    H133466   2.670   5.183   4.375 -1.7117  1.0189  0.9012
 4017TIP3    H233467   2.617   5.103   4.493  1.3239 -0.2397  1.5251
 4018TIP3   OH233468   0.474   1.654   1.802  1.2091 -0.0698 -0.1287
 4018TIP3    H133469   0.514   1.576   1.764  0.8594  0.9197 -2.7276
 4018TIP3    H233470   0.423   1.692   1.731 -1.3189  0.7773  1.9685
 4019TIP3   OH233471   4.248   2.871   0.872 -0.0817  0.0110  0.9675
 4019TIP3    H133472   4.159   2.855   0.838  0.2269  0.1372  0.0862
 4019TIP3    H233473   4.305   2.854   0.798  0.5757  0.8743  1.2653
 4020TIP3   OH233474   3.686   0.796   0.662  0.3255  0.0442 -0.0426
 4020TIP3    H133475   3.634   0.787   0.742  0.4509  1.5419  0.2516
 4020TIP3    H233476   3.707   0.707   0.636  0.2809 -0.4758  1.5997
 4021TIP3   OH233477   1.160   3.915   4.062 -0.3525 -0.8388 -0.9379
 4021TIP3    H133478   1.230   3.854   4.087 -1.0288 -1.3003 -0.1067
 4021TIP3    H233479   1.102   3.864   4.006 -1.7588 -1.5093  0.9894
 4022TIP3   OH233480   1.961   0.555  12.620  0.1743  0.3871  0.3256
 4022TIP3    H133481   2.029   0.498  12.655 -0.3915  0.7178  2.0687
 4022TIP3    H233482   1.976   0.556  12.525  0.2726 -2.5102  0.2373
 4023TIP3   OH233483   4.715   0.663  17.271  0.0406 -0.5951  0.2338
 4023TIP3    H133484   4.773   0.735  17.294  0.1254 -0.3573 -0.6902
 4023TIP3    H233485   4.634   0.706  17.243 -0.2277 -0.8918  0.5480
 4024TIP3   OH233486   3.260   3.134  12.789 -0.1723 -0.5777 -0.4919
 4024TIP3    H133487   3.309   3.210  12.819  0.3241 -1.1268  0.1257
 4024TIP3    H233488   3.172   3.167  12.770 -1.1987 -0.5000  3.5098
 4025TIP3   OH233489   6.389   4.128  13.990  0.0600  0.6840  0.4044
 4025TIP3    H133490   6.418   4.057  13.932  0.8659  1.1475  0.2303
 4025TIP3    H233491   6.319   4.171  13.941 -1.5051 -0.8979  1.1377
 4026TIP3   OH233492   0.820   5.407  15.101 -0.0528  0.4686 -0.4775
 4026TIP3    H133493   0.871   5.368  15.030  0.5688  1.3224 -0.5136
 4026TIP3    H233494   0.733   5.371  15.090  0.4807 -0.8458 -0.5556
 4027TIP3   OH233495   2.650   2.291  13.135 -0.3645  0.4860 -0.8368
 4027TIP3    H133496   2.723   2.241  13.099 -0.2989  2.1535 -3.2654
 4027TIP3    H233497   2.644   2.368  13.079 -2.2797  1.7673  0.9763
 4028TIP3   OH233498   3.711   3.500   0.125  0.3983 -0.6822 -0.2333
 4028TIP3    H133499   3.743   3.587   0.102 -1.6577 -0.0519 -0.8902
 4028TIP3    H233500   3.615   3.509   0.126  0.1846 -2.6004  1.0342
 4029TIP3   OH233501   0.104   0.667  12.793  0.3232 -0.6156 -0.1758
 4029TIP3    H133502   0.063   0.605  12.853 -1.4581 -0.2532 -0.9484
 4029TIP3    H233503   0.105   0.621  12.709  1.0317 -0.4088 -0.2854
 4030TIP3   OH233504   6.143   0.346  13.124 -0.2018 -0.2631  0.6444
 4030TIP3    H133505   6.209   0.414  13.143 -0.4883  0.1891  0.0480
 4030TIP3    H233506   6.181   0.294  13.054 -0.2050 -0.4092  0.7492
 4031TIP3   OH233507   3.677   3.822   3.230 -0.0686  0.7604 -0.1011
 4031TIP3    H133508   3.700   3.731   3.211  0.1546  0.3568  1.8790
 4031TIP3    H233509   3.751   3.873   3.198  1.7186 -0.1514  2.2233
 4032TIP3   OH233510   0.582   4.327   2.634 -0.0783 -0.2860 -0.8829
 4032TIP3    H133511   0.494   4.294   2.617 -0.8409  0.9098  0.5149
 4032TIP3    H233512   0.584   4.344   2.728  1.5537 -0.0205 -0.9333
 4033TIP3   OH233513   4.564   3.241   1.545  0.1128 -0.3905 -0.3041
 4033TIP3    H133514   4.608   3.177   1.488 -0.8177 -1.0085 -0.3549
 4033TIP3    H233515   4.614   3.322   1.533  1.0107 -0.9732 -0.6285
 4034TIP3   OH233516   6.081   5.687  15.876 -0.0352  0.2597  0.7717
 4034TIP3    H133517   6.038   5.673  15.961 -2.0464 -0.6848 -0.3093
 4034TIP3    H233518   6.078   5.782  15.863  0.7304  0.4659  1.9419
 4035TIP3   OH233519   0.012   2.165  13.082  0.5421 -0.0304 -0.2894
 4035TIP3    H133520  -0.005   2.241  13.138  1.6358  0.0092  0.0035
 4035TIP3    H233521  -0.067   2.158  13.027  0.0358  0.7449  0.3206
 4036TIP3   OH233522   2.841   0.809   1.431  0.0136 -0.2166 -0.2914
 4036TIP3    H133523   2.771   0.871   1.452  0.0473 -0.7095  1.3850
 4036TIP3    H233524   2.795   0.729   1.406 -0.0315 -0.3041  0.0645
 4037TIP3   OH233525   1.371   1.171   5.665  0.2327  0.3348  0.1805
 4037TIP3    H133526   1.416   1.220   5.597 -1.5744 -0.6029 -1.7980
 4037TIP3    H233527   1.287   1.216   5.676 -0.4133 -0.8181  0.1333
 4038TIP3   OH233528   1.977   4.357  13.726 -0.2637  0.2757 -0.4824
 4038TIP3    H133529   1.899   4.312  13.693 -0.0250  0.6460 -1.5553
 4038TIP3    H233530   1.995   4.425  13.662  0.2730  0.9355  0.3558
 4039TIP3   OH233531   5.872   6.138  13.766 -0.7456 -0.1003 -0.0472
 4039TIP3    H133532   5.815   6.131  13.690  1.0127 -2.3297 -1.2673
 4039TIP3    H233533   5.952   6.178  13.733 -0.5256  0.3654  1.0070
 4040TIP3   OH233534   4.572   5.940   0.311  0.6416 -0.0130  0.0899
 4040TIP3    H133535   4.654   5.893   0.293  0.9619  0.4413  0.3347
 4040TIP3    H233536   4.508   5.898   0.254  0.9310 -0.7069  0.2626
 4041TIP3   OH233537   3.954   4.683  11.504 -0.2245 -0.3542  0.2052
 4041TIP3    H133538   3.884   4.682  11.439 -0.1151  1.0842  0.0287
 4041TIP3    H233539   4.021   4.739  11.466  1.2044 -1.9679  0.2249
 4042TIP3   OH233540   4.204   4.493   4.623  0.3203 -0.2064  0.2569
 4042TIP3    H133541   4.271   4.472   4.689 -1.3389 -0.5931  1.9012
 4042TIP3    H233542   4.239   4.570   4.578  1.4915  0.1391  1.6660
 4043TIP3   OH233543   0.962   3.986  11.784  0.5021  0.4775 -0.4450
 4043TIP3    H133544   0.884   3.969  11.837 -0.5047 -0.7621 -2.2196
 4043TIP3    H233545   1.035   3.977  11.845 -0.6532  0.2691  0.9628
 4044TIP3   OH233546   2.732   3.841  14.472 -0.5522  0.0213 -0.3110
 4044TIP3    H133547   2.814   3.808  14.435 -0.4994 -1.7332  1.2065
 4044TIP3    H233548   2.759   3.890  14.549 -0.8869 -0.1861 -0.0590
 4045TIP3   OH233549   4.017   6.084   2.241 -0.1748 -0.0099 -0.4341
 4045TIP3    H133550   3.932   6.097   2.200 -0.7804  1.2066  1.1022
 4045TIP3    H233551   4.059   6.170   2.238  1.1132 -0.6195 -1.3074
 4046TIP3   OH233552   2.944   3.120   5.602  0.0768 -0.0472  0.5083
 4046TIP3    H133553   2.865   3.105   5.654  0.2490 -1.8242  0.3503
 4046TIP3    H233554   2.919   3.096   5.513  0.4118  0.7426  0.1975
 4047TIP3   OH233555   2.313   1.500   3.293 -0.3517 -0.2449  0.4603
 4047TIP3    H133556   2.333   1.449   3.214 -1.0452  0.9427 -0.5269
 4047TIP3    H233557   2.230   1.544   3.273 -0.1488  0.6868  1.5553
 4048TIP3   OH233558   2.810   4.560   0.678  0.6146 -0.3369  0.0512
 4048TIP3    H133559   2.788   4.613   0.754  0.4972 -0.5382  0.1575
 4048TIP3    H233560   2.758   4.480   0.687  0.8850 -0.5298 -0.0391
 4049TIP3   OH233561   0.150   3.651   2.112  0.0083 -0.0124  0.0958
 4049TIP3    H133562   0.135   3.674   2.021 -1.0585  0.2506  0.3229
 4049TIP3    H233563   0.075   3.687   2.159  0.3660 -0.4386  1.0310
 4050TIP3   OH233564   4.083   4.904  15.471  0.0251 -0.0710  0.1922
 4050TIP3    H133565   4.155   4.965  15.453 -0.0426 -0.3442 -1.1869
 4050TIP3    H233566   4.023   4.916  15.397 -2.6209  1.8460  2.4573
 4051TIP3   OH233567   2.981   1.428  15.303  0.6787 -0.3640 -0.2246
 4051TIP3    H133568   2.971   1.336  15.278  2.9846 -1.1706  1.4323
 4051TIP3    H233569   2.979   1.426  15.399 -2.0026  1.7447 -0.1450
 4052TIP3   OH233570   2.613   2.047   3.011 -0.2989 -0.0538  0.2425
 4052TIP3    H133571   2.647   1.996   2.937 -1.5285 -1.5411  0.6325
 4052TIP3    H233572   2.564   2.119   2.970 -0.4910 -0.5381 -0.4039
 4053TIP3   OH233573   3.320   5.269  11.765 -0.0527  0.1037  0.3469
 4053TIP3    H133574   3.344   5.294  11.855  1.8350  0.4802 -0.2033
 4053TIP3    H233575   3.264   5.192  11.776  0.0476  0.2026  1.8515
 4054TIP3   OH233576   2.886   6.149  12.209 -0.1612 -0.8126  0.0628
 4054TIP3    H133577   2.980   6.132  12.208 -0.2985 -1.7341 -1.4647
 4054TIP3    H233578   2.854   6.100  12.285  0.6224 -0.2434  0.7708
 4055TIP3   OH233579   2.740   3.971   1.048 -0.0929 -0.3695  0.2660
 4055TIP3    H133580   2.793   3.969   0.968  1.4644 -2.5185  1.2731
 4055TIP3    H233581   2.799   4.004   1.116 -0.9309 -0.0498  0.8646
 4056TIP3   OH233582   2.092   1.252   4.592  0.0186 -0.0684 -0.2487
 4056TIP3    H133583   2.152   1.325   4.602 -0.9584  0.6612  0.5854
 4056TIP3    H233584   2.070   1.250   4.499 -1.3513  1.9051 -0.0354
 4057TIP3   OH233585   1.344   3.047  12.259  0.5224 -0.4026 -0.3114
 4057TIP3    H133586   1.350   2.999  12.176 -0.2604  1.2167 -1.3671
 4057TIP3    H233587   1.252   3.040  12.284  0.2571  0.9437 -0.7893
 4058TIP3   OH233588   6.086   1.332   5.701  0.2753 -0.1267  0.2744
 4058TIP3    H133589   6.179   1.313   5.711  0.3371 -0.4000 -0.6912
 4058TIP3    H233590   6.080   1.426   5.718  0.7425 -0.0867  0.2460
 4059TIP3   OH233591   5.620   6.039  16.706  0.5486  0.3951  0.0808
 4059TIP3    H133592   5.708   6.010  16.683  0.1880  1.6631 -3.4454
 4059TIP3    H233593   5.632   6.127  16.741  0.8493 -0.5615  2.6099
 4060TIP3   OH233594   5.834   4.195  15.876  0.3302 -0.0576  0.5106
 4060TIP3    H133595   5.786   4.156  15.803 -0.2189  1.2858  0.1363
 4060TIP3    H233596   5.923   4.205  15.843 -0.2692  2.0963 -0.6428
 4061TIP3   OH233597   1.273   5.736   0.206 -0.0429 -0.5483  0.1416
 4061TIP3    H133598   1.261   5.641   0.201 -1.8724 -0.3792  0.5101
 4061TIP3    H233599   1.318   5.751   0.290 -0.5935 -1.0337  0.5277
 4062TIP3   OH233600   0.008   4.705   6.430 -0.4801 -0.2166  0.4968
 4062TIP3    H133601   0.044   4.678   6.515 -0.0759 -0.2300  0.3255
 4062TIP3    H233602   0.063   4.661   6.365 -1.0583 -0.5439  0.2266
 4063TIP3   OH233603   1.776   2.761   4.904 -0.3132  0.4200  0.0385
 4063TIP3    H133604   1.808   2.758   4.814  0.6766 -3.2947  0.3552
 4063TIP3    H233605   1.698   2.706   4.903 -0.2869  0.3369  1.4667
 4064TIP3   OH233606   0.765   5.563  16.964  0.6191  0.5536  0.1758
 4064TIP3    H133607   0.810   5.599  16.888 -1.7909 -0.8963 -2.1083
 4064TIP3    H233608   0.682   5.611  16.968 -0.2502 -0.9237  0.4786
 4065TIP3   OH233609   0.979   2.881   1.809 -0.2210 -0.1724  0.3075
 4065TIP3    H133610   1.013   2.880   1.720 -1.3197 -0.1651 -0.1319
 4065TIP3    H233611   1.043   2.931   1.859  0.8376 -0.8987 -0.2880
 4066TIP3   OH233612   1.493   2.954  14.177 -0.3547  0.0275  0.0825
 4066TIP3    H133613   1.525   2.866  14.159 -1.2604 -0.3318  0.1774
 4066TIP3    H233614   1.415   2.941  14.231 -2.0344  0.7511 -2.0310
 4067TIP3   OH233615   1.960   4.938   1.483  0.0054 -0.0897 -0.1203
 4067TIP3    H133616   2.044   4.912   1.520 -0.2434 -4.2370 -1.9048
 4067TIP3    H233617   1.895   4.895   1.539 -0.7324  0.3492 -0.6306
 4068TIP3   OH233618   4.036   6.234   4.377 -0.2692 -0.7808  0.1579
 4068TIP3    H133619   4.103   6.165   4.368 -1.0580 -1.8421  1.9507
 4068TIP3    H233620   3.961   6.200   4.328 -0.4880 -0.9481  0.6129
 4069TIP3   OH233621   3.786   4.424  12.130  0.4083 -0.2190  0.4152
 4069TIP3    H133622   3.763   4.338  12.166 -1.8791  0.4787  0.8065
 4069TIP3    H233623   3.800   4.408  12.037 -1.4649 -0.8610  0.1875
 4070TIP3   OH233624   5.928   1.557   1.538  1.0631 -0.0572  0.2566
 4070TIP3    H133625   6.023   1.546   1.532  1.0395  0.1996 -0.7280
 4070TIP3    H233626   5.912   1.573   1.631  1.8304 -1.3990  0.6545
 4071TIP3   OH233627   4.255   0.160  10.533  0.2930 -0.0155  0.4957
 4071TIP3    H133628   4.323   0.105  10.571  1.4845  0.1300 -1.3626
 4071TIP3    H233629   4.212   0.105  10.468 -1.1217  0.0370  1.3302
 4072TIP3   OH233630   0.288   5.337   5.285 -0.0225  0.5406  0.4343
 4072TIP3    H133631   0.302   5.273   5.214  1.3270 -0.3165  1.4234
 4072TIP3    H233632   0.193   5.344   5.292 -0.2156 -1.4628  0.3640
 4073TIP3   OH233633   3.531   0.652   2.673 -0.1044 -0.9995 -0.2440
 4073TIP3    H133634   3.504   0.717   2.608  1.5248 -0.0719 -0.0569
 4073TIP3    H233635   3.464   0.657   2.741  0.0929  0.6739 -0.1307
 4074TIP3   OH233636   2.876   5.187  10.857  0.5799  0.5578  0.4340
 4074TIP3    H133637   2.800   5.177  10.914  0.3666  0.5122  0.1403
 4074TIP3    H233638   2.841   5.222  10.776  0.6985 -0.5666 -0.1249
 4075TIP3   OH233639   3.262   1.430  12.361 -0.1848  0.0019 -0.2909
 4075TIP3    H133640   3.272   1.378  12.282  0.9495  1.8562 -1.4446
 4075TIP3    H233641   3.338   1.407  12.415  0.1072  0.1729 -0.6249
 4076TIP3   OH233642   4.425   5.888   0.587  0.2500  0.4961  0.3828
 4076TIP3    H133643   4.471   5.906   0.505 -0.9286 -0.8542 -0.6157
 4076TIP3    H233644   4.350   5.947   0.585  0.1119  0.3204  0.3960
 4077TIP3   OH233645   3.156   2.133   4.003  0.6788  0.2656 -0.4835
 4077TIP3    H133646   3.158   2.208   3.943  1.2322 -1.6293 -2.9929
 4077TIP3    H233647   3.213   2.159   4.075  1.1722  2.0967 -1.4677
 4078TIP3   OH233648   4.545   5.343   6.110  0.1491  0.0527 -0.0123
 4078TIP3    H133649   4.469   5.359   6.054 -0.7924 -0.5419  1.0478
 4078TIP3    H233650   4.616   5.324   6.049 -0.7075 -0.0341 -1.0131
 4079TIP3   OH233651   1.514   2.699  12.893  0.2665 -0.1059  0.0615
 4079TIP3    H133652   1.609   2.703  12.877  0.0842 -1.6090 -1.6678
 4079TIP3    H233653   1.500   2.614  12.934 -0.4831 -0.6224 -1.1869
 4080TIP3   OH233654   2.814   3.734   5.405  0.3212  0.4119 -0.0145
 4080TIP3    H133655   2.887   3.748   5.346 -0.6932 -0.3898 -1.5136
 4080TIP3    H233656   2.818   3.640   5.426 -1.2345 -0.0395 -1.5029
 4081TIP3   OH233657   0.894   3.867  11.410  0.0907 -0.3757  0.2986
 4081TIP3    H133658   0.973   3.896  11.364  0.0022 -3.2674 -1.9673
 4081TIP3    H233659   0.827   3.862  11.341 -1.3238 -0.6169  1.6364
 4082TIP3   OH233660   3.354   0.105   1.283 -0.0520  0.2396  0.2269
 4082TIP3    H133661   3.287   0.041   1.306  0.6335 -1.1297 -1.4216
 4082TIP3    H233662   3.311   0.190   1.296 -1.4808 -0.5679  0.9807
 4083TIP3   OH233663   5.847   1.874   0.667 -0.1274 -0.3348 -0.7588
 4083TIP3    H133664   5.920   1.861   0.606  0.5247 -2.4094  0.3698
 4083TIP3    H233665   5.838   1.790   0.712 -1.1115  0.8677  1.4420
 4084TIP3   OH233666   5.771   3.340  14.714 -0.0773  0.0337 -0.1061
 4084TIP3    H133667   5.762   3.407  14.781 -1.0547 -0.8972  0.7184
 4084TIP3    H233668   5.860   3.306  14.724  0.1504  0.6604 -0.0153
 4085TIP3   OH233669   1.388   3.745  15.447 -0.4693 -0.1234  0.1806
 4085TIP3    H133670   1.409   3.838  15.441 -2.7742  0.4515  0.2340
 4085TIP3    H233671   1.397   3.724  15.540 -1.9319  0.5904  0.5049
 4086TIP3   OH233672   2.467   3.517  17.137  0.3379  0.3764 -0.0371
 4086TIP3    H133673   2.510   3.589  17.092 -1.7407  0.3993 -2.2073
 4086TIP3    H233674   2.383   3.507  17.092 -0.7232 -1.4771  2.1205
 4087TIP3   OH233675   5.969   6.712  16.357  0.0419 -0.0255  0.2388
 4087TIP3    H133676   6.002   6.736  16.271  0.0524  0.2699  0.3211
 4087TIP3    H233677   5.875   6.698  16.344 -0.2574  1.5282  0.4579
 4088TIP3   OH233678   0.973   0.222   0.811  0.1715  0.0950 -0.1876
 4088TIP3    H133679   0.966   0.307   0.768 -1.7426  1.9201  3.2859
 4088TIP3    H233680   0.887   0.182   0.800  0.0280  0.0835  0.8441
 4089TIP3   OH233681   6.551   2.380  17.181 -0.8827 -0.3282  0.3122
 4089TIP3    H133682   6.524   2.317  17.114 -1.0866  1.8858 -1.8217
 4089TIP3    H233683   6.469   2.411  17.219 -0.8680 -0.2317  0.2656
 4090TIP3   OH233684   4.784   5.908  15.877 -0.2850 -0.1970 -0.3215
 4090TIP3    H133685   4.750   5.823  15.849  0.1048 -0.7821  0.9156
 4090TIP3    H233686   4.740   5.971  15.820 -0.0800 -1.2650 -1.7097
 4091TIP3   OH233687   0.679   1.912   3.898  0.1013 -0.2629 -0.7405
 4091TIP3    H133688   0.751   1.859   3.930 -0.3264 -1.2107 -1.3034
 4091TIP3    H233689   0.624   1.928   3.975  0.5528 -0.1120 -0.4491
 4092TIP3   OH233690   1.099   1.987   5.632  0.1980 -0.5194 -0.2290
 4092TIP3    H133691   1.017   1.985   5.682  0.5219 -0.6092  0.2976
 4092TIP3    H233692   1.142   2.068   5.660 -0.8640  0.8891 -2.3609
 4093TIP3   OH233693   2.318   2.946  15.692  0.0606 -0.5527  0.4945
 4093TIP3    H133694   2.413   2.937  15.689  0.2370  0.9470  0.6041
 4093TIP3    H233695   2.304   3.038  15.718 -1.4156 -0.2771 -1.1260
 4094TIP3   OH233696   2.042   4.671   1.590  0.2606  0.8114 -0.1429
 4094TIP3    H133697   2.129   4.701   1.564  1.0525 -0.7016  0.6131
 4094TIP3    H233698   2.059   4.595   1.646 -1.5453  0.7160  0.3306
 4095TIP3   OH233699   3.493   1.085  11.490 -0.5534  0.2834 -0.0585
 4095TIP3    H133700   3.475   1.141  11.416  0.6005  0.3147 -0.3425
 4095TIP3    H233701   3.534   1.142  11.555 -0.3338 -0.0141  0.0696
 4096TIP3   OH233702   2.294   2.022  15.075 -0.0826 -0.3894 -0.1112
 4096TIP3    H133703   2.264   2.071  15.151  1.7911 -1.2978  1.2937
 4096TIP3    H233704   2.377   2.064  15.051 -0.0738 -0.8494 -0.9237
 4097TIP3   OH233705   5.341   3.448   3.798 -0.4712 -0.0348  0.4168
 4097TIP3    H133706   5.315   3.502   3.723 -0.9072  0.2820  0.7852
 4097TIP3    H233707   5.280   3.374   3.796 -1.8886  1.0295  1.6495
 4098TIP3   OH233708   3.591   0.669  11.500 -0.1925  0.6145  0.1055
 4098TIP3    H133709   3.619   0.758  11.481  0.2132  0.5611  0.4461
 4098TIP3    H233710   3.544   0.676  11.584 -0.4229  0.5578 -0.0186
 4099TIP3   OH233711   2.672   0.951  15.683 -0.3537 -0.0126 -0.6861
 4099TIP3    H133712   2.579   0.926  15.680 -1.0244  2.2674 -0.6677
 4099TIP3    H233713   2.704   0.933  15.595 -1.2405  0.6506 -1.1559
 4100TIP3   OH233714   4.155   3.549   0.353 -0.1888 -0.0347  0.2659
 4100TIP3    H133715   4.060   3.537   0.358  0.1357 -2.9810  0.9570
 4100TIP3    H233716   4.177   3.600   0.431 -1.3342  2.5244 -0.9520
 4101TIP3   OH233717   6.447   0.543  13.870  0.7289 -0.1358  0.4754
 4101TIP3    H133718   6.471   0.523  13.779 -1.5274 -2.7940  0.3151
 4101TIP3    H233719   6.514   0.500  13.923  0.7890 -0.5952  0.0356
 4102TIP3   OH233720   0.090   4.249   2.152  0.5539 -0.0344  0.6786
 4102TIP3    H133721   0.179   4.249   2.116  0.2578 -0.9986 -0.0993
 4102TIP3    H233722   0.080   4.162   2.191  0.0799  0.2140  1.1149
 4103TIP3   OH233723   4.840   6.558  13.364  0.3484 -0.5262 -0.7555
 4103TIP3    H133724   4.905   6.624  13.388 -0.5179  0.1644 -0.2313
 4103TIP3    H233725   4.783   6.552  13.441 -0.1609 -1.1700 -1.1737
 4104TIP3   OH233726   5.008   3.090   6.852  0.0545  0.2870  0.2001
 4104TIP3    H133727   4.998   2.995   6.857  0.6446  0.1862 -0.3416
 4104TIP3    H233728   5.082   3.103   6.792  0.2094  1.0788  0.5469
 4105TIP3   OH233729   0.948   3.290  14.896 -0.6599  0.1968  0.3326
 4105TIP3    H133730   0.991   3.250  14.971 -0.1936  1.5249  0.8064
 4105TIP3    H233731   0.946   3.384  14.916 -1.2400  0.4912 -0.9543
 4106TIP3   OH233732   6.589   2.974   1.497  0.5052 -0.1824 -0.8029
 4106TIP3    H133733   6.559   2.986   1.587 -0.3334 -0.0290 -1.0885
 4106TIP3    H233734   6.625   3.059   1.472  1.4954 -0.4589 -0.3503
 4107TIP3   OH233735   4.686   1.082  13.791  0.0763  0.4318 -0.2576
 4107TIP3    H133736   4.756   1.109  13.851 -1.1047  0.5721  1.1251
 4107TIP3    H233737   4.634   1.162  13.777  0.3015  0.3820 -1.4368
 4108TIP3   OH233738   0.402   5.232   4.806 -0.5505  0.5365  0.4284
 4108TIP3    H133739   0.493   5.204   4.820 -0.6380 -0.0427 -0.1368
 4108TIP3    H233740   0.407   5.299   4.738 -0.2963  2.2587  2.0520
 4109TIP3   OH233741   6.647   0.404  13.623  0.0873 -0.2055 -0.4612
 4109TIP3    H133742   6.628   0.468  13.554  0.7205  2.2551  1.4674
 4109TIP3    H233743   6.735   0.428  13.653  0.4933 -2.2666  0.1095
 4110TIP3   OH233744   4.711   0.939  15.041  0.0841  0.4376  0.1008
 4110TIP3    H133745   4.688   0.990  14.964 -0.0144  0.2927  0.0336
 4110TIP3    H233746   4.748   0.858  15.006 -1.5526 -0.3850  0.1753
 4111TIP3   OH233747   1.145   0.533  17.134  0.0640  0.7000  0.1485
 4111TIP3    H133748   1.200   0.597  17.089 -1.5372  0.9365 -1.5775
 4111TIP3    H233749   1.196   0.452  17.132  0.4104  0.9238 -1.3471
 4112TIP3   OH233750   5.094   6.126  12.896 -0.2624 -0.1737 -0.2009
 4112TIP3    H133751   5.003   6.147  12.917 -0.5724 -2.1274  0.5455
 4112TIP3    H233752   5.137   6.211  12.893 -1.8217  0.7105  0.7687
 4113TIP3   OH233753   0.497   5.676   3.513 -0.2087 -0.2255 -0.4457
 4113TIP3    H133754   0.578   5.725   3.497  0.3166 -0.7950  0.4328
 4113TIP3    H233755   0.476   5.693   3.604 -0.2201 -1.3317 -0.2296
 4114TIP3   OH233756   0.374   3.196  13.240 -0.4229  0.2216 -0.5259
 4114TIP3    H133757   0.348   3.230  13.326  0.1958 -0.8767  0.1331
 4114TIP3    H233758   0.400   3.105  13.258 -0.9025 -0.2355 -1.9951
 4115TIP3   OH233759   2.927   5.196   0.826  0.2188 -0.6385  0.7224
 4115TIP3    H133760   2.918   5.169   0.918  0.7498 -1.0371  0.6619
 4115TIP3    H233761   3.020   5.185   0.807  0.1961 -0.1111  0.2678
 4116TIP3   OH233762   5.703   1.588   0.175  0.2752 -0.1208  0.0255
 4116TIP3    H133763   5.608   1.587   0.166  0.2393  0.3611  0.3115
 4116TIP3    H233764   5.721   1.664   0.230  0.7749 -0.6842  0.6558
 4117TIP3   OH233765   4.259   4.046  16.581 -0.1299  0.1044  0.2893
 4117TIP3    H133766   4.187   3.984  16.572  0.0814  0.0056 -0.8597
 4117TIP3    H233767   4.297   4.027  16.666 -2.0137  0.7750  1.3396
 4118TIP3   OH233768   0.097   0.542  15.452 -0.1837 -0.7211  0.1123
 4118TIP3    H133769   0.148   0.511  15.377 -0.6662  1.6448 -1.2872
 4118TIP3    H233770   0.009   0.555  15.417 -0.5971 -0.2527  1.2854
 4119TIP3   OH233771   1.819   1.098   2.340  0.2797 -0.3208 -0.3555
 4119TIP3    H133772   1.773   1.179   2.361 -0.8911 -0.4080 -2.3932
 4119TIP3    H233773   1.911   1.118   2.358  0.2319  2.0228 -2.2198
 4120TIP3   OH233774   2.705   2.426  11.497  0.1772 -0.4741  0.2147
 4120TIP3    H133775   2.763   2.350  11.506  0.6476 -0.1225  0.2034
 4120TIP3    H233776   2.618   2.392  11.517  0.1727 -1.3425 -1.1584
 4121TIP3   OH233777   2.916   0.988  13.056 -0.3047 -0.4710  0.0009
 4121TIP3    H133778   2.853   1.003  13.126 -1.1937  0.2725 -0.9223
 4121TIP3    H233779   2.902   0.896  13.031 -0.2440 -0.6300  0.5343
 4122TIP3   OH233780   1.783   4.955   0.253 -0.0012  0.2121  0.2956
 4122TIP3    H133781   1.805   4.934   0.343  0.7290 -2.4782 -0.4103
 4122TIP3    H233782   1.810   5.046   0.241 -0.0644  0.6080  2.7266
 4123TIP3   OH233783   0.800   5.293  12.511  0.2631 -0.1656  0.1788
 4123TIP3    H133784   0.860   5.273  12.439 -1.3705 -1.4567 -0.8928
 4123TIP3    H233785   0.765   5.380  12.489  0.0685 -0.3852 -0.3980
 4124TIP3   OH233786   1.685   2.882  12.147  0.1804 -0.0838 -0.4149
 4124TIP3    H133787   1.651   2.914  12.064 -0.9054 -1.0095 -0.3550
 4124TIP3    H233788   1.718   2.794  12.127 -2.8816 -1.6512  0.6375
 4125TIP3   OH233789   3.587   6.678   1.397  0.4518  0.1365 -0.1012
 4125TIP3    H133790   3.594   6.734   1.320 -1.0414 -1.3513 -1.3934
 4125TIP3    H233791   3.634   6.598   1.372  0.6088 -0.0672  0.8284
 4126TIP3   OH233792   4.468   0.718   0.098 -0.6831 -0.4130  0.5548
 4126TIP3    H133793   4.529   0.651   0.068  2.1376  2.4169 -0.5380
 4126TIP3    H233794   4.492   0.733   0.190  0.0150  0.3993  0.2488
 4127TIP3   OH233795   2.268   5.684   3.316 -0.1164  0.1099  0.3435
 4127TIP3    H133796   2.232   5.602   3.283 -1.2494  0.5288  0.4670
 4127TIP3    H233797   2.263   5.744   3.241 -0.8004  0.4966  0.6830
 4128TIP3   OH233798   3.066   0.263  17.389  0.2442  0.7266 -0.2410
 4128TIP3    H133799   3.130   0.306  17.333  1.1551 -0.7993 -0.4238
 4128TIP3    H233800   3.116   0.195  17.435 -0.5724  1.6172  2.0869
 4129TIP3   OH233801   4.330   1.714  15.989  0.1977 -0.0532 -0.3644
 4129TIP3    H133802   4.336   1.805  15.958  0.1587 -0.0886 -0.4763
 4129TIP3    H233803   4.342   1.720  16.083 -0.5649  0.1489 -0.2736
 4130TIP3   OH233804   0.276   5.537  16.110 -0.0582 -0.1173  0.8226
 4130TIP3    H133805   0.215   5.534  16.036  0.7963 -1.8348  0.1395
 4130TIP3    H233806   0.304   5.629  16.114  0.2244 -0.0569 -1.2971
 4131TIP3   OH233807   4.085   3.933   3.838 -0.3655  0.1837 -0.4007
 4131TIP3    H133808   4.077   3.951   3.932 -0.6399  2.6059 -0.8209
 4131TIP3    H233809   4.175   3.955   3.817 -0.4540  0.1600 -0.8085
 4132TIP3   OH233810   5.094   0.216  12.176 -0.1261 -0.2278  0.1089
 4132TIP3    H133811   5.036   0.187  12.246 -1.3046  0.5278 -0.5227
 4132TIP3    H233812   5.122   0.304  12.202 -0.0905 -0.1817 -0.0835
 4133TIP3   OH233813   4.274   5.522  15.982 -0.0008 -0.6032 -0.0080
 4133TIP3    H133814   4.224   5.459  15.930 -0.4476 -0.9865  0.8663
 4133TIP3    H233815   4.275   5.602  15.929 -1.4025 -0.6393 -0.1289
 4134TIP3   OH233816   3.040   0.489  14.564  0.1043 -0.4925 -0.4500
 4134TIP3    H133817   2.975   0.478  14.634  0.2985  1.7808  0.1823
 4134TIP3    H233818   3.104   0.420  14.580 -1.1277 -1.5445  0.1150
 4135TIP3   OH233819   4.278   4.205   2.708  0.3669  0.2499  0.3886
 4135TIP3    H133820   4.185   4.205   2.729  0.0201 -1.2378 -0.9998
 4135TIP3    H233821   4.318   4.154   2.778 -0.4016 -2.2620 -0.8984
 4136TIP3   OH233822   1.784   2.035  14.433  0.0360  0.4104  0.4668
 4136TIP3    H133823   1.722   1.975  14.476  0.6056 -1.5319 -1.2295
 4136TIP3    H233824   1.835   2.072  14.505  1.3595 -3.1484  1.6279
 4137TIP3   OH233825   5.205   1.150  11.933  0.3515 -0.7761 -0.1648
 4137TIP3    H133826   5.197   1.213  12.004 -0.7557 -1.7545  0.6051
 4137TIP3    H233827   5.163   1.193  11.858  3.1652  1.0329 -0.8261
 4138TIP3   OH233828   0.534   1.629   5.395  0.0879  0.2140  0.2139
 4138TIP3    H133829   0.506   1.679   5.472  1.2188 -1.8407  2.0837
 4138TIP3    H233830   0.463   1.567   5.380 -0.4132  1.0117 -0.8543
 4139TIP3   OH233831   2.972   0.854  12.664  0.9146 -0.6749  0.0297
 4139TIP3    H133832   3.059   0.862  12.702  0.3830 -1.4430  1.4849
 4139TIP3    H233833   2.941   0.945  12.655  2.3995 -0.3135 -1.8959
 4140TIP3   OH233834   3.750   0.875   4.816  0.5081  0.0920 -0.0226
 4140TIP3    H133835   3.796   0.857   4.734 -0.4716  1.3308 -0.8673
 4140TIP3    H233836   3.663   0.838   4.803  0.4538 -0.0092  0.6031
 4141TIP3   OH233837   0.702   3.109  12.581 -0.0913 -0.0024  0.0304
 4141TIP3    H133838   0.749   3.073  12.656 -0.5353  1.4379  1.0424
 4141TIP3    H233839   0.611   3.081  12.593 -0.0145 -0.4542 -0.4193
 4142TIP3   OH233840   5.434   2.456  15.464 -0.3216 -1.0743  0.0280
 4142TIP3    H133841   5.375   2.527  15.487  1.2506  0.8421 -1.4836
 4142TIP3    H233842   5.378   2.389  15.426 -1.8218 -0.6173  1.3215
 4143TIP3   OH233843   6.356   0.908   1.184 -0.4034  0.1614  0.1073
 4143TIP3    H133844   6.410   0.858   1.124 -1.4176 -0.4345 -0.3422
 4143TIP3    H233845   6.403   0.990   1.198  0.4745 -0.2426 -0.4536
 4144TIP3   OH233846   3.779   6.165  16.592 -0.2635  0.6503  0.3572
 4144TIP3    H133847   3.875   6.170  16.592 -0.1565 -0.6543 -1.0572
 4144TIP3    H233848   3.755   6.165  16.684  1.2737 -1.2702  0.8269
 4145TIP3   OH233849   4.482   0.636  13.218 -0.0543 -0.2764  0.3107
 4145TIP3    H133850   4.439   0.657  13.135 -1.0389 -0.8556  0.6562
 4145TIP3    H233851   4.510   0.545  13.208  0.1360 -0.2379  0.4846
 4146TIP3   OH233852   2.264   0.926  12.550  0.2068  0.6818  0.3331
 4146TIP3    H133853   2.187   0.893  12.597 -0.4066  0.9745 -0.4344
 4146TIP3    H233854   2.309   0.981  12.614  0.2077 -0.1188  1.0349
 4147TIP3   OH233855   2.801   6.324  10.841  0.2651  0.1215  0.2731
 4147TIP3    H133856   2.836   6.413  10.844  2.3555 -0.6412  0.2686
 4147TIP3    H233857   2.878   6.267  10.848 -0.5956 -1.7219 -3.1124
 4148TIP3   OH233858   3.315   2.619   6.305  0.2142 -0.0520  0.3726
 4148TIP3    H133859   3.310   2.664   6.220  1.3869  1.6011  1.1213
 4148TIP3    H233860   3.235   2.647   6.351  0.8721  1.2605  0.7847
 4149TIP3   OH233861   5.558   0.064  12.960  0.5455  0.2427 -0.1881
 4149TIP3    H133862   5.561   0.160  12.965 -1.1620  0.2687  1.3335
 4149TIP3    H233863   5.588   0.035  13.046 -0.0277 -0.5614 -0.2521
 4150TIP3   OH233864   3.115   2.030  13.709 -0.3861 -0.0061 -0.3119
 4150TIP3    H133865   3.182   1.975  13.750 -0.0330  0.5026 -0.2030
 4150TIP3    H233866   3.128   2.017  13.615  1.2698  1.7127 -0.3694
 4151TIP3   OH233867   6.674   4.020  12.296  0.3036 -0.3099  0.6821
 4151TIP3    H133868   6.630   4.007  12.380 -0.0169 -0.6767  0.4602
 4151TIP3    H233869   6.734   3.945  12.289  1.0202  0.2256  1.0172
 4152TIP3   OH233870   0.633   0.056   6.283 -0.2529 -0.3453  0.2171
 4152TIP3    H133871   0.593   0.094   6.206 -0.5648 -0.6455  0.2260
 4152TIP3    H233872   0.725   0.084   6.280 -0.7513  1.4552  0.9027
 4153TIP3   OH233873   6.083   6.290   2.327 -0.0615  0.0557  0.4676
 4153TIP3    H133874   6.022   6.222   2.354  1.3007 -0.3678  2.7017
 4153TIP3    H233875   6.029   6.353   2.278 -2.0232 -0.8966  1.3202
 4154TIP3   OH233876   1.905   5.229  11.513 -0.0007  0.5386  0.5640
 4154TIP3    H133877   1.931   5.138  11.499  0.0880  0.4534  1.2240
 4154TIP3    H233878   1.891   5.265  11.426 -2.2092 -0.7530  0.3161
 4155TIP3   OH233879   2.987   5.287   1.678 -0.5075  0.0248 -0.3572
 4155TIP3    H133880   2.928   5.220   1.714 -0.7781 -0.3684 -1.4844
 4155TIP3    H233881   3.072   5.244   1.675 -0.7151 -0.3414 -1.2388
 4156TIP3   OH233882   4.381   0.043   5.202 -0.5869  0.1380  0.8815
 4156TIP3    H133883   4.398  -0.006   5.282 -0.7525  1.0699  1.5061
 4156TIP3    H233884   4.287   0.060   5.204 -0.6500 -0.1080  0.3161
 4157TIP3   OH233885   5.893   0.360   2.109  0.4641  0.0067 -0.4097
 4157TIP3    H133886   5.870   0.424   2.042 -2.1817 -0.2060  0.1814
 4157TIP3    H233887   5.839   0.284   2.089 -0.0598 -0.2259  1.6675
 4158TIP3   OH233888   4.222   6.001   2.795 -0.7300 -0.0629  0.2233
 4158TIP3    H133889   4.268   6.070   2.747 -2.3050  0.1267 -1.0888
 4158TIP3    H233890   4.283   5.976   2.864  0.0923  2.3008  0.4507
 4159TIP3   OH233891   3.098   6.056   6.240  0.3880  0.0022  0.3913
 4159TIP3    H133892   3.088   6.137   6.290  0.9781  1.2346 -1.3852
 4159TIP3    H233893   3.193   6.046   6.229  0.2902 -0.4426 -0.1192
 4160TIP3   OH233894   4.957   2.943   4.660  0.4062 -0.7738 -0.2356
 4160TIP3    H133895   4.885   2.911   4.607  0.9954 -0.9372 -0.9552
 4160TIP3    H233896   5.026   2.964   4.597  0.7208  0.1076  0.3725
 4161TIP3   OH233897   5.018   2.080   4.748  0.5358 -0.1952  0.0758
 4161TIP3    H133898   5.009   2.043   4.836 -0.8411  0.4609  0.2348
 4161TIP3    H233899   5.038   2.172   4.763 -0.7711  0.1621 -0.2697
 4162TIP3   OH233900   2.604   6.293  14.013  0.5643 -0.0312  0.6993
 4162TIP3    H133901   2.618   6.320  14.103  0.0483  2.0666  0.1989
 4162TIP3    H233902   2.688   6.310  13.969 -0.1015  2.0418  0.1227
 4163TIP3   OH233903   4.651   4.821   2.913  0.1756  0.8731  0.3847
 4163TIP3    H133904   4.731   4.770   2.925 -0.9675 -0.5366  2.7840
 4163TIP3    H233905   4.581   4.756   2.907 -0.8599  2.0636 -1.7289
 4164TIP3   OH233906   0.366   5.465   4.666  0.0486 -0.1099 -0.4628
 4164TIP3    H133907   0.287   5.517   4.651  0.5609  1.2460  1.2346
 4164TIP3    H233908   0.430   5.501   4.605  0.2767  1.0337  0.4159
 4165TIP3   OH233909   5.501   2.889   1.794  0.7330  0.3450  0.0450
 4165TIP3    H133910   5.500   2.945   1.717  0.2314  1.7246  1.0151
 4165TIP3    H233911   5.413   2.851   1.797  1.0832 -0.5605 -0.6306
 4166TIP3   OH233912   5.974   5.238  12.822  0.0725  0.1149 -0.5283
 4166TIP3    H133913   6.059   5.259  12.860  0.5343  0.9704 -1.9621
 4166TIP3    H233914   5.986   5.153  12.781 -0.5383 -1.0049  1.4512
 4167TIP3   OH233915   3.635   5.168  12.497 -0.5640 -0.0635  0.4295
 4167TIP3    H133916   3.682   5.095  12.537  1.5314  0.5207 -0.7648
 4167TIP3    H233917   3.694   5.243  12.508  0.8975 -0.0882 -4.6231
 4168TIP3   OH233918   0.043   5.286  14.133  0.3912  0.6104  0.1072
 4168TIP3    H133919  -0.034   5.259  14.083  1.9766 -0.0301 -2.1395
 4168TIP3    H233920   0.103   5.321  14.068  2.2532  0.5377  1.6912
 4169TIP3   OH233921   5.032   1.711   4.796  0.0859  0.4499  0.6856
 4169TIP3    H133922   5.111   1.729   4.746 -0.6705  1.1390 -0.3006
 4169TIP3    H233923   5.034   1.616   4.810 -0.0824  0.0726 -1.4240
 4170TIP3   OH233924   3.047   4.573  15.239  0.1257 -0.3587  0.3353
 4170TIP3    H133925   3.046   4.662  15.202  0.1633 -0.5179 -0.0570
 4170TIP3    H233926   2.956   4.555  15.262  0.3731  0.4844  2.1566
 4171TIP3   OH233927   2.373   5.017  16.835  0.2678  0.1352 -0.1911
 4171TIP3    H133928   2.436   5.064  16.890 -0.5753  1.4607 -0.3165
 4171TIP3    H233929   2.330   5.085  16.784 -0.8820 -0.8009 -0.5201
 4172TIP3   OH233930   3.512   6.300   4.890 -0.0282  0.1710 -0.0510
 4172TIP3    H133931   3.513   6.328   4.982  0.9751 -1.6579  0.5256
 4172TIP3    H233932   3.534   6.380   4.841 -0.1108  1.0606  1.3032
 4173TIP3   OH233933   4.529   2.693  11.941 -0.3501 -0.1290  0.8824
 4173TIP3    H133934   4.571   2.683  11.856 -2.0154 -0.1360  0.0154
 4173TIP3    H233935   4.507   2.604  11.968  0.9886 -0.2206  1.8021
 4174TIP3   OH233936   2.060   4.603  16.730  0.4473 -0.6072  0.5123
 4174TIP3    H133937   2.004   4.681  16.739 -0.3196 -0.9330 -1.1236
 4174TIP3    H233938   2.138   4.634  16.685  0.3237 -0.7093  0.2294
 4175TIP3   OH233939   5.847   2.033  15.878 -0.1146  0.5856  0.1060
 4175TIP3    H133940   5.863   2.011  15.786 -0.6630 -1.0892  0.3897
 4175TIP3    H233941   5.752   2.040  15.885 -0.3029 -1.9213  1.0505
 4176TIP3   OH233942   0.194   5.020  12.496 -0.2965 -0.4046 -0.0578
 4176TIP3    H133943   0.226   4.965  12.568 -0.3976  2.5555  2.4167
 4176TIP3    H233944   0.251   4.997  12.422  1.7852 -1.5312  1.7633
 4177TIP3   OH233945   5.888   6.581   3.158  0.0550  0.8216  0.3761
 4177TIP3    H133946   5.906   6.586   3.064 -0.9326 -0.3721  0.0967
 4177TIP3    H233947   5.823   6.512   3.166 -0.5191  1.5006  1.8666
 4178TIP3   OH233948   0.243   0.831  12.111 -0.3567  0.2240 -0.5018
 4178TIP3    H133949   0.158   0.863  12.141  0.1528  0.0108  1.2393
 4178TIP3    H233950   0.304   0.853  12.181  0.7585 -0.9879 -1.0373
 4179TIP3   OH233951   3.306   1.382  11.489  0.3018 -0.9169  0.0572
 4179TIP3    H133952   3.352   1.377  11.405  2.7858  0.9501  1.1656
 4179TIP3    H233953   3.373   1.361  11.554 -1.5946 -2.4396  1.6299
 4180TIP3   OH233954   1.432   3.763  12.051 -0.5107  0.2265  0.6284
 4180TIP3    H133955   1.375   3.688  12.066 -0.6168  0.3088  0.6405
 4180TIP3    H233956   1.520   3.732  12.073 -0.5264  0.0464  0.4347
 4181TIP3   OH233957   0.944   0.310   4.149 -0.3860  0.1596 -0.4631
 4181TIP3    H133958   1.036   0.335   4.146  0.0446 -0.8557  1.9034
 4181TIP3    H233959   0.897   0.387   4.116  1.2153  1.5176  0.2991
 4182TIP3   OH233960   4.085   2.426   2.327 -0.2713 -0.3939  0.0251
 4182TIP3    H133961   4.109   2.467   2.410 -1.9651 -1.4827  1.1305
 4182TIP3    H233962   4.024   2.487   2.286  0.1096 -0.1268 -0.1509
 4183TIP3   OH233963   0.988   5.186  12.315  0.3842  0.3927 -0.0025
 4183TIP3    H133964   0.923   5.118  12.296  2.5314 -1.3449 -1.5113
 4183TIP3    H233965   1.014   5.220  12.230  0.4487  2.1522  0.6580
 4184TIP3   OH233966   0.271   0.883  16.076  0.3949  0.6876  0.0188
 4184TIP3    H133967   0.226   0.854  15.997 -0.6220  1.7132  0.1881
 4184TIP3    H233968   0.211   0.862  16.147  0.4469  1.4966  0.3155
 4185TIP3   OH233969   5.556   4.128   2.071 -0.2797 -0.0747 -0.2598
 4185TIP3    H133970   5.529   4.086   1.989  0.2847 -2.4364  0.6967
 4185TIP3    H233971   5.652   4.127   2.067 -0.2526  0.6157  0.0686
 4186TIP3   OH233972   3.207   0.549   4.938  0.1194  0.2448  0.4448
 4186TIP3    H133973   3.247   0.490   4.873  2.0026  0.5811  1.2132
 4186TIP3    H233974   3.116   0.523   4.942  0.0404 -0.0793 -2.0076
 4187TIP3   OH233975   3.933   5.599   1.919  0.1871  0.8125 -0.0374
 4187TIP3    H133976   4.006   5.644   1.877 -0.6097  0.3596 -2.0438
 4187TIP3    H233977   3.857   5.653   1.897 -0.2606  0.6102  0.9649
 4188TIP3   OH233978   4.243   4.995   4.922  0.6940 -0.4314  0.3742
 4188TIP3    H133979   4.293   4.981   4.841  0.9627  0.8385  0.3092
 4188TIP3    H233980   4.182   4.920   4.925  0.0816 -0.0616 -1.4462
 4189TIP3   OH233981   5.165   0.107   0.367 -0.2602 -0.3722 -0.9320
 4189TIP3    H133982   5.080   0.151   0.358 -0.2622 -0.4888 -1.4884
 4189TIP3    H233983   5.142   0.018   0.394 -0.3152 -0.4185 -1.1342
 4190TIP3   OH233984   1.308   4.799   1.014 -0.0323 -0.0574 -0.1827
 4190TIP3    H133985   1.276   4.750   0.938 -2.5873 -0.9572  1.3197
 4190TIP3    H233986   1.270   4.887   1.004  0.0572 -0.0233 -0.2170
 4191TIP3   OH233987   6.213   4.687  14.937 -0.5730  0.1552 -0.2992
 4191TIP3    H133988   6.133   4.665  14.985 -1.0668  1.7053 -0.3750
 4191TIP3    H233989   6.188   4.684  14.845 -1.0374  2.2681 -0.2919
 4192TIP3   OH233990   0.793   4.215  16.738  0.6973 -0.3799  0.6896
 4192TIP3    H133991   0.732   4.186  16.671 -0.1608  0.4366  1.1077
 4192TIP3    H233992   0.866   4.153  16.731  0.7230 -0.2050 -1.1134
 4193TIP3   OH233993   3.498   1.703  15.058 -0.1148  0.2431  0.1815
 4193TIP3    H133994   3.583   1.729  15.094  0.9999  0.5848 -2.4762
 4193TIP3    H233995   3.446   1.783  15.057  0.0892  0.3771  0.3585
 4194TIP3   OH233996   4.028   3.265  13.848 -0.4305 -0.4511  0.1821
 4194TIP3    H133997   3.978   3.184  13.847  0.9597 -1.3780  1.2754
 4194TIP3    H233998   3.996   3.315  13.773 -1.6371 -1.8040 -0.2389
 4195TIP3   OH233999   0.245   1.559   2.383  0.5681 -0.2921  0.2123
 4195TIP3    H134000   0.170   1.590   2.332  1.4515 -0.3268 -1.1549
 4195TIP3    H234001   0.322   1.589   2.334  1.4467 -1.5967  0.7423
 4196TIP3   OH234002   6.179   5.451   1.137  0.1716  0.5763 -0.4178
 4196TIP3    H134003   6.133   5.481   1.216 -0.6385  1.1053 -1.0707
 4196TIP3    H234004   6.190   5.357   1.150 -0.4656  0.5622  0.0768
 4197TIP3   OH234005   2.951   5.707  15.695  0.2604  0.5715  0.1552
 4197TIP3    H134006   2.994   5.778  15.741 -0.2267  0.8203  0.2303
 4197TIP3    H234007   2.921   5.648  15.765  1.8627 -0.4272  0.0542
 4198TIP3   OH234008   3.463   3.424   3.124 -0.6125 -0.7089 -0.3952
 4198TIP3    H134009   3.469   3.378   3.208  0.5562 -0.4648 -0.3301
 4198TIP3    H234010   3.427   3.359   3.064  0.2646 -1.4725 -0.1172
 4199TIP3   OH234011   1.680   0.398  12.711  0.4986 -0.2666 -0.3835
 4199TIP3    H134012   1.765   0.440  12.696  1.2238 -1.4288  0.3472
 4199TIP3    H234013   1.688   0.312  12.670 -0.6081 -0.1104 -0.9610
 4200TIP3   OH234014   5.007   5.072   0.702  0.6080 -0.5607 -0.1149
 4200TIP3    H134015   4.968   4.989   0.728 -1.6579  0.8873  1.4449
 4200TIP3    H234016   4.991   5.079   0.608 -0.9024 -1.0245  0.0952
 4201TIP3   OH234017   5.154   1.657  12.114  0.0175  0.0621 -0.2358
 4201TIP3    H134018   5.177   1.742  12.151  1.1675 -0.6486  0.7557
 4201TIP3    H234019   5.060   1.663  12.097  0.2683  1.8679 -1.1513
 4202TIP3   OH234020   3.476   4.011   1.710  0.1248 -0.4996 -0.0700
 4202TIP3    H134021   3.529   3.940   1.745 -0.1591 -0.8312 -0.3076
 4202TIP3    H234022   3.445   3.980   1.625  0.5738  0.1877 -0.4976
 4203TIP3   OH234023   2.676   4.436   4.362 -0.3092 -0.4977  0.3118
 4203TIP3    H134024   2.658   4.528   4.347 -1.7352 -0.7928  0.0600
 4203TIP3    H234025   2.759   4.419   4.317  0.1601  0.7345  0.6886
 4204TIP3   OH234026   6.045   1.483   0.834  0.3594 -0.8519  0.2118
 4204TIP3    H134027   6.125   1.484   0.782  0.0621 -0.7151 -0.2547
 4204TIP3    H234028   6.073   1.502   0.923  0.5279  2.0054 -0.3825
 4205TIP3   OH234029   0.035   3.590   1.678 -0.3776  0.1393 -0.2898
 4205TIP3    H134030   0.053   3.496   1.673  0.9031  0.3488  0.0565
 4205TIP3    H234031  -0.034   3.605   1.614 -0.5987 -1.0421 -0.3454
 4206TIP3   OH234032   0.275   6.137  13.397  0.3990 -0.1929 -0.2986
 4206TIP3    H134033   0.370   6.128  13.387  0.4328  0.6933 -0.8491
 4206TIP3    H234034   0.241   6.121  13.309  0.0325 -0.4622 -0.1103
 4207TIP3   OH234035   1.458   5.373   3.263  0.5837  0.2383  0.4908
 4207TIP3    H134036   1.378   5.324   3.281  0.7491  0.5902  2.3227
 4207TIP3    H234037   1.496   5.391   3.349  1.9027  1.3017 -0.2689
 4208TIP3   OH234038   1.043   0.275  11.298 -0.8337 -0.2449 -0.0709
 4208TIP3    H134039   1.038   0.335  11.224 -1.3009 -0.5463 -0.2864
 4208TIP3    H234040   1.101   0.205  11.269  0.1087  0.3341  0.3571
 4209TIP3   OH234041   0.543   4.730  14.011 -0.1729 -0.8239  0.1344
 4209TIP3    H134042   0.453   4.759  13.996 -0.2005 -1.2116 -0.5397
 4209TIP3    H234043   0.597   4.805  13.985 -0.1952 -1.6866 -2.7673
 4210TIP3   OH234044   4.131   5.373   1.263  0.6269  0.1276  0.0989
 4210TIP3    H134045   4.175   5.458   1.259 -0.5965  0.7438 -1.2826
 4210TIP3    H234046   4.053   5.389   1.316 -0.7338  0.4872 -1.8818
 4211TIP3   OH234047   3.862   6.173  14.530  0.4531  0.5906 -0.3393
 4211TIP3    H134048   3.862   6.235  14.603 -0.8027  0.9186 -0.6022
 4211TIP3    H234049   3.819   6.219  14.459  1.8820  0.3551 -1.4010
 4212TIP3   OH234050   4.011   6.511  16.268 -0.0658 -0.5728  0.4580
 4212TIP3    H134051   3.924   6.490  16.234 -0.2443  1.2870 -0.3674
 4212TIP3    H234052   3.996   6.541  16.357 -0.1280 -1.3065  0.6978
 4213TIP3   OH234053   5.114   3.383  14.105 -0.2144  0.4372  0.6496
 4213TIP3    H134054   5.198   3.424  14.128 -0.3613  0.9904  0.2138
 4213TIP3    H234055   5.118   3.373  14.010  0.2128 -1.4364  0.8217
 4214TIP3   OH234056   5.809   1.746   3.476  0.0021  0.3560  0.5436
 4214TIP3    H134057   5.795   1.669   3.530 -0.2869 -0.5590 -0.7871
 4214TIP3    H234058   5.887   1.725   3.423  0.6329  1.4603  1.0004
 4215TIP3   OH234059   2.290   0.285  14.005 -0.1991 -0.0825 -0.0777
 4215TIP3    H134060   2.271   0.378  13.991 -0.9295 -0.3301 -0.8198
 4215TIP3    H234061   2.369   0.269  13.955  1.5608  0.7435  2.2702
 4216TIP3   OH234062   1.330   0.390   3.154  0.4080 -0.3215 -0.1559
 4216TIP3    H134063   1.313   0.366   3.244  0.3420 -1.0183 -0.3532
 4216TIP3    H234064   1.391   0.464   3.160 -1.1349  0.9514  0.4970
 4217TIP3   OH234065   6.469   2.548  13.200  0.1513  0.0643 -0.1911
 4217TIP3    H134066   6.538   2.521  13.261  0.7838  0.8576 -0.5317
 4217TIP3    H234067   6.387   2.523  13.243  0.6715 -2.7425 -0.6650
 4218TIP3   OH234068   1.732   6.271  14.163  0.1379 -0.4805 -0.2580
 4218TIP3    H134069   1.647   6.260  14.119  0.9136 -0.9090 -1.7096
 4218TIP3    H234070   1.797   6.251  14.096  1.4550  1.5371  0.3391
 4219TIP3   OH234071   4.466   4.146   5.135  0.1334 -0.1344  0.7847
 4219TIP3    H134072   4.430   4.233   5.147  0.8805  0.1992  0.6875
 4219TIP3    H234073   4.539   4.141   5.197  1.1685 -0.0485 -0.3832
 4220TIP3   OH234074   4.627   6.298   6.068  0.5250 -0.0206 -0.5782
 4220TIP3    H134075   4.533   6.300   6.053  0.5457  0.2959 -0.6721
 4220TIP3    H234076   4.665   6.305   5.980  0.6418  0.7361 -0.4713
 4221TIP3   OH234077   4.218   2.618  11.860  0.3157 -0.3403  0.1186
 4221TIP3    H134078   4.157   2.548  11.837 -2.8531  0.8661  3.7248
 4221TIP3    H234079   4.290   2.573  11.904 -1.0657 -1.5149  1.2994
 4222TIP3   OH234080   2.043   4.964   5.812  0.3527  0.4848 -0.2379
 4222TIP3    H134081   2.069   4.960   5.720 -3.6171  0.6070 -1.5747
 4222TIP3    H234082   2.043   5.057   5.833  0.7486  0.4960 -0.2806
 4223TIP3   OH234083   5.532   3.602  17.275  0.2335 -0.3449 -0.2319
 4223TIP3    H134084   5.490   3.635  17.355 -2.4723  0.6599 -1.9127
 4223TIP3    H234085   5.512   3.509  17.274  0.1183 -0.3259  0.1872
 4224TIP3   OH234086   3.912   6.533  16.600 -0.3938 -0.3890  0.4144
 4224TIP3    H134087   3.988   6.493  16.641 -0.0262 -0.8251 -0.6447
 4224TIP3    H234088   3.838   6.479  16.628 -0.1301 -0.7786  0.3708
 4225TIP3   OH234089   0.777   3.163  13.884  1.0509 -0.6780  0.1391
 4225TIP3    H134090   0.745   3.216  13.811 -0.9514  1.8862  2.6655
 4225TIP3    H234091   0.726   3.083  13.880 -0.4243  0.2465 -0.2234
 4226TIP3   OH234092   5.968   5.382   2.296  0.1540 -0.1434  0.0736
 4226TIP3    H134093   5.903   5.313   2.284 -2.2700  1.8473  0.7664
 4226TIP3    H234094   5.945   5.421   2.381  1.1828  1.7208 -0.4486
 4227TIP3   OH234095   0.878   3.552   4.058 -0.0460 -1.0507  0.1988
 4227TIP3    H134096   0.798   3.555   4.006 -0.9219  0.8758  1.5741
 4227TIP3    H234097   0.930   3.625   4.026 -1.5370  1.5848  3.3158
 4228TIP3   OH234098   4.176   5.575  11.361  0.0409 -0.2255  0.1963
 4228TIP3    H134099   4.190   5.583  11.455  1.7799 -0.6136  0.0164
 4228TIP3    H234100   4.111   5.505  11.352  0.1254 -0.4374  1.1073
 4229TIP3   OH234101   1.051   5.609   4.418  0.3131  0.0678 -0.2746
 4229TIP3    H134102   1.046   5.528   4.367  1.4164  1.2475 -2.4115
 4229TIP3    H234103   1.016   5.676   4.359  1.8508  1.5393  0.4158
 4230TIP3   OH234104   3.967   5.442  16.184 -0.1984  0.4963  0.1639
 4230TIP3    H134105   3.974   5.353  16.219  1.2857 -0.6505 -2.7490
 4230TIP3    H234106   4.014   5.496  16.247  0.7268 -1.1229  0.9271
 4231TIP3   OH234107   3.304   4.275   1.645 -0.4283  0.4640 -0.2427
 4231TIP3    H134108   3.378   4.225   1.681 -0.1559  1.8055  1.1654
 4231TIP3    H234109   3.227   4.226   1.671 -0.2270  1.3037  2.1366
 4232TIP3   OH234110   3.265   3.350   2.355  1.0565  0.0518  0.3716
 4232TIP3    H134111   3.250   3.303   2.273  0.0691 -0.0461  0.5946
 4232TIP3    H234112   3.314   3.288   2.410  0.3383 -0.4748  0.4261
 4233TIP3   OH234113   5.053   4.795   2.292  0.1748 -0.2228 -0.2130
 4233TIP3    H134114   5.028   4.790   2.200 -1.6245  1.8528  0.0782
 4233TIP3    H234115   5.127   4.857   2.294 -0.3067  0.3632 -0.2092
 4234TIP3   OH234116   5.464   6.373  13.367  0.2776  0.0739 -0.1817
 4234TIP3    H134117   5.558   6.367  13.348 -0.0823  0.3027 -2.2891
 4234TIP3    H234118   5.446   6.467  13.367  0.0655  0.0343  0.3350
 4235TIP3   OH234119   5.480   5.439   4.438 -0.0311 -0.4057  0.1211
 4235TIP3    H134120   5.456   5.531   4.423 -0.7131 -0.5992  0.0206
 4235TIP3    H234121   5.553   5.444   4.500  1.1995  0.2932 -1.2967
 4236TIP3   OH234122   6.488   4.622   4.130  0.1414 -0.3867 -0.3374
 4236TIP3    H134123   6.476   4.543   4.077  1.1527 -0.7402 -0.0459
 4236TIP3    H234124   6.577   4.617   4.162  0.8859  1.7720 -1.7997
 4237TIP3   OH234125   4.515   2.687  17.462 -0.0212  0.0503 -0.7868
 4237TIP3    H134126   4.511   2.626  17.389 -3.6922  0.1663 -0.8969
 4237TIP3    H234127   4.559   2.764  17.426  1.9117 -1.3318 -1.5601
 4238TIP3   OH234128   5.974   5.723   1.674  0.4218  0.0879 -0.0802
 4238TIP3    H134129   5.901   5.720   1.613  0.5026 -0.7570 -0.1510
 4238TIP3    H234130   6.019   5.639   1.662  1.6035  0.7282 -0.2818
 4239TIP3   OH234131   3.988   6.142   4.966 -0.0690 -0.2796 -0.2037
 4239TIP3    H134132   4.083   6.146   4.960 -0.0705  1.2173  0.3806
 4239TIP3    H234133   3.970   6.064   5.019  0.8957  0.0961  0.7123
 4240TIP3   OH234134   6.001   3.960   4.131  0.3380 -0.1987  0.6067
 4240TIP3    H134135   5.995   4.052   4.157 -0.2408 -0.3987  1.1902
 4240TIP3    H234136   5.927   3.946   4.073  0.5885 -0.2287  0.2890
 4241TIP3   OH234137   5.006   2.176   0.861 -0.2103 -0.2717 -0.0778
 4241TIP3    H134138   4.966   2.131   0.936  0.6636 -1.5707 -0.3488
 4241TIP3    H234139   5.096   2.192   0.888 -0.0210 -0.3195 -0.6676
 4242TIP3   OH234140   4.704   5.460  14.258 -0.5324 -0.7067 -0.4731
 4242TIP3    H134141   4.740   5.425  14.339  1.6470 -0.0053 -1.0675
 4242TIP3    H234142   4.739   5.402  14.190 -1.0365 -0.3577 -1.0342
 4243TIP3   OH234143   3.257   0.528  16.905  0.3482 -0.6011 -0.0909
 4243TIP3    H134144   3.238   0.490  16.819  0.2097 -0.5286 -0.0919
 4243TIP3    H234145   3.284   0.618  16.886 -2.3008  0.3052  0.1355
 4244TIP3   OH234146   0.094   5.122  12.979  0.0699  0.3816  0.1206
 4244TIP3    H134147   0.179   5.127  12.935  0.5296  3.8806  1.0347
 4244TIP3    H234148   0.037   5.074  12.918  2.1395 -0.1372 -1.5037
 4245TIP3   OH234149   4.064   4.191  12.240 -0.1678 -0.4025  0.5154
 4245TIP3    H134150   4.134   4.126  12.240  0.0264 -0.2763 -1.7559
 4245TIP3    H234151   3.983   4.141  12.248  0.0644 -0.7146  0.9743
 4246TIP3   OH234152   4.990   5.958   0.335 -0.2689 -0.2700 -0.1207
 4246TIP3    H134153   5.047   5.937   0.262  0.0125 -0.5704  0.1811
 4246TIP3    H234154   4.902   5.943   0.302 -0.1817  0.2135 -0.5942
 4247TIP3   OH234155   6.028   4.520   6.742 -0.0523  0.1014  0.0876
 4247TIP3    H134156   5.964   4.575   6.786 -0.9802 -1.0987  0.3070
 4247TIP3    H234157   6.002   4.430   6.764  1.0202 -0.4542 -0.7684
 4248TIP3   OH234158   2.288   4.301  14.386 -0.1660  0.2063 -0.0796
 4248TIP3    H134159   2.194   4.306  14.366 -0.2084 -0.1689  0.0361
 4248TIP3    H234160   2.330   4.343  14.310 -0.4234  0.3687 -0.1356
 4249TIP3   OH234161   5.655   6.044  15.489  0.1614  0.2909  0.0509
 4249TIP3    H134162   5.656   6.084  15.402  1.2330 -2.7046 -1.4484
 4249TIP3    H234163   5.571   6.000  15.495  1.1571 -1.8543 -0.7337
 4250TIP3   OH234164   5.822   0.543   6.603 -0.2672  0.0448 -0.1503
 4250TIP3    H134165   5.801   0.464   6.652 -0.6955 -0.3678 -0.9843
 4250TIP3    H234166   5.904   0.522   6.556 -0.1282  0.2595 -0.0060
 4251TIP3   OH234167   4.120   1.750  15.546  0.4766 -0.4955  0.3378
 4251TIP3    H134168   4.080   1.663  15.540  0.5384 -0.4853 -0.2568
 4251TIP3    H234169   4.206   1.734  15.586  0.2271 -0.6216  0.8318
 4252TIP3   OH234170   6.068   0.872   2.464  0.3362 -0.1896 -0.3831
 4252TIP3    H134171   6.026   0.879   2.378 -0.5562 -1.3444 -0.0667
 4252TIP3    H234172   6.040   0.787   2.498  0.4141  0.3790  1.1932
 4253TIP3   OH234173   1.087   5.765   2.831 -0.5747  0.5578  0.0240
 4253TIP3    H134174   1.017   5.736   2.889 -0.6780  1.6278  0.4441
 4253TIP3    H234175   1.042   5.806   2.758 -0.4551 -1.0006 -0.9813
 4254TIP3   OH234176   6.631   3.765   0.618  0.0748  0.5136  0.4611
 4254TIP3    H134177   6.622   3.834   0.684 -1.1986 -1.0322  1.9907
 4254TIP3    H234178   6.572   3.792   0.547 -0.6788  0.8383  1.1948
 4255TIP3   OH234179   3.410   2.610  12.683 -0.2655  0.5484 -0.0570
 4255TIP3    H134180   3.387   2.690  12.729  0.1011 -0.0411  1.1860
 4255TIP3    H234181   3.490   2.632  12.636 -0.5607  1.1145 -0.3059
 4256TIP3   OH234182   2.597   6.304   1.406 -0.1780  0.1112 -0.4224
 4256TIP3    H134183   2.622   6.244   1.476 -1.8703 -0.3912 -0.2081
 4256TIP3    H234184   2.662   6.289   1.337  0.4145 -0.7347  0.3019
 4257TIP3   OH234185   5.652   4.667  14.611 -0.1578 -0.6651  0.2521
 4257TIP3    H134186   5.568   4.714  14.617  0.9657  1.2885  1.6095
 4257TIP3    H234187   5.662   4.649  14.517 -1.0293  1.1521 -0.2393
 4258TIP3   OH234188   3.577   1.389  12.719  0.0730  0.1693  0.4788
 4258TIP3    H134189   3.565   1.373  12.625 -0.4785  2.3982  0.1070
 4258TIP3    H234190   3.610   1.306  12.753 -1.6687 -1.3888 -1.3012
 4259TIP3   OH234191   6.630   2.930  15.178  0.3885  0.1059 -0.1496
 4259TIP3    H134192   6.602   2.854  15.126  0.3076  0.4232 -0.5689
 4259TIP3    H234193   6.695   2.894  15.238  1.0628 -0.1191 -0.9901
 4260TIP3   OH234194   6.271   4.874   3.023 -0.4951  0.6389  0.1968
 4260TIP3    H134195   6.269   4.963   3.059 -0.8664  1.6394 -2.1516
 4260TIP3    H234196   6.358   4.840   3.047 -0.1695  1.7999  0.7114
 4261TIP3   OH234197   6.648   2.512   5.552 -0.0727  0.5274  0.2107
 4261TIP3    H134198   6.621   2.456   5.625  0.7704 -0.5117 -0.2467
 4261TIP3    H234199   6.573   2.514   5.493  0.2461 -0.9957 -0.2710
 4262TIP3   OH234200   3.873   2.337  14.665 -0.0873 -0.1879  0.2003
 4262TIP3    H134201   3.818   2.300  14.734 -0.5701 -0.5471 -0.3641
 4262TIP3    H234202   3.858   2.280  14.590  2.1636 -1.1688  0.4148
 4263TIP3   OH234203   2.672   3.706   2.176  0.2619 -0.1406 -0.1297
 4263TIP3    H134204   2.718   3.685   2.095 -0.4738 -0.9778 -0.3537
 4263TIP3    H234205   2.633   3.792   2.161 -0.1031 -0.4114 -0.7794
 4264TIP3   OH234206   3.122   6.157   4.986 -0.3383  0.2158  0.4245
 4264TIP3    H134207   3.180   6.111   4.925 -3.2869 -0.2794 -2.2720
 4264TIP3    H234208   3.086   6.089   5.042  0.7088  0.3674  1.3229
 4265TIP3   OH234209   3.114   2.137   1.824 -0.4943  0.0545 -0.1286
 4265TIP3    H134210   3.036   2.185   1.797 -1.9320 -1.5544  0.9549
 4265TIP3    H234211   3.134   2.080   1.750  0.6003  1.4922 -0.9999
 4266TIP3   OH234212   2.332   6.044  13.997  0.2295 -0.3961  0.3334
 4266TIP3    H134213   2.411   6.072  14.044 -0.3574 -0.8537  1.6452
 4266TIP3    H234214   2.338   6.088  13.912  2.3235 -1.0926  0.0497
 4267TIP3   OH234215   1.473   5.851   5.616 -0.3607 -0.0311 -0.2761
 4267TIP3    H134216   1.540   5.919   5.623  0.3103 -0.6336 -0.7657
 4267TIP3    H234217   1.490   5.793   5.690  0.5797 -0.9831 -1.2176
 4268TIP3   OH234218   0.125   1.821   1.785 -0.4481 -0.1742 -0.0149
 4268TIP3    H134219   0.189   1.782   1.726  0.0055  0.4859  0.0362
 4268TIP3    H234220   0.176   1.871   1.848 -0.9704 -0.2708  0.5008
 4269TIP3   OH234221   3.640   3.820  17.296  0.0685 -0.0005 -0.0883
 4269TIP3    H134222   3.715   3.879  17.294  0.0023  0.0872 -0.0050
 4269TIP3    H234223   3.678   3.732  17.297  0.2494  0.0297  2.6601
 4270TIP3   OH234224   0.498   2.631   1.989 -0.6584  0.2390 -0.2526
 4270TIP3    H134225   0.575   2.667   2.033 -0.6877  0.3026 -0.2541
 4270TIP3    H234226   0.475   2.554   2.041 -0.5428  0.1705 -0.3009
 4271TIP3   OH234227   5.768   3.346   4.022  0.1032 -0.4602 -0.1855
 4271TIP3    H134228   5.767   3.254   4.049  0.7342 -0.2664  0.5370
 4271TIP3    H234229   5.677   3.375   4.031  0.3938 -0.1885  2.6228
 4272TIP3   OH234230   4.758   4.326  16.313  0.2781 -0.7678 -0.4540
 4272TIP3    H134231   4.763   4.275  16.232  2.0760 -1.8060  0.2307
 4272TIP3    H234232   4.796   4.411  16.290 -0.1609 -0.7009 -0.9406
 4273TIP3   OH234233   2.681   5.214   3.113 -0.3288 -0.1334 -0.1750
 4273TIP3    H134234   2.750   5.246   3.054  2.5303 -0.0815  2.9156
 4273TIP3    H234235   2.681   5.119   3.102  0.7391 -0.1942  0.2253
 4274TIP3   OH234236   4.223   0.407   3.610  0.5922 -0.0304 -0.2009
 4274TIP3    H134237   4.127   0.408   3.607  0.6040  1.7933 -1.0129
 4274TIP3    H234238   4.246   0.315   3.604 -1.0710 -0.3894 -1.8377
 4275TIP3   OH234239   3.203   0.962   2.740 -0.2120  0.4788  0.0834
 4275TIP3    H134240   3.188   0.882   2.689 -1.5903 -0.4132  1.8052
 4275TIP3    H234241   3.133   1.022   2.712  0.4370  0.8783 -0.7358
 4276TIP3   OH234242   0.656   4.707   4.424 -0.0477 -0.0432  0.1231
 4276TIP3    H134243   0.731   4.761   4.449 -0.0278  0.2279 -0.5102
 4276TIP3    H234244   0.654   4.637   4.490  0.5748  0.1164  0.3210
 4277TIP3   OH234245   4.885   3.155  16.843  0.2071  0.4135  0.2225
 4277TIP3    H134246   4.806   3.114  16.806 -0.1145 -0.8019  2.1389
 4277TIP3    H234247   4.882   3.245  16.810 -1.8370  0.3318  0.0280
 4278TIP3   OH234248   4.235   1.514   2.372  0.1774 -0.5860  0.2657
 4278TIP3    H134249   4.230   1.575   2.446 -1.3973  3.1877 -2.6147
 4278TIP3    H234250   4.325   1.521   2.341  0.6504 -1.6470  1.3152
 4279TIP3   OH234251   2.416   2.195  13.682  0.1253  0.4070  0.6064
 4279TIP3    H134252   2.413   2.256  13.756  0.0980  1.2568 -0.0686
 4279TIP3    H234253   2.367   2.240  13.613 -1.1862 -1.0444  0.5430
 4280TIP3   OH234254   5.146   2.563   5.859 -0.4914  0.1217 -0.2691
 4280TIP3    H134255   5.070   2.520   5.821  0.5372 -1.8281 -0.2713
 4280TIP3    H234256   5.206   2.491   5.880  0.9057  1.5027  0.7140
 4281TIP3   OH234257   0.691   5.235  11.916  0.0406 -0.2668  0.3532
 4281TIP3    H134258   0.634   5.301  11.878 -0.9427 -0.9732  0.5593
 4281TIP3    H234259   0.659   5.152  11.881  3.1135 -0.5387 -2.3381
 4282TIP3   OH234260   3.238   4.282  11.493 -0.1389  0.3264 -0.0376
 4282TIP3    H134261   3.166   4.291  11.431  1.1276 -0.3895 -1.6793
 4282TIP3    H234262   3.249   4.187  11.503  0.7263  0.4204  0.0022
 4283TIP3   OH234263   1.502   1.903  16.725 -0.0385 -0.1459 -0.4681
 4283TIP3    H134264   1.466   1.842  16.789 -1.8338  1.4633  0.1662
 4283TIP3    H234265   1.576   1.944  16.769  1.1778 -1.7746 -0.8987
 4284TIP3   OH234266   4.800   6.086   3.346  0.6383 -0.1804  0.6484
 4284TIP3    H134267   4.732   6.051   3.289 -0.3492  0.8387  1.1772
 4284TIP3    H234268   4.848   6.148   3.291  0.0886  0.3287  0.7413
 4285TIP3   OH234269   5.564   3.213   0.241 -0.2483 -0.2070  0.0891
 4285TIP3    H134270   5.546   3.129   0.200 -0.7248 -0.5234  0.9134
 4285TIP3    H234271   5.659   3.214   0.253 -0.0415  0.0756 -1.3602
 4286TIP3   OH234272   2.048   0.639   2.791 -0.0074  0.5810  0.2253
 4286TIP3    H134273   1.980   0.592   2.742 -1.1598  0.9802  1.3643
 4286TIP3    H234274   2.097   0.569   2.836 -1.0462  0.3591  1.0758
 4287TIP3   OH234275   1.094   1.792   5.090  0.6600 -0.4505 -0.4674
 4287TIP3    H134276   1.049   1.754   5.166  0.2390 -0.0546 -0.5163
 4287TIP3    H234277   1.024   1.832   5.038  1.2676  2.3223  0.6728
 4288TIP3   OH234278   0.633   6.245  13.470 -0.0369 -0.1492 -0.1173
 4288TIP3    H134279   0.591   6.290  13.543 -0.5974  0.7728 -0.9841
 4288TIP3    H234280   0.609   6.153  13.482  1.0496 -0.2494  1.6246
 4289TIP3   OH234281   2.943   1.206  11.193 -0.6559  0.4729 -0.2556
 4289TIP3    H134282   3.004   1.155  11.140  0.1963  1.0132  0.1836
 4289TIP3    H234283   2.926   1.284  11.140  0.0839  0.9456  0.1857
 4290TIP3   OH234284   6.543   6.095   3.070 -0.0009 -0.4091  0.4806
 4290TIP3    H134285   6.469   6.049   3.111 -0.2931 -0.1860  0.2053
 4290TIP3    H234286   6.508   6.128   2.987  0.4141 -0.3171  0.3397
 4291TIP3   OH234287   5.600   6.072  17.468 -0.1386  0.6798 -0.5319
 4291TIP3    H134288   5.578   6.161  17.439 -0.7840  0.1648 -1.6976
 4291TIP3    H234289   5.561   6.065  17.555  1.1245  1.9898  0.1908
 4292TIP3   OH234290   1.924   3.466   1.441 -0.6442 -0.0871 -0.3713
 4292TIP3    H134291   1.989   3.513   1.388 -0.2827 -0.8450 -0.6181
 4292TIP3    H234292   1.881   3.407   1.379 -0.9400 -0.2417 -0.0234
 4293TIP3   OH234293   1.511   5.113   2.596 -0.2470  0.1822  0.1044
 4293TIP3    H134294   1.589   5.126   2.651  0.3861  3.2542 -1.2661
 4293TIP3    H234295   1.543   5.122   2.507 -2.0945  1.1555 -0.5180
 4294TIP3   OH234296   3.043   4.495   1.276  0.2128  0.2915  0.5755
 4294TIP3    H134297   2.995   4.526   1.352 -1.8210 -0.9916 -0.1236
 4294TIP3    H234298   3.112   4.439   1.312  0.7204  1.4951  1.5456
 4295TIP3   OH234299   2.629   4.358   4.618 -0.7026  0.2049  1.0682
 4295TIP3    H134300   2.622   4.451   4.636 -1.1385  0.5773 -0.8149
 4295TIP3    H234301   2.651   4.352   4.525 -0.2034 -1.5621  1.2511
 4296TIP3   OH234302   2.228   6.227   6.497 -0.2915  0.5895 -0.1378
 4296TIP3    H134303   2.212   6.184   6.580  0.9567 -1.3057 -0.8147
 4296TIP3    H234304   2.144   6.225   6.451 -0.0348 -2.3579 -0.6439
 4297TIP3   OH234305   1.954   5.090  14.473  0.1539 -0.0031  0.2274
 4297TIP3    H134306   1.990   5.029  14.408  0.1147  0.3308 -0.1126
 4297TIP3    H234307   1.859   5.080  14.466  0.1357 -1.8470  2.0386
 4298TIP3   OH234308   1.255   6.744   0.864  0.2022 -0.2093 -0.3672
 4298TIP3    H134309   1.290   6.687   0.933 -0.4196  0.5892  0.6268
 4298TIP3    H234310   1.331   6.764   0.809  0.3566 -2.3749 -1.0608
 4299TIP3   OH234311   6.625   2.169   2.983 -0.6676  0.1511 -0.5981
 4299TIP3    H134312   6.719   2.185   2.991  0.0149 -2.5499 -1.8803
 4299TIP3    H234313   6.600   2.131   3.067 -0.1156 -1.0133 -0.9383
 4300TIP3   OH234314   4.953   5.799   2.550  0.2910 -0.3282  0.3792
 4300TIP3    H134315   4.911   5.765   2.629 -1.5454  0.0454 -0.3883
 4300TIP3    H234316   5.024   5.738   2.532 -0.1666 -1.2195  1.5151
 4301TIP3   OH234317   1.337   2.348  16.049  0.1469  0.3242  0.0147
 4301TIP3    H134318   1.297   2.298  16.120 -0.8302  0.2274 -0.5835
 4301TIP3    H234319   1.353   2.434  16.086 -0.4425  0.3002  0.3330
 4302TIP3   OH234320   5.054   2.291   4.909 -0.2004  0.1710  0.1618
 4302TIP3    H134321   5.057   2.299   5.005  2.7046 -1.1420  0.2829
 4302TIP3    H234322   5.034   2.380   4.879 -3.7268  0.1342  1.9502
 4303TIP3   OH234323   3.075   1.380  14.011  0.0199 -0.5757 -0.1709
 4303TIP3    H134324   3.054   1.298  13.965  1.4332  0.5045 -2.9577
 4303TIP3    H234325   3.013   1.443  13.976  2.2340  0.6790 -2.1175
 4304TIP3   OH234326   1.714   1.708  15.441  0.0067  0.6880  0.4849
 4304TIP3    H134327   1.680   1.633  15.489  1.2533 -1.7579 -2.1528
 4304TIP3    H234328   1.804   1.718  15.471  0.1155  0.5408  0.2145
 4305TIP3   OH234329   2.500   1.287  13.418 -0.0112  0.7631 -0.0861
 4305TIP3    H134330   2.456   1.323  13.496 -1.7880  0.3782 -0.8715
 4305TIP3    H234331   2.551   1.213  13.451  1.7948  2.4748  1.1789
 4306TIP3   OH234332   5.664   1.715  13.463 -0.1928  0.0039 -0.1540
 4306TIP3    H134333   5.604   1.655  13.419  0.4753 -1.9532  1.4040
 4306TIP3    H234334   5.731   1.657  13.500  1.2465  1.8846  0.2932
 4307TIP3   OH234335   4.607   3.753   1.855 -0.0308 -0.3876 -0.1793
 4307TIP3    H134336   4.666   3.821   1.887  1.0176  0.0237 -2.6973
 4307TIP3    H234337   4.665   3.680   1.831 -0.6055 -0.4078 -1.6604
 4308TIP3   OH234338   2.828   1.007  16.213  0.0521 -0.1701  0.4601
 4308TIP3    H134339   2.813   0.978  16.124 -0.1540 -0.2300  0.5133
 4308TIP3    H234340   2.823   0.927  16.266  0.0254 -0.1149  0.5420
 4309TIP3   OH234341   6.246   5.083   4.532  1.0207 -0.7117 -0.1100
 4309TIP3    H134342   6.236   5.125   4.447 -0.8933 -0.8285  0.0281
 4309TIP3    H234343   6.278   4.994   4.512  0.7647 -0.6751 -0.6806
 4310TIP3   OH234344   5.129   4.524   5.813  0.1638 -0.0149 -0.2440
 4310TIP3    H134345   5.160   4.438   5.841 -1.3709 -1.1598 -1.8434
 4310TIP3    H234346   5.180   4.543   5.735 -0.9352 -0.4852 -1.1026
 4311TIP3   OH234347   5.463   2.651   1.168 -0.4840 -0.2828 -0.3235
 4311TIP3    H134348   5.383   2.693   1.136 -0.3966  1.2035  1.2572
 4311TIP3    H234349   5.434   2.568   1.206 -1.1415 -0.1624 -0.5552
 4312TIP3   OH234350   3.885   4.099  16.399 -0.2398  0.3743  0.1802
 4312TIP3    H134351   3.799   4.057  16.396  0.3126 -0.9847  1.6809
 4312TIP3    H234352   3.905   4.106  16.493  2.2097 -1.4329 -0.1250
 4313TIP3   OH234353   4.738   3.084   0.232 -0.8853  0.1798 -0.3626
 4313TIP3    H134354   4.675   3.047   0.170 -0.4501 -0.6741 -0.3096
 4313TIP3    H234355   4.822   3.047   0.206 -0.7276 -0.4233  0.8838
 4314TIP3   OH234356   0.017   0.015   5.502  0.0886  0.1992 -0.1648
 4314TIP3    H134357   0.048   0.044   5.588  2.3686 -0.1932 -0.8012
 4314TIP3    H234358  -0.073  -0.014   5.518 -0.3143  2.1888  1.6218
 4315TIP3   OH234359   1.483   5.491   5.850 -0.3639 -0.1555 -0.1499
 4315TIP3    H134360   1.533   5.572   5.859 -1.1791  0.4831 -1.2307
 4315TIP3    H234361   1.512   5.437   5.924 -1.2408  1.8765  1.7991
 4316TIP3   OH234362   0.228   2.546  11.843 -0.8169 -0.3531  0.1408
 4316TIP3    H134363   0.271   2.630  11.829 -1.9547  0.3974  0.9485
 4316TIP3    H234364   0.238   2.499  11.759  0.6089  0.1991 -0.0227
 4317TIP3   OH234365   4.079   5.308  17.156 -0.6177 -0.4598  0.2640
 4317TIP3    H134366   4.084   5.243  17.226  1.0880  0.0349  0.6454
 4317TIP3    H234367   4.005   5.364  17.181  0.9032  0.6708  2.5687
 4318TIP3   OH234368   4.679   0.138   0.899  0.1780  0.2728 -0.8345
 4318TIP3    H134369   4.629   0.107   0.824 -1.9397 -1.3063  1.1111
 4318TIP3    H234370   4.644   0.226   0.916 -0.0719  0.2210 -1.0762
 4319TIP3   OH234371   4.193   4.837   5.591  0.0979  0.0660 -0.3745
 4319TIP3    H134372   4.219   4.761   5.643 -0.6003  0.6740  0.9127
 4319TIP3    H234373   4.165   4.801   5.507 -1.4435 -1.2371  0.6465
 4320TIP3   OH234374   3.059   3.240  14.859 -0.3754 -0.2226 -0.2327
 4320TIP3    H134375   3.006   3.310  14.899  0.5937  0.4606 -0.1209
 4320TIP3    H234376   3.149   3.268  14.872 -0.0074 -0.6133 -1.7847
 4321TIP3   OH234377   6.403   3.829  11.303  0.3577 -0.3690  0.3826
 4321TIP3    H134378   6.488   3.844  11.261  1.5460 -1.9137  2.1265
 4321TIP3    H234379   6.352   3.781  11.237  1.0455 -0.0009 -0.4340
 4322TIP3   OH234380   0.736   5.975   0.483 -0.0197  0.0675  0.0100
 4322TIP3    H134381   0.778   5.898   0.444  0.8782  0.8374 -0.5995
 4322TIP3    H234382   0.706   6.026   0.407  2.2546  1.8782  0.2274
 4323TIP3   OH234383   6.605   4.358  16.310 -0.3767 -0.3964 -0.0397
 4323TIP3    H134384   6.575   4.270  16.332 -3.1848  0.4473 -0.1662
 4323TIP3    H234385   6.607   4.360  16.215  0.2907 -0.4912 -0.0325
 4324TIP3   OH234386   1.875   0.465   2.671 -0.2448  0.3984  0.5755
 4324TIP3    H134387   1.873   0.394   2.735 -0.3898 -0.9157 -0.8103
 4324TIP3    H234388   1.944   0.439   2.609 -1.3200  0.6804 -0.7864
 4325TIP3   OH234389   0.715   6.027  13.084  0.6228 -0.1195 -0.1254
 4325TIP3    H134390   0.783   6.089  13.058  0.7404 -0.3184 -0.2989
 4325TIP3    H234391   0.756   5.941  13.075 -0.2158 -0.3820 -2.0815
 4326TIP3   OH234392   0.549   3.299   4.787  0.1567  0.0599  0.8054
 4326TIP3    H134393   0.547   3.344   4.702 -1.8486  0.9369  1.2568
 4326TIP3    H234394   0.607   3.224   4.773  0.5633  0.6743 -1.0846
 4327TIP3   OH234395   5.737   3.651  12.943 -0.0792  0.8536  0.4449
 4327TIP3    H134396   5.762   3.733  12.899 -1.6384  1.1150 -0.0179
 4327TIP3    H234397   5.715   3.591  12.872 -0.3961  0.5279  0.8109
 4328TIP3   OH234398   4.090   4.661   3.122 -0.2361 -0.0265  0.0517
 4328TIP3    H134399   4.131   4.576   3.135 -0.5888 -0.2702 -0.3878
 4328TIP3    H234400   4.112   4.711   3.201  0.9537 -0.1208 -0.2124
 4329TIP3   OH234401   4.743   1.493  13.804 -0.3526  0.2998 -0.5079
 4329TIP3    H134402   4.773   1.582  13.825 -1.0033  0.5442 -0.5893
 4329TIP3    H234403   4.653   1.505  13.774 -1.1739 -0.5931  1.4424
 4330TIP3   OH234404   1.690   4.033   5.641  0.2216 -0.3147 -0.3460
 4330TIP3    H134405   1.738   3.957   5.608  0.2497 -0.0614 -0.9009
 4330TIP3    H234406   1.756   4.101   5.651  0.3736 -0.6480  1.1109
 4331TIP3   OH234407   0.591   4.109   5.066 -0.5750 -0.0146  0.5127
 4331TIP3    H134408   0.680   4.103   5.031 -0.8749 -0.6913 -0.1592
 4331TIP3    H234409   0.598   4.074   5.155 -0.6284 -2.4763 -0.3869
 4332TIP3   OH234410   4.897   4.001   5.618  0.3483  0.0517  0.5719
 4332TIP3    H134411   4.910   3.909   5.593 -2.0956  0.5521 -3.3031
 4332TIP3    H234412   4.814   4.000   5.666 -1.2653  0.4283 -2.0295
 4333TIP3   OH234413   5.830   5.538   3.003 -0.0329  0.1639 -0.3254
 4333TIP3    H134414   5.811   5.445   3.017  0.2247  0.2479  0.6706
 4333TIP3    H234415   5.892   5.560   3.072  1.4927  0.5970 -1.7589
 4334TIP3   OH234416   5.630   3.538   0.862  0.2585 -0.3995 -0.6179
 4334TIP3    H134417   5.606   3.574   0.776  1.6531 -0.6891 -1.1570
 4334TIP3    H234418   5.662   3.450   0.843 -0.7652 -1.0322  0.4007
 4335TIP3   OH234419   1.885   1.647   6.405 -0.2463  0.0352 -0.2610
 4335TIP3    H134420   1.790   1.637   6.412 -0.1428 -0.8155  0.0382
 4335TIP3    H234421   1.912   1.578   6.344  0.1516  0.4224 -0.5248
 4336TIP3   OH234422   1.416   5.723   3.891  0.2204 -0.6620  0.6018
 4336TIP3    H134423   1.418   5.627   3.888 -1.1404 -0.6990 -0.0412
 4336TIP3    H234424   1.344   5.747   3.833 -0.0954  0.7126  1.5189
 4337TIP3   OH234425   5.225   4.286  13.206 -0.2640 -0.3968 -0.0238
 4337TIP3    H134426   5.225   4.368  13.256  2.2553  0.8020 -1.7653
 4337TIP3    H234427   5.133   4.269  13.189 -0.9134  1.7556  0.9252
 4338TIP3   OH234428   4.055   4.937  14.490 -0.0552  0.3254 -0.0374
 4338TIP3    H134429   4.113   4.949  14.565 -2.2882  0.8435  1.7029
 4338TIP3    H234430   4.047   4.842  14.481  1.2833  0.2333 -0.5499
 4339TIP3   OH234431   6.419   0.872   5.876  0.1695 -0.2601  0.4199
 4339TIP3    H134432   6.434   0.899   5.966 -0.5063  0.5010  0.3187
 4339TIP3    H234433   6.473   0.932   5.824  0.7294 -0.8389  0.3202
 4340TIP3   OH234434   3.179   1.141   1.306 -0.0572 -0.8558 -0.0946
 4340TIP3    H134435   3.147   1.219   1.350  1.6157 -0.6770  0.8988
 4340TIP3    H234436   3.101   1.088   1.292 -0.9109 -0.0691  1.3999
 4341TIP3   OH234437   4.283   1.976   3.097 -0.0010  0.1333  0.1118
 4341TIP3    H134438   4.243   1.916   3.035  0.4157 -1.2343  1.1288
 4341TIP3    H234439   4.281   2.061   3.052  1.1079 -0.9444 -2.1788
 4342TIP3   OH234440   5.843   0.782  17.272  0.4198 -0.5174 -0.2873
 4342TIP3    H134441   5.747   0.782  17.270  0.4008 -0.2563  0.4038
 4342TIP3    H234442   5.869   0.766  17.181 -0.2844  1.1896 -0.8327
 4343TIP3   OH234443   6.225   1.764   2.080  0.1474  0.5308 -0.2135
 4343TIP3    H134444   6.145   1.814   2.095 -0.4505 -0.4274 -0.0858
 4343TIP3    H234445   6.287   1.827   2.043 -0.3052  1.5341  0.6964
 4344TIP3   OH234446   0.489   1.221   3.957  0.3744 -0.0141 -0.2000
 4344TIP3    H134447   0.528   1.168   4.026 -1.8291 -0.0868  1.0940
 4344TIP3    H234448   0.477   1.307   3.996  0.2890  0.3168 -0.9418
 4345TIP3   OH234449   5.505   6.113   3.208  0.0178 -0.1124 -0.2421
 4345TIP3    H134450   5.490   6.035   3.154 -1.9627  0.6395 -0.8429
 4345TIP3    H234451   5.503   6.080   3.298  0.5615 -0.9367 -0.5101
 4346TIP3   OH234452   6.286   3.070  12.323  0.7157 -0.6595  0.0957
 4346TIP3    H134453   6.234   2.996  12.355 -1.5230  0.9744  0.4617
 4346TIP3    H234454   6.250   3.090  12.237  1.5934 -0.2552 -0.1874
 4347TIP3   OH234455   1.859   3.639  13.585  0.1144  0.4745 -0.7550
 4347TIP3    H134456   1.794   3.689  13.534 -1.3829  1.6288  2.0860
 4347TIP3    H234457   1.810   3.564  13.618  0.8325  0.1939 -0.3115
 4348TIP3   OH234458   0.903   3.266  16.673  0.0326  0.6979 -0.2406
 4348TIP3    H134459   0.842   3.236  16.606  1.5085 -0.3085 -1.1917
 4348TIP3    H234460   0.969   3.198  16.677 -0.3939  0.3406  2.8242
 4349TIP3   OH234461   4.291   0.689  13.038 -0.0106 -0.6503 -0.3271
 4349TIP3    H134462   4.235   0.613  13.024 -2.0732  0.8908 -0.9107
 4349TIP3    H234463   4.241   0.763  13.004  2.0262  0.9704 -0.0453
 4350TIP3   OH234464   2.347   1.712   5.571  0.4227 -0.3208 -0.8505
 4350TIP3    H134465   2.376   1.692   5.660  2.2224 -1.2570 -1.5918
 4350TIP3    H234466   2.310   1.800   5.577 -2.1141 -1.4202  1.3339
 4351TIP3   OH234467   4.696   3.569  16.216 -0.0532 -0.2688 -0.0660
 4351TIP3    H134468   4.748   3.648  16.231  0.8832 -1.0206  0.8752
 4351TIP3    H234469   4.620   3.579  16.273 -0.8841  0.7697 -1.3283
 4352TIP3   OH234470   6.336   6.603   0.967  0.2659 -0.1908 -0.7929
 4352TIP3    H134471   6.298   6.659   1.036 -0.0458 -1.6952  0.2976
 4352TIP3    H234472   6.426   6.589   0.995  0.2743 -0.4219 -0.9385
 4353TIP3   OH234473   3.602   5.046  17.081  0.4023 -0.2900 -0.3245
 4353TIP3    H134474   3.568   4.986  17.015  1.8592 -2.4731  0.7879
 4353TIP3    H234475   3.696   5.051  17.063  0.3993  1.3675 -0.1106
 4354TIP3   OH234476   5.830   0.588   4.919 -0.6902  0.5249  0.4405
 4354TIP3    H134477   5.924   0.604   4.930  0.0955 -2.1602 -1.3385
 4354TIP3    H234478   5.794   0.596   5.008  1.6223 -0.5223  1.5646
 4355TIP3   OH234479   4.019   2.224  11.108  0.1840 -0.2402 -0.1684
 4355TIP3    H134480   4.092   2.163  11.095 -0.5483 -0.9500 -0.9936
 4355TIP3    H234481   3.965   2.183  11.175 -0.1493 -0.3512 -0.5038
 4356TIP3   OH234482   1.967   5.725   3.695  0.1884 -0.2637  0.5838
 4356TIP3    H134483   1.993   5.638   3.727  0.4557 -0.0114  1.0647
 4356TIP3    H234484   2.043   5.780   3.713 -0.4884  0.3781  1.5333
 4357TIP3   OH234485   1.142   3.925  16.105 -0.3797 -0.2641  0.0733
 4357TIP3    H134486   1.191   3.968  16.035 -3.0464 -2.4871 -3.5483
 4357TIP3    H234487   1.050   3.941  16.083 -1.3585 -2.0649  2.4327
 4358TIP3   OH234488   5.353   3.835   1.677  0.2749  0.3509 -0.5320
 4358TIP3    H134489   5.296   3.771   1.720 -0.3822  1.5040  0.3636
 4358TIP3    H234490   5.300   3.872   1.607  0.2975  0.6355 -0.4011
 4359TIP3   OH234491   0.643   6.080   4.438 -0.7764 -0.0743  0.1250
 4359TIP3    H134492   0.654   6.165   4.397 -0.4201 -0.8209 -1.4020
 4359TIP3    H234493   0.731   6.044   4.445 -1.0106 -0.7311 -0.1664
 4360TIP3   OH234494   4.751   5.736  15.179  0.2518  0.6086  0.4662
 4360TIP3    H134495   4.791   5.650  15.195  0.1920  0.3113 -0.8625
 4360TIP3    H234496   4.740   5.774  15.266  1.0506 -0.3837  1.0202
 4361TIP3   OH234497   0.623   3.172  11.639  0.4046 -0.2900  0.1472
 4361TIP3    H134498   0.567   3.095  11.642  0.1050 -0.0652  0.4119
 4361TIP3    H234499   0.675   3.161  11.559 -0.1680 -0.3969 -0.2153
 4362TIP3   OH234500   0.891   4.236  13.892 -0.2397  0.4479 -0.0426
 4362TIP3    H134501   0.819   4.257  13.952 -2.1059 -0.9558 -1.6250
 4362TIP3    H234502   0.893   4.309  13.830 -0.2603  0.5248  0.0480
 4363TIP3   OH234503   1.040   1.967  10.675  0.3909  0.2301  0.2281
 4363TIP3    H134504   1.130   1.983  10.705 -0.0841  0.4096  1.6666
 4363TIP3    H234505   0.988   2.035  10.719 -0.5492 -0.3455  0.0327
 4364TIP3   OH234506   3.894   0.172   1.861 -0.2085  0.2545  0.6605
 4364TIP3    H134507   3.885   0.118   1.940 -0.8040  0.2469  0.5948
 4364TIP3    H234508   3.922   0.257   1.894 -0.6500  0.3099  0.9051
 4365TIP3   OH234509   5.793   4.872  13.678 -0.6302  0.3434  0.3434
 4365TIP3    H134510   5.797   4.782  13.647 -0.7942  0.1398  0.9039
 4365TIP3    H234511   5.884   4.897  13.693 -0.6325  0.0436  0.8418
 4366TIP3   OH234512   6.004   1.922   1.159  0.8752  0.2358 -0.0025
 4366TIP3    H134513   5.910   1.931   1.176  0.9749 -0.2524  0.9116
 4366TIP3    H234514   6.012   1.925   1.064 -0.3014 -1.5743 -0.2218
 4367TIP3   OH234515   2.509   5.482   5.745  0.1088  0.1067  0.2991
 4367TIP3    H134516   2.586   5.430   5.768  1.1870  1.6020  0.1997
 4367TIP3    H234517   2.462   5.427   5.681 -0.1726 -1.8094  2.0520
 4368TIP3   OH234518   4.998   2.506   0.155  0.5670  0.0983  0.1570
 4368TIP3    H134519   4.963   2.515   0.244 -1.1408  1.6296 -0.5759
 4368TIP3    H234520   5.089   2.534   0.162  0.6968 -0.5894  1.5562
 4369TIP3   OH234521   6.242   3.628  14.272 -0.2266 -0.2608  0.4671
 4369TIP3    H134522   6.305   3.594  14.336  0.0719  2.0475  1.4899
 4369TIP3    H234523   6.294   3.690  14.219 -0.7870 -1.1382 -1.1722
 4370TIP3   OH234524   3.829   5.016  17.267  0.5976  0.4372  0.0812
 4370TIP3    H134525   3.796   5.102  17.243 -0.6317  0.5438  2.0033
 4370TIP3    H234526   3.893   4.995  17.198  0.4733  2.5863 -0.7569
 4371TIP3   OH234527   5.609   3.268   3.084 -0.5703  0.1554 -0.4468
 4371TIP3    H134528   5.622   3.347   3.030  0.1961 -0.6894 -1.5563
 4371TIP3    H234529   5.538   3.221   3.041 -0.8425  0.0988  0.0581
 4372TIP3   OH234530   6.072   0.258   0.091  0.0383  0.1846  0.0088
 4372TIP3    H134531   6.142   0.286   0.033 -0.5494  2.0908  0.1639
 4372TIP3    H234532   6.068   0.163   0.079  3.8020 -0.2699  1.3491
 4373TIP3   OH234533   6.002   0.909  14.903  0.8348 -0.0516  1.0261
 4373TIP3    H134534   6.065   0.837  14.897  0.1087 -0.5923 -0.4908
 4373TIP3    H234535   6.041   0.979  14.850  0.8260  0.1353  1.2659
 4374TIP3   OH234536   2.070   0.135   4.903 -0.1486 -0.3316  0.8714
 4374TIP3    H134537   2.163   0.157   4.904 -0.0662 -0.4176 -1.1037
 4374TIP3    H234538   2.047   0.124   4.996  1.0730  2.5653  1.6373
 4375TIP3   OH234539   4.273   1.358  11.480 -0.9445 -0.4638  0.1876
 4375TIP3    H134540   4.241   1.268  11.470 -1.1478 -0.2690 -1.0804
 4375TIP3    H234541   4.233   1.405  11.407 -0.0461  0.4360  0.2619
 4376TIP3   OH234542   3.470   5.756  11.811 -0.2548 -0.0856  0.2795
 4376TIP3    H134543   3.565   5.761  11.823 -0.2455 -0.7536  0.4904
 4376TIP3    H234544   3.434   5.776  11.897 -0.2828 -0.8251  0.4382
 4377TIP3   OH234545   5.977   3.704   4.995 -0.0583  0.3962  0.2980
 4377TIP3    H134546   5.938   3.651   4.924 -0.3491 -0.3131  0.9733
 4377TIP3    H234547   5.994   3.641   5.065  0.8713  0.9738  0.6079
 4378TIP3   OH234548   6.188   5.472  15.732 -0.5260  0.0977  0.3154
 4378TIP3    H134549   6.164   5.527  15.807  0.5323 -0.8730  1.4169
 4378TIP3    H234550   6.249   5.527  15.682 -2.0035  1.1264 -0.4184
 4379TIP3   OH234551   6.638   1.980   5.178 -0.0639  0.0400  0.4431
 4379TIP3    H134552   6.673   1.956   5.264  1.1379  1.0211  0.2668
 4379TIP3    H234553   6.703   2.042   5.143 -0.6964 -0.0987 -1.0318
 4380TIP3   OH234554   3.290   0.333   1.428  0.2408  0.2272 -0.0509
 4380TIP3    H134555   3.357   0.268   1.444 -0.7867 -0.5112  1.5543
 4380TIP3    H234556   3.281   0.379   1.512  1.0979  2.6382 -1.1898
 4381TIP3   OH234557   2.918   2.689   1.074 -0.3531 -0.0581 -0.4059
 4381TIP3    H134558   2.893   2.613   1.021  2.1361 -0.4436 -1.1992
 4381TIP3    H234559   3.005   2.666   1.108 -0.3846  1.6585  0.9430
 4382TIP3   OH234560   6.448   2.355   1.095  1.1002  0.1404  0.0616
 4382TIP3    H134561   6.468   2.396   1.011  0.3646  1.7896  0.6487
 4382TIP3    H234562   6.413   2.269   1.073 -0.2768  1.0396 -1.3876
 4383TIP3   OH234563   2.128   6.153   2.645  0.4058 -0.2067  0.1676
 4383TIP3    H134564   2.090   6.126   2.561  0.1021  0.4013  0.1102
 4383TIP3    H234565   2.203   6.208   2.621  0.9072 -0.8171  0.2898
 4384TIP3   OH234566   3.650   1.666  13.747  0.0446  0.2123  0.0439
 4384TIP3    H134567   3.638   1.674  13.842  0.4522 -0.5175  0.1652
 4384TIP3    H234568   3.735   1.625  13.737 -0.2388 -0.2300 -0.6263
 4385TIP3   OH234569   1.404   4.821   5.302  0.3278  0.1518  0.1574
 4385TIP3    H134570   1.428   4.893   5.244 -0.6634  0.2496 -0.1614
 4385TIP3    H234571   1.459   4.833   5.379  1.7247 -0.0209 -0.7709
 4386TIP3   OH234572   0.037   1.570   3.313  0.2378 -0.5252  0.2651
 4386TIP3    H134573  -0.034   1.630   3.335  0.0642 -0.6704  0.1048
 4386TIP3    H234574   0.023   1.548   3.221 -0.1384 -1.3991  0.5143
 4387TIP3   OH234575   0.313   1.831  15.956  0.0653  0.5688  0.0821
 4387TIP3    H134576   0.408   1.839  15.944  0.3643 -1.3373  0.8945
 4387TIP3    H234577   0.303   1.785  16.039 -1.5903  0.9614  0.1238
 4388TIP3   OH234578   1.111   1.105   4.296 -0.0925  0.5676 -0.1392
 4388TIP3    H134579   1.176   1.039   4.318 -1.2106 -1.3247 -2.0899
 4388TIP3    H234580   1.048   1.102   4.368 -0.5919 -1.2072 -0.6033
 4389TIP3   OH234581   1.995   0.941   4.842  0.3906 -0.4283  0.0065
 4389TIP3    H134582   2.060   0.955   4.773 -0.3434 -2.2181 -1.1161
 4389TIP3    H234583   1.911   0.937   4.796 -0.2123 -0.8965  1.1034
 4390TIP3   OH234584   0.021   0.291   6.054 -0.1299 -0.5658  0.0252
 4390TIP3    H134585  -0.028   0.218   6.092 -2.3459  1.2003  0.7666
 4390TIP3    H234586  -0.027   0.313   5.974  1.1614 -0.6026 -0.7792
 4391TIP3   OH234587   5.415   5.796  12.262 -0.2546 -0.0509  0.1824
 4391TIP3    H134588   5.462   5.877  12.281  1.8531 -1.2654  0.5043
 4391TIP3    H234589   5.323   5.817  12.274  0.2749  2.1639  0.6744
 4392TIP3   OH234590   3.370   4.585   6.080 -0.4672  0.8828 -0.0675
 4392TIP3    H134591   3.321   4.657   6.041 -2.5485 -0.1739  0.4780
 4392TIP3    H234592   3.312   4.509   6.073  0.9664 -0.3775  0.9155
 4393TIP3   OH234593   3.030   3.259  14.415 -0.3129  0.1884  0.5236
 4393TIP3    H134594   3.056   3.215  14.496 -0.0516 -0.7308 -0.0384
 4393TIP3    H234595   3.052   3.196  14.346 -1.0532  0.7253 -0.2182
 4394TIP3   OH234596   3.340   4.436   1.941  0.6633 -0.2231 -0.2464
 4394TIP3    H134597   3.416   4.492   1.953  1.6952 -1.5919 -0.1498
 4394TIP3    H234598   3.376   4.347   1.937 -1.0644 -1.0831  1.5115
 4395TIP3   OH234599   0.163   0.205  15.440  0.0963  0.3272  0.1285
 4395TIP3    H134600   0.187   0.286  15.396  0.2384  0.3487  0.2451
 4395TIP3    H234601   0.132   0.148  15.370  0.7127  0.2148 -0.0640
 4396TIP3   OH234602   2.083   1.710   3.261 -0.1628 -0.3772  0.1806
 4396TIP3    H134603   2.019   1.759   3.209  1.9605 -0.0295 -2.3223
 4396TIP3    H234604   2.091   1.760   3.342 -2.6026 -0.1413  0.3453
 4397TIP3   OH234605   4.083   0.993  15.192  0.6755 -0.2395 -0.0135
 4397TIP3    H134606   4.154   1.016  15.251  2.8882 -0.2964 -2.4930
 4397TIP3    H234607   4.121   0.929  15.132 -1.5917 -0.5720 -1.2214
 4398TIP3   OH234608   3.984   2.441   5.272 -0.2222  0.1931 -0.0812
 4398TIP3    H134609   3.966   2.361   5.224  1.5245 -0.0602 -0.3694
 4398TIP3    H234610   3.897   2.476   5.294 -1.0143 -1.1977 -0.8732
 4399TIP3   OH234611   2.261   2.165  10.977  0.1882  0.8115 -0.2124
 4399TIP3    H134612   2.329   2.154  11.043  1.6695 -0.1962 -1.8002
 4399TIP3    H234613   2.265   2.258  10.953  0.5210  0.9115  0.2222
 4400TIP3   OH234614   2.967   0.193   6.170 -0.2350  0.2526 -0.2718
 4400TIP3    H134615   3.042   0.170   6.116 -0.5648 -1.6382  0.0174
 4400TIP3    H234616   2.987   0.281   6.203  0.2306  1.2364 -2.9405
 4401TIP3   OH234617   5.023   4.994  15.053 -0.7088  0.7714  0.5926
 4401TIP3    H134618   4.950   5.055  15.048 -0.3455  1.1122 -1.5381
 4401TIP3    H234619   5.089   5.031  14.994 -0.3585 -1.4826 -0.5726
 4402TIP3   OH234620   2.481   5.994   5.714 -1.2392 -0.5866 -0.6500
 4402TIP3    H134621   2.508   5.902   5.715 -0.0734 -0.2618 -0.0112
 4402TIP3    H234622   2.391   5.993   5.745 -1.4651 -1.5675 -1.2706
 4403TIP3   OH234623   3.709   5.453  16.937 -0.0819  0.1122  0.4839
 4403TIP3    H134624   3.658   5.379  16.904 -1.4551  1.3244 -0.2010
 4403TIP3    H234625   3.645   5.509  16.980  0.8875  1.0748  0.7142
 4404TIP3   OH234626   4.930   4.840   0.241 -0.2261 -0.1659 -0.5500
 4404TIP3    H134627   4.974   4.917   0.204 -0.8501  1.0872  1.1659
 4404TIP3    H234628   4.841   4.846   0.206 -0.3074 -0.0211 -0.3237
 4405TIP3   OH234629   5.744   6.618  12.246  0.2604 -0.6506 -0.4670
 4405TIP3    H134630   5.788   6.702  12.259 -1.8046  0.3427  0.4219
 4405TIP3    H234631   5.676   6.635  12.181  1.5103 -2.3283 -2.3482
 4406TIP3   OH234632   6.487   6.679   6.578  0.1664 -0.0133  0.4823
 4406TIP3    H134633   6.549   6.615   6.545 -0.7344 -1.9875  2.3665
 4406TIP3    H234634   6.454   6.641   6.659 -4.2689  0.3711 -0.8724
 4407TIP3   OH234635   0.397   5.667   0.493 -0.0874 -0.1883  0.0573
 4407TIP3    H134636   0.317   5.719   0.504 -0.2953 -0.6793  0.9312
 4407TIP3    H234637   0.445   5.712   0.424 -0.2518  1.1906  0.8075
 4408TIP3   OH234638   5.536   2.607  13.734 -0.8668 -0.0011 -0.8835
 4408TIP3    H134639   5.628   2.580  13.734 -0.6197  0.7768  0.0485
 4408TIP3    H234640   5.505   2.588  13.645  0.1683 -0.3330 -1.1850
 4409TIP3   OH234641   5.252   5.851  16.740 -0.0083 -0.4099 -0.3060
 4409TIP3    H134642   5.296   5.851  16.825 -2.4935  0.9314  1.1181
 4409TIP3    H234643   5.223   5.760  16.728  1.2691 -0.8396 -0.2770
 4410TIP3   OH234644   2.515   2.087   2.393  0.4768 -0.0359 -0.3183
 4410TIP3    H134645   2.556   2.011   2.436  2.1493  1.9019  1.7458
 4410TIP3    H234646   2.571   2.105   2.318  1.2112  0.2951  0.2985
 4411TIP3   OH234647   3.769   1.661  15.890  0.2243 -0.0527 -0.2241
 4411TIP3    H134648   3.715   1.592  15.929 -0.7312  0.2272 -1.0129
 4411TIP3    H234649   3.718   1.692  15.815  1.1562  0.7343 -0.5533
 4412TIP3   OH234650   0.082   4.704   4.789 -0.4070 -0.2786 -0.1874
 4412TIP3    H134651   0.145   4.638   4.817  0.6134  0.7558  0.0708
 4412TIP3    H234652   0.115   4.734   4.704  0.9772  2.0294  1.0306
 4413TIP3   OH234653   0.398   5.387   4.014  0.5699 -0.4258 -0.3218
 4413TIP3    H134654   0.395   5.292   4.020  2.2816 -0.4600  0.3792
 4413TIP3    H234655   0.471   5.405   3.955  1.2214  0.4764  0.7341
 4414TIP3   OH234656   1.559   2.581  12.554  0.0994 -0.4917  0.0321
 4414TIP3    H134657   1.585   2.660  12.507 -0.4806  0.2964  1.0129
 4414TIP3    H234658   1.639   2.552  12.599  0.7587 -1.4561 -1.6503
 4415TIP3   OH234659   0.619   0.846  14.254  0.7104 -0.1177 -0.3840
 4415TIP3    H134660   0.672   0.795  14.193  0.9198 -1.3288  0.7591
 4415TIP3    H234661   0.572   0.780  14.305 -0.1505  0.8862  0.1547
 4416TIP3   OH234662   0.999   5.224   6.016  0.3694  0.1837 -0.8278
 4416TIP3    H134663   0.933   5.158   5.994  0.5985  0.4100 -2.3252
 4416TIP3    H234664   1.083   5.179   6.003  0.5182  0.3095 -0.3130
 4417TIP3   OH234665   2.784   0.930   2.993  0.0956 -0.4336 -0.2525
 4417TIP3    H134666   2.823   1.016   2.981  0.8503 -0.4754  1.5295
 4417TIP3    H234667   2.771   0.923   3.088 -0.4221 -2.0783 -0.4145
 4418TIP3   OH234668   5.738   2.667   6.285  0.6817  0.4597 -0.3857
 4418TIP3    H134669   5.753   2.581   6.323 -1.2719  0.0279 -0.4880
 4418TIP3    H234670   5.719   2.723   6.361 -1.1423  0.0626 -0.5016
 4419TIP3   OH234671   0.800   6.061  15.313  0.1506 -0.1968 -0.2381
 4419TIP3    H134672   0.708   6.037  15.324  0.1196 -0.3103 -0.7260
 4419TIP3    H234673   0.803   6.109  15.231  0.5650 -0.4138 -0.3548
 4420TIP3   OH234674   2.258   2.561  13.346  0.5907 -0.4210 -0.3273
 4420TIP3    H134675   2.293   2.536  13.260  3.8663 -2.4871  1.4124
 4420TIP3    H234676   2.253   2.657  13.343 -0.8994 -0.4617 -3.2304
 4421TIP3   OH234677   3.634   1.218  11.122 -0.2533 -0.2361 -0.0328
 4421TIP3    H134678   3.704   1.159  11.148  0.4624  0.6692  0.1247
 4421TIP3    H234679   3.629   1.208  11.027  2.6500  2.3764 -0.6128
 4422TIP3   OH234680   1.295   1.807  14.220 -0.1084 -0.4499 -0.3418
 4422TIP3    H134681   1.278   1.827  14.129  1.0813 -1.3145 -0.7902
 4422TIP3    H234682   1.391   1.799  14.225 -0.1889 -0.9391  0.8502
 4423TIP3   OH234683   6.439   2.408   0.392 -1.2245 -0.0321 -0.6962
 4423TIP3    H134684   6.413   2.461   0.467 -0.9775  0.1873 -0.7626
 4423TIP3    H234685   6.369   2.344   0.381 -1.2483 -0.0808 -0.2632
 4424TIP3   OH234686   6.427   4.689  15.141 -0.0730 -0.2329  0.3705
 4424TIP3    H134687   6.386   4.648  15.066  0.4678 -1.0686  0.5204
 4424TIP3    H234688   6.383   4.774  15.149  0.1784  0.0658 -1.1538
 4425TIP3   OH234689   0.419   0.280  14.872 -0.2733 -0.4236  0.5912
 4425TIP3    H134690   0.368   0.199  14.867 -1.1729  0.2004 -1.6274
 4425TIP3    H234691   0.458   0.289  14.784  1.7126  0.3819  1.4894
 4426TIP3   OH234692   3.970   0.465   3.507 -0.6635  0.7437 -0.3641
 4426TIP3    H134693   3.954   0.402   3.437 -0.8712  1.2684 -0.7970
 4426TIP3    H234694   3.979   0.549   3.462  1.1199  0.8317  0.0491
 4427TIP3   OH234695   5.673   5.174   4.982  0.1148  0.3544 -0.3459
 4427TIP3    H134696   5.585   5.160   5.016  0.8098 -0.3981  1.2217
 4427TIP3    H234697   5.717   5.226   5.048  0.9622  0.4048 -0.9350
 4428TIP3   OH234698   1.123   6.405  13.580 -0.2762  0.5620 -0.5326
 4428TIP3    H134699   1.126   6.343  13.507 -0.5541  0.7195 -0.6792
 4428TIP3    H234700   1.047   6.379  13.631 -1.1108  1.4964 -1.2457
 4429TIP3   OH234701   0.647   2.071   1.501 -0.1492  0.1225  0.3196
 4429TIP3    H134702   0.644   2.163   1.477 -2.4486  0.3749  1.2902
 4429TIP3    H234703   0.594   2.026   1.435 -1.1954 -0.0798  1.2519
 4430TIP3   OH234704   4.926   2.169   4.204  0.6701  0.5963 -0.1439
 4430TIP3    H134705   4.989   2.138   4.140  0.5551  1.2863 -0.6010
 4430TIP3    H234706   4.885   2.089   4.239  1.4376  0.1752 -0.2008
 4431TIP3   OH234707   6.717   0.477  11.867 -0.8557  0.1476  0.2286
 4431TIP3    H134708   6.639   0.499  11.816 -0.2172  0.5347 -0.6122
 4431TIP3    H234709   6.716   0.538  11.940  0.5236  2.6513 -1.7008
 4432TIP3   OH234710   6.705   1.751   0.915 -0.7329  0.1616 -0.1037
 4432TIP3    H134711   6.721   1.762   0.821 -0.1016 -0.4374 -0.0765
 4432TIP3    H234712   6.691   1.840   0.948 -0.7188  0.3983 -0.7203
 4433TIP3   OH234713   6.032   6.558   1.124  0.4986 -0.5625 -0.2798
 4433TIP3    H134714   5.938   6.567   1.136  0.7156  1.7744  0.0796
 4433TIP3    H234715   6.041   6.507   1.043 -1.0763 -0.0373 -0.8272
 4434TIP3   OH234716   5.312   3.123  12.929 -0.3130 -0.3255 -0.6084
 4434TIP3    H134717   5.240   3.099  12.871 -2.2649  2.1744  0.6169
 4434TIP3    H234718   5.326   3.045  12.983  0.0758 -1.9312 -2.8834
 4435TIP3   OH234719   2.802   5.554   0.245  0.1225 -0.7222 -0.1898
 4435TIP3    H134720   2.871   5.522   0.304  0.6593 -1.0294 -0.9792
 4435TIP3    H234721   2.811   5.649   0.248 -0.0055 -0.7227  0.4015
 4436TIP3   OH234722   6.728   1.964   1.589  0.2020  0.0325 -0.0760
 4436TIP3    H134723   6.718   1.877   1.550  0.6862 -0.8223  1.6047
 4436TIP3    H234724   6.784   1.950   1.665 -0.4432  1.6771  0.7563
 4437TIP3   OH234725   3.648   2.137  13.999 -0.4127 -0.0441 -0.0452
 4437TIP3    H134726   3.629   2.115  14.090 -1.8146  1.3999  0.0751
 4437TIP3    H234727   3.600   2.072  13.948  0.2435 -0.7591  0.2513
 4438TIP3   OH234728   3.651   5.663   1.933 -0.2213 -0.0991  0.4215
 4438TIP3    H134729   3.607   5.668   2.017 -1.1351 -1.8939  0.0839
 4438TIP3    H234730   3.583   5.683   1.869 -0.1684 -1.2233 -0.0073
 4439TIP3   OH234731   2.544   4.843  13.864  0.3462 -0.2132  0.1071
 4439TIP3    H134732   2.620   4.897  13.888 -0.0885  0.6939 -0.5051
 4439TIP3    H234733   2.483   4.854  13.937  0.6528 -0.6569  0.4333
 4440TIP3   OH234734   4.260   6.738   1.338 -0.0138  0.1998 -0.2021
 4440TIP3    H134735   4.291   6.698   1.420  2.4698  2.4106  0.0755
 4440TIP3    H234736   4.200   6.807   1.366 -0.0189  0.2368 -0.3057
 4441TIP3   OH234737   0.505   2.581  11.732  0.3900 -0.1529 -0.2938
 4441TIP3    H134738   0.429   2.611  11.683 -1.3098 -3.0238  0.3975
 4441TIP3    H234739   0.534   2.659  11.780 -2.2748  1.0079 -0.3739
 4442TIP3   OH234740   3.381   6.421   5.754 -0.1502 -0.3563  0.0409
 4442TIP3    H134741   3.454   6.364   5.730  0.9458  1.1388 -0.3173
 4442TIP3    H234742   3.334   6.436   5.672  0.3661  0.3083 -0.1513
 4443TIP3   OH234743   1.365   4.443   5.052  0.3870 -0.8652 -0.1073
 4443TIP3    H134744   1.331   4.516   5.001  1.9118 -0.3543 -0.4233
 4443TIP3    H234745   1.314   4.367   5.023 -0.7298 -0.0719 -0.2730
 4444TIP3   OH234746   2.263   3.379  11.215  0.7649 -0.1743 -0.7240
 4444TIP3    H134747   2.240   3.330  11.136 -0.1847  0.8950 -1.1355
 4444TIP3    H234748   2.232   3.468  11.198  1.2265  0.2510  0.5531
 4445TIP3   OH234749   3.574   3.296  13.910  0.4301  0.4274  0.0478
 4445TIP3    H134750   3.547   3.353  13.838  0.1841 -0.1458 -0.3252
 4445TIP3    H234751   3.660   3.328  13.935  0.1705  1.1495  0.0471
 4446TIP3   OH234752   1.886   0.030   0.833 -0.5575 -0.4011 -0.1828
 4446TIP3    H134753   1.964   0.003   0.785 -0.5010  0.5111 -0.6230
 4446TIP3    H234754   1.911   0.023   0.926  0.1157  0.0871 -0.3241
 4447TIP3   OH234755   0.638   6.619  14.477 -0.7375 -0.3311 -0.3710
 4447TIP3    H134756   0.729   6.594  14.465 -0.0147  2.2382 -0.8436
 4447TIP3    H234757   0.618   6.597  14.568  0.6214 -0.1765 -0.0248
 4448TIP3   OH234758   2.440   3.204  16.965  0.3172 -0.1497 -0.0684
 4448TIP3    H134759   2.443   3.119  16.921 -0.7266  0.0803 -0.6073
 4448TIP3    H234760   2.442   3.183  17.058  0.9218 -0.7175 -0.1998
 4449TIP3   OH234761   2.827   5.133  12.497 -0.7281  0.1910  0.0845
 4449TIP3    H134762   2.830   5.070  12.425 -0.9205  0.0674  0.1860
 4449TIP3    H234763   2.748   5.185  12.480 -0.1230  0.9440 -0.4559
 4450TIP3   OH234764   4.675   1.306  12.396 -0.1518 -0.6453 -0.1556
 4450TIP3    H134765   4.735   1.309  12.322  0.3251  1.1630  0.2483
 4450TIP3    H234766   4.635   1.393  12.398 -0.2829 -0.7111  1.5980
 4451TIP3   OH234767   6.115   3.179   1.888 -0.1164  0.4536 -0.4091
 4451TIP3    H134768   6.070   3.216   1.964 -0.4324  1.2651 -0.9807
 4451TIP3    H234769   6.205   3.212   1.896 -0.4509  1.5618 -1.0364
 4452TIP3   OH234770   2.481   2.063  16.618  0.0618 -0.0084  0.3316
 4452TIP3    H134771   2.509   2.143  16.574  1.7051 -0.6008  0.2348
 4452TIP3    H234772   2.434   2.094  16.696  0.1598  1.0446 -0.0103
 4453TIP3   OH234773   3.190   6.100   4.078 -0.0838 -0.4082 -0.6713
 4453TIP3    H134774   3.279   6.128   4.097 -0.6783  0.2549  1.4917
 4453TIP3    H234775   3.181   6.106   3.983  1.4137  1.8576 -0.7291
 4454TIP3   OH234776   3.598   6.001  17.251 -0.1221  0.2380 -0.6615
 4454TIP3    H134777   3.653   6.010  17.328 -1.2004  1.7717 -0.0107
 4454TIP3    H234778   3.571   6.091  17.230 -0.1872 -0.1767 -2.5936
 4455TIP3   OH234779   3.016   1.499  13.209  0.1894  0.0153 -0.0293
 4455TIP3    H134780   3.083   1.567  13.212 -1.3816  1.6030  0.6067
 4455TIP3    H234781   2.934   1.546  13.199 -0.9463 -1.7979  0.3037
 4456TIP3   OH234782   4.754   5.212   4.936 -0.3395 -0.2076 -0.5063
 4456TIP3    H134783   4.733   5.262   5.015  0.5767  0.0319 -0.4010
 4456TIP3    H234784   4.831   5.161   4.959 -1.3603 -1.8466 -0.5539
 4457TIP3   OH234785   4.876   5.059   0.455 -0.6565  0.0824 -0.1526
 4457TIP3    H134786   4.889   4.978   0.405 -1.0585 -0.6029  0.8077
 4457TIP3    H234787   4.821   5.113   0.399  0.1319 -0.0409 -1.0811
 4458TIP3   OH234788   5.501   3.279   4.475 -0.0587  0.3349 -0.1389
 4458TIP3    H134789   5.499   3.300   4.382 -1.1625 -1.3203 -0.5348
 4458TIP3    H234790   5.576   3.222   4.485  0.5298  1.1434  0.1576
 4459TIP3   OH234791   5.222   1.317  14.532 -0.3387 -0.0672 -0.0707
 4459TIP3    H134792   5.168   1.375  14.479  0.1613  0.5617  0.0918
 4459TIP3    H234793   5.254   1.372  14.604  0.1371 -0.5405  0.0915
 4460TIP3   OH234794   3.408   2.147   0.921 -0.4297  0.3069 -0.2005
 4460TIP3    H134795   3.397   2.182   1.010 -0.0115  2.2857 -0.8860
 4460TIP3    H234796   3.500   2.162   0.901 -0.1181 -1.6121 -0.4164
 4461TIP3   OH234797   0.461   4.604  14.241 -0.5420  0.0635  0.0921
 4461TIP3    H134798   0.382   4.566  14.202 -0.3680  0.2638 -0.4651
 4461TIP3    H234799   0.503   4.650  14.168 -0.4189  0.7806  0.6102
 4462TIP3   OH234800   2.769   6.409  15.116  0.2841  0.3487  0.0475
 4462TIP3    H134801   2.674   6.422  15.117  0.4259  1.8844 -1.2874
 4462TIP3    H234802   2.800   6.464  15.043  2.1372 -0.5467  0.0942
 4463TIP3   OH234803   1.109   3.218  15.110 -0.4708  0.1198  0.2547
 4463TIP3    H134804   1.095   3.125  15.092  1.3793  0.0344 -1.0413
 4463TIP3    H234805   1.161   3.220  15.190 -1.5162  0.1336  0.9618
 4464TIP3   OH234806   3.953   4.723   2.495  0.4247 -0.3189 -0.2724
 4464TIP3    H134807   4.016   4.697   2.428 -0.0527 -2.7977  0.1155
 4464TIP3    H234808   4.006   4.745   2.571  0.8790 -0.7437 -0.4621
 4465TIP3   OH234809   3.526   4.799   4.812  0.0980 -0.7663  0.2434
 4465TIP3    H134810   3.543   4.831   4.900  2.0432  1.1661 -0.7336
 4465TIP3    H234811   3.586   4.849   4.756 -0.4634 -2.4992 -2.0835
 4466TIP3   OH234812   1.492   3.312  16.782  0.2712 -0.0154  0.1417
 4466TIP3    H134813   1.459   3.339  16.868  1.4950  0.7303  0.4063
 4466TIP3    H234814   1.587   3.322  16.789  0.3315  0.9322 -1.5841
 4467TIP3   OH234815   4.759   3.587  10.590  0.1767 -0.0416 -0.3384
 4467TIP3    H134816   4.851   3.569  10.612 -0.5811 -1.6485  1.8917
 4467TIP3    H234817   4.751   3.682  10.597  2.0264  0.3238 -2.2926
 4468TIP3   OH234818   6.567   1.747   0.386 -0.1147  0.3808 -0.7960
 4468TIP3    H134819   6.572   1.659   0.349 -1.2993  0.2337 -0.6430
 4468TIP3    H234820   6.600   1.805   0.317  0.9955 -0.1962 -0.7728
 4469TIP3   OH234821   1.131   1.861   3.442  0.2271  0.5117 -0.0524
 4469TIP3    H134822   1.071   1.795   3.408  1.3971 -0.9828  0.6643
 4469TIP3    H234823   1.115   1.939   3.388 -1.2396 -0.3128 -0.8676
 4470TIP3   OH234824   0.635   4.754  16.372 -0.3202  0.4744 -0.1039
 4470TIP3    H134825   0.541   4.776  16.367 -0.2240  1.0860  0.6795
 4470TIP3    H234826   0.641   4.668  16.331 -1.1853  0.5497 -0.4168
 4471TIP3   OH234827   5.897   2.133   3.775  0.6071  0.1840 -0.5411
 4471TIP3    H134828   5.841   2.092   3.709  1.5407  1.3693 -2.1192
 4471TIP3    H234829   5.837   2.150   3.849 -0.7305 -0.0979 -1.5177
 4472TIP3   OH234830   2.443   1.097  17.027 -0.9104  0.0498 -0.3318
 4472TIP3    H134831   2.349   1.097  17.007 -0.8301  0.0123 -0.7263
 4472TIP3    H234832   2.479   1.166  16.971 -0.9048  1.0227  0.8249
 4473TIP3   OH234833   2.981   5.712  17.189 -0.2940 -0.6911 -0.2878
 4473TIP3    H134834   3.022   5.628  17.173  1.3204  0.2720 -1.5876
 4473TIP3    H234835   2.910   5.717  17.124  0.7989 -0.3203 -1.4938
 4474TIP3   OH234836   0.585   0.450   0.532 -0.5144 -0.5592 -0.1626
 4474TIP3    H134837   0.617   0.512   0.465 -0.2607  0.2556  0.6921
 4474TIP3    H234838   0.629   0.477   0.612  0.0659 -2.2448  0.1232
 4475TIP3   OH234839   4.515   6.495  11.895  0.1075 -0.2749 -0.3277
 4475TIP3    H134840   4.582   6.563  11.901 -2.6218  2.6447 -0.1984
 4475TIP3    H234841   4.513   6.474  11.801 -0.9798  2.1506 -0.9385
 4476TIP3   OH234842   6.200   5.983   5.953 -0.2800  0.6604 -0.0135
 4476TIP3    H134843   6.213   6.058   6.012 -0.3627  0.2183  0.5680
 4476TIP3    H234844   6.184   5.909   6.011 -0.2245  0.1911 -0.5921
 4477TIP3   OH234845   4.032   2.262   4.569  0.1030 -0.6778  0.0713
 4477TIP3    H134846   4.043   2.340   4.516  0.1153 -1.7815 -1.6235
 4477TIP3    H234847   3.941   2.266   4.600 -0.2576 -0.5592 -0.9707
 4478TIP3   OH234848   5.126   1.113  15.254  0.1702  0.2130  0.1435
 4478TIP3    H134849   5.196   1.074  15.308  0.2948  0.5098  0.2011
 4478TIP3    H234850   5.173   1.157  15.184  0.0966  1.2383  0.7194
 4479TIP3   OH234851   0.179   5.447   5.572  0.8642 -0.3444  0.4247
 4479TIP3    H134852   0.146   5.466   5.659 -2.0566 -0.2021 -0.6198
 4479TIP3    H234853   0.160   5.354   5.559 -0.4161  0.0535 -0.7070
 4480TIP3   OH234854   0.370   3.558  15.782  0.3717 -0.0520  0.1013
 4480TIP3    H134855   0.276   3.546  15.768 -0.2215 -1.0556  3.8269
 4480TIP3    H234856   0.407   3.471  15.769  0.4535 -0.0647  0.3931
 4481TIP3   OH234857   0.887   1.111   0.465  0.5942  0.1422 -0.3640
 4481TIP3    H134858   0.887   1.157   0.549  1.6414  0.2807 -0.4294
 4481TIP3    H234859   0.910   1.021   0.488 -0.9802 -0.2832 -0.2949
 4482TIP3   OH234860   1.364   6.655  16.782 -0.0844 -0.2390  0.3784
 4482TIP3    H134861   1.278   6.614  16.791  0.7192 -1.7143  1.7667
 4482TIP3    H234862   1.423   6.599  16.831  1.7205  0.6823 -0.6250
 4483TIP3   OH234863   4.574   6.234   5.061  0.1878 -0.0176  0.5608
 4483TIP3    H134864   4.560   6.325   5.034 -0.9385 -0.3569 -0.0775
 4483TIP3    H234865   4.641   6.201   5.001 -0.0217  0.1463  0.2311
 4484TIP3   OH234866   1.251   3.377   2.760 -0.3010 -0.5055 -0.3416
 4484TIP3    H134867   1.175   3.323   2.781 -0.1078 -1.2546 -1.4925
 4484TIP3    H234868   1.216   3.449   2.707 -0.6077  0.7245  1.4553
 4485TIP3   OH234869   0.939   0.799  16.103 -0.5067  0.2252 -0.1110
 4485TIP3    H134870   0.854   0.754  16.097 -0.0559 -0.7509  0.5930
 4485TIP3    H234871   0.926   0.866  16.169 -0.6211 -0.2031  0.3080
 4486TIP3   OH234872   2.309   5.551   4.530  0.1425  0.0780  0.3462
 4486TIP3    H134873   2.227   5.590   4.501 -0.5356  0.5429  2.6286
 4486TIP3    H234874   2.293   5.456   4.525 -1.8847  0.0713  3.7891
 4487TIP3   OH234875   1.152   6.185  15.078 -0.1154  0.4883  0.1105
 4487TIP3    H134876   1.112   6.272  15.067  1.3219  1.1030 -0.3912
 4487TIP3    H234877   1.197   6.190  15.162  0.2042  0.3226 -0.0500
 4488TIP3   OH234878   0.354   4.517   5.605  0.4317  0.2692  0.4450
 4488TIP3    H134879   0.278   4.468   5.635  0.3509  1.0007  1.4702
 4488TIP3    H234880   0.376   4.477   5.520 -0.2526 -0.8387  0.7662
 4489TIP3   OH234881   5.383   5.077  14.640 -0.3375  0.1141  0.2901
 4489TIP3    H134882   5.441   5.034  14.703  0.8374 -2.6405 -2.4153
 4489TIP3    H234883   5.428   5.159  14.618  0.1431  0.2290  1.5869
 4490TIP3   OH234884   3.281   0.790   5.080  0.0337  0.1835  0.1545
 4490TIP3    H134885   3.375   0.785   5.092  0.2569 -1.2321 -1.7506
 4490TIP3    H234886   3.255   0.700   5.058 -1.7692  0.5367  0.6552
 4491TIP3   OH234887   5.930   1.617   0.030  0.3614 -0.3218  0.0357
 4491TIP3    H134888   5.844   1.607   0.071  0.9941  0.1641  1.5454
 4491TIP3    H234889   5.956   1.707   0.050  1.7461 -0.8323  0.6695
 4492TIP3   OH234890   0.436   2.771  14.201 -0.2337  0.1947 -0.1643
 4492TIP3    H134891   0.378   2.698  14.179 -0.4028  1.0702 -2.9541
 4492TIP3    H234892   0.378   2.847  14.203  0.4965  0.7815 -1.0108
 4493TIP3   OH234893   0.444   3.198   0.692  0.1415  0.0069 -0.5392
 4493TIP3    H134894   0.367   3.250   0.671  0.5913  0.3284 -1.4416
 4493TIP3    H234895   0.427   3.113   0.652 -0.8275 -0.7638  1.3804
 4494TIP3   OH234896   1.623   1.276   2.018  0.3367  0.0147  0.2623
 4494TIP3    H134897   1.713   1.280   2.053 -0.4108  0.1982  2.3000
 4494TIP3    H234898   1.605   1.183   2.010  1.2724 -0.0374 -1.8334
 4495TIP3   OH234899   4.211   3.093  12.812 -0.3604 -0.4675  0.3044
 4495TIP3    H134900   4.198   3.178  12.854 -2.3237 -1.2395  1.4044
 4495TIP3    H234901   4.300   3.068  12.833 -0.5724  0.1929  2.1371
 4496TIP3   OH234902   3.876   0.981  16.282  0.1376  0.1624  0.4395
 4496TIP3    H134903   3.835   0.938  16.207 -0.4223  0.6285  0.4774
 4496TIP3    H234904   3.804   1.023  16.328  0.7826  1.8860 -0.0735
 4497TIP3   OH234905   3.206   3.065   5.737  0.2446  0.2915 -0.4217
 4497TIP3    H134906   3.225   2.977   5.703 -0.1456  0.5890 -1.4461
 4497TIP3    H234907   3.115   3.081   5.713 -0.3489  0.1740  1.5780
 4498TIP3   OH234908   4.226   4.728   1.501  0.4464 -0.0302 -0.6681
 4498TIP3    H134909   4.227   4.824   1.501  0.7350 -0.0145 -1.8548
 4498TIP3    H234910   4.244   4.704   1.592 -1.4134  1.0296  0.0307
 4499TIP3   OH234911   5.217   1.465  16.595 -0.1450 -0.3306 -0.0674
 4499TIP3    H134912   5.180   1.440  16.510 -0.2944  0.7246 -0.3214
 4499TIP3    H234913   5.269   1.543  16.577  2.3542 -1.8402  0.2821
 4500TIP3   OH234914   6.450   1.912  12.843  0.3087  0.3189  0.4407
 4500TIP3    H134915   6.404   1.934  12.925 -1.5963 -1.3000 -0.0976
 4500TIP3    H234916   6.386   1.930  12.774  1.2500 -0.0079 -0.5491
 4501TIP3   OH234917   5.997   4.373  12.712  0.1351  0.2972  0.3028
 4501TIP3    H134918   6.024   4.462  12.689  0.8093 -0.0798 -0.4309
 4501TIP3    H234919   5.922   4.384  12.770 -0.5978  1.3306 -0.7954
 4502TIP3   OH234920   3.236   6.170  17.462 -0.3524  0.0037 -0.5197
 4502TIP3    H134921   3.314   6.192  17.513 -0.6675 -0.7192  0.3003
 4502TIP3    H234922   3.270   6.141  17.377  0.1364  2.0841 -1.0810
 4503TIP3   OH234923   0.462   1.796   4.133 -0.3581  0.0888 -0.0560
 4503TIP3    H134924   0.423   1.716   4.099 -0.8350 -0.2123  1.1580
 4503TIP3    H234925   0.391   1.838   4.181 -0.3707  1.6843 -1.3699
 4504TIP3   OH234926   5.058   0.582  11.590  0.3675  0.3304  0.8230
 4504TIP3    H134927   5.071   0.674  11.614 -1.2308  1.4190 -1.9567
 4504TIP3    H234928   5.132   0.562  11.532 -0.2125  0.4856  0.0039
 4505TIP3   OH234929   5.423   5.599   5.202 -0.2565 -0.1469  0.0899
 4505TIP3    H134930   5.475   5.597   5.121 -0.0146  0.0838  0.2379
 4505TIP3    H234931   5.347   5.653   5.180 -0.3451 -0.3400 -0.0763
 4506TIP3   OH234932   6.060   2.696  13.434 -0.4253 -0.1668  0.1917
 4506TIP3    H134933   6.120   2.623  13.417 -0.2826  0.1021 -0.5400
 4506TIP3    H234934   5.995   2.661  13.494  1.3874 -0.0033  2.4059
 4507TIP3   OH234935   1.338   1.517  15.778 -0.3397 -0.9219 -0.4308
 4507TIP3    H134936   1.335   1.578  15.705  2.2615  3.0625  2.3733
 4507TIP3    H234937   1.414   1.461  15.759  1.2939  1.1012 -0.2297
 4508TIP3   OH234938   5.474   5.458  11.514  0.0481  0.0388  0.5151
 4508TIP3    H134939   5.522   5.523  11.464 -0.8632  1.5073  1.4794
 4508TIP3    H234940   5.400   5.506  11.551 -0.9022 -1.6467  0.9057
 4509TIP3   OH234941   0.096   3.501  14.870  0.6963 -0.1280 -0.1994
 4509TIP3    H134942   0.050   3.580  14.844  0.7954 -0.3595 -1.1337
 4509TIP3    H234943   0.048   3.430  14.826  2.3364 -0.3104 -1.8055
 4510TIP3   OH234944   3.623   5.103   4.949 -0.4747 -0.0918 -0.3217
 4510TIP3    H134945   3.707   5.108   4.904 -0.7507  0.4867 -0.7884
 4510TIP3    H234946   3.627   5.171   5.016 -0.7625  0.2831 -0.6812
 4511TIP3   OH234947   0.491   5.887  17.356  0.3708  0.5986 -0.0936
 4511TIP3    H134948   0.513   5.795  17.371 -0.6690 -0.0104 -2.0252
 4511TIP3    H234949   0.515   5.903  17.265  0.1113  2.1307  0.0794
 4512TIP3   OH234950   1.708   2.247   5.887  0.4584  0.2140  0.0915
 4512TIP3    H134951   1.632   2.255   5.829 -0.4574  0.1067  1.2490
 4512TIP3    H234952   1.695   2.314   5.954  0.1095 -1.3887  1.6942
 4513TIP3   OH234953   0.337   6.391   2.801  0.4102 -0.5997  0.3363
 4513TIP3    H134954   0.417   6.441   2.820  0.0077 -0.0231  0.5464
 4513TIP3    H234955   0.348   6.308   2.847  0.1426  0.1493  1.8030
 4514TIP3   OH234956   2.038   4.694   4.331  0.6478  0.1551  0.1846
 4514TIP3    H134957   2.064   4.626   4.269  1.0840  0.4002  0.0965
 4514TIP3    H234958   2.118   4.742   4.350  0.4128  0.4218  0.5226
 4515TIP3   OH234959   2.983   4.214  16.672 -1.9075  0.1543 -0.3139
 4515TIP3    H134960   3.067   4.168  16.672 -1.1713  1.4614  0.0974
 4515TIP3    H234961   2.955   4.212  16.763 -1.2064  1.6406 -0.0316
 4516TIP3   OH234962   2.807   0.502   1.824 -0.2034 -0.4491  0.5415
 4516TIP3    H134963   2.741   0.525   1.889 -0.6988 -0.4600  0.0511
 4516TIP3    H234964   2.845   0.586   1.797 -0.0999 -0.4331  0.7369
 4517TIP3   OH234965   5.610   0.219  13.470 -0.2957 -0.3061  0.6971
 4517TIP3    H134966   5.591   0.157  13.540  0.2348 -0.7513  0.4490
 4517TIP3    H234967   5.671   0.282  13.510  1.3443 -1.5093  0.1792
 4518TIP3   OH234968   0.727   3.901   3.630 -0.1174 -0.0773  0.4007
 4518TIP3    H134969   0.712   3.839   3.558  3.1777 -1.3382  0.6476
 4518TIP3    H234970   0.676   3.864   3.702 -1.5274 -0.1291 -0.5630
 4519TIP3   OH234971   5.963   5.462  16.872  0.4925  0.0225 -0.1708
 4519TIP3    H134972   5.897   5.518  16.831  0.6505  0.7905  0.6030
 4519TIP3    H234973   5.943   5.374  16.840 -1.2737  0.1384  0.5019
 4520TIP3   OH234974   4.436   4.719   0.758  0.2595 -0.2089  0.0846
 4520TIP3    H134975   4.434   4.675   0.673  0.0829  1.5487 -0.8606
 4520TIP3    H234976   4.503   4.787   0.748  0.4198 -0.1397  1.4442
 4521TIP3   OH234977   2.815   6.520   4.844  0.2250  0.0783 -0.1422
 4521TIP3    H134978   2.766   6.581   4.899  1.5223  1.6314 -0.6454
 4521TIP3    H234979   2.849   6.454   4.905 -1.3345 -0.2934  0.3805
 4522TIP3   OH234980   1.614   2.991  14.840  0.6616 -0.2372  0.6627
 4522TIP3    H134981   1.681   3.058  14.851  0.5434  0.0040 -0.0711
 4522TIP3    H234982   1.614   2.943  14.924  1.2009  0.2527  0.9465
 4523TIP3   OH234983   1.503   0.016  15.039  0.6507  0.1602 -0.0952
 4523TIP3    H134984   1.593  -0.010  15.059  0.4728  0.2813  0.9507
 4523TIP3    H234985   1.478   0.071  15.113  0.1834  1.2767 -1.0536
 4524TIP3   OH234986   0.155   5.427  16.491  0.2734 -0.6319  0.0752
 4524TIP3    H134987   0.131   5.498  16.430  0.9788 -0.8725 -0.5042
 4524TIP3    H234988   0.099   5.354  16.465  0.4129 -0.6640 -0.1387
 4525TIP3   OH234989   4.252   4.325  16.150 -0.4248 -0.5401  0.5721
 4525TIP3    H134990   4.185   4.343  16.084  0.2540 -1.2047 -0.3373
 4525TIP3    H234991   4.232   4.237  16.182  0.8459 -1.4118 -0.8389
 4526TIP3   OH234992   2.616   1.953  11.832 -0.2117  0.2650 -0.3169
 4526TIP3    H134993   2.546   2.013  11.858 -0.8480 -0.3879 -0.5059
 4526TIP3    H234994   2.602   1.939  11.738  0.3885  0.3996 -0.4333
 4527TIP3   OH234995   2.014   6.422   5.413 -0.2420 -0.0868 -0.2013
 4527TIP3    H134996   2.034   6.491   5.350  2.1851  1.1687  1.7328
 4527TIP3    H234997   2.094   6.370   5.419 -0.9182 -1.0830  0.7431
 4528TIP3   OH234998   6.503   1.060   5.111 -0.3622 -0.0132 -0.1138
 4528TIP3    H134999   6.548   1.046   5.194 -0.5408  0.1837  0.0190
 4528TIP3    H235000   6.571   1.092   5.052  0.6013 -3.4881 -1.0977
 4529TIP3   OH235001   0.978   4.681  16.785 -0.1839  0.8193 -0.4409
 4529TIP3    H135002   1.003   4.593  16.759 -0.6765  0.6182 -0.2455
 4529TIP3    H235003   0.946   4.722  16.705 -0.4354  0.6505 -0.4270
 4530TIP3   OH235004   0.564   1.756  11.666  0.2109 -0.3779 -0.0564
 4530TIP3    H135005   0.498   1.825  11.660  1.1551  0.5190 -0.6771
 4530TIP3    H235006   0.584   1.734  11.576  0.0242 -1.3817  0.1414
 4531TIP3   OH235007   0.360   6.098  12.725  0.6195  0.1743 -0.3837
 4531TIP3    H135008   0.451   6.067  12.728  1.2351  1.8841  0.3127
 4531TIP3    H235009   0.320   6.064  12.805  0.8260 -0.0812 -0.3876
 4532TIP3   OH235010   4.964   5.013   4.987 -0.4149  0.3467  0.1814
 4532TIP3    H135011   4.953   4.935   4.932 -1.1229  1.1591 -0.8783
 4532TIP3    H235012   5.018   5.072   4.935 -0.8665  1.0252  0.4733
 4533TIP3   OH235013   0.956   0.595  14.481 -0.2604 -0.1337  0.2238
 4533TIP3    H135014   0.985   0.661  14.418  2.0595 -1.0562  0.2547
 4533TIP3    H235015   0.889   0.640  14.532 -0.0371  1.6126 -0.9120
 4534TIP3   OH235016   4.732   3.254   3.047  0.3724  0.2388 -0.1891
 4534TIP3    H135017   4.731   3.308   3.126  0.4507 -1.3269  0.9260
 4534TIP3    H235018   4.664   3.188   3.062 -1.0336  1.0985 -2.3350
 4535TIP3   OH235019   4.220   6.412   4.523  0.2561  0.0684  0.4808
 4535TIP3    H135020   4.263   6.347   4.468 -0.6896  0.6760 -1.0553
 4535TIP3    H235021   4.138   6.432   4.476  0.7435  2.6977  0.6351
 4536TIP3   OH235022   5.764   4.653   4.572  0.0156 -0.4305  0.0022
 4536TIP3    H135023   5.834   4.706   4.532  0.5400  0.0795  1.4956
 4536TIP3    H235024   5.702   4.718   4.606 -1.1818 -0.8800 -1.2314
 4537TIP3   OH235025   6.188   1.233   3.506 -0.5574  0.1812 -0.6847
 4537TIP3    H135026   6.259   1.226   3.443 -1.6854  1.6204 -2.2101
 4537TIP3    H235027   6.110   1.204   3.458 -1.0652 -1.1512  0.8693
 4538TIP3   OH235028   4.226   5.319   2.883  0.4234  0.1577  0.4753
 4538TIP3    H135029   4.308   5.352   2.846  0.5821  0.5272  1.1470
 4538TIP3    H235030   4.197   5.388   2.943  0.9466 -1.0428  2.1835
 4539TIP3   OH235031   1.831   2.861  11.482 -0.1467 -0.2078  0.3549
 4539TIP3    H135032   1.826   2.778  11.434 -2.1745 -0.1374  0.3554
 4539TIP3    H235033   1.902   2.909  11.440  2.0065 -2.4254  1.2060
 4540TIP3   OH235034   2.482   0.412  17.469 -0.1554 -0.3083  0.2945
 4540TIP3    H135035   2.504   0.343  17.407  0.4335  1.3485 -1.4472
 4540TIP3    H235036   2.557   0.414  17.529  1.0380  0.3930 -1.1403
 4541TIP3   OH235037   5.013   5.932   6.241  0.1509  0.1274 -0.1568
 4541TIP3    H135038   5.070   6.000   6.277  0.3845  1.1884 -2.3256
 4541TIP3    H235039   5.071   5.876   6.190 -0.4166 -0.1970 -0.4575
 4542TIP3   OH235040   5.520   1.689  16.294  0.3253 -0.3234  0.1636
 4542TIP3    H135041   5.551   1.766  16.341  1.8132 -0.2950 -0.7652
 4542TIP3    H235042   5.426   1.702  16.284  0.6724  1.9427 -0.8984
 4543TIP3   OH235043   1.236   5.251   3.333  0.3022 -0.2362  0.2057
 4543TIP3    H135044   1.256   5.161   3.360 -0.0576 -0.2558  0.4129
 4543TIP3    H235045   1.144   5.264   3.357 -0.8050 -1.0377 -3.0449
 4544TIP3   OH235046   4.265   0.082   0.901 -0.1808 -0.1251 -0.0979
 4544TIP3    H135047   4.220   0.104   0.983  1.0385  2.2847 -0.0016
 4544TIP3    H235048   4.200   0.100   0.833  0.2008  2.3201  0.1027
 4545TIP3   OH235049   0.645   5.711  12.776  0.0104  0.0529 -0.5951
 4545TIP3    H135050   0.581   5.694  12.706 -2.1981 -1.9045  1.7330
 4545TIP3    H235051   0.693   5.629  12.785  0.9250  0.5947 -0.4005
 4546TIP3   OH235052   1.574   2.226  12.533 -0.2251  0.0485  0.3976
 4546TIP3    H135053   1.637   2.289  12.569 -1.3591  1.4283  0.0573
 4546TIP3    H235054   1.533   2.273  12.460  0.4205 -1.8748 -1.2878
 4547TIP3   OH235055   1.778   1.433  14.752  0.3710 -0.0869  0.1886
 4547TIP3    H135056   1.823   1.450  14.835  1.0916  0.9691 -0.3991
 4547TIP3    H235057   1.686   1.426  14.776  0.1108  3.4121  0.7502
 4548TIP3   OH235058   6.056   2.348   5.751 -0.5706  0.1619  0.0814
 4548TIP3    H135059   6.111   2.354   5.673 -0.0551 -2.7067  0.1350
 4548TIP3    H235060   5.974   2.390   5.726 -0.4273 -0.7220 -2.0374
 4549TIP3   OH235061   1.962   3.107   2.113 -0.0759 -0.1338  0.2415
 4549TIP3    H135062   1.947   3.198   2.139 -0.7917  0.2016 -1.2093
 4549TIP3    H235063   1.881   3.062   2.137 -0.0449 -0.2111  0.2001
 4550TIP3   OH235064   2.368   3.441  15.242  0.4112  0.1030  0.2014
 4550TIP3    H135065   2.276   3.458  15.222 -0.1255 -1.4001  1.2593
 4550TIP3    H235066   2.392   3.370  15.181  0.9527  0.6553 -0.2377
 4551TIP3   OH235067   1.702   3.412  13.636  0.5159  0.2804  0.4150
 4551TIP3    H135068   1.680   3.356  13.710  2.3230 -1.6260 -0.3993
 4551TIP3    H235069   1.627   3.404  13.577 -1.6254  2.9656  2.5236
 4552TIP3   OH235070   6.372   3.809  11.854  0.0910 -0.1065  0.1812
 4552TIP3    H135071   6.455   3.804  11.806  1.2696  1.5509  1.8777
 4552TIP3    H235072   6.398   3.808  11.946 -1.5550  2.3825  0.7925
 4553TIP3   OH235073   5.667   6.123  13.224 -0.1432 -0.0321  0.3045
 4553TIP3    H135074   5.717   6.130  13.143 -1.4575  1.5438 -0.4286
 4553TIP3    H235075   5.584   6.083  13.198 -1.6077  2.7358  0.2782
 4554TIP3   OH235076   6.115   2.073  17.043 -1.0371 -0.0097 -0.0220
 4554TIP3    H135077   6.065   2.104  16.967 -0.9516  3.2891  1.1074
 4554TIP3    H235078   6.055   2.082  17.116 -0.2609 -0.4952  0.6892
 4555TIP3   OH235079   0.674   4.219   4.594 -0.4105  0.3041 -0.7971
 4555TIP3    H135080   0.684   4.155   4.523 -0.7614  0.0683 -0.6375
 4555TIP3    H235081   0.746   4.200   4.654 -1.2943 -0.8583 -0.0552
 4556TIP3   OH235082   0.692   1.807   5.875 -0.0265 -0.3238 -0.3848
 4556TIP3    H135083   0.704   1.886   5.823 -0.7335 -0.6946 -1.1198
 4556TIP3    H235084   0.637   1.834   5.948 -1.8012 -0.5094 -1.5986
 4557TIP3   OH235085   6.454   2.062   5.725  0.1731 -0.7010 -0.0193
 4557TIP3    H135086   6.380   2.038   5.669 -0.8394  0.2723  0.8456
 4557TIP3    H235087   6.513   1.986   5.720  0.1532 -0.6544 -2.3765
 4558TIP3   OH235088   0.722   1.324  16.229 -0.0726 -0.2309  0.4990
 4558TIP3    H135089   0.633   1.359  16.237 -0.6159 -1.9077  2.4744
 4558TIP3    H235090   0.764   1.381  16.164 -2.1176  1.4974  0.5850
 4559TIP3   OH235091   0.662   4.201  16.501  0.4471 -0.7996 -0.1551
 4559TIP3    H135092   0.706   4.285  16.488  0.9450 -1.2603 -1.4986
 4559TIP3    H235093   0.633   4.175  16.414  0.0515 -1.8972  0.2922
 4560TIP3   OH235094   3.393   4.400   4.522  0.4244  0.2307  0.1058
 4560TIP3    H135095   3.339   4.325   4.498  0.6060  0.5939 -1.5454
 4560TIP3    H235096   3.334   4.458   4.569 -0.4288  0.2735 -0.9960
 4561TIP3   OH235097   4.750   1.394  11.007  0.3671  0.0005  0.1524
 4561TIP3    H135098   4.799   1.364  11.084 -1.0141 -2.4890  0.1562
 4561TIP3    H235099   4.816   1.401  10.938  0.7753 -4.4122 -0.1652
 4562TIP3   OH235100   5.440   3.147  11.265 -0.0115 -0.2392  0.8655
 4562TIP3    H135101   5.512   3.084  11.265 -0.2096 -0.5336 -1.1596
 4562TIP3    H235102   5.419   3.160  11.172 -1.1433  1.4846  1.3074
 4563TIP3   OH235103   0.228   2.493   4.052 -0.1023  0.1514  0.2085
 4563TIP3    H135104   0.191   2.536   3.975 -1.9506 -0.0926  0.9060
 4563TIP3    H235105   0.322   2.497   4.039 -0.3514 -0.0582 -2.1704
 4564TIP3   OH235106   2.855   1.317  16.484 -0.5709 -0.3136 -0.1245
 4564TIP3    H135107   2.836   1.237  16.533  1.2071 -0.0339  1.1338
 4564TIP3    H235108   2.936   1.350  16.523 -0.4373  1.2897 -1.6374
 4565TIP3   OH235109   1.481   3.175  15.813  0.6091 -0.3264  0.2340
 4565TIP3    H135110   1.483   3.217  15.899  0.7761  0.3045 -0.0692
 4565TIP3    H235111   1.566   3.130  15.807  0.8987  0.2206  0.1191
 4566TIP3   OH235112   1.697   4.252  13.713 -0.0036 -0.6319 -0.4894
 4566TIP3    H135113   1.680   4.215  13.626 -1.6318 -0.8376 -0.1230
 4566TIP3    H235114   1.640   4.202  13.772  1.1136 -0.5290  0.7127
 4567TIP3   OH235115   0.047   2.894  17.058  0.3725  0.0401  0.0315
 4567TIP3    H135116   0.043   2.899  17.153 -1.3348 -0.1258 -0.0083
 4567TIP3    H235117  -0.033   2.849  17.032 -0.1261  1.7172 -1.5900
 4568TIP3   OH235118   5.968   1.956  14.184 -0.3346  0.4770 -0.7565
 4568TIP3    H135119   5.943   2.016  14.114 -0.7105 -0.6732 -1.6510
 4568TIP3    H235120   6.054   1.987  14.213 -0.6263  1.5715 -1.0251
 4569TIP3   OH235121   3.683   2.123   0.845 -0.3493 -0.0686  0.4980
 4569TIP3    H135122   3.724   2.055   0.899 -0.0962 -0.5896 -0.3364
 4569TIP3    H235123   3.756   2.161   0.795 -0.7019 -0.1785 -0.1067
 4570TIP3   OH235124   1.891   5.877   6.364  0.0086 -0.4880  0.4375
 4570TIP3    H135125   1.823   5.890   6.429  1.2537 -2.2977  2.2296
 4570TIP3    H235126   1.973   5.884   6.414  1.1295  0.6497 -1.4488
 4571TIP3   OH235127   6.094   0.736  15.871 -0.3490 -0.1927  0.8434
 4571TIP3    H135128   6.082   0.713  15.963  1.5541  0.1876  1.2190
 4571TIP3    H235129   6.151   0.667  15.837 -0.9925 -0.2997 -0.0589
 4572TIP3   OH235130   3.482   6.100   1.717 -1.0226  0.4445  0.6446
 4572TIP3    H135131   3.396   6.141   1.726 -1.1357  0.0935  1.1953
 4572TIP3    H235132   3.463   6.008   1.698 -0.7800  0.1282  1.8688
 4573TIP3   OH235133   1.845   4.446  15.770  0.3397  0.5042 -0.1493
 4573TIP3    H135134   1.825   4.360  15.805  1.1894  0.3704  0.0194
 4573TIP3    H235135   1.940   4.451  15.769  0.3207  0.9836 -1.2784
 4574TIP3   OH235136   4.112   5.169  13.220 -0.5415 -0.2283 -0.5815
 4574TIP3    H135137   4.157   5.091  13.251 -0.5580 -0.5413 -1.3348
 4574TIP3    H235138   4.019   5.151  13.233 -0.4860  0.6204  1.4579
 4575TIP3   OH235139   2.392   5.217   6.675 -0.4780 -0.1674 -0.0273
 4575TIP3    H135140   2.478   5.257   6.688 -0.8004  0.6726 -0.4238
 4575TIP3    H235141   2.394   5.185   6.585 -1.4756  2.2215 -1.0019
 4576TIP3   OH235142   0.527   5.492  12.914  0.1668  0.2324 -0.0788
 4576TIP3    H135143   0.523   5.455  13.002 -0.5784  0.3459 -0.0566
 4576TIP3    H235144   0.599   5.555  12.917  0.0004  0.3970  0.5112
 4577TIP3   OH235145   0.080   4.357  14.576  0.2393 -0.0831 -0.2932
 4577TIP3    H135146   0.090   4.431  14.517  1.8655  1.0182  1.2528
 4577TIP3    H235147   0.023   4.389  14.646  1.1306 -0.1830  0.5000
 4578TIP3   OH235148   3.997   2.781  11.571  0.0549  0.2237  0.5650
 4578TIP3    H135149   3.985   2.723  11.646  1.9823 -0.2709  0.5317
 4578TIP3    H235150   4.017   2.867  11.610  0.0670  0.1970  0.6184
 4579TIP3   OH235151   0.385   1.944  12.185 -0.4003  0.5805  0.2762
 4579TIP3    H135152   0.303   1.922  12.230  1.1761 -1.0105  2.6167
 4579TIP3    H235153   0.380   1.896  12.103 -0.6567 -2.0299  1.6818
 4580TIP3   OH235154   1.023   2.952  15.143 -0.2685  0.6509  0.6026
 4580TIP3    H135155   0.983   2.912  15.066  1.1596  2.2560 -1.0518
 4580TIP3    H235156   1.023   2.882  15.209 -1.0442 -0.9464 -1.0110
 4581TIP3   OH235157   0.061   4.814   5.195  0.1629  0.1882  0.0281
 4581TIP3    H135158   0.122   4.810   5.121 -1.2446 -2.5900 -1.1100
 4581TIP3    H235159  -0.008   4.874   5.166 -1.1022 -1.9285 -1.6246
 4582TIP3   OH235160   3.527   4.739   3.597 -0.3206 -0.3972 -0.6828
 4582TIP3    H135161   3.556   4.724   3.507  0.6143  0.0900 -0.4831
 4582TIP3    H235162   3.526   4.652   3.636 -2.1261 -0.7982 -1.5380
 4583TIP3   OH235163   3.210   0.195  14.260  0.7798 -0.5339 -0.8781
 4583TIP3    H135164   3.117   0.194  14.284  0.9951 -1.0487 -0.0099
 4583TIP3    H235165   3.249   0.260  14.318  0.6856  0.9802 -2.4451
 4584TIP3   OH235166   0.472   4.913  16.733 -0.2205  0.0562  0.4375
 4584TIP3    H135167   0.506   5.003  16.730 -1.7138  0.7060  1.6444
 4584TIP3    H235168   0.546   4.861  16.763  0.0315  1.2889  2.1501
 4585TIP3   OH235169   6.277   0.893   1.953 -0.3466 -0.0272  0.1641
 4585TIP3    H135170   6.300   0.983   1.974 -1.4006  0.1890  0.4335
 4585TIP3    H235171   6.341   0.840   2.001 -0.2327  0.5610  0.6776
 4586TIP3   OH235172   5.510   4.003  11.785 -0.4070 -0.1983 -0.0683
 4586TIP3    H135173   5.583   4.031  11.731 -0.5674  1.3308  0.4686
 4586TIP3    H235174   5.443   3.975  11.723 -1.0125  2.5641 -0.7815
 4587TIP3   OH235175   1.494   3.106  11.248  0.1130  0.1359 -0.1073
 4587TIP3    H135176   1.447   3.190  11.247 -1.5291 -0.7309  0.7860
 4587TIP3    H235177   1.467   3.062  11.167  0.8819  0.3921 -0.5160
 4588TIP3   OH235178   2.137   3.615  11.180  0.3328 -0.2948  0.3468
 4588TIP3    H135179   2.125   3.646  11.090 -0.2153  0.4501  0.6610
 4588TIP3    H235180   2.064   3.654  11.228 -0.3767 -2.0594  0.7965
 4589TIP3   OH235181   5.597   2.018  14.263  0.2704  0.0444  0.2370
 4589TIP3    H135182   5.604   1.987  14.173 -0.5484  1.7119 -0.4352
 4589TIP3    H235183   5.561   1.943  14.311 -1.8424 -0.0364 -1.3612
 4590TIP3   OH235184   6.596   3.573  13.443 -0.3847 -0.1133  0.4580
 4590TIP3    H135185   6.613   3.661  13.407 -1.9133  1.1256  2.5120
 4590TIP3    H235186   6.682   3.534  13.453  0.2956  0.9155 -1.0375
 4591TIP3   OH235187   3.427   3.768  13.723 -0.4020  0.5291  0.1755
 4591TIP3    H135188   3.398   3.763  13.814 -0.9170  0.3706  0.0049
 4591TIP3    H235189   3.375   3.839  13.685 -0.2224  0.5625 -0.0104
 4592TIP3   OH235190   2.088   2.417  11.932  0.4680  0.2175 -0.3959
 4592TIP3    H135191   2.130   2.366  11.863  0.8791 -0.5082  0.3696
 4592TIP3    H235192   2.076   2.504  11.894  3.1145  0.6198 -0.5448
 4593TIP3   OH235193   2.445   5.686  12.121 -0.1253 -0.1480 -0.5108
 4593TIP3    H135194   2.386   5.622  12.081 -1.5368 -0.9211  2.5567
 4593TIP3    H235195   2.489   5.727  12.046 -3.2491 -0.7392 -2.9060
 4594TIP3   OH235196   1.112   2.034   1.394  0.3127 -0.6303 -0.8749
 4594TIP3    H135197   1.145   1.971   1.329 -0.3841 -1.3777 -0.5260
 4594TIP3    H235198   1.062   2.097   1.343  2.2825  0.5630 -1.4207
 4595TIP3   OH235199   4.372   4.724   6.563 -0.0180 -0.5449 -0.6093
 4595TIP3    H135200   4.332   4.758   6.483 -0.4690 -0.1141 -0.2075
 4595TIP3    H235201   4.322   4.764   6.634 -0.7091 -2.1955 -0.1056
 4596TIP3   OH235202   4.814   2.822   4.472  0.5687 -0.4814  0.3602
 4596TIP3    H135203   4.792   2.768   4.396  0.6487 -0.1734  0.1165
 4596TIP3    H235204   4.732   2.868   4.493  0.6993 -0.1239  0.0966
 4597TIP3   OH235205   3.284   5.863   3.792 -0.2249 -0.2771 -0.3326
 4597TIP3    H135206   3.295   5.889   3.700 -1.5974 -0.1678 -0.5018
 4597TIP3    H235207   3.191   5.840   3.799  0.1054 -1.3965  0.7678
 4598TIP3   OH235208   4.768   5.498  17.066 -0.1264  0.4665 -0.2277
 4598TIP3    H135209   4.789   5.468  17.154 -0.3764  0.7975 -0.0515
 4598TIP3    H235210   4.827   5.573  17.051 -0.9758  1.2417  0.1739
 4599TIP3   OH235211   0.747   3.325   1.147  0.2916  0.4612 -0.0169
 4599TIP3    H135212   0.666   3.284   1.178  0.1087  1.2542  0.5901
 4599TIP3    H235213   0.766   3.392   1.212  2.5268 -0.9848  0.9204
 4600TIP3   OH235214   4.944   2.733  17.368  0.2126  0.0138 -0.8643
 4600TIP3    H135215   4.939   2.676  17.291  0.0783 -1.1727 -0.0115
 4600TIP3    H235216   4.942   2.673  17.443 -0.0070  1.1545  0.0854
 4601TIP3   OH235217   3.640   4.444  11.763 -0.3566 -0.2476  0.6802
 4601TIP3    H135218   3.569   4.504  11.739 -0.6426 -1.6760 -2.5960
 4601TIP3    H235219   3.637   4.375  11.696  3.7054 -0.7545  0.7770
 4602TIP3   OH235220   2.244   4.872   1.562  0.1610  0.4369 -1.0770
 4602TIP3    H135221   2.251   4.963   1.533  0.8899  0.2341 -1.5757
 4602TIP3    H235222   2.317   4.862   1.624 -0.6955  0.5455 -0.0125
 4603TIP3   OH235223   0.749   0.466  14.897  0.1237  0.3699  0.0287
 4603TIP3    H135224   0.796   0.385  14.874  0.6068  1.1812 -2.1511
 4603TIP3    H235225   0.697   0.443  14.973  0.3049 -1.9848 -0.4725
 4604TIP3   OH235226   4.847   2.608  14.803 -0.2270 -0.4794  0.2801
 4604TIP3    H135227   4.847   2.687  14.749  1.2494  0.3354  1.3858
 4604TIP3    H235228   4.838   2.536  14.741 -0.4329  0.5000 -0.8700
 4605TIP3   OH235229   1.154   4.927  14.148  0.1888 -0.0781  0.1356
 4605TIP3    H135230   1.127   4.939  14.057 -1.6248 -0.1767  0.6110
 4605TIP3    H235231   1.197   4.842  14.149 -0.4266 -0.4071 -0.4992
 4606TIP3   OH235232   3.697   1.214  15.904  0.4045  0.2679  0.6172
 4606TIP3    H135233   3.770   1.276  15.913 -1.0317  2.0271  0.7941
 4606TIP3    H235234   3.670   1.195  15.994  1.2215 -1.1787  0.5955
 4607TIP3   OH235235   1.680   6.600   1.782 -0.4183  0.3410 -0.0965
 4607TIP3    H135236   1.674   6.505   1.782 -0.6537  0.3509  0.7357
 4607TIP3    H235237   1.688   6.624   1.689  0.7257 -0.5451 -0.2422
 4608TIP3   OH235238   6.296   6.378   2.016  0.6216  0.0391  0.0271
 4608TIP3    H135239   6.343   6.459   1.997  0.2913  0.1159 -0.4779
 4608TIP3    H235240   6.208   6.406   2.040  0.6660 -0.1393  0.4058
 4609TIP3   OH235241   4.613   6.061  16.091 -0.3515 -0.2883  0.4090
 4609TIP3    H135242   4.659   6.096  16.167 -0.9762  1.0352  0.2023
 4609TIP3    H235243   4.682   6.046  16.026 -0.1517  1.3966  0.2040
 4610TIP3   OH235244   4.892   5.432  17.322  0.0529  0.1134  0.1643
 4610TIP3    H135245   4.875   5.340  17.300 -1.8883  0.1120  1.4548
 4610TIP3    H235246   4.940   5.428  17.404  0.4573  0.2692 -0.0591
 4611TIP3   OH235247   6.371   0.430   0.535 -0.8659  0.5008  0.3311
 4611TIP3    H135248   6.340   0.517   0.510  0.3384  1.1321  0.9397
 4611TIP3    H235249   6.347   0.422   0.628 -2.2954 -0.4493 -0.0844
 4612TIP3   OH235250   0.368   2.930  13.271 -0.3020 -0.7303  0.3159
 4612TIP3    H135251   0.356   2.929  13.176 -0.0287  0.1734  0.2629
 4612TIP3    H235252   0.426   2.856  13.288  2.1976  0.8648 -0.6113
 4613TIP3   OH235253   5.836   4.350  14.007 -0.0170  0.3547 -0.3588
 4613TIP3    H135254   5.796   4.436  14.009 -2.6094 -0.7489 -0.5912
 4613TIP3    H235255   5.765   4.290  14.029  1.5960 -1.7658 -0.5945
 4614TIP3   OH235256   0.229   3.181  11.156 -0.4331 -0.1577 -0.1778
 4614TIP3    H135257   0.164   3.114  11.136 -1.8664  1.1481 -0.0240
 4614TIP3    H235258   0.275   3.147  11.233  0.5492 -2.0650 -1.5387
 4615TIP3   OH235259   1.346   3.549   1.154 -0.0551  0.2197 -0.5438
 4615TIP3    H135260   1.351   3.562   1.249  0.2980  0.6964 -0.6248
 4615TIP3    H235261   1.334   3.637   1.118  1.8467  0.3255 -1.0666
 4616TIP3   OH235262   2.953   4.686  15.003 -0.0230 -0.2006  0.2302
 4616TIP3    H135263   2.957   4.726  14.916  2.7735 -0.1749  0.2804
 4616TIP3    H235264   2.864   4.702  15.033 -0.0311  3.0492 -1.1353
 4617TIP3   OH235265   3.756   6.301  12.393  0.5060  0.4920 -0.1039
 4617TIP3    H135266   3.738   6.315  12.486  0.0602 -1.6366  0.1853
 4617TIP3    H235267   3.835   6.246  12.393  0.1881  0.0329 -0.9657
 4618TIP3   OH235268   1.773   4.956   2.810 -0.0784  0.0819  0.5254
 4618TIP3    H135269   1.867   4.942   2.812  0.0003  0.3308 -0.6943
 4618TIP3    H235270   1.743   4.911   2.731 -1.0655 -0.4430  1.1782
 4619TIP3   OH235271   5.048   1.170  10.707  0.1100 -0.2995  0.0381
 4619TIP3    H135272   4.978   1.223  10.669 -0.6621 -0.7112  0.8643
 4619TIP3    H235273   5.126   1.226  10.701 -0.4067  0.3921 -0.3576
 4620TIP3   OH235274   2.660   5.005  14.876  0.2250  0.0060 -0.3150
 4620TIP3    H135275   2.705   4.964  14.950 -0.2499  0.2390  0.1115
 4620TIP3    H235276   2.702   5.090  14.866 -1.1271  0.9052  1.1137
 4621TIP3   OH235277   6.655   3.182  14.356 -0.3544 -0.0655  0.4879
 4621TIP3    H135278   6.562   3.192  14.337 -0.4247 -1.1741  0.1496
 4621TIP3    H235279   6.662   3.096  14.398  0.4551  0.2149  0.9513
 4622TIP3   OH235280   0.901   0.487  16.281  0.4988 -0.3928  0.4459
 4622TIP3    H135281   0.898   0.561  16.220 -0.4750  0.0574  1.0203
 4622TIP3    H235282   0.922   0.411  16.226  0.5790  0.1568 -0.2964
 4623TIP3   OH235283   6.397   2.961   2.789  0.1265 -0.8522  0.1285
 4623TIP3    H135284   6.392   2.916   2.704 -1.6282 -1.9916  0.7682
 4623TIP3    H235285   6.384   3.053   2.768  1.8730 -0.8161 -1.0233
 4624TIP3   OH235286   6.573   0.805   4.968  0.1034  0.2608 -0.0134
 4624TIP3    H135287   6.547   0.877   5.025  1.1663  1.2093 -0.6894
 4624TIP3    H235288   6.641   0.759   5.017 -1.1147 -0.7772  0.7461
 4625TIP3   OH235289   6.418   5.290  16.280  0.1264 -0.1850  0.5814
 4625TIP3    H135290   6.338   5.265  16.326 -0.6233 -1.0289 -1.1075
 4625TIP3    H235291   6.442   5.212  16.230  0.1947  1.0751 -1.4541
 4626TIP3   OH235292   5.860   2.384   5.551  0.4089 -0.0174 -0.4342
 4626TIP3    H135293   5.788   2.339   5.596  1.5456 -0.1639  1.3314
 4626TIP3    H235294   5.817   2.448   5.495 -1.1424 -1.2218 -0.6844
 4627TIP3   OH235295   6.339   3.575   0.357  0.4351  0.1062  0.7308
 4627TIP3    H135296   6.425   3.536   0.346  1.1226  2.0610 -1.8718
 4627TIP3    H235297   6.357   3.665   0.387 -0.6151  0.7539 -0.4940
 4628TIP3   OH235298   5.785   0.250   1.344 -0.4140  0.7789 -0.2651
 4628TIP3    H135299   5.714   0.299   1.385 -0.0277  1.4837 -0.4298
 4628TIP3    H235300   5.849   0.316   1.319  0.1302  0.1884 -0.4674
 4629TIP3   OH235301   3.974   0.348   5.316  0.7499 -0.1647  0.1554
 4629TIP3    H135302   3.959   0.428   5.366 -0.9544  0.5495 -1.4106
 4629TIP3    H235303   4.009   0.286   5.381  1.2249  1.5231  1.6001
 4630TIP3   OH235304   4.224   3.257  17.403 -0.5978  0.0519 -0.1974
 4630TIP3    H135305   4.147   3.292  17.448 -0.6506 -0.3244  0.0086
 4630TIP3    H235306   4.259   3.332  17.354  0.6000  1.0146  1.9982
 4631TIP3   OH235307   6.610   1.941  14.262 -0.1368  0.1665  0.2570
 4631TIP3    H135308   6.628   1.901  14.178  0.1280  0.3855  0.2071
 4631TIP3    H235309   6.617   1.870  14.325  0.2657  0.1186  0.1627
 4632TIP3   OH235310   0.395   5.318  15.978  0.1183 -0.5187 -0.6737
 4632TIP3    H135311   0.347   5.393  16.013  0.4422 -0.0265 -1.2559
 4632TIP3    H235312   0.438   5.279  16.053  0.1200  0.0129 -0.3906
 4633TIP3   OH235313   1.635   4.422   2.619  0.0335  0.0689  0.1890
 4633TIP3    H135314   1.610   4.330   2.628 -0.1432  0.2687  1.9474
 4633TIP3    H235315   1.668   4.428   2.529 -0.9446 -1.4591 -0.3249
 4634TIP3   OH235316   0.419   5.837  15.583  0.6067 -0.2468  0.7350
 4634TIP3    H135317   0.410   5.906  15.649 -1.0290  0.8338 -0.5207
 4634TIP3    H235318   0.420   5.885  15.500  0.7002 -1.6839 -0.1141
 4635TIP3   OH235319   0.752   3.327  14.289  0.7377  0.5150  0.8239
 4635TIP3    H135320   0.798   3.247  14.263  0.9111  0.7893  0.2678
 4635TIP3    H235321   0.741   3.319  14.384  0.5867 -0.2526  0.7403
 4636TIP3   OH235322   1.149   1.848  12.313  0.2205 -0.0499 -0.2206
 4636TIP3    H135323   1.226   1.903  12.322  1.4267 -1.6894 -0.1308
 4636TIP3    H235324   1.182   1.758  12.321 -1.6338 -0.8115 -0.5710
 4637TIP3   OH235325   4.498   5.251   0.521 -0.3947  0.3591 -0.0578
 4637TIP3    H135326   4.413   5.268   0.563  0.4003 -0.8379  2.2026
 4637TIP3    H235327   4.562   5.287   0.582  0.8856 -2.6032  0.5292
 4638TIP3   OH235328   6.576   4.518   2.868 -0.1903  1.1731  0.3251
 4638TIP3    H135329   6.546   4.595   2.917  0.4421  3.5132 -2.5866
 4638TIP3    H235330   6.668   4.537   2.849  0.4086 -1.0827  0.7785
 4639TIP3   OH235331   2.540   5.242  17.416 -0.0173  0.5995  0.0573
 4639TIP3    H135332   2.616   5.239  17.474 -0.2937 -0.0689  0.3943
 4639TIP3    H235333   2.468   5.206  17.469 -0.3964  0.5086 -0.5128
 4640TIP3   OH235334   5.601   6.095   0.964  0.4781  0.2230 -0.3864
 4640TIP3    H135335   5.544   6.167   0.991  0.6309  1.4573 -3.0166
 4640TIP3    H235336   5.543   6.038   0.912  0.5526 -1.1555  0.9873
 4641TIP3   OH235337   6.619   0.588  15.323  0.0607 -0.1458  0.2141
 4641TIP3    H135338   6.605   0.513  15.266  0.3651 -0.1616  0.1577
 4641TIP3    H235339   6.540   0.641  15.313 -0.0309 -0.3161  0.0371
 4642TIP3   OH235340   6.658   6.171  12.672  0.1611 -0.4419 -0.1831
 4642TIP3    H135341   6.674   6.126  12.756 -1.6191  0.4558  0.6998
 4642TIP3    H235342   6.745   6.193  12.640  0.9271 -1.4888  1.0454
 4643TIP3   OH235343   0.979   6.432  12.476  0.2946  0.6255  0.2349
 4643TIP3    H135344   0.912   6.491  12.441 -0.3887 -0.3573 -0.1649
 4643TIP3    H235345   1.016   6.480  12.550 -0.4945  1.4010  0.1504
 4644TIP3   OH235346   0.741   6.379   0.770 -1.1033 -0.1984 -0.6931
 4644TIP3    H135347   0.790   6.381   0.852 -1.1373  1.1125 -0.6894
 4644TIP3    H235348   0.804   6.347   0.705 -0.2014  1.4502 -0.6842
 4645TIP3   OH235349   2.289   2.430   5.895  0.2057  0.4299  0.0980
 4645TIP3    H135350   2.366   2.476   5.862 -0.5930  1.9806  0.3108
 4645TIP3    H235351   2.228   2.429   5.821 -0.4300  1.2419  0.5914
 4646TIP3   OH235352   5.995   2.005   4.567  0.7741  0.3151  0.1787
 4646TIP3    H135353   6.038   1.961   4.494 -0.1241 -0.6966  0.2362
 4646TIP3    H235354   5.933   1.941   4.602 -1.2893  1.8912 -0.3423
 4647TIP3   OH235355   2.833   0.719  13.038  0.1035 -0.1081 -0.1053
 4647TIP3    H135356   2.748   0.715  13.083  0.1747 -0.0100  0.0360
 4647TIP3    H235357   2.825   0.655  12.967 -0.2712  0.2631 -0.4037
 4648TIP3   OH235358   2.469   2.974   1.558 -0.9680  0.3682  0.7741
 4648TIP3    H135359   2.521   3.047   1.590 -1.6296  0.6173  1.3065
 4648TIP3    H235360   2.486   2.903   1.620 -1.1634  0.4111  0.8780
 4649TIP3   OH235361   4.662   5.652  15.731  0.7012  0.4908 -0.1642
 4649TIP3    H135362   4.643   5.637  15.824  0.8677 -2.0410 -0.4822
 4649TIP3    H235363   4.589   5.706  15.700 -0.5907 -0.5715  0.9309
 4650TIP3   OH235364   0.850   6.391  16.072 -0.6375  0.1469  0.1841
 4650TIP3    H135365   0.883   6.326  16.009  2.3064 -0.1832  1.8822
 4650TIP3    H235366   0.915   6.461  16.069 -1.4779  1.0162  1.4896
 4651TIP3   OH235367   0.737   3.502   4.668  0.3125  0.5949  0.2083
 4651TIP3    H135368   0.759   3.484   4.760 -0.0015 -1.4613 -0.0737
 4651TIP3    H235369   0.663   3.562   4.673  0.1021  0.2752  1.3105
 4652TIP3   OH235370   0.945   1.258  14.887 -0.1573 -0.0692  0.2511
 4652TIP3    H135371   0.957   1.264  14.982 -5.0706  1.1571  1.0752
 4652TIP3    H235372   0.906   1.171  14.874  1.6192 -0.7313 -0.8907
 4653TIP3   OH235373   5.959   1.172  14.470 -0.6351 -0.0328 -0.4481
 4653TIP3    H135374   6.019   1.097  14.464  1.7912  1.6711  0.8477
 4653TIP3    H235375   5.898   1.148  14.540  0.7096 -0.4209  0.6229
 4654TIP3   OH235376   6.386   3.647  15.212 -0.0155  0.2032 -0.0865
 4654TIP3    H135377   6.324   3.588  15.256 -1.0531 -0.3581 -2.1840
 4654TIP3    H235378   6.338   3.729  15.203  0.2835  0.3907  0.0228
 4655TIP3   OH235379   5.455   2.927  13.030  0.3168 -0.4913  0.0999
 4655TIP3    H135380   5.427   2.883  12.949 -0.0254 -0.1433  0.0260
 4655TIP3    H235381   5.427   2.869  13.100  1.7041 -1.4038 -0.0609
 4656TIP3   OH235382   1.283   4.712  14.257 -0.4610 -0.1389  0.5221
 4656TIP3    H135383   1.299   4.668  14.341 -2.4416  0.1699  1.1148
 4656TIP3    H235384   1.359   4.691  14.204  0.8925 -0.2701  2.4268
 4657TIP3   OH235385   5.458   6.719  14.726  0.0126 -0.1674  0.1572
 4657TIP3    H135386   5.402   6.679  14.659 -1.0503  1.1110  0.2293
 4657TIP3    H235387   5.445   6.813  14.715  0.8274  0.1060  1.3191
 4658TIP3   OH235388   4.530   3.019  12.219 -0.5371 -0.6886  1.1089
 4658TIP3    H135389   4.528   3.114  12.228  0.5011 -0.6353  0.9276
 4658TIP3    H235390   4.445   2.997  12.181 -0.2667  0.3316 -0.1837
 4659TIP3   OH235391   0.484   4.079   0.648 -0.2332 -0.1369 -0.9959
 4659TIP3    H135392   0.574   4.046   0.653 -0.1281  0.3475  1.4817
 4659TIP3    H235393   0.495   4.173   0.631 -0.1730  0.1915  0.7110
 4660TIP3   OH235394   0.482   4.015  15.559 -0.6144 -0.0798  0.0744
 4660TIP3    H135395   0.437   4.090  15.519 -0.0346  0.2040 -0.0522
 4660TIP3    H235396   0.568   4.013  15.517 -0.0136  0.1828  1.2381
 4661TIP3   OH235397   1.431   3.865   5.415 -0.0925  0.0997  0.2064
 4661TIP3    H135398   1.349   3.914   5.421 -0.3877 -0.3240 -0.3097
 4661TIP3    H235399   1.492   3.927   5.375  0.0757  0.6890  1.3294
 4662TIP3   OH235400   6.189   0.033  16.922  0.9130  0.2891  0.5203
 4662TIP3    H135401   6.141   0.104  16.964  1.3863  0.2102  1.2105
 4662TIP3    H235402   6.246   0.077  16.858  0.8935  0.4943  0.6425
 4663TIP3   OH235403   3.514   0.067   3.744  0.6732 -0.2997 -0.2567
 4663TIP3    H135404   3.527   0.140   3.804 -1.8113 -0.6534  0.8491
 4663TIP3    H235405   3.493  -0.007   3.801 -1.7481 -0.6569 -1.4868
 4664TIP3   OH235406   6.417   1.114   4.721  0.3460  0.0142  0.5151
 4664TIP3    H135407   6.508   1.122   4.692  0.1083  1.0355  0.0003
 4664TIP3    H235408   6.421   1.055   4.797  1.1689 -1.5673 -0.6955
 4665TIP3   OH235409   0.657   3.810  14.756 -0.1303 -0.3778  0.3611
 4665TIP3    H135410   0.705   3.731  14.780  1.3304 -0.6156 -2.7785
 4665TIP3    H235411   0.565   3.783  14.751  0.3179 -1.8272 -0.3732
 4666TIP3   OH235412   4.296   5.525  13.126 -0.6552  0.4197  0.3422
 4666TIP3    H135413   4.233   5.531  13.199 -1.7510 -0.4535 -0.4869
 4666TIP3    H235414   4.252   5.569  13.053 -0.5653 -0.7237 -0.4185
 4667TIP3   OH235415   4.966   3.487   2.321 -0.4409 -0.3830 -0.0824
 4667TIP3    H135416   4.888   3.530   2.285 -0.1649 -0.0319 -0.2591
 4667TIP3    H235417   5.011   3.452   2.245  0.4622  0.8829 -0.1516
 4668TIP3   OH235418   5.344   5.895   3.426 -0.1530 -0.0386  0.1730
 4668TIP3    H135419   5.431   5.862   3.451  0.5217  0.1305 -1.7669
 4668TIP3    H235420   5.313   5.833   3.361 -0.7724  0.7791 -0.3317
 4669TIP3   OH235421   4.243   0.914   4.289  0.3967 -0.2726 -0.2841
 4669TIP3    H135422   4.287   0.991   4.253 -1.6801  0.8932 -0.4562
 4669TIP3    H235423   4.150   0.931   4.277 -0.1412 -2.9437 -0.5445
 4670TIP3   OH235424   2.963   3.107  17.394 -0.0762  0.4325 -0.5093
 4670TIP3    H135425   2.909   3.172  17.348 -0.3904  1.8708  1.7127
 4670TIP3    H235426   3.047   3.151  17.409 -0.1033  0.1695  0.5373
 4671TIP3   OH235427   4.663   2.740   3.032  0.2588 -0.4678 -0.2529
 4671TIP3    H135428   4.635   2.662   2.984 -0.9596 -0.5042  0.4800
 4671TIP3    H235429   4.604   2.745   3.107  2.4178 -0.7218  1.5804
 4672TIP3   OH235430   0.008   5.001   0.929 -0.2126  0.6654  0.7696
 4672TIP3    H135431  -0.016   4.951   1.007 -0.7085  0.5102  0.5171
 4672TIP3    H235432  -0.066   5.061   0.916 -0.9288 -0.4721 -0.5732
 4673TIP3   OH235433   0.009   1.791   3.701 -0.1349  0.1807 -0.1277
 4673TIP3    H135434  -0.026   1.865   3.752 -0.6590  0.2952 -0.6513
 4673TIP3    H235435   0.065   1.744   3.763  0.4609  1.1972  0.1222
 4674TIP3   OH235436   3.730   0.236  14.401 -0.7514  0.8031  0.1314
 4674TIP3    H135437   3.662   0.171  14.419  0.7308 -1.1268 -0.9077
 4674TIP3    H235438   3.769   0.207  14.319 -1.1522  4.0138 -1.3514
 4675TIP3   OH235439   4.922   4.860  14.048  0.0917  0.1141  0.1647
 4675TIP3    H135440   5.012   4.832  14.029  0.2345  0.8557 -0.3157
 4675TIP3    H235441   4.868   4.788  14.015  0.3660  1.0849 -2.6431
 4676TIP3   OH235442   4.355   4.549   3.957 -0.1569 -0.2307  0.0187
 4676TIP3    H135443   4.304   4.619   3.998  0.6168 -1.0258  2.5583
 4676TIP3    H235444   4.436   4.591   3.928  0.6862 -0.1038  2.3087
 4677TIP3   OH235445   2.470   2.546   1.074 -0.4665 -0.4316  0.3180
 4677TIP3    H135446   2.440   2.461   1.042  1.8508 -1.4743  0.6774
 4677TIP3    H235447   2.542   2.524   1.134 -0.2869  1.7642  0.9748
 4678TIP3   OH235448   3.215   3.306   4.313 -0.1979 -0.0087 -0.2485
 4678TIP3    H135449   3.120   3.315   4.304 -0.0297  0.6950 -1.6206
 4678TIP3    H235450   3.235   3.349   4.397 -0.8864  1.6026 -0.8683
 4679TIP3   OH235451   5.121   2.122   5.334  0.0905 -0.0705  0.1660
 4679TIP3    H135452   5.092   2.064   5.404 -0.7687  0.5168  0.3180
 4679TIP3    H235453   5.186   2.071   5.286  0.3434 -0.6527  1.1024
 4680TIP3   OH235454   2.014   4.002  12.342  0.3218 -0.1245 -0.6148
 4680TIP3    H135455   1.949   4.019  12.274 -0.5573  0.2415  0.3062
 4680TIP3    H235456   2.037   4.088  12.376 -0.2164 -0.3808  0.4378
 4681TIP3   OH235457   0.080   5.287   0.201  0.5107  0.3677  0.3039
 4681TIP3    H135458   0.148   5.250   0.144  1.4380  3.5324 -0.8300
 4681TIP3    H235459   0.113   5.272   0.290  1.5697 -0.1456 -0.1565
 4682TIP3   OH235460   3.649   6.677  16.777 -0.0697  0.2771  0.1510
 4682TIP3    H135461   3.588   6.633  16.718  1.3119 -0.7236 -0.6004
 4682TIP3    H235462   3.733   6.674  16.731  0.8198  0.4626  1.6928
 4683TIP3   OH235463   3.932   0.865   4.367  0.4379  0.1940  0.1084
 4683TIP3    H135464   3.853   0.871   4.420  0.6690 -1.4118  0.6846
 4683TIP3    H235465   3.929   0.778   4.328 -0.0158  1.4920 -3.0631
 4684TIP3   OH235466   0.740   5.205  13.070  0.3233  0.2169 -0.9620
 4684TIP3    H135467   0.808   5.264  13.103 -1.2511  0.8043  1.3818
 4684TIP3    H235468   0.778   5.117  13.080  1.6818  0.6351 -2.0926
 4685TIP3   OH235469   6.346   3.079   2.102  0.1922  0.1174  0.0422
 4685TIP3    H135470   6.305   3.152   2.150 -1.1849 -0.7332  0.2247
 4685TIP3    H235471   6.438   3.104   2.093  0.0573  1.2031  1.4056
 4686TIP3   OH235472   4.116   3.481  11.350 -0.2091 -0.1772 -0.3741
 4686TIP3    H135473   4.162   3.535  11.414  0.8188 -1.0136 -0.3825
 4686TIP3    H235474   4.035   3.529  11.332  0.1555  0.7857  0.4581
 4687TIP3   OH235475   1.246   1.214  12.712 -0.7519 -0.0257  0.3329
 4687TIP3    H135476   1.323   1.253  12.755  0.2647 -1.9851  0.4232
 4687TIP3    H235477   1.176   1.223  12.777 -0.2016  0.3908  0.8900
 4688TIP3   OH235478   4.916   4.220  13.139  0.1795  0.2531 -0.2635
 4688TIP3    H135479   4.823   4.244  13.140  0.4614  1.8073  2.9344
 4688TIP3    H235480   4.918   4.128  13.166 -0.4289 -0.3787 -2.1834
 4689TIP3   OH235481   5.251   5.285  16.746 -0.3311 -0.5809 -0.2625
 4689TIP3    H135482   5.244   5.380  16.757 -1.1985 -0.2509 -3.0131
 4689TIP3    H235483   5.345   5.267  16.751 -0.1724  0.3681  0.5341
 4690TIP3   OH235484   3.937   2.656   4.008 -0.4915 -0.5352  0.0822
 4690TIP3    H135485   3.930   2.724   4.075  0.4724  1.6318 -1.8704
 4690TIP3    H235486   4.022   2.615   4.026 -0.9275 -1.0350  1.0814
 4691TIP3   OH235487   3.208   2.488   5.169 -0.1458 -0.3004 -0.6215
 4691TIP3    H135488   3.179   2.475   5.079 -1.3970 -1.1013 -0.1418
 4691TIP3    H235489   3.151   2.558   5.203 -0.0014 -0.3290 -0.3133
 4692TIP3   OH235490   5.530   1.460  16.873  0.5195  0.1761 -0.1129
 4692TIP3    H135491   5.535   1.497  16.785 -1.3115 -0.0961 -0.3774
 4692TIP3    H235492   5.572   1.526  16.929  1.3733  0.5216 -1.1254
 4693TIP3   OH235493   0.277   6.466   5.582  0.1598  0.0627  0.5858
 4693TIP3    H135494   0.322   6.551   5.583  0.3517 -0.0435  1.1031
 4693TIP3    H235495   0.188   6.486   5.611  0.3612 -0.0013  1.2456
 4694TIP3   OH235496   3.731   0.642   1.924 -0.1068  0.1602  0.0219
 4694TIP3    H135497   3.769   0.704   1.862  2.1937  0.3940  1.5454
 4694TIP3    H235498   3.649   0.683   1.951  0.4899  1.6849 -0.3666
 4695TIP3   OH235499   1.382   2.932  16.074  0.2616  0.0586 -0.2945
 4695TIP3    H135500   1.356   3.006  16.129  1.9010 -0.9720  1.9809
 4695TIP3    H235501   1.476   2.942  16.063  0.1772 -0.5236 -1.8205
 4696TIP3   OH235502   1.794   6.620  12.793  0.1094  0.8547  0.2519
 4696TIP3    H135503   1.809   6.530  12.824  1.8082  2.0150  3.3052
 4696TIP3    H235504   1.845   6.626  12.713 -0.1890 -0.9481 -0.1286
 4697TIP3   OH235505   3.401   4.098   4.244 -0.0399 -0.0120 -0.2111
 4697TIP3    H135506   3.454   4.111   4.165  0.2664 -2.0297 -0.3802
 4697TIP3    H235507   3.460   4.121   4.316  0.2658  0.0735 -0.4858
 4698TIP3   OH235508   5.791   6.644   4.039  0.4892  0.4127 -0.1922
 4698TIP3    H135509   5.875   6.682   4.066  0.4633  0.5663 -0.3229
 4698TIP3    H235510   5.725   6.692   4.089  0.3276  1.7597 -1.6186
 4699TIP3   OH235511   1.343   1.255  13.871  0.0826 -0.3915 -0.2886
 4699TIP3    H135512   1.321   1.240  13.963  1.0664  0.9450  0.2003
 4699TIP3    H235513   1.338   1.350  13.860  1.6567 -0.3689 -1.1518
 4700TIP3   OH235514   3.705   5.706  14.103 -0.2531 -0.8386 -0.1771
 4700TIP3    H135515   3.657   5.639  14.150 -0.4606  0.5963  1.7763
 4700TIP3    H235516   3.796   5.675  14.101  0.0532 -0.3441  2.4960
 4701TIP3   OH235517   4.686   4.940  12.977 -0.6113  0.0551 -0.7782
 4701TIP3    H135518   4.602   4.951  13.022 -0.5771  0.7320 -0.8739
 4701TIP3    H235519   4.730   4.871  13.025 -1.3200 -0.4730 -0.8638
 4702TIP3   OH235520   3.442   0.577   4.490 -0.2127 -0.1291  0.3214
 4702TIP3    H135521   3.348   0.572   4.471 -0.5330  0.0850  1.7241
 4702TIP3    H235522   3.455   0.517   4.564  1.0621 -1.3517 -0.8310
 4703TIP3   OH235523   0.157   5.088  16.622  0.1136 -0.8250 -0.7301
 4703TIP3    H135524   0.174   5.163  16.678  2.1153 -1.7559  0.0187
 4703TIP3    H235525   0.080   5.046  16.660 -0.3880  0.2439 -0.5410
 4704TIP3   OH235526   6.108   2.451   5.171  0.2834  0.0465  0.2941
 4704TIP3    H135527   6.097   2.494   5.256  1.4176 -0.3697  0.6736
 4704TIP3    H235528   6.161   2.511   5.120  0.2035 -0.0234  0.1274
 4705TIP3   OH235529   2.883   6.390  14.536 -0.3519  0.1611  0.0955
 4705TIP3    H135530   2.910   6.406  14.446  2.3655 -1.6597  0.4640
 4705TIP3    H235531   2.961   6.354  14.579 -2.6537 -3.0724  2.0522
 4706TIP3   OH235532   1.549   5.227  10.511 -0.2868 -0.2627  0.1972
 4706TIP3    H135533   1.485   5.159  10.489 -0.2507 -0.5798  1.0568
 4706TIP3    H235534   1.498   5.309  10.508 -1.1847 -0.6724  2.5478
 4707TIP3   OH235535   2.194   3.427  11.605  0.0060 -0.2405 -0.4408
 4707TIP3    H135536   2.216   3.519  11.595 -0.9778 -0.1689 -2.2956
 4707TIP3    H235537   2.121   3.426  11.667 -1.6153  0.5114 -2.2383
 4708TIP3   OH235538   1.375   4.869  12.269 -0.0319 -0.1772 -0.3695
 4708TIP3    H135539   1.329   4.899  12.191  1.7710  0.8461 -1.0976
 4708TIP3    H235540   1.467   4.887  12.251  0.9119 -3.5097  0.3727
 4709TIP3   OH235541   5.222   1.468   4.956  0.4087  0.7751  0.2849
 4709TIP3    H135542   5.278   1.403   4.997  1.1358  1.3355  0.1966
 4709TIP3    H235543   5.282   1.537   4.927 -0.3734  1.7133  0.8077
 4710TIP3   OH235544   2.608   0.402  11.682 -0.1021 -0.6720 -0.2268
 4710TIP3    H135545   2.640   0.325  11.636 -0.9010 -1.1998  0.0789
 4710TIP3    H235546   2.603   0.375  11.774  0.2891 -0.0239 -0.0037
 4711TIP3   OH235547   4.759   6.555   4.747  0.0988  0.5420 -0.0014
 4711TIP3    H135548   4.812   6.567   4.826  1.0960 -0.4270 -0.5001
 4711TIP3    H235549   4.822   6.539   4.678 -0.8403 -1.3889 -0.4917
 4712TIP3   OH235550   1.339   0.041   4.116  0.0917 -0.4693 -0.0501
 4712TIP3    H135551   1.399   0.056   4.189 -1.1428 -1.7158  1.2959
 4712TIP3    H235552   1.345   0.120   4.062  0.9397  0.5440  1.4743
 4713TIP3   OH235553   3.578   0.561  13.361 -0.3376 -0.0607  0.2710
 4713TIP3    H135554   3.564   0.540  13.453 -3.4596  0.0313 -0.0779
 4713TIP3    H235555   3.509   0.514  13.315  1.1060 -0.0540 -2.0620
 4714TIP3   OH235556   4.382   1.832  14.073  0.4184  0.1438 -0.0594
 4714TIP3    H135557   4.354   1.778  14.147  0.5168  2.6000  1.9080
 4714TIP3    H235558   4.380   1.773  13.998 -2.6131 -1.7647  1.3070
 4715TIP3   OH235559   2.600   0.813   0.597  0.4072 -0.3038  0.1628
 4715TIP3    H135560   2.633   0.888   0.546  0.8961 -0.8568 -0.3441
 4715TIP3    H235561   2.639   0.737   0.555  0.4886 -0.7990  1.1313
 4716TIP3   OH235562   1.421   5.617  16.502  0.1877  0.2083  0.0915
 4716TIP3    H135563   1.448   5.685  16.440 -1.4006  0.3259 -0.5240
 4716TIP3    H235564   1.477   5.630  16.579  0.3344  1.8074 -0.2634
 4717TIP3   OH235565   6.522   1.931  16.001 -0.7166  0.1897 -0.1054
 4717TIP3    H135566   6.494   1.862  16.061  0.1215  1.4555  1.8472
 4717TIP3    H235567   6.617   1.938  16.014 -0.6895  1.2627 -0.7265
 4718TIP3   OH235568   1.168   6.420   4.555 -0.3920 -0.5601 -0.3636
 4718TIP3    H135569   1.134   6.367   4.626  0.0877 -0.8546 -0.3452
 4718TIP3    H235570   1.234   6.364   4.513 -1.1736 -0.6695 -1.4920
 4719TIP3   OH235571   1.624   1.934   3.764 -0.0756 -0.1361  0.1321
 4719TIP3    H135572   1.712   1.913   3.797  1.9826  1.9886 -3.3529
 4719TIP3    H235573   1.624   1.900   3.675 -2.6467  0.4093 -0.1288
 4720TIP3   OH235574   5.700   5.377   3.342  0.0111  0.0714 -0.4703
 4720TIP3    H135575   5.733   5.292   3.313  0.8705  0.6694 -1.2700
 4720TIP3    H235576   5.729   5.384   3.433  0.3510 -0.2806 -0.5476
 4721TIP3   OH235577   2.443   6.345   0.316  0.0942  0.1578 -0.3120
 4721TIP3    H135578   2.460   6.407   0.245  0.3796 -1.4990 -1.7682
 4721TIP3    H235579   2.395   6.396   0.382 -1.4241  1.4221 -2.2916
 4722TIP3   OH235580   5.603   6.478   5.585 -0.0731  0.4472  0.1220
 4722TIP3    H135581   5.556   6.479   5.501  0.1150  0.5268  0.0162
 4722TIP3    H235582   5.590   6.390   5.619  0.9414  0.0041 -0.6127
 4723TIP3   OH235583   2.111   0.121  12.912  0.3516 -0.3103  0.5388
 4723TIP3    H135584   2.177   0.100  12.977  0.6590 -2.0485 -0.2842
 4723TIP3    H235585   2.028   0.099  12.954  0.5712 -1.7434  0.2469
 4724TIP3   OH235586   1.495   5.742   2.392  0.8737 -0.4488 -0.5133
 4724TIP3    H135587   1.547   5.774   2.318 -0.4560  0.7461 -0.9727
 4724TIP3    H235588   1.418   5.703   2.351  1.4603 -2.4148  0.1504
 4725TIP3   OH235589   0.877   3.628  11.771  0.3214 -0.0440 -0.3588
 4725TIP3    H135590   0.868   3.634  11.866 -0.5572 -2.4501 -0.2170
 4725TIP3    H235591   0.788   3.641  11.738  0.5583  0.3975 -0.8318
 4726TIP3   OH235592   0.840   5.854  14.489  0.0270  0.0970  0.1353
 4726TIP3    H135593   0.882   5.811  14.414  1.3727  0.7979  0.4680
 4726TIP3    H235594   0.868   5.803  14.565 -1.6660 -0.8598  0.1567
 4727TIP3   OH235595   2.931   2.029  13.374 -0.1723  0.2188  0.3780
 4727TIP3    H135596   2.840   2.059  13.371 -1.0152 -2.0572 -3.1156
 4727TIP3    H235597   2.925   1.935  13.390  1.6486  0.1067  0.6704
 4728TIP3   OH235598   5.499   2.066   5.805  0.1955 -0.2203 -0.8047
 4728TIP3    H135599   5.549   2.127   5.858  1.6416 -1.6265 -0.4818
 4728TIP3    H235600   5.533   1.980   5.828 -1.0928 -1.0970 -1.9651
 4729TIP3   OH235601   4.279   2.927  11.306 -0.0306 -0.2866 -0.5049
 4729TIP3    H135602   4.269   2.870  11.229  0.6199 -0.7727 -0.2403
 4729TIP3    H235603   4.282   2.867  11.380 -2.2253  0.2457  0.1007
 4730TIP3   OH235604   1.461   5.610   1.721  0.3450  0.1419  0.0208
 4730TIP3    H135605   1.507   5.674   1.667 -0.4134  1.3940  0.8380
 4730TIP3    H235606   1.522   5.590   1.792  0.5372  0.0399 -0.1726
 4731TIP3   OH235607   6.646   6.134   3.663  0.6833  0.8409 -0.3602
 4731TIP3    H135608   6.740   6.143   3.652  0.5290  1.6622 -1.2173
 4731TIP3    H235609   6.610   6.165   3.580 -0.3217  0.0405 -0.2399
 4732TIP3   OH235610   2.244   6.266  14.732 -0.4302  0.7015 -0.4513
 4732TIP3    H135611   2.182   6.261  14.805 -2.0804  1.4880 -1.7202
 4732TIP3    H235612   2.207   6.209  14.665  0.9857  0.1025 -0.7586
 4733TIP3   OH235613   6.501   0.640  14.252 -0.7944  0.8491  0.5062
 4733TIP3    H135614   6.497   0.554  14.211  0.7160  1.0358 -0.0864
 4733TIP3    H235615   6.430   0.690  14.211 -1.1399  0.1456  0.2470
 4734TIP3   OH235616   4.013   3.014   4.295  0.0604  0.1317 -0.0067
 4734TIP3    H135617   4.025   3.015   4.200  1.2226 -1.6727  0.0685
 4734TIP3    H235618   4.009   2.921   4.317  1.0130  0.4871  1.8404
 4735TIP3   OH235619   5.219   0.175   0.991  0.5416 -0.3182  0.0045
 4735TIP3    H135620   5.230   0.269   1.006 -2.7840  0.5185 -1.7232
 4735TIP3    H235621   5.189   0.140   1.075  0.5947  0.4134  0.3349
 4736TIP3   OH235622   6.022   2.577  12.465  0.3132  0.9361  0.1856
 4736TIP3    H135623   6.095   2.543  12.516  0.4713  1.9305  0.6440
 4736TIP3    H235624   6.061   2.606  12.382  0.3522  1.0158  0.2329
 4737TIP3   OH235625   2.414   1.165   4.520  0.1833 -0.2225 -0.0155
 4737TIP3    H135626   2.467   1.185   4.597  0.5526 -1.4549  0.0798
 4737TIP3    H235627   2.360   1.242   4.507  1.5376  0.8183  0.2728
 4738TIP3   OH235628   5.752   3.138   1.950 -0.1356 -0.1594 -0.0522
 4738TIP3    H135629   5.756   3.043   1.952  1.7624 -0.1527  2.8101
 4738TIP3    H235630   5.692   3.159   1.878  1.0254 -3.4226 -2.1834
 4739TIP3   OH235631   0.322   1.174  11.608  0.0229 -0.1143  0.0026
 4739TIP3    H135632   0.347   1.112  11.677  2.1868  1.6929  0.9651
 4739TIP3    H235633   0.289   1.118  11.537  0.4067 -2.2470  1.3966
 4740TIP3   OH235634   1.613   2.618  11.781 -0.2962  0.1612  0.2149
 4740TIP3    H135635   1.683   2.648  11.838  1.9051 -3.7013 -0.1161
 4740TIP3    H235636   1.561   2.559  11.837  0.2161 -1.4679 -0.9644
 4741TIP3   OH235637   2.561   5.526   6.189 -0.5873 -0.3325 -0.3588
 4741TIP3    H135638   2.510   5.462   6.239  1.7449 -1.7130  0.3628
 4741TIP3    H235639   2.559   5.493   6.099  1.5537 -2.1590  0.1960
 4742TIP3   OH235640   4.253   3.313  14.138  0.5315  0.0408 -0.1182
 4742TIP3    H135641   4.167   3.273  14.128  0.3305  0.3115  0.5009
 4742TIP3    H235642   4.315   3.240  14.130  0.1268 -0.6525  2.2775
 4743TIP3   OH235643   2.325   6.116   1.717  0.4827  0.4582  0.0454
 4743TIP3    H135644   2.291   6.151   1.634 -1.3003 -0.3350  0.4015
 4743TIP3    H235645   2.248   6.110   1.774  1.4738 -0.1526  1.3626
 4744TIP3   OH235646   6.711   3.240   5.267 -0.6833 -0.7540 -0.6040
 4744TIP3    H135647   6.795   3.283   5.253 -1.0468  0.5553  0.9547
 4744TIP3    H235648   6.727   3.180   5.340 -1.0164 -0.7421 -0.5212
 4745TIP3   OH235649   6.670   5.766  17.182 -0.0802  0.3516 -0.0066
 4745TIP3    H135650   6.763   5.768  17.205  0.5024  0.7593 -2.1887
 4745TIP3    H235651   6.627   5.729  17.259  1.6057  2.0794  1.8825
 4746TIP3   OH235652   3.366   5.966  13.922 -0.5575 -0.3784 -0.3301
 4746TIP3    H135653   3.329   5.992  14.006  0.5704 -1.6802  0.6107
 4746TIP3    H235654   3.297   5.916  13.879 -1.6622  1.4925 -0.8643
 4747TIP3   OH235655   3.792   2.166   0.512  0.2506  0.4594  0.6187
 4747TIP3    H135656   3.812   2.186   0.603  1.3050 -0.0909  0.5315
 4747TIP3    H235657   3.861   2.104   0.486 -0.0222  0.6269 -0.5480
 4748TIP3   OH235658   3.183   1.116  10.726  0.2684  0.5247 -0.0119
 4748TIP3    H135659   3.161   1.063  10.803  1.1078 -1.3845 -1.0328
 4748TIP3    H235660   3.108   1.109  10.668  0.6216 -0.0634 -0.4067
 4749TIP3   OH235661   3.068   4.019  15.996 -0.1410  0.3809  0.5012
 4749TIP3    H135662   2.973   4.031  15.996 -0.3143 -0.6885 -1.3745
 4749TIP3    H235663   3.098   4.068  16.073 -2.3825 -0.8687  2.2764
 4750TIP3   OH235664   4.652   4.492  13.294  0.8700 -0.1544  0.4716
 4750TIP3    H135665   4.616   4.506  13.206  2.6221 -1.6138 -0.5538
 4750TIP3    H235666   4.629   4.402  13.315 -1.4090  0.7924  2.5261
 4751TIP3   OH235667   3.978   2.824   2.289  0.2228  0.4624  0.5454
 4751TIP3    H135668   3.898   2.876   2.281 -0.3962 -0.5979 -0.3937
 4751TIP3    H235669   4.042   2.885   2.326 -0.5326  1.8331 -0.3134
 4752TIP3   OH235670   4.400   2.613  16.107 -0.3501 -0.1385 -0.2295
 4752TIP3    H135671   4.456   2.673  16.058  0.4192  0.2406  1.0609
 4752TIP3    H235672   4.325   2.599  16.050 -0.2355  1.5234 -0.8594
 4753TIP3   OH235673   3.600   5.773   0.314  0.2765 -0.0291 -0.3247
 4753TIP3    H135674   3.591   5.844   0.250  1.1280 -0.1806 -0.6277
 4753TIP3    H235675   3.630   5.698   0.263 -0.9100 -0.7061 -0.0556
 4754TIP3   OH235676   4.328   3.720   1.095  0.2753 -0.0555 -0.2353
 4754TIP3    H135677   4.248   3.668   1.101  1.0698 -1.2448  0.4448
 4754TIP3    H235678   4.328   3.775   1.174 -0.6644  1.1869 -1.0530
 4755TIP3   OH235679   0.402   5.801  10.780  0.1569 -0.4724 -0.0171
 4755TIP3    H135680   0.476   5.749  10.750  0.1676  0.0922 -0.9801
 4755TIP3    H235681   0.371   5.754  10.858  2.4745  0.1478  1.3499
 4756TIP3   OH235682   0.707   2.369   0.298  0.4496 -0.0470 -0.1235
 4756TIP3    H135683   0.779   2.316   0.264 -1.2100 -0.7514 -2.8430
 4756TIP3    H235684   0.637   2.306   0.315 -1.1394  1.0111 -2.2473
 4757TIP3   OH235685   3.801   3.973   0.269 -0.2834 -0.1487 -0.2141
 4757TIP3    H135686   3.750   4.040   0.225  0.5666  1.1281  0.6675
 4757TIP3    H235687   3.872   4.021   0.313  1.2485 -1.7543 -0.7847
 4758TIP3   OH235688   2.987   1.922   1.420  0.6807 -1.0365 -0.2760
 4758TIP3    H135689   2.936   2.000   1.400  2.8013  0.9294  1.4861
 4758TIP3    H235690   2.970   1.906   1.513  4.1343  0.5312  0.7727
 4759TIP3   OH235691   3.257   5.398  14.689  0.4115 -0.2868 -0.0339
 4759TIP3    H135692   3.182   5.403  14.628  1.1453  0.8482 -0.8862
 4759TIP3    H235693   3.236   5.460  14.758  1.9560  2.5922 -1.9555
 4760TIP3   OH235694   5.786   4.936  16.470  0.1574  0.0021  0.1549
 4760TIP3    H135695   5.834   4.927  16.388 -2.2899  1.2207 -1.5210
 4760TIP3    H235696   5.774   4.846  16.500  2.6506 -0.3709  0.2015
 4761TIP3   OH235697   0.058   3.554  13.236 -0.2134  0.2226 -0.2753
 4761TIP3    H135698   0.123   3.553  13.166 -1.9335  1.1565 -1.9720
 4761TIP3    H235699   0.044   3.462  13.258  0.9673 -0.0307 -0.5402
 4762TIP3   OH235700   6.202   4.555   3.358  0.1988 -0.5115 -0.3230
 4762TIP3    H135701   6.195   4.482   3.420  0.0954 -0.8372 -0.7132
 4762TIP3    H235702   6.119   4.553   3.309  1.3004 -1.9145 -2.2734
 4763TIP3   OH235703   6.289   0.063  11.949  0.2764 -0.5226  0.2911
 4763TIP3    H135704   6.349  -0.005  11.980  0.4021 -0.6316 -0.1836
 4763TIP3    H235705   6.325   0.145  11.984 -0.3341 -0.7696  1.5644
 4764TIP3   OH235706   0.045   3.870  17.296  0.5953  0.0914 -0.3628
 4764TIP3    H135707   0.053   3.960  17.263  1.1124 -0.0057 -0.5201
 4764TIP3    H235708   0.019   3.880  17.388 -0.6108  0.3694 -0.7147
 4765TIP3   OH235709   5.818   2.241  15.018  0.5803 -0.3044  0.1020
 4765TIP3    H135710   5.788   2.320  15.063 -0.2036 -0.4071 -0.2328
 4765TIP3    H235711   5.753   2.225  14.950  1.2321 -0.7054 -0.4484
 4766TIP3   OH235712   0.075   5.590  13.219 -0.5159  0.0440 -0.2883
 4766TIP3    H135713   0.005   5.593  13.284 -1.4544 -2.1135 -1.1205
 4766TIP3    H235714   0.031   5.588  13.135  0.6248  0.6033 -0.9289
 4767TIP3   OH235715   3.872   5.760   4.587  0.0868  0.0490 -0.3125
 4767TIP3    H135716   3.861   5.733   4.496 -0.4615 -2.0091  0.3295
 4767TIP3    H235717   3.785   5.752   4.626  0.6597 -0.9226  0.8429
 4768TIP3   OH235718   0.420   5.993  11.485 -0.3361 -0.4293 -0.0131
 4768TIP3    H135719   0.467   6.070  11.452 -2.0466  0.1511 -1.2249
 4768TIP3    H235720   0.342   6.028  11.527 -1.3932 -1.4881 -0.9988
 4769TIP3   OH235721   3.831   3.027   0.887  0.2816 -0.2464 -0.3508
 4769TIP3    H135722   3.901   2.980   0.842  2.6949  0.6963  2.0991
 4769TIP3    H235723   3.839   3.000   0.979 -1.2978  1.4015  0.3487
 4770TIP3   OH235724   4.972   3.666  12.560  0.0888  0.3526  0.2764
 4770TIP3    H135725   5.018   3.746  12.585 -0.6476  0.3621  1.7038
 4770TIP3    H235726   5.041   3.607  12.531  0.7539  1.1330  0.2310
 4771TIP3   OH235727   5.588   6.413  13.062 -0.1696 -0.3025  0.4017
 4771TIP3    H135728   5.625   6.439  13.146 -0.4822  0.0611  0.4261
 4771TIP3    H235729   5.509   6.466  13.052  0.0726 -0.0544 -0.3008
 4772TIP3   OH235730   2.509   3.473   2.158 -0.1300 -0.1794  0.8268
 4772TIP3    H135731   2.542   3.554   2.196  1.0792 -1.4773  2.7206
 4772TIP3    H235732   2.588   3.424   2.133 -0.8492 -0.5116 -0.9274
 4773TIP3   OH235733   5.296   3.867  15.021 -0.1910  0.3970 -0.6309
 4773TIP3    H135734   5.306   3.850  14.928  2.3101  3.1969 -1.0342
 4773TIP3    H235735   5.270   3.959  15.026 -1.6372 -0.0465  1.4653
 4774TIP3   OH235736   5.587   0.506   5.320 -0.2256 -0.4167  0.2239
 4774TIP3    H135737   5.526   0.579   5.306 -1.1395 -1.2311 -0.1475
 4774TIP3    H235738   5.664   0.528   5.268 -0.2462  0.5712  0.5982
 4775TIP3   OH235739   6.472   5.004   1.787  0.4862  0.1465 -0.3580
 4775TIP3    H135740   6.533   5.004   1.713  0.1380 -1.5452 -0.6894
 4775TIP3    H235741   6.445   5.096   1.796  1.7277  0.6289 -1.3195
 4776TIP3   OH235742   1.781   3.876  14.118  0.4936  0.4115  0.1108
 4776TIP3    H135743   1.773   3.972  14.124 -0.4233  0.3441 -0.0214
 4776TIP3    H235744   1.753   3.855  14.030  0.6559  0.0115  0.1538
 4777TIP3   OH235745   3.261   3.604   1.645 -0.0709  0.3959 -0.5184
 4777TIP3    H135746   3.245   3.543   1.717 -1.4721  1.3586  0.0331
 4777TIP3    H235747   3.346   3.578   1.609 -0.0089 -0.9925  0.5692
 4778TIP3   OH235748   4.983   4.166  15.907 -0.1545 -0.8396 -0.0202
 4778TIP3    H135749   4.910   4.214  15.946  0.6989  0.2250  0.3009
 4778TIP3    H235750   5.061   4.203  15.948  0.7440 -0.2049 -2.1451
 4779TIP3   OH235751   0.133   4.390   3.881 -0.0444  0.7942 -0.3887
 4779TIP3    H135752   0.184   4.466   3.908  2.1390 -0.3713 -0.9856
 4779TIP3    H235753   0.071   4.376   3.952  2.3906  0.6094  1.8768
 4780TIP3   OH235754   6.532   3.195   3.371 -0.2731  0.0600  0.7088
 4780TIP3    H135755   6.590   3.129   3.332 -1.3237 -0.4135 -0.1017
 4780TIP3    H235756   6.590   3.268   3.393  0.4417  0.1955 -1.4304
 4781TIP3   OH235757   0.058   0.055  13.561  0.6148  0.3329  0.4624
 4781TIP3    H135758   0.060   0.037  13.655  1.2868 -0.8751  0.2333
 4781TIP3    H235759  -0.014   0.118  13.550  0.4271  0.3667  1.7556
 4782TIP3   OH235760   6.354   3.448  14.944  0.1745 -0.1558  0.1853
 4782TIP3    H135761   6.403   3.476  15.022  0.0737  1.7539 -0.3885
 4782TIP3    H235762   6.263   3.444  14.973 -0.1706  2.5751 -0.2450
 4783TIP3   OH235763   0.260   2.693   3.056 -0.1119 -0.4452  0.7187
 4783TIP3    H135764   0.249   2.599   3.050 -3.5008 -0.0824 -0.7550
 4783TIP3    H235765   0.250   2.724   2.965 -1.6027  1.4771  1.4653
 4784TIP3   OH235766   0.487   1.239   2.558  0.4203  0.6070 -0.1180
 4784TIP3    H135767   0.397   1.264   2.538 -0.1304 -0.3431  1.0707
 4784TIP3    H235768   0.482   1.195   2.643  1.6432 -1.4735 -1.0371
 4785TIP3   OH235769   5.380   4.576   1.461  0.1013  0.0147 -0.1850
 4785TIP3    H135770   5.427   4.538   1.535 -0.0564  1.8497  0.9274
 4785TIP3    H235771   5.288   4.559   1.481 -0.2667  3.6650  2.1080
 4786TIP3   OH235772   1.991   1.879  13.413 -0.2906  0.0615 -0.3709
 4786TIP3    H135773   1.924   1.852  13.475 -0.1275 -2.4864 -1.1874
 4786TIP3    H235774   2.005   1.802  13.357  0.2674  1.8920 -2.9498
 4787TIP3   OH235775   0.334   4.479   3.565 -0.7662  0.0928  0.2518
 4787TIP3    H135776   0.306   4.464   3.475 -0.2325 -0.3387  0.1480
 4787TIP3    H235777   0.270   4.540   3.601 -0.7675  0.5758 -0.5419
 4788TIP3   OH235778   0.781   2.851   0.109 -0.8918 -0.3968  0.9148
 4788TIP3    H135779   0.701   2.885   0.070  0.9637  0.6081 -2.3711
 4788TIP3    H235780   0.833   2.929   0.128  1.0689 -1.0947 -1.2478
 4789TIP3   OH235781   1.254   4.048   1.632 -0.4111 -0.0929  0.6806
 4789TIP3    H135782   1.245   4.143   1.642 -2.1229 -0.2620  0.9559
 4789TIP3    H235783   1.165   4.016   1.629  0.0929 -1.4902 -1.6366
 4790TIP3   OH235784   6.457   3.897  12.137  0.3700  0.1111 -0.1110
 4790TIP3    H135785   6.527   3.843  12.102  0.1718  0.7754 -1.6340
 4790TIP3    H235786   6.391   3.835  12.167  1.3014 -0.5057  0.6960
 4791TIP3   OH235787   6.520   6.419   2.260  0.7292  0.2655  0.1577
 4791TIP3    H135788   6.464   6.354   2.302  2.0768 -0.6188  0.6450
 4791TIP3    H235789   6.517   6.494   2.320 -1.4263  1.0275 -0.7769
 4792TIP3   OH235790   6.686   4.216   2.505 -0.2318 -0.2538 -0.0513
 4792TIP3    H135791   6.761   4.164   2.531  0.9712  1.3927 -0.0369
 4792TIP3    H235792   6.615   4.186   2.562  0.3185 -2.0045 -0.2273
 4793TIP3   OH235793   6.708   0.200   0.708  0.5074 -0.4017  0.1095
 4793TIP3    H135794   6.657   0.281   0.699  0.8388 -0.1820  0.2035
 4793TIP3    H235795   6.714   0.186   0.802  0.4663 -0.5265  0.0938
 4794TIP3   OH235796   4.248   4.509  11.409 -0.0766 -0.0728  0.0913
 4794TIP3    H135797   4.337   4.476  11.425 -0.0715 -0.6965 -1.1078
 4794TIP3    H235798   4.213   4.451  11.341 -1.6199 -0.1857  0.9404
 4795TIP3   OH235799   0.655   1.490  15.731 -0.0639 -0.1219 -0.2129
 4795TIP3    H135800   0.667   1.513  15.638 -0.4012  0.3570 -0.1461
 4795TIP3    H235801   0.666   1.395  15.734  1.2927  0.0097 -0.5271
 4796TIP3   OH235802   2.975   4.973  16.887 -0.2778 -0.5097  0.4962
 4796TIP3    H135803   2.953   5.044  16.827  0.7142 -0.3544  0.3085
 4796TIP3    H235804   2.891   4.951  16.929 -1.1805 -1.1512 -1.4894
 4797TIP3   OH235805   6.179   0.255   2.919 -0.2677 -0.5064  0.2180
 4797TIP3    H135806   6.171   0.213   3.004  0.3150  0.3128  0.6841
 4797TIP3    H235807   6.260   0.305   2.924 -0.4696 -0.0718 -0.6481
 4798TIP3   OH235808   6.244   2.136  16.412  0.1466 -0.5116 -0.1677
 4798TIP3    H135809   6.160   2.181  16.402  1.4109  1.8961 -0.5934
 4798TIP3    H235810   6.230   2.051  16.370 -2.1883 -0.3571  0.1511
 4799TIP3   OH235811   6.635   4.504  11.424  0.1496  0.4238  0.2569
 4799TIP3    H135812   6.715   4.454  11.411  0.2304  0.2446  1.3037
 4799TIP3    H235813   6.616   4.543  11.339 -0.0306 -1.5441 -0.6507
 4800TIP3   OH235814   3.515   1.831   4.366  0.9168 -0.1182  0.1981
 4800TIP3    H135815   3.432   1.812   4.410  0.0159  1.0301 -0.9275
 4800TIP3    H235816   3.568   1.875   4.432 -0.3155  1.3548  0.2597
 4801TIP3   OH235817   6.402   3.931  16.718 -0.2500  0.7685  0.3331
 4801TIP3    H135818   6.373   4.018  16.690 -0.3758  0.0960 -1.8515
 4801TIP3    H235819   6.427   3.888  16.636  0.6671 -0.9474  1.4731
 4802TIP3   OH235820   0.684   1.445  15.467 -0.4669 -0.2562 -0.1246
 4802TIP3    H135821   0.727   1.463  15.383 -0.0494 -0.3079  0.0740
 4802TIP3    H235822   0.671   1.350  15.467  0.9463 -0.4873  0.5178
 4803TIP3   OH235823   6.105   6.605  15.584 -0.0424 -0.1581 -0.8961
 4803TIP3    H135824   6.139   6.522  15.553  1.5328  0.4911 -1.0117
 4803TIP3    H235825   6.177   6.667  15.570 -1.8260  1.6693 -2.7386
 4804TIP3   OH235826   6.552   1.956   0.682 -0.2062 -0.0680  0.5294
 4804TIP3    H135827   6.575   2.049   0.679  1.1270 -0.3999 -0.2177
 4804TIP3    H235828   6.635   1.910   0.675 -0.8647 -1.3351  0.6708
 4805TIP3   OH235829   2.870   3.135   3.226  0.2234 -0.3012  0.0294
 4805TIP3    H135830   2.908   3.166   3.309  2.8430 -1.6981 -0.5511
 4805TIP3    H235831   2.830   3.213   3.188  2.1522  1.2393  0.9549
 4806TIP3   OH235832   2.752   1.137   3.274 -0.0626  0.1038  0.0913
 4806TIP3    H135833   2.828   1.164   3.325  0.4047  2.0151 -1.4540
 4806TIP3    H235834   2.767   1.045   3.253  1.1229  0.0854  0.9489
 4807TIP3   OH235835   0.412   1.042  16.531 -0.5339  0.5301 -0.2435
 4807TIP3    H135836   0.317   1.045  16.537 -0.5557  2.3482 -0.6870
 4807TIP3    H235837   0.441   1.046  16.623 -0.8411 -1.4684 -0.0121
 4808TIP3   OH235838   4.786   4.023  12.453 -0.2437 -0.4751 -0.4833
 4808TIP3    H135839   4.837   4.075  12.391  0.6336 -0.9705 -0.2014
 4808TIP3    H235840   4.850   3.996  12.519 -0.6047 -2.1168 -0.7587
 4809TIP3   OH235841   2.023   2.468   3.979  0.4961 -0.1730 -0.0800
 4809TIP3    H135842   2.052   2.408   3.911  1.7807 -0.6114  0.8042
 4809TIP3    H235843   2.021   2.415   4.059 -1.0963  0.2897  0.2310
 4810TIP3   OH235844   0.566   5.912  17.075 -0.0599 -0.5837  0.2967
 4810TIP3    H135845   0.498   5.848  17.055  0.7740 -1.0396 -1.2847
 4810TIP3    H235846   0.569   5.969  16.998 -0.2152  0.8561  1.3288
 4811TIP3   OH235847   2.719   3.723   5.726 -0.0018 -0.5374  0.2725
 4811TIP3    H135848   2.803   3.677   5.726 -0.0455 -0.8195  3.4259
 4811TIP3    H235849   2.655   3.656   5.751 -0.8729  0.1394 -0.0850
 4812TIP3   OH235850   4.149   2.390  14.679  0.2551 -0.1551 -0.0789
 4812TIP3    H135851   4.170   2.299  14.702 -1.9274 -0.7772 -0.3311
 4812TIP3    H235852   4.054   2.392  14.675  0.2145  2.3761  0.7080
 4813TIP3   OH235853   3.225   2.395   1.892  0.3675  0.0947 -0.5250
 4813TIP3    H135854   3.174   2.329   1.845  0.6268 -0.5698  0.1074
 4813TIP3    H235855   3.316   2.370   1.878  0.5403  1.2882 -1.6623
 4814TIP3   OH235856   5.875   0.543   1.902 -0.1152 -0.1232 -0.0332
 4814TIP3    H135857   5.865   0.488   1.824 -0.7323  2.8663 -2.2237
 4814TIP3    H235858   5.964   0.577   1.896 -0.1170  0.0225  0.6706
 4815TIP3   OH235859   4.384   3.399  14.379 -1.0670 -0.5384 -0.3570
 4815TIP3    H135860   4.395   3.435  14.291 -1.4825 -0.6474 -0.4527
 4815TIP3    H235861   4.291   3.409  14.398 -0.8555  0.2123  0.3833
 4816TIP3   OH235862   0.943   0.403   1.850 -0.0988 -0.5969 -0.5230
 4816TIP3    H135863   1.005   0.349   1.900  0.3886 -0.2441 -0.7351
 4816TIP3    H235864   0.857   0.370   1.875  0.1321 -0.4089  0.5690
 4817TIP3   OH235865   1.636   5.484  14.100  0.4709 -0.4575  0.4259
 4817TIP3    H135866   1.717   5.485  14.150  0.6282 -0.7833  0.1829
 4817TIP3    H235867   1.657   5.532  14.019  0.3080 -0.1992  0.5354
 4818TIP3   OH235868   6.443   2.806   5.684 -0.0437  0.2993  0.1770
 4818TIP3    H135869   6.528   2.812   5.640  0.2861  1.4210  0.9149
 4818TIP3    H235870   6.454   2.735   5.748  1.6733  2.8208  2.9144
 4819TIP3   OH235871   1.884   0.032  11.873  0.4200  0.3018 -0.4567
 4819TIP3    H135872   1.832   0.005  11.798 -0.0762  0.1235 -0.0610
 4819TIP3    H235873   1.820   0.039  11.945  1.0987 -0.9003  0.2866
 4820TIP3   OH235874   0.602   5.021   3.822  0.5334  0.5964  0.0216
 4820TIP3    H135875   0.677   4.998   3.877 -0.4579 -1.5164  0.5935
 4820TIP3    H235876   0.635   5.090   3.763  2.7783  0.0214  0.5303
 4821TIP3   OH235877   3.189   6.552  11.397  0.1777 -0.4804  0.4591
 4821TIP3    H135878   3.207   6.486  11.331  0.5212 -0.9021  0.9604
 4821TIP3    H235879   3.166   6.631  11.348  2.2423 -0.2439 -0.2066
 4822TIP3   OH235880   5.336   6.296  12.194  0.4799 -0.2983  0.6475
 4822TIP3    H135881   5.423   6.335  12.200  0.2194  0.3423  0.3769
 4822TIP3    H235882   5.307   6.289  12.285  1.2778 -1.6139  0.8225
 4823TIP3   OH235883   4.440   1.589   5.303  0.2430 -0.1580  0.0409
 4823TIP3    H135884   4.480   1.516   5.257 -1.5218 -0.3274 -1.3550
 4823TIP3    H235885   4.489   1.666   5.275 -0.4018 -0.3430 -1.7089
 4824TIP3   OH235886   1.931   6.226   0.277 -0.3939 -0.0084  0.4015
 4824TIP3    H135887   2.025   6.224   0.261 -0.4954 -1.6344 -0.1657
 4824TIP3    H235888   1.891   6.216   0.190 -1.2024  3.5474  0.2139
 4825TIP3   OH235889   4.428   1.937   4.734  0.1517 -0.1139 -0.2848
 4825TIP3    H135890   4.343   1.947   4.776  1.9498  1.7174  3.3815
 4825TIP3    H235891   4.430   2.007   4.668 -1.5857 -1.0754 -1.4603
 4826TIP3   OH235892   2.965   5.927   4.116  0.0543  0.0352  0.1523
 4826TIP3    H135893   3.049   5.961   4.084 -1.9717  3.9959 -1.7127
 4826TIP3    H235894   2.960   5.959   4.207  0.8722 -0.9193  0.5410
 4827TIP3   OH235895   6.346   5.740  15.967  0.5383 -0.7010  0.4760
 4827TIP3    H135896   6.327   5.826  16.007  1.6791 -1.0855  1.9578
 4827TIP3    H235897   6.279   5.682  16.004  0.0374 -0.5585 -0.1844
 4828TIP3   OH235898   2.651   1.069  12.067 -0.0908 -0.0334 -0.3622
 4828TIP3    H135899   2.663   1.038  11.977  1.6931 -0.1095 -0.1379
 4828TIP3    H235900   2.624   0.991  12.115 -1.5024  0.1013 -0.8790
 4829TIP3   OH235901   5.407   6.223   1.134  0.1543  0.0673  0.3729
 4829TIP3    H135902   5.343   6.206   1.203 -0.2672  2.9417  0.8161
 4829TIP3    H235903   5.375   6.302   1.091  1.9671  0.0008 -1.2262
 4830TIP3   OH235904   2.166   1.105  16.981 -0.3025  0.1035  0.0235
 4830TIP3    H135905   2.129   1.041  17.042  0.8353  0.8202  1.5313
 4830TIP3    H235906   2.090   1.149  16.943 -1.0689 -1.3366 -0.1819
 4831TIP3   OH235907   3.777   5.628  14.795  0.1821 -0.0335 -0.8081
 4831TIP3    H135908   3.805   5.621  14.886  1.2260  0.3715 -1.0776
 4831TIP3    H235909   3.682   5.621  14.798  0.2690 -1.1019  0.2063
 4832TIP3   OH235910   2.803   1.983   0.845 -0.3402  0.2438  0.0381
 4832TIP3    H135911   2.754   2.054   0.888  0.3263 -0.3856  1.9550
 4832TIP3    H235912   2.854   1.944   0.916  1.0721 -0.6769 -1.4417
 4833TIP3   OH235913   3.357   6.055  15.471  0.3558 -0.1417 -0.4475
 4833TIP3    H135914   3.416   6.104  15.414 -0.6867  1.6710 -0.0525
 4833TIP3    H235915   3.274   6.054  15.425  0.3292 -1.4856 -0.3917
 4834TIP3   OH235916   6.389   2.781   4.563 -0.6008 -0.0315  0.3665
 4834TIP3    H135917   6.370   2.760   4.471  1.4405 -1.8519  0.2857
 4834TIP3    H235918   6.422   2.871   4.560  0.5861 -0.4689 -0.8831
 4835TIP3   OH235919   1.367   5.988  13.316 -0.1585 -0.6368 -0.5495
 4835TIP3    H135920   1.296   5.924  13.312  1.0613 -2.1021  0.2028
 4835TIP3    H235921   1.440   5.946  13.270  1.8647 -1.5194  3.0317
 4836TIP3   OH235922   0.074   1.538  15.925 -0.5939  0.0089 -0.2477
 4836TIP3    H135923   0.039   1.451  15.905 -0.0586 -0.7969  1.9949
 4836TIP3    H235924   0.033   1.562  16.008 -0.7343  1.9377 -0.8214
 4837TIP3   OH235925   2.191   1.409   2.647  0.6408 -0.5618  0.1990
 4837TIP3    H135926   2.110   1.459   2.631  0.9040 -0.0888  0.3126
 4837TIP3    H235927   2.248   1.471   2.693  0.7270 -1.1851  0.9410
 4838TIP3   OH235928   0.914   1.024  15.605  0.1963  0.0954 -0.8983
 4838TIP3    H135929   0.851   0.957  15.633 -1.3014  1.4225 -0.9233
 4838TIP3    H235930   0.926   1.079  15.682 -0.0626  0.8748 -1.3984
 4839TIP3   OH235931   3.127   3.801   2.917  0.1863 -0.2499  0.2338
 4839TIP3    H135932   3.131   3.897   2.915  1.5127 -0.2708  0.9321
 4839TIP3    H235933   3.082   3.778   2.835 -1.1818  0.9882  0.5785
 4840TIP3   OH235934   0.030   5.606  11.851 -0.3292 -0.1151  0.0368
 4840TIP3    H135935   0.049   5.570  11.938 -1.5810  0.3784  0.5371
 4840TIP3    H235936  -0.029   5.679  11.868 -1.9417 -1.0340 -1.3389
 4841TIP3   OH235937   1.960   2.820  13.359  0.2540  0.1539 -0.0454
 4841TIP3    H135938   2.041   2.867  13.340 -0.6005  1.4004 -0.7697
 4841TIP3    H235939   1.943   2.839  13.452  0.2847  0.7345 -0.1509
 4842TIP3   OH235940   2.959   0.726  16.181  0.3008 -0.0869  0.9188
 4842TIP3    H135941   3.033   0.772  16.141 -0.3080  0.5469  0.5081
 4842TIP3    H235942   3.000   0.669  16.247  1.2381 -0.4732  0.0325
 4843TIP3   OH235943   4.553   5.222  11.244 -0.3590  0.3852 -0.5386
 4843TIP3    H135944   4.643   5.219  11.213 -0.0014  2.5321  0.1438
 4843TIP3    H235945   4.504   5.264  11.174 -0.4737  0.8500 -0.1871
 4844TIP3   OH235946   1.312   5.916  16.584 -0.3187  0.0626 -0.2781
 4844TIP3    H135947   1.386   5.856  16.573 -0.8582 -0.4869 -1.0762
 4844TIP3    H235948   1.311   5.968  16.503 -0.3317  0.6089  0.0701
 4845TIP3   OH235949   0.290   5.686   4.033  0.2792 -0.4424  0.2078
 4845TIP3    H135950   0.210   5.654   3.990  1.1097 -1.6674 -0.4840
 4845TIP3    H235951   0.316   5.616   4.092  0.0053  0.6076  1.6363
 4846TIP3   OH235952   2.241   3.065   6.378 -0.3462  0.0792 -0.3251
 4846TIP3    H135953   2.147   3.050   6.378 -0.4803  0.8315 -1.3553
 4846TIP3    H235954   2.253   3.149   6.335  0.7610  0.3092  0.3819
 4847TIP3   OH235955   2.069   1.968   5.733  0.3189  0.2242  0.1269
 4847TIP3    H135956   2.022   1.999   5.656  0.3160 -1.0177 -0.3990
 4847TIP3    H235957   2.161   1.981   5.712  0.2869  0.8514  0.3541
 4848TIP3   OH235958   3.696   5.119   2.949  0.0122 -0.0978  0.3072
 4848TIP3    H135959   3.761   5.170   2.901 -1.6785  0.3248 -1.6837
 4848TIP3    H235960   3.743   5.040   2.977  1.1582 -0.2782 -1.9278
 4849TIP3   OH235961   1.049   6.223   2.398 -0.8049 -0.3629 -0.4408
 4849TIP3    H135962   1.143   6.243   2.399 -0.9879  0.5378 -0.3512
 4849TIP3    H235963   1.014   6.278   2.328 -1.0069 -2.0064 -1.6804
 4850TIP3   OH235964   4.972   4.482  13.156 -0.5136  0.4551 -0.5783
 4850TIP3    H135965   4.918   4.531  13.219 -0.7725  0.8014 -1.0628
 4850TIP3    H235966   4.951   4.390  13.174 -1.5580  0.5907 -0.9958
 4851TIP3   OH235967   2.405   2.823   3.820 -0.0138 -0.2709  0.3469
 4851TIP3    H135968   2.378   2.736   3.851  1.1510 -1.0712 -0.8074
 4851TIP3    H235969   2.400   2.817   3.724 -0.0991  1.0059  0.2516
 4852TIP3   OH235970   3.589   5.353  13.751  0.3942  0.5041  0.3076
 4852TIP3    H135971   3.684   5.340  13.744  0.3494  0.6450 -0.6367
 4852TIP3    H235972   3.551   5.279  13.704  0.0616  1.1352 -0.4447
 4853TIP3   OH235973   1.938   0.656   4.878 -0.7764 -0.1212  0.4988
 4853TIP3    H135974   2.013   0.715   4.878 -1.2004  0.4417 -0.4157
 4853TIP3    H235975   1.919   0.641   4.971  0.8375 -0.7805  0.7617
 4854TIP3   OH235976   2.609   6.463  13.286 -0.7244  0.0358  0.2878
 4854TIP3    H135977   2.622   6.387  13.230  2.1523 -0.3978  1.3692
 4854TIP3    H235978   2.556   6.430  13.359 -0.9621 -0.4557 -0.0984
 4855TIP3   OH235979   5.115   5.109  11.619 -0.1978 -0.1683  0.2604
 4855TIP3    H135980   5.208   5.117  11.641  0.0765 -0.3577 -0.7422
 4855TIP3    H235981   5.077   5.060  11.691  0.6738 -0.8804  0.2655
 4856TIP3   OH235982   0.445   5.530   0.738  0.3005  0.5881  0.3258
 4856TIP3    H135983   0.404   5.594   0.797 -0.2699  0.7616 -0.2553
 4856TIP3    H235984   0.446   5.573   0.653  2.6101  0.9844  0.5104
 4857TIP3   OH235985   4.600   3.254  11.643  0.4250  0.4043 -0.8737
 4857TIP3    H135986   4.551   3.306  11.579 -1.5964  0.3294  0.5117
 4857TIP3    H235987   4.596   3.165  11.609 -1.4520  0.2056 -0.2598
 4858TIP3   OH235988   2.216   6.013  15.017 -0.0475 -0.2600 -0.2507
 4858TIP3    H135989   2.181   6.102  15.010 -0.6000 -0.4668 -0.1416
 4858TIP3    H235990   2.299   6.016  14.969 -1.1452 -0.2578 -2.2390
 4859TIP3   OH235991   3.444   5.555  10.449  0.0299  0.6166 -0.0976
 4859TIP3    H135992   3.401   5.589  10.371 -0.5304  1.6203  0.6254
 4859TIP3    H235993   3.375   5.510  10.497  0.6619 -1.2373 -0.8120
 4860TIP3   OH235994   1.277   2.206  12.986  0.0926 -0.2966  0.2120
 4860TIP3    H135995   1.192   2.223  12.946 -1.1111 -2.1661  1.8056
 4860TIP3    H235996   1.334   2.182  12.913 -1.4778 -1.6145 -0.6254
 4861TIP3   OH235997   1.208   1.214  11.086  0.4343 -0.2293 -0.0491
 4861TIP3    H135998   1.298   1.236  11.110  0.0332 -0.1953  1.5474
 4861TIP3    H235999   1.165   1.299  11.078  0.4028 -0.2599 -0.1951
 4862TIP3   OH236000   0.026   4.314  12.076  0.5184  0.2287  0.2106
 4862TIP3    H136001  -0.047   4.318  12.137  2.2825  0.6621  2.4621
 4862TIP3    H236002   0.043   4.220  12.065 -1.5127  0.0316 -1.9210
 4863TIP3   OH236003   0.699   0.759   4.712 -0.6442  0.0335  1.2136
 4863TIP3    H136004   0.714   0.849   4.683  4.2379 -0.1086  2.3790
 4863TIP3    H236005   0.682   0.766   4.806 -2.2216 -0.2393  0.9776
 4864TIP3   OH236006   1.683   4.816   2.599 -0.1242  0.1493 -0.2036
 4864TIP3    H136007   1.619   4.812   2.529  1.3411 -0.5385 -1.5634
 4864TIP3    H236008   1.767   4.833   2.555  0.4854  2.4040  1.6091
 4865TIP3   OH236009   6.429   2.868  14.269  0.0694  0.0901 -0.0908
 4865TIP3    H136010   6.431   2.954  14.312  0.8809  0.7635 -1.4303
 4865TIP3    H236011   6.502   2.869  14.208 -0.0447 -1.4838 -0.3035
 4866TIP3   OH236012   2.689   0.593  14.021  0.4266  0.2534  0.5283
 4866TIP3    H136013   2.673   0.621  14.111  2.1704  0.2980  0.8573
 4866TIP3    H236014   2.709   0.499  14.028 -0.9697 -0.1147 -0.0294
 4867TIP3   OH236015   6.284   3.128   3.503 -0.5289 -0.2449 -0.1443
 4867TIP3    H136016   6.259   3.160   3.590 -0.7234 -1.1475  0.1432
 4867TIP3    H236017   6.363   3.176   3.481  0.4337 -1.1289  1.2276
 4868TIP3   OH236018   4.547   4.854  16.526  0.3020 -0.1143 -0.2962
 4868TIP3    H136019   4.569   4.865  16.619 -1.7039  0.9416  0.1082
 4868TIP3    H236020   4.630   4.864  16.480  0.9522  1.9709  1.2097
 4869TIP3   OH236021   5.949   2.074   1.836  0.1894  0.4766  0.2626
 4869TIP3    H136022   5.893   2.122   1.775 -0.7495  1.0872  1.5439
 4869TIP3    H236023   5.930   1.982   1.819 -0.5096  0.6557  0.0261
 4870TIP3   OH236024   0.256   5.931   3.010 -0.1733 -0.2681 -0.2060
 4870TIP3    H136025   0.243   5.895   2.922 -1.1257 -1.8329  0.5216
 4870TIP3    H236026   0.200   5.877   3.066 -1.2179  2.0385  1.0850
 4871TIP3   OH236027   1.921   2.180   3.558 -0.2260  0.2883  0.9847
 4871TIP3    H136028   1.828   2.200   3.545 -0.4009  0.8335  2.8479
 4871TIP3    H236029   1.935   2.100   3.506 -1.3235  1.0538 -0.5779
 4872TIP3   OH236030   6.035   5.947  12.555  0.1824 -0.3180  0.5769
 4872TIP3    H136031   5.992   5.863  12.573 -1.6177  0.0283 -1.5861
 4872TIP3    H236032   6.002   6.006  12.622 -1.4153 -0.5068 -0.0068
 4873TIP3   OH236033   4.385   3.451   3.806 -0.3162  0.0495 -0.2526
 4873TIP3    H136034   4.461   3.499   3.773  0.8481 -1.0036  0.7839
 4873TIP3    H236035   4.422   3.371   3.843 -1.8163  0.0390  1.3271
 4874TIP3   OH236036   2.416   0.616   2.467  0.2994 -0.2871 -0.3200
 4874TIP3    H136037   2.366   0.662   2.534  1.4995 -1.3728  1.4205
 4874TIP3    H236038   2.388   0.655   2.384 -2.2674  0.1561  0.6744
 4875TIP3   OH236039   3.201   6.142   5.795 -0.6462 -0.0242  0.3481
 4875TIP3    H136040   3.235   6.121   5.882 -0.4730 -1.1769  0.0138
 4875TIP3    H236041   3.121   6.192   5.813 -0.4682 -0.0078  1.1620
 4876TIP3   OH236042   5.180   5.191   4.847  0.0683  1.1882 -0.0926
 4876TIP3    H136043   5.263   5.229   4.819  0.7037 -0.4355 -0.5320
 4876TIP3    H236044   5.126   5.266   4.871  0.6969  2.4682 -2.4042
 4877TIP3   OH236045   3.295   2.379  11.418  0.1711 -0.4778 -0.3698
 4877TIP3    H136046   3.299   2.296  11.371 -1.0326 -0.0680 -1.2551
 4877TIP3    H236047   3.323   2.358  11.507  1.1733 -1.5528 -0.9040
 4878TIP3   OH236048   2.311   5.552  17.304 -0.4033  0.2860 -0.1894
 4878TIP3    H136049   2.278   5.516  17.386 -1.7517 -2.5967 -1.8500
 4878TIP3    H236050   2.251   5.623  17.282 -0.3989  0.6638  0.9724
 4879TIP3   OH236051   6.309   4.982   2.591  0.9279  0.3528  0.1827
 4879TIP3    H136052   6.334   4.889   2.598 -1.5491 -0.2850  1.6408
 4879TIP3    H236053   6.321   5.016   2.679  0.8281  1.1697 -0.1168
 4880TIP3   OH236054   2.066   5.379   6.425  0.1818  0.5158  0.1921
 4880TIP3    H136055   2.013   5.457   6.443  0.8614  1.0281 -0.0148
 4880TIP3    H236056   2.096   5.349   6.511 -1.3971 -0.4787  0.4426
 4881TIP3   OH236057   2.641   3.730  14.888 -0.0818  0.0664 -0.1167
 4881TIP3    H136058   2.610   3.658  14.942 -0.0829  0.6841  0.7310
 4881TIP3    H236059   2.675   3.689  14.808 -0.7970 -0.7963  0.0232
 4882TIP3   OH236060   5.032   1.143  14.724 -0.1108  0.2409  0.2213
 4882TIP3    H136061   5.075   1.155  14.639  0.1422 -1.4129  0.0809
 4882TIP3    H236062   4.952   1.195  14.719  0.4520  1.0410 -0.6103
 4883TIP3   OH236063   4.794   1.722  15.736  0.0678 -0.7543  0.6593
 4883TIP3    H136064   4.811   1.670  15.815 -0.2818  0.0045  1.2421
 4883TIP3    H236065   4.715   1.683  15.699 -1.6869  0.9223  2.4862
 4884TIP3   OH236066   0.887   2.981  17.325 -0.3554  0.2117  0.1023
 4884TIP3    H136067   0.878   2.885  17.322 -0.1256  0.2101 -0.8152
 4884TIP3    H236068   0.973   2.996  17.364  0.5993 -0.0292 -1.7707
 4885TIP3   OH236069   3.003   3.747  15.447  0.4442 -0.0803  0.1447
 4885TIP3    H136070   3.021   3.806  15.521 -1.0171  0.1129  0.3773
 4885TIP3    H236071   2.967   3.804  15.379 -1.8253 -0.7750  0.6833
 4886TIP3   OH236072   0.009   2.126  11.600 -0.5062 -0.5538 -0.0524
 4886TIP3    H136073   0.062   2.204  11.616 -0.5216 -0.1242 -1.8587
 4886TIP3    H236074   0.067   2.067  11.553 -0.3548 -1.8771  1.6738
 4887TIP3   OH236075   1.033   0.729   1.446  0.0610 -0.0898 -0.1678
 4887TIP3    H136076   0.945   0.764   1.432 -0.1099  0.4621  1.9558
 4887TIP3    H236077   1.038   0.715   1.541  1.7448 -1.5325 -0.4292
 4888TIP3   OH236078   0.888   0.112   5.941 -0.1329  0.2645 -0.1517
 4888TIP3    H136079   0.951   0.055   5.985  0.5119 -0.1315 -1.5578
 4888TIP3    H236080   0.913   0.200   5.967  0.2443  0.0379  0.2672
 4889TIP3   OH236081   0.281   2.494   0.424  0.0475  0.4046 -0.4994
 4889TIP3    H136082   0.376   2.496   0.421  0.0260  0.8549 -1.1126
 4889TIP3    H236083   0.254   2.506   0.333 -0.6036  1.0624 -0.2319
 4890TIP3   OH236084   5.413   0.095   0.509  0.2075  0.0846  0.2911
 4890TIP3    H136085   5.403   0.084   0.603  2.1742 -0.8289  0.4313
 4890TIP3    H236086   5.334   0.055   0.471 -0.7889  0.8125  1.5232
 4891TIP3   OH236087   3.416   3.360  14.452 -0.6636 -0.3473  0.4513
 4891TIP3    H136088   3.374   3.444  14.432  1.3721  0.8689  1.0309
 4891TIP3    H236089   3.405   3.309  14.372 -1.7110  0.5499 -0.0138
 4892TIP3   OH236090   5.084   2.238  14.428  0.1550 -0.5143 -0.3553
 4892TIP3    H136091   5.029   2.278  14.496 -0.3543 -0.6055 -0.7090
 4892TIP3    H236092   5.031   2.241  14.349  0.3757 -1.2594 -0.5438
 4893TIP3   OH236093   4.903   2.002  15.136  0.4226 -0.1648  0.0029
 4893TIP3    H136094   4.960   2.031  15.207 -0.1470 -1.8370  1.2113
 4893TIP3    H236095   4.953   1.933  15.091 -0.2373 -0.9687  0.4709
 4894TIP3   OH236096   0.381   5.793   3.723  0.6620 -0.0574 -0.6658
 4894TIP3    H136097   0.431   5.803   3.804  1.6719  1.2474 -1.4090
 4894TIP3    H236098   0.394   5.876   3.677 -1.3434 -0.0810 -1.3702
 4895TIP3   OH236099   1.720   3.492   6.101 -0.5932 -0.2992  0.3054
 4895TIP3    H136100   1.689   3.495   6.011 -0.3969 -1.1365  0.2064
 4895TIP3    H236101   1.814   3.508   6.095 -0.2170 -2.3352  0.1435
 4896TIP3   OH236102   3.620   1.994  15.741  0.7178 -0.1831 -0.5210
 4896TIP3    H136103   3.597   2.035  15.658  0.0113 -0.9460 -0.7186
 4896TIP3    H236104   3.575   2.047  15.807  2.2426  1.1398 -0.4971
 4897TIP3   OH236105   2.246   1.907  12.484 -0.0711  0.3398  0.4172
 4897TIP3    H136106   2.333   1.934  12.455 -0.1618  0.8108  0.5846
 4897TIP3    H236107   2.259   1.819  12.520  0.6060  0.9421  1.7187
 4898TIP3   OH236108   0.167   4.460   5.162 -0.0174 -0.3720 -0.2444
 4898TIP3    H136109   0.175   4.365   5.173  0.4913 -0.4081 -0.8652
 4898TIP3    H236110   0.076   4.480   5.184  0.4624 -0.6505  2.3546
 4899TIP3   OH236111   2.282   2.683  15.768  0.1728  0.2470 -0.6193
 4899TIP3    H136112   2.300   2.773  15.743  1.2709 -0.1496 -1.2996
 4899TIP3    H236113   2.349   2.662  15.833 -1.0704  0.4206  0.7796
 4900TIP3   OH236114   1.184   4.528   1.703 -0.3453 -0.3423  0.1249
 4900TIP3    H136115   1.178   4.468   1.628 -1.5519 -1.0797  0.7693
 4900TIP3    H236116   1.134   4.605   1.676  1.5735  0.6032 -0.8736
 4901TIP3   OH236117   3.676   1.877  17.019  0.2801 -0.3833  0.9011
 4901TIP3    H136118   3.710   1.925  17.095 -0.4375 -0.4678  1.2816
 4901TIP3    H236119   3.612   1.936  16.980  1.5273  0.1808 -0.3944
 4902TIP3   OH236120   1.382   2.401   4.571  0.5023 -0.5022 -0.1878
 4902TIP3    H136121   1.318   2.353   4.519  0.9524 -1.6320  0.2523
 4902TIP3    H236122   1.330   2.466   4.619 -0.4550 -1.8702  0.7212
 4903TIP3   OH236123   4.283   5.280  11.532  0.4283  0.1493 -0.3108
 4903TIP3    H136124   4.284   5.185  11.538  0.0660  0.1431 -0.3114
 4903TIP3    H236125   4.253   5.299  11.443 -3.6062  0.2491  0.8424
 4904TIP3   OH236126   5.945   3.910   2.703 -0.6259  0.3428 -0.4525
 4904TIP3    H136127   5.952   3.831   2.757  1.4333 -0.7437 -2.1644
 4904TIP3    H236128   5.857   3.907   2.668 -0.9066 -0.6651  0.2881
 4905TIP3   OH236129   1.869   0.875   3.217 -0.2504 -0.7500  0.3173
 4905TIP3    H136130   1.878   0.866   3.122 -3.2722 -1.5841  0.0042
 4905TIP3    H236131   1.795   0.934   3.229  0.7146  0.1566  2.2117
 4906TIP3   OH236132   1.523   4.172   4.179 -0.0407  0.0901 -0.2584
 4906TIP3    H136133   1.430   4.193   4.175 -0.3637 -0.9290  1.0932
 4906TIP3    H236134   1.525   4.079   4.201  1.2545  0.7145  2.7030
 4907TIP3   OH236135   2.416   4.811  11.711 -0.2301  0.1749  0.0968
 4907TIP3    H136136   2.457   4.760  11.640 -0.6174 -1.9592  1.3297
 4907TIP3    H236137   2.471   4.889  11.718  0.6184 -0.1936 -1.6421
 4908TIP3   OH236138   5.308   4.953   2.543  0.2345 -0.1779  0.3014
 4908TIP3    H136139   5.274   5.039   2.569 -1.2660 -0.4009 -0.7647
 4908TIP3    H236140   5.372   4.972   2.475 -1.2304  0.0522 -1.0531
 4909TIP3   OH236141   4.920   3.486  13.811 -0.3190 -0.2198  0.6658
 4909TIP3    H136142   4.907   3.400  13.851  2.6066 -1.2102 -0.2546
 4909TIP3    H236143   4.901   3.472  13.718  2.6663 -0.6637  0.0346
 4910TIP3   OH236144   3.282   5.808  16.122 -0.4600  0.1326 -0.5367
 4910TIP3    H136145   3.285   5.827  16.216  3.5228  0.5977 -0.5895
 4910TIP3    H236146   3.258   5.716  16.117 -1.9007  0.3860  0.7885
 4911TIP3   OH236147   6.176   6.597  13.073 -0.1163  0.8793  0.6119
 4911TIP3    H136148   6.092   6.606  13.029 -0.2957 -1.8821  0.1999
 4911TIP3    H236149   6.239   6.581  13.002  0.4270  1.0355  1.0468
 4912TIP3   OH236150   3.518   0.149  12.780 -0.0556 -0.1692 -0.3478
 4912TIP3    H136151   3.584   0.080  12.786  0.5704  0.4661  0.3845
 4912TIP3    H236152   3.435   0.104  12.793  0.3259 -0.8206 -0.0950
 4913TIP3   OH236153   0.501   2.075   0.856 -0.3107  0.0490 -0.1157
 4913TIP3    H136154   0.557   2.017   0.805  1.0963  1.5864 -0.4000
 4913TIP3    H236155   0.414   2.034   0.851  0.5842 -1.9698 -0.3412
 4914TIP3   OH236156   4.678   4.911   0.137 -0.0973 -0.1349 -0.1238
 4914TIP3    H136157   4.643   4.932   0.051 -1.5533  0.1467  0.5100
 4914TIP3    H236158   4.684   4.996   0.182  1.8164 -0.1151 -0.3322
 4915TIP3   OH236159   2.261   2.783  11.433 -0.2762 -0.6094  0.4941
 4915TIP3    H136160   2.328   2.740  11.380 -0.3774 -1.2903  0.9124
 4915TIP3    H236161   2.195   2.716  11.448 -0.6273 -0.1985  0.8359
 4916TIP3   OH236162   5.313   5.037  13.460  0.0152  0.1227  0.1173
 4916TIP3    H136163   5.382   5.003  13.517  0.5199  0.9296  0.0078
 4916TIP3    H236164   5.298   5.127  13.492 -1.7201 -0.3762  0.7994
 4917TIP3   OH236165   5.575   2.351   6.881  0.2531 -0.2968 -0.6508
 4917TIP3    H136166   5.497   2.320   6.835 -1.2186  0.4071  1.2485
 4917TIP3    H236167   5.593   2.282   6.945  0.4448  0.1068 -0.2688
 4918TIP3   OH236168   4.592   1.898   4.964 -0.1516  0.2723 -0.9020
 4918TIP3    H136169   4.527   1.914   4.895  0.5520 -0.1837 -1.6769
 4918TIP3    H236170   4.652   1.834   4.927  2.0856  2.3391 -1.0675
 4919TIP3   OH236171   3.469   3.154   3.713  0.0865  0.1617  0.4051
 4919TIP3    H136172   3.438   3.072   3.674  1.1367 -0.2609  0.4459
 4919TIP3    H236173   3.492   3.131   3.803  0.0996  0.5664  0.5058
 4920TIP3   OH236174   3.203   0.367  15.167 -0.2215 -0.5454  0.3058
 4920TIP3    H136175   3.171   0.291  15.117 -2.5054 -0.1918  1.1351
 4920TIP3    H236176   3.269   0.406  15.110 -1.4551 -1.1876 -1.6648
 4921TIP3   OH236177   4.929   1.903  16.065 -0.4796 -0.3834  0.3322
 4921TIP3    H136178   5.025   1.901  16.073 -0.5560  0.5937  2.2466
 4921TIP3    H236179   4.905   1.992  16.089 -1.8472 -0.3541 -1.0072
 4922TIP3   OH236180   3.994   0.422  13.661 -0.4138  0.1473  0.2041
 4922TIP3    H136181   4.068   0.433  13.600 -0.4894  0.8378  0.2334
 4922TIP3    H236182   3.944   0.350  13.624  0.0422 -0.0425 -0.0553
 4923TIP3   OH236183   1.342   2.389  11.570  0.1081  0.2974  0.8288
 4923TIP3    H136184   1.350   2.305  11.526  1.3512  1.3565 -1.1270
 4923TIP3    H236185   1.250   2.394  11.596  0.0375 -1.6865  1.1130
 4924TIP3   OH236186   5.162   5.248  13.217  0.3959  0.4108  0.4230
 4924TIP3    H136187   5.153   5.165  13.264  0.0490  1.2420  1.8878
 4924TIP3    H236188   5.124   5.231  13.131 -0.9608 -0.5655  1.1779
 4925TIP3   OH236189   1.808   4.134  15.367  0.2226  0.2481 -0.6352
 4925TIP3    H136190   1.833   4.127  15.275 -0.3554  0.9262 -0.8553
 4925TIP3    H236191   1.751   4.211  15.370  1.7554  1.4098  0.6137
 4926TIP3   OH236192   6.711   4.311   4.071 -0.1032 -0.0994 -0.0908
 4926TIP3    H136193   6.643   4.272   4.016 -0.6040 -1.5818  1.5179
 4926TIP3    H236194   6.734   4.243   4.135  0.8197  1.3701  1.2312
 4927TIP3   OH236195   2.726   4.232   1.684  0.1911  0.1916 -0.2907
 4927TIP3    H136196   2.740   4.270   1.597 -2.8163  0.4710 -0.7564
 4927TIP3    H236197   2.766   4.295   1.744  3.7620 -0.7678 -1.3906
 4928TIP3   OH236198   3.591   5.581   4.023 -0.4543 -0.5370 -0.2399
 4928TIP3    H136199   3.593   5.556   4.116 -0.9569 -0.9141 -0.3194
 4928TIP3    H236200   3.549   5.667   4.022  1.4771  0.4629  0.0572
 4929TIP3   OH236201   1.047   3.492  12.552  0.0794  0.3987  0.2869
 4929TIP3    H136202   1.045   3.503  12.647  0.7547 -0.6238  0.4330
 4929TIP3    H236203   0.968   3.441  12.532 -0.0407  0.5781  0.2963
 4930TIP3   OH236204   4.518   5.369   0.908 -0.0574  0.4970 -0.2990
 4930TIP3    H136205   4.594   5.410   0.949  0.8342 -0.6025 -0.8149
 4930TIP3    H236206   4.541   5.363   0.816 -1.4153  1.5336 -0.7505
 4931TIP3   OH236207   1.582   6.009   0.654 -0.0634 -0.1240  0.1604
 4931TIP3    H136208   1.578   6.086   0.711  1.4992  0.9227 -1.0461
 4931TIP3    H236209   1.492   5.979   0.647 -0.3765  0.0187  2.7128
 4932TIP3   OH236210   5.430   5.734   5.439  0.2509 -0.0079 -0.6256
 4932TIP3    H136211   5.439   5.672   5.367 -0.7192 -0.8841 -0.0299
 4932TIP3    H236212   5.426   5.679   5.518  0.9447  0.9055  0.0686
 4933TIP3   OH236213   1.399   6.340   1.348 -0.0438 -0.3100 -0.1319
 4933TIP3    H136214   1.376   6.266   1.404  2.0203  0.2222  1.5587
 4933TIP3    H236215   1.315   6.377   1.321 -1.1425 -0.9687  2.1245
 4934TIP3   OH236216   0.474   0.391   3.037  0.1660  0.0098  0.2945
 4934TIP3    H136217   0.470   0.422   3.128 -0.1442  1.1477 -0.0888
 4934TIP3    H236218   0.484   0.296   3.044 -1.9759 -0.1888  1.5252
 4935TIP3   OH236219   4.856   5.381  16.157  0.1296  0.4806  0.3777
 4935TIP3    H136220   4.893   5.301  16.122  0.3303  0.5573  0.4128
 4935TIP3    H236221   4.907   5.451  16.117 -1.4893  0.7085 -1.4014
 4936TIP3   OH236222   1.486   5.389   4.865 -0.4404  0.3103 -0.9239
 4936TIP3    H136223   1.569   5.435   4.864 -0.2170 -0.0741 -0.5232
 4936TIP3    H236224   1.482   5.348   4.951 -1.6967  1.4893 -0.3792
 4937TIP3   OH236225   1.032   0.341   1.076  0.0127 -0.5691 -0.5444
 4937TIP3    H136226   0.984   0.424   1.069  0.4429 -0.3769 -1.3574
 4937TIP3    H236227   1.002   0.290   1.001 -0.1389 -1.0976 -0.1307
 4938TIP3   OH236228   5.691   1.457  13.957  0.4683  0.0872  0.0908
 4938TIP3    H136229   5.627   1.451  13.886  0.3002 -2.9627  0.3572
 4938TIP3    H236230   5.761   1.513  13.922 -1.0173  1.1784 -1.2537
 4939TIP3   OH236231   4.528   5.853  14.023 -0.2307 -0.3214  0.5705
 4939TIP3    H136232   4.450   5.899  14.052  0.3666  2.3657 -1.6081
 4939TIP3    H236233   4.601   5.907  14.054  0.5151  0.1236 -1.7535
 4940TIP3   OH236234   3.506   4.400  15.016  0.1063  0.3768  0.5153
 4940TIP3    H136235   3.536   4.381  15.105 -0.8857  0.7576  0.9536
 4940TIP3    H236236   3.416   4.368  15.014 -0.0432  0.8224 -0.1936
 4941TIP3   OH236237   5.435   0.333   3.433 -0.1183 -0.0537  0.0978
 4941TIP3    H136238   5.363   0.307   3.491 -1.4764  2.6745 -0.2209
 4941TIP3    H236239   5.431   0.271   3.361 -0.2279 -1.7454  1.4906
 4942TIP3   OH236240   3.685   2.619  14.857 -0.1889  0.0031 -0.4698
 4942TIP3    H136241   3.761   2.579  14.898 -0.7276 -0.5136  0.0277
 4942TIP3    H236242   3.662   2.693  14.914 -0.3286 -0.1081 -0.3819
 4943TIP3   OH236243   1.770   4.357   0.910  0.2802 -0.5965  0.7027
 4943TIP3    H136244   1.750   4.447   0.938 -2.0363 -0.5959 -0.6637
 4943TIP3    H236245   1.756   4.358   0.815  2.7200 -1.8443  0.2379
 4944TIP3   OH236246   6.731   4.155  14.898 -0.1919  0.3247 -0.3356
 4944TIP3    H136247   6.723   4.225  14.963 -3.8932 -1.2161  1.1550
 4944TIP3    H236248   6.667   4.178  14.830  0.3649 -0.3807 -1.1178
 4945TIP3   OH236249   6.117   5.344  15.159 -0.0467 -0.1264 -0.2033
 4945TIP3    H136250   6.170   5.282  15.109  1.4914 -1.1448  2.4720
 4945TIP3    H236251   6.086   5.407  15.094  2.4944 -0.8551 -2.2844
 4946TIP3   OH236252   3.904   3.676   5.609 -0.3669  0.2099  0.1137
 4946TIP3    H136253   3.943   3.737   5.671  0.1391  0.0783 -0.0703
 4946TIP3    H236254   3.948   3.695   5.526  0.2970 -0.8598  0.1976
 4947TIP3   OH236255   0.183   5.884   0.492  0.2291  0.5911 -0.5976
 4947TIP3    H136256   0.232   5.966   0.498 -0.2256  0.8294  0.0173
 4947TIP3    H236257   0.095   5.911   0.465  0.2115  0.2534 -0.8838
 4948TIP3   OH236258   2.300   4.200  11.101 -0.2117 -0.2486 -0.4185
 4948TIP3    H136259   2.248   4.200  11.020  1.8020 -0.3286 -1.8129
 4948TIP3    H236260   2.268   4.274  11.151 -0.5498  0.7153 -1.9979
 4949TIP3   OH236261   5.847   2.431  15.781 -0.0900  0.1767  0.6803
 4949TIP3    H136262   5.774   2.411  15.840 -0.9318  0.4503 -0.2430
 4949TIP3    H236263   5.913   2.472  15.837 -1.0035  0.7270  1.3811
 4950TIP3   OH236264   6.523   6.052  15.782 -0.0499 -0.3037  0.6794
 4950TIP3    H136265   6.571   5.969  15.785 -1.9631 -1.5057 -0.2758
 4950TIP3    H236266   6.588   6.116  15.754  1.1544 -1.7439  0.0369
 4951TIP3   OH236267   5.345   2.908  15.805  0.9953 -0.9217 -0.1815
 4951TIP3    H136268   5.365   2.858  15.726  1.7043 -1.7098  0.4689
 4951TIP3    H236269   5.405   2.873  15.871  1.7852  1.0642  0.2109
 4952TIP3   OH236270   5.758   3.748  16.824  0.1729 -0.1079  0.3544
 4952TIP3    H136271   5.746   3.779  16.913  0.4310 -0.1981  0.4230
 4952TIP3    H236272   5.802   3.820  16.779  0.1194 -0.0950  0.3238
 4953TIP3   OH236273   0.844   2.843  13.268  0.0652  0.1049  0.3913
 4953TIP3    H136274   0.826   2.915  13.328  0.1133 -1.0998  1.8994
 4953TIP3    H236275   0.757   2.809  13.245 -0.0354  1.4725 -1.4276
 4954TIP3   OH236276   6.559   6.588  15.618  0.2554  0.0483 -0.5301
 4954TIP3    H136277   6.629   6.605  15.682  0.0993 -1.0702 -0.0527
 4954TIP3    H236278   6.531   6.499  15.636 -1.2887  0.4703 -0.7448
 4955TIP3   OH236279   2.011   2.652  13.684 -0.1918 -0.4626  0.3148
 4955TIP3    H136280   2.080   2.712  13.656 -0.0302 -0.5508  0.5145
 4955TIP3    H236281   1.943   2.709  13.721 -1.1099 -0.2194 -1.6426
 4956TIP3   OH236282   6.593   5.321   1.210 -0.4262 -0.1002  0.0355
 4956TIP3    H136283   6.617   5.307   1.302 -3.1816  1.9160  1.2204
 4956TIP3    H236284   6.676   5.343   1.167  0.6307  1.9067  2.7480
 4957TIP3   OH236285   5.435   4.308  12.976  0.4590  0.1715 -0.6708
 4957TIP3    H136286   5.485   4.297  12.895  0.7018 -0.2391 -0.4701
 4957TIP3    H236287   5.360   4.362  12.951  0.4271 -0.1216 -1.2151
 4958TIP3   OH236288   4.274   3.168   2.630  0.2473  0.1414  0.0595
 4958TIP3    H136289   4.221   3.248   2.633 -0.3007 -0.2049 -0.3281
 4958TIP3    H236290   4.294   3.155   2.537  0.1471 -0.2970  0.0974
 4959TIP3   OH236291   2.753   4.928  17.048  0.1861  0.7910 -0.2809
 4959TIP3    H136292   2.686   4.990  17.017 -0.8328 -0.5909 -0.9357
 4959TIP3    H236293   2.725   4.906  17.137  0.1617  0.7352 -0.3021
 4960TIP3   OH236294   5.313   1.891  14.328  0.3417 -0.1106  0.1848
 4960TIP3    H136295   5.229   1.853  14.303  0.6491 -1.8004  1.4847
 4960TIP3    H236296   5.308   1.982  14.298 -1.8011 -0.2481 -0.0814
 4961TIP3   OH236297   1.522   0.295  14.494  0.4411  0.7445  0.4605
 4961TIP3    H136298   1.511   0.373  14.547 -1.5277  0.7318  0.1372
 4961TIP3    H236299   1.462   0.307  14.420 -0.8676 -1.5746  1.0421
 4962TIP3   OH236300   2.640   5.971   4.371 -0.2145 -0.0827  0.1048
 4962TIP3    H136301   2.613   5.880   4.358  0.1714  0.0762 -2.3030
 4962TIP3    H236302   2.735   5.966   4.386  0.1397 -0.0043 -1.9007
 4963TIP3   OH236303   1.191   6.669  15.298 -0.3748 -0.5502  0.2274
 4963TIP3    H136304   1.139   6.636  15.224 -0.1373 -0.7484  0.1459
 4963TIP3    H236305   1.211   6.760  15.274  1.4631 -1.1948 -0.9614
 4964TIP3   OH236306   5.119   3.193   3.918 -0.6390  0.0671  0.3210
 4964TIP3    H136307   5.117   3.211   3.823 -0.7916 -0.9915  0.1167
 4964TIP3    H236308   5.031   3.215   3.948 -0.0530  2.2746  0.5958
 4965TIP3   OH236309   4.606   3.941   0.943  0.1172 -0.2055  0.0697
 4965TIP3    H136310   4.525   3.935   0.995 -0.0138  0.6320 -0.0269
 4965TIP3    H236311   4.588   4.009   0.879  0.3873 -1.0254 -0.9035
 4966TIP3   OH236312   3.801   4.789   6.975 -0.0767 -0.1313 -0.1992
 4966TIP3    H136313   3.751   4.826   7.047 -0.0635 -1.3024  0.4446
 4966TIP3    H236314   3.814   4.861   6.914 -0.8754  0.6537  0.5427
 4967TIP3   OH236315   5.937   1.076   1.546  0.5198  0.3586 -0.2043
 4967TIP3    H136316   6.000   1.048   1.479  0.9543 -0.0369  0.3588
 4967TIP3    H236317   5.874   1.131   1.498 -0.2619 -1.4249 -1.3149
 4968TIP3   OH236318   6.480   1.280  14.593 -0.3300 -0.3663 -0.7497
 4968TIP3    H136319   6.484   1.366  14.552  1.1016 -0.8993 -1.8359
 4968TIP3    H236320   6.561   1.274  14.644 -0.1356 -1.2629 -1.1445
 4969TIP3   OH236321   2.139   5.826  15.662  0.6720  0.0676  0.3285
 4969TIP3    H136322   2.186   5.882  15.723 -0.1878  0.6095  0.5166
 4969TIP3    H236323   2.047   5.841  15.682  0.4165 -1.1422  0.1259
 4970TIP3   OH236324   6.091   4.553  13.602 -0.2834 -0.4039 -0.8175
 4970TIP3    H136325   6.026   4.608  13.647 -0.2123 -0.7064 -0.3392
 4970TIP3    H236326   6.038   4.488  13.555 -0.3200 -1.1677  0.2427
 4971TIP3   OH236327   1.712   5.502   4.523 -0.0597 -0.1031 -0.1862
 4971TIP3    H136328   1.767   5.487   4.446  2.1543  2.4328  0.7615
 4971TIP3    H236329   1.770   5.488   4.597 -0.4711  2.9708  0.8501
 4972TIP3   OH236330   1.983   4.838   5.409  0.0739 -0.2050  0.0746
 4972TIP3    H136331   1.964   4.782   5.484 -3.9165  0.1284 -0.4988
 4972TIP3    H236332   2.026   4.781   5.346 -1.6019 -2.0053  0.4896
 4973TIP3   OH236333   6.236   1.020   5.717 -0.0515  0.1489 -0.3265
 4973TIP3    H136334   6.274   0.999   5.802 -0.3198  0.2521 -0.1796
 4973TIP3    H236335   6.287   1.095   5.686  1.2813 -1.0381 -1.1096
 4974TIP3   OH236336   4.264   0.153  15.714 -0.4506  0.0403 -0.2625
 4974TIP3    H136337   4.305   0.234  15.685 -0.0785  0.0778  0.3561
 4974TIP3    H236338   4.293   0.142  15.804 -0.0660 -1.0670 -0.5059
 4975TIP3   OH236339   1.066   2.672  14.937 -0.5052  0.4526 -0.2500
 4975TIP3    H136340   0.976   2.644  14.923 -0.6821 -0.0117  1.5823
 4975TIP3    H236341   1.062   2.768  14.936 -1.3521  0.4711  1.4337
 4976TIP3   OH236342   2.120   3.489  16.104 -0.3135  0.3572 -0.1180
 4976TIP3    H136343   2.063   3.497  16.181  0.3760  1.2005  0.3292
 4976TIP3    H236344   2.206   3.518  16.135  0.8818 -2.7093 -0.2441
 4977TIP3   OH236345   3.745   2.403   6.063 -0.0913  0.0032 -0.3968
 4977TIP3    H136346   3.778   2.316   6.042 -0.7735 -0.4692  0.4291
 4977TIP3    H236347   3.732   2.402   6.158 -0.4694  0.8686 -0.4270
 4978TIP3   OH236348   0.312   3.502   3.598  0.0125  0.5107 -0.0881
 4978TIP3    H136349   0.364   3.464   3.669 -0.3387  0.0823 -0.0542
 4978TIP3    H236350   0.286   3.588   3.630  0.5790  0.6753 -0.0487
 4979TIP3   OH236351   3.623   0.278   0.055 -0.0943 -0.5485  0.2133
 4979TIP3    H136352   3.695   0.245   0.002  0.3810 -2.0573  1.7189
 4979TIP3    H236353   3.588   0.201   0.099 -2.5187  0.1712 -0.3047
 4980TIP3   OH236354   3.735   0.187  12.458  0.1076 -0.5160  0.6685
 4980TIP3    H136355   3.751   0.183  12.552 -0.6347  1.1505  0.9040
 4980TIP3    H236356   3.750   0.279  12.435 -0.1257 -0.8119 -0.7630
 4981TIP3   OH236357   3.233   3.499   5.429 -0.2940  0.1653 -0.2350
 4981TIP3    H136358   3.244   3.404   5.435 -1.4130  0.1057  1.3165
 4981TIP3    H236359   3.315   3.530   5.391 -0.1507 -1.4633 -1.3583
 4982TIP3   OH236360   5.031   2.193   3.803 -0.0199  0.5666  0.0680
 4982TIP3    H136361   4.965   2.141   3.757 -0.3357 -1.1348  2.2705
 4982TIP3    H236362   5.001   2.283   3.795 -1.6504  0.0095 -0.4589
 4983TIP3   OH236363   5.105   3.901  15.236  0.2049  0.5375  0.3124
 4983TIP3    H136364   5.040   3.951  15.284 -1.5144 -1.4787  0.1940
 4983TIP3    H236365   5.067   3.889  15.148  0.8145 -0.4652  0.1654
 4984TIP3   OH236366   2.532   4.411  15.011  0.3451  0.0170  0.5207
 4984TIP3    H136367   2.498   4.473  14.947  0.9701 -0.8084 -0.6656
 4984TIP3    H236368   2.513   4.450  15.096 -2.2460  0.2387 -0.0909
 4985TIP3   OH236369   1.918   5.320   3.479 -0.3921 -0.1695  0.3096
 4985TIP3    H136370   1.899   5.361   3.394  1.4452  0.4986  0.1866
 4985TIP3    H236371   1.949   5.233   3.457 -2.5930 -1.0631  0.4862
 4986TIP3   OH236372   5.103   5.635  14.178 -0.5116 -0.0299  0.2045
 4986TIP3    H136373   5.031   5.574  14.165 -0.8604  0.1316  1.2650
 4986TIP3    H236374   5.119   5.634  14.273 -1.6814  2.7650  0.5276
 4987TIP3   OH236375   4.939   1.260  17.190 -0.0892 -0.1494  0.1033
 4987TIP3    H136376   4.928   1.326  17.121  0.4856  0.2509  0.3865
 4987TIP3    H236377   4.907   1.179  17.151  0.9307 -0.0911 -0.9017
 4988TIP3   OH236378   6.485   0.889   0.585 -0.0297 -0.8008  0.3531
 4988TIP3    H136379   6.578   0.901   0.569 -0.2742  0.9124  0.0223
 4988TIP3    H236380   6.479   0.809   0.636  1.3615 -2.7157 -2.2474
 4989TIP3   OH236381   5.406   4.111  12.594  0.4765  0.6350  0.0324
 4989TIP3    H136382   5.444   4.193  12.564 -1.7081  1.0683 -1.8326
 4989TIP3    H236383   5.312   4.129  12.601 -0.0632 -1.6578 -0.3388
 4990TIP3   OH236384   4.232   1.369  12.989  0.0639 -0.8676 -0.1269
 4990TIP3    H136385   4.233   1.357  12.894  0.2514 -1.7250 -0.0233
 4990TIP3    H236386   4.231   1.464  13.001 -0.1851 -0.7552 -0.9853
 4991TIP3   OH236387   0.425   0.520  13.198 -0.2013  0.3346 -0.3222
 4991TIP3    H136388   0.333   0.494  13.201 -0.1670  0.2267 -0.2272
 4991TIP3    H236389   0.473   0.445  13.232  0.1917 -0.9656 -3.3914
 4992TIP3   OH236390   2.891   5.182   0.484  0.3109 -0.8164  0.1044
 4992TIP3    H136391   2.936   5.127   0.420  0.8274 -1.2972  0.8679
 4992TIP3    H236392   2.809   5.207   0.440  1.0718 -0.3386 -1.1156
 4993TIP3   OH236393   5.180   5.235  15.367  0.6471  0.0972 -0.4943
 4993TIP3    H136394   5.272   5.224  15.393  0.4884 -0.5159 -0.1588
 4993TIP3    H236395   5.167   5.329  15.364  1.6092  0.2296 -1.6954
 4994TIP3   OH236396   6.248   6.127  13.377  0.1870  0.1568  0.2346
 4994TIP3    H136397   6.326   6.074  13.361  1.5028  1.3821  2.1495
 4994TIP3    H236398   6.250   6.193  13.309  1.6218  0.9727  1.0210
 4995TIP3   OH236399   3.414   4.444   0.346  0.6723  0.1011  0.0265
 4995TIP3    H136400   3.386   4.460   0.436 -1.4317  0.0251 -0.5779
 4995TIP3    H236401   3.400   4.350   0.333  0.1998  0.2593 -0.6291
 4996TIP3   OH236402   0.225   4.470  12.837 -0.2281 -0.3996 -0.1006
 4996TIP3    H136403   0.197   4.379  12.834 -0.4988 -0.3171 -2.3177
 4996TIP3    H236404   0.164   4.513  12.897 -1.1759 -1.3525 -0.3607
 4997TIP3   OH236405   2.286   5.529  11.907 -0.1987 -0.0534  0.2670
 4997TIP3    H136406   2.202   5.571  11.927  0.1264  0.8460 -0.1989
 4997TIP3    H236407   2.306   5.557  11.818  1.4856  1.2897  1.0074
 4998TIP3   OH236408   1.087   4.051  14.315 -0.2420  0.2010  0.3678
 4998TIP3    H136409   1.082   4.040  14.220  1.5995  0.5021  0.2053
 4998TIP3    H236410   1.014   4.109  14.336 -1.3859 -0.7899 -0.6820
 4999TIP3   OH236411   6.006   3.326   0.052 -0.3018 -0.2453 -0.0778
 4999TIP3    H136412   6.002   3.326  -0.044  2.2829 -2.3408 -0.3183
 4999TIP3    H236413   6.091   3.363   0.073 -1.1007  0.8086  1.4904
 5000TIP3   OH236414   6.681   5.390  14.484  0.2587 -0.2258 -0.2166
 5000TIP3    H136415   6.606   5.425  14.532  1.8888  1.1190  1.5487
 5000TIP3    H236416   6.744   5.463  14.482  1.8574 -1.5628 -0.8100
 5001TIP3   OH236417   6.063   5.552  14.144 -0.2466 -0.0557 -0.0358
 5001TIP3    H136418   6.118   5.512  14.212  0.5398  0.3248 -0.4310
 5001TIP3    H236419   6.123   5.609  14.096 -1.1174  0.8134 -0.1267
 5002TIP3   OH236420   4.297   0.746  13.413 -0.1026  0.3855  0.3681
 5002TIP3    H136421   4.342   0.690  13.350 -0.5347 -0.7325  1.0086
 5002TIP3    H236422   4.357   0.818  13.429  0.5835 -0.0292 -0.2954
 5003TIP3   OH236423   1.104   4.899  13.885  0.3927  0.1061  0.0347
 5003TIP3    H136424   1.157   4.843  13.829 -2.0684 -2.4051 -0.0074
 5003TIP3    H236425   1.051   4.951  13.825 -0.0556 -0.3438  0.0362
 5004TIP3   OH236426   6.267   1.435   2.244  0.1268  0.1214 -0.4490
 5004TIP3    H136427   6.298   1.525   2.232  2.1688 -0.6175 -1.0366
 5004TIP3    H236428   6.229   1.412   2.160 -3.3003  1.3867  0.5679
 5005TIP3   OH236429   0.184   4.440  16.870 -0.2367  0.1974  0.3288
 5005TIP3    H136430   0.250   4.509  16.864  0.8214 -0.5635  2.2847
 5005TIP3    H236431   0.177   4.421  16.964 -2.5268 -0.4587  0.0836
 5006TIP3   OH236432   1.685   1.230  15.489 -0.7112  0.2174 -0.5517
 5006TIP3    H136433   1.601   1.221  15.444 -0.0747  0.2083 -1.7941
 5006TIP3    H236434   1.674   1.183  15.572 -1.1148 -2.0741 -1.8272
 5007TIP3   OH236435   4.009   0.363   3.889  0.8596  0.3542 -0.2053
 5007TIP3    H136436   4.052   0.412   3.959 -0.8443  0.4538  0.8302
 5007TIP3    H236437   4.068   0.290   3.872  0.4851 -0.7742  2.7308
 5008TIP3   OH236438   4.951   4.390  15.462 -0.1784  0.0838  0.1204
 5008TIP3    H136439   4.880   4.415  15.521  1.1332  2.3996  0.8887
 5008TIP3    H236440   4.996   4.319  15.507 -0.1180  0.7841  1.1925
 5009TIP3   OH236441   1.113   5.651   4.742 -0.8666 -0.2366 -0.1133
 5009TIP3    H136442   1.038   5.677   4.688 -1.0590 -0.7011 -0.0714
 5009TIP3    H236443   1.141   5.567   4.707 -0.4842 -0.1567 -0.0052
 5010TIP3   OH236444   3.559   4.440   3.494  0.0826 -0.0678 -0.5026
 5010TIP3    H136445   3.646   4.479   3.487 -0.0792  0.5640  0.7337
 5010TIP3    H236446   3.519   4.454   3.408  0.7582  0.7323 -0.6959
 5011TIP3   OH236447   5.242   2.814   1.847 -0.0215  0.1736  0.0721
 5011TIP3    H136448   5.198   2.873   1.909  2.6382  3.1265 -0.6099
 5011TIP3    H236449   5.290   2.753   1.902 -2.5267 -1.2541  0.8045
 5012TIP3   OH236450   1.396   6.181  12.296  0.0318 -0.4513  0.6690
 5012TIP3    H136451   1.351   6.100  12.271 -0.7018  0.1171  0.1085
 5012TIP3    H236452   1.480   6.151  12.330 -1.0895 -1.6258  2.6324
 5013TIP3   OH236453   2.457   3.725   4.754 -0.0830  0.3206  0.6846
 5013TIP3    H136454   2.514   3.713   4.678 -0.7440  0.0288  0.2294
 5013TIP3    H236455   2.517   3.749   4.825  0.4180  1.8209 -0.1997
 5014TIP3   OH236456   4.171   1.745   1.379 -0.4416  0.3272  0.3328
 5014TIP3    H136457   4.257   1.778   1.351  0.5290 -2.1027  0.2196
 5014TIP3    H236458   4.134   1.705   1.300 -1.7603  1.4025  0.3648
 5015TIP3   OH236459   3.144   0.058   1.517  0.4832  0.3464  0.3197
 5015TIP3    H136460   3.058   0.094   1.496  0.5325  0.6815  0.6858
 5015TIP3    H236461   3.153   0.069   1.612  1.8322  2.3590  0.0062
 5016TIP3   OH236462   2.054   2.003  17.067 -0.3905  0.3895 -0.5099
 5016TIP3    H136463   1.982   2.031  17.123 -1.0165 -0.8079 -0.6832
 5016TIP3    H236464   2.112   1.955  17.125 -0.1170  0.6976 -0.5263
 5017TIP3   OH236465   5.723   1.556   5.372  0.1384  0.4714 -0.3060
 5017TIP3    H136466   5.776   1.634   5.385  0.0024  0.6861 -1.0163
 5017TIP3    H236467   5.776   1.485   5.408  0.6409  0.7706 -0.4498
 5018TIP3   OH236468   0.640   1.346   0.434  0.1880 -0.0136 -0.1511
 5018TIP3    H136469   0.703   1.276   0.418 -0.6716 -0.6847 -0.6863
 5018TIP3    H236470   0.621   1.341   0.528  1.5583  0.7612  0.1996
 5019TIP3   OH236471   2.933   0.388   3.747 -0.0964 -0.0164 -0.3437
 5019TIP3    H136472   2.865   0.455   3.757 -1.6233 -1.5902  0.4185
 5019TIP3    H236473   2.973   0.383   3.834 -2.0565 -2.1050  0.5516
 5020TIP3   OH236474   0.004   6.195  15.259  0.3228 -0.3504  0.6595
 5020TIP3    H136475   0.036   6.109  15.288 -0.2232 -0.8185 -0.0874
 5020TIP3    H236476   0.006   6.249  15.338 -0.1874 -1.3170  1.3575
 5021TIP3   OH236477   0.053   0.153   5.047 -0.2393 -0.1931  0.3628
 5021TIP3    H136478   0.069   0.082   5.108  0.0547  0.3754  0.9530
 5021TIP3    H236479   0.133   0.206   5.050 -0.2678 -0.0936 -0.4217
 5022TIP3   OH236480   4.659   0.694  11.405 -0.2493 -0.0061  0.3004
 5022TIP3    H136481   4.706   0.626  11.453 -0.0747  0.4409  0.7696
 5022TIP3    H236482   4.571   0.658  11.392  0.6015 -1.4848 -1.9136
 5023TIP3   OH236483   5.677   5.132  11.999  0.1265  0.0900 -0.3509
 5023TIP3    H136484   5.665   5.089  11.915  2.1324  0.8696 -1.1042
 5023TIP3    H236485   5.765   5.105  12.027 -1.4121 -2.2678  2.8134
 5024TIP3   OH236486   2.416   5.541  13.947 -0.6014  0.5515 -0.2203
 5024TIP3    H136487   2.409   5.529  14.042  2.2836  1.2735  0.1679
 5024TIP3    H236488   2.432   5.635  13.936  3.4231 -0.0504 -0.9603
 5025TIP3   OH236489   4.104   1.890  16.619  0.3905 -0.2524 -0.1245
 5025TIP3    H136490   4.158   1.883  16.540 -0.7431 -1.6911 -0.8131
 5025TIP3    H236491   4.164   1.865  16.690  1.6234  1.7490 -0.3727
 5026TIP3   OH236492   5.265   1.542  16.008  0.0269 -0.2606 -0.4188
 5026TIP3    H136493   5.186   1.500  15.973  1.3751 -2.0493 -1.5213
 5026TIP3    H236494   5.233   1.603  16.074 -2.1786 -2.3360  0.5757
 5027TIP3   OH236495   1.257   4.932   4.819  0.2279  0.0561  0.1718
 5027TIP3    H136496   1.341   4.971   4.800  1.5259 -2.0436  1.1399
 5027TIP3    H236497   1.209   4.999   4.869 -0.4785  2.8878 -3.8459
 5028TIP3   OH236498   2.460   2.774   3.042 -0.0720  0.1145 -0.3713
 5028TIP3    H136499   2.539   2.745   2.995  0.6119  0.0244  0.7878
 5028TIP3    H236500   2.493   2.810   3.125 -1.1495  1.4110 -0.4733
 5029TIP3   OH236501   4.174   4.765   4.026  0.4144  0.1721  0.0998
 5029TIP3    H136502   4.168   4.804   3.938  1.3176 -0.6819 -0.3625
 5029TIP3    H236503   4.084   4.747   4.050  0.2140 -0.8490 -1.2640
 5030TIP3   OH236504   1.627   1.385  16.340  0.1729 -0.1843 -0.0032
 5030TIP3    H136505   1.660   1.381  16.429 -0.9721 -0.0706  0.4394
 5030TIP3    H236506   1.571   1.463  16.339 -0.5348 -0.6944 -0.5704
 5031TIP3   OH236507   2.229   6.336  13.863 -0.4800  0.1132  0.4610
 5031TIP3    H136508   2.244   6.247  13.833  1.2095  0.5712 -0.1388
 5031TIP3    H236509   2.218   6.328  13.958 -2.3091 -0.9225  0.2179
 5032TIP3   OH236510   5.359   3.580  14.504 -0.3373 -0.1376 -0.2318
 5032TIP3    H136511   5.451   3.554  14.508 -0.6306 -1.3185 -0.6365
 5032TIP3    H236512   5.311   3.497  14.512 -1.3543  0.3952 -0.6931
 5033TIP3   OH236513   1.630   6.303  16.354 -0.1130 -0.0959 -0.0760
 5033TIP3    H136514   1.577   6.225  16.368  1.5121 -1.3746 -0.6894
 5033TIP3    H236515   1.639   6.310  16.259  3.6043 -2.0207 -0.0523
 5034TIP3   OH236516   6.417   1.700  16.109  0.1198  0.8739 -0.1844
 5034TIP3    H136517   6.375   1.704  16.023  0.6879 -0.2512 -0.5255
 5034TIP3    H236518   6.495   1.646  16.095 -0.9105 -1.1359  1.4985
 5035TIP3   OH236519   5.982   0.358  14.923  0.4320  0.1455 -0.0299
 5035TIP3    H136520   6.015   0.296  14.987  0.9506  0.8514  0.3934
 5035TIP3    H236521   6.057   0.377  14.867 -0.1587 -0.9236 -1.2430
 5036TIP3   OH236522   0.031   0.436  12.926 -0.1153  0.0004 -0.1090
 5036TIP3    H136523   0.122   0.408  12.932  0.1022  0.3374 -1.4551
 5036TIP3    H236524  -0.008   0.409  13.009  0.9377 -1.1326  0.0516
 5037TIP3   OH236525   1.226   5.342   4.708 -0.0018  0.1449 -0.0097
 5037TIP3    H136526   1.301   5.357   4.765  0.2971  0.0448 -0.3704
 5037TIP3    H236527   1.264   5.308   4.627 -0.5772 -1.6592  0.4337
 5038TIP3   OH236528   4.994   6.403  14.505  0.3386 -0.0730 -0.4840
 5038TIP3    H136529   5.009   6.374  14.595 -0.6149  0.2372 -0.2126
 5038TIP3    H236530   5.081   6.418  14.470  0.7074  1.8830  1.0919
 5039TIP3   OH236531   3.566   2.902   5.683  0.3469  0.0650 -0.4157
 5039TIP3    H136532   3.503   2.871   5.749 -0.5842  0.3800 -1.1304
 5039TIP3    H236533   3.619   2.825   5.662 -0.2178 -0.3714 -0.2645
 5040TIP3   OH236534   6.456   0.726   4.447 -0.3995  0.3751 -0.4242
 5040TIP3    H136535   6.426   0.792   4.384 -1.0456 -0.4303 -0.9918
 5040TIP3    H236536   6.406   0.745   4.526  0.5311  1.4919 -0.0797
 5041TIP3   OH236537   2.884   2.175  13.825  0.4774 -0.3662  0.3607
 5041TIP3    H136538   2.959   2.123  13.796  0.8656  0.2529  0.2314
 5041TIP3    H236539   2.840   2.201  13.743 -0.0022 -0.9115  0.4467
 5042TIP3   OH236540   2.459   3.752   5.546 -0.3309  0.3736  0.2738
 5042TIP3    H136541   2.413   3.827   5.584 -0.0218  0.5663  0.2783
 5042TIP3    H236542   2.547   3.757   5.583 -0.0359  0.5467 -0.4241
 5043TIP3   OH236543   6.278   4.803   1.651 -0.3052  0.4220 -0.1924
 5043TIP3    H136544   6.229   4.883   1.633 -0.5000  0.0922 -1.1851
 5043TIP3    H236545   6.366   4.834   1.673 -0.5372  0.9341  0.0422
 5044TIP3   OH236546   2.839   6.197  15.659  0.0453 -0.1205  0.6786
 5044TIP3    H136547   2.832   6.104  15.640 -0.7974 -0.0723  0.7221
 5044TIP3    H236548   2.933   6.211  15.677  0.8239 -0.2994 -2.6082
 5045TIP3   OH236549   2.863   2.791   6.860  0.3259 -0.0420 -0.0538
 5045TIP3    H136550   2.860   2.735   6.782 -1.2144  0.0993 -0.1184
 5045TIP3    H236551   2.940   2.760   6.909  0.2390 -1.3623 -0.7148
 5046TIP3   OH236552   2.966   2.501  15.520 -0.4481  0.1402  1.1095
 5046TIP3    H136553   2.910   2.577  15.538 -1.2642 -0.6623  2.0567
 5046TIP3    H236554   2.913   2.425  15.544  0.1969 -0.7737 -0.2434
 5047TIP3   OH236555   0.811   2.617  14.830 -0.2678 -0.1147  0.4092
 5047TIP3    H136556   0.811   2.644  14.738 -0.1511 -1.8449 -0.1163
 5047TIP3    H236557   0.719   2.622  14.856 -0.5423 -1.2131 -0.2992
 5048TIP3   OH236558   1.595   4.737   3.305  0.3022  0.1614 -0.0610
 5048TIP3    H136559   1.568   4.763   3.393  0.5932  0.0382  0.0686
 5048TIP3    H236560   1.649   4.809   3.273 -2.4204  1.7411 -1.4454
 5049TIP3   OH236561   3.712   4.805  11.167 -0.1902  0.1484  0.1929
 5049TIP3    H136562   3.774   4.742  11.130 -0.5470  0.4259 -0.9060
 5049TIP3    H236563   3.634   4.798  11.112 -0.1034  1.7996 -0.1978
 5050TIP3   OH236564   4.778   0.674  14.993 -0.3065 -0.2070  0.7982
 5050TIP3    H136565   4.807   0.614  14.925  1.2581  0.5005  0.8125
 5050TIP3    H236566   4.792   0.626  15.075 -3.7336 -1.7319  0.7011
 5051TIP3   OH236567   4.500   2.882  12.808  0.1999 -0.0584 -0.6650
 5051TIP3    H136568   4.539   2.832  12.880  1.5830  0.6673 -0.8661
 5051TIP3    H236569   4.513   2.974  12.832  0.3305  0.1968 -1.6374
 5052TIP3   OH236570   2.632   5.695  14.646 -0.6035 -0.1817  0.7297
 5052TIP3    H136571   2.624   5.616  14.593 -1.5137 -0.7385  1.6775
 5052TIP3    H236572   2.542   5.724  14.661 -0.3862 -0.1720  2.1558
 5053TIP3   OH236573   0.906   5.005   5.695  0.6543 -0.4134  0.1333
 5053TIP3    H136574   0.977   5.021   5.757  1.6034  0.4587 -1.1432
 5053TIP3    H236575   0.853   5.084   5.698 -0.3395 -1.0709  1.1032
 5054TIP3   OH236576   3.372   4.650   5.571 -0.0284  0.5044 -0.0962
 5054TIP3    H136577   3.323   4.575   5.606  0.8793  0.2513  0.6968
 5054TIP3    H236578   3.386   4.707   5.647  1.2902  0.3378 -0.1944
 5055TIP3   OH236579   2.959   5.673  14.772  0.4821  0.1408  0.4087
 5055TIP3    H136580   3.049   5.705  14.776  0.2997  0.7989 -0.4574
 5055TIP3    H236581   2.957   5.615  14.697  0.3056 -0.2825  0.7372
 5056TIP3   OH236582   4.146   1.157   5.226  0.0390  0.2855  0.7084
 5056TIP3    H136583   4.113   1.119   5.145 -0.0779 -0.0707  0.9213
 5056TIP3    H236584   4.196   1.234   5.198  1.2723 -0.6756  0.1793
 5057TIP3   OH236585   1.912   5.556  15.642  0.2888 -0.3689 -0.2132
 5057TIP3    H136586   1.940   5.583  15.554 -1.0958 -1.4414 -1.0414
 5057TIP3    H236587   1.871   5.634  15.679  1.1515  0.1805 -0.3912
 5058TIP3   OH236588   3.944   5.150   4.831 -0.4066 -0.0592  0.2904
 5058TIP3    H136589   4.028   5.108   4.850 -0.4874 -0.1725  0.3959
 5058TIP3    H236590   3.951   5.180   4.740 -1.2815 -2.5123 -0.6521
 5059TIP3   OH236591   6.034   0.373  12.132 -0.1021 -0.0630  0.0361
 5059TIP3    H136592   6.093   0.303  12.160 -0.6531  0.3293  2.3476
 5059TIP3    H236593   5.967   0.328  12.080 -0.5865 -1.3350  1.6755
 5060TIP3   OH236594   3.682   5.454  16.231 -0.1576  0.2749  0.0834
 5060TIP3    H136595   3.775   5.440  16.211 -0.3284 -0.2976 -0.3143
 5060TIP3    H236596   3.683   5.521  16.300  0.6505 -1.2111  1.5861
 5061TIP3   OH236597   6.603   4.626   6.791 -0.3787 -0.3619  0.2089
 5061TIP3    H136598   6.528   4.686   6.800  0.8511  1.4209 -0.7843
 5061TIP3    H236599   6.679   4.684   6.784  1.0225 -2.1024  0.4335
 5062TIP3   OH236600   3.012   3.125  12.381  0.2104  0.1799  0.1600
 5062TIP3    H136601   2.965   3.042  12.385 -1.3352  0.9933  0.1628
 5062TIP3    H236602   2.949   3.189  12.416  1.7483  1.1916  1.1908
 5063TIP3   OH236603   0.037   4.031  10.765  0.5307 -0.0221  0.1376
 5063TIP3    H136604   0.044   3.938  10.786  0.5286 -0.0053  0.2113
 5063TIP3    H236605   0.119   4.068  10.796  0.6000 -0.0277 -0.0398
 5064TIP3   OH236606   4.491   4.165   2.544 -0.1262  0.5378  0.3261
 5064TIP3    H136607   4.456   4.171   2.456 -0.2117  0.5755  0.3634
 5064TIP3    H236608   4.417   4.184   2.602 -0.2930 -0.3460  0.4287
 5065TIP3   OH236609   1.772   3.932  14.401  0.5930  0.3808  0.0896
 5065TIP3    H136610   1.747   4.019  14.371 -0.6726  0.3135  0.8991
 5065TIP3    H236611   1.775   3.879  14.321 -0.4255  0.7446 -0.2067
 5066TIP3   OH236612   1.657   5.217  13.982 -0.1526 -0.0087  0.8064
 5066TIP3    H136613   1.681   5.301  14.022  0.3252 -0.1277  0.7786
 5066TIP3    H236614   1.667   5.153  14.052  0.4080 -0.1766  0.5750
 5067TIP3   OH236615   2.599   1.829  14.813  0.0226 -0.0878 -0.0537
 5067TIP3    H136616   2.575   1.832  14.721  0.2165  0.1108 -0.0960
 5067TIP3    H236617   2.613   1.920  14.838  1.7227 -0.2602 -0.2831
 5068TIP3   OH236618   2.985   0.855  16.929 -0.4881  0.0447  0.6944
 5068TIP3    H136619   3.047   0.818  16.992  2.2967  3.4049  0.2352
 5068TIP3    H236620   2.952   0.934  16.972 -1.2569  0.5250 -0.7352
 5069TIP3   OH236621   4.958   5.573   1.769 -0.2792  0.3047  0.4095
 5069TIP3    H136622   4.995   5.660   1.781 -0.1919  0.5433 -1.2964
 5069TIP3    H236623   4.865   5.588   1.752 -0.6402 -0.0908  1.9110
 5070TIP3   OH236624   5.613   0.565  11.467 -0.1321 -0.5722 -0.0067
 5070TIP3    H136625   5.668   0.585  11.392 -0.6153 -1.0681 -0.5044
 5070TIP3    H236626   5.578   0.650  11.495 -0.0791 -0.4038 -0.4477
 5071TIP3   OH236627   0.510   0.360   2.021 -0.5493  0.3819 -0.5573
 5071TIP3    H136628   0.549   0.396   1.941 -1.4678  1.2565 -0.6314
 5071TIP3    H236629   0.418   0.346   1.999 -0.5323 -0.6072 -0.0439
 5072TIP3   OH236630   2.938   5.563  12.553  0.5032  0.5326 -0.6878
 5072TIP3    H136631   2.890   5.511  12.618 -0.1800  1.2760 -0.5752
 5072TIP3    H236632   2.892   5.547  12.471 -0.3459  1.6912 -0.4786
 5073TIP3   OH236633   5.305   3.346  15.891 -0.3799  0.3141 -0.2959
 5073TIP3    H136634   5.318   3.358  15.797 -0.3564  1.3300 -0.1819
 5073TIP3    H236635   5.269   3.258  15.900  1.7777 -0.7052 -1.0489
 5074TIP3   OH236636   3.493   2.167  15.946  0.0453 -0.2185  0.0914
 5074TIP3    H136637   3.470   2.204  16.032  0.9301 -1.6703  0.9988
 5074TIP3    H236638   3.456   2.228  15.883 -1.0649  0.6396  1.5071
 5075TIP3   OH236639   5.525   2.624  14.896 -0.1154  0.1488 -0.4788
 5075TIP3    H136640   5.607   2.657  14.933  0.5376 -0.1413 -1.6325
 5075TIP3    H236641   5.552   2.574  14.819 -1.1348 -2.2415  0.6238
 5076TIP3   OH236642   1.040   2.317   1.683 -0.3865  0.1063 -0.9000
 5076TIP3    H136643   1.000   2.361   1.758  0.8492 -0.2150 -0.0111
 5076TIP3    H236644   1.124   2.285   1.716 -0.7263 -1.9183 -1.8281
 5077TIP3   OH236645   5.189   0.146  17.217  0.5981  0.2282  0.5118
 5077TIP3    H136646   5.131   0.122  17.288 -0.2505  1.7668  0.3913
 5077TIP3    H236647   5.259   0.081  17.219 -0.6634 -1.1407  1.2120
 5078TIP3   OH236648   5.812   3.793  12.495 -0.5510  0.0606 -0.0400
 5078TIP3    H136649   5.799   3.774  12.402 -0.1086  1.6633 -0.4598
 5078TIP3    H236650   5.809   3.889  12.501 -1.8214 -0.0502  1.7973
 5079TIP3   OH236651   6.432   0.567  11.972 -0.4985  0.0493  0.0718
 5079TIP3    H136652   6.477   0.637  11.923 -0.2370 -1.0460 -1.3188
 5079TIP3    H236653   6.355   0.609  12.009 -0.3020  1.1034 -0.6719
 5080TIP3   OH236654   4.566   2.650  16.898 -0.1173 -0.7672 -0.3434
 5080TIP3    H136655   4.571   2.587  16.971 -1.2870 -0.5808 -0.0858
 5080TIP3    H236656   4.656   2.680  16.887  0.4437 -2.2969 -0.3067
 5081TIP3   OH236657   4.055   3.377  16.625  0.1600  0.4205 -0.0558
 5081TIP3    H136658   4.106   3.328  16.561  0.7250  0.7557  0.1280
 5081TIP3    H236659   4.108   3.455  16.644  1.1227 -0.7371  2.4889
 5082TIP3   OH236660   6.082   0.991   3.807 -0.1356  0.2190  0.5186
 5082TIP3    H136661   6.165   1.035   3.788 -1.4532  2.7553  0.2914
 5082TIP3    H236662   6.063   1.012   3.898  0.2785 -1.8423  1.1297
 5083TIP3   OH236663   3.198   2.031  16.195  0.0717  0.0365  0.3848
 5083TIP3    H136664   3.187   2.125  16.180  0.5024  0.1130  0.5235
 5083TIP3    H236665   3.109   1.996  16.195 -0.0531 -0.2279 -3.8447
 5084TIP3   OH236666   0.107   0.815   2.520 -0.1182 -0.5089 -0.1362
 5084TIP3    H136667   0.085   0.834   2.611 -1.9958  0.2428 -0.6910
 5084TIP3    H236668   0.102   0.900   2.476 -0.1668 -1.0031 -1.1169
 5085TIP3   OH236669   3.941   0.784  11.113 -0.2809  0.0598 -0.0433
 5085TIP3    H136670   3.950   0.695  11.146  3.2854  0.2295 -0.2013
 5085TIP3    H236671   4.005   0.790  11.042  0.5556  3.0763  0.8304
 5086TIP3   OH236672   1.509   3.283   2.782 -0.2023 -0.0597  0.6938
 5086TIP3    H136673   1.428   3.333   2.786  0.0746  0.5003 -0.4442
 5086TIP3    H236674   1.541   3.282   2.873 -1.8516 -0.9543  1.3135
 5087TIP3   OH236675   1.945   4.925  13.066  0.4880 -0.1790  0.5896
 5087TIP3    H136676   2.029   4.966  13.089  0.2894 -0.1098  1.2150
 5087TIP3    H236677   1.970   4.844  13.023  0.8937  0.5768 -0.6745
 5088TIP3   OH236678   3.858   0.299  16.328 -0.1824 -0.6084  0.1383
 5088TIP3    H136679   3.893   0.302  16.417 -1.1333  1.1986  0.4944
 5088TIP3    H236680   3.793   0.229  16.330  2.4902 -3.3426 -0.2797
 5089TIP3   OH236681   5.919   3.038   5.870 -0.3069  0.1752 -0.0317
 5089TIP3    H136682   5.997   3.086   5.899  0.8953 -0.3461 -2.2213
 5089TIP3    H236683   5.851   3.104   5.867 -0.0232  0.6491  1.9331
 5090TIP3   OH236684   0.960   4.135  17.195 -0.1071  0.5418 -0.1393
 5090TIP3    H136685   0.927   4.105  17.280  1.3800 -0.8580  0.0003
 5090TIP3    H236686   1.015   4.063  17.164  2.1505  2.3664 -0.6957
 5091TIP3   OH236687   4.770   5.342  13.119 -0.0808  0.0780 -0.1846
 5091TIP3    H136688   4.858   5.379  13.130 -0.5787  1.0717  0.6626
 5091TIP3    H236689   4.713   5.419  13.109 -0.7977 -0.5667 -1.2624
 5092TIP3   OH236690   4.640   1.440  15.661  0.8123 -0.9009 -0.1187
 5092TIP3    H136691   4.594   1.361  15.634  1.5394 -1.1919 -0.5360
 5092TIP3    H236692   4.586   1.477  15.730 -0.8033 -0.4409 -1.5682
 5093TIP3   OH236693   4.495   2.182  11.379  0.1137  0.2312  0.2092
 5093TIP3    H136694   4.533   2.109  11.331  0.0595 -0.5087  1.2505
 5093TIP3    H236695   4.570   2.224  11.422 -0.0612 -0.5277  1.3233
 5094TIP3   OH236696   2.720   6.273   5.785 -0.9055  0.2060  0.3458
 5094TIP3    H136697   2.710   6.249   5.877 -0.4858 -1.8493 -0.0884
 5094TIP3    H236698   2.630   6.291   5.755 -1.2635 -0.7909  0.7716
 5095TIP3   OH236699   5.131   0.721  17.113 -0.3277  0.4158  0.3089
 5095TIP3    H136700   5.057   0.664  17.134 -1.9498  1.9790 -0.9132
 5095TIP3    H236701   5.127   0.730  17.017  2.0814 -0.2639  0.0829
 5096TIP3   OH236702   5.921   1.803   1.733  0.2012  0.2221 -0.0437
 5096TIP3    H136703   5.868   1.729   1.763  2.0006 -2.0108 -1.9616
 5096TIP3    H236704   5.886   1.825   1.647  1.4803 -0.3956 -0.7488
 5097TIP3   OH236705   5.924   1.678   4.254  0.5733  0.6577  0.2496
 5097TIP3    H136706   5.880   1.595   4.273  1.2297  0.0184 -0.8789
 5097TIP3    H236707   5.979   1.659   4.179 -0.5678  2.5468 -1.1798
 5098TIP3   OH236708   1.205   3.972   2.104  1.0411 -0.0397  0.2851
 5098TIP3    H136709   1.288   4.000   2.064 -0.3972  1.3836 -1.9656
 5098TIP3    H236710   1.166   3.913   2.039  1.3726 -2.8791  2.4642
 5099TIP3   OH236711   1.397   3.544   2.962 -0.5900  0.1204  0.0111
 5099TIP3    H136712   1.366   3.479   3.025  0.3048 -1.7635 -1.4067
 5099TIP3    H236713   1.357   3.518   2.879  2.1702 -0.5489 -1.2302
 5100TIP3   OH236714   2.363   1.121  17.296 -0.3280 -0.4216 -0.3032
 5100TIP3    H136715   2.452   1.127  17.331 -0.2862  0.8174 -0.5912
 5100TIP3    H236716   2.375   1.104  17.203 -0.3313  1.1628 -0.6305
 5101TIP3   OH236717   5.103   0.391   0.431 -0.2037  0.0758  0.5106
 5101TIP3    H136718   5.019   0.346   0.432 -0.2948  0.2389  0.2965
 5101TIP3    H236719   5.132   0.390   0.523  0.2238 -1.1996  0.3745
 5102TIP3   OH236720   1.194   2.582  17.116  0.2104 -0.4105 -0.0699
 5102TIP3    H136721   1.186   2.617  17.027  1.0781  0.8743  0.3373
 5102TIP3    H236722   1.268   2.521  17.111  1.1714  0.7103  0.0571
 5103TIP3   OH236723   1.976   4.220   2.002 -0.0097 -0.6528 -0.3846
 5103TIP3    H136724   2.035   4.160   2.047  0.9533 -0.1584 -0.9548
 5103TIP3    H236725   2.019   4.237   1.918  0.3740  1.7841  0.2311
 5104TIP3   OH236726   2.784   4.779   5.143  0.6308  0.1862  0.2228
 5104TIP3    H136727   2.804   4.757   5.234 -2.0010 -1.0444  0.5990
 5104TIP3    H236728   2.690   4.762   5.134  0.8839 -0.2254 -2.8569
 5105TIP3   OH236729   2.647   4.625   0.401 -0.2443  0.1011  0.1277
 5105TIP3    H136730   2.591   4.628   0.478  0.3071  1.8325  0.5026
 5105TIP3    H236731   2.706   4.699   0.411  1.9653 -1.4922 -0.3830
 5106TIP3   OH236732   4.916   0.698  11.952  0.2497 -0.0656  0.4021
 5106TIP3    H136733   4.971   0.771  11.924  1.0896 -0.5032  0.8548
 5106TIP3    H236734   4.953   0.671  12.036  0.1437 -1.2007  0.1052
 5107TIP3   OH236735   5.679   5.016   2.469  0.2228 -0.0903  0.1706
 5107TIP3    H136736   5.775   5.019   2.470  0.2258 -0.0958 -0.1347
 5107TIP3    H236737   5.657   4.939   2.521  0.3668  0.2836  0.7933
 5108TIP3   OH236738   3.941   3.082  11.791  0.3878  0.1731 -0.2007
 5108TIP3    H136739   3.968   3.172  11.775  1.0405 -0.0026 -0.1516
 5108TIP3    H236740   4.023   3.035  11.807  0.0589 -0.4339 -0.2464
 5109TIP3   OH236741   6.153   1.251  15.005  0.0339 -0.4304 -0.1163
 5109TIP3    H136742   6.225   1.286  15.058  0.2907  2.0032 -1.9098
 5109TIP3    H236743   6.075   1.292  15.041 -0.2307 -1.3302  0.3886
 5110TIP3   OH236744   4.046   0.789  16.742 -0.0966  0.4215 -0.2556
 5110TIP3    H136745   4.081   0.871  16.708  1.2330 -0.0145  0.0343
 5110TIP3    H236746   4.030   0.736  16.664  0.0439  0.5638 -0.3807
 5111TIP3   OH236747   3.712   0.450   0.294 -0.1436 -0.3588 -0.1284
 5111TIP3    H136748   3.679   0.527   0.247  0.3865  0.1532  0.3334
 5111TIP3    H236749   3.696   0.378   0.233  0.2363  0.2476 -0.9809
 5112TIP3   OH236750   5.289   2.736  13.178 -0.2079  0.4597  0.1780
 5112TIP3    H136751   5.243   2.700  13.102  0.5107  0.9406 -0.5027
 5112TIP3    H236752   5.222   2.782  13.228 -1.1623 -1.7849  1.0900
 5113TIP3   OH236753   1.159   4.513   2.491 -0.3871  0.4104 -0.5825
 5113TIP3    H136754   1.175   4.594   2.442  0.1353  0.8388  0.2871
 5113TIP3    H236755   1.218   4.517   2.565  0.8645 -1.5552 -1.3801
 5114TIP3   OH236756   3.033   5.909  14.221  0.6995 -0.1842 -0.1423
 5114TIP3    H136757   2.994   5.950  14.144  2.3084  2.0175  0.1094
 5114TIP3    H236758   2.983   5.944  14.295  1.6750  0.8939  0.0324
 5115TIP3   OH236759   4.581   6.289  16.487  0.4106 -0.5491  0.1380
 5115TIP3    H136760   4.566   6.197  16.467 -0.3084  0.1016 -2.9427
 5115TIP3    H236761   4.495   6.330  16.475  0.9987  0.7155  0.0484
 5116TIP3   OH236762   0.104   3.591  16.815  0.0906 -0.1932  0.5749
 5116TIP3    H136763   0.152   3.664  16.853 -1.2058  1.1197 -0.2443
 5116TIP3    H236764   0.112   3.603  16.721 -1.1887 -0.3774  0.4248
 5117TIP3   OH236765   1.123   6.557  12.712 -0.0772 -0.4018  0.6907
 5117TIP3    H136766   1.200   6.592  12.667 -2.1753  0.1662 -2.8711
 5117TIP3    H236767   1.105   6.620  12.781  1.4416  0.5933  0.2251
 5118TIP3   OH236768   1.845   0.708  13.904 -0.5012  0.6415 -0.0771
 5118TIP3    H136769   1.761   0.664  13.912 -0.3671  0.3039 -0.5037
 5118TIP3    H236770   1.894   0.655  13.841 -0.1775  1.1571 -0.2620
 5119TIP3   OH236771   0.759   3.595  16.480  0.1327  0.5253  0.2126
 5119TIP3    H136772   0.687   3.597  16.417 -0.0230 -0.8957  0.3030
 5119TIP3    H236773   0.751   3.677  16.528  0.3545  1.7289 -1.6969
 5120TIP3   OH236774   5.470   5.078  15.793 -0.5117  0.5049 -0.1267
 5120TIP3    H136775   5.522   5.110  15.720  1.0729 -0.9080  0.3201
 5120TIP3    H236776   5.497   5.131  15.868  1.1049 -0.8780  0.3217
 5121TIP3   OH236777   3.584   1.848  16.423 -0.0771  0.4333 -0.0569
 5121TIP3    H136778   3.661   1.809  16.465  0.5003  1.5628 -0.0362
 5121TIP3    H236779   3.619   1.910  16.360 -0.9574  1.5092  0.4722
 5122TIP3   OH236780   6.001   3.109   2.316 -0.1881  0.3366  0.1024
 5122TIP3    H136781   5.969   3.052   2.386 -0.0591 -1.4837 -1.2391
 5122TIP3    H236782   6.017   3.050   2.242  2.6246  1.7206 -0.5270
 5123TIP3   OH236783   5.288   2.222  13.764  0.1067  0.7923  0.3324
 5123TIP3    H136784   5.289   2.230  13.859  1.9967  1.4991  0.2946
 5123TIP3    H236785   5.344   2.146  13.746 -0.8934  0.1583 -0.2033
 5124TIP3   OH236786   0.059   5.670  16.904 -0.3495  0.5640  0.7269
 5124TIP3    H136787  -0.018   5.668  16.961 -1.2590  0.1375 -0.4731
 5124TIP3    H236788   0.060   5.584  16.862  1.2711  0.2627  1.3248
 5125TIP3   OH236789   1.478   3.731   0.345 -0.9520  0.2862  0.0979
 5125TIP3    H136790   1.403   3.789   0.358 -0.8847  0.1679  1.0848
 5125TIP3    H236791   1.483   3.719   0.250 -2.6309 -0.2839  0.0505
 5126TIP3   OH236792   6.144   3.236   4.751 -0.2234  0.2875  0.3398
 5126TIP3    H136793   6.171   3.202   4.665  1.1419 -2.5111  1.7398
 5126TIP3    H236794   6.198   3.314   4.763 -1.3471  1.4995 -1.7959
 5127TIP3   OH236795   3.762   6.339  13.839  0.0717  0.1750  0.1454
 5127TIP3    H136796   3.811   6.260  13.861 -0.2570  0.6241  2.7463
 5127TIP3    H236797   3.740   6.328  13.746  1.2974 -2.0631  0.0484
 5128TIP3   OH236798   1.365   1.540   4.841  0.3188 -0.6787 -0.1307
 5128TIP3    H136799   1.332   1.526   4.930  0.7842 -0.0524  0.1428
 5128TIP3    H236800   1.450   1.582   4.852 -0.8480  2.1112 -0.8837
 5129TIP3   OH236801   6.278   0.204   1.416 -0.8953 -0.7479 -0.5488
 5129TIP3    H136802   6.328   0.229   1.339 -0.6751  1.5649  0.2601
 5129TIP3    H236803   6.188   0.192   1.384 -0.8668  0.4823 -1.1380
 5130TIP3   OH236804   6.529   4.950  12.838 -0.3946 -0.0117 -0.1533
 5130TIP3    H136805   6.585   4.875  12.819  0.6256  0.5693  0.4721
 5130TIP3    H236806   6.466   4.917  12.903  1.4613  0.2097  1.8812
 5131TIP3   OH236807   0.574   6.602  16.393  0.5412 -0.2280  0.0740
 5131TIP3    H136808   0.533   6.562  16.316 -0.1820 -0.5260  0.6061
 5131TIP3    H236809   0.617   6.530  16.438  0.6773 -0.1108  0.1334
 5132TIP3   OH236810   0.320   4.458  15.290 -0.0239  0.2908 -0.1265
 5132TIP3    H136811   0.390   4.468  15.354  1.1025  1.3309 -1.4622
 5132TIP3    H236812   0.291   4.547  15.272 -0.7273 -0.0337 -0.6423
 5133TIP3   OH236813   4.094   3.811   1.839  0.2658 -0.1459  0.0007
 5133TIP3    H136814   4.188   3.819   1.827  0.4029  0.1304  1.1741
 5133TIP3    H236815   4.079   3.717   1.850  0.4315 -0.1718  0.0079
 5134TIP3   OH236816   0.745   2.872   1.007  0.6590  0.3621 -0.2399
 5134TIP3    H136817   0.704   2.786   1.007  0.5645  0.3845  0.8196
 5134TIP3    H236818   0.735   2.904   0.918 -0.4346 -0.1996 -0.3390
 5135TIP3   OH236819   4.373   1.893   2.440 -0.1288  0.6267  0.4470
 5135TIP3    H136820   4.294   1.839   2.434 -0.4926  1.2708 -1.0432
 5135TIP3    H236821   4.349   1.975   2.396  1.5222  0.6267 -0.5185
 5136TIP3   OH236822   0.685   3.078   3.816  0.6369 -0.0912  0.2351
 5136TIP3    H136823   0.593   3.100   3.828  0.8798  0.7379  0.6521
 5136TIP3    H236824   0.687   3.022   3.739 -0.0680  0.8805 -0.5031
 5137TIP3   OH236825   0.086   3.713  11.604  0.1297  0.0193  0.0453
 5137TIP3    H136826   0.093   3.775  11.531 -0.1333 -0.9407 -0.8203
 5137TIP3    H236827   0.174   3.712  11.643 -0.1797  1.8379  0.8525
 5138TIP3   OH236828   6.517   6.659  12.101 -0.2867 -0.5410 -0.1589
 5138TIP3    H136829   6.541   6.709  12.179 -1.3515 -0.2163 -0.0244
 5138TIP3    H236830   6.585   6.680  12.037 -0.1083  0.2029  0.2646
 5139TIP3   OH236831   0.478   6.494  16.146 -0.1138 -0.1438 -0.7562
 5139TIP3    H136832   0.390   6.482  16.111 -0.4936 -0.2053  0.1841
 5139TIP3    H236833   0.515   6.405  16.150 -0.5603 -0.2986  0.2145
 5140TIP3   OH236834   1.290   0.112   1.834 -0.2295  0.5020  0.1320
 5140TIP3    H136835   1.260   0.108   1.743 -0.6421  0.6096  0.2592
 5140TIP3    H236836   1.305   0.021   1.859 -1.1213  0.3895  0.2814
 5141TIP3   OH236837   6.624   2.351  11.811  0.2660 -0.1563  0.6143
 5141TIP3    H136838   6.621   2.429  11.866 -0.1043  0.6271 -0.4879
 5141TIP3    H236839   6.547   2.300  11.837  0.0449  0.2434  0.7482
 5142TIP3   OH236840   1.300   0.690  12.336 -0.5510  0.1931  0.0335
 5142TIP3    H136841   1.323   0.680  12.428  1.1377  1.1343 -0.2440
 5142TIP3    H236842   1.288   0.784  12.324 -2.0894 -0.0325 -0.4397
 5143TIP3   OH236843   4.932   3.386   2.569 -0.0656 -0.4464 -0.0310
 5143TIP3    H136844   4.941   3.420   2.480  1.2162 -0.0342  0.2352
 5143TIP3    H236845   4.979   3.450   2.624  0.3423 -1.4097  0.7648
 5144TIP3   OH236846   3.722   3.092   4.416 -0.2003  0.1068 -0.7025
 5144TIP3    H136847   3.634   3.128   4.408  0.0238  0.4046 -1.9900
 5144TIP3    H236848   3.743   3.101   4.509 -1.2367  0.7142 -0.5133
 5145TIP3   OH236849   0.476   0.955   1.760  0.7284 -0.7354 -0.8768
 5145TIP3    H136850   0.422   1.030   1.735 -0.3523 -0.9792  0.5507
 5145TIP3    H236851   0.469   0.895   1.686 -0.3035 -0.4035 -1.0751
 5146TIP3   OH236852   5.714   2.847   0.388 -0.2091 -0.1509  0.2186
 5146TIP3    H136853   5.766   2.924   0.409  0.1204 -0.2249 -0.2972
 5146TIP3    H236854   5.625   2.868   0.417 -0.2272  0.6278 -0.3906
 5147TIP3   OH236855   2.236   2.051   1.545  0.5802 -0.7694 -0.1692
 5147TIP3    H136856   2.323   2.037   1.582  1.0773 -0.6231 -1.2488
 5147TIP3    H236857   2.241   2.139   1.505  0.0377 -0.8786 -0.4844
 5148TIP3   OH236858   3.013   1.925   5.757 -0.0294 -0.0862  0.0537
 5148TIP3    H136859   2.952   1.999   5.762  0.4656  0.2535  1.6585
 5148TIP3    H236860   2.993   1.873   5.835 -1.5391 -2.6401 -1.8705
 5149TIP3   OH236861   3.274   1.301   0.756 -0.3585 -0.1676 -0.6562
 5149TIP3    H136862   3.286   1.206   0.753  0.4096 -0.1460  0.8862
 5149TIP3    H236863   3.316   1.333   0.676  1.2020 -0.9681 -0.1880
 5150TIP3   OH236864   5.444   4.775   2.683 -0.3199 -0.1586 -0.6334
 5150TIP3    H136865   5.410   4.686   2.676 -1.0087 -0.3717  3.1414
 5150TIP3    H236866   5.378   4.829   2.640 -0.2581 -1.3471 -2.3380
 5151TIP3   OH236867   5.151   4.100  14.431 -0.4334  0.6426  0.3430
 5151TIP3    H136868   5.171   4.016  14.473  0.3047  1.4331  1.6523
 5151TIP3    H236869   5.088   4.141  14.489 -0.7704  1.0131 -0.2778
 5152TIP3   OH236870   3.943   0.457  12.180 -0.0398  0.4564 -0.4719
 5152TIP3    H136871   3.912   0.495  12.262  0.4763  0.7857 -0.4253
 5152TIP3    H236872   3.869   0.405  12.148 -0.3077  0.4735  0.1083
 5153TIP3   OH236873   3.485   2.147  15.557  0.5856 -0.1173 -0.2938
 5153TIP3    H136874   3.528   2.118  15.476  2.9636 -2.4280  1.6061
 5153TIP3    H236875   3.491   2.243  15.554  2.9718 -0.2205 -1.7054
 5154TIP3   OH236876   5.261   0.238  14.693 -0.2770  0.5543 -0.8662
 5154TIP3    H136877   5.171   0.215  14.717  0.4574 -1.0552  0.5062
 5154TIP3    H236878   5.261   0.240  14.597 -1.7815  0.6345 -0.8811
 5155TIP3   OH236879   3.276   0.384   2.913  0.1786 -0.6981 -0.5498
 5155TIP3    H136880   3.357   0.395   2.862  0.0098 -1.1160 -0.9220
 5155TIP3    H236881   3.207   0.420   2.857 -0.3603 -3.2732 -1.7347
 5156TIP3   OH236882   5.821   1.693   0.924 -0.1982 -0.6818  0.2846
 5156TIP3    H136883   5.855   1.690   1.013  0.3723 -0.6928  0.0704
 5156TIP3    H236884   5.822   1.602   0.895 -0.3474 -0.6736  0.2540
 5157TIP3   OH236885   2.750   2.554   3.079 -0.6906 -0.4433 -0.0071
 5157TIP3    H136886   2.733   2.558   2.985  1.6502 -2.1171 -0.5990
 5157TIP3    H236887   2.743   2.461   3.101  0.8562 -0.3523  0.9962
 5158TIP3   OH236888   5.398   1.133  14.373  0.0213  0.4948 -0.1452
 5158TIP3    H136889   5.394   1.227  14.392  0.7132  1.0189 -2.3161
 5158TIP3    H236890   5.491   1.116  14.355  0.0803 -0.8602  1.2283
 5159TIP3   OH236891   3.860   6.061  14.218 -0.0356 -0.0327 -0.1037
 5159TIP3    H136892   3.793   5.998  14.190 -0.2297 -0.6944  1.7106
 5159TIP3    H236893   3.921   6.009  14.270  0.8127  0.9458 -0.0975
 5160TIP3   OH236894   3.185   0.602   4.401  0.1127  0.4437 -0.1189
 5160TIP3    H136895   3.097   0.638   4.409 -0.1170 -0.2428  0.5222
 5160TIP3    H236896   3.173   0.513   4.369  0.5248  0.1484  0.5078
 5161TIP3   OH236897   1.779   4.452  14.358 -0.0776  0.4927  0.4180
 5161TIP3    H136898   1.803   4.486  14.272  0.9864 -0.2787  0.3838
 5161TIP3    H236899   1.804   4.522  14.419  0.0802  0.6470  0.1782
 5162TIP3   OH236900   2.812   0.809  10.886  0.5729 -0.4196  0.3681
 5162TIP3    H136901   2.846   0.740  10.829  1.5496  0.9842 -0.8248
 5162TIP3    H236902   2.881   0.823  10.951  0.0778 -1.0103  1.0442
 5163TIP3   OH236903   0.815   5.444   5.960  0.1159 -1.1463 -0.2073
 5163TIP3    H136904   0.858   5.468   5.877  0.7920 -0.0966  0.4335
 5163TIP3    H236905   0.869   5.373   5.994  2.2750  1.0500  1.2657
 5164TIP3   OH236906   4.746   4.417   1.898 -0.3058 -0.3345 -0.3201
 5164TIP3    H136907   4.695   4.489   1.861  0.9997  1.2710  0.8420
 5164TIP3    H236908   4.686   4.372   1.957 -1.1467 -0.2415 -1.0781
 5165TIP3   OH236909   5.622   4.499  13.851  0.4938 -0.3012 -0.2265
 5165TIP3    H136910   5.678   4.554  13.796  1.2530 -0.0389  0.7657
 5165TIP3    H236911   5.566   4.562  13.897 -0.2432 -0.5268 -0.8124
 5166TIP3   OH236912   3.938   0.172  14.033  0.4506 -0.0097  0.0269
 5166TIP3    H136913   3.986   0.147  14.112 -0.6078 -0.5643  0.5191
 5166TIP3    H236914   3.883   0.096  14.014  0.8903  0.0033 -1.4169
 5167TIP3   OH236915   0.332   4.034  15.805 -0.1290  0.8266 -0.2666
 5167TIP3    H136916   0.361   3.956  15.852  1.8111  2.6700  1.8326
 5167TIP3    H236917   0.378   4.031  15.722 -0.9671 -0.7900 -0.7099
 5168TIP3   OH236918   6.465   3.831   3.377  0.5345  0.3764 -0.4572
 5168TIP3    H136919   6.451   3.759   3.316 -2.0463  1.6936 -1.5604
 5168TIP3    H236920   6.513   3.896   3.326  1.2104  0.2061 -0.0486
 5169TIP3   OH236921   3.915   3.598   1.097 -0.0219 -0.7160 -0.0544
 5169TIP3    H136922   3.864   3.580   1.018  1.5684 -0.4773 -1.1993
 5169TIP3    H236923   3.937   3.511   1.131 -1.4902 -0.8218  0.6903
 5170TIP3   OH236924   6.370   3.796  13.405 -0.2135 -0.0956 -0.0892
 5170TIP3    H136925   6.318   3.851  13.464 -0.1945 -0.4077  0.2227
 5170TIP3    H236926   6.435   3.856  13.368 -1.8463  0.7302 -1.8372
 5171TIP3   OH236927   2.315   4.529  13.331 -0.1691  0.6588 -0.0611
 5171TIP3    H136928   2.336   4.436  13.337 -0.6093  0.3605 -2.3307
 5171TIP3    H236929   2.220   4.533  13.327 -0.1285  1.0942 -0.9786
 5172TIP3   OH236930   3.263   2.285   5.359 -0.1471 -0.3185  0.1382
 5172TIP3    H136931   3.236   2.349   5.293  1.4495 -0.6707 -0.9335
 5172TIP3    H236932   3.254   2.200   5.315  0.8960 -0.5601  0.3577
 5173TIP3   OH236933   6.368   4.084   2.141 -0.1301 -0.4753  0.1786
 5173TIP3    H136934   6.317   4.012   2.175  0.2824 -0.7324  0.2590
 5173TIP3    H236935   6.450   4.044   2.111  0.8438  0.1827  1.8449
 5174TIP3   OH236936   5.105   2.723  16.391  0.6255 -0.0061 -0.0609
 5174TIP3    H136937   5.187   2.766  16.368  0.8766 -0.1030  0.6243
 5174TIP3    H236938   5.039   2.767  16.337  1.3327 -1.0777 -1.8939
 5175TIP3   OH236939   0.929   0.039   5.704 -0.2324  0.5749  0.1751
 5175TIP3    H136940   0.896   0.065   5.790  1.2786 -1.4514  1.4508
 5175TIP3    H236941   1.016   0.077   5.700  0.8993 -1.7551  0.9009
 5176TIP3   OH236942   1.568   0.473   5.394 -0.8318  0.2344 -0.1132
 5176TIP3    H136943   1.616   0.392   5.411 -2.5841 -1.2156 -1.6314
 5176TIP3    H236944   1.618   0.541   5.439  2.2912 -1.2314 -1.1230
 5177TIP3   OH236945   0.995   2.487   2.224 -0.2377 -0.2649 -0.0080
 5177TIP3    H136946   1.050   2.454   2.295 -1.4447 -0.7049  0.7705
 5177TIP3    H236947   0.917   2.520   2.268  0.1697  2.0808 -0.9288
 5178TIP3   OH236948   4.262   0.766   2.372  0.5764 -0.0162  0.3613
 5178TIP3    H136949   4.334   0.739   2.316  1.2854  0.6526  0.9304
 5178TIP3    H236950   4.200   0.693   2.368  1.4105 -0.7282  0.0995
 5179TIP3   OH236951   6.023   2.261   2.902 -0.4090  0.3442  0.5959
 5179TIP3    H136952   5.937   2.221   2.915  0.0843 -1.4814 -1.1362
 5179TIP3    H236953   6.085   2.189   2.919  0.5596  0.5235 -1.8004
 5180TIP3   OH236954   1.997   4.241   0.216 -0.0466  0.1328  0.5923
 5180TIP3    H136955   1.972   4.149   0.218  0.5986 -0.1587 -1.7161
 5180TIP3    H236956   2.088   4.240   0.185 -0.1568  1.5427  0.1534
 5181TIP3   OH236957   2.585   3.985   1.731  0.2984  0.3154  0.2151
 5181TIP3    H136958   2.581   3.899   1.690 -0.2936  0.3048  0.2842
 5181TIP3    H236959   2.678   4.001   1.744  0.5143  0.3990 -1.2750
 5182TIP3   OH236960   1.505   5.168  12.956  0.1577 -0.3059 -0.3164
 5182TIP3    H136961   1.523   5.170  13.050 -2.3663  2.2523  0.2550
 5182TIP3    H236962   1.585   5.202  12.915  1.2274 -1.3200  0.8706
 5183TIP3   OH236963   6.087   0.998  11.822  0.3819 -0.3681 -0.6961
 5183TIP3    H136964   6.109   1.081  11.864  0.5994 -0.8390  0.1589
 5183TIP3    H236965   5.999   1.010  11.788  0.0741 -0.0651  0.1897
 5184TIP3   OH236966   4.578   6.625   1.098  0.4748  0.0825 -0.5653
 5184TIP3    H136967   4.592   6.593   1.009 -0.8008 -0.7242 -0.5113
 5184TIP3    H236968   4.559   6.718   1.088 -1.4920 -0.3621 -1.3553
 5185TIP3   OH236969   5.486   4.563  15.662 -0.0146  0.0586  0.3597
 5185TIP3    H136970   5.419   4.504  15.627  1.4418 -1.1838 -0.4689
 5185TIP3    H236971   5.484   4.639  15.604  0.3923 -0.7155 -0.7236
 5186TIP3   OH236972   2.517   4.863  16.526  0.5808 -0.1318  0.2146
 5186TIP3    H136973   2.610   4.855  16.504  0.8081 -0.4750  1.2306
 5186TIP3    H236974   2.483   4.930  16.466  0.8389 -1.9125 -2.0747
 5187TIP3   OH236975   2.751   0.015   5.255  0.1383  0.2577 -0.3684
 5187TIP3    H136976   2.763  -0.067   5.207 -1.2012  0.4318 -1.0344
 5187TIP3    H236977   2.711  -0.011   5.338  2.3055 -0.0259  0.6686
 5188TIP3   OH236978   2.889   1.952  15.169 -0.0558 -0.1071 -0.2500
 5188TIP3    H136979   2.893   1.950  15.265 -0.7433  0.8393 -0.1826
 5188TIP3    H236980   2.882   1.860  15.143  0.5166 -0.3963  0.5822
 5189TIP3   OH236981   1.708   1.269  16.114 -0.8495  0.2333 -0.2846
 5189TIP3    H136982   1.658   1.292  16.192 -2.1594  2.2565 -1.6371
 5189TIP3    H236983   1.699   1.344  16.056  1.2921 -0.6049 -1.8383
 5190TIP3   OH236984   3.899   1.350   0.073  0.2072 -0.0601  0.1692
 5190TIP3    H136985   3.828   1.399   0.033 -1.0189 -1.4141  0.6015
 5190TIP3    H236986   3.935   1.297   0.002  0.0983 -0.1452  0.1772
 5191TIP3   OH236987   0.414   0.519   6.023  0.2757 -0.3123  0.8182
 5191TIP3    H136988   0.399   0.512   5.929 -0.5822 -0.1121  0.9358
 5191TIP3    H236989   0.351   0.458   6.062 -1.3855  1.6753  1.3965
 5192TIP3   OH236990   2.567   5.001   2.099 -0.6524 -0.0347 -0.1470
 5192TIP3    H136991   2.599   5.031   2.014  1.2072  1.1523  0.8896
 5192TIP3    H236992   2.590   4.908   2.102 -0.8751 -0.1259 -0.9938
 5193TIP3   OH236993   1.573   0.852  15.355  0.1282 -0.2040  0.6169
 5193TIP3    H136994   1.599   0.886  15.441  0.2810  0.2696  0.3876
 5193TIP3    H236995   1.592   0.923  15.294  1.1596 -0.9694  0.0157
 5194TIP3   OH236996   5.237   6.382   2.358  0.7387 -0.0962  0.2502
 5194TIP3    H136997   5.150   6.411   2.386 -0.4190 -2.8003 -0.1939
 5194TIP3    H236998   5.232   6.376   2.263  1.3034 -0.5703  0.2407
 5195TIP3   OH236999   6.440   5.353   2.839 -0.1417 -0.1189 -0.5840
 5195TIP3    H137000   6.452   5.261   2.816 -1.1541 -0.7463  1.2309
 5195TIP3    H237001   6.490   5.401   2.773  1.9280 -2.0262 -0.5029
 5196TIP3   OH237002   2.047   5.104   3.342  0.8130  0.4127  0.0494
 5196TIP3    H137003   2.110   5.038   3.370 -0.5143 -0.6752  0.6004
 5196TIP3    H237004   2.035   5.089   3.249  0.2838 -0.3703  0.2313
 5197TIP3   OH237005   0.449   3.966  14.267  0.3763 -0.3898 -0.0390
 5197TIP3    H137006   0.389   3.986  14.195 -0.9181 -2.0704  0.5030
 5197TIP3    H237007   0.536   3.983  14.231 -0.3280  0.3966 -1.4454
 5198TIP3   OH237008   0.292   2.960  16.754 -0.5840 -0.5431 -0.0126
 5198TIP3    H137009   0.347   2.887  16.782  1.0898  0.1840 -1.2200
 5198TIP3    H237010   0.229   2.921  16.693  1.1864 -0.8365 -1.7618
 5199TIP3   OH237011   4.785   1.734   1.626 -0.1864  0.0063 -0.3459
 5199TIP3    H137012   4.877   1.717   1.610 -0.2357  0.0401 -0.6744
 5199TIP3    H237013   4.744   1.648   1.625 -0.5222  0.1347 -2.5592
 5200TIP3   OH237014   4.786   3.194  11.326 -0.3986 -0.0488 -0.3631
 5200TIP3    H137015   4.816   3.107  11.301 -2.6989 -1.3913  1.1560
 5200TIP3    H237016   4.692   3.193  11.308 -0.6164  1.8523  0.3957
 5201TIP3   OH237017   2.704   6.593  17.248 -0.2987 -0.0331 -0.2400
 5201TIP3    H137018   2.609   6.585  17.258 -0.3448  0.7219  0.0169
 5201TIP3    H237019   2.739   6.567  17.333 -0.2936 -0.0233 -0.2390
 5202TIP3   OH237020   2.519   1.573   1.330 -0.3636  0.2464 -0.9842
 5202TIP3    H137021   2.504   1.479   1.320 -1.4144  0.3017 -0.1571
 5202TIP3    H237022   2.519   1.607   1.241 -1.5848 -0.3258 -1.2269
 5203TIP3   OH237023   4.323   5.954  14.144 -0.1836 -0.0128  0.2066
 5203TIP3    H137024   4.325   6.047  14.165 -1.5078  0.3441 -1.1448
 5203TIP3    H237025   4.278   5.914  14.218 -0.8244  0.6105  0.1622
 5204TIP3   OH237026   5.871   5.412   4.776  0.2898  0.5202 -0.7586
 5204TIP3    H137027   5.910   5.396   4.691 -1.8542  0.1800 -1.7414
 5204TIP3    H237028   5.907   5.343   4.832  3.0839  1.7796 -0.8312
 5205TIP3   OH237029   6.591   3.471   6.145 -0.4578  0.5944  0.8489
 5205TIP3    H137030   6.677   3.437   6.120 -0.8372  1.1236 -1.3250
 5205TIP3    H237031   6.549   3.398   6.192  0.0499 -0.7529 -0.7072
 5206TIP3   OH237032   5.813   1.815   0.314  0.3949 -0.3769 -0.0401
 5206TIP3    H137033   5.902   1.848   0.329  0.0118  0.1664  1.1367
 5206TIP3    H237034   5.764   1.892   0.287  0.4646 -0.8506 -1.6419
 5207TIP3   OH237035   6.730   2.463  11.226 -0.0498  0.0354  0.0303
 5207TIP3    H137036   6.715   2.389  11.167 -0.6465 -0.2442  0.5201
 5207TIP3    H237037   6.673   2.446  11.301  0.5108  0.5129  0.5760
 5208TIP3   OH237038   4.414   1.840   5.532 -0.2932  0.2769  0.1734
 5208TIP3    H137039   4.351   1.908   5.509  2.2963  2.6031 -0.5635
 5208TIP3    H237040   4.409   1.777   5.461 -0.0052  1.7674 -1.2072
 5209TIP3   OH237041   6.103   5.009  15.551 -0.1406  0.1319 -0.5305
 5209TIP3    H137042   6.126   5.100  15.537 -0.2120  0.0318 -1.3289
 5209TIP3    H237043   6.030   5.011  15.613  0.9814  0.5197  0.8565
 5210TIP3   OH237044   1.430   5.687  14.193  0.1770  0.4159  0.1481
 5210TIP3    H137045   1.374   5.651  14.262  0.9822 -0.7174  0.2313
 5210TIP3    H237046   1.493   5.617  14.174  1.0370  1.3508 -0.5342
 5211TIP3   OH237047   2.061   6.706  16.927 -0.0958 -0.2039  0.0568
 5211TIP3    H137048   2.155   6.688  16.937 -0.2844 -1.3878 -0.1669
 5211TIP3    H237049   2.051   6.725  16.833 -0.1738 -0.6675 -0.0278
 5212TIP3   OH237050   0.599   2.694  10.694 -0.0998  0.0888  0.7852
 5212TIP3    H137051   0.657   2.634  10.646 -1.5670 -0.8618  0.1177
 5212TIP3    H237052   0.564   2.640  10.766  0.5284  0.9218  1.7421
 5213TIP3   OH237053   2.519   2.934   1.114 -0.0673  0.4593  0.0468
 5213TIP3    H137054   2.545   2.984   1.037  0.5448  0.9325  0.5585
 5213TIP3    H237055   2.451   2.875   1.081 -1.0410  1.8258 -0.4968
 5214TIP3   OH237056   4.641   4.261  13.112  0.8444 -0.1258  0.6539
 5214TIP3    H137057   4.565   4.307  13.077  1.0940 -0.2274 -0.0376
 5214TIP3    H237058   4.611   4.224  13.195  0.7618  1.6323  1.4477
 5215TIP3   OH237059   4.303   2.549  16.808  0.1162 -0.5409  0.0071
 5215TIP3    H137060   4.229   2.611  16.813 -0.0484 -0.3343 -3.1220
 5215TIP3    H237061   4.360   2.575  16.880 -1.4129  1.2838  0.6553
 5216TIP3   OH237062   0.446   0.515   3.323  0.1581  0.0421 -0.2744
 5216TIP3    H137063   0.420   0.607   3.325 -0.5353 -0.1533 -0.0759
 5216TIP3    H237064   0.424   0.481   3.409  2.9450  0.3432  0.6438
 5217TIP3   OH237065   3.535   1.351  16.069  0.0182 -0.6482  0.1609
 5217TIP3    H137066   3.540   1.386  15.980 -0.3462 -0.5499  0.1750
 5217TIP3    H237067   3.446   1.372  16.098 -0.5658 -2.4498 -0.1959
 5218TIP3   OH237068   4.008   1.322  13.213  0.3892  0.0746  0.1508
 5218TIP3    H137069   4.026   1.395  13.154 -0.5566  0.0365 -0.2030
 5218TIP3    H237070   3.920   1.341  13.247  0.3464 -0.6387  0.4442
 5219TIP3   OH237071   3.512   1.287  12.037  0.0571 -0.2180  0.4136
 5219TIP3    H137072   3.495   1.281  11.943  0.8142  1.1045  0.1707
 5219TIP3    H237073   3.534   1.198  12.063 -0.5550 -0.6743 -0.5785
 5220TIP3   OH237074   4.721   1.892  13.707 -0.4994  0.5414  0.3655
 5220TIP3    H137075   4.652   1.926  13.764 -0.0625  3.1455 -0.4939
 5220TIP3    H237076   4.797   1.948  13.726  0.5578 -0.5195 -0.5990
 5221TIP3   OH237077   1.762   6.546   3.262 -0.8578 -0.2718 -0.5672
 5221TIP3    H137078   1.839   6.602   3.275 -0.1994 -1.3508  0.3674
 5221TIP3    H237079   1.733   6.565   3.173  2.3734 -2.0700 -2.1581
 5222TIP3   OH237080   6.077   5.521   4.933 -0.1159  0.3518  0.0706
 5222TIP3    H137081   6.008   5.558   4.879 -2.1677 -2.2543  0.6847
 5222TIP3    H237082   6.065   5.426   4.927  1.4757 -0.1338  2.6509
 5223TIP3   OH237083   4.897   4.221   2.775  0.2475  0.8485 -0.2624
 5223TIP3    H137084   4.921   4.128   2.778  0.9111  1.0066 -0.4962
 5223TIP3    H237085   4.851   4.231   2.692 -0.2001  0.6477 -0.0438
 5224TIP3   OH237086   2.374   3.298  14.020 -0.3090 -0.5153  0.0248
 5224TIP3    H137087   2.303   3.320  14.080 -0.8838 -0.0249 -0.8232
 5224TIP3    H237088   2.454   3.314  14.071 -0.7575  1.0109  0.2952
 5225TIP3   OH237089   3.780   4.912  11.434 -0.2686 -0.0884  0.7898
 5225TIP3    H137090   3.769   4.884  11.343 -1.1223  0.5172  0.6993
 5225TIP3    H237091   3.790   5.007  11.430 -2.5146  0.2294  1.4704
 5226TIP3   OH237092   1.252   0.091   1.236  0.0129  0.3939  0.2439
 5226TIP3    H137093   1.178   0.064   1.181  1.8141  2.3278 -3.5421
 5226TIP3    H237094   1.324   0.034   1.209  0.7962  0.9248  1.1480
 5227TIP3   OH237095   0.441   4.341   4.709 -0.2174  0.0500 -0.2591
 5227TIP3    H137096   0.505   4.301   4.650 -0.4088 -2.2007  0.9562
 5227TIP3    H237097   0.373   4.375   4.651  0.9841  0.5302 -1.4457
 5228TIP3   OH237098   2.352   2.005  14.717  0.2356  0.5155 -0.4058
 5228TIP3    H137099   2.394   2.062  14.781  2.1403  0.5620 -1.5956
 5228TIP3    H237100   2.298   2.064  14.664  0.2918  0.8208 -0.1230
 5229TIP3   OH237101   6.701   5.065   6.042 -0.2051  0.2816 -0.5548
 5229TIP3    H137102   6.661   5.090   5.958 -0.7171  3.1799  0.4455
 5229TIP3    H237103   6.718   5.148   6.086  1.0119 -1.1251  1.8161
 5230TIP3   OH237104   6.568   2.413  14.076 -0.0879 -0.1547  0.2065
 5230TIP3    H137105   6.646   2.459  14.046  1.5647 -2.0707  1.2853
 5230TIP3    H237106   6.596   2.322  14.083 -1.3513 -0.4278  3.9455
 5231TIP3   OH237107   3.873   5.915  11.145  0.8105  0.0371  0.4568
 5231TIP3    H137108   3.876   5.985  11.079  0.1723  1.0172  1.4391
 5231TIP3    H237109   3.959   5.874  11.140  1.6001  1.5924  0.5739
 5232TIP3   OH237110   5.514   0.751   0.268 -0.2308 -0.5830  0.0845
 5232TIP3    H137111   5.507   0.833   0.218 -0.3976 -1.0635 -0.6910
 5232TIP3    H237112   5.583   0.702   0.225 -0.4808 -1.0714  0.2371
 5233TIP3   OH237113   4.929   0.314   1.005  0.4722  0.3006 -0.1759
 5233TIP3    H137114   4.945   0.228   1.042 -0.5179  0.0668 -0.2700
 5233TIP3    H237115   4.900   0.367   1.080 -1.3377 -0.1206 -0.5315
 5234TIP3   OH237116   4.033   3.285   3.032  0.4916 -0.1293  0.0356
 5234TIP3    H137117   4.055   3.282   3.125 -1.5415 -0.8686  0.5340
 5234TIP3    H237118   4.092   3.221   2.992 -2.6276 -4.6941  1.8314
 5235TIP3   OH237119   2.917   6.219  10.591 -0.2823  0.3344  0.3191
 5235TIP3    H137120   2.972   6.190  10.664 -0.5393  0.4856  0.5738
 5235TIP3    H237121   2.959   6.300  10.561  0.4789 -0.3188 -0.4418
 5236TIP3   OH237122   4.645   3.960   5.807 -0.4119  1.3413 -0.0705
 5236TIP3    H137123   4.660   3.882   5.860  2.7509  0.1397 -2.4079
 5236TIP3    H237124   4.593   3.930   5.733  2.4304  0.7812 -2.0044
 5237TIP3   OH237125   1.333   2.298  16.484  0.4748  0.0341  0.0913
 5237TIP3    H137126   1.416   2.333  16.515  1.2974 -1.0973 -0.7254
 5237TIP3    H237127   1.279   2.290  16.562  1.9432 -1.2981  1.0261
 5238TIP3   OH237128   2.167   3.872   0.129 -0.1364 -0.4518 -0.0834
 5238TIP3    H137129   2.083   3.872   0.175 -0.9111 -0.6074 -1.4374
 5238TIP3    H237130   2.176   3.960   0.093  0.9015 -0.0519  1.0907
 5239TIP3   OH237131   4.576   4.256   5.916  0.0301  0.0233  0.1666
 5239TIP3    H137132   4.606   4.186   5.859  0.0977  0.5545 -0.4666
 5239TIP3    H237133   4.520   4.310   5.861  0.0568  0.5198  0.6144
 5240TIP3   OH237134   5.444   1.249  12.976  0.2059  0.4840 -0.5442
 5240TIP3    H137135   5.488   1.170  12.947 -0.1339 -0.0287  0.3075
 5240TIP3    H237136   5.415   1.229  13.065 -0.6242  1.2602 -0.6286
 5241TIP3   OH237137   4.100   3.965   3.390  0.2084  0.1922 -0.6419
 5241TIP3    H137138   4.107   3.899   3.322 -0.0334  0.8488 -1.3209
 5241TIP3    H237139   4.153   3.931   3.463  1.0223 -0.2091 -1.4025
 5242TIP3   OH237140   1.874   6.490  13.926 -0.2806 -0.2786 -0.4648
 5242TIP3    H137141   1.945   6.484  13.991 -0.2762  1.0845 -0.3251
 5242TIP3    H237142   1.916   6.527  13.848 -0.7908  0.3248 -0.4554
 5243TIP3   OH237143   4.902   6.193  15.775  0.0257  0.4035  0.4703
 5243TIP3    H137144   4.809   6.171  15.779  0.6913 -2.8914  0.5673
 5243TIP3    H237145   4.913   6.234  15.688 -1.6139  1.8580  0.8859
 5244TIP3   OH237146   0.610   4.106  16.906  0.4337 -0.4984  0.4919
 5244TIP3    H137147   0.611   4.145  16.993  0.6052  0.1698  0.2030
 5244TIP3    H237148   0.674   4.158  16.856  0.5055 -1.0186  0.0346
 5245TIP3   OH237149   0.512   1.118  16.777  0.3796 -0.4856 -0.0671
 5245TIP3    H137150   0.581   1.185  16.778 -0.5595  0.5043  0.4572
 5245TIP3    H237151   0.532   1.062  16.852  0.7498 -0.3407 -0.0559
 5246TIP3   OH237152   1.805   2.531   3.530  0.0471  0.2431  0.3994
 5246TIP3    H137153   1.758   2.487   3.601  0.1056 -0.7847 -0.1653
 5246TIP3    H237154   1.780   2.482   3.451 -1.9333  2.8257 -0.7139
 5247TIP3   OH237155   0.978   1.146  17.114  0.3091 -0.7671  0.0035
 5247TIP3    H137156   0.952   1.117  17.201  1.5694 -0.7718  0.3966
 5247TIP3    H237157   0.907   1.203  17.085 -0.0123 -0.5772  1.1380
 5248TIP3   OH237158   6.105   0.876  11.554 -0.3733 -0.0816  0.0450
 5248TIP3    H137159   6.138   0.895  11.642  0.3926  1.4333 -0.5301
 5248TIP3    H237160   6.167   0.813  11.517  0.6447  1.0405 -0.2198
 5249TIP3   OH237161   1.782   0.064   2.486  0.0987 -0.6574  0.3749
 5249TIP3    H137162   1.704   0.116   2.466 -1.3127 -1.4719  3.1940
 5249TIP3    H237163   1.765  -0.021   2.445  0.0968 -0.4224 -0.1071
 5250TIP3   OH237164   5.219   3.207   2.456  0.3052  0.0994 -0.2310
 5250TIP3    H137165   5.132   3.245   2.473  0.2627  0.0153 -0.2592
 5250TIP3    H237166   5.272   3.234   2.531  0.7726  1.7350 -1.1111
 5251TIP3   OH237167   0.792   0.839   1.396  0.7074  0.2397  0.2209
 5251TIP3    H137168   0.795   0.832   1.301  1.1291 -0.6901  0.2916
 5251TIP3    H237169   0.778   0.932   1.413 -0.2421  0.2892 -0.7547
 5252TIP3   OH237170   0.262   0.440  11.278 -0.6482 -0.0832  0.2336
 5252TIP3    H137171   0.270   0.425  11.372 -0.0306 -1.5939 -0.0314
 5252TIP3    H237172   0.171   0.469  11.267 -1.1608 -1.2408  1.1475
 5253TIP3   OH237173   1.395   0.317  13.981  0.1612 -0.1070 -0.1431
 5253TIP3    H137174   1.484   0.296  13.952  0.1163  0.8259 -1.0038
 5253TIP3    H237175   1.406   0.346  14.072  1.0119  1.7562 -0.7851
 5254TIP3   OH237176   5.370   0.798   3.409 -0.0365 -0.4180  0.3602
 5254TIP3    H137177   5.341   0.720   3.458 -0.6761  0.2602  1.0862
 5254TIP3    H237178   5.387   0.863   3.477 -0.2668  0.3215 -0.2909
 5255TIP3   OH237179   2.447   0.815   3.249 -0.1406 -0.6025 -0.1823
 5255TIP3    H137180   2.389   0.870   3.303  1.8026  1.2139  0.2262
 5255TIP3    H237181   2.438   0.850   3.161  1.0096  0.3866  0.0577
 5256TIP3   OH237182   0.314   1.148   1.490  0.5054 -0.7796 -0.7934
 5256TIP3    H137183   0.355   1.234   1.477  0.7276 -0.9298 -1.0981
 5256TIP3    H237184   0.220   1.166   1.487  0.5453 -0.6887 -1.8516
 5257TIP3   OH237185   1.042   4.441  15.110  0.3029  0.2408 -0.0970
 5257TIP3    H137186   1.050   4.345  15.105  0.3250  0.0829  1.9409
 5257TIP3    H237187   1.091   4.473  15.035 -1.8440 -1.3646 -2.3243
 5258TIP3   OH237188   2.396   3.545   0.727 -0.4588  0.1787  0.2985
 5258TIP3    H137189   2.307   3.556   0.760 -0.2741 -0.4206  1.0450
 5258TIP3    H237190   2.408   3.450   0.722 -0.0479  0.2614 -0.3217
 5259TIP3   OH237191   4.882   6.440  14.122  0.4201  0.2095  0.2646
 5259TIP3    H137192   4.812   6.382  14.153 -0.9657  1.9474  0.5149
 5259TIP3    H237193   4.923   6.473  14.202 -0.6354  1.7037  0.2263
 5260TIP3   OH237194   1.845   3.478  11.397 -0.4509 -0.4345 -0.0990
 5260TIP3    H137195   1.840   3.397  11.347  0.9178 -0.4088 -0.3067
 5260TIP3    H237196   1.859   3.546  11.331  0.8206 -0.3349  0.2475
 5261TIP3   OH237197   1.214   3.846  15.689  0.4939  0.3718 -0.0637
 5261TIP3    H137198   1.307   3.850  15.707  0.6591 -0.3953 -0.6347
 5261TIP3    H237199   1.207   3.786  15.614 -0.6338 -1.4854  1.4272
 5262TIP3   OH237200   6.623   2.804   4.318 -0.4646  0.4317  0.2851
 5262TIP3    H137201   6.640   2.896   4.298  0.9395  0.0375 -0.4697
 5262TIP3    H237202   6.709   2.769   4.342 -1.0111 -0.6449  0.7090
 5263TIP3   OH237203   4.981   5.501  13.198 -0.5004 -0.0007  0.3165
 5263TIP3    H137204   4.950   5.587  13.225  1.1152  0.5935  0.4074
 5263TIP3    H237205   5.030   5.468  13.273 -0.4903 -0.6845  0.0189
 5264TIP3   OH237206   3.029   2.232  14.328  0.4268 -0.3317  0.3931
 5264TIP3    H137207   3.012   2.195  14.242  0.8201 -1.5598  0.8080
 5264TIP3    H237208   2.952   2.284  14.348  0.0803 -0.5038 -0.4589
 5265TIP3   OH237209   2.967   6.376   2.007  0.0575 -0.1411  0.5917
 5265TIP3    H137210   2.970   6.396   2.100 -0.6288 -1.9033  1.0153
 5265TIP3    H237211   2.886   6.416   1.976  0.2275  0.3447  0.7572
 5266TIP3   OH237212   1.583   1.901  13.925 -0.2658  0.2664  0.0491
 5266TIP3    H137213   1.659   1.939  13.880  2.2661 -0.0707  3.5237
 5266TIP3    H237214   1.584   1.808  13.900  2.6569 -0.4872  2.3705
 5267TIP3   OH237215   0.693   2.173   6.293 -0.1107  0.5670  0.2033
 5267TIP3    H137216   0.620   2.233   6.309 -2.6373 -2.0297 -0.5333
 5267TIP3    H237217   0.771   2.228   6.293 -2.1368  3.6801  0.2426
 5268TIP3   OH237218   2.202   6.135   0.262  0.0495  0.3973 -0.0019
 5268TIP3    H137219   2.251   6.068   0.215 -0.5918  1.3651 -2.1834
 5268TIP3    H237220   2.263   6.208   0.270 -0.7538  1.4144 -2.2738
 5269TIP3   OH237221   4.252   1.908   6.266  0.2519  0.6045 -0.3432
 5269TIP3    H137222   4.213   1.885   6.350  0.0044  0.3886 -0.5146
 5269TIP3    H237223   4.282   1.998   6.277 -0.5982  0.8900 -0.3176
 5270TIP3   OH237224   5.357   1.239  16.851  0.1768 -0.2243 -0.1478
 5270TIP3    H137225   5.442   1.283  16.854  1.1242 -1.7656 -2.1627
 5270TIP3    H237226   5.363   1.170  16.916  0.4837 -0.3468 -0.3045
 5271TIP3   OH237227   6.027   6.636   1.692  0.0916  0.0399  0.2051
 5271TIP3    H137228   5.957   6.701   1.682 -0.0338 -0.1189  0.0361
 5271TIP3    H237229   6.002   6.565   1.632  1.3286  0.7724 -1.2455
 5272TIP3   OH237230   2.294   5.969  17.458 -0.3700 -0.0811 -0.0467
 5272TIP3    H137231   2.336   5.883  17.455 -1.1293 -0.4406 -2.2231
 5272TIP3    H237232   2.367   6.031  17.460  0.1883 -0.7467  1.5609
 5273TIP3   OH237233   0.648   5.344  15.674 -0.0885  0.2244  0.1903
 5273TIP3    H137234   0.671   5.413  15.736  2.8300  0.1007 -0.6141
 5273TIP3    H237235   0.630   5.390  15.592 -1.3124  0.1920  0.4134
 5274TIP3   OH237236   5.066   4.666   3.786  0.1886 -0.6669  0.5103
 5274TIP3    H137237   5.060   4.754   3.823 -0.5430 -0.6847  0.4558
 5274TIP3    H237238   5.035   4.676   3.696 -0.4017 -1.0647  0.6594
 5275TIP3   OH237239   1.919   6.055  12.958  0.3753  0.0873 -0.7136
 5275TIP3    H137240   1.830   6.072  12.987  1.7938  0.7966  4.1051
 5275TIP3    H237241   1.925   5.959  12.952 -0.5003  0.0067 -0.4042
 5276TIP3   OH237242   1.628   4.994  17.479 -0.0829  0.1127 -0.3690
 5276TIP3    H137243   1.681   4.979  17.558  0.3133  1.6710 -0.3059
 5276TIP3    H237244   1.686   4.970  17.407  0.0481  0.0219 -0.2343
 5277TIP3   OH237245   6.455   2.371   2.183 -0.1259  0.0212  0.2064
 5277TIP3    H137246   6.509   2.310   2.233 -0.5636  0.2657  1.0064
 5277TIP3    H237247   6.487   2.458   2.209 -0.5706  0.1552  0.3232
 5278TIP3   OH237248   0.475   4.576  15.839 -0.0007  0.2807  0.2888
 5278TIP3    H137249   0.393   4.606  15.799  0.4917  0.5522 -0.5509
 5278TIP3    H237250   0.476   4.619  15.925 -0.4723  0.7274  0.0811
 5279TIP3   OH237251   3.932   0.365  16.082 -0.0641 -0.0635 -0.3454
 5279TIP3    H137252   3.956   0.280  16.044 -2.1302 -0.3548 -1.1210
 5279TIP3    H237253   3.919   0.347  16.175 -1.5013 -0.8671 -0.6751
 5280TIP3   OH237254   4.006   5.804  14.932 -0.2046  0.6235 -0.0266
 5280TIP3    H137255   4.099   5.819  14.952 -0.0653 -0.1302 -0.0807
 5280TIP3    H237256   3.994   5.838  14.844  0.2226 -0.0551 -0.3466
 5281TIP3   OH237257   4.425   5.574  11.794 -0.0685 -0.1183  0.3599
 5281TIP3    H137258   4.500   5.573  11.734 -0.1042 -0.2624  0.3162
 5281TIP3    H237259   4.364   5.635  11.753 -1.1668 -2.0676 -1.0961
 5282TIP3   OH237260   5.042   0.765   5.396  0.0895  0.6380  0.3836
 5282TIP3    H137261   4.986   0.776   5.319 -0.4206  0.0742  0.6592
 5282TIP3    H237262   5.029   0.845   5.447  0.0419  0.7950  0.1267
 5283TIP3   OH237263   2.128   4.684   0.520 -0.5086  0.2558 -0.2637
 5283TIP3    H137264   2.066   4.642   0.580 -0.9740  2.2248  0.7299
 5283TIP3    H237265   2.084   4.681   0.435 -1.4550  0.5486  0.1958
 5284TIP3   OH237266   3.823   2.869  16.261  0.2747  0.4580 -0.7097
 5284TIP3    H137267   3.876   2.917  16.197 -1.3963  0.8418 -1.8800
 5284TIP3    H237268   3.823   2.925  16.338  1.8300  0.2766 -0.5363
 5285TIP3   OH237269   0.991   0.264  12.300  0.5534 -0.3914  0.0667
 5285TIP3    H137270   1.005   0.344  12.250 -0.5659 -0.5206 -0.4960
 5285TIP3    H237271   1.078   0.234  12.324  1.1801 -0.7057 -2.4200
 5286TIP3   OH237272   2.581   4.887   3.034  0.2116  0.2668 -0.1660
 5286TIP3    H137273   2.503   4.922   2.990  1.2547  1.8021 -0.8909
 5286TIP3    H237274   2.615   4.821   2.973  0.2460  0.5967 -0.5113
 5287TIP3   OH237275   3.693   6.577  14.657 -0.3402  0.3916 -0.2585
 5287TIP3    H137276   3.721   6.613  14.742  0.3927  1.5086 -0.9466
 5287TIP3    H237277   3.647   6.496  14.680  0.5001  0.2679  1.1532
 5288TIP3   OH237278   5.895   2.915  16.367  0.2467 -0.5919  0.3647
 5288TIP3    H137279   5.896   3.000  16.412 -1.2685 -1.2643  1.7838
 5288TIP3    H237280   5.951   2.859  16.420 -0.8724 -1.1617  0.9834
 5289TIP3   OH237281   2.646   6.127  10.716  0.1581  0.0857  0.5872
 5289TIP3    H137282   2.679   6.212  10.745  0.6017 -0.1736  0.8413
 5289TIP3    H237283   2.719   6.089  10.667 -0.2379  0.0924 -0.0163
 5290TIP3   OH237284   1.369   2.512  16.895 -0.1936 -1.2239  0.3925
 5290TIP3    H137285   1.328   2.592  16.863 -0.1915 -1.2349  0.3626
 5290TIP3    H237286   1.457   2.514  16.860  0.0795 -0.8208  1.0821
 5291TIP3   OH237287   1.976   3.704  17.034  0.4565 -0.3247 -0.8368
 5291TIP3    H137288   2.013   3.741  16.953 -0.6513  1.7837 -0.4579
 5291TIP3    H237289   2.036   3.732  17.103  0.0523  0.0956 -0.6475
 5292TIP3   OH237290   4.917   5.023  17.059  0.4666  0.5671 -0.3013
 5292TIP3    H137291   4.829   5.041  17.028  0.3849 -0.7885 -0.9166
 5292TIP3    H237292   4.974   5.042  16.984  0.5079 -0.3019 -0.5016
 5293TIP3   OH237293   1.381   1.761   1.874  0.0029  0.1751  0.3797
 5293TIP3    H137294   1.447   1.787   1.810  0.0306  0.4088  0.5029
 5293TIP3    H237295   1.311   1.826   1.864 -0.4149 -0.3344 -0.0677
 5294TIP3   OH237296   2.335   0.848  13.065  0.1295  0.2557 -0.2661
 5294TIP3    H137297   2.401   0.915  13.051  0.5217  0.0452  0.5009
 5294TIP3    H237298   2.256   0.896  13.089  0.2630  0.4720 -0.2654
 5295TIP3   OH237299   3.774   0.196   4.502  0.6647 -0.0629 -0.0092
 5295TIP3    H137300   3.822   0.191   4.585  0.9630 -2.0791 -0.2542
 5295TIP3    H237301   3.763   0.105   4.475  0.6069  0.5449 -2.2299
 5296TIP3   OH237302   0.968   2.467  13.581 -0.2090 -0.2848 -0.1809
 5296TIP3    H137303   1.040   2.444  13.640 -1.3220  0.2887  1.4614
 5296TIP3    H237304   1.004   2.453  13.493  1.8231 -0.2074  0.5860
 5297TIP3   OH237305   4.435   5.584   1.690 -0.0069  0.1445 -0.1655
 5297TIP3    H137306   4.383   5.575   1.770 -0.2033  1.1643 -0.1642
 5297TIP3    H237307   4.370   5.596   1.621  0.2094  1.1794 -0.1985
 5298TIP3   OH237308   4.920   2.459  11.232 -0.2505  0.2271 -0.0706
 5298TIP3    H137309   4.985   2.466  11.163 -0.4664 -0.7677 -0.3940
 5298TIP3    H237310   4.929   2.369  11.264 -0.6370  0.4602  0.7087
 5299TIP3   OH237311   4.808   0.577   3.551 -0.3892 -0.1844  0.2387
 5299TIP3    H137312   4.736   0.553   3.609 -0.9411 -1.0746 -0.7832
 5299TIP3    H237313   4.765   0.609   3.472  0.3104 -1.5840 -0.7318
 5300TIP3   OH237314   4.437   3.145  17.238 -0.1594  0.3297  0.7058
 5300TIP3    H137315   4.457   3.162  17.146 -0.7128 -0.0149  0.5163
 5300TIP3    H237316   4.384   3.219  17.266  0.0922  0.4841  0.7780
 5301TIP3   OH237317   5.011   0.689  12.530 -0.0996 -0.0369 -0.1676
 5301TIP3    H137318   5.022   0.749  12.456  1.3007 -1.9134 -1.5933
 5301TIP3    H237319   4.920   0.659  12.522 -0.0336 -0.0459 -1.0050
 5302TIP3   OH237320   4.814   2.970  14.820  0.1688 -0.0518 -0.0814
 5302TIP3    H137321   4.771   3.044  14.861 -1.4756 -1.6996  1.3501
 5302TIP3    H237322   4.751   2.938  14.755  2.1313  1.6089 -3.0493
 5303TIP3   OH237323   3.395   5.069   1.287 -0.5616 -0.1632 -0.0375
 5303TIP3    H137324   3.340   5.055   1.210 -0.8269 -0.6288  0.2341
 5303TIP3    H237325   3.336   5.057   1.361 -0.2461  0.0193  0.2480
 5304TIP3   OH237326   4.663   3.625  12.039 -0.3350  0.5501  0.7872
 5304TIP3    H137327   4.607   3.663  11.972  0.0648 -1.8089 -1.0214
 5304TIP3    H237328   4.604   3.571  12.092 -0.4695  1.5955  1.7444
 5305TIP3   OH237329   3.059   5.732  12.743 -0.2771 -0.2923 -0.1601
 5305TIP3    H137330   3.025   5.822  12.743  0.1468 -0.0298  2.7125
 5305TIP3    H237331   2.996   5.683  12.690 -1.4327  1.4042 -0.4554
 5306TIP3   OH237332   2.597   3.220  13.684  0.3730  0.2182 -0.0945
 5306TIP3    H137333   2.502   3.212  13.679  0.3660 -0.7088  1.0731
 5306TIP3    H237334   2.619   3.288  13.620 -1.2597  1.9378  1.0797
 5307TIP3   OH237335   5.810   4.564   2.374 -0.0075 -0.1042 -0.9458
 5307TIP3    H137336   5.753   4.487   2.367  2.0065 -1.5794 -2.0126
 5307TIP3    H237337   5.832   4.586   2.283 -0.6377  1.8406 -0.6608
 5308TIP3   OH237338   2.555   0.041   4.292  0.4442  0.1445  0.2034
 5308TIP3    H137339   2.553   0.028   4.197 -0.8476 -1.3689  0.3950
 5308TIP3    H237340   2.632  -0.008   4.321  0.2090 -0.3282  0.0423
 5309TIP3   OH237341   4.070   0.590  11.978  0.5232  0.4861 -0.3297
 5309TIP3    H137342   4.043   0.531  12.049 -0.2845  0.6804 -0.4606
 5309TIP3    H237343   4.164   0.601  11.990  0.8340 -1.3873 -0.7029
 5310TIP3   OH237344   2.547   0.983  16.334 -0.4152 -0.5132 -0.2372
 5310TIP3    H137345   2.506   0.954  16.415  1.9938  0.9201  1.6452
 5310TIP3    H237346   2.616   0.919  16.317  0.5727  0.4056  0.1873
 5311TIP3   OH237347   1.928   0.497  15.717 -0.1946 -0.5243 -0.1732
 5311TIP3    H137348   1.976   0.548  15.652 -0.7221 -0.5824 -0.6212
 5311TIP3    H237349   1.885   0.563  15.772 -0.3699 -0.4777 -0.3643
 5312TIP3   OH237350   3.238   1.498   1.896 -0.0550  0.0765  0.0172
 5312TIP3    H137351   3.176   1.428   1.878  0.9408 -0.9934  0.5875
 5312TIP3    H237352   3.299   1.496   1.821  0.8526 -0.6927  0.7521
 5313TIP3   OH237353   5.889   2.697   3.394 -0.1053  0.2961 -0.8059
 5313TIP3    H137354   5.825   2.652   3.449 -1.5077 -0.8298 -3.1688
 5313TIP3    H237355   5.869   2.790   3.405 -0.7030  0.0724  0.1278
 5314TIP3   OH237356   0.038   2.100   4.574  0.0579 -0.4816  0.0205
 5314TIP3    H137357   0.114   2.042   4.563  0.4952  0.3496 -1.8028
 5314TIP3    H237358  -0.037   2.044   4.556  0.2259 -1.2676  1.6409
 5315TIP3   OH237359   4.316   3.128  10.842 -0.0420 -0.3726 -0.3727
 5315TIP3    H137360   4.288   3.165  10.758  0.5912  0.6390 -0.1528
 5315TIP3    H237361   4.243   3.071  10.868 -1.0132  0.6567 -0.7583
 5316TIP3   OH237362   1.734   0.810  13.001 -0.0172  0.0788  0.3368
 5316TIP3    H137363   1.768   0.741  12.944 -3.5657 -1.7981  0.2160
 5316TIP3    H237364   1.733   0.770  13.088 -0.4734  0.6504  0.5984
 5317TIP3   OH237365   6.156   5.974  13.614  0.1002  0.3496 -0.3965
 5317TIP3    H137366   6.215   6.034  13.567 -1.3939  0.6149 -2.0165
 5317TIP3    H237367   6.200   5.960  13.698  2.6898  0.1652 -1.6770
 5318TIP3   OH237368   2.934   2.574  12.645 -0.1713 -0.4022  0.3477
 5318TIP3    H137369   2.916   2.484  12.618  0.1269  0.0631 -1.5683
 5318TIP3    H237370   2.849   2.609  12.670 -0.7569 -0.4739 -1.4032
 5319TIP3   OH237371   3.234   3.155   2.701 -0.5282 -0.3010 -0.4257
 5319TIP3    H137372   3.291   3.158   2.625 -0.1120  0.1031 -0.0997
 5319TIP3    H237373   3.202   3.065   2.703 -0.2606 -0.4088 -0.8658
 5320TIP3   OH237374   0.413   3.660  12.039 -0.2024 -0.2141 -0.3271
 5320TIP3    H137375   0.373   3.617  12.114 -0.6595 -0.5821 -0.7742
 5320TIP3    H237376   0.364   3.628  11.964  0.6127 -0.2896 -0.8422
 5321TIP3   OH237377   3.142   3.422   3.344  0.2870 -0.0520 -0.2366
 5321TIP3    H137378   3.144   3.346   3.286  1.7646 -0.4811  0.3233
 5321TIP3    H237379   3.202   3.400   3.415  0.0859  1.2950  0.3918
 5322TIP3   OH237380   1.036   0.420  12.522 -0.7425  0.2587 -0.7241
 5322TIP3    H137381   1.085   0.342  12.495 -1.6555 -1.1022  1.2438
 5322TIP3    H237382   0.945   0.397  12.506 -1.0575  0.7167  0.3220
 5323TIP3   OH237383   0.183   1.924   3.004 -0.1361 -0.5279 -0.0265
 5323TIP3    H137384   0.203   1.899   3.094 -1.6484 -1.7144  0.0100
 5323TIP3    H237385   0.204   1.846   2.953  0.2458 -0.0224 -0.6573
 5324TIP3   OH237386   6.525   1.426   1.312  0.4939 -0.3536  0.2990
 5324TIP3    H137387   6.582   1.365   1.361  2.0884  0.1273 -0.8857
 5324TIP3    H237388   6.585   1.493   1.279 -0.0365 -1.7795 -4.1675
 5325TIP3   OH237389   4.019   0.158  14.304  0.1054 -0.3145 -0.4374
 5325TIP3    H137390   3.975   0.242  14.289 -1.2346 -0.9100  0.0071
 5325TIP3    H237391   4.054   0.165  14.393 -0.2075 -0.3114 -0.3141
 5326TIP3   OH237392   0.189   2.814  14.443  0.8330 -0.1675 -0.2471
 5326TIP3    H137393   0.251   2.801  14.515  1.2690 -1.3291 -0.8025
 5326TIP3    H237394   0.241   2.853  14.373  1.3100 -2.3742 -1.1927
 5327TIP3   OH237395   4.290   3.008  11.612 -0.1949  0.5059 -0.3646
 5327TIP3    H137396   4.271   3.097  11.583  1.2191  1.2640  0.9223
 5327TIP3    H237397   4.383   2.995  11.594 -0.1667 -0.3650  0.2998
 5328TIP3   OH237398   1.648   1.619   6.153  0.2441  0.4579 -0.4234
 5328TIP3    H137399   1.562   1.614   6.194  1.1955 -1.2576  1.5977
 5328TIP3    H237400   1.682   1.529   6.160  2.0319  1.0095 -1.5271
 5329TIP3   OH237401   1.031   4.838   5.033  0.8602  0.6447  0.4398
 5329TIP3    H137402   1.083   4.913   5.060  0.1271  0.6223  2.0657
 5329TIP3    H237403   1.051   4.770   5.097 -0.3950  0.3163  0.5207
 5330TIP3   OH237404   3.547   0.744   4.275 -0.3450  0.3214  0.3558
 5330TIP3    H137405   3.526   0.805   4.345 -1.7695  0.2637 -0.0029
 5330TIP3    H237406   3.546   0.658   4.316 -0.8865  0.3150  0.3353
 5331TIP3   OH237407   5.055   4.750  12.132  0.6366 -0.2221 -0.3227
 5331TIP3    H137408   4.976   4.697  12.147 -0.3602  1.2915 -0.0088
 5331TIP3    H237409   5.109   4.734  12.210 -0.4609  0.5782  0.6377
 5332TIP3   OH237410   0.307   5.927  13.748 -0.0734  0.1460 -0.2115
 5332TIP3    H137411   0.341   5.848  13.706 -0.3409 -0.3279  0.4590
 5332TIP3    H237412   0.221   5.902  13.780 -0.1510  0.7048  0.0252
 5333TIP3   OH237413   3.800   0.271  14.673 -0.0921  0.3209 -0.1737
 5333TIP3    H137414   3.752   0.268  14.590  1.1482  0.8539 -0.9416
 5333TIP3    H237415   3.757   0.205  14.727 -0.2191 -0.8613 -1.6416
 5334TIP3   OH237416   2.016   5.580   6.099 -0.4437 -0.4191 -0.5678
 5334TIP3    H137417   2.059   5.499   6.127 -2.1601 -1.2484 -0.1563
 5334TIP3    H237418   1.952   5.551   6.033 -1.7390  0.4413  0.2581
 5335TIP3   OH237419   2.087   0.498   2.469 -0.0957  0.1721 -0.3897
 5335TIP3    H137420   2.074   0.592   2.483 -1.2863 -0.2428  1.8905
 5335TIP3    H237421   2.160   0.476   2.528  0.5068 -0.2755 -1.2848
 5336TIP3   OH237422   3.025   0.726  16.486  0.1227 -0.1014  0.6723
 5336TIP3    H137423   3.025   0.812  16.444 -0.6211 -0.5583 -0.2817
 5336TIP3    H237424   2.952   0.730  16.548  0.5523  0.2029  1.1647
 5337TIP3   OH237425   1.945   1.391   2.529  0.4196 -0.0654 -0.1501
 5337TIP3    H137426   1.878   1.426   2.470 -1.5809 -1.3221  1.2487
 5337TIP3    H237427   2.024   1.385   2.475 -0.5583  1.4983 -1.8659
 5338TIP3   OH237428   6.111   3.846  11.459 -0.0796 -0.2104 -0.3312
 5338TIP3    H137429   6.154   3.761  11.449  1.6947  0.4518  1.1713
 5338TIP3    H237430   6.059   3.838  11.539 -2.1370 -0.6988 -1.6362
 5339TIP3   OH237431   0.248   6.364   4.473 -0.0932 -0.2015 -0.5591
 5339TIP3    H137432   0.255   6.424   4.398 -1.2107  1.0218  0.2519
 5339TIP3    H237433   0.337   6.359   4.508 -0.0339  1.3667 -0.3939
 5340TIP3   OH237434   4.225   3.602   4.380 -0.3196 -0.2490  0.0618
 5340TIP3    H137435   4.274   3.568   4.455  0.5012 -0.4035 -0.5270
 5340TIP3    H237436   4.182   3.681   4.413 -0.5211 -0.6816  0.8701
 5341TIP3   OH237437   5.339   2.472  11.859 -0.0362 -0.0475 -0.1534
 5341TIP3    H137438   5.397   2.400  11.885 -0.5665 -0.4694 -0.1158
 5341TIP3    H237439   5.385   2.551  11.887 -0.2229 -0.4530  1.3475
 5342TIP3   OH237440   3.408   5.796   4.035 -0.0432 -0.1658 -0.3312
 5342TIP3    H137441   3.346   5.809   3.963  0.7754 -0.6524 -1.1296
 5342TIP3    H237442   3.359   5.824   4.113 -0.0015  3.2357 -1.3577
 5343TIP3   OH237443   4.939   1.694  14.517 -0.3465 -0.0232  0.0525
 5343TIP3    H137444   5.017   1.702  14.571 -0.8815 -0.3411  0.8817
 5343TIP3    H237445   4.928   1.781  14.478  1.0819 -0.2803 -1.0233
 5344TIP3   OH237446   0.832   3.629   2.205 -0.2414 -0.2915 -0.1001
 5344TIP3    H137447   0.927   3.637   2.202 -0.1947 -1.0642 -0.8078
 5344TIP3    H237448   0.815   3.535   2.202 -1.0143 -0.1871  0.5797
 5345TIP3   OH237449   3.231   0.956  16.740 -0.0559 -0.1406 -0.5123
 5345TIP3    H137450   3.195   0.918  16.660 -0.1886  0.5147 -0.7693
 5345TIP3    H237451   3.280   0.885  16.781  0.2895 -0.3837 -1.3485
 5346TIP3   OH237452   3.995   3.419   5.663 -0.1201 -0.0830  0.5781
 5346TIP3    H137453   4.063   3.385   5.605 -0.8934 -0.4456 -0.1293
 5346TIP3    H237454   3.974   3.506   5.627  0.3709  0.2832  1.1465
 5347TIP3   OH237455   1.254   5.072   6.201  0.2427 -0.0236 -0.2066
 5347TIP3    H137456   1.295   5.157   6.217  0.6848 -0.3950  0.6829
 5347TIP3    H237457   1.160   5.087   6.215  0.4656 -0.0117  1.4586
 5348TIP3   OH237458   4.492   5.908   1.412 -0.7276  0.2524 -0.3453
 5348TIP3    H137459   4.548   5.954   1.474  1.0196 -1.6329 -0.4180
 5348TIP3    H237460   4.403   5.934   1.437  0.0436  1.6993  1.1333
 5349TIP3   OH237461   4.634   2.945   3.851  0.5238 -0.0626 -0.2926
 5349TIP3    H137462   4.709   2.938   3.910  0.9983  0.1857 -0.8528
 5349TIP3    H237463   4.643   2.870   3.792  1.5750  1.1589 -1.7436
 5350TIP3   OH237464   0.136   5.975  15.646 -0.5002  0.2687 -0.0461
 5350TIP3    H137465   0.219   5.944  15.679  0.7234  3.8363  0.7025
 5350TIP3    H237466   0.070   5.921  15.689  1.3394 -1.5002  0.6702
 5351TIP3   OH237467   4.222   2.124  11.389  0.5945 -0.0672  0.4804
 5351TIP3    H137468   4.316   2.125  11.369  1.0189 -1.4989  2.0769
 5351TIP3    H237469   4.181   2.091  11.309  1.3428  1.3071 -0.5069
 5352TIP3   OH237470   5.308   3.185   5.485 -0.1745 -0.3419  0.2592
 5352TIP3    H137471   5.259   3.103   5.495  0.9919 -0.9426  1.1527
 5352TIP3    H237472   5.395   3.166   5.518  0.4531  0.9494 -0.5811
 5353TIP3   OH237473   4.042   5.547  12.661  0.2706  0.4771  0.0309
 5353TIP3    H137474   4.066   5.581  12.747  0.5629  2.9878 -0.9635
 5353TIP3    H237475   4.109   5.481  12.642  1.2955  1.2163  0.9581
 5354TIP3   OH237476   0.490   4.492  16.695 -0.3332 -0.4224 -0.0424
 5354TIP3    H137477   0.491   4.431  16.621 -0.2798 -0.8831  0.3324
 5354TIP3    H237478   0.582   4.496  16.724  0.1333  1.6591 -1.5216
 5355TIP3   OH237479   1.464   5.400  13.208 -0.5587  0.3383 -0.5267
 5355TIP3    H137480   1.385   5.350  13.231  0.4091 -1.5064 -1.0091
 5355TIP3    H237481   1.456   5.482  13.257 -2.1682 -0.3370  0.4055
 5356TIP3   OH237482   0.666   2.426  15.118  1.3803  0.0364 -0.0780
 5356TIP3    H137483   0.711   2.377  15.187  1.1459  0.1458  0.1495
 5356TIP3    H237484   0.621   2.358  15.066  0.4957  0.0613  0.6386
 5357TIP3   OH237485   4.081   4.285  16.687 -0.2605  0.0698 -0.6661
 5357TIP3    H137486   4.009   4.290  16.623  0.1095  2.5642 -0.9825
 5357TIP3    H237487   4.160   4.295  16.634  0.1605  0.1256 -0.0320
 5358TIP3   OH237488   0.197   4.170   6.020  0.4615  0.4805  0.0047
 5358TIP3    H137489   0.155   4.098   6.067  1.2978 -0.0127  0.0102
 5358TIP3    H237490   0.130   4.200   5.958 -0.7590  1.3077  1.6388
 5359TIP3   OH237491   5.938   5.785   6.786  0.4246  0.4838 -0.7499
 5359TIP3    H137492   5.843   5.778   6.795  0.4544  1.9064  1.4343
 5359TIP3    H237493   5.963   5.850   6.851  3.3393 -2.4742  1.3872
 5360TIP3   OH237494   3.943   4.448   4.414 -0.1679  0.1607  0.5349
 5360TIP3    H137495   3.911   4.420   4.328 -0.5048  1.4572  0.2059
 5360TIP3    H237496   4.031   4.412   4.419 -0.0854  0.1892 -0.4306
 5361TIP3   OH237497   1.849   0.776  15.063 -0.2219  0.4770  0.2200
 5361TIP3    H137498   1.831   0.707  15.000 -0.4687 -1.1585  1.9992
 5361TIP3    H237499   1.819   0.741  15.147  4.9612  0.2255  2.3460
 5362TIP3   OH237500   0.813   1.157   1.001  0.2188  0.0885  0.4079
 5362TIP3    H137501   0.754   1.222   1.039  0.4675  0.8899 -0.5228
 5362TIP3    H237502   0.772   1.134   0.917  0.3512 -0.6502  0.5398
 5363TIP3   OH237503   5.287   2.592  12.609  0.3101 -0.1642  0.3740
 5363TIP3    H137504   5.262   2.559  12.696  0.1877  1.3281  0.9498
 5363TIP3    H237505   5.365   2.543  12.586 -0.7550 -1.9876  0.4234
 5364TIP3   OH237506   3.132   3.667   5.646 -1.1828 -0.0357  0.8062
 5364TIP3    H137507   3.048   3.645   5.687 -0.3677  0.6084  2.9864
 5364TIP3    H237508   3.134   3.615   5.566 -3.3995 -0.5013  0.9874
 5365TIP3   OH237509   4.638   6.468   4.413  0.1969  0.1403 -0.6077
 5365TIP3    H137510   4.692   6.392   4.390 -1.0197 -0.5523 -1.2161
 5365TIP3    H237511   4.701   6.529   4.452  1.3717 -0.7759 -0.9728
 5366TIP3   OH237512   3.118   5.106  14.206  0.4125  0.4764 -0.4238
 5366TIP3    H137513   3.096   5.026  14.158  0.9501 -0.7487  1.2725
 5366TIP3    H237514   3.201   5.134  14.167  0.4613 -0.0564 -0.7234
 5367TIP3   OH237515   4.845   3.438  16.684 -0.1294  0.1753 -0.3038
 5367TIP3    H137516   4.901   3.479  16.618  0.5031 -0.0871  0.0551
 5367TIP3    H237517   4.761   3.425  16.641  0.3074 -0.0896 -1.0927
 5368TIP3   OH237518   5.203   4.654  15.446 -0.0213 -0.2234 -0.2614
 5368TIP3    H137519   5.266   4.725  15.458 -1.3418  0.8101  0.7052
 5368TIP3    H237520   5.164   4.671  15.360 -0.9140  0.7021  0.3163
 5369TIP3   OH237521   4.363   5.131   5.207  0.3764 -0.2154 -0.5605
 5369TIP3    H137522   4.359   5.186   5.285 -0.0507 -1.0597  0.0214
 5369TIP3    H237523   4.451   5.145   5.172  1.1713 -1.0659  0.9991
 5370TIP3   OH237524   6.095   3.749   3.382 -0.1263  0.1375  0.8626
 5370TIP3    H137525   6.070   3.657   3.387 -0.2055  0.1974  1.7525
 5370TIP3    H237526   6.012   3.796   3.382 -0.1009  0.3015  3.0429
 5371TIP3   OH237527   3.237   4.387  12.200  0.2792  0.3291  0.3958
 5371TIP3    H137528   3.209   4.440  12.125  0.6072 -0.7986 -0.5436
 5371TIP3    H237529   3.272   4.307  12.162 -0.5833 -0.7746  1.8027
 5372TIP3   OH237530   3.214   0.432  12.573 -0.1118 -0.6475 -0.4477
 5372TIP3    H137531   3.230   0.340  12.598  1.2472  0.2241  2.3310
 5372TIP3    H237532   3.301   0.472  12.574 -0.9124  1.1986  0.8800
 5373TIP3   OH237533   4.455   0.407   4.190  0.4307 -0.0605  0.4338
 5373TIP3    H137534   4.486   0.319   4.172 -0.9389 -0.7370  1.1956
 5373TIP3    H237535   4.534   0.461   4.191  1.6985 -1.7694  2.9707
 5374TIP3   OH237536   6.439   3.008  11.652  0.8547  0.3279  0.3799
 5374TIP3    H137537   6.369   3.031  11.592  1.0236 -1.8378 -0.7586
 5374TIP3    H237538   6.506   3.075  11.639 -1.2323  2.9476  2.1077
 5375TIP3   OH237539   3.172   3.201  17.138 -0.1480 -0.0369 -0.6730
 5375TIP3    H137540   3.077   3.203  17.138 -0.2462 -2.3089  0.2028
 5375TIP3    H237541   3.197   3.270  17.076 -2.3451  0.2970 -1.2829
 5376TIP3   OH237542   2.636   1.133   4.686 -0.4643 -0.3475 -0.2454
 5376TIP3    H137543   2.706   1.191   4.656 -0.2017 -0.8664 -0.6431
 5376TIP3    H237544   2.598   1.179   4.761 -0.8488  0.7552 -1.0911
 5377TIP3   OH237545   0.867   6.193  15.086 -0.0213  0.6855 -0.3328
 5377TIP3    H137546   0.947   6.142  15.100 -1.1690 -0.9163  0.7647
 5377TIP3    H237547   0.884   6.243  15.007  1.3574 -1.0874 -1.2283
 5378TIP3   OH237548   0.351   3.260  13.615 -0.4292 -0.0951 -0.3771
 5378TIP3    H137549   0.323   3.184  13.565  0.1284  0.7428 -2.0136
 5378TIP3    H237550   0.297   3.332  13.581  0.3341  0.5972 -0.1466
 5379TIP3   OH237551   3.669   6.733  13.429  0.6418  0.0467 -0.3598
 5379TIP3    H137552   3.724   6.716  13.506 -0.6567  1.4914  0.9558
 5379TIP3    H237553   3.585   6.694  13.449  0.0979  0.9663 -0.7781
 5380TIP3   OH237554   1.576   6.410   3.726 -0.2817  0.1182  0.1955
 5380TIP3    H137555   1.584   6.315   3.724 -0.0891  0.1426 -0.2289
 5380TIP3    H237556   1.666   6.443   3.726 -0.2783  0.2802  2.4401
 5381TIP3   OH237557   0.285   4.923   0.497 -0.3680  0.0738 -0.0059
 5381TIP3    H137558   0.240   4.938   0.580 -0.1626 -1.0304  0.3233
 5381TIP3    H237559   0.273   4.830   0.480  1.5519 -0.1987 -0.0569
 5382TIP3   OH237560   3.051   5.699  13.336  0.1548  0.2630 -0.2924
 5382TIP3    H137561   2.963   5.703  13.300 -0.1917  2.2041  0.6466
 5382TIP3    H237562   3.108   5.723  13.263 -0.4611  3.2121  0.0911
 5383TIP3   OH237563   3.099   4.758   3.709  0.2260  0.1132  0.0700
 5383TIP3    H137564   3.046   4.678   3.716 -1.2486  1.0780  0.4571
 5383TIP3    H237565   3.097   4.779   3.615 -1.3662  0.9270  0.2470
 5384TIP3   OH237566   3.030   1.078  12.385 -0.1612  0.5543  0.3564
 5384TIP3    H137567   2.943   1.057  12.351  0.2845 -0.0729 -0.4197
 5384TIP3    H237568   3.078   1.111  12.309  0.7127 -0.4518  0.4670
 5385TIP3   OH237569   6.065   1.209  16.854 -0.0961  0.0320 -0.0275
 5385TIP3    H137570   6.014   1.165  16.922 -0.4264  0.6959  0.1610
 5385TIP3    H237571   6.015   1.194  16.774 -0.5872  0.6460  0.1508
 5386TIP3   OH237572   6.127   6.123  12.787  0.0207  0.4887 -0.2816
 5386TIP3    H137573   6.204   6.171  12.818  0.5714  0.7805 -1.9890
 5386TIP3    H237574   6.089   6.179  12.720 -0.5496 -0.5218 -0.8329
 5387TIP3   OH237575   6.046   6.436   0.884  0.7985  0.0865  1.2960
 5387TIP3    H137576   5.979   6.369   0.894  1.4304 -1.1937 -1.8391
 5387TIP3    H237577   6.009   6.499   0.822  2.2990 -0.5195 -0.3020
 5388TIP3   OH237578   1.197   2.952  14.081 -0.6637 -0.2829  0.2901
 5388TIP3    H137579   1.114   2.937  14.036 -0.1160 -0.4668 -0.6871
 5388TIP3    H237580   1.253   2.880  14.052 -0.4492 -0.7189  1.6919
 5389TIP3   OH237581   2.291   2.147   2.751  0.1592  0.0282 -0.1200
 5389TIP3    H137582   2.302   2.062   2.708  0.2327  0.2654 -0.5840
 5389TIP3    H237583   2.268   2.126   2.841  0.2793 -0.4842 -0.2047
 5390TIP3   OH237584   2.643   3.879   2.967  0.0609  0.1386 -0.1515
 5390TIP3    H137585   2.661   3.938   2.894  1.2070 -0.9467 -0.7884
 5390TIP3    H237586   2.728   3.866   3.009  0.2127 -2.3369 -1.0536
 5391TIP3   OH237587   5.800   1.742  14.167  0.3160  0.2007 -0.2219
 5391TIP3    H137588   5.869   1.808  14.171  0.2652  0.3771 -1.6410
 5391TIP3    H237589   5.810   1.703  14.080  1.0972 -2.4772  0.9589
 5392TIP3   OH237590   4.837   4.540  15.015  0.7478 -0.0688  0.0605
 5392TIP3    H137591   4.882   4.524  15.098  0.2794 -1.4454  0.0639
 5392TIP3    H237592   4.744   4.529  15.035  0.6917 -1.4463 -0.8551
 5393TIP3   OH237593   5.012   6.685  17.327  0.4624 -0.4690 -0.3048
 5393TIP3    H137594   4.943   6.629  17.362 -0.1367  0.3051 -0.2089
 5393TIP3    H237595   5.058   6.631  17.264  0.9048 -1.5744  0.9155
 5394TIP3   OH237596   2.108   1.265  13.858 -0.0313  0.7416  0.0967
 5394TIP3    H137597   2.020   1.228  13.851 -0.4046  1.6288  0.0602
 5394TIP3    H237598   2.098   1.357  13.836  0.6359  1.2124  1.6498
 5395TIP3   OH237599   1.983   0.852  14.681  0.8137 -0.5635 -0.6257
 5395TIP3    H137600   1.980   0.805  14.598  1.2438  1.1832 -1.6646
 5395TIP3    H237601   2.031   0.932  14.662 -0.3897  0.5929  0.9415
 5396TIP3   OH237602   2.143   5.577  12.800  0.7152 -0.6256 -0.9130
 5396TIP3    H137603   2.150   5.533  12.885 -2.7328  1.0415  0.4357
 5396TIP3    H237604   2.064   5.540  12.760 -0.3255  1.7612 -1.2634
 5397TIP3   OH237605   5.139   2.572  11.052  0.1877 -0.1750 -0.0467
 5397TIP3    H137606   5.188   2.649  11.081  1.6233 -0.3231 -1.8792
 5397TIP3    H237607   5.102   2.598  10.968 -1.2704 -0.7345  0.3999
 5398TIP3   OH237608   4.784   6.276   2.594 -0.0033 -0.1081 -0.0920
 5398TIP3    H137609   4.789   6.210   2.525 -1.3204  0.4466 -0.7574
 5398TIP3    H237610   4.873   6.281   2.630  0.3890 -1.3573 -0.8424
 5399TIP3   OH237611   1.208   1.533  12.686  0.0342 -0.2671  0.1463
 5399TIP3    H137612   1.301   1.551  12.680 -0.0642  0.6199  1.0512
 5399TIP3    H237613   1.166   1.619  12.689 -0.9209 -0.6226 -1.3559
 5400TIP3   OH237614   3.703   2.744  15.881 -0.1948 -0.1972 -0.1793
 5400TIP3    H137615   3.645   2.671  15.859 -0.5745 -0.3154  1.1068
 5400TIP3    H237616   3.673   2.772  15.967 -0.5028  1.9386 -0.9289
 5401TIP3   OH237617   0.807   0.844  11.318 -0.4621  0.1518  0.3038
 5401TIP3    H137618   0.715   0.848  11.344 -0.6170 -0.8072 -0.0448
 5401TIP3    H237619   0.856   0.855  11.399 -0.8926  0.2193  0.5581
 5402TIP3   OH237620   0.158   5.205   2.417 -0.2803  0.1259 -0.0986
 5402TIP3    H137621   0.153   5.111   2.436  0.6638  0.0906  0.0289
 5402TIP3    H237622   0.072   5.226   2.381 -0.0981 -1.0432 -1.2988
 5403TIP3   OH237623   6.645   4.205  11.235 -0.5629  0.5401 -0.2342
 5403TIP3    H137624   6.690   4.289  11.246 -0.9930  0.7624 -0.1560
 5403TIP3    H237625   6.712   4.147  11.198 -0.9064  1.5599 -2.6586
 5404TIP3   OH237626   1.847   3.767  13.252  0.0249  0.6171  0.1031
 5404TIP3    H137627   1.767   3.723  13.282  0.2016  0.3939  0.2457
 5404TIP3    H237628   1.838   3.857  13.284 -1.2493  1.2477 -1.8278
 5405TIP3   OH237629   1.422   2.210   2.495  0.5234 -0.0282 -0.3128
 5405TIP3    H137630   1.360   2.143   2.523  0.5543  0.4581  0.9641
 5405TIP3    H237631   1.384   2.293   2.523  0.9699  0.4215 -0.9820
 5406TIP3   OH237632   6.284   3.167  12.639  0.2367 -0.1461 -0.0066
 5406TIP3    H137633   6.336   3.086  12.645 -0.5330 -0.8518 -1.9105
 5406TIP3    H237634   6.320   3.224  12.706  2.5394 -1.1136 -0.3422
 5407TIP3   OH237635   3.741   0.180  17.107 -0.1411 -0.1059  1.0388
 5407TIP3    H137636   3.681   0.114  17.071  0.0830  0.2282  0.0272
 5407TIP3    H237637   3.714   0.190  17.198 -0.1041 -1.6929  1.2545
 5408TIP3   OH237638   3.701   0.971  10.786  0.1216 -0.0288 -0.0413
 5408TIP3    H137639   3.622   1.002  10.741 -0.8501  0.7197  2.0545
 5408TIP3    H237640   3.773   1.012  10.738 -0.7626 -0.3037 -1.6794
 5409TIP3   OH237641   6.440   2.856  13.650  0.4063  0.2919 -0.1261
 5409TIP3    H137642   6.529   2.828  13.626  0.6997  0.1781  1.0109
 5409TIP3    H237643   6.454   2.921  13.719 -0.3434  1.8044 -1.3394
 5410TIP3   OH237644   1.815   4.467  17.297 -0.3658  0.3033 -0.4938
 5410TIP3    H137645   1.803   4.548  17.247 -0.8222  2.6867  3.1004
 5410TIP3    H237646   1.727   4.432  17.308 -0.4692  0.6771 -0.0790
 5411TIP3   OH237647   1.541   1.029   3.712  0.3340  0.4141  0.0233
 5411TIP3    H137648   1.569   0.952   3.763 -1.7177 -0.1305  0.4326
 5411TIP3    H237649   1.560   1.103   3.769 -1.0706 -0.1181  1.2483
 5412TIP3   OH237650   4.351   3.232  11.090  0.2813  0.3630 -0.0653
 5412TIP3    H137651   4.345   3.221  10.995 -1.4378 -0.2450  0.0794
 5412TIP3    H237652   4.331   3.324  11.106  0.3738  0.4183 -0.2749
 5413TIP3   OH237653   2.675   5.402  13.296  0.4893 -0.7898 -0.2623
 5413TIP3    H137654   2.671   5.306  13.295  1.7754 -0.8892  0.8746
 5413TIP3    H237655   2.700   5.424  13.386  0.2888  0.6157 -0.5301
 5414TIP3   OH237656   6.470   2.540  13.655  0.1954  0.1931 -0.6724
 5414TIP3    H137657   6.465   2.611  13.719 -2.0190  0.4540 -1.0556
 5414TIP3    H237658   6.448   2.461  13.704  1.1658 -0.0245 -0.5679
 5415TIP3   OH237659   3.229   5.601   5.782 -0.4859  0.0966 -0.0297
 5415TIP3    H137660   3.217   5.514   5.821  0.6202  0.0152  0.1508
 5415TIP3    H237661   3.156   5.653   5.817 -0.8614 -0.6198  0.2659
 5416TIP3   OH237662   4.764   0.696   5.639  0.5919  0.8990 -0.6600
 5416TIP3    H137663   4.854   0.673   5.619 -0.1000 -1.1762 -1.7307
 5416TIP3    H237664   4.713   0.660   5.565 -1.0202  2.8280 -0.5693
 5417TIP3   OH237665   0.343   2.336  14.037 -0.1406 -0.1254 -0.5099
 5417TIP3    H137666   0.405   2.376  13.976  0.2794 -2.2396 -1.5745
 5417TIP3    H237667   0.377   2.247  14.050 -2.5045 -1.0844 -0.4631
 5418TIP3   OH237668   2.114   6.259  12.998 -0.3654 -0.4986  0.0805
 5418TIP3    H137669   2.074   6.337  13.037 -1.5022 -1.7555  1.5873
 5418TIP3    H237670   2.039   6.202  12.978  0.5086 -1.7015  0.1577
 5419TIP3   OH237671   1.202   5.831  16.815 -0.2607  0.3682  0.2003
 5419TIP3    H137672   1.235   5.850  16.727 -2.2681  1.9040 -0.3059
 5419TIP3    H237673   1.190   5.736  16.816  2.4707 -0.0481 -0.1181
 5420TIP3   OH237674   1.975   2.437  13.951  0.2354 -0.0502  0.3657
 5420TIP3    H137675   2.040   2.368  13.963  1.8991  1.5811  1.1456
 5420TIP3    H237676   2.023   2.509  13.909 -0.9337  1.3801  1.3724
 5421TIP3   OH237677   2.388   3.590  11.402  0.0234  0.0137  0.0492
 5421TIP3    H137678   2.374   3.500  11.371 -0.4958 -0.1760  0.8039
 5421TIP3    H237679   2.483   3.596  11.417  0.2107 -0.0500 -1.0572
 5422TIP3   OH237680   4.595   5.828  12.265 -0.5719  0.2695  0.3046
 5422TIP3    H137681   4.539   5.905  12.255 -2.3748 -0.6113  2.6842
 5422TIP3    H237682   4.553   5.761  12.212  2.1874  1.2577 -3.6099
 5423TIP3   OH237683   1.953   1.388  12.055  0.2921  0.4230 -0.1348
 5423TIP3    H137684   1.946   1.473  12.012  2.3093  0.4438 -0.5206
 5423TIP3    H237685   1.986   1.329  11.987 -2.6332 -1.1675 -0.3856
 5424TIP3   OH237686   5.887   2.202   2.181  0.1067 -0.4311  0.6717
 5424TIP3    H137687   5.851   2.122   2.220 -2.3139 -0.0849 -0.6280
 5424TIP3    H237688   5.926   2.172   2.099 -2.7642 -0.1294 -0.9250
 5425TIP3   OH237689   1.628   3.524  11.566 -0.2803 -0.8538  0.4376
 5425TIP3    H137690   1.561   3.500  11.502 -0.4772 -0.4624  0.4921
 5425TIP3    H237691   1.710   3.528  11.516 -0.7103  1.1664 -0.1754
 5426TIP3   OH237692   3.793   2.671   0.765  0.1390  0.0950 -0.0326
 5426TIP3    H137693   3.772   2.670   0.858  0.4572 -1.7995  0.0625
 5426TIP3    H237694   3.717   2.630   0.723  0.8467 -0.9109 -0.3664
 5427TIP3   OH237695   2.994   6.105   0.216 -0.0057  0.1243 -0.2744
 5427TIP3    H137696   2.919   6.153   0.181  0.8031  1.0995 -0.7232
 5427TIP3    H237697   3.039   6.073   0.138 -0.3739 -1.1449  0.0164
 5428TIP3   OH237698   0.348   2.477   2.573  0.1152 -0.1040  0.0199
 5428TIP3    H137699   0.402   2.507   2.501 -2.1182  0.8499 -1.3697
 5428TIP3    H237700   0.330   2.385   2.553  1.4574 -0.5503  0.7082
 5429TIP3   OH237701   1.743   5.130  14.810  0.4644 -0.0705 -0.1555
 5429TIP3    H137702   1.749   5.112  14.904 -2.6355  0.2968  0.2037
 5429TIP3    H237703   1.825   5.174  14.789  0.5822  1.3583  2.7482
 5430TIP3   OH237704   3.351   2.321   4.898  0.1320  0.2916 -0.6305
 5430TIP3    H137705   3.325   2.405   4.861  1.1952  0.9880  0.1557
 5430TIP3    H237706   3.331   2.257   4.829 -1.7209  1.0178 -0.8085
 5431TIP3   OH237707   2.657   4.163  12.115 -0.5420  0.2053  0.7919
 5431TIP3    H137708   2.668   4.229  12.047 -2.1778  0.2247  0.4929
 5431TIP3    H237709   2.716   4.190  12.185  1.1111  0.2355 -0.5591
 5432TIP3   OH237710   1.082   6.631  13.980  0.6610 -0.5119 -0.4470
 5432TIP3    H137711   1.141   6.578  14.033 -0.2347  0.7776  2.0213
 5432TIP3    H237712   1.132   6.711  13.961  0.0666  0.1874  0.8505
 5433TIP3   OH237713   2.834   6.627   0.165 -0.6060 -0.0813 -0.4762
 5433TIP3    H137714   2.786   6.661   0.241 -1.8234 -0.3563 -1.0879
 5433TIP3    H237715   2.864   6.705   0.118  2.1422  0.1335  1.4130
 5434TIP3   OH237716   6.301   6.296  16.274  0.6049 -0.0325 -0.5789
 5434TIP3    H137717   6.240   6.340  16.216  2.1085  0.5534 -1.7919
 5434TIP3    H237718   6.250   6.278  16.353 -0.5262  2.4242 -0.6454
 5435TIP3   OH237719   0.618   5.969   0.728 -0.0508  0.4618  0.3915
 5435TIP3    H137720   0.692   5.923   0.766  0.4834  1.7370  0.9263
 5435TIP3    H237721   0.642   5.982   0.636  0.1092  0.3553  0.4182
 5436TIP3   OH237722   0.301   4.080  12.202  0.2201  0.5477  0.1711
 5436TIP3    H137723   0.317   3.988  12.226 -0.3939  0.2620 -0.4582
 5436TIP3    H237724   0.268   4.120  12.282  2.4763  0.7699  1.0528
 5437TIP3   OH237725   6.519   6.266  11.693 -0.0329  0.4780 -0.0696
 5437TIP3    H137726   6.524   6.361  11.682 -1.6766  0.5226 -0.8297
 5437TIP3    H237727   6.492   6.253  11.784  2.7315  0.5818  0.8547
 5438TIP3   OH237728   1.534   1.656   5.515 -0.4397  0.8141 -0.0981
 5438TIP3    H137729   1.527   1.585   5.580  1.1485  0.3482 -0.3779
 5438TIP3    H237730   1.452   1.704   5.523 -0.8132  0.0055  1.3670
 5439TIP3   OH237731   1.123   3.280   4.478 -0.5633 -0.3280 -0.3873
 5439TIP3    H137732   1.133   3.242   4.390  1.7035 -1.6410  0.3381
 5439TIP3    H237733   1.192   3.237   4.530 -1.5241  0.7715  1.9185
 5440TIP3   OH237734   2.805   2.567   5.011 -0.7207  0.3653  0.2667
 5440TIP3    H137735   2.749   2.571   4.934  0.3817 -1.1273 -0.6609
 5440TIP3    H237736   2.859   2.490   4.998  0.8555  1.1714  1.6159
 5441TIP3   OH237737   1.441   0.614  14.331 -0.1997 -0.0774  0.0192
 5441TIP3    H137738   1.355   0.592  14.294 -0.2255 -0.8600  0.5313
 5441TIP3    H237739   1.427   0.699  14.373  0.0144  1.2150 -2.3504
 5442TIP3   OH237740   4.012   3.602  14.151  0.1425 -0.7173  0.6888
 5442TIP3    H137741   4.092   3.652  14.135  0.2340 -1.3023 -0.9094
 5442TIP3    H237742   3.942   3.667  14.153  0.4169 -0.3861 -0.0469
 5443TIP3   OH237743   6.109   5.216  13.857 -0.1712 -0.0247 -0.0262
 5443TIP3    H137744   6.203   5.224  13.871  0.1606  1.8299 -2.7084
 5443TIP3    H237745   6.101   5.167  13.775 -1.5673 -0.1761  0.1758
 5444TIP3   OH237746   1.834   3.731   5.086  0.6665  0.1390  0.4383
 5444TIP3    H137747   1.769   3.665   5.109  1.3368 -0.4552  0.6409
 5444TIP3    H237748   1.800   3.812   5.125 -2.2209  0.9161 -3.0254
 5445TIP3   OH237749   3.088   5.454   3.653  0.1883  0.4596  0.0874
 5445TIP3    H137750   3.181   5.430   3.648 -0.0467 -0.3386 -0.7157
 5445TIP3    H237751   3.058   5.453   3.562 -0.6639  0.4872  0.3601
 5446TIP3   OH237752   3.650   0.140  15.149 -0.0979  0.1718 -0.0991
 5446TIP3    H137753   3.575   0.081  15.145 -0.3850  0.3199  2.1215
 5446TIP3    H237754   3.722   0.086  15.183  0.4960  0.3415 -1.0466
 5447TIP3   OH237755   3.502   5.683   5.751 -0.4147 -0.1572  0.5685
 5447TIP3    H137756   3.530   5.692   5.842 -0.8456  2.6683  0.5173
 5447TIP3    H237757   3.407   5.673   5.757 -0.4713  0.2917  0.4297
 5448TIP3   OH237758   0.950   6.000  13.598  0.3065 -0.3203  0.1893
 5448TIP3    H137759   0.865   5.957  13.592  0.0392  0.2758 -0.5490
 5448TIP3    H237760   0.969   6.004  13.692 -1.2122  0.8982  0.4941
 5449TIP3   OH237761   2.001   2.006  12.621 -0.7177 -0.3563 -0.2548
 5449TIP3    H137762   1.937   1.936  12.636 -0.4616 -1.0012 -1.9725
 5449TIP3    H237763   2.061   1.970  12.556  1.0458  0.4797  0.8540
 5450TIP3   OH237764   2.735   3.862  15.424  0.4420 -0.0651  0.3796
 5450TIP3    H137765   2.795   3.935  15.438 -1.2652  1.2240  1.3435
 5450TIP3    H237766   2.677   3.892  15.354 -0.6350 -0.2296  1.1816
 5451TIP3   OH237767   5.137   5.929   3.617 -0.2644 -0.0707 -0.4970
 5451TIP3    H137768   5.212   5.921   3.557  0.1568 -0.1975  0.0437
 5451TIP3    H237769   5.146   5.855   3.677 -2.5837 -2.0007 -2.3329
 5452TIP3   OH237770   4.873   1.144  15.483 -0.0216 -0.6401 -0.1182
 5452TIP3    H137771   4.783   1.112  15.488  0.1823 -1.3333 -0.6961
 5452TIP3    H237772   4.907   1.109  15.400  0.7010 -0.1757 -0.0359
 5453TIP3   OH237773   5.357   1.571   2.659  0.3833 -0.3639 -0.3030
 5453TIP3    H137774   5.294   1.533   2.597  2.5537 -1.4434 -2.0063
 5453TIP3    H237775   5.364   1.663   2.632 -1.7823  0.3208  1.1556
 5454TIP3   OH237776   5.410   5.942  13.852 -0.2252  0.3113 -0.0606
 5454TIP3    H137777   5.326   5.976  13.883 -0.6163  0.2751 -1.0446
 5454TIP3    H237778   5.409   5.957  13.758  1.0753  0.7145 -0.0339
 5455TIP3   OH237779   5.694   6.255   4.356  0.1806  0.2192  0.0999
 5455TIP3    H137780   5.684   6.173   4.308 -0.3680 -0.2763  1.0195
 5455TIP3    H237781   5.657   6.322   4.298 -1.2163 -0.4774  0.1324
 5456TIP3   OH237782   3.485   0.168   1.527  0.6518 -0.0715 -0.1310
 5456TIP3    H137783   3.508   0.083   1.488  0.0524  0.1553 -1.0111
 5456TIP3    H237784   3.546   0.178   1.600  0.5657 -1.3772  0.1479
 5457TIP3   OH237785   4.610   3.603  17.136  0.6020 -0.0199 -0.4664
 5457TIP3    H137786   4.675   3.594  17.066 -0.4005 -0.1190 -1.4087
 5457TIP3    H237787   4.655   3.571  17.214  1.6118 -0.2875 -1.1280
 5458TIP3   OH237788   0.387   3.489  17.012  0.1885 -0.1393 -0.3774
 5458TIP3    H137789   0.309   3.539  17.035  0.7736  0.0651  1.2912
 5458TIP3    H237790   0.450   3.555  16.981  0.2080 -0.1154 -0.2874
 5459TIP3   OH237791   0.009   4.560   4.158 -0.2053  0.5350 -0.1440
 5459TIP3    H137792   0.085   4.595   4.113 -0.6120  1.0057 -0.4678
 5459TIP3    H237793  -0.009   4.477   4.115  0.7854 -0.1212  0.6528
 5460TIP3   OH237794   0.812   2.095   1.908  0.5979  0.2873  0.2487
 5460TIP3    H137795   0.746   2.026   1.909 -0.7168  1.4997  0.6342
 5460TIP3    H237796   0.845   2.095   1.818  1.6574 -1.7293  0.5730
 5461TIP3   OH237797   4.908   6.517   4.519  0.4524 -0.2717  0.7722
 5461TIP3    H137798   4.983   6.576   4.518 -0.6314  1.1786  0.3690
 5461TIP3    H237799   4.939   6.437   4.477  1.2318  1.0223 -1.2725
 5462TIP3   OH237800   3.532   5.449  16.000  0.0119 -0.3526 -0.0171
 5462TIP3    H137801   3.584   5.433  16.078 -1.2749 -0.8377  0.7828
 5462TIP3    H237802   3.531   5.545  15.991 -0.0296 -0.2837  0.7083
 5463TIP3   OH237803   1.144   3.387   0.253 -0.1930 -0.1996  0.3405
 5463TIP3    H137804   1.223   3.340   0.281  0.8385  0.5884 -1.1008
 5463TIP3    H237805   1.122   3.350   0.168 -0.9009  0.1463  0.3681
 5464TIP3   OH237806   1.462   5.353  11.376  0.0111  0.5097  0.1634
 5464TIP3    H137807   1.496   5.264  11.390  0.6076  0.7466  0.2568
 5464TIP3    H237808   1.538   5.403  11.347 -0.5535  0.7397 -0.9801
 5465TIP3   OH237809   0.155   1.062   2.420 -0.0394  0.3547 -0.1933
 5465TIP3    H137810   0.243   1.058   2.382  0.0680 -0.4760  0.1144
 5465TIP3    H237811   0.144   1.153   2.448  0.3929  0.6618 -0.9997
 5466TIP3   OH237812   5.389   3.430   0.950  0.1307 -0.0379  0.3489
 5466TIP3    H137813   5.476   3.461   0.928  0.1915 -0.2454  0.2901
 5466TIP3    H237814   5.332   3.468   0.884 -0.0630  1.3606  1.2850
 5467TIP3   OH237815   4.899   0.861  14.616  0.3930 -0.0201 -0.3568
 5467TIP3    H137816   4.925   0.946  14.579 -1.3200  0.1425 -1.3135
 5467TIP3    H237817   4.810   0.876  14.647 -0.5842 -1.8525 -2.0426
 5468TIP3   OH237818   4.381   4.422   5.163 -0.1293 -0.2339 -0.1666
 5468TIP3    H137819   4.430   4.502   5.184  3.1097 -1.9628 -0.4394
 5468TIP3    H237820   4.372   4.424   5.068 -0.7389  0.1646 -0.1016
 5469TIP3   OH237821   0.628   1.300  14.396 -0.2891  0.1523 -0.0716
 5469TIP3    H137822   0.634   1.217  14.443 -0.4660  0.2653  0.1555
 5469TIP3    H237823   0.677   1.286  14.315  1.4353  0.4480  0.8657
 5470TIP3   OH237824   1.253   2.728  12.661  1.0396  0.6672 -0.2888
 5470TIP3    H137825   1.241   2.675  12.740 -0.6507  0.7779 -0.4266
 5470TIP3    H237826   1.341   2.763  12.669  1.4229 -0.4612  0.8470
 5471TIP3   OH237827   1.313   0.213  14.289  0.1219 -0.5938  0.0814
 5471TIP3    H137828   1.379   0.156  14.249  1.9897  0.0854  2.0159
 5471TIP3    H237829   1.290   0.171  14.371 -1.3386 -0.4350 -0.2218
 5472TIP3   OH237830   2.382   3.196   4.888  0.1872 -0.2310  0.2467
 5472TIP3    H137831   2.298   3.224   4.924  0.2803  1.2393 -0.6180
 5472TIP3    H237832   2.438   3.184   4.964  0.1909  2.1798  0.6992
 5473TIP3   OH237833   4.979   0.885  13.575 -0.3257 -0.8548  0.2947
 5473TIP3    H137834   5.001   0.832  13.498  0.4897  0.7372 -0.6188
 5473TIP3    H237835   4.887   0.909  13.562 -0.1578 -0.4935 -0.2570
 5474TIP3   OH237836   6.332   0.112  13.608 -0.2663 -0.2620 -0.7058
 5474TIP3    H137837   6.415   0.107  13.562 -1.2030  2.1355 -2.9137
 5474TIP3    H237838   6.330   0.200  13.646 -1.2804 -0.7285  0.3890
 5475TIP3   OH237839   6.034   3.647  12.675 -0.0353  0.0362  0.6597
 5475TIP3    H137840   5.993   3.656  12.589  1.3564  1.4022  0.0812
 5475TIP3    H237841   5.981   3.701  12.733  0.9235  1.8431 -0.0911
 5476TIP3   OH237842   1.059   1.326   3.898 -0.2426 -0.0874 -0.6138
 5476TIP3    H137843   1.043   1.267   3.971  0.8754  0.8917  0.4830
 5476TIP3    H237844   1.091   1.270   3.828 -2.1820 -1.1694 -0.7064
 5477TIP3   OH237845   3.600   2.087   0.096  0.4847 -0.6079  0.0902
 5477TIP3    H137846   3.526   2.033   0.067  0.5452  0.1539 -1.6269
 5477TIP3    H237847   3.560   2.167   0.130  0.4883 -0.6498  0.1948
 5478TIP3   OH237848   3.877   0.433   4.438 -0.6158  0.3797 -0.1173
 5478TIP3    H137849   3.890   0.494   4.511  0.2135  2.5521 -1.9544
 5478TIP3    H237850   3.865   0.348   4.480 -0.6840  1.5888  2.5538
 5479TIP3   OH237851   1.868   4.437  16.430  0.2297  0.1923 -1.0159
 5479TIP3    H137852   1.856   4.449  16.336 -0.0378 -0.9558 -1.1416
 5479TIP3    H237853   1.815   4.506  16.470  0.5295  0.8331 -1.7048
 5480TIP3   OH237854   2.114   4.562  17.026  0.2001 -0.0368 -0.7884
 5480TIP3    H137855   2.162   4.619  17.086  0.5761 -1.6306  0.4884
 5480TIP3    H237856   2.140   4.592  16.938  0.4814  1.6252 -0.1772
 5481TIP3   OH237857   1.206   2.113   3.562  0.0880  0.2629 -0.3215
 5481TIP3    H137858   1.186   2.020   3.552  0.4388  0.1096  0.2986
 5481TIP3    H237859   1.121   2.156   3.573 -0.0729  0.0131 -0.5959
 5482TIP3   OH237860   6.163   6.606   2.571 -0.0253  0.1964  0.2554
 5482TIP3    H137861   6.154   6.625   2.664 -1.0406  0.5152  0.1001
 5482TIP3    H237862   6.234   6.664   2.542 -1.2064  1.7660  0.3718
 5483TIP3   OH237863   1.601   4.582   6.357 -0.5505 -0.9259 -0.1380
 5483TIP3    H137864   1.598   4.628   6.441  0.4721 -1.7496  0.3792
 5483TIP3    H237865   1.539   4.510   6.367  0.3219 -1.6331  0.3115
 5484TIP3   OH237866   6.532   3.362  12.630 -0.3724  0.0289  0.4551
 5484TIP3    H137867   6.623   3.352  12.659 -0.6124  2.1180  2.1818
 5484TIP3    H237868   6.526   3.309  12.551  1.9592 -1.3022  1.0729
 5485TIP3   OH237869   5.504   3.425   5.387 -0.4380  0.1813 -0.1373
 5485TIP3    H137870   5.518   3.342   5.433 -1.1058  0.1401  0.0103
 5485TIP3    H237871   5.463   3.399   5.304  1.6783  0.1749 -1.2258
 5486TIP3   OH237872   1.333   3.983  12.452  0.5293  0.2584 -0.3354
 5486TIP3    H137873   1.370   3.915  12.508  0.0976 -2.6204 -3.2495
 5486TIP3    H237874   1.240   3.963  12.447  0.7453 -0.4618 -3.0156
 5487TIP3   OH237875   2.031   4.740  13.954 -0.0855  0.2950  0.3206
 5487TIP3    H137876   2.101   4.804  13.964 -2.2251  2.8280 -0.0084
 5487TIP3    H237877   1.956   4.779  13.998 -1.0758 -2.8422  1.7086
 5488TIP3   OH237878   0.962   4.517  11.119 -0.0839 -0.2189 -0.7708
 5488TIP3    H137879   0.944   4.445  11.058  0.2429 -0.6184 -0.4040
 5488TIP3    H237880   1.002   4.585  11.065  1.1465 -0.9628 -0.8394
 5489TIP3   OH237881   3.410   5.180  12.650  0.8626  0.4927 -0.5324
 5489TIP3    H137882   3.349   5.248  12.623 -1.9544 -1.9498 -0.9696
 5489TIP3    H237883   3.479   5.181  12.585  0.0676  1.9241 -1.3884
 5490TIP3   OH237884   4.956   5.254   0.899 -0.2938  0.5910 -0.3617
 5490TIP3    H137885   4.977   5.195   0.827 -0.2740  0.6203 -0.3801
 5490TIP3    H237886   4.913   5.199   0.964 -2.6092  1.0403 -1.4295
 5491TIP3   OH237887   5.473   1.613  15.600  0.2234 -0.1957  0.0306
 5491TIP3    H137888   5.438   1.678  15.661 -0.4622 -0.5376  0.0124
 5491TIP3    H237889   5.409   1.612  15.528  1.0274  0.2136 -0.6981
 5492TIP3   OH237890   3.498   4.791  10.999 -0.5687  0.2718  0.2877
 5492TIP3    H137891   3.470   4.880  10.977  0.2912  0.1899 -1.2493
 5492TIP3    H237892   3.418   4.739  10.999 -0.6698  0.2892 -2.7749
 5493TIP3   OH237893   2.267   4.734   1.307  0.3858  0.1355  0.0224
 5493TIP3    H137894   2.299   4.780   1.384  1.4114 -2.4654  1.2687
 5493TIP3    H237895   2.290   4.642   1.322 -0.5666 -0.6801 -2.7883
 5494TIP3   OH237896   2.584   6.380   3.034 -0.2127  0.3666 -0.2729
 5494TIP3    H137897   2.647   6.317   2.998 -0.3033  0.6189 -0.8667
 5494TIP3    H237898   2.578   6.449   2.969 -0.2154  0.9344  0.3193
 5495TIP3   OH237899   0.852   0.578   5.804  0.0586  0.1123  0.0305
 5495TIP3    H137900   0.903   0.519   5.859  0.8474  0.3860 -0.3873
 5495TIP3    H237901   0.904   0.659   5.800  0.1334  0.0302 -1.2618
 5496TIP3   OH237902   4.444   5.427   2.686  0.5451 -0.6966  0.3926
 5496TIP3    H137903   4.522   5.377   2.707  1.8407  0.9752 -0.2221
 5496TIP3    H237904   4.409   5.386   2.607  1.7035 -0.5313 -0.2296
 5497TIP3   OH237905   0.762   6.512   5.301  0.5815 -0.3747 -0.6364
 5497TIP3    H137906   0.742   6.595   5.258  2.0340  0.1075 -0.4306
 5497TIP3    H237907   0.806   6.537   5.382  1.3745 -1.3352 -0.7439
 5498TIP3   OH237908   3.223   2.832   5.360  0.1655 -0.1489 -0.3764
 5498TIP3    H137909   3.207   2.758   5.301 -1.3209  0.5513 -0.8718
 5498TIP3    H237910   3.137   2.860   5.389  0.8018  0.3033  1.2040
 5499TIP3   OH237911   1.745   3.323  16.885 -0.0594 -0.3184  0.3308
 5499TIP3    H137912   1.800   3.331  16.807  0.8348 -1.4717  0.8190
 5499TIP3    H237913   1.772   3.396  16.941 -0.9771  0.7478 -0.5618
 5500TIP3   OH237914   3.981   5.791  13.050 -0.1954  0.2076 -0.4789
 5500TIP3    H137915   3.942   5.814  12.966  1.2134 -1.1146 -1.5629
 5500TIP3    H237916   3.984   5.695  13.050 -1.1737  0.1213  1.5875
 5501TIP3   OH237917   4.835   5.931  12.333  0.1576 -0.3552 -0.0524
 5501TIP3    H137918   4.837   6.026  12.335 -1.1070 -0.3342  0.7185
 5501TIP3    H237919   4.746   5.908  12.308  0.5227 -1.3482 -0.5359
 5502TIP3   OH237920   1.962   5.768   5.120  0.0981 -0.3934 -0.0862
 5502TIP3    H137921   1.880   5.819   5.117 -0.1689 -0.8256 -3.0725
 5502TIP3    H237922   2.029   5.831   5.092  0.0320 -1.1136 -2.0379
 5503TIP3   OH237923   5.432   4.098  12.023  0.5480 -1.0866  0.6539
 5503TIP3    H137924   5.441   4.083  11.929  0.3465  0.4365  0.3788
 5503TIP3    H237925   5.462   4.187  12.037  2.6940 -2.0016  2.4008
 5504TIP3   OH237926   1.101   6.189   1.447  0.2939  0.1867 -0.0949
 5504TIP3    H137927   1.117   6.123   1.379  0.3169  0.0836  0.0105
 5504TIP3    H237928   1.128   6.146   1.528 -1.7815 -0.5023  0.2930
 5505TIP3   OH237929   6.519   2.708  14.551 -0.3043 -0.3747  0.4820
 5505TIP3    H137930   6.578   2.698  14.477 -1.6210  0.7819 -0.7946
 5505TIP3    H237931   6.433   2.723  14.511 -1.2355 -0.6835  2.2553
 5506TIP3   OH237932   4.010   3.465  12.213 -0.0478 -0.5857  0.2480
 5506TIP3    H137933   4.073   3.516  12.265 -1.4487 -0.0503  1.5232
 5506TIP3    H237934   4.056   3.444  12.132  1.7924 -0.3354  1.1858
 5507TIP3   OH237935   5.718   3.894  11.955  0.2881 -0.3038 -1.1896
 5507TIP3    H137936   5.624   3.893  11.938 -0.1834  0.7340  1.0375
 5507TIP3    H237937   5.753   3.962  11.897 -0.5372  0.1809 -1.1259
 5508TIP3   OH237938   5.575   4.048   4.168 -0.0959  0.1596 -0.2789
 5508TIP3    H137939   5.636   4.105   4.121 -2.4517  2.7662 -0.4635
 5508TIP3    H237940   5.580   4.077   4.259 -1.6437  1.0622 -0.4489
 5509TIP3   OH237941   0.455   0.880   4.203  0.0181  0.3434 -0.0737
 5509TIP3    H137942   0.393   0.853   4.271 -0.4724  2.5783  0.4596
 5509TIP3    H237943   0.409   0.949   4.155  0.5591 -0.8095 -2.3797
 5510TIP3   OH237944   3.014   3.277  12.747  0.1362 -0.2222  0.3767
 5510TIP3    H137945   3.008   3.370  12.726 -1.5410 -0.5933 -1.0224
 5510TIP3    H237946   3.026   3.274  12.842 -1.7228  1.4184  0.7367
 5511TIP3   OH237947   5.292   5.082  14.363 -0.0194  0.7096  0.1443
 5511TIP3    H137948   5.304   5.067  14.457  1.7651  1.3797  0.0616
 5511TIP3    H237949   5.320   5.173  14.349 -1.6924  1.1241 -0.8209
 5512TIP3   OH237950   2.514   6.268  11.612 -0.3183  0.4953 -0.0532
 5512TIP3    H137951   2.515   6.178  11.645  2.2846  0.5694  0.2641
 5512TIP3    H237952   2.422   6.285  11.591 -2.0049 -0.2371  5.2499
 5513TIP3   OH237953   1.918   6.657  11.361  0.8297  0.4199  0.0093
 5513TIP3    H137954   1.959   6.697  11.438  0.8381  1.3534 -0.4566
 5513TIP3    H237955   1.977   6.679  11.289  0.0943  0.8062 -0.4895
 5514TIP3   OH237956   6.361   2.091   1.080 -0.7111  0.0617  0.8899
 5514TIP3    H137957   6.292   2.043   1.127  0.2004 -0.7762  1.4071
 5514TIP3    H237958   6.362   2.052   0.993  0.5934 -1.5374  1.5516
 5515TIP3   OH237959   2.875   5.651   4.092  0.2001  0.4691 -0.0124
 5515TIP3    H137960   2.908   5.740   4.083  1.3678 -0.1000 -2.0968
 5515TIP3    H237961   2.921   5.602   4.024 -1.0327 -1.5569  0.5347
 5516TIP3   OH237962   2.300   6.475  13.609 -0.1972  0.0040  0.8092
 5516TIP3    H137963   2.217   6.438  13.639 -0.6011  0.5111  0.3250
 5516TIP3    H237964   2.357   6.471  13.686 -1.1609  1.1382  1.6161
 5517TIP3   OH237965   4.724   0.774   0.447 -0.0711  0.5334 -0.4170
 5517TIP3    H137966   4.710   0.789   0.541 -2.3518 -0.7107 -0.4890
 5517TIP3    H237967   4.639   0.744   0.415  0.8790  0.1613 -2.7444
 5518TIP3   OH237968   3.359   4.339  15.912 -0.2753 -0.2242  0.3367
 5518TIP3    H137969   3.445   4.326  15.952 -0.4149 -0.5159  0.5487
 5518TIP3    H237970   3.307   4.383  15.979 -0.3997 -0.3809  0.3446
 5519TIP3   OH237971   5.160   3.037  12.492 -0.0443  1.1283 -0.1724
 5519TIP3    H137972   5.197   2.949  12.494 -1.5640  0.4273 -0.7580
 5519TIP3    H237973   5.221   3.091  12.541  3.2821  0.6989 -3.4107
 5520TIP3   OH237974   3.222   6.627   2.633 -0.2923  0.5754  0.4872
 5520TIP3    H137975   3.188   6.711   2.603 -0.5352  0.3002 -0.0317
 5520TIP3    H237976   3.254   6.644   2.722 -0.4063  1.1932  0.4172
 5521TIP3   OH237977   1.177   6.242  11.464  0.4209  0.5887 -0.1855
 5521TIP3    H137978   1.247   6.305  11.482  0.5751  0.3254  0.1681
 5521TIP3    H237979   1.174   6.235  11.369  0.9937  0.4775 -0.1968
 5522TIP3   OH237980   5.963   1.012   5.897 -0.2264 -0.0487 -0.3964
 5522TIP3    H137981   6.040   0.957   5.884  0.1240  0.3539 -0.0813
 5522TIP3    H237982   5.889   0.952   5.892  0.1894 -0.6949  0.7977
 5523TIP3   OH237983   6.326   2.187   2.846 -0.3191  0.5952  0.2935
 5523TIP3    H137984   6.257   2.138   2.890  1.7497 -2.0551  0.8226
 5523TIP3    H237985   6.375   2.230   2.917 -1.4816  2.6610 -0.0931
 5524TIP3   OH237986   2.077   4.721  15.442 -0.0086 -0.6280 -0.0553
 5524TIP3    H137987   2.160   4.679  15.422 -0.2366  0.0513 -2.7649
 5524TIP3    H237988   2.010   4.664  15.404 -0.5064  0.5958 -1.1077
 5525TIP3   OH237989   1.010   2.752  16.326 -0.7416 -0.6497 -0.6909
 5525TIP3    H137990   1.011   2.752  16.421 -1.9712 -0.3419 -0.6584
 5525TIP3    H237991   1.065   2.678  16.300  1.9732  0.9470  0.1869
 5526TIP3   OH237992   1.329   4.839   1.287 -0.4204  0.1402 -0.1459
 5526TIP3    H137993   1.334   4.836   1.191 -0.3857  0.1064 -0.1430
 5526TIP3    H237994   1.286   4.757   1.311 -0.7367  0.3009 -0.1528
 5527TIP3   OH237995   5.175   5.965  10.887  0.1886 -0.0294  0.4250
 5527TIP3    H137996   5.083   5.938  10.887  0.8307 -2.6267 -1.8148
 5527TIP3    H237997   5.218   5.904  10.947  0.3364  2.2122  2.7981
 5528TIP3   OH237998   1.897   5.567  15.940  0.4508  0.1382  0.6512
 5528TIP3    H137999   1.916   5.659  15.961  3.4955 -0.6027  1.6023
 5528TIP3    H238000   1.917   5.560  15.846 -3.3750  1.1575 -0.4010
 5529TIP3   OH238001   2.732   5.009  13.924 -0.3754  0.1678  0.6939
 5529TIP3    H138002   2.730   5.064  14.002  2.1993  1.7438 -0.2131
 5529TIP3    H238003   2.815   4.961  13.930 -1.3203 -1.6339  0.1276
 5530TIP3   OH238004   2.548   1.782   6.666 -0.1876 -0.6479  0.8199
 5530TIP3    H138005   2.502   1.799   6.584  1.2457 -0.0924  0.0940
 5530TIP3    H238006   2.520   1.694   6.692  0.0316 -1.2126 -0.7506
 5531TIP3   OH238007   1.908   5.676  14.440 -0.0564  0.1172  0.3185
 5531TIP3    H138008   1.859   5.669  14.358  1.1105  2.0756 -0.6117
 5531TIP3    H238009   1.980   5.736  14.420  2.0792 -1.7364  1.9464
 5532TIP3   OH238010   1.314   5.393  16.367  0.1097 -0.0591 -0.1234
 5532TIP3    H138011   1.333   5.469  16.421  0.6107  0.4819 -1.0266
 5532TIP3    H238012   1.363   5.409  16.285 -0.8484 -0.6983 -0.8435
 5533TIP3   OH238013   0.817   3.102   6.089  0.1238 -0.2533 -0.1880
 5533TIP3    H138014   0.908   3.087   6.113 -0.2896  0.6717  2.2178
 5533TIP3    H238015   0.813   3.196   6.070 -0.3753 -0.2502 -0.0724
 5534TIP3   OH238016   5.057   1.202  16.936 -0.1651 -0.6851 -0.4162
 5534TIP3    H138017   5.064   1.232  17.026 -0.6886  0.5399 -0.7636
 5534TIP3    H238018   4.999   1.126  16.940 -2.4207  0.9873 -0.0433
 5535TIP3   OH238019   3.409   1.929   2.524  0.3180  0.2515 -0.1783
 5535TIP3    H138020   3.498   1.947   2.494  0.6249 -0.5593  0.1959
 5535TIP3    H238021   3.357   2.002   2.492  1.5658  2.0854  1.7101
 5536TIP3   OH238022   3.302   3.290  11.244  0.1073 -0.4570  1.0341
 5536TIP3    H138023   3.396   3.297  11.260  0.2705 -0.4753  0.0897
 5536TIP3    H238024   3.293   3.225  11.175 -0.3827  1.5674 -0.9369
 5537TIP3   OH238025   5.098   4.855  13.713  0.3564 -0.6935 -0.6575
 5537TIP3    H138026   5.094   4.949  13.695 -0.5083 -0.6707 -0.4213
 5537TIP3    H238027   5.186   4.840  13.747  0.9947 -0.2253 -2.0401
 5538TIP3   OH238028   6.280   2.389   0.107 -0.0349  0.3904  0.7102
 5538TIP3    H138029   6.295   2.465   0.164 -0.3778  0.3770  0.8240
 5538TIP3    H238030   6.367   2.351   0.094  0.6602  2.6245 -1.9731
 5539TIP3   OH238031   1.775   2.483   1.842 -0.0520  0.1319 -0.0638
 5539TIP3    H138032   1.831   2.416   1.882  0.3218  0.2540 -0.3820
 5539TIP3    H238033   1.825   2.516   1.768 -0.6192  0.1101 -0.4679
 5540TIP3   OH238034   3.329   4.925  16.707  0.5099 -0.0432  0.6940
 5540TIP3    H138035   3.298   4.952  16.793 -0.5389 -1.6292  0.8637
 5540TIP3    H238036   3.357   5.006  16.665  0.0699  0.9012  2.1344
 5541TIP3   OH238037   4.678   5.024   4.329 -0.4279 -0.2634 -0.2694
 5541TIP3    H138038   4.620   5.005   4.403  1.5446 -0.4713  1.3450
 5541TIP3    H238039   4.643   5.104   4.291 -1.2980  0.0818  1.1636
 5542TIP3   OH238040   6.314   0.329   5.721  0.3191 -0.0423 -0.1364
 5542TIP3    H138041   6.265   0.336   5.640  2.6712  0.8326 -1.6041
 5542TIP3    H238042   6.304   0.415   5.762  1.5273  0.5721 -1.0546
 5543TIP3   OH238043   3.367   5.262  13.200 -0.2074 -0.2609 -0.6264
 5543TIP3    H138044   3.293   5.245  13.143 -1.2786 -1.4413  1.0289
 5543TIP3    H238045   3.428   5.190  13.184 -1.9420 -2.4722  1.8833
 5544TIP3   OH238046   2.785   1.622  13.105 -0.3330  0.0859  0.2578
 5544TIP3    H138047   2.818   1.589  13.022  0.6448 -1.4686  1.1977
 5544TIP3    H238048   2.713   1.563  13.128 -1.5780  1.3923 -0.1441
 5545TIP3   OH238049   2.178   2.210   1.870 -0.0212 -0.5936  0.0603
 5545TIP3    H138050   2.092   2.204   1.911 -0.5142  1.3325 -0.6151
 5545TIP3    H238051   2.159   2.231   1.778  1.1450  2.4735  0.4155
 5546TIP3   OH238052   4.645   1.464  12.910 -0.3548 -0.6087  0.2964
 5546TIP3    H138053   4.649   1.545  12.961  0.9476  1.1220 -2.3207
 5546TIP3    H238054   4.566   1.473  12.857 -0.1742 -1.0132 -0.0463
 5547TIP3   OH238055   1.398   3.265   5.456  0.2624 -0.5049 -0.4314
 5547TIP3    H138056   1.407   3.233   5.367  1.0131 -0.6263 -0.3160
 5547TIP3    H238057   1.460   3.338   5.461 -2.3419  1.9232 -1.1149
 5548TIP3   OH238058   0.004   3.675   6.128 -0.4982 -0.4554  0.1470
 5548TIP3    H138059   0.003   3.698   6.220 -0.5427 -1.0209  0.2942
 5548TIP3    H238060  -0.078   3.628   6.114 -0.1595 -1.0141 -0.0070
 5549TIP3   OH238061   3.362   1.770  16.989  0.4298 -0.1693  0.1550
 5549TIP3    H138062   3.365   1.786  17.083 -0.6824  1.6228 -0.0731
 5549TIP3    H238063   3.357   1.674  16.981 -0.2570 -0.3173  1.9357
 5550TIP3   OH238064   6.655   5.089   3.049 -0.4125  0.5049  0.1562
 5550TIP3    H138065   6.717   5.017   3.058  0.4243  0.8753 -2.0529
 5550TIP3    H238066   6.615   5.076   2.963 -2.7935  0.7912  1.1480
 5551TIP3   OH238067   5.582   2.423   4.829 -0.5116 -0.2128 -0.1699
 5551TIP3    H138068   5.502   2.459   4.867  0.4869  0.8966  0.9683
 5551TIP3    H238069   5.644   2.496   4.831  0.6114 -1.1264 -0.7780
 5552TIP3   OH238070   4.961   1.400  13.335  0.2586  0.3691 -0.2325
 5552TIP3    H138071   4.936   1.379  13.425  1.9606 -1.5913 -0.1452
 5552TIP3    H238072   4.888   1.369  13.281  0.0059 -0.0687  0.3591
 5553TIP3   OH238073   5.976   1.226  11.444  0.4660 -0.0357  0.0701
 5553TIP3    H138074   5.965   1.249  11.536  2.0299 -1.6510  0.7233
 5553TIP3    H238075   6.029   1.297  11.408  0.6457  0.1323  0.6550
 5554TIP3   OH238076   5.208   4.115  11.191 -0.1016 -0.2666 -0.1034
 5554TIP3    H138077   5.192   4.072  11.107 -3.3048 -1.9259  1.2175
 5554TIP3    H238078   5.136   4.177  11.201  0.6939  0.5123  1.1156
 5555TIP3   OH238079   6.220   6.066  15.058 -0.0284 -0.1208 -0.3568
 5555TIP3    H138080   6.133   6.095  15.085 -0.5873 -1.3139 -0.7841
 5555TIP3    H238081   6.204   6.011  14.981  1.0766 -0.5688 -0.2914
 5556TIP3   OH238082   3.604   3.099  15.094  0.3903 -0.3126  0.0284
 5556TIP3    H138083   3.583   3.148  15.174 -0.6519  0.9424 -0.9589
 5556TIP3    H238084   3.523   3.104  15.042  1.3168 -0.3706 -1.4589
 5557TIP3   OH238085   0.646   1.728  14.065  0.0938  0.3032 -0.6964
 5557TIP3    H138086   0.644   1.639  14.100  2.4611  0.2624 -0.5244
 5557TIP3    H238087   0.717   1.771  14.112  1.1681  1.2793 -3.0411
 5558TIP3   OH238088   1.945   3.766  12.994 -0.1937  0.3647 -0.4875
 5558TIP3    H138089   2.032   3.734  13.018 -0.4092 -0.8338 -1.2278
 5558TIP3    H238090   1.904   3.790  13.077  0.2058 -0.7309  0.0430
 5559TIP3   OH238091   5.062   0.923   6.020 -0.3395  0.3191  0.4757
 5559TIP3    H138092   4.992   0.859   6.004 -0.2084 -0.2312  1.9000
 5559TIP3    H238093   5.140   0.884   5.979 -0.1708 -0.6728  1.6683
 5560TIP3   OH238094   1.482   5.857  13.041  0.0329  0.2649  0.1218
 5560TIP3    H138095   1.416   5.869  12.973  0.5615  0.3878 -0.3732
 5560TIP3    H238096   1.561   5.829  12.994 -0.0491 -1.3030  0.8430
 5561TIP3   OH238097   3.750   6.029   5.451 -0.2165 -0.3814  0.6523
 5561TIP3    H138098   3.655   6.032   5.448 -0.3087 -2.1093  1.1550
 5561TIP3    H238099   3.771   5.961   5.515  1.3418 -1.3269 -0.7865
 5562TIP3   OH238100   0.777   4.407  15.224  0.0637  0.5289  0.3200
 5562TIP3    H138101   0.695   4.406  15.174 -0.4008  1.2160  1.0393
 5562TIP3    H238102   0.845   4.415  15.157 -0.4981  0.6923 -0.2459
 5563TIP3   OH238103   6.291   1.236   1.620 -0.0640 -0.4435  0.6968
 5563TIP3    H138104   6.319   1.161   1.672 -2.0944 -1.7619 -0.0102
 5563TIP3    H238105   6.314   1.213   1.530 -0.1593  0.0602  0.5389
 5564TIP3   OH238106   6.287   5.579   5.405 -0.0411 -0.1941  0.4536
 5564TIP3    H138107   6.379   5.558   5.383  0.6072  0.8476  2.0516
 5564TIP3    H238108   6.287   5.593   5.499 -1.5827  1.2264  0.2845
 5565TIP3   OH238109   4.410   6.114  12.255 -0.3025 -0.0836 -0.3688
 5565TIP3    H138110   4.370   6.052  12.194 -2.5154  0.0271  0.8514
 5565TIP3    H238111   4.443   6.185  12.200 -1.6476 -0.2955 -1.5039
 5566TIP3   OH238112   0.730   3.559  13.549 -0.0990  0.1402 -0.3769
 5566TIP3    H138113   0.798   3.626  13.565 -0.3497  0.2407  0.3247
 5566TIP3    H238114   0.695   3.580  13.463 -1.7873  2.3914  0.7371
 5567TIP3   OH238115   5.495   0.872   5.778 -0.1767 -0.5894 -0.1926
 5567TIP3    H138116   5.467   0.902   5.865  1.0985 -1.6895  0.6364
 5567TIP3    H238117   5.585   0.903   5.770 -0.4774  0.0172 -1.4001
 5568TIP3   OH238118   4.084   1.459   0.290  0.6423 -0.4560 -0.6643
 5568TIP3    H138119   4.060   1.435   0.380  3.0710 -1.6554 -0.2663
 5568TIP3    H238120   4.025   1.406   0.236  2.1394 -3.2665  0.2597
 5569TIP3   OH238121   1.592   5.398   3.497 -0.2753 -0.3368 -0.7990
 5569TIP3    H138122   1.581   5.490   3.521  1.0347 -0.5748  0.8499
 5569TIP3    H238123   1.676   5.395   3.451 -0.9858 -0.5051 -2.1283
 5570TIP3   OH238124   1.487   1.012  13.183 -0.7128 -0.4943  0.6328
 5570TIP3    H138125   1.411   1.065  13.161  0.0941  0.5792  0.3382
 5570TIP3    H238126   1.558   1.076  13.197  0.6285 -1.5283 -1.0394
 5571TIP3   OH238127   1.657   2.781  13.322 -0.1379 -0.3614  0.0408
 5571TIP3    H138128   1.750   2.769  13.302  0.6550  1.8202  2.0420
 5571TIP3    H238129   1.636   2.867  13.286 -1.7793 -1.3269 -1.4671
 5572TIP3   OH238130   5.239   4.388  15.614 -0.5560 -0.6112 -0.5955
 5572TIP3    H138131   5.211   4.463  15.666 -0.8285 -0.2099 -1.3112
 5572TIP3    H238132   5.235   4.418  15.524  0.3734 -1.1456 -0.8362
 5573TIP3   OH238133   3.490   5.276  16.956 -0.4517  0.1371 -0.3453
 5573TIP3    H138134   3.443   5.338  17.012 -0.2909  0.3980 -0.5017
 5573TIP3    H238135   3.506   5.201  17.013  0.4086  0.7159  0.1950
 5574TIP3   OH238136   2.460   2.732  15.972  0.0501  0.2764 -0.1220
 5574TIP3    H138137   2.550   2.703  15.961 -0.1432  0.3304 -2.1966
 5574TIP3    H238138   2.467   2.808  16.030  1.1172 -0.7311  1.1312
 5575TIP3   OH238139   6.445   4.469  12.291  0.0199 -0.3200  0.2322
 5575TIP3    H138140   6.450   4.375  12.275 -0.0798 -0.2933  0.0341
 5575TIP3    H238141   6.396   4.503  12.216 -0.4832 -0.1915  0.6191
 5576TIP3   OH238142   1.904   4.885   4.967  0.0662  0.2200 -0.1516
 5576TIP3    H138143   1.817   4.845   4.969  0.4634 -0.6441  0.6687
 5576TIP3    H238144   1.954   4.830   4.908  0.2226  0.3735 -0.1631
 5577TIP3   OH238145   3.186   0.090   0.115 -0.0805  0.1512  0.7219
 5577TIP3    H138146   3.269   0.134   0.136  0.3841  0.0001 -0.7158
 5577TIP3    H238147   3.212   0.007   0.075 -0.7809  1.5375 -2.9989
 5578TIP3   OH238148   2.938   2.081   2.352  0.2233 -0.1475 -0.4467
 5578TIP3    H138149   2.952   1.997   2.308 -3.6012 -0.9860 -0.3914
 5578TIP3    H238150   2.930   2.144   2.280 -0.9335 -0.6263 -0.7732
 5579TIP3   OH238151   3.609   3.548   4.822 -0.5850  0.3175 -0.4750
 5579TIP3    H138152   3.607   3.478   4.757  0.3912 -0.8993  0.7248
 5579TIP3    H238153   3.625   3.502   4.905 -2.3694  1.7488  0.7208
 5580TIP3   OH238154   4.885   1.012   6.204 -0.2602 -0.9958 -0.6347
 5580TIP3    H138155   4.880   0.964   6.286  1.1912  0.3488  0.2942
 5580TIP3    H238156   4.954   0.969   6.154 -0.2892 -1.0547 -0.6235
 5581TIP3   OH238157   3.726   3.406   4.315 -0.0716 -0.0396  0.0541
 5581TIP3    H138158   3.653   3.345   4.303  0.7029 -0.7418 -1.2992
 5581TIP3    H238159   3.741   3.444   4.229  0.9786  0.2993  0.3672
 5582TIP3   OH238160   0.763   3.296   5.275 -0.8084  0.2354  0.0851
 5582TIP3    H138161   0.806   3.226   5.325 -0.4311  0.2656 -0.1894
 5582TIP3    H238162   0.829   3.365   5.269 -0.8828  0.2716 -0.3626
 5583TIP3   OH238163   6.317   4.479  12.041  0.3829  0.2779  0.0699
 5583TIP3    H138164   6.226   4.507  12.036  0.0822 -0.7794 -1.0584
 5583TIP3    H238165   6.312   4.384  12.053  1.3215  0.0938 -0.8091
 5584TIP3   OH238166   5.266   1.988   1.478  0.1771 -0.5034  0.5323
 5584TIP3    H138167   5.234   1.932   1.549 -0.1674 -0.5613  0.3309
 5584TIP3    H238168   5.279   1.929   1.404 -0.8688 -0.2049  0.1017
 5585TIP3   OH238169   1.461   1.769   0.877  0.1975  0.1466  0.3763
 5585TIP3    H138170   1.535   1.827   0.856 -0.8111  1.1757 -0.4927
 5585TIP3    H238171   1.384   1.820   0.853 -0.8018 -0.9064  1.2803
 5586TIP3   OH238172   0.814   5.738   4.525 -0.0424 -0.3770 -0.1575
 5586TIP3    H138173   0.761   5.758   4.448  0.8547  2.9390 -0.0641
 5586TIP3    H238174   0.894   5.699   4.490  0.9369  2.2933 -1.1946
 5587TIP3   OH238175   3.075   5.447  15.276 -0.6012  0.5015  0.7722
 5587TIP3    H138176   3.140   5.403  15.221 -0.4672  1.4328  0.1691
 5587TIP3    H238177   3.113   5.447  15.363 -0.2509  0.1194  0.6212
 5588TIP3   OH238178   4.511   3.665  16.385  1.0767 -0.2161  0.2982
 5588TIP3    H138179   4.469   3.660  16.471 -0.4792  2.5654 -0.1708
 5588TIP3    H238180   4.575   3.736  16.393  0.3903  0.5947 -0.9628
 5589TIP3   OH238181   4.338   5.938   1.025  0.3133 -0.3854  0.8434
 5589TIP3    H138182   4.368   6.021   0.988  1.7557 -0.0400  2.6301
 5589TIP3    H238183   4.265   5.961   1.082 -1.0814 -0.7549 -0.7141
 5590TIP3   OH238184   6.461   1.872   1.706 -0.2173  0.6343  0.3153
 5590TIP3    H138185   6.430   1.823   1.630  0.6052  1.5814 -0.6747
 5590TIP3    H238186   6.552   1.894   1.684 -0.1333  1.3821  1.3421
 5591TIP3   OH238187   1.532   0.135   4.297  0.2287 -0.6236 -0.6503
 5591TIP3    H138188   1.576   0.054   4.323  2.8608  0.9812  0.3381
 5591TIP3    H238189   1.567   0.156   4.211 -2.0432 -1.5283 -1.8768
 5592TIP3   OH238190   2.147   5.066   2.359  0.0375 -0.1679 -0.0816
 5592TIP3    H138191   2.197   5.014   2.295  1.5190 -1.0729  1.7028
 5592TIP3    H238192   2.179   5.155   2.347 -0.3607 -0.1564 -1.1797
 5593TIP3   OH238193   0.039   2.520  17.008  0.2172 -0.2618 -0.3112
 5593TIP3    H138194   0.088   2.479  17.079  1.4093  1.9405  0.2493
 5593TIP3    H238195   0.106   2.559  16.952 -0.7867 -0.4030 -1.6697
 5594TIP3   OH238196   4.285   1.995   1.592  0.4086  0.2340  0.0795
 5594TIP3    H138197   4.233   1.918   1.618  0.3501  0.3657  0.3562
 5594TIP3    H238198   4.259   2.063   1.653  1.2405  0.1752  0.5245
 5595TIP3   OH238199   6.262   4.357  14.477  1.2405  0.1238  0.1744
 5595TIP3    H138200   6.268   4.372  14.382  1.9678 -1.0804  0.0205
 5595TIP3    H238201   6.198   4.287  14.486  0.4754  0.8704  0.6510
 5596TIP3   OH238202   6.675   2.073   2.270 -0.2340 -0.0335  0.3712
 5596TIP3    H138203   6.672   2.149   2.327 -1.0876 -0.6411  1.1708
 5596TIP3    H238204   6.596   2.023   2.291 -1.1684  0.2401 -2.0904
 5597TIP3   OH238205   1.466   4.215   0.282  0.2411  0.3756  0.9927
 5597TIP3    H138206   1.556   4.218   0.251  0.3127  1.0707  1.2534
 5597TIP3    H238207   1.418   4.273   0.222  0.3368  1.5494  1.9905
 5598TIP3   OH238208   1.900   3.414   3.700 -0.8123  0.5281  0.3299
 5598TIP3    H138209   1.845   3.454   3.767  0.9865  0.4295  1.9535
 5598TIP3    H238210   1.905   3.322   3.725  0.2982  0.5932  0.3801
 5599TIP3   OH238211   5.064   1.494   2.803 -0.2791  0.3686  0.5025
 5599TIP3    H138212   4.969   1.483   2.803 -0.2257 -0.1222  0.8622
 5599TIP3    H238213   5.083   1.544   2.723 -0.6914 -0.7961 -0.3400
 5600TIP3   OH238214   4.640   6.225  14.758  0.4444 -0.6545 -0.0180
 5600TIP3    H138215   4.594   6.308  14.773 -0.4390 -1.2486  0.6558
 5600TIP3    H238216   4.597   6.188  14.681  3.0250  1.0031 -2.4779
 5601TIP3   OH238217   6.120   2.233   4.992  0.0495 -0.3170 -0.2995
 5601TIP3    H138218   6.132   2.297   5.062  0.1388 -1.2323  0.5561
 5601TIP3    H238219   6.180   2.162   5.014 -1.8120 -1.8132  0.1727
 5602TIP3   OH238220   6.497   2.658  11.217  0.4078  0.2792  0.4494
 5602TIP3    H138221   6.484   2.728  11.280  0.2102 -1.0739  1.9945
 5602TIP3    H238222   6.589   2.633  11.227  0.2428 -0.2884  0.5894
 5603TIP3   OH238223   5.948   0.273  14.082 -0.4376  0.0627 -0.4124
 5603TIP3    H138224   5.905   0.289  13.998 -1.9486  0.4932  0.3981
 5603TIP3    H238225   5.974   0.360  14.113  2.2724 -0.2788 -1.4549
 5604TIP3   OH238226   6.424   1.674   6.352  0.1060  0.0398 -0.0357
 5604TIP3    H138227   6.491   1.627   6.402 -0.4030 -0.8239 -0.1409
 5604TIP3    H238228   6.426   1.763   6.387  0.7385 -0.1901  0.5320
 5605TIP3   OH238229   1.677   1.524  15.663 -0.0204 -0.7507 -0.0694
 5605TIP3    H138230   1.757   1.473  15.674 -1.0865 -2.2199  1.3532
 5605TIP3    H238231   1.607   1.459  15.658 -1.1637  0.4889 -1.2553
 5606TIP3   OH238232   6.173   3.018   6.261  0.0992  0.0247  0.1532
 5606TIP3    H138233   6.253   2.973   6.233 -0.7085 -0.3786 -1.6901
 5606TIP3    H238234   6.108   2.947   6.270 -0.5404  0.5374 -0.3264
 5607TIP3   OH238235   0.984   5.809   2.179  0.1345 -0.1787  0.8796
 5607TIP3    H138236   0.964   5.718   2.201 -1.8272 -0.6564 -2.2448
 5607TIP3    H238237   0.915   5.859   2.221 -1.2273 -0.6446 -0.7025
 5608TIP3   OH238238   2.308   2.913  17.020 -0.0784  0.0050 -0.4430
 5608TIP3    H138239   2.287   2.826  17.053 -0.8752  0.5943  0.7001
 5608TIP3    H238240   2.247   2.971  17.066  1.0347  1.2657 -0.4871
 5609TIP3   OH238241   3.249   0.809  12.216 -0.3323  0.6421  0.3453
 5609TIP3    H138242   3.302   0.828  12.293  0.4485  3.1474 -0.6945
 5609TIP3    H238243   3.296   0.850  12.144 -1.6461 -0.5935 -1.3035
 5610TIP3   OH238244   3.828   0.947   2.857 -0.4349  0.2999 -0.1027
 5610TIP3    H138245   3.877   1.027   2.842  1.0474 -0.2656  1.4271
 5610TIP3    H238246   3.750   0.974   2.906  0.2924  0.7635  0.8191
 5611TIP3   OH238247   5.402   0.396  11.491  0.3078 -0.7504 -0.7959
 5611TIP3    H138248   5.336   0.429  11.430 -0.1985 -1.5833 -0.7106
 5611TIP3    H238249   5.457   0.472  11.510  1.9823 -0.9162 -4.1609
 5612TIP3   OH238250   2.295   2.413  16.429 -0.2197 -0.4210 -0.7887
 5612TIP3    H138251   2.243   2.340  16.462  0.4283 -1.1431 -1.3214
 5612TIP3    H238252   2.382   2.375  16.413  1.2213  1.2503  2.2292
 5613TIP3   OH238253   5.208   3.421  11.674  0.5275  0.4060  0.0012
 5613TIP3    H138254   5.269   3.363  11.627  1.2650  2.2736 -1.4583
 5613TIP3    H238255   5.126   3.371  11.676  1.3805 -1.0836 -0.3345
 5614TIP3   OH238256   1.081   3.405   0.879 -0.0090  0.2186  0.2646
 5614TIP3    H138257   1.005   3.348   0.896  0.6534 -0.4041  1.2320
 5614TIP3    H238258   1.044   3.493   0.878 -1.0579 -0.1839 -1.2824
 5615TIP3   OH238259   3.270   6.250   3.597  0.0549  0.3185 -0.7203
 5615TIP3    H138260   3.238   6.327   3.551  1.2185  1.3429  0.1126
 5615TIP3    H238261   3.311   6.197   3.528  0.2189  0.9851 -1.1500
 5616TIP3   OH238262   2.814   0.306  12.510  0.5247  0.2659 -0.5578
 5616TIP3    H138263   2.855   0.230  12.469 -0.8670 -0.7616 -0.1091
 5616TIP3    H238264   2.726   0.277  12.533 -0.0425  2.0167 -0.3525
 5617TIP3   OH238265   4.225   2.783  15.688 -0.1483 -0.0548 -0.1637
 5617TIP3    H138266   4.220   2.766  15.783  1.0479 -2.6020 -0.4608
 5617TIP3    H238267   4.255   2.700  15.651  2.1965  1.6839 -2.4909
 5618TIP3   OH238268   1.469   0.044  14.711  0.1727 -0.0465 -0.3201
 5618TIP3    H138269   1.470   0.136  14.683  0.0833 -0.0185 -0.2322
 5618TIP3    H238270   1.515   0.045  14.795 -0.6822  0.0744  0.1562
 5619TIP3   OH238271   2.964   4.418  17.365 -0.3564  0.1255  0.3388
 5619TIP3    H138272   2.969   4.419  17.270  0.1195  0.6195  0.3659
 5619TIP3    H238273   3.015   4.494  17.393  0.6025 -0.7504  1.0367
 5620TIP3   OH238274   0.984   0.356  14.343  0.0539 -0.0866 -0.0686
 5620TIP3    H138275   1.000   0.388  14.255 -0.1334 -0.0404 -0.0856
 5620TIP3    H238276   0.971   0.435  14.396 -2.1873 -0.1324 -0.4344
 5621TIP3   OH238277   0.120   5.606   0.180 -1.5363  0.3366  0.3497
 5621TIP3    H138278   0.068   5.641   0.108 -1.3670 -0.5116 -0.1967
 5621TIP3    H238279   0.204   5.585   0.141 -2.0103 -1.7631  0.3733
 5622TIP3   OH238280   2.928   4.565   5.665 -0.6550  0.1419 -0.2911
 5622TIP3    H138281   2.982   4.509   5.609 -1.1348  0.2047 -0.8143
 5622TIP3    H238282   2.992   4.618   5.713 -0.2593  0.5042 -1.2070
 5623TIP3   OH238283   0.052   3.558  12.768 -0.0581 -0.1921  0.3686
 5623TIP3    H138284   0.126   3.498  12.765 -0.0285 -0.1228 -1.6504
 5623TIP3    H238285   0.032   3.577  12.676 -2.2674  0.1825  0.8560
 5624TIP3   OH238286   6.172   4.231   0.438  0.2274 -0.1730 -0.8765
 5624TIP3    H138287   6.177   4.294   0.510  1.1945 -0.7144 -0.4563
 5624TIP3    H238288   6.127   4.279   0.368  0.6345  0.8697 -0.4478
 5625TIP3   OH238289   3.548   2.056  12.759 -0.5482 -0.0429 -0.8363
 5625TIP3    H138290   3.518   2.058  12.850 -1.7004 -0.8203 -1.1755
 5625TIP3    H238291   3.614   2.126  12.754  1.4149 -1.6002  1.1874
 5626TIP3   OH238292   0.664   6.672   3.009 -0.5536 -0.6866  0.1154
 5626TIP3    H138293   0.686   6.763   2.990  1.8982 -1.8782 -4.1125
 5626TIP3    H238294   0.583   6.656   2.961 -1.0307 -0.7836  0.9235
 5627TIP3   OH238295   3.382   4.743   3.853 -0.6523  0.3769 -0.0041
 5627TIP3    H138296   3.439   4.780   3.786 -0.8157  2.6816  1.0280
 5627TIP3    H238297   3.294   4.753   3.817 -0.5671 -1.8339 -0.9704
 5628TIP3   OH238298   6.269   1.666  14.008  0.2265  0.3916  0.2091
 5628TIP3    H138299   6.353   1.660  13.962  0.6081 -1.3572  1.0617
 5628TIP3    H238300   6.291   1.703  14.094 -0.0826  1.1109 -0.0130
 5629TIP3   OH238301   0.353   4.149   3.156  0.4411  0.8604 -0.2262
 5629TIP3    H138302   0.280   4.200   3.190  0.0237  0.9448 -1.2117
 5629TIP3    H238303   0.423   4.214   3.143  0.2283  1.0257 -0.5753
 5630TIP3   OH238304   2.102   6.545   3.849 -0.1451 -0.3414  0.3598
 5630TIP3    H138305   2.102   6.459   3.805 -0.2862 -0.0222 -0.2866
 5630TIP3    H238306   2.031   6.539   3.913 -0.5950 -0.4906 -0.1393
 5631TIP3   OH238307   6.302   4.827   0.752  0.0091 -0.5697 -0.1083
 5631TIP3    H138308   6.327   4.798   0.840 -2.3097 -1.8673  0.2001
 5631TIP3    H238309   6.251   4.906   0.767  0.1484 -0.4312 -0.3577
 5632TIP3   OH238310   4.494   1.338   4.588  0.0576  0.2085  0.5811
 5632TIP3    H138311   4.489   1.245   4.566 -1.3458  0.1723  0.9358
 5632TIP3    H238312   4.573   1.369   4.544 -0.2618 -0.8271 -0.7900
 5633TIP3   OH238313   2.701   6.129   3.704 -0.3247  0.3296 -0.2770
 5633TIP3    H138314   2.776   6.078   3.735  1.1944  1.8753 -1.2115
 5633TIP3    H238315   2.690   6.102   3.613  0.4631  1.5666 -0.7672
 5634TIP3   OH238316   3.280   4.816   0.834 -0.3395 -0.0688  0.2821
 5634TIP3    H138317   3.344   4.790   0.900 -0.0700  0.4887  0.2414
 5634TIP3    H238318   3.195   4.802   0.877 -0.1623  1.0794  1.0789
 5635TIP3   OH238319   3.688   2.692  12.905 -0.4778 -0.4453 -0.0109
 5635TIP3    H138320   3.622   2.624  12.894 -3.0266  1.4911  1.7867
 5635TIP3    H238321   3.669   2.755  12.835 -3.0136  1.7372  2.3373
 5636TIP3   OH238322   1.029   0.471   3.870  0.1060  0.2844 -0.7563
 5636TIP3    H138323   1.052   0.494   3.780 -2.8514 -0.1757 -1.7537
 5636TIP3    H238324   0.985   0.386   3.862  0.7555 -0.3095  1.3185
 5637TIP3   OH238325   1.905   1.962  11.493  0.6765 -0.6036  0.0767
 5637TIP3    H138326   1.859   1.881  11.516 -0.5840 -0.2037 -0.8764
 5637TIP3    H238327   1.835   2.023  11.470  1.6771 -0.1379 -2.0357
 5638TIP3   OH238328   3.870   2.822  11.075 -0.5331 -0.6805  0.4027
 5638TIP3    H138329   3.872   2.768  11.153 -1.2778 -0.5198  0.5330
 5638TIP3    H238330   3.830   2.904  11.103 -1.2740 -0.8063 -0.2568
 5639TIP3   OH238331   0.070   0.507   3.500 -0.9532  0.5992  0.1775
 5639TIP3    H138332   0.059   0.472   3.589 -1.3869  1.5649  0.5180
 5639TIP3    H238333  -0.019   0.511   3.465 -0.6756 -0.9634 -0.7904
 5640TIP3   OH238334   0.123   0.107  13.826 -0.3830 -1.1000 -0.2887
 5640TIP3    H138335   0.161   0.057  13.899  1.4743 -0.8142 -1.0013
 5640TIP3    H238336   0.138   0.199  13.849 -0.6835 -0.9737 -0.5837
 5641TIP3   OH238337   0.768   2.392  12.985 -0.1515 -0.3887  0.4206
 5641TIP3    H138338   0.754   2.475  12.939  0.1106 -0.9285 -0.6596
 5641TIP3    H238339   0.779   2.417  13.077 -0.3141  0.7496  0.1416
 5642TIP3   OH238340   0.249   2.970  14.208  0.0324  0.0117 -0.4113
 5642TIP3    H138341   0.211   3.055  14.232 -0.6408 -0.5176  0.4713
 5642TIP3    H238342   0.209   2.950  14.123  2.5186  1.9479 -2.2115
 5643TIP3   OH238343   2.038   4.011  17.193  0.1584 -0.5542  0.6918
 5643TIP3    H138344   2.100   3.999  17.265  1.9913 -0.3419 -0.7806
 5643TIP3    H238345   2.079   4.075  17.136 -0.5076 -1.8215 -1.3115
 5644TIP3   OH238346   1.576   0.219   3.279  0.6021  0.1239 -0.3545
 5644TIP3    H138347   1.627   0.191   3.355 -0.1604 -0.2319  0.0422
 5644TIP3    H238348   1.524   0.143   3.255 -0.0516  0.5945 -0.4801
 5645TIP3   OH238349   5.153   6.733   3.480  0.1312 -0.0383  0.1917
 5645TIP3    H138350   5.131   6.823   3.455 -0.0609  0.1430  0.9714
 5645TIP3    H238351   5.244   6.721   3.452  0.3129  0.5645  0.5078
 5646TIP3   OH238352   3.715   2.304  12.785  0.0130  0.3422 -0.1435
 5646TIP3    H138353   3.693   2.352  12.865 -0.1956  0.0403 -0.0187
 5646TIP3    H238354   3.753   2.370  12.727  0.5480  0.4744  0.3586
 5647TIP3   OH238355   2.621   1.117   3.543  0.4353 -0.4314 -0.2483
 5647TIP3    H138356   2.666   1.036   3.568  0.6401  0.0187  0.9070
 5647TIP3    H238357   2.663   1.143   3.461  0.7243 -1.2250 -0.3599
 5648TIP3   OH238358   3.962   4.295  12.640  0.0136 -0.0784 -0.4301
 5648TIP3    H138359   3.919   4.251  12.567 -0.0353  0.7609 -0.9177
 5648TIP3    H238360   3.948   4.388  12.624 -0.4289  0.1026  0.9253
 5649TIP3   OH238361   3.705   4.485   0.450 -0.0072 -0.2025 -0.1038
 5649TIP3    H138362   3.686   4.455   0.539  0.8781 -1.3629 -0.2696
 5649TIP3    H238363   3.659   4.423   0.394  0.1422 -0.0012 -0.4517
 5650TIP3   OH238364   5.569   5.153   3.655  0.0453  0.8585  0.9740
 5650TIP3    H138365   5.521   5.213   3.711 -0.8333  0.4211  0.7059
 5650TIP3    H238366   5.503   5.118   3.595  0.7190  0.3322  0.5263
 5651TIP3   OH238367   4.650   6.105   2.263  0.0819  0.1519  0.0789
 5651TIP3    H138368   4.742   6.091   2.240  1.0831  2.9322  1.8809
 5651TIP3    H238369   4.622   6.021   2.300  1.8688 -0.7773 -0.5565
 5652TIP3   OH238370   1.197   6.396  12.253  0.1322 -0.2066 -0.1344
 5652TIP3    H138371   1.267   6.332  12.265 -0.8640 -1.3324 -0.2403
 5652TIP3    H238372   1.140   6.385  12.330  0.7600  1.6412  0.6567
 5653TIP3   OH238373   4.558   0.625   3.807 -0.3586  0.6333 -0.2253
 5653TIP3    H138374   4.606   0.543   3.818 -1.6660 -0.1667 -0.1750
 5653TIP3    H238375   4.481   0.615   3.863 -0.8645  1.6381 -0.7087
 5654TIP3   OH238376   5.677   6.602   0.046 -0.4817 -0.6689  0.1874
 5654TIP3    H138377   5.624   6.680   0.062 -0.4032 -0.7033  0.6292
 5654TIP3    H238378   5.661   6.580  -0.045 -0.3573 -0.0241  0.0062
 5655TIP3   OH238379   0.274   1.701  12.001  0.5567  0.0051  0.2368
 5655TIP3    H138380   0.263   1.609  12.025 -0.0027 -0.0741 -0.3122
 5655TIP3    H238381   0.257   1.704  11.907  1.8490  0.4616 -0.0095
 5656TIP3   OH238382   6.166   2.255  15.560  0.2157  0.1489 -0.3183
 5656TIP3    H138383   6.139   2.189  15.496 -0.0719  0.3980 -0.4525
 5656TIP3    H238384   6.095   2.319  15.561 -0.7974 -0.9071  1.7859
 5657TIP3   OH238385   0.779   5.424   1.964 -0.1103  0.1731  0.4572
 5657TIP3    H138386   0.849   5.361   1.977 -0.4565 -0.1046  0.9974
 5657TIP3    H238387   0.804   5.499   2.018  1.1345  1.2091 -1.4274
 5658TIP3   OH238388   3.717   4.437   3.150  0.2945 -0.2140  0.1351
 5658TIP3    H138389   3.772   4.444   3.228 -0.2168  0.4836  0.4435
 5658TIP3    H238390   3.738   4.515   3.098  1.6858 -1.3824 -1.1430
 5659TIP3   OH238391   6.197   5.930   4.889 -0.4395 -0.3089  0.1678
 5659TIP3    H138392   6.258   5.950   4.959  0.5498 -0.7824 -0.5404
 5659TIP3    H238393   6.248   5.879   4.826 -1.0158  0.9588 -1.3864
 5660TIP3   OH238394   4.007   0.303   4.198  0.3232 -0.3093  0.3070
 5660TIP3    H138395   4.024   0.365   4.269 -0.6489  1.5195 -0.9596
 5660TIP3    H238396   3.926   0.335   4.158 -1.0497 -3.2908  0.4584
 5661TIP3   OH238397   5.695   5.814   0.442 -0.6073  0.0351  0.7910
 5661TIP3    H138398   5.739   5.884   0.393  0.3251 -1.3395 -0.4046
 5661TIP3    H238399   5.653   5.859   0.515  0.1697  1.8128  0.1941
 5662TIP3   OH238400   1.472   0.766   1.559 -0.0373  0.4269  0.0206
 5662TIP3    H138401   1.411   0.726   1.497  1.2353 -0.5898 -0.6276
 5662TIP3    H238402   1.461   0.860   1.546 -1.0878  0.2557 -0.4475
 5663TIP3   OH238403   1.567   0.990   2.353  0.5336 -0.0938  0.2245
 5663TIP3    H138404   1.508   1.034   2.292 -0.0592 -1.5900 -0.3328
 5663TIP3    H238405   1.655   1.013   2.323  0.2491  1.1407  0.3026
 5664TIP3   OH238406   0.047   3.369   6.001  0.2178 -0.0322  0.3821
 5664TIP3    H138407   0.139   3.382   6.022  0.8424 -2.8325 -0.2752
 5664TIP3    H238408   0.032   3.424   5.924  1.7548 -0.6619 -0.3970
 5665TIP3   OH238409   5.020   1.260   5.523 -0.4374 -0.1193 -0.4269
 5665TIP3    H138410   5.022   1.355   5.519  0.6672 -0.0159  1.5682
 5665TIP3    H238411   4.971   1.240   5.603 -2.1900 -1.3106 -1.7054
 5666TIP3   OH238412   5.426   4.529   3.191 -0.1548  0.4950  0.1985
 5666TIP3    H138413   5.419   4.573   3.106 -0.3946  2.2862  1.1086
 5666TIP3    H238414   5.498   4.574   3.235  0.4286 -0.8794  0.7213
 5667TIP3   OH238415   2.118   0.029  14.980  0.2347 -0.3218 -0.2054
 5667TIP3    H138416   2.059  -0.027  15.030 -0.5005  0.1882 -0.4813
 5667TIP3    H238417   2.085   0.026  14.891 -0.5030  1.4090 -0.0243
 5668TIP3   OH238418   5.929   2.617  11.650 -0.1407 -0.1776 -0.1562
 5668TIP3    H138419   5.916   2.541  11.707 -2.0246  0.3365  0.1483
 5668TIP3    H238420   5.841   2.650  11.633  0.6041  1.6563 -0.6720
 5669TIP3   OH238421   4.283   3.643  15.830  1.0188 -0.0234  0.0503
 5669TIP3    H138422   4.293   3.615  15.739 -0.5157 -1.0334  0.1473
 5669TIP3    H238423   4.279   3.738  15.826  0.5323 -0.0818 -0.9914
 5670TIP3   OH238424   4.991   3.263  16.439 -0.3379 -0.4506 -0.1817
 5670TIP3    H138425   4.916   3.203  16.440 -0.9941  0.3548  0.1255
 5670TIP3    H238426   4.993   3.298  16.350 -1.2505  0.6341  0.1986
 5671TIP3   OH238427   2.587   4.625  12.969  0.2656  0.4823  0.5445
 5671TIP3    H138428   2.619   4.536  12.961  0.1832  0.4811  0.1707
 5671TIP3    H238429   2.664   4.680  12.952  0.2616  0.4808  0.5213
 5672TIP3   OH238430   1.618   1.340  14.478 -0.2295  0.2908  0.2049
 5672TIP3    H138431   1.588   1.413  14.423  0.9216  0.1014 -0.7198
 5672TIP3    H238432   1.686   1.298  14.426 -1.4867 -2.0295  0.3029
 5673TIP3   OH238433   4.919   5.282   3.062 -0.4209  0.0865 -0.0411
 5673TIP3    H138434   5.011   5.276   3.089  0.3071  1.4644 -2.0190
 5673TIP3    H238435   4.907   5.207   3.004 -0.7134 -0.3345  0.5412
 5674TIP3   OH238436   0.054   6.404  11.491 -0.8828 -0.1356  0.2045
 5674TIP3    H138437   0.039   6.464  11.418 -0.3460 -0.5729 -0.2790
 5674TIP3    H238438   0.013   6.447  11.566  0.0252  1.1329  0.0056
 5675TIP3   OH238439   3.115   4.239   5.778  0.4911 -0.3077 -0.4930
 5675TIP3    H138440   3.088   4.170   5.838 -2.4048 -1.4433 -2.8387
 5675TIP3    H238441   3.150   4.193   5.702 -0.7697  0.7282 -1.7745
 5676TIP3   OH238442   4.481   3.691  15.030  0.1345  0.4480  0.5600
 5676TIP3    H138443   4.536   3.620  14.997  0.8821  0.6230  1.4146
 5676TIP3    H238444   4.449   3.734  14.951  0.7394 -0.0232  0.0448
 5677TIP3   OH238445   1.591   1.642  11.380 -0.4007 -0.4408 -0.2777
 5677TIP3    H138446   1.597   1.553  11.344  0.9893  0.0508 -1.3605
 5677TIP3    H238447   1.636   1.697  11.316 -0.5289  0.9371  0.7688
 5678TIP3   OH238448   2.297   4.188  14.027 -0.6369 -0.2966 -0.9660
 5678TIP3    H138449   2.236   4.116  14.045  0.8101 -1.5349 -0.8464
 5678TIP3    H238450   2.384   4.150  14.038  0.2829  2.2087  2.3478
 5679TIP3   OH238451   2.659   0.317   2.007  0.3566  0.3480  0.4008
 5679TIP3    H138452   2.633   0.257   2.078  1.0732  1.0410  1.2812
 5679TIP3    H238453   2.633   0.403   2.039 -0.2274  0.5624 -0.6437
 5680TIP3   OH238454   5.445   1.211   2.638  0.2903  0.3991  0.0768
 5680TIP3    H138455   5.437   1.302   2.665  0.6837  0.3370  0.4080
 5680TIP3    H238456   5.420   1.161   2.716 -2.4245  0.1865 -0.8020
 5681TIP3   OH238457   2.371   5.389   5.024  0.0105  0.7402  0.0776
 5681TIP3    H138458   2.443   5.388   5.086  0.9794  2.6317 -0.9245
 5681TIP3    H238459   2.367   5.479   4.993 -0.8478  0.0218 -2.1182
 5682TIP3   OH238460   1.280   2.349  14.066 -0.2528  0.2337 -0.2955
 5682TIP3    H138461   1.366   2.375  14.034 -0.7607 -0.3965 -2.3341
 5682TIP3    H238462   1.221   2.417  14.034 -0.4253  1.2774  2.0498
 5683TIP3   OH238463   5.392   3.834   3.854  0.0039  0.3465 -0.0600
 5683TIP3    H138464   5.485   3.820   3.872  0.7325  3.2980 -1.0097
 5683TIP3    H238465   5.347   3.791   3.926  2.1850  0.4060  1.4270
 5684TIP3   OH238466   3.770   2.581   3.779  0.1339 -0.7443 -0.0555
 5684TIP3    H138467   3.792   2.624   3.862  1.1744  0.3469 -0.8593
 5684TIP3    H238468   3.679   2.603   3.764  0.6955  1.4555 -0.5502
 5685TIP3   OH238469   4.421   1.164   5.322 -0.2695  0.2984 -0.4057
 5685TIP3    H138470   4.336   1.137   5.289 -0.2788 -1.4170  0.9179
 5685TIP3    H238471   4.479   1.159   5.245 -0.8392 -0.9712 -0.7793
 5686TIP3   OH238472   4.362   3.919  15.953  0.1145 -0.1980 -0.4606
 5686TIP3    H138473   4.375   3.863  16.029 -0.7665  1.1570  0.7191
 5686TIP3    H238474   4.450   3.945  15.927  0.3616  2.8372  2.8249
 5687TIP3   OH238475   6.660   6.220   6.129 -0.1082  0.0044  0.5600
 5687TIP3    H138476   6.701   6.234   6.214 -3.9163 -1.2170  2.8010
 5687TIP3    H238477   6.621   6.133   6.134 -3.9511  1.4223 -0.7579
 5688TIP3   OH238478   5.381   0.468  17.334 -0.6409  0.3124  0.5791
 5688TIP3    H138479   5.318   0.540  17.330 -1.1414 -0.1075  0.9280
 5688TIP3    H238480   5.377   0.427  17.248  0.3279  1.2650  0.0462
 5689TIP3   OH238481   3.299   2.147  14.421  0.2116  0.4687  0.1788
 5689TIP3    H138482   3.213   2.190  14.415 -1.1386 -1.3691  3.6854
 5689TIP3    H238483   3.362   2.218  14.422 -1.4557  2.0124 -0.1840
 5690TIP3   OH238484   4.167   5.989   5.591 -0.0789 -0.0122  0.3677
 5690TIP3    H138485   4.126   5.904   5.605 -0.1709  0.0174  0.2793
 5690TIP3    H238486   4.239   5.971   5.530  0.7817 -0.2680  1.4269
 5691TIP3   OH238487   5.044   0.070   6.820  0.2719  0.3603 -0.4298
 5691TIP3    H138488   5.012  -0.000   6.764 -0.3267 -0.8416  1.3169
 5691TIP3    H238489   5.134   0.084   6.792 -0.1753  0.2277 -2.0424
 5692TIP3   OH238490   3.197   1.207  12.158 -0.1877  0.1757 -0.0066
 5692TIP3    H138491   3.227   1.137  12.100  0.8502  0.2740  0.3813
 5692TIP3    H238492   3.161   1.273  12.099  2.4368  1.0613 -0.7736
 5693TIP3   OH238493   1.150   6.332  13.058 -0.4341 -0.1717  0.1759
 5693TIP3    H138494   1.226   6.288  13.097  0.5288  0.2494 -1.1427
 5693TIP3    H238495   1.145   6.415  13.104  0.1646 -0.0283 -0.0108
 5694TIP3   OH238496   1.779   5.844  14.637  0.2096  0.6387 -0.2946
 5694TIP3    H138497   1.825   5.788  14.575  0.4480  0.2840  0.2061
 5694TIP3    H238498   1.825   5.833  14.720 -0.3225  0.8394  0.0376
 5695TIP3   OH238499   5.661   5.151   1.337 -0.0224 -0.2597 -0.1399
 5695TIP3    H138500   5.567   5.132   1.332  0.1838 -1.4767  0.1249
 5695TIP3    H238501   5.669   5.241   1.306 -1.2344 -0.2612 -0.5324
 5696TIP3   OH238502   5.551   5.957  13.567 -0.0633  0.0419 -0.4123
 5696TIP3    H138503   5.610   5.896  13.522  0.3720 -0.9373  1.3621
 5696TIP3    H238504   5.590   6.043  13.552  0.7797 -0.3941 -0.8227
 5697TIP3   OH238505   4.841   5.128  10.674 -0.4220  0.1904  0.1859
 5697TIP3    H138506   4.929   5.167  10.678 -0.4401  0.2634 -0.0675
 5697TIP3    H238507   4.847   5.049  10.727  0.0788 -0.3356 -0.6274
 5698TIP3   OH238508   3.221   2.976  13.797 -0.7910  0.1575 -0.5643
 5698TIP3    H138509   3.167   2.952  13.722  0.9242 -1.1915 -1.4550
 5698TIP3    H238510   3.262   3.059  13.772 -0.9450  0.1871 -0.7188
 5699TIP3   OH238511   0.732   5.369   5.056 -0.1391  0.1119  0.0860
 5699TIP3    H138512   0.644   5.406   5.059 -1.7382 -3.2654  0.3982
 5699TIP3    H238513   0.753   5.350   5.147 -0.2962 -1.4811 -0.1763
 5700TIP3   OH238514   5.356   1.719   3.880 -0.3552  0.3598  0.2209
 5700TIP3    H138515   5.360   1.734   3.974 -1.5664 -1.2171  0.5769
 5700TIP3    H238516   5.285   1.656   3.869  1.6550 -1.8023 -1.4291
 5701TIP3   OH238517   6.244   3.596  13.553 -0.2135  0.2916 -0.1210
 5701TIP3    H138518   6.223   3.519  13.605 -0.6065 -0.2478 -1.0681
 5701TIP3    H238519   6.308   3.644  13.606 -0.3079 -0.4463  0.6747
 5702TIP3   OH238520   5.816   3.781   1.291  0.4978 -0.4561  0.5537
 5702TIP3    H138521   5.749   3.839   1.328  0.9868  0.8231 -0.4713
 5702TIP3    H238522   5.816   3.802   1.198  0.9397 -1.8872  0.2194
 5703TIP3   OH238523   2.223   2.496   5.073  0.1529  0.0496 -0.0798
 5703TIP3    H138524   2.172   2.525   4.997  0.5271  1.3904  0.1527
 5703TIP3    H238525   2.253   2.409   5.049  1.5348  1.0036 -2.1450
 5704TIP3   OH238526   0.528   3.986   2.437 -0.2560 -0.2451  0.0257
 5704TIP3    H138527   0.572   3.910   2.396  0.0031 -0.2729  0.3490
 5704TIP3    H238528   0.523   4.051   2.367  1.9019  0.4326  0.4059
 5705TIP3   OH238529   0.226   6.460   5.204 -0.3912  0.0027 -0.1097
 5705TIP3    H138530   0.318   6.480   5.183 -0.4764  0.5863  0.0619
 5705TIP3    H238531   0.200   6.398   5.136  0.6130 -1.4633  0.7788
 5706TIP3   OH238532   6.576   5.824  14.798 -0.0089  0.3311  0.1630
 5706TIP3    H138533   6.549   5.789  14.883  0.1692  2.0988  0.9866
 5706TIP3    H238534   6.497   5.865  14.763 -0.5621 -1.8548 -1.3790
 5707TIP3   OH238535   2.918   0.165  10.897 -0.4000 -0.3453  0.7426
 5707TIP3    H138536   2.898   0.176  10.990 -0.3399  0.9547  0.6080
 5707TIP3    H238537   2.832   0.160  10.855 -0.4567  1.0179  0.6567
 5708TIP3   OH238538   4.435   5.685   0.986 -0.0289  0.1782  0.0576
 5708TIP3    H138539   4.396   5.772   0.993  1.0476  0.5922  1.6041
 5708TIP3    H238540   4.446   5.671   0.892 -3.3959  0.1921 -0.4360
 5709TIP3   OH238541   6.551   6.072  14.526 -0.3370 -0.6053  1.2238
 5709TIP3    H138542   6.484   6.022  14.572 -1.3818  1.4475  2.0500
 5709TIP3    H238543   6.518   6.162  14.526  0.8200 -0.0890 -1.3612
 5710TIP3   OH238544   1.302   5.002   3.392 -0.0744 -0.5747  0.1280
 5710TIP3    H138545   1.290   4.942   3.318  0.6967 -1.0884  0.4067
 5710TIP3    H238546   1.392   5.033   3.382 -0.3657  0.3003  0.1689
 5711TIP3   OH238547   0.963   3.547  14.978 -0.0471  0.0183  0.0608
 5711TIP3    H138548   0.904   3.567  15.050  2.2645  1.3209  1.7378
 5711TIP3    H238549   1.045   3.521  15.020  0.7043 -1.4997 -2.1376
 5712TIP3   OH238550   2.174   1.011  16.303  0.3014 -0.2466  0.4844
 5712TIP3    H138551   2.160   0.930  16.253  0.8517 -0.5591  0.8231
 5712TIP3    H238552   2.114   1.074  16.264 -0.7862 -1.0576  0.7913
 5713TIP3   OH238553   2.094   5.734   4.465 -0.4552  0.2412 -0.1222
 5713TIP3    H138554   2.075   5.825   4.443 -1.7479 -0.4371 -1.9448
 5713TIP3    H238555   2.041   5.716   4.543  0.5410  1.2746  0.8381
 5714TIP3   OH238556   3.226   4.991  15.978 -0.0308  0.5277 -0.1209
 5714TIP3    H138557   3.258   5.070  16.021 -0.7855  1.5798 -1.3941
 5714TIP3    H238558   3.239   5.008  15.884  1.7460 -1.7457 -0.3841
 5715TIP3   OH238559   1.411   1.414  16.054 -0.4515  0.2780 -0.1943
 5715TIP3    H138560   1.361   1.476  16.001 -1.1867 -0.1518 -0.0149
 5715TIP3    H238561   1.496   1.456  16.067 -0.8435  1.1194 -0.3093
 5716TIP3   OH238562   4.643   2.518  16.188  0.0310  0.3409  0.3951
 5716TIP3    H138563   4.642   2.426  16.214  2.6424  0.1149 -0.0470
 5716TIP3    H238564   4.557   2.532  16.147  0.0250 -2.2568 -0.6529
 5717TIP3   OH238565   2.621   0.941  11.499  0.5270  0.8225 -0.0116
 5717TIP3    H138566   2.667   1.004  11.554  0.7509  0.9356 -0.3279
 5717TIP3    H238567   2.681   0.923  11.427  0.5019  0.1792  0.1231
 5718TIP3   OH238568   5.438   4.186   5.106 -0.3958 -0.1316 -0.1587
 5718TIP3    H138569   5.484   4.266   5.132  0.4001  0.0226 -1.9144
 5718TIP3    H238570   5.369   4.176   5.171  0.6640  0.9406  1.1863
 5719TIP3   OH238571   0.769   4.651  17.253  0.3398 -0.3083 -0.2068
 5719TIP3    H138572   0.776   4.570  17.303  0.6835 -1.6271 -2.2840
 5719TIP3    H238573   0.854   4.660  17.209  0.0054  0.7195 -0.6727
 5720TIP3   OH238574   6.488   6.417  11.950 -1.0724 -0.1203  0.3701
 5720TIP3    H138575   6.496   6.503  11.992  0.0329 -0.9779  2.0085
 5720TIP3    H238576   6.395   6.410  11.928 -0.9442  2.1178 -1.2703
 5721TIP3   OH238577   4.103   0.108   4.558  0.1340 -0.0747 -0.8118
 5721TIP3    H138578   4.097   0.154   4.642  1.7198  0.8464 -1.1536
 5721TIP3    H238579   4.179   0.147   4.515 -0.2485 -0.9923 -2.4044
 5722TIP3   OH238580   4.844   2.147   2.268 -0.1065  0.3929 -0.1162
 5722TIP3    H138581   4.849   2.223   2.210 -0.6265  0.2068 -0.4162
 5722TIP3    H238582   4.760   2.106   2.247  0.3828 -0.5570 -0.3203
 5723TIP3   OH238583   4.263   6.543  14.583  0.1022 -0.0736  0.4068
 5723TIP3    H138584   4.206   6.614  14.611  3.1501  2.8386 -0.1493
 5723TIP3    H238585   4.203   6.474  14.555 -3.1283  2.8178 -0.5294
 5724TIP3   OH238586   3.659   5.645   5.537 -0.8373 -0.2657 -0.0414
 5724TIP3    H138587   3.629   5.658   5.626 -0.5842  0.2052 -0.0175
 5724TIP3    H238588   3.579   5.633   5.485 -0.9473 -1.3741  0.3674
 5725TIP3   OH238589   6.095   1.034   2.992  0.5271 -0.4378 -0.1457
 5725TIP3    H138590   6.036   0.986   3.050  0.1794  0.5223  0.3191
 5725TIP3    H238591   6.089   0.989   2.908  0.8100 -1.6671  0.4723
 5726TIP3   OH238592   3.904   3.595  16.947 -0.5370 -0.0235 -0.2707
 5726TIP3    H138593   3.998   3.615  16.947 -0.5921  0.2634  0.6091
 5726TIP3    H238594   3.882   3.582  17.039 -1.4458  0.3023 -0.4312
 5727TIP3   OH238595   6.699   5.769   5.488  0.1000 -0.5823 -0.1730
 5727TIP3    H138596   6.647   5.847   5.507 -1.7920 -1.8422  0.1251
 5727TIP3    H238597   6.759   5.763   5.562  0.4055  0.6666 -0.2889
 5728TIP3   OH238598   0.436   4.090   4.855 -0.3847 -0.0987 -0.4791
 5728TIP3    H138599   0.471   4.119   4.939  0.0537 -0.3630 -0.5681
 5728TIP3    H238600   0.447   4.165   4.797  0.5720 -0.3682 -0.6599
 5729TIP3   OH238601   0.155   3.970  11.056 -0.1513 -0.1878  0.0553
 5729TIP3    H138602   0.205   4.020  10.992 -1.8919  1.5802 -0.0225
 5729TIP3    H238603   0.209   3.970  11.135  0.8282 -0.0713 -0.5990
 5730TIP3   OH238604   1.952   3.676   0.316  0.3829  0.5567  1.0494
 5730TIP3    H138605   1.981   3.585   0.321 -2.0070 -0.5617 -2.1270
 5730TIP3    H238606   1.871   3.678   0.366 -0.0649  0.6711  0.3326
 5731TIP3   OH238607   0.969   1.373  12.741  0.5542 -0.4102 -1.1552
 5731TIP3    H138608   1.016   1.392  12.822  0.3851  0.1048 -1.1771
 5731TIP3    H238609   1.022   1.414  12.672  1.3188 -1.8038 -1.4577
 5732TIP3   OH238610   5.180   6.671  15.565 -0.9715 -0.9541  0.4190
 5732TIP3    H138611   5.159   6.764  15.563  0.2432 -0.6706 -1.4116
 5732TIP3    H238612   5.115   6.631  15.507 -1.1349 -1.1668  0.7474
 5733TIP3   OH238613   6.664   0.297  11.644 -0.3855  0.0174  0.4166
 5733TIP3    H138614   6.680   0.206  11.668  2.0730  0.5703  1.1858
 5733TIP3    H238615   6.747   0.327  11.609 -0.8227  2.2528  1.1284
 5734TIP3   OH238616   1.395   1.840   3.891  0.1233 -0.3639  0.1168
 5734TIP3    H138617   1.379   1.760   3.841 -2.1514  2.1136 -3.6245
 5734TIP3    H238618   1.485   1.863   3.870 -0.0479 -0.6231 -1.0019
 5735TIP3   OH238619   1.207   1.554   1.851  0.2534 -0.0456 -0.2035
 5735TIP3    H138620   1.284   1.609   1.865 -1.0988  2.3848 -1.6270
 5735TIP3    H238621   1.142   1.586   1.913 -0.5912  0.0529 -1.1036
 5736TIP3   OH238622   3.293   2.532  12.356 -0.2116 -0.3810 -0.3566
 5736TIP3    H138623   3.347   2.535  12.435  0.6815  1.8520 -0.9628
 5736TIP3    H238624   3.207   2.502  12.386  0.7574 -1.9756  1.0002
 5737TIP3   OH238625   0.139   6.335   4.981  0.3337 -0.5863 -0.4495
 5737TIP3    H138626   0.081   6.284   5.037  1.1909 -1.5712 -0.4451
 5737TIP3    H238627   0.132   6.293   4.895 -0.3023  0.3810 -0.8928
 5738TIP3   OH238628   3.465   4.470   2.700 -0.5339  0.5843  0.1861
 5738TIP3    H138629   3.485   4.445   2.609 -2.1350 -1.2442  0.2571
 5738TIP3    H238630   3.369   4.474   2.702 -0.4735  2.3401  1.4064
 5739TIP3   OH238631   3.766   3.378  12.185 -0.4586 -0.3613  0.0551
 5739TIP3    H138632   3.856   3.407  12.173 -0.3716 -1.1573 -1.4904
 5739TIP3    H238633   3.713   3.443  12.138 -0.7995  0.5028  1.5444
 5740TIP3   OH238634   3.931   5.758   4.076 -0.0086 -0.1837  0.0426
 5740TIP3    H138635   3.874   5.736   4.150  1.0362 -0.6100  0.7493
 5740TIP3    H238636   3.997   5.688   4.076  0.4749  0.2616 -0.7922
 5741TIP3   OH238637   3.149   1.772   2.464  0.5788 -0.5503  0.1177
 5741TIP3    H138638   3.059   1.770   2.496 -0.0242  1.3858 -1.2587
 5741TIP3    H238639   3.193   1.837   2.519  1.0905 -1.3268  0.6409
 5742TIP3   OH238640   5.278   3.620  15.971 -0.2642 -0.2285 -0.5797
 5742TIP3    H138641   5.288   3.527  15.954  1.1357 -0.4151  0.9937
 5742TIP3    H238642   5.341   3.639  16.040 -3.8365  0.8219  2.7987
 5743TIP3   OH238643   2.622   3.637  14.164  0.3789 -0.0174 -0.0845
 5743TIP3    H138644   2.631   3.674  14.252 -0.9123  0.3183 -0.0640
 5743TIP3    H238645   2.619   3.542  14.178  1.0041 -0.0083  0.1403
 5744TIP3   OH238646   1.530   6.373  11.735  0.2589 -0.0592  0.3605
 5744TIP3    H138647   1.615   6.393  11.774  0.0085  0.0250  0.8761
 5744TIP3    H238648   1.549   6.352  11.643  0.9546 -0.9383  0.6865
 5745TIP3   OH238649   1.811   4.180  15.842  0.1305  0.4475  0.6391
 5745TIP3    H138650   1.868   4.161  15.768  0.2521  0.0256  0.8372
 5745TIP3    H238651   1.723   4.164  15.809  0.2517 -0.9253  0.9209
 5746TIP3   OH238652   3.009   6.701   6.460 -0.1895 -0.8837 -0.1791
 5746TIP3    H138653   2.990   6.693   6.367 -0.7474 -1.2784 -0.0314
 5746TIP3    H238654   3.018   6.611   6.491 -1.7247 -0.8267  0.5019
 5747TIP3   OH238655   4.802   3.408  13.090 -0.3979  0.6680  0.1145
 5747TIP3    H138656   4.893   3.436  13.095 -0.5196  1.3367 -0.9609
 5747TIP3    H238657   4.780   3.418  12.997 -1.4153  0.0242  0.2728
 5748TIP3   OH238658   4.322   0.501  16.966  0.5640  0.4180  0.3227
 5748TIP3    H138659   4.231   0.513  16.939  0.6299  0.1209 -0.0409
 5748TIP3    H238660   4.369   0.572  16.924  0.7989 -0.5019 -1.0512
 5749TIP3   OH238661   2.187   4.057   2.072  0.8832 -0.2717 -0.1177
 5749TIP3    H138662   2.181   3.962   2.068 -1.1544 -0.1740 -1.0504
 5749TIP3    H238663   2.273   4.078   2.037  1.2749 -1.7561 -0.1045
 5750TIP3   OH238664   4.715   6.275   4.685  0.2367  0.0663  0.4621
 5750TIP3    H138665   4.686   6.366   4.693  1.2243  0.4539 -0.1974
 5750TIP3    H238666   4.761   6.257   4.767 -0.1603  0.0758  0.6914
 5751TIP3   OH238667   5.525   4.880   0.315 -0.4343 -0.0285  0.3189
 5751TIP3    H138668   5.467   4.854   0.243 -0.7690 -1.8688  1.1927
 5751TIP3    H238669   5.567   4.960   0.283 -0.6480 -0.7085 -1.8749
 5752TIP3   OH238670   2.793   1.230  13.688 -0.2492  0.5915  0.2124
 5752TIP3    H138671   2.821   1.279  13.766 -0.0807 -0.0436  0.5580
 5752TIP3    H238672   2.837   1.274  13.616  1.1154  0.0418  0.6779
 5753TIP3   OH238673   0.637   2.959   6.660 -0.6051 -0.1929 -0.0396
 5753TIP3    H138674   0.604   3.049   6.668  1.0324  0.4975 -0.5497
 5753TIP3    H238675   0.636   2.925   6.749 -1.3223  0.3033  0.1491
 5754TIP3   OH238676   2.137   2.535  11.456 -0.0361 -0.0699  0.2710
 5754TIP3    H138677   2.092   2.491  11.384 -1.9057  3.1577 -0.7279
 5754TIP3    H238678   2.067   2.560  11.516  0.8199  1.9384  0.5071
 5755TIP3   OH238679   4.884   1.499   0.338 -0.0293 -0.0407 -0.2576
 5755TIP3    H138680   4.833   1.422   0.314  0.1465 -0.4828  0.7397
 5755TIP3    H238681   4.930   1.474   0.418 -0.1630  1.1720  0.2335
 5756TIP3   OH238682   3.494   5.942   4.541 -0.2716  0.0131  0.0677
 5756TIP3    H138683   3.528   5.904   4.623 -0.7840  0.4532  0.4904
 5756TIP3    H238684   3.530   6.031   4.539 -1.5282  0.5579  0.6214
 5757TIP3   OH238685   1.985   5.850   2.023 -0.5750  0.0359  0.2222
 5757TIP3    H138686   1.966   5.850   1.930 -0.3980 -0.9075  0.1726
 5757TIP3    H238687   1.940   5.928   2.057 -0.0356  0.7915 -0.7543
 5758TIP3   OH238688   2.117   3.454  15.121 -0.1367 -0.1222  0.3732
 5758TIP3    H138689   2.048   3.407  15.167  1.2851 -2.4662  0.2926
 5758TIP3    H238690   2.131   3.403  15.041  0.5559  1.2595 -0.4271
 5759TIP3   OH238691   5.983   6.566  11.489 -0.0016  0.7683  0.4682
 5759TIP3    H138692   5.989   6.493  11.427  0.7345  0.0815  1.3182
 5759TIP3    H238693   5.891   6.568  11.516 -0.3182  1.0319 -0.5619
 5760TIP3   OH238694   2.654   0.328   3.505 -0.4141  0.4076 -0.6296
 5760TIP3    H138695   2.602   0.373   3.571 -0.5911 -0.7172  0.0369
 5760TIP3    H238696   2.591   0.294   3.442 -0.5006 -0.7518  0.0504
 5761TIP3   OH238697   5.698   0.046  12.578  0.1717  0.1493  0.5209
 5761TIP3    H138698   5.609   0.066  12.551 -0.2579 -3.2327 -1.1337
 5761TIP3    H238699   5.753   0.077  12.506 -0.0301 -0.5993  0.0343
 5762TIP3   OH238700   1.694   2.241   3.216 -0.8946  0.2299  0.0308
 5762TIP3    H138701   1.759   2.310   3.201 -1.6679  0.8130 -0.7295
 5762TIP3    H238702   1.676   2.245   3.310  0.1554  0.0573  0.2567
 5763TIP3   OH238703   6.162   4.729  16.856 -0.4134  0.6670  0.2538
 5763TIP3    H138704   6.160   4.755  16.948 -2.0626 -0.0906  0.4657
 5763TIP3    H238705   6.094   4.782  16.814  0.0887  0.7576 -0.4798
 5764TIP3   OH238706   4.041   4.950   2.762  0.4262  0.1769  0.5583
 5764TIP3    H138707   4.051   5.037   2.724 -0.0928  1.1376  2.5117
 5764TIP3    H238708   4.049   4.963   2.856 -2.9671 -1.3320  1.2215
 5765TIP3   OH238709   4.173   2.688  14.603  0.3038 -0.2777  0.5807
 5765TIP3    H138710   4.172   2.641  14.687 -1.3451  0.6535  1.1305
 5765TIP3    H238711   4.125   2.631  14.543  0.1756 -0.2642  0.6705
 5766TIP3   OH238712   2.614   3.991  15.742 -0.1045  0.4962  0.1134
 5766TIP3    H138713   2.624   3.898  15.726 -1.3297  0.1915  0.9822
 5766TIP3    H238714   2.580   3.997  15.831 -2.1276  1.6285 -0.6585
 5767TIP3   OH238715   3.482   5.739   3.247 -0.0621 -0.1995  0.1341
 5767TIP3    H138716   3.452   5.816   3.199 -0.0223 -0.0554  0.3410
 5767TIP3    H238717   3.459   5.757   3.338 -1.9810 -1.3288 -0.0587
 5768TIP3   OH238718   4.709   3.527   3.966  0.4680 -0.2766  0.2976
 5768TIP3    H138719   4.759   3.578   3.902 -0.7725  0.9869  0.2819
 5768TIP3    H238720   4.671   3.593   4.024 -0.3670 -1.2651  0.8927
 5769TIP3   OH238721   1.827   4.001   6.182 -0.5486 -0.0707 -0.3254
 5769TIP3    H138722   1.845   3.934   6.247 -0.8930  0.0987 -0.0490
 5769TIP3    H238723   1.733   4.016   6.190 -0.3717  0.8880  0.0490
 5770TIP3   OH238724   6.082   1.345   2.084 -0.0806 -0.0883 -0.4619
 5770TIP3    H138725   6.026   1.275   2.119 -0.1591 -0.1268 -0.6605
 5770TIP3    H238726   6.023   1.420   2.075  0.1115  0.1432  0.1926
 5771TIP3   OH238727   4.730   1.425   4.772  0.0444  0.3143 -0.1803
 5771TIP3    H138728   4.723   1.381   4.687 -0.2704  0.4851 -0.2439
 5771TIP3    H238729   4.690   1.511   4.759  0.1842  0.4227  0.0851
 5772TIP3   OH238730   3.927   5.360   5.009  0.4515 -0.9452  0.5825
 5772TIP3    H138731   3.955   5.434   4.955 -0.1266 -0.6050  0.7340
 5772TIP3    H238732   3.962   5.283   4.964  1.2814 -0.5690  0.5654
 5773TIP3   OH238733   3.966   4.483   5.198 -0.1466 -0.1902 -0.0982
 5773TIP3    H138734   3.958   4.404   5.144 -1.4396  0.5554 -1.0802
 5773TIP3    H238735   3.927   4.552   5.144  1.4988  1.2608  0.4814
 5774TIP3   OH238736   5.114   4.447  17.072  0.2470 -0.2072  0.4954
 5774TIP3    H138737   5.118   4.540  17.050 -1.1698 -0.2512 -0.0597
 5774TIP3    H238738   5.177   4.406  17.014 -1.7616 -0.0225 -2.0271
 5775TIP3   OH238739   0.868   4.479  13.767  0.1085  0.2125 -0.0511
 5775TIP3    H138740   0.857   4.477  13.672  1.4875 -0.1515 -0.2379
 5775TIP3    H238741   0.822   4.558  13.796  1.1483  1.3079 -1.2584
 5776TIP3   OH238742   0.575   0.622   2.919  0.3478 -0.7391 -0.9249
 5776TIP3    H138743   0.516   0.651   2.849 -1.2626 -1.8128 -0.0444
 5776TIP3    H238744   0.539   0.538   2.948  1.8637 -1.0402  0.1844
 5777TIP3   OH238745   2.562   3.705   5.275 -0.1796  0.4682 -0.3734
 5777TIP3    H138746   2.516   3.680   5.355 -0.4731  1.0827 -0.3418
 5777TIP3    H238747   2.649   3.733   5.305 -0.1562  0.3324 -0.3140
 5778TIP3   OH238748   4.987   5.114  13.637 -0.1817  0.7769 -0.2474
 5778TIP3    H138749   4.994   5.189  13.579  1.3658 -0.0253 -1.1422
 5778TIP3    H238750   4.893   5.099  13.646 -0.4686  1.1087 -2.3167
 5779TIP3   OH238751   0.834   3.007  12.822 -0.0015 -0.3474 -0.2699
 5779TIP3    H138752   0.909   3.001  12.881 -0.2948 -0.1836  0.1233
 5779TIP3    H238753   0.798   2.918  12.819  0.3441 -0.4750 -0.6387
 5780TIP3   OH238754   0.653   5.225   4.844 -0.0279 -0.0061 -0.1039
 5780TIP3    H138755   0.680   5.257   4.930  0.3265 -2.1476  0.6455
 5780TIP3    H238756   0.727   5.173   4.814 -1.3586 -1.9118 -0.2488
 5781TIP3   OH238757   5.416   5.880   3.032 -0.2501 -0.5056  1.2159
 5781TIP3    H138758   5.350   5.888   2.963  1.9123  0.3197 -0.9493
 5781TIP3    H238759   5.427   5.786   3.045 -1.2938 -0.6571  1.0620
 5782TIP3   OH238760   5.948   2.648   6.025 -0.4443 -0.1570 -0.0147
 5782TIP3    H138761   5.999   2.577   5.985 -0.5583 -0.5358  0.5179
 5782TIP3    H238762   5.869   2.653   5.972 -0.5905 -0.6532  0.1563
 5783TIP3   OH238763   1.661   4.338  10.760 -0.5427 -0.1190 -0.3061
 5783TIP3    H138764   1.650   4.376  10.847 -1.8859  0.7266 -0.8195
 5783TIP3    H238765   1.735   4.278  10.770 -0.7265 -0.1134  1.4264
 5784TIP3   OH238766   6.734   0.659  12.109  0.1770 -0.0572  0.0895
 5784TIP3    H138767   6.712   0.752  12.120 -1.4954 -0.0140 -2.4736
 5784TIP3    H238768   6.828   0.658  12.093  0.1725  1.2631 -0.1234
 5785TIP3   OH238769   5.983   4.273   1.694  0.3243  0.1200 -0.4806
 5785TIP3    H138770   5.967   4.179   1.697  2.4743 -0.3991 -2.6001
 5785TIP3    H238771   6.074   4.284   1.720 -0.5683  1.9771  2.3105
 5786TIP3   OH238772   3.721   0.644  15.143  0.1461 -0.1331 -0.7858
 5786TIP3    H138773   3.673   0.678  15.067 -0.4049  1.1896  0.1245
 5786TIP3    H238774   3.755   0.722  15.187 -0.4811 -0.7980  0.9459
 5787TIP3   OH238775   6.304   6.507   5.189 -0.0284 -0.2579 -0.3247
 5787TIP3    H138776   6.234   6.454   5.228 -0.3924  0.3368 -0.1464
 5787TIP3    H238777   6.309   6.585   5.245  2.1265 -1.1605  0.8451
 5788TIP3   OH238778   4.885   5.530   0.882  0.3057 -0.5358 -0.0581
 5788TIP3    H138779   4.912   5.439   0.894  1.1956 -0.1671  0.8099
 5788TIP3    H238780   4.843   5.554   0.964  0.1567 -0.1235 -0.2503
 5789TIP3   OH238781   1.375   5.234   0.292  0.0772 -0.1266 -0.5923
 5789TIP3    H138782   1.376   5.305   0.357 -0.2553 -1.7910  1.3305
 5789TIP3    H238783   1.283   5.223   0.270  0.0087 -0.5813 -0.1183
 5790TIP3   OH238784   6.439   0.395  11.083  0.2143 -0.1100 -0.6467
 5790TIP3    H138785   6.358   0.364  11.042 -0.5963  0.0909  0.7343
 5790TIP3    H238786   6.417   0.482  11.116  0.4741 -0.6859  1.1480
 5791TIP3   OH238787   5.216   4.822  12.376 -0.0535 -0.4604  0.4149
 5791TIP3    H138788   5.285   4.772  12.420  1.9732  0.2214 -1.7666
 5791TIP3    H238789   5.212   4.904  12.424  0.9524 -0.3638  0.3626
 5792TIP3   OH238790   0.567   6.619  15.527  0.0594  0.2871 -0.0703
 5792TIP3    H138791   0.517   6.648  15.451  0.0369  1.7647  0.4757
 5792TIP3    H238792   0.500   6.593  15.591  0.0343 -3.7924 -1.4565
 5793TIP3   OH238793   0.376   5.333   0.336  0.0369 -0.0315  1.1049
 5793TIP3    H138794   0.437   5.401   0.364  0.0370  0.0142  0.9927
 5793TIP3    H238795   0.409   5.303   0.251 -0.6722  0.7157  0.5466
 5794TIP3   OH238796   3.207   0.512   5.332 -0.0682  0.8253  0.6206
 5794TIP3    H138797   3.112   0.519   5.318 -0.1407  0.3246  0.8183
 5794TIP3    H238798   3.217   0.433   5.386  0.4460  0.9904  0.7713
 5795TIP3   OH238799   4.484   3.255   2.030 -0.9598  0.0383  0.3537
 5795TIP3    H138800   4.460   3.304   1.952 -0.0846 -0.0846  0.0092
 5795TIP3    H238801   4.531   3.178   1.998 -0.2144  0.2042  1.0121
 5796TIP3   OH238802   2.904   5.904  11.763  0.8035 -0.3011  0.0341
 5796TIP3    H138803   2.857   5.932  11.841  0.8830  2.7762 -0.9072
 5796TIP3    H238804   2.840   5.852  11.714 -0.4588  0.8086  0.4461
 5797TIP3   OH238805   3.612   4.226  12.206 -0.1782 -0.3748 -0.2459
 5797TIP3    H138806   3.555   4.266  12.271  0.3668 -2.2487  1.4966
 5797TIP3    H238807   3.579   4.258  12.122 -2.5359  0.1196  0.7859
 5798TIP3   OH238808   0.145   0.776  15.864 -0.1665 -0.7762  0.2995
 5798TIP3    H138809   0.182   0.768  15.776 -0.4684 -0.6510  0.1591
 5798TIP3    H238810   0.051   0.785  15.849 -0.3274 -1.7308  0.6772
 5799TIP3   OH238811   4.909   3.535  15.576 -0.2662  0.6342  0.0070
 5799TIP3    H138812   4.843   3.547  15.508  1.5895  2.0154 -1.6974
 5799TIP3    H238813   4.872   3.471  15.635 -1.8582 -0.9687 -2.5407
 5800TIP3   OH238814   0.605   2.923   0.560  0.1597 -0.9592 -0.3923
 5800TIP3    H138815   0.531   2.957   0.510  1.7535  0.3360 -1.9827
 5800TIP3    H238816   0.660   2.879   0.494  1.0423 -1.4966  0.6714
 5801TIP3   OH238817   3.537   5.066  13.108 -0.1262 -0.6178  0.0114
 5801TIP3    H138818   3.602   5.002  13.137  1.3979  0.6558 -0.5224
 5801TIP3    H238819   3.543   5.066  13.013 -0.5600 -0.1014 -0.0213
 5802TIP3   OH238820   4.895   3.262   0.428  0.4114 -0.3031 -0.2005
 5802TIP3    H138821   4.914   3.342   0.379  1.8975  0.8958  2.1595
 5802TIP3    H238822   4.888   3.194   0.361  1.4312  1.3788 -2.1239
 5803TIP3   OH238823   2.497   4.220   0.375 -0.4424  0.5745 -0.2096
 5803TIP3    H138824   2.431   4.229   0.307 -2.8859 -1.4479  1.6703
 5803TIP3    H238825   2.468   4.278   0.445  0.2268  0.3040  0.3048
 5804TIP3   OH238826   2.582   0.055   3.958 -0.2150 -1.0772 -0.0557
 5804TIP3    H138827   2.592   0.150   3.957 -1.2018 -0.9562  0.2035
 5804TIP3    H238828   2.490   0.041   3.937 -0.2234 -1.9508  0.5186
 5805TIP3   OH238829   0.067   1.410  12.852 -0.6822  0.4940  0.1879
 5805TIP3    H138830   0.091   1.492  12.896  0.8582  1.2198 -1.8550
 5805TIP3    H238831   0.024   1.437  12.771 -2.2012 -0.7825  0.5236
 5806TIP3   OH238832   0.365   2.889   2.024  0.0694  0.6306 -0.0850
 5806TIP3    H138833   0.388   2.801   1.994 -1.0722 -0.0118  0.8417
 5806TIP3    H238834   0.329   2.876   2.111 -2.7418  1.6589 -0.9968
 5807TIP3   OH238835   5.823   6.228   3.388  0.2124 -0.0897 -0.0629
 5807TIP3    H138836   5.802   6.136   3.371  0.6563 -0.0245 -1.0354
 5807TIP3    H238837   5.917   6.227   3.408  0.2542  0.1777 -0.2497
 5808TIP3   OH238838   1.225   3.554   4.915  0.3049 -0.1415  0.1075
 5808TIP3    H138839   1.255   3.527   5.002 -0.2151 -0.0481  0.3245
 5808TIP3    H238840   1.162   3.486   4.890  2.6084 -1.8289 -1.5136
 5809TIP3   OH238841   4.844   0.813   5.217 -0.1725  0.7076 -0.0380
 5809TIP3    H138842   4.805   0.900   5.217 -2.3415 -0.1111  2.9363
 5809TIP3    H238843   4.774   0.755   5.185  0.2073 -0.2614  0.8398
 5810TIP3   OH238844   4.087   2.300   3.375  0.2548 -0.0418  0.1463
 5810TIP3    H138845   4.061   2.337   3.459  0.3558 -0.6791  0.4667
 5810TIP3    H238846   4.005   2.268   3.337 -0.0674  1.7876 -0.7971
 5811TIP3   OH238847   1.685   0.694  12.544  0.0822  0.5445 -0.1613
 5811TIP3    H138848   1.648   0.666  12.628 -0.4415 -0.2590 -0.6503
 5811TIP3    H238849   1.758   0.750  12.568 -0.2326  0.5492  0.8367
 5812TIP3   OH238850   4.767   3.425   2.796  0.3909 -0.8592 -0.2702
 5812TIP3    H138851   4.701   3.379   2.849 -1.7447 -0.8302 -2.7126
 5812TIP3    H238852   4.821   3.470   2.861 -0.4406 -2.8540  1.9924
 5813TIP3   OH238853   2.074   4.914  13.646 -0.1715 -0.7596  0.2166
 5813TIP3    H138854   2.043   4.936  13.734  0.2045  0.4292  0.0681
 5813TIP3    H238855   2.083   4.998  13.602  1.1301 -1.2267 -0.4683
 5814TIP3   OH238856   5.612   2.588  11.857  0.2557 -0.0189  0.2275
 5814TIP3    H138857   5.609   2.681  11.835 -1.6333 -0.1823 -0.3915
 5814TIP3    H238858   5.552   2.580  11.931 -0.7094 -0.9457 -0.6292
 5815TIP3   OH238859   2.537   6.129  15.143  0.3142  0.2309 -0.5424
 5815TIP3    H138860   2.478   6.075  15.196 -0.6678  0.3194 -1.5097
 5815TIP3    H238861   2.600   6.165  15.206 -1.6671  1.5271  0.8080
 5816TIP3   OH238862   4.768   1.084  12.949 -0.0376  0.4184  0.0736
 5816TIP3    H138863   4.714   1.128  13.015 -1.1998 -0.0956 -0.5051
 5816TIP3    H238864   4.714   1.083  12.870  0.2277 -1.3689 -0.1391
 5817TIP3   OH238865   4.275   2.407   1.810  0.3300  0.0370  0.5048
 5817TIP3    H138866   4.235   2.473   1.866 -1.8740 -0.7018 -0.0903
 5817TIP3    H238867   4.300   2.456   1.731  0.6539  0.5315  0.9078
 5818TIP3   OH238868   4.121   6.464  11.810  0.3217 -0.1671 -0.1743
 5818TIP3    H138869   4.142   6.418  11.729 -2.7741 -1.0853 -0.5876
 5818TIP3    H238870   4.122   6.556  11.786  1.3704 -0.2992 -0.7154
 5819TIP3   OH238871   4.075   4.770  14.917 -0.5485 -0.0661 -0.6923
 5819TIP3    H138872   4.073   4.742  14.826 -1.0712  1.3495 -1.1504
 5819TIP3    H238873   3.998   4.730  14.957 -2.2400  1.9286 -1.7495
 5820TIP3   OH238874   1.983   0.848   6.091 -0.8308 -0.2779  0.1233
 5820TIP3    H138875   2.069   0.853   6.048 -0.7632  1.0785  0.3824
 5820TIP3    H238876   2.003   0.844   6.184 -1.0493  0.3746  0.2007
 5821TIP3   OH238877   5.857   6.016   3.892 -0.4765  0.0029  0.3658
 5821TIP3    H138878   5.835   6.108   3.908  0.0196  0.4687 -1.3597
 5821TIP3    H238879   5.891   5.984   3.975 -2.3031  0.8490  1.5120
 5822TIP3   OH238880   0.849   4.257   5.854 -0.9008  0.6898  0.1795
 5822TIP3    H138881   0.778   4.192   5.853 -1.0312  0.8126  0.8526
 5822TIP3    H238882   0.866   4.272   5.947  0.6981 -0.0698  0.0482
 5823TIP3   OH238883   5.572   2.253   0.853  0.3519 -0.0462  0.9046
 5823TIP3    H138884   5.610   2.182   0.801 -0.3875 -1.1263  1.7777
 5823TIP3    H238885   5.633   2.326   0.843  1.0969 -0.7775 -0.0802
 5824TIP3   OH238886   5.085   6.201   4.002 -0.2914  0.2127 -0.4353
 5824TIP3    H138887   5.081   6.286   4.046  1.1240 -0.5818  1.4111
 5824TIP3    H238888   5.138   6.147   4.061 -1.3735 -2.0374 -1.4053
 5825TIP3   OH238889   3.986   1.042  16.586 -0.5371  0.0622  0.1433
 5825TIP3    H138890   3.957   1.113  16.642  0.1285  1.2215 -0.9342
 5825TIP3    H238891   4.018   1.085  16.507  1.7257 -1.2655  0.2327
 5826TIP3   OH238892   6.376   4.253   1.440  0.4476  0.4326 -0.0915
 5826TIP3    H138893   6.381   4.324   1.377 -0.9444  0.3336 -0.3553
 5826TIP3    H238894   6.300   4.202   1.412  0.7462 -0.5045  0.7547
 5827TIP3   OH238895   4.007   2.538  12.478  0.3375 -0.1991  0.3885
 5827TIP3    H138896   3.987   2.606  12.413 -1.1508  0.5473  1.5558
 5827TIP3    H238897   4.102   2.541  12.488  0.4992  0.2748 -1.0951
 5828TIP3   OH238898   5.600   3.471  16.840  0.0009  0.7539 -0.7167
 5828TIP3    H138899   5.599   3.449  16.747  0.4381  0.0063 -0.5548
 5828TIP3    H238900   5.664   3.542  16.847  1.7478 -0.7442 -0.6855
 5829TIP3   OH238901   5.721   5.655   5.764 -0.7133 -0.6439 -0.4042
 5829TIP3    H138902   5.726   5.750   5.753 -2.0499 -0.6574 -1.3954
 5829TIP3    H238903   5.812   5.625   5.759 -0.0012  0.7687  2.2344
 5830TIP3   OH238904   3.576   1.866  14.610  0.4628 -0.6582 -0.3025
 5830TIP3    H138905   3.530   1.941  14.649 -0.8213  0.3164 -3.4342
 5830TIP3    H238906   3.508   1.817  14.564  2.0171 -1.0014 -2.3768
 5831TIP3   OH238907   4.093   5.055  12.601  0.3384  0.6757 -0.9619
 5831TIP3    H138908   4.030   4.994  12.562  1.0404 -0.4821 -0.3248
 5831TIP3    H238909   4.178   5.012  12.590  0.7657  1.2222  0.1046
 5832TIP3   OH238910   0.268   1.435  14.449 -0.4257 -0.2602  0.1952
 5832TIP3    H138911   0.273   1.339  14.457 -0.7141 -0.3041 -0.1287
 5832TIP3    H238912   0.178   1.455  14.477 -0.5751 -0.1478 -0.3685
 5833TIP3   OH238913   2.185   3.000  14.146 -0.0814 -0.5751 -0.2643
 5833TIP3    H138914   2.119   2.931  14.143  1.3606 -2.2346  2.6625
 5833TIP3    H238915   2.154   3.060  14.215 -0.3813  0.7728 -1.5111
 5834TIP3   OH238916   2.282   3.296  12.045 -0.3966  0.1955 -0.3263
 5834TIP3    H138917   2.358   3.337  12.003 -1.2554  0.6287 -1.5198
 5834TIP3    H238918   2.307   3.287  12.137  0.9462  0.6777 -0.6187
 5835TIP3   OH238919   1.128   3.051   5.513 -0.2245  0.4302  0.1149
 5835TIP3    H138920   1.157   3.052   5.422 -2.2468 -0.8352 -0.6092
 5835TIP3    H238921   1.065   3.123   5.519  0.7005  1.2096  0.8461
 5836TIP3   OH238922   3.374   1.201   0.064  0.6982 -0.4051 -0.2682
 5836TIP3    H138923   3.332   1.249   0.135 -0.1221  0.0887 -1.0755
 5836TIP3    H238924   3.430   1.137   0.109 -0.3019 -0.5441  0.8246
 5837TIP3   OH238925   4.284   4.756   5.194  0.3337 -0.2069  0.1854
 5837TIP3    H138926   4.231   4.829   5.228 -1.0469 -0.5688 -1.0876
 5837TIP3    H238927   4.236   4.726   5.117  2.0746 -1.0043 -0.6348
 5838TIP3   OH238928   3.886   6.154  10.998  0.2947 -0.3400 -0.1219
 5838TIP3    H138929   3.823   6.213  10.959 -0.8783 -0.7024  1.1620
 5838TIP3    H238930   3.969   6.175  10.954 -0.3316  1.3793 -0.5564
 5839TIP3   OH238931   2.923   2.779   2.721  0.1221  0.2906  0.1346
 5839TIP3    H138932   2.850   2.835   2.697 -1.0059 -1.3315 -0.4291
 5839TIP3    H238933   2.894   2.733   2.799  1.4387  1.1976  1.2071
 5840TIP3   OH238934   4.930   5.804  17.063  0.3038  0.0460  0.6134
 5840TIP3    H138935   4.846   5.829  17.102  0.1468 -1.0378  0.9985
 5840TIP3    H238936   4.971   5.748  17.129  1.3522  0.5984  0.4429
 5841TIP3   OH238937   4.166   4.444  14.953  0.2816 -0.4882  0.4595
 5841TIP3    H138938   4.210   4.414  14.873  0.9224 -1.8472  1.2806
 5841TIP3    H238939   4.234   4.493  15.000  0.0605 -0.1410  0.4213
 5842TIP3   OH238940   4.453   2.987  15.811  0.4863  0.2643 -0.3722
 5842TIP3    H138941   4.451   3.076  15.847 -0.7088  0.0946  0.0189
 5842TIP3    H238942   4.413   2.994  15.725 -3.1284 -0.4537  1.0859
 5843TIP3   OH238943   0.399   5.626   2.261 -0.3940 -0.0900  0.5955
 5843TIP3    H138944   0.394   5.574   2.181 -0.4405 -0.7098  0.9994
 5843TIP3    H238945   0.450   5.573   2.321 -0.0534  0.5322  0.8630
 5844TIP3   OH238946   2.779   5.912  15.530 -0.3953 -0.2035  0.2067
 5844TIP3    H138947   2.825   5.843  15.578 -0.8338 -1.3474 -0.9386
 5844TIP3    H238948   2.827   5.920  15.448  0.4898  1.8842  0.8532
 5845TIP3   OH238949   1.693   1.903   0.796  0.4014  0.1266  0.5040
 5845TIP3    H138950   1.678   1.995   0.773  0.9610  0.0932 -0.0256
 5845TIP3    H238951   1.741   1.867   0.721  1.1826 -0.3038  1.1882
 5846TIP3   OH238952   0.943   0.908  15.115  0.9137 -0.7461 -0.3536
 5846TIP3    H138953   0.878   0.843  15.141  1.0971 -0.8731 -0.2086
 5846TIP3    H238954   0.983   0.935  15.198  1.6666 -1.3217 -0.5165
 5847TIP3   OH238955   2.841   4.817  12.640  0.0190  0.1286 -0.5243
 5847TIP3    H138956   2.916   4.853  12.593 -0.0316  1.9089  0.6409
 5847TIP3    H238957   2.865   4.824  12.733 -1.0667 -0.4821 -0.1741
 5848TIP3   OH238958   6.177   2.094   0.629 -0.2867  0.0863 -0.1875
 5848TIP3    H138959   6.211   2.183   0.627  0.1997 -0.0316  1.3233
 5848TIP3    H238960   6.218   2.054   0.706 -0.5873 -1.4073 -0.7555
 5849TIP3   OH238961   0.745   4.483   3.876 -0.0210  0.3596 -0.0157
 5849TIP3    H138962   0.747   4.559   3.935  0.6032  1.5774 -1.5220
 5849TIP3    H238963   0.661   4.440   3.895 -1.5467  2.7935 -0.7284
 5850TIP3   OH238964   6.708   3.963   6.091  0.1237 -0.5610  0.3447
 5850TIP3    H138965   6.680   3.907   6.019  0.3870  2.7649 -2.5965
 5850TIP3    H238966   6.799   3.937   6.108  0.8033 -0.0418 -2.1270
 5851TIP3   OH238967   3.104   5.233   0.178 -0.4625  0.0247 -0.1604
 5851TIP3    H138968   3.155   5.263   0.103 -0.5010 -1.0309 -0.6197
 5851TIP3    H238969   3.169   5.220   0.247 -0.0272 -1.6348 -0.8407
 5852TIP3   OH238970   2.977   1.167   3.743  0.0075 -0.7069  0.1244
 5852TIP3    H138971   2.990   1.262   3.741 -0.2646 -0.6824 -0.6370
 5852TIP3    H238972   3.064   1.131   3.759  0.1959 -0.3474 -0.0784
 5853TIP3   OH238973   2.181   2.910   5.619 -0.1544 -0.2121  0.1853
 5853TIP3    H138974   2.255   2.958   5.657 -0.3040 -0.8054  1.2607
 5853TIP3    H238975   2.222   2.851   5.555  0.1704  0.3734 -0.1507
 5854TIP3   OH238976   2.327   4.860   5.353 -0.3137  0.1454 -0.4273
 5854TIP3    H138977   2.309   4.950   5.325  3.0081  1.6157  1.5343
 5854TIP3    H238978   2.390   4.827   5.289 -0.5547 -0.3076 -0.4321
 5855TIP3   OH238979   6.654   4.178  13.593 -0.3637 -0.4984 -0.1398
 5855TIP3    H138980   6.559   4.186  13.588 -0.5263 -1.5283  0.8791
 5855TIP3    H238981   6.686   4.220  13.513 -1.5967  0.8510  0.0331
 5856TIP3   OH238982   4.101   6.510   5.953  0.2402 -0.2874  0.2505
 5856TIP3    H138983   4.063   6.509   6.041 -2.5558  1.5861 -0.8237
 5856TIP3    H238984   4.089   6.599   5.922  3.3151 -0.2460 -1.2550
 5857TIP3   OH238985   6.321   3.851   0.798 -0.6428 -0.2178  0.8423
 5857TIP3    H138986   6.281   3.787   0.740  0.3369  0.5816 -0.7929
 5857TIP3    H238987   6.268   3.930   0.787  0.9329  0.6786 -0.9159
 5858TIP3   OH238988   2.464   4.268   3.833 -0.2465 -0.6075  0.3353
 5858TIP3    H138989   2.381   4.221   3.836  0.0395 -1.2545 -1.0832
 5858TIP3    H238990   2.456   4.326   3.756  0.5259 -0.5113  0.3158
 5859TIP3   OH238991   2.266   2.943   0.044  0.2752 -0.6899 -0.5067
 5859TIP3    H138992   2.348   2.914   0.082  0.6925 -1.6148 -2.0578
 5859TIP3    H238993   2.220   2.985   0.117  1.3035 -1.8206  0.8512
 5860TIP3   OH238994   6.262   6.632   3.525 -0.1568 -0.0968  0.0960
 5860TIP3    H138995   6.343   6.582   3.529 -0.2667 -0.9073 -3.7723
 5860TIP3    H238996   6.193   6.565   3.522 -0.3774  0.0553 -3.7780
 5861TIP3   OH238997   0.827   3.450   5.675 -0.6225  0.4695 -0.3430
 5861TIP3    H138998   0.784   3.420   5.756 -0.5961 -0.0333 -0.5139
 5861TIP3    H238999   0.760   3.442   5.608  0.0997 -1.6121 -0.8818
 5862TIP3   OH239000   0.503   6.133  16.493  0.0744 -0.6865 -0.1676
 5862TIP3    H139001   0.531   6.109  16.405  2.3427  0.5206  0.1426
 5862TIP3    H239002   0.450   6.059  16.522  0.1997 -1.6138 -2.1186
 5863TIP3   OH239003   2.074   1.910   0.675 -0.6807 -0.8581  0.1707
 5863TIP3    H139004   2.139   1.904   0.605 -1.0892  0.9803 -0.4203
 5863TIP3    H239005   1.994   1.875   0.637 -0.8929  0.1071 -0.3044
 5864TIP3   OH239006   3.402   2.474  15.316 -0.2585 -0.2109  0.3455
 5864TIP3    H139007   3.321   2.476  15.265  0.1141 -0.0859 -0.2471
 5864TIP3    H239008   3.375   2.444  15.403 -0.7992 -1.0627 -0.1044
 5865TIP3   OH239009   2.529   5.334  13.543  0.2977 -0.1486 -0.1335
 5865TIP3    H139010   2.580   5.274  13.489  1.6345 -0.1571  1.0671
 5865TIP3    H239011   2.528   5.292  13.630  0.2629  1.0062  0.4364
 5866TIP3   OH239012   6.183   3.872  15.907 -0.2449  0.0863 -0.0511
 5866TIP3    H139013   6.097   3.831  15.907 -0.6198  0.8161 -1.3550
 5866TIP3    H239014   6.165   3.966  15.911  0.5451  0.2124  0.9948
 5867TIP3   OH239015   4.665   6.065   1.612 -0.3021 -0.1096  0.0615
 5867TIP3    H139016   4.599   6.132   1.635  0.1955  0.0877  0.9578
 5867TIP3    H239017   4.687   6.084   1.521 -1.7007 -0.3677 -0.3632
 5868TIP3   OH239018   3.817   3.731   0.096 -0.3811 -0.1271  0.9547
 5868TIP3    H139019   3.799   3.802   0.158 -0.1646 -0.2287  1.1362
 5868TIP3    H239020   3.906   3.749   0.064 -1.0043  0.6911 -0.3665
 5869TIP3   OH239021   4.031   1.545   2.158 -0.2801  0.5148  0.3522
 5869TIP3    H139022   3.987   1.463   2.180 -0.9296  1.0309  1.0245
 5869TIP3    H239023   4.112   1.544   2.209  0.8245 -0.7235 -1.3644
 5870TIP3   OH239024   2.894   3.561   3.581  0.1753  0.1467  0.4926
 5870TIP3    H139025   2.853   3.580   3.665 -0.7975  0.8719 -0.1262
 5870TIP3    H239026   2.983   3.597   3.589  0.0902  0.2132  1.1967
 5871TIP3   OH239027   5.283   1.836  11.586  0.3247  0.3338  0.0405
 5871TIP3    H139028   5.219   1.893  11.543  0.3230  0.5081  0.2715
 5871TIP3    H239029   5.304   1.881  11.668 -1.3492 -1.0563  1.3148
 5872TIP3   OH239030   1.407   2.635  12.237 -0.3048  0.0686  0.1854
 5872TIP3    H139031   1.337   2.699  12.225  1.4777  1.9635 -0.8673
 5872TIP3    H239032   1.437   2.615  12.149 -0.2118 -1.5670  0.5528
 5873TIP3   OH239033   5.556   6.625  12.746  0.0324 -0.6109 -0.5619
 5873TIP3    H139034   5.621   6.673  12.693  1.0195 -1.7717 -0.4499
 5873TIP3    H239035   5.554   6.671  12.829  1.1647 -0.8847 -0.3651
 5874TIP3   OH239036   1.169   1.417   2.152 -0.1973 -0.1140  0.0296
 5874TIP3    H139037   1.102   1.483   2.135 -0.4109  0.3275  2.1931
 5874TIP3    H239038   1.153   1.348   2.088  0.0445  1.8868 -2.3442
 5875TIP3   OH239039   5.388   4.783   5.912  0.1969  0.1900  0.0862
 5875TIP3    H139040   5.464   4.841   5.901  1.1644 -1.1334 -0.6146
 5875TIP3    H239041   5.421   4.697   5.885 -0.4832 -1.1962  3.2369
 5876TIP3   OH239042   5.003   1.354  10.899 -0.0058 -0.1461  0.3649
 5876TIP3    H139043   5.011   1.287  10.831 -0.9344 -0.1179  0.2158
 5876TIP3    H239044   5.037   1.434  10.859  0.9527 -0.4790  0.4873
 5877TIP3   OH239045   4.119   2.657   4.602 -0.1058  0.2610 -0.1338
 5877TIP3    H139046   4.172   2.595   4.652 -0.1404  1.0290  0.8833
 5877TIP3    H239047   4.117   2.621   4.513 -0.6163 -1.5035  0.5560
 5878TIP3   OH239048   0.304   1.698   1.576 -0.4615  0.0016 -0.3155
 5878TIP3    H139049   0.293   1.769   1.513  0.3776  1.5161  1.1956
 5878TIP3    H239050   0.228   1.642   1.562 -1.8299  1.8774 -0.6766
 5879TIP3   OH239051   1.261   0.014  12.265 -0.2874  0.5438 -0.4702
 5879TIP3    H139052   1.291  -0.067  12.224 -2.2948 -0.2077 -0.5765
 5879TIP3    H239053   1.271   0.081  12.197  1.8597  0.5449 -0.2206
 5880TIP3   OH239054   2.724   2.108   3.643  0.0938  0.3617 -0.0277
 5880TIP3    H139055   2.815   2.137   3.651  0.3352 -0.3524 -0.1533
 5880TIP3    H239056   2.728   2.013   3.642 -0.8180  0.2638  1.7552
 5881TIP3   OH239057   4.562   0.076   4.685  0.4323 -0.2145  0.1957
 5881TIP3    H139058   4.499   0.037   4.625 -1.1000  0.6535  1.1596
 5881TIP3    H239059   4.546   0.033   4.768  1.0857  0.0538  0.4653
 5882TIP3   OH239060   0.932   0.513  13.281  0.4853 -0.3839 -0.3944
 5882TIP3    H139061   0.977   0.441  13.236  0.4957 -0.0194 -0.9755
 5882TIP3    H239062   0.856   0.471  13.321  0.5281 -0.7390 -0.6681
 5883TIP3   OH239063   3.227   3.092  15.425 -0.0254 -0.9717 -0.2837
 5883TIP3    H139064   3.232   3.182  15.394 -0.5310 -0.3292  1.4000
 5883TIP3    H239065   3.268   3.040  15.355  1.4681  0.6772 -0.7107
 5884TIP3   OH239066   4.655   1.342  14.500 -0.2617 -0.2116  0.7483
 5884TIP3    H139067   4.625   1.251  14.502 -1.0202  0.0370  1.1751
 5884TIP3    H239068   4.605   1.382  14.429 -2.5366  0.7123  2.7554
 5885TIP3   OH239069   2.876   4.636   4.944 -0.1202  0.6161 -0.3693
 5885TIP3    H139070   2.855   4.694   5.017 -2.5658 -0.7073  0.1081
 5885TIP3    H239071   2.911   4.557   4.986  0.7922  0.7807 -0.8163
 5886TIP3   OH239072   5.790   4.347   0.615  0.7128 -0.1421 -0.3432
 5886TIP3    H139073   5.696   4.334   0.620  0.8707 -1.6891 -0.7656
 5886TIP3    H239074   5.826   4.259   0.600  2.4302 -0.0158  2.3034
 5887TIP3   OH239075   2.678   1.948  14.513 -0.2904  0.2160  0.0891
 5887TIP3    H139076   2.762   1.947  14.558  0.4068  1.1596 -1.1266
 5887TIP3    H239077   2.629   2.018  14.556 -0.8459 -0.9482  1.4206
 5888TIP3   OH239078   0.824   3.987  12.388  0.1195  0.5259 -0.4683
 5888TIP3    H139079   0.784   3.907  12.422 -0.7408  0.6540 -1.1213
 5888TIP3    H239080   0.780   4.001  12.304  1.1659  0.9898 -0.9559
 5889TIP3   OH239081   1.296   0.533  16.060 -0.3716 -0.3349 -0.7983
 5889TIP3    H139082   1.251   0.599  16.114  0.0433 -0.0661 -0.7768
 5889TIP3    H239083   1.225   0.482  16.021 -0.6781 -1.1120  0.7007
 5890TIP3   OH239084   5.741   6.725   0.896 -0.1933 -0.1150  0.2902
 5890TIP3    H139085   5.698   6.708   0.981 -2.0907  1.3506 -0.2944
 5890TIP3    H239086   5.717   6.815   0.875  0.5647 -0.3169 -1.6469
 5891TIP3   OH239087   0.267   6.499   2.249  0.1266  0.1825  0.3668
 5891TIP3    H139088   0.220   6.471   2.171  0.7045  1.4211 -0.4425
 5891TIP3    H239089   0.202   6.546   2.301 -0.1316 -0.2100  0.4018
 5892TIP3   OH239090   6.331   4.381  11.693 -0.2132  0.1621 -0.1025
 5892TIP3    H139091   6.342   4.288  11.672  2.0899 -0.0169  1.5442
 5892TIP3    H239092   6.317   4.423  11.608  2.4713 -1.2316 -1.3525
 5893TIP3   OH239093   0.957   3.144   5.089 -0.3498  0.2788  0.1259
 5893TIP3    H139094   0.990   3.134   5.179 -2.5205  0.0247  0.9658
 5893TIP3    H239095   0.863   3.130   5.097 -0.6973  0.9822 -2.1082
 5894TIP3   OH239096   6.073   3.514  14.626 -0.2569  0.2587  0.2113
 5894TIP3    H139097   6.155   3.562  14.615  0.1508 -0.6542 -0.9641
 5894TIP3    H239098   6.097   3.422  14.613 -1.2662 -0.1465  1.0314
 5895TIP3   OH239099   1.042   3.489   0.513  0.1866 -0.1690  0.1264
 5895TIP3    H139100   1.037   3.477   0.418  1.9458 -0.0682  0.0010
 5895TIP3    H239101   1.133   3.509   0.530  0.1359 -1.2923  1.9804
 5896TIP3   OH239102   3.731   3.434  15.544 -0.0688 -0.0998 -0.4929
 5896TIP3    H139103   3.784   3.483  15.480 -0.0457  0.5423  0.0066
 5896TIP3    H239104   3.763   3.464  15.629 -2.0799  1.2942 -0.1524
 5897TIP3   OH239105   2.637   3.071   0.220  0.5925  0.6285 -0.1704
 5897TIP3    H139106   2.626   3.162   0.192 -0.2957  0.3461 -0.7641
 5897TIP3    H239107   2.731   3.061   0.234  0.6647  1.7247  0.1934
 5898TIP3   OH239108   5.380   3.279  15.055  0.1774  0.3181 -0.1783
 5898TIP3    H139109   5.290   3.313  15.058  0.3498  0.8937 -0.9267
 5898TIP3    H239110   5.383   3.227  14.974  0.6421  0.7112 -0.4222
 5899TIP3   OH239111   3.352   5.117   2.642  0.5497  0.0763 -0.0805
 5899TIP3    H139112   3.411   5.179   2.599  0.0469 -0.3494 -1.4295
 5899TIP3    H239113   3.378   5.032   2.608 -0.8476 -0.1154 -0.7379
 5900TIP3   OH239114   0.782   6.136   2.912  0.5455 -0.0789 -0.1128
 5900TIP3    H139115   0.824   6.165   2.832 -0.4261  0.5310 -0.4155
 5900TIP3    H239116   0.690   6.159   2.901 -0.1962 -2.6890 -0.1002
 5901TIP3   OH239117   3.039   2.373   4.459 -0.4887  0.0100 -0.4710
 5901TIP3    H139118   3.015   2.295   4.408 -2.4701 -0.7974  1.5331
 5901TIP3    H239119   3.121   2.403   4.419  0.9552 -3.6860 -0.7253
 5902TIP3   OH239120   1.601   6.307   0.552 -0.5688 -0.0756  0.7315
 5902TIP3    H139121   1.535   6.369   0.582  0.1616  1.4548 -0.6369
 5902TIP3    H239122   1.570   6.278   0.466  0.4978  0.6964  0.0487
 5903TIP3   OH239123   5.958   1.378   4.080 -0.3861 -0.0760 -0.1800
 5903TIP3    H139124   6.033   1.434   4.102  0.3079  0.5181 -3.5640
 5903TIP3    H239125   5.897   1.390   4.154  1.8226  1.2383  1.5606
 5904TIP3   OH239126   6.711   1.170  16.722  0.4500  0.0447 -0.3274
 5904TIP3    H139127   6.622   1.200  16.702 -0.7861 -2.6119  0.6944
 5904TIP3    H239128   6.721   1.186  16.816 -0.4826 -2.9691  0.3904
 5905TIP3   OH239129   1.142   4.112   4.726 -0.0945  0.3241 -0.3554
 5905TIP3    H139130   1.132   4.113   4.631  0.9705  1.6087 -0.4776
 5905TIP3    H239131   1.081   4.044   4.756 -2.7501  1.9525 -1.6934
 5906TIP3   OH239132   6.003   2.349  16.917  0.2225 -0.1264  0.2640
 5906TIP3    H139133   5.992   2.435  16.956  1.2254  0.6671 -1.1364
 5906TIP3    H239134   5.920   2.333  16.871 -0.8013 -0.8879  2.2657
 5907TIP3   OH239135   0.338   2.990  10.956  0.7803 -0.3969 -1.0431
 5907TIP3    H139136   0.258   2.990  10.903  0.1568  0.5527 -0.1390
 5907TIP3    H239137   0.361   2.898  10.963 -1.5996 -0.9643  0.6258
 5908TIP3   OH239138   0.373   3.115  13.880 -0.3970 -0.0169 -0.7439
 5908TIP3    H139139   0.368   3.156  13.794 -0.6845  0.5103 -0.4830
 5908TIP3    H239140   0.284   3.087  13.899 -0.3223 -0.1936 -0.6503
 5909TIP3   OH239141   2.459   0.052  12.002  1.0009 -0.0701  0.8684
 5909TIP3    H139142   2.429  -0.010  12.068  2.8296 -1.6581  0.3026
 5909TIP3    H239143   2.505   0.120  12.051 -1.0351  0.9160  1.4946
 5910TIP3   OH239144   0.499   0.309  12.525 -0.6670  0.7564 -0.4466
 5910TIP3    H139145   0.481   0.293  12.432  0.3591  0.2952 -0.5855
 5910TIP3    H239146   0.594   0.299  12.533 -0.8905 -0.6000  0.9192
 5911TIP3   OH239147   2.234   0.970  14.934  0.4725  0.6381  0.7333
 5911TIP3    H139148   2.206   0.915  15.008  1.9343  0.3903  1.1256
 5911TIP3    H239149   2.253   0.908  14.864  0.4719  0.7661  0.6199
 5912TIP3   OH239150   1.921   1.409   4.760  0.5401 -0.3987 -0.0100
 5912TIP3    H139151   1.919   1.328   4.811 -0.8137  0.0449  0.6826
 5912TIP3    H239152   2.009   1.410   4.721  1.3916 -1.0876  1.7635
 5913TIP3   OH239153   5.680   0.082  15.811 -0.5429  0.2238 -0.3167
 5913TIP3    H139154   5.750   0.035  15.767  3.2271  3.5935  1.4004
 5913TIP3    H239155   5.667   0.161  15.758 -0.5001  1.2866  1.2004
 5914TIP3   OH239156   3.673   3.758  16.923  0.3836  0.3790  0.1049
 5914TIP3    H139157   3.621   3.696  16.872  1.2210 -1.0802  0.9514
 5914TIP3    H239158   3.759   3.717  16.929  0.9706  1.6553  0.6675
 5915TIP3   OH239159   5.329   0.801  13.211 -0.5766 -0.0389  0.3690
 5915TIP3    H139160   5.303   0.752  13.133 -0.7996  2.5831 -1.3382
 5915TIP3    H239161   5.424   0.808  13.205 -0.7123  1.3172 -0.4486
 5916TIP3   OH239162   0.532   6.007   5.790 -0.2248 -0.1020 -0.2109
 5916TIP3    H139163   0.545   6.096   5.821  0.8860  0.2619 -1.6229
 5916TIP3    H239164   0.618   5.979   5.758 -0.7585 -1.3385 -0.6422
 5917TIP3   OH239165   0.629   0.760   1.923  0.0968 -0.1630 -0.2555
 5917TIP3    H139166   0.574   0.682   1.915 -1.0576  0.0469  3.5871
 5917TIP3    H239167   0.575   0.831   1.890 -0.7443 -0.3908  0.5903
 5918TIP3   OH239168   5.601   3.522  11.056 -0.2523 -0.7474  0.3941
 5918TIP3    H139169   5.684   3.560  11.027  0.3814 -0.7978  2.0467
 5918TIP3    H239170   5.561   3.487  10.976  0.7421  0.3508 -0.6082
 5919TIP3   OH239171   5.971   5.428   5.471  0.1272 -0.2026  0.5672
 5919TIP3    H139172   5.920   5.495   5.426 -0.7301  0.4422  2.3737
 5919TIP3    H239173   6.062   5.449   5.451 -0.1525  1.1485  0.6190
 5920TIP3   OH239174   4.824   3.738  13.605  0.2320  0.1207 -0.5690
 5920TIP3    H139175   4.911   3.720  13.568  0.0416 -1.6725 -0.2116
 5920TIP3    H239176   4.785   3.652  13.618 -1.0901  0.8492  0.5409
 5921TIP3   OH239177   0.283   1.695  16.207  0.2713 -0.2278  0.3789
 5921TIP3    H139178   0.270   1.618  16.263 -0.5631  0.3312  0.9754
 5921TIP3    H239179   0.217   1.757  16.237  0.1186  0.2578 -0.9388
 5922TIP3   OH239180   2.307   0.537  15.461 -0.3591  0.2363  0.3638
 5922TIP3    H139181   2.374   0.594  15.499 -1.4014  2.3828 -0.8051
 5922TIP3    H239182   2.228   0.591  15.461 -1.1130 -0.7759 -1.9374
 5923TIP3   OH239183   1.522   0.751  16.544 -0.4734 -0.4345  0.0021
 5923TIP3    H139184   1.427   0.749  16.533 -0.9348 -0.6531  3.1732
 5923TIP3    H239185   1.556   0.762  16.455 -3.4455  0.1727 -1.1743
 5924TIP3   OH239186   4.350   5.684  17.069  0.6592  0.3176 -0.1093
 5924TIP3    H139187   4.330   5.765  17.021 -0.6601 -0.0138 -0.1516
 5924TIP3    H239188   4.365   5.713  17.159  1.4879  0.7450 -0.3700
 5925TIP3   OH239189   1.579   5.353   5.249  0.0173 -0.1764  0.1165
 5925TIP3    H139190   1.524   5.431   5.250 -0.9900 -0.8450 -0.8886
 5925TIP3    H239191   1.635   5.362   5.326  0.6727  2.0566 -0.5413
 5926TIP3   OH239192   0.565   5.875   1.492 -0.3437  0.6814 -0.0033
 5926TIP3    H139193   0.586   5.969   1.483  1.7276  0.1422 -1.7654
 5926TIP3    H239194   0.477   5.867   1.455 -1.0102  2.0710  1.1838
 5927TIP3   OH239195   5.143   1.562   3.806 -0.1969  0.0327 -0.0331
 5927TIP3    H139196   5.085   1.504   3.856 -0.1640  1.1065  1.3164
 5927TIP3    H239197   5.204   1.503   3.762 -1.0154 -1.0141  0.1985
 5928TIP3   OH239198   4.830   5.046   1.345 -0.0800 -0.0819 -0.0729
 5928TIP3    H139199   4.825   4.951   1.337  1.1572 -0.5321  2.9651
 5928TIP3    H239200   4.784   5.066   1.427  2.4495  1.4415  1.1146
 5929TIP3   OH239201   0.362   2.647  13.846 -0.3409  0.6950  0.1178
 5929TIP3    H139202   0.335   2.620  13.758  0.6488  1.0721 -0.3214
 5929TIP3    H239203   0.427   2.581  13.872 -0.0617  1.0110  0.2379
 5930TIP3   OH239204   5.907   2.164  13.589 -0.1233  0.0221  0.0322
 5930TIP3    H139205   5.867   2.080  13.565 -0.7490  0.5413 -0.7894
 5930TIP3    H239206   5.851   2.198  13.659 -0.4121  0.1732 -0.2681
 5931TIP3   OH239207   4.314   4.670   4.445  0.0050 -0.3098 -0.0191
 5931TIP3    H139208   4.246   4.731   4.415 -1.6754 -1.9719  0.1839
 5931TIP3    H239209   4.380   4.673   4.376  0.6080  2.5722  0.5443
 5932TIP3   OH239210   0.842   5.864   3.772 -0.0247  0.2663  0.3408
 5932TIP3    H139211   0.780   5.932   3.799  0.6059  0.5363  1.1454
 5932TIP3    H239212   0.818   5.788   3.825  1.1504  0.7662  1.6296
 5933TIP3   OH239213   3.840   6.364  17.172 -0.1606  0.2922 -0.2168
 5933TIP3    H139214   3.775   6.401  17.113 -0.6035 -0.4068 -0.1714
 5933TIP3    H239215   3.909   6.430  17.176 -0.5834  0.7709 -0.7407
 5934TIP3   OH239216   0.974   1.992  17.330  0.3391  0.3616  0.0571
 5934TIP3    H139217   0.984   2.027  17.241  0.0947  2.4505  0.7876
 5934TIP3    H239218   0.889   1.949  17.329  0.2190  0.5989 -0.6470
 5935TIP3   OH239219   3.231   6.046  15.175 -0.3228 -0.5522 -0.4726
 5935TIP3    H139220   3.143   6.046  15.138  0.1621 -1.7656 -1.7308
 5935TIP3    H239221   3.270   5.964  15.144  0.8661 -0.5764  0.9984
 5936TIP3   OH239222   4.348   2.740   3.749 -0.4466  0.0346 -0.3577
 5936TIP3    H139223   4.301   2.752   3.667 -2.0514 -2.5317  0.0464
 5936TIP3    H239224   4.281   2.706   3.810  1.0280  0.3566  1.5512
 5937TIP3   OH239225   2.833   1.866   3.344  0.4130  0.0360 -0.0872
 5937TIP3    H139226   2.887   1.800   3.386  0.4724  2.1485  3.6121
 5937TIP3    H239227   2.864   1.869   3.254  2.3582 -2.8627  0.3487
 5938TIP3   OH239228   1.853   4.501   4.496 -0.0836 -0.2998 -0.2503
 5938TIP3    H139229   1.925   4.442   4.517 -0.6574 -0.7886  0.3664
 5938TIP3    H239230   1.884   4.587   4.525 -0.2030 -0.6982  1.0747
 5939TIP3   OH239231   5.880   5.189   4.447  0.4312  0.0096  0.5775
 5939TIP3    H139232   5.938   5.120   4.478  0.1855 -0.9754 -1.0473
 5939TIP3    H239233   5.914   5.213   4.361 -1.3641 -0.3899 -0.2923
 5940TIP3   OH239234   6.389   6.681  15.907  0.0144 -0.0705 -1.0072
 5940TIP3    H139235   6.403   6.665  16.001 -1.6677  0.8755 -0.5552
 5940TIP3    H239236   6.363   6.596  15.872  1.4517 -0.6195 -0.8112
 5941TIP3   OH239237   2.989   3.383   0.095  0.1271  0.3214  0.0813
 5941TIP3    H139238   2.931   3.412   0.165  0.3007  1.5388 -0.2439
 5941TIP3    H239239   2.951   3.420   0.015  0.5417 -0.0991 -0.3194
 5942TIP3   OH239240   2.620   6.568   2.271  0.1425 -0.6148  0.1052
 5942TIP3    H139241   2.580   6.538   2.352 -0.9784 -0.2209 -0.2881
 5942TIP3    H239242   2.549   6.609   2.222  0.1459 -3.0673 -2.2129
 5943TIP3   OH239243   3.568   4.984   5.304  0.0968 -0.2335 -0.5650
 5943TIP3    H139244   3.610   4.922   5.245 -0.8506 -0.7258 -0.7407
 5943TIP3    H239245   3.635   5.050   5.321  0.6028 -0.4436 -1.6524
 5944TIP3   OH239246   2.983   1.052   2.255 -0.6616  0.4527  0.1006
 5944TIP3    H139247   3.051   0.989   2.278 -0.7031 -0.0174 -0.9884
 5944TIP3    H239248   2.919   1.000   2.205 -0.4710  1.4220 -1.2058
 5945TIP3   OH239249   0.608   6.342   4.349 -0.2402  0.5882  0.2603
 5945TIP3    H139250   0.631   6.366   4.259 -1.5267  0.1532 -0.2161
 5945TIP3    H239251   0.652   6.408   4.403  2.0881 -0.2296 -0.5301
 5946TIP3   OH239252   4.191   3.100  16.758  0.0227  0.0694  0.3605
 5946TIP3    H139253   4.220   3.169  16.698 -0.7235  0.7444  0.7567
 5946TIP3    H239254   4.271   3.072  16.804  0.3527  0.5720  0.0971
 5947TIP3   OH239255   4.102   5.940   0.039  0.4118 -0.0645  0.5711
 5947TIP3    H139256   4.073   5.894   0.117  0.1200 -0.2748  0.3430
 5947TIP3    H239257   4.029   5.999   0.017  1.1596  1.1963  1.3907
 5948TIP3   OH239258   6.179   5.387  11.649 -0.0174  0.0287 -0.0720
 5948TIP3    H139259   6.166   5.293  11.662 -1.4085 -0.0962 -1.8900
 5948TIP3    H239260   6.103   5.428  11.689  0.3549  0.3440  0.3140
 5949TIP3   OH239261   4.300   3.869   6.263  0.3765  0.0957 -0.5182
 5949TIP3    H139262   4.381   3.825   6.236 -0.0642 -1.6380  0.7892
 5949TIP3    H239263   4.308   3.877   6.358 -0.1104  1.8209 -0.5824
 5950TIP3   OH239264   3.361   3.350  16.556 -0.1482 -0.2311  0.3393
 5950TIP3    H139265   3.290   3.413  16.544 -0.4639 -0.5056  0.7284
 5950TIP3    H239266   3.331   3.271  16.512  1.0348  0.4259 -1.7657
 5951TIP3   OH239267   4.474   4.156   3.375 -0.1489 -0.1165 -0.9964
 5951TIP3    H139268   4.515   4.123   3.454  0.2469  0.6436 -0.8758
 5951TIP3    H239269   4.531   4.226   3.345 -0.5890 -0.0217 -1.6449
 5952TIP3   OH239270   2.521   3.722  11.705 -0.0482 -0.4021  0.2019
 5952TIP3    H139271   2.547   3.701  11.615 -1.4443 -0.4699 -0.2091
 5952TIP3    H239272   2.469   3.802  11.696  1.4098  0.7096  1.2072
 5953TIP3   OH239273   5.798   1.893  10.522  0.0074 -0.0442  0.0267
 5953TIP3    H139274   5.730   1.887  10.455  1.9958 -1.2156 -2.0555
 5953TIP3    H239275   5.767   1.839  10.594 -1.6463  0.2207 -0.4606
 5954TIP3   OH239276   6.633   0.374   0.440  0.2860  0.7731 -0.3511
 5954TIP3    H139277   6.540   0.350   0.446  0.5208  0.1518  1.9013
 5954TIP3    H239278   6.671   0.307   0.383 -0.0258 -1.3763  1.7509
 5955TIP3   OH239279   1.903   0.121  12.284 -0.1237 -0.1234 -0.9496
 5955TIP3    H139280   1.815   0.099  12.314  0.4686  0.5494  1.4945
 5955TIP3    H239281   1.950   0.038  12.280 -0.6565 -0.4030 -1.6297
 5956TIP3   OH239282   0.492   1.357  16.465  0.0628  0.1219 -0.3281
 5956TIP3    H139283   0.452   1.336  16.550  0.6780 -0.8545 -0.2642
 5956TIP3    H239284   0.439   1.309  16.402  0.4330 -0.2584 -0.3545
 5957TIP3   OH239285   0.961   5.025  17.246 -0.0378  0.5093  0.4773
 5957TIP3    H139286   1.049   5.047  17.215  0.6702 -0.9515  1.3534
 5957TIP3    H239287   0.944   5.087  17.317  0.5893  0.3068  0.8053
 5958TIP3   OH239288   1.243   4.625   6.418  0.4189  0.3827  0.2869
 5958TIP3    H139289   1.291   4.624   6.501  0.2477  1.2207  0.4107
 5958TIP3    H239290   1.172   4.688   6.433 -0.2117 -0.2084 -0.1726
 5959TIP3   OH239291   6.040   5.138  14.261 -0.4018  0.3781 -0.4701
 5959TIP3    H139292   6.006   5.212  14.210 -0.8104  1.1875  0.9117
 5959TIP3    H239293   5.998   5.147  14.346  0.5043 -0.7382  0.1188
 5960TIP3   OH239294   6.297   0.328  14.611  0.7224 -0.1482  0.4360
 5960TIP3    H139295   6.275   0.249  14.662  2.0217 -0.8762 -0.0874
 5960TIP3    H239296   6.241   0.321  14.533 -0.9495  0.7427  1.5074
 5961TIP3   OH239297   4.322   3.610   4.061  0.1300 -0.2694  0.0243
 5961TIP3    H139298   4.359   3.564   4.136  0.7280 -0.5040 -0.4102
 5961TIP3    H239299   4.364   3.571   3.984  0.6808  1.0069 -0.3572
 5962TIP3   OH239300   6.221   3.779   6.361  0.2521  0.8075  0.0156
 5962TIP3    H139301   6.210   3.870   6.386  0.9354  1.3977 -1.6648
 5962TIP3    H239302   6.304   3.752   6.399  0.4513  1.1554 -0.1724
 5963TIP3   OH239303   2.631   6.452  16.967 -0.0389  0.1269  0.5984
 5963TIP3    H139304   2.720   6.439  16.933 -0.1455  0.5340  0.1412
 5963TIP3    H239305   2.640   6.444  17.062  0.2088 -1.3465  0.4720
 5964TIP3   OH239306   6.706   3.559   4.491  0.0293 -0.0593  0.0578
 5964TIP3    H139307   6.670   3.623   4.430 -0.0714  0.6431  0.8329
 5964TIP3    H239308   6.791   3.596   4.517 -0.5038  0.3307  1.3427
 5965TIP3   OH239309   4.995   6.505   2.369  0.4507 -0.4205 -0.1007
 5965TIP3    H139310   5.045   6.560   2.431  0.8981 -1.5058  0.5313
 5965TIP3    H239311   4.949   6.568   2.314 -0.8608  0.6278  2.0360
 5966TIP3   OH239312   1.321   6.132   1.834 -1.2083 -0.2757  0.6920
 5966TIP3    H139313   1.311   6.159   1.926  0.1102  2.6916  0.1013
 5966TIP3    H239314   1.405   6.086   1.832 -1.1103 -0.1140  0.9507
 5967TIP3   OH239315   1.560   0.839   2.998  0.6871  0.3881 -0.2610
 5967TIP3    H139316   1.469   0.856   2.972  0.1504 -1.3638  0.3035
 5967TIP3    H239317   1.584   0.913   3.053 -0.5328  0.7147 -0.1405
 5968TIP3   OH239318   2.293   1.866   2.704  0.2402  0.1020 -0.1452
 5968TIP3    H139319   2.366   1.815   2.668 -1.0156 -2.1064  0.1999
 5968TIP3    H239320   2.215   1.827   2.665 -0.8665  1.0854  0.9770
 5969TIP3   OH239321   5.983   3.061   4.887  0.4648 -0.6972  0.1460
 5969TIP3    H139322   5.914   3.051   4.821 -0.6445  0.7519  1.0204
 5969TIP3    H239323   6.047   3.119   4.847  1.1088 -1.9025 -0.6041
 5970TIP3   OH239324   4.659   4.691  17.414 -0.2147  0.1384 -0.9857
 5970TIP3    H139325   4.647   4.676  17.320 -1.3235  0.8974 -0.9810
 5970TIP3    H239326   4.752   4.712  17.423 -0.2240  0.6782 -2.0009
 5971TIP3   OH239327   5.219   6.303   5.649 -0.4273  0.2774 -0.4728
 5971TIP3    H139328   5.187   6.389   5.676 -0.6259  0.8079 -2.3036
 5971TIP3    H239329   5.175   6.242   5.708  0.7296  1.4596  1.7710
 5972TIP3   OH239330   6.084   0.952   1.338 -0.1729 -1.0213 -0.1837
 5972TIP3    H139331   6.028   1.006   1.282  0.5478  0.0634  0.1065
 5972TIP3    H239332   6.030   0.876   1.359 -1.5107 -0.0716 -0.0236
 5973TIP3   OH239333   6.150   6.513   5.478 -0.0383 -0.2339  0.1833
 5973TIP3    H139334   6.061   6.482   5.495  0.4127 -1.7151  0.0426
 5973TIP3    H239335   6.204   6.433   5.482  1.4027  0.7365  1.1106
 5974TIP3   OH239336   6.647   5.869   1.081 -0.0627  0.0578  0.3410
 5974TIP3    H139337   6.673   5.858   1.173 -0.0206  0.4292  0.3791
 5974TIP3    H239338   6.709   5.935   1.047  0.8800 -1.1521 -0.3729
 5975TIP3   OH239339   3.377   2.745  13.028  0.5574 -0.0818 -0.4098
 5975TIP3    H139340   3.404   2.794  12.950  2.4944 -0.0585  0.1983
 5975TIP3    H239341   3.409   2.798  13.101 -0.1962 -0.6713  0.3717
 5976TIP3   OH239342   4.942   4.084   5.277 -0.0215  0.1558  0.1656
 5976TIP3    H139343   4.987   4.153   5.326  1.2096 -0.0592 -0.6283
 5976TIP3    H239344   4.855   4.120   5.260 -0.0632  0.7184  1.4427
 5977TIP3   OH239345   2.775   6.716  15.839 -0.2997  0.2714  0.2500
 5977TIP3    H139346   2.758   6.785  15.775  2.3137 -1.0609 -2.1367
 5977TIP3    H239347   2.691   6.673  15.850 -0.8528  0.3345 -2.6996
 5978TIP3   OH239348   4.585   0.707   5.440 -0.2554  0.3066  0.0454
 5978TIP3    H139349   4.526   0.631   5.436 -0.6481  0.5884  0.3478
 5978TIP3    H239350   4.587   0.740   5.351 -1.2454  0.8058  0.1937
 5979TIP3   OH239351   2.609   2.857  16.608  0.1290  0.2826  0.4351
 5979TIP3    H139352   2.584   2.926  16.546  0.8533  2.8931  2.8160
 5979TIP3    H239353   2.575   2.776  16.569 -5.6979  2.5145 -0.0628
 5980TIP3   OH239354   2.544   3.331  13.161 -0.3975  0.7152 -0.2629
 5980TIP3    H139355   2.562   3.297  13.249 -0.4695 -2.0617 -1.2190
 5980TIP3    H239356   2.463   3.380  13.171 -1.5600 -1.2855  0.9166
 5981TIP3   OH239357   1.794   4.011  12.156 -0.1425  0.4223  0.1154
 5981TIP3    H139358   1.709   3.972  12.177 -0.2631 -0.0492 -1.1711
 5981TIP3    H239359   1.781   4.105  12.170 -0.3185  0.1920  1.6918
 5982TIP3   OH239360   2.309   5.696   4.799  0.6183  0.0236 -0.0670
 5982TIP3    H139361   2.385   5.675   4.854  1.4429  1.6737 -0.5043
 5982TIP3    H239362   2.333   5.663   4.713  0.3966 -0.3404  0.0078
 5983TIP3   OH239363   4.771   3.669   2.533  0.2768  0.3584  0.6483
 5983TIP3    H139364   4.718   3.739   2.495  1.6138  0.2160 -1.7393
 5983TIP3    H239365   4.861   3.700   2.523  0.8129 -1.0534  0.9283
 5984TIP3   OH239366   1.983   4.029  12.850  1.1746  0.8967  0.4689
 5984TIP3    H139367   1.983   4.001  12.759 -0.3815  0.2977  0.6139
 5984TIP3    H239368   1.933   3.961  12.896  1.9694  1.1498  1.7882
 5985TIP3   OH239369   0.374   3.770   3.484 -0.0827 -0.4008  0.3361
 5985TIP3    H139370   0.385   3.860   3.514 -0.6713 -0.4824  0.7924
 5985TIP3    H239371   0.453   3.725   3.514 -1.1568 -0.7746  2.8664
 5986TIP3   OH239372   6.637   3.012   3.737  0.1026 -0.3283  0.0448
 5986TIP3    H139373   6.690   3.092   3.736 -0.2460 -0.0526  1.5287
 5986TIP3    H239374   6.547   3.044   3.730 -0.0104 -0.6388  0.0939
 5987TIP3   OH239375   4.373   2.776   5.238 -0.4794  0.1719  0.6538
 5987TIP3    H139376   4.325   2.829   5.301 -1.5781 -1.9232  1.6836
 5987TIP3    H239377   4.399   2.698   5.288  2.0339  0.1808 -0.4861
 5988TIP3   OH239378   6.421   1.189   4.410  0.2069  0.3745  0.2193
 5988TIP3    H139379   6.424   1.168   4.317 -0.8104 -0.4254  0.3376
 5988TIP3    H239380   6.487   1.256   4.422  0.9400 -0.1080 -0.9249
 5989TIP3   OH239381   3.373   0.245   2.575  0.6453 -0.1830  0.3303
 5989TIP3    H139382   3.360   0.199   2.658  1.2903 -0.9076  0.0360
 5989TIP3    H239383   3.460   0.283   2.582  1.1149 -1.0912 -0.3990
 5990TIP3   OH239384   0.074   0.867   3.185  0.1238  0.0874 -0.3279
 5990TIP3    H139385   0.039   0.872   3.274 -0.0983  2.3707 -0.4886
 5990TIP3    H239386  -0.003   0.859   3.129  0.2233 -0.5974 -0.3776
 5991TIP3   OH239387   5.557   2.227   6.573  0.1519  0.1246  0.3699
 5991TIP3    H139388   5.497   2.229   6.647 -0.0764  0.8615  0.1694
 5991TIP3    H239389   5.501   2.217   6.496  0.2925  0.5901  0.2009
 5992TIP3   OH239390   6.253   2.607   6.142 -0.1355  0.1801 -0.0974
 5992TIP3    H139391   6.178   2.652   6.182  0.4339  1.8471 -0.8487
 5992TIP3    H239392   6.216   2.565   6.064 -0.3607  0.7532 -0.3088
 5993TIP3   OH239393   5.018   2.288  13.138 -0.5430  0.5453  0.6243
 5993TIP3    H139394   5.032   2.272  13.045  2.1708  2.6056  0.5388
 5993TIP3    H239395   5.093   2.246  13.180  0.3846  2.8493  1.4233
 5994TIP3   OH239396   6.528   0.351  15.837  0.8574  0.5310 -0.5974
 5994TIP3    H139397   6.523   0.434  15.883  1.2997  0.3965 -0.3023
 5994TIP3    H239398   6.603   0.360  15.778  1.8688 -0.1851  0.5252
 5995TIP3   OH239399   4.316   5.277   5.435  0.2171 -0.0413  0.6209
 5995TIP3    H139400   4.319   5.229   5.517  0.3898  0.0032  0.6410
 5995TIP3    H239401   4.240   5.335   5.443  0.3349  0.0857  0.8173
 5996TIP3   OH239402   6.730   6.411  15.442  0.0325  0.0697 -0.1629
 5996TIP3    H139403   6.746   6.489  15.495  0.2894 -0.4975  0.6269
 5996TIP3    H239404   6.666   6.361  15.492 -0.1473 -0.2123 -0.6705
 5997TIP3   OH239405   2.133   3.869   5.061 -0.3534 -0.1859 -0.0016
 5997TIP3    H139406   2.197   3.933   5.030  0.1962 -0.9347 -0.4227
 5997TIP3    H239407   2.117   3.894   5.152 -1.7563  1.8448 -0.7378
 5998TIP3   OH239408   4.774   6.092   4.009  0.4904  0.0953 -0.6360
 5998TIP3    H139409   4.775   6.103   3.914  2.2194  0.0511 -0.6520
 5998TIP3    H239410   4.866   6.101   4.036  0.4904 -2.6689  0.7001
 5999TIP3   OH239411   0.659   0.528  11.854 -0.4091 -0.1145  0.0433
 5999TIP3    H139412   0.692   0.542  11.765  0.5110  1.8352  0.6235
 5999TIP3    H239413   0.727   0.476  11.897  0.8363  1.8147  0.5273
 6000TIP3   OH239414   2.931   1.895   3.059  0.0184  0.7907 -0.5334
 6000TIP3    H139415   2.913   1.983   3.025 -0.3083  0.9483  0.0282
 6000TIP3    H239416   2.877   1.837   3.006 -0.4451  1.0287 -0.3318
 6001TIP3   OH239417   6.324   5.417   5.023 -0.5153  1.0369  0.3387
 6001TIP3    H139418   6.248   5.363   5.047  0.2979 -0.2467  0.1314
 6001TIP3    H239419   6.314   5.432   4.929 -0.0014 -0.0201  0.0956
 6002TIP3   OH239420   0.660   6.674   2.607 -0.0514 -0.0477 -0.7785
 6002TIP3    H139421   0.650   6.766   2.583  0.1684 -0.2836 -1.8314
 6002TIP3    H239422   0.619   6.626   2.535 -0.5363 -0.7632 -0.0315
 6003TIP3   OH239423   6.304   2.018   5.494 -0.0603  0.5896  0.3896
 6003TIP3    H139424   6.318   1.925   5.477  0.3171  0.2953  2.1392
 6003TIP3    H239425   6.367   2.062   5.437 -2.0828 -0.0180 -2.5422
 6004TIP3   OH239426   0.799   4.408   0.219  0.0294  0.3213 -0.8077
 6004TIP3    H139427   0.763   4.319   0.224  0.2334  0.2644 -0.2484
 6004TIP3    H239428   0.759   4.454   0.292  0.5279  0.4615 -0.6173
 6005TIP3   OH239429   3.583   0.781   1.148  0.0757 -0.9818 -0.5346
 6005TIP3    H139430   3.670   0.767   1.111  0.5008 -3.3715  1.1116
 6005TIP3    H239431   3.597   0.785   1.242 -1.5532 -1.2061 -0.2557
 6006TIP3   OH239432   4.005   3.887   5.797  0.4091 -0.1048  0.1474
 6006TIP3    H139433   3.983   3.932   5.879  0.2114  0.3737 -0.1710
 6006TIP3    H239434   4.080   3.832   5.820 -0.3759 -0.8859  0.9526
 6007TIP3   OH239435   4.600   2.595   1.436  0.3099  0.1284  0.0767
 6007TIP3    H139436   4.533   2.577   1.502 -1.8801  1.4158 -1.6498
 6007TIP3    H239437   4.606   2.691   1.435  2.2461  0.0387  0.1966
 6008TIP3   OH239438   1.138   0.825  11.799  0.4581  0.0122  0.3027
 6008TIP3    H139439   1.128   0.919  11.815 -0.6038 -0.0313 -0.0019
 6008TIP3    H239440   1.097   0.784  11.876 -1.5778 -0.1806 -0.8038
 6009TIP3   OH239441   0.841   0.240  14.795  0.9564 -0.3843 -0.2092
 6009TIP3    H139442   0.762   0.200  14.759  1.4995 -1.5407 -0.1606
 6009TIP3    H239443   0.892   0.265  14.718 -0.5862  2.9082 -0.3514
 6010TIP3   OH239444   6.461   1.616   3.338 -0.4726 -0.4382 -0.2846
 6010TIP3    H139445   6.422   1.694   3.299  0.0485 -0.2822 -0.5063
 6010TIP3    H239446   6.504   1.648   3.418  1.7661 -0.0201 -1.5471
 6011TIP3   OH239447   3.460   1.813  11.810  0.0045 -0.6481  0.6336
 6011TIP3    H139448   3.492   1.856  11.731  0.1478 -1.5763  0.1715
 6011TIP3    H239449   3.419   1.733  11.778 -2.6904  0.3914  1.1912
 6012TIP3   OH239450   4.093   1.634   4.589  0.1521 -0.3226  0.0239
 6012TIP3    H139451   4.016   1.607   4.638  0.1561 -3.2064 -1.3604
 6012TIP3    H239452   4.076   1.726   4.566 -3.2855 -1.0776 -0.9481
 6013TIP3   OH239453   4.808   3.698   0.017  0.5080 -0.0068  0.1489
 6013TIP3    H139454   4.771   3.617  -0.016 -1.4032  1.3518 -1.2842
 6013TIP3    H239455   4.758   3.716   0.097 -0.2805  0.5808 -0.4573
 6014TIP3   OH239456   5.959   3.528   4.766  0.2274  0.6519  0.8854
 6014TIP3    H139457   5.877   3.480   4.767  0.8725 -0.6296 -1.0077
 6014TIP3    H239458   6.027   3.460   4.762  1.5377  1.6114  3.9351
 6015TIP3   OH239459   0.564   1.092   4.745  0.5916 -0.4195  0.9564
 6015TIP3    H139460   0.542   1.184   4.731  0.2309 -0.3322  1.9957
 6015TIP3    H239461   0.488   1.055   4.792  1.5832 -0.7175  2.4058
 6016TIP3   OH239462   5.404   1.444  13.328  0.1072  0.5361  0.1775
 6016TIP3    H139463   5.347   1.371  13.307 -0.5714  1.3216 -0.7955
 6016TIP3    H239464   5.477   1.404  13.376 -0.4495 -0.7036  0.0377
 6017TIP3   OH239465   2.930   4.259   3.718 -0.6216 -0.8127 -0.2159
 6017TIP3    H139466   2.991   4.201   3.672 -1.4778 -1.7303 -0.2484
 6017TIP3    H239467   2.874   4.199   3.768 -0.1919  0.1151  1.4628
 6018TIP3   OH239468   5.509   5.193  12.837  0.1282  0.1786 -0.7763
 6018TIP3    H139469   5.589   5.214  12.788  1.8556 -1.6676  1.0402
 6018TIP3    H239470   5.517   5.241  12.919 -0.6084 -0.0728 -0.5495
 6019TIP3   OH239471   4.882   4.915   4.525  0.2842  0.2656 -0.2649
 6019TIP3    H139472   4.916   4.830   4.499 -0.5245 -0.6289  1.3959
 6019TIP3    H239473   4.829   4.944   4.451  0.2114 -0.8967 -0.6846
 6020TIP3   OH239474   0.579   5.310  12.151  0.6196  0.1388 -0.5249
 6020TIP3    H139475   0.642   5.289  12.082 -2.5668  0.9881 -4.0557
 6020TIP3    H239476   0.589   5.405  12.164  1.4243 -0.0691  0.5064
 6021TIP3   OH239477   5.065   5.850   1.811 -0.0266  0.1832  0.0423
 6021TIP3    H139478   5.009   5.922   1.783 -1.5594 -0.7536  0.5813
 6021TIP3    H239479   5.048   5.841   1.905 -0.0415 -1.0085 -0.0522
 6022TIP3   OH239480   2.358   5.118   4.979 -0.1559  0.6618 -0.4171
 6022TIP3    H139481   2.353   5.213   4.971  1.2876  0.5903 -4.0269
 6022TIP3    H239482   2.449   5.097   4.962 -0.2278 -1.3813  1.3249
 6023TIP3   OH239483   0.112   0.460  17.334  0.9187 -0.4283  0.4013
 6023TIP3    H139484   0.108   0.366  17.348  3.6220 -0.7344 -0.4667
 6023TIP3    H239485   0.071   0.473  17.249 -0.1007 -0.6755  0.8289
 6024TIP3   OH239486   3.862   3.262   5.874 -0.1045 -0.2324 -0.3802
 6024TIP3    H139487   3.893   3.337   5.824  1.9553 -1.1167 -0.5103
 6024TIP3    H239488   3.785   3.231   5.826 -2.6613  3.2646  1.0859
 6025TIP3   OH239489   5.415   3.341  15.640 -0.7357  0.0280  0.3500
 6025TIP3    H139490   5.434   3.334  15.546 -1.9643  1.9303 -0.1113
 6025TIP3    H239491   5.446   3.428  15.664 -0.8128 -0.2804  1.6260
 6026TIP3   OH239492   3.496   5.570   1.482 -0.9415 -0.1634  0.4985
 6026TIP3    H139493   3.504   5.632   1.410  2.3242 -0.7257  0.2347
 6026TIP3    H239494   3.495   5.484   1.440  0.0867 -0.4562  1.0316
 6027TIP3   OH239495   5.074   0.843  13.817  0.1740  0.0568 -0.7453
 6027TIP3    H139496   5.045   0.862  13.728 -1.3906 -1.6096 -0.6334
 6027TIP3    H239497   5.004   0.875  13.872  0.0269 -1.0564 -0.2633
 6028TIP3   OH239498   0.952   2.651  14.288 -0.2724  0.1310  0.4373
 6028TIP3    H139499   0.876   2.616  14.240  0.2194  1.8563 -1.7575
 6028TIP3    H239500   0.914   2.716  14.348 -0.6146  0.6137 -0.2797
 6029TIP3   OH239501   4.944   3.330   4.639 -0.0095  0.0696 -0.9730
 6029TIP3    H139502   5.028   3.340   4.593 -1.0448 -0.0974 -3.0347
 6029TIP3    H239503   4.888   3.285   4.576 -1.8189  0.6573  0.1448
 6030TIP3   OH239504   2.964   2.938   3.049  0.3511  0.2724 -0.4404
 6030TIP3    H139505   2.939   3.013   3.102  2.3266  0.1670  0.7095
 6030TIP3    H239506   2.985   2.974   2.963  1.5317  1.0818  0.1769
 6031TIP3   OH239507   3.514   1.805  15.371  0.0863  0.5496 -0.5119
 6031TIP3    H139508   3.447   1.823  15.437 -0.7500  1.2507 -1.5116
 6031TIP3    H239509   3.523   1.887  15.323  0.7988  0.1055 -1.1662
 6032TIP3   OH239510   4.426   0.049  15.128  0.3985  0.5555 -0.1359
 6032TIP3    H139511   4.491   0.117  15.111  1.5366 -0.1131  1.3357
 6032TIP3    H239512   4.434   0.031  15.222 -1.0612 -0.4170 -0.1667
 6033TIP3   OH239513   0.348   2.974  17.079 -0.1660 -0.0190 -0.3321
 6033TIP3    H139514   0.279   2.924  17.123  0.6155  0.7263  1.8553
 6033TIP3    H239515   0.301   3.036  17.024 -1.1811 -1.3584 -1.0292
 6034TIP3   OH239516   6.369   1.009   2.976 -0.0830 -0.4488  0.1915
 6034TIP3    H139517   6.273   1.000   2.975 -0.2531  0.8602  0.9301
 6034TIP3    H239518   6.388   1.070   2.905  0.2096 -0.7182  0.0370
 6035TIP3   OH239519   0.552   2.298  11.879  0.3011  0.8794 -0.3328
 6035TIP3    H139520   0.518   2.388  11.883  1.5131  1.3374 -0.0617
 6035TIP3    H239521   0.561   2.271  11.970 -0.9832  0.0930 -0.4051
 6036TIP3   OH239522   6.378   2.856  11.875  0.3630 -0.1474  0.0787
 6036TIP3    H139523   6.338   2.769  11.873 -1.2106  0.5653 -1.2044
 6036TIP3    H239524   6.369   2.889  11.786 -1.0099  2.1505  0.9776
 6037TIP3   OH239525   6.389   4.105  15.021 -0.0844  0.3464  0.7851
 6037TIP3    H139526   6.454   4.071  14.959 -0.3095  1.3614 -0.0336
 6037TIP3    H239527   6.309   4.057  15.001 -0.0429  0.3505  0.6102
 6038TIP3   OH239528   3.023   3.519   1.985  0.6906  0.4256  0.1755
 6038TIP3    H139529   3.103   3.484   1.944  0.5465 -0.1894  0.4062
 6038TIP3    H239530   3.055   3.587   2.044  1.1339 -0.3834  0.8885
 6039TIP3   OH239531   1.143   4.851   0.669 -0.1662  0.4283 -0.0056
 6039TIP3    H139532   1.198   4.893   0.604  2.2879  0.9196  2.2205
 6039TIP3    H239533   1.063   4.905   0.671  0.6759  1.7838 -0.9561
 6040TIP3   OH239534   4.800   6.010  17.427  0.9396 -0.3934 -0.1597
 6040TIP3    H139535   4.749   6.047  17.355  1.1740  1.8937  0.7646
 6040TIP3    H239536   4.788   6.072  17.499  1.1258 -2.3414  1.6345
 6041TIP3   OH239537   1.926   2.324   0.690 -0.5253 -0.1077 -0.1364
 6041TIP3    H139538   1.912   2.380   0.614 -0.6929  0.7554  0.5202
 6041TIP3    H239539   2.010   2.281   0.673 -1.2133 -1.0010 -1.4484
 6042TIP3   OH239540   3.891   4.720   0.621 -0.5010  0.3052 -0.1309
 6042TIP3    H139541   3.828   4.722   0.694 -1.3962 -0.2547 -0.8622
 6042TIP3    H239542   3.948   4.795   0.637 -0.1971 -0.2238  1.5593
 6043TIP3   OH239543   6.633   2.419   2.766  0.1124 -0.4340 -0.2719
 6043TIP3    H139544   6.613   2.347   2.826 -3.5926  0.0861 -0.6577
 6043TIP3    H239545   6.674   2.485   2.822 -1.9112 -0.5406  1.4797
 6044TIP3   OH239546   3.682   5.981  13.004  0.9662 -0.0298 -0.6917
 6044TIP3    H139547   3.754   5.945  12.953 -0.0354 -1.9556 -0.8491
 6044TIP3    H239548   3.622   6.017  12.939  1.1030  0.2716 -0.6541
 6045TIP3   OH239549   5.224   6.661   0.811  0.5554 -0.3931  0.0762
 6045TIP3    H139550   5.217   6.752   0.836  1.8415 -0.2225 -0.1104
 6045TIP3    H239551   5.146   6.644   0.757  0.8467  0.8905 -0.7777
 6046TIP3   OH239552   2.426   4.823   3.552  0.5068 -0.7087 -0.3802
 6046TIP3    H139553   2.454   4.797   3.639  0.8809  1.6683  0.2705
 6046TIP3    H239554   2.508   4.838   3.504  0.3462  0.6396 -0.2648
 6047TIP3   OH239555   6.524   0.524   2.472  0.3207  0.3667  0.0544
 6047TIP3    H139556   6.531   0.605   2.420  0.1698  0.0937 -0.3900
 6047TIP3    H239557   6.551   0.551   2.560  3.8244  0.1355 -0.8175
 6048TIP3   OH239558   3.594   6.050   4.819 -0.2074  0.5335  0.0260
 6048TIP3    H139559   3.573   6.143   4.829 -0.8657  0.5876 -1.5535
 6048TIP3    H239560   3.688   6.049   4.800  0.1144  0.7420  1.5079
 6049TIP3   OH239561   5.559   2.266   2.846  0.1475 -0.2159 -0.2627
 6049TIP3    H139562   5.484   2.274   2.787 -0.6610  1.4391  0.9056
 6049TIP3    H239563   5.581   2.356   2.870 -0.1762 -0.8071  2.6735
 6050TIP3   OH239564   4.486   4.231  17.044  0.2891 -0.1673 -0.3567
 6050TIP3    H139565   4.479   4.312  16.994  1.9050 -1.2352 -2.4640
 6050TIP3    H239566   4.574   4.233  17.081  0.8708 -1.5268 -1.5862
 6051TIP3   OH239567   5.854   4.773  15.544 -0.0296 -0.2961 -0.9118
 6051TIP3    H139568   5.819   4.712  15.608 -0.8190  0.2525 -0.8003
 6051TIP3    H239569   5.947   4.752  15.538  0.2807  0.2795  1.1364
 6052TIP3   OH239570   0.042   3.733  15.526 -0.0486  0.2226  0.5036
 6052TIP3    H139571   0.100   3.807  15.511 -0.6755  0.8798  1.2408
 6052TIP3    H239572  -0.044   3.762  15.495 -0.4210  0.0237  1.3049
 6053TIP3   OH239573   5.989   6.183  11.219 -0.1045  0.1034 -0.0379
 6053TIP3    H139574   6.050   6.113  11.241 -1.3202 -0.4506  1.8182
 6053TIP3    H239575   6.031   6.263  11.250 -0.3936 -0.3135  1.5251
 6054TIP3   OH239576   0.158   3.222   0.768  0.1449  0.8241 -0.4333
 6054TIP3    H139577   0.205   3.170   0.833 -0.9227 -0.6623 -0.7935
 6054TIP3    H239578   0.106   3.159   0.719 -1.1533  2.2235 -0.9615
 6055TIP3   OH239579   3.538   2.696  15.321  0.7020 -0.1088 -0.3796
 6055TIP3    H139580   3.498   2.738  15.397  1.1323 -0.5010  0.0665
 6055TIP3    H239581   3.488   2.615  15.309  0.7345 -0.1228 -0.4220
 6056TIP3   OH239582   5.901   5.004  12.083 -0.3742 -0.4953  0.7124
 6056TIP3    H139583   5.987   5.039  12.109 -0.1209 -1.8199  1.7659
 6056TIP3    H239584   5.866   4.964  12.163 -1.6225 -0.6941  0.0902
 6057TIP3   OH239585   6.098   4.418   4.264 -0.4799  0.5037 -0.3222
 6057TIP3    H139586   6.102   4.451   4.354  1.7982  1.0589 -0.5723
 6057TIP3    H239587   6.099   4.322   4.273 -1.0672  0.5419  0.2393
 6058TIP3   OH239588   0.015   6.692   6.308 -0.1177 -0.1172  0.5004
 6058TIP3    H139589   0.001   6.657   6.396 -0.6979  0.3083  0.5837
 6058TIP3    H239590   0.070   6.626   6.265 -1.1349 -1.1056  0.6635
 6059TIP3   OH239591   3.068   6.498  13.168  0.4158  0.6218 -0.2952
 6059TIP3    H139592   3.141   6.493  13.230 -0.7456  0.2381  1.0957
 6059TIP3    H239593   3.003   6.553  13.212 -0.8851 -0.5497 -0.6790
 6060TIP3   OH239594   1.430   0.888  17.367  0.0402 -0.0616 -0.3851
 6060TIP3    H139595   1.476   0.968  17.344 -2.8216  1.3329 -1.7371
 6060TIP3    H239596   1.494   0.818  17.351  2.0145  1.7890 -1.0075
 6061TIP3   OH239597   4.133   3.638  12.371 -0.2429 -0.1657 -0.3548
 6061TIP3    H139598   4.193   3.575  12.411 -1.0930  0.7207  2.5838
 6061TIP3    H239599   4.185   3.718  12.362 -0.9542  0.7570  2.6668
 6062TIP3   OH239600   6.151   2.178  13.981  0.0230 -0.3359 -0.5456
 6062TIP3    H139601   6.200   2.206  14.058  0.8263 -0.6742 -0.9207
 6062TIP3    H239602   6.088   2.248  13.966 -0.9609 -0.8229  1.1110
 6063TIP3   OH239603   6.164   5.493   1.665  0.8656  0.3219  0.3449
 6063TIP3    H139604   6.254   5.478   1.694  1.0413 -2.3659 -1.3247
 6063TIP3    H239605   6.160   5.456   1.577 -2.3658 -1.4970  1.0994
 6064TIP3   OH239606   1.130   2.587   5.517 -0.0458 -0.5259  0.4039
 6064TIP3    H139607   1.096   2.634   5.441  3.0010  0.2895 -0.5959
 6064TIP3    H239608   1.100   2.497   5.506 -0.8144 -0.1201 -0.9968
 6065TIP3   OH239609   5.260   4.150   5.315 -0.2258  0.6182  0.1556
 6065TIP3    H139610   5.279   4.176   5.405 -1.1303  0.8191  0.3017
 6065TIP3    H239611   5.255   4.054   5.318 -3.3049  0.7063  1.0152
 6066TIP3   OH239612   3.749   3.874   3.556  0.2178 -0.2953  0.6686
 6066TIP3    H139613   3.692   3.895   3.482 -0.2544 -1.0967  0.7961
 6066TIP3    H239614   3.812   3.946   3.558  0.0973 -0.1351 -0.3697
 6067TIP3   OH239615   1.418   4.772  11.809  0.0372  0.0118 -0.5112
 6067TIP3    H139616   1.513   4.782  11.811  0.1578 -0.8820  1.6432
 6067TIP3    H239617   1.386   4.853  11.770  1.5968  1.6660  1.3991
 6068TIP3   OH239618   2.665   1.605  15.756  0.2100 -0.3733 -0.4097
 6068TIP3    H139619   2.570   1.614  15.754 -0.0422 -2.0632 -3.7175
 6068TIP3    H239620   2.684   1.538  15.691  3.6845 -0.3041  0.3268
 6069TIP3   OH239621   3.319   5.043   4.929  0.4071 -0.0303  0.2600
 6069TIP3    H139622   3.408   5.065   4.956  0.6149 -0.2642 -0.2288
 6069TIP3    H239623   3.330   4.990   4.850 -0.0925 -1.4607  1.1090
 6070TIP3   OH239624   4.921   3.653   6.130 -0.3241 -0.4207  0.4369
 6070TIP3    H139625   4.870   3.678   6.207 -0.4714 -0.1283  0.2460
 6070TIP3    H239626   4.930   3.558   6.136 -1.2909 -0.5320  0.2294
 6071TIP3   OH239627   1.883   0.822  11.455  0.5132  0.2272  0.6661
 6071TIP3    H139628   1.915   0.767  11.527 -2.4872 -0.3841  1.6593
 6071TIP3    H239629   1.855   0.760  11.388  3.1543  0.7949 -1.1117
 6072TIP3   OH239630   2.292   2.425  14.117  0.2059  0.2332  0.1296
 6072TIP3    H139631   2.294   2.520  14.107  0.1981  0.3047  0.7401
 6072TIP3    H239632   2.348   2.392  14.046 -0.0986  0.6667 -0.3154
 6073TIP3   OH239633   6.511   0.449  14.871  0.0695  0.0035  0.6599
 6073TIP3    H139634   6.533   0.437  14.778 -1.1459  1.7040  0.0865
 6073TIP3    H239635   6.436   0.392  14.885  0.2874 -0.2974  0.6288
 6074TIP3   OH239636   2.022   2.704   6.537  0.2986 -0.4527  0.1130
 6074TIP3    H139637   1.979   2.763   6.475 -0.4170 -1.2536 -0.1699
 6074TIP3    H239638   2.100   2.753   6.566  1.0300 -0.3009 -1.9247
 6075TIP3   OH239639   6.187   4.234  17.270  0.7976 -0.1372  0.0870
 6075TIP3    H139640   6.192   4.177  17.347  0.6558  0.3725  0.4870
 6075TIP3    H239641   6.274   4.272  17.262  0.3239  1.2865  1.1791
 6076TIP3   OH239642   1.774   3.200  14.905 -0.5498 -0.7252  0.2303
 6076TIP3    H139643   1.742   3.252  14.979  1.6205 -0.7476  1.2726
 6076TIP3    H239644   1.753   3.252  14.828 -1.1965  0.2098  1.0106
 6077TIP3   OH239645   3.221   5.650   3.006  0.3255 -0.1130 -0.4177
 6077TIP3    H139646   3.248   5.740   3.025  1.8161 -0.7426  0.6437
 6077TIP3    H239647   3.302   5.599   3.011 -0.4717 -1.4943 -1.1579
 6078TIP3   OH239648   6.198   5.057  12.059 -0.0867  0.2517 -0.0474
 6078TIP3    H139649   6.249   5.122  12.108  0.2008 -0.2870  0.3816
 6078TIP3    H239650   6.258   5.025  11.992  0.2661 -0.6016  0.6476
 6079TIP3   OH239651   3.014   0.152  11.230 -0.0658  0.2598 -0.2843
 6079TIP3    H139652   3.047   0.206  11.302 -0.9560  0.3080  0.1051
 6079TIP3    H239653   2.928   0.122  11.261  0.5223 -1.5964 -0.3884
 6080TIP3   OH239654   1.404   1.537  11.673  0.4701 -0.4939  0.1389
 6080TIP3    H139655   1.406   1.557  11.580  1.2162  0.3427  0.3290
 6080TIP3    H239656   1.312   1.517  11.690 -0.0395  1.1842 -0.4107
 6081TIP3   OH239657   1.478   5.747   0.468  0.3493  0.0346 -0.4794
 6081TIP3    H139658   1.491   5.682   0.398  1.7677 -0.4853  0.2360
 6081TIP3    H239659   1.547   5.812   0.453 -1.1901  1.5640 -1.3245
 6082TIP3   OH239660   1.133   1.431  11.693  0.1079 -0.7591 -0.9070
 6082TIP3    H139661   1.154   1.451  11.784  3.6707  0.0305 -1.7397
 6082TIP3    H239662   1.044   1.464  11.681  1.0380  3.0992  1.2403
 6083TIP3   OH239663   5.669   4.925  12.564  0.3122 -0.4834  0.7991
 6083TIP3    H139664   5.614   4.853  12.535 -0.0640 -0.3745  1.2260
 6083TIP3    H239665   5.608   4.997  12.583  0.6150 -0.2939  1.0797
 6084TIP3   OH239666   2.206   2.980   0.809 -0.3444  0.1435 -0.3031
 6084TIP3    H139667   2.258   2.941   0.739 -0.6973  1.9654 -1.6400
 6084TIP3    H239668   2.146   2.909   0.835 -0.0781 -0.6429 -1.7074
 6085TIP3   OH239669   4.826   1.677   5.976  0.4709  0.3972 -0.3725
 6085TIP3    H139670   4.891   1.674   6.046  0.1086 -0.1955 -0.0445
 6085TIP3    H239671   4.752   1.627   6.011  0.7043 -0.8580 -1.5987
 6086TIP3   OH239672   1.355   6.567   3.942 -0.1809  0.5098  0.1161
 6086TIP3    H139673   1.372   6.481   3.979 -1.9598 -0.0948 -0.4148
 6086TIP3    H239674   1.332   6.622   4.017 -0.6903  0.0858  0.2736
 6087TIP3   OH239675   1.090   5.129  12.574  0.5150 -0.6651  0.0284
 6087TIP3    H139676   1.003   5.113  12.612  0.1514 -0.4431 -0.6899
 6087TIP3    H239677   1.072   5.157  12.484  1.3138 -0.1470  0.0215
 6088TIP3   OH239678   2.916   1.299  12.489 -0.3538  0.2216  1.1268
 6088TIP3    H139679   2.966   1.224  12.456 -0.1939  1.0431 -0.6111
 6088TIP3    H239680   2.978   1.348  12.542 -0.2770 -0.4905  1.7238
 6089TIP3   OH239681   0.954   6.601  15.577  0.2407  0.2124  0.5239
 6089TIP3    H139682   1.032   6.645  15.612 -0.0875  0.6572  0.7176
 6089TIP3    H239683   0.881   6.652  15.612 -0.1283 -0.0018  0.0734
 6090TIP3   OH239684   6.693   6.313  12.302 -0.1232 -0.2252 -0.4061
 6090TIP3    H139685   6.737   6.293  12.220  0.7355 -1.1675  0.2604
 6090TIP3    H239686   6.749   6.378  12.344  0.7066 -1.4587  0.4630
 6091TIP3   OH239687   2.594   5.492   3.820 -0.3195 -0.7484 -0.6209
 6091TIP3    H139688   2.637   5.436   3.755 -1.1274 -2.0048 -0.1195
 6091TIP3    H239689   2.520   5.440   3.851 -1.0490  0.5792 -0.0470
 6092TIP3   OH239690   2.877   6.032   5.742  0.1855  0.1188 -0.8727
 6092TIP3    H139691   2.809   6.098   5.753 -0.9370 -1.2827  0.9401
 6092TIP3    H239692   2.932   6.041   5.819 -1.0448 -2.2031  0.3598
 6093TIP3   OH239693   1.641   5.956   0.393  0.0479  0.2184  0.4480
 6093TIP3    H139694   1.640   5.965   0.488  2.2231  0.5739  0.4911
 6093TIP3    H239695   1.587   6.028   0.361 -1.9396 -0.7653  1.3979
 6094TIP3   OH239696   4.152   1.755   1.634 -0.3763  0.0459 -0.7931
 6094TIP3    H139697   4.187   1.752   1.545 -0.6306  0.4357 -0.9106
 6094TIP3    H239698   4.133   1.664   1.657 -0.3743 -0.0462 -1.1610
 6095TIP3   OH239699   0.065   4.388   1.180  0.1855 -0.4092 -0.1664
 6095TIP3    H139700  -0.019   4.347   1.161 -0.0436 -0.1083  0.1954
 6095TIP3    H239701   0.070   4.463   1.121  0.6329 -0.9702 -0.8735
 6096TIP3   OH239702   0.397   5.196  11.622 -0.3297 -0.6012  0.5600
 6096TIP3    H139703   0.317   5.248  11.627 -0.5584 -0.7273 -1.2306
 6096TIP3    H239704   0.466   5.253  11.656 -0.5797  0.9110 -1.3303
 6097TIP3   OH239705   2.157   0.960   4.611  0.4225 -0.8260 -0.2584
 6097TIP3    H139706   2.136   1.052   4.595  1.2795 -0.5325  0.2091
 6097TIP3    H239707   2.216   0.936   4.540  0.3311 -0.9617 -0.2872
 6098TIP3   OH239708   2.845   2.980  15.169 -1.0211  0.3338  0.2825
 6098TIP3    H139709   2.842   3.032  15.089  0.4911  0.8970  0.5469
 6098TIP3    H239710   2.897   2.903  15.145  0.2475  0.9578  0.9315
 6099TIP3   OH239711   5.297   6.362  14.812 -0.0893  0.0057  0.3628
 6099TIP3    H139712   5.278   6.272  14.785  0.3171 -0.5026  1.6902
 6099TIP3    H239713   5.391   6.362  14.833  0.4223  1.2903 -1.5819
 6100TIP3   OH239714   1.545   5.321  15.785 -0.1690 -0.3760  0.1369
 6100TIP3    H139715   1.552   5.227  15.797  2.3320 -0.5893 -2.1537
 6100TIP3    H239716   1.459   5.333  15.744  0.2539 -1.9525 -1.3483
 6101TIP3   OH239717   1.472   5.336  13.672  0.4100  0.4041 -0.2045
 6101TIP3    H139718   1.516   5.251  13.674 -1.4476 -0.6075  0.7528
 6101TIP3    H239719   1.385   5.318  13.707  0.2308  2.8795  0.7773
 6102TIP3   OH239720   4.233   1.423   1.469 -0.4462 -0.2082 -0.2115
 6102TIP3    H139721   4.268   1.376   1.394 -0.2475 -0.9575  0.3346
 6102TIP3    H239722   4.175   1.490   1.432  0.7601  0.3826 -1.0858
 6103TIP3   OH239723   4.518   1.440  14.045  0.7143 -0.1215 -0.0887
 6103TIP3    H139724   4.560   1.369  13.997  2.6781  0.8510  0.0956
 6103TIP3    H239725   4.519   1.514  13.985  0.2657  0.2360  0.3351
 6104TIP3   OH239726   5.076   2.004  13.528  0.3413  0.3193  0.2868
 6104TIP3    H139727   5.103   2.093  13.508  1.0546  0.1472  0.4456
 6104TIP3    H239728   5.067   2.003  13.623  0.6254  0.1497  0.3143
 6105TIP3   OH239729   5.261   2.220  13.302  0.0699  0.4275 -0.3688
 6105TIP3    H139730   5.216   2.249  13.381 -0.7555 -1.7428  0.0549
 6105TIP3    H239731   5.349   2.196  13.331  0.6432  2.0940 -0.6573
 6106TIP3   OH239732   2.702   0.164  15.692  0.6074 -0.6485 -0.2084
 6106TIP3    H139733   2.609   0.177  15.673 -0.0727  0.6428  3.2577
 6106TIP3    H239734   2.744   0.243  15.658  0.4990 -1.2563 -1.8282
 6107TIP3   OH239735   4.451   2.947  14.092  0.4295 -0.6725 -0.2245
 6107TIP3    H139736   4.358   2.924  14.086  0.4531 -0.6800 -0.5328
 6107TIP3    H239737   4.490   2.915  14.011  0.0659  2.4159 -1.7554
 6108TIP3   OH239738   0.481   2.982   6.441  0.7797 -0.4938 -0.6793
 6108TIP3    H139739   0.414   2.915   6.455  0.6118 -0.0916  0.5501
 6108TIP3    H239740   0.531   2.983   6.523  1.6457 -0.0711 -1.2039
 6109TIP3   OH239741   2.677   6.012  12.669 -0.0466 -0.2728 -0.4472
 6109TIP3    H139742   2.606   6.070  12.695 -0.2909  0.0348 -1.7400
 6109TIP3    H239743   2.648   5.925  12.696 -0.7477 -0.0970 -0.6280
 6110TIP3   OH239744   5.605   2.752   4.724  0.0352  0.2446  0.4689
 6110TIP3    H139745   5.598   2.842   4.758 -2.8070 -0.9791  3.6969
 6110TIP3    H239746   5.663   2.708   4.787  1.0428 -0.3484 -0.8336
 6111TIP3   OH239747   2.726   6.699  10.951 -0.7111 -0.2668  0.0258
 6111TIP3    H139748   2.679   6.765  11.001 -0.9180  0.0726 -0.5989
 6111TIP3    H239749   2.670   6.683  10.875  0.9630  1.4557 -1.6948
 6112TIP3   OH239750   0.682   4.527   2.361 -0.0561  0.4372  0.0464
 6112TIP3    H139751   0.748   4.590   2.332 -0.8747  1.4636  0.3313
 6112TIP3    H239752   0.695   4.451   2.305  1.4395  0.5584  0.1763
 6113TIP3   OH239753   2.135   2.065   5.138  0.3852  0.7623 -0.1057
 6113TIP3    H139754   2.101   2.069   5.227 -0.0822  1.0899 -0.2918
 6113TIP3    H239755   2.092   1.989   5.099 -0.6785  1.5713 -0.5516
 6114TIP3   OH239756   4.370   2.996   4.004  0.0462  0.3459  0.1242
 6114TIP3    H139757   4.428   2.952   3.941 -0.7993  1.2726 -1.3504
 6114TIP3    H239758   4.420   2.996   4.086  1.9007  0.6111 -0.9471
 6115TIP3   OH239759   2.398   4.657   2.152  0.3075  0.6689  0.8025
 6115TIP3    H139760   2.462   4.697   2.093  1.7859  0.0626  1.9215
 6115TIP3    H239761   2.356   4.732   2.195  1.6839  1.0932  1.4727
 6116TIP3   OH239762   2.612   5.652   5.364  0.2405  0.0385 -0.0651
 6116TIP3    H139763   2.671   5.719   5.329 -0.5787  0.4093 -0.7799
 6116TIP3    H239764   2.622   5.577   5.304  0.7372 -0.2812  0.4077
 6117TIP3   OH239765   4.393   2.759  12.586  0.2160  0.5963  0.5209
 6117TIP3    H139766   4.480   2.746  12.623  1.7100  1.1508 -2.4545
 6117TIP3    H239767   4.362   2.840  12.626  1.9912  1.4951  0.1970
 6118TIP3   OH239768   2.579   5.558  16.491 -0.1325  0.2079 -0.0343
 6118TIP3    H139769   2.524   5.480  16.485 -0.8908  0.6479  0.8984
 6118TIP3    H239770   2.574   5.598  16.404  0.6587 -1.0271 -0.6671
 6119TIP3   OH239771   3.437   1.030   1.838 -0.2192 -0.1347  0.3392
 6119TIP3    H139772   3.529   1.020   1.861 -0.4766 -0.0522  1.5246
 6119TIP3    H239773   3.418   1.122   1.856 -0.3079  0.0867 -0.8205
 6120TIP3   OH239774   0.839   1.840  15.343 -0.2705  0.1240 -0.1033
 6120TIP3    H139775   0.846   1.920  15.395  0.5715  0.3922 -0.6079
 6120TIP3    H239776   0.914   1.844  15.283 -1.1382 -0.2299 -1.2561
 6121TIP3   OH239777   5.744   1.914   1.239  0.4897 -0.1830 -0.6590
 6121TIP3    H139778   5.758   1.821   1.258 -0.0359  0.0791  1.3073
 6121TIP3    H239779   5.649   1.923   1.230  0.4694  0.2617 -0.1016
 6122TIP3   OH239780   6.277   2.631  15.531 -0.1638  0.4574  0.1945
 6122TIP3    H139781   6.233   2.702  15.579  0.6206  0.1338  1.4297
 6122TIP3    H239782   6.233   2.551  15.561  1.9453  0.0007  2.3685
 6123TIP3   OH239783   3.570   0.089   2.316  0.0133 -0.0922  0.0495
 6123TIP3    H139784   3.557  -0.003   2.339 -0.8096  0.4965  2.1708
 6123TIP3    H239785   3.627   0.123   2.385  0.1932  1.0164 -0.6290
 6124TIP3   OH239786   2.014   0.294   0.582  0.1008  0.2501  0.3882
 6124TIP3    H139787   2.011   0.310   0.676  0.7833  0.4069  0.3859
 6124TIP3    H239788   1.956   0.361   0.544  0.7715  0.9607  0.6023
 6125TIP3   OH239789   1.669   4.214   6.419 -0.2638 -0.3956 -0.5112
 6125TIP3    H139790   1.701   4.155   6.487 -0.2501  1.1904  0.9396
 6125TIP3    H239791   1.745   4.227   6.361  0.3054 -0.3569  0.2210
 6126TIP3   OH239792   5.732   1.965   3.610 -0.5179 -0.4815  0.0770
 6126TIP3    H139793   5.779   1.902   3.555 -0.9297 -1.0507  0.3636
 6126TIP3    H239794   5.690   1.911   3.676  0.2064  0.2162  1.1396
 6127TIP3   OH239795   0.148   2.919   5.998  0.2921  0.5310 -0.4366
 6127TIP3    H139796   0.215   2.917   6.067 -0.0131  1.2950 -0.1159
 6127TIP3    H239797   0.181   2.982   5.935  1.0086 -0.8089 -1.4676
 6128TIP3   OH239798   5.891   5.991  16.657 -0.4009 -0.2491 -0.3516
 6128TIP3    H139799   5.906   6.001  16.563  1.4776  0.5411 -0.0022
 6128TIP3    H239800   5.970   5.947  16.689 -0.3968  0.7437  1.0604
 6129TIP3   OH239801   4.199   2.433  14.348  0.4369  0.5131 -0.2803
 6129TIP3    H139802   4.127   2.374  14.325 -0.3054  1.9901 -2.0342
 6129TIP3    H239803   4.266   2.376  14.386 -1.1488 -1.0860  0.2616
 6130TIP3   OH239804   4.694   6.004  13.108 -0.9935  0.3447  0.4142
 6130TIP3    H139805   4.639   5.927  13.122  0.7359 -1.4432 -1.8918
 6130TIP3    H239806   4.768   5.993  13.168 -0.2728 -0.3188 -0.5777
 6131TIP3   OH239807   5.492   3.672   5.984 -0.3991 -0.1402 -0.0887
 6131TIP3    H139808   5.471   3.707   6.070 -1.6641 -0.4170 -0.2656
 6131TIP3    H239809   5.420   3.612   5.964  0.0359 -0.3200 -1.2081
 6132TIP3   OH239810   2.051   4.253   1.726  0.1669 -0.6138  0.1056
 6132TIP3    H139811   2.006   4.265   1.642  1.5040 -1.1504 -0.7185
 6132TIP3    H239812   2.079   4.162   1.725  0.4869 -0.5323  1.0058
 6133TIP3   OH239813   3.159   6.146  11.422 -0.0985 -0.2264  0.0195
 6133TIP3    H139814   3.190   6.108  11.340  0.8821  0.2337  0.1647
 6133TIP3    H239815   3.201   6.232  11.427  0.0239 -0.3263  1.0924
 6134TIP3   OH239816   4.295   6.282  10.999 -0.5177 -0.1612  0.0796
 6134TIP3    H139817   4.204   6.276  10.970 -0.7250 -3.1220  0.9919
 6134TIP3    H239818   4.346   6.256  10.922 -0.5077  0.3991 -0.1057
 6135TIP3   OH239819   4.325   0.715  14.413 -0.1471 -0.7620 -0.4877
 6135TIP3    H139820   4.283   0.772  14.348  1.1416 -1.0362 -1.5840
 6135TIP3    H239821   4.291   0.748  14.497 -1.1097  0.2123 -1.2128
 6136TIP3   OH239822   3.207   3.233  11.512 -0.3762  0.6209  0.0931
 6136TIP3    H139823   3.240   3.247  11.423  1.2497  0.9960  0.7295
 6136TIP3    H239824   3.271   3.174  11.552  0.2296  2.3075  1.7416
 6137TIP3   OH239825   5.292   5.742  12.543 -0.0798 -0.7744  0.6644
 6137TIP3    H139826   5.200   5.753  12.520  0.3366 -0.7217 -1.1184
 6137TIP3    H239827   5.316   5.824  12.585  0.0474  0.7502 -2.1593
 6138TIP3   OH239828   4.686   0.911   2.961 -0.0765  0.5958 -0.2736
 6138TIP3    H139829   4.630   0.834   2.963 -1.8987  1.8445  2.0268
 6138TIP3    H239830   4.758   0.891   3.022 -0.7400  0.7801  0.5989
 6139TIP3   OH239831   5.743   5.181  16.618 -0.2824 -0.0802 -0.0890
 6139TIP3    H139832   5.808   5.241  16.579  0.5776 -0.2417  1.0603
 6139TIP3    H239833   5.755   5.099  16.571  0.2833 -0.0787  0.0505
 6140TIP3   OH239834   2.488   1.872   4.447 -0.2817 -0.3405 -0.1130
 6140TIP3    H139835   2.538   1.949   4.418 -0.7600 -0.0408 -0.1629
 6140TIP3    H239836   2.422   1.859   4.379  0.5312 -1.5274 -0.7026
 6141TIP3   OH239837   5.789   4.019   5.424  0.5666  0.1520 -0.5479
 6141TIP3    H139838   5.810   4.018   5.518  0.2947  0.3121 -0.4856
 6141TIP3    H239839   5.705   3.972   5.418  0.3790  0.5027 -0.6611
 6142TIP3   OH239840   3.449   0.457  15.879  0.3785  0.4478 -0.2977
 6142TIP3    H139841   3.427   0.510  15.956 -1.7038  0.0639 -0.5726
 6142TIP3    H239842   3.489   0.378  15.914  0.6436  0.8352  0.2894
 6143TIP3   OH239843   4.212   1.737   5.284  0.5893 -0.1613 -0.0931
 6143TIP3    H139844   4.285   1.675   5.284  1.5460  0.8646 -2.0168
 6143TIP3    H239845   4.134   1.683   5.293  1.4982 -1.4158  0.5844
 6144TIP3   OH239846   2.291   4.770   6.154 -0.6302  0.0917 -0.3777
 6144TIP3    H139847   2.365   4.831   6.155 -0.1143 -0.4258 -2.3929
 6144TIP3    H239848   2.325   4.690   6.193 -0.4163  0.1584 -0.4269
 6145TIP3   OH239849   1.528   0.009  17.117  0.3405 -0.0302  0.0983
 6145TIP3    H139850   1.542  -0.084  17.098 -3.3018 -0.7521  0.1655
 6145TIP3    H239851   1.501   0.047  17.033  0.5015  0.6652  0.3542
 6146TIP3   OH239852   1.745   4.935   3.655  0.4530  0.3384  0.3329
 6146TIP3    H139853   1.708   5.023   3.652 -0.1077  0.0689 -1.3598
 6146TIP3    H239854   1.674   4.879   3.687  1.4854  0.7439  3.8433
 6147TIP3   OH239855   4.766   1.902  16.313 -0.5082  0.2755 -0.3779
 6147TIP3    H139856   4.769   1.995  16.333 -1.2166 -0.0609  1.4871
 6147TIP3    H239857   4.812   1.894  16.229  2.1090  1.9017  0.7767
 6148TIP3   OH239858   1.028   4.513  11.563 -0.8417 -0.3813  0.4584
 6148TIP3    H139859   1.097   4.487  11.503 -1.6265  0.2236 -0.7591
 6148TIP3    H239860   0.947   4.502  11.513 -1.4739  0.7704  1.1623
 6149TIP3   OH239861   5.340   4.606   1.168 -0.0635  0.8506  0.2669
 6149TIP3    H139862   5.359   4.604   1.262 -0.1640  1.8488  0.3138
 6149TIP3    H239863   5.248   4.631   1.163 -0.0776  0.7311 -0.1014
 6150TIP3   OH239864   1.037   5.981   3.632  0.5613 -0.0102 -0.1129
 6150TIP3    H139865   0.957   5.943   3.669 -0.0854  0.9302 -0.5008
 6150TIP3    H239866   1.108   5.927   3.667 -0.1555 -0.1236  1.2232
 6151TIP3   OH239867   5.599   2.954  15.505  0.1238 -0.2605  0.4908
 6151TIP3    H139868   5.516   2.983  15.469  1.0240  0.9888 -0.7058
 6151TIP3    H239869   5.661   3.024  15.484  1.3175 -0.7401  2.0994
 6152TIP3   OH239870   5.875   3.564  11.409  0.4886  0.3756  0.2165
 6152TIP3    H139871   5.811   3.513  11.459 -1.3717  1.2351 -1.1444
 6152TIP3    H239872   5.824   3.637  11.372  2.5154  1.7696 -0.0172
 6153TIP3   OH239873   1.873   1.191   0.296 -0.3488  0.1761 -0.0997
 6153TIP3    H139874   1.806   1.215   0.361  1.1373  1.7069  0.9231
 6153TIP3    H239875   1.826   1.133   0.235 -1.7939 -1.4698  2.3715
 6154TIP3   OH239876   0.455   4.436   3.831 -0.5134 -0.6094  0.9128
 6154TIP3    H139877   0.476   4.529   3.818  1.6346 -1.2779 -1.1932
 6154TIP3    H239878   0.384   4.418   3.769  0.2380 -0.7060  0.0541
 6155TIP3   OH239879   4.424   3.247  16.665 -0.1514  0.5403  0.3240
 6155TIP3    H139880   4.441   3.184  16.595  0.2495  0.8857  0.1050
 6155TIP3    H239881   4.486   3.318  16.648 -0.3609  0.8300  0.7703
 6156TIP3   OH239882   2.416   1.615  15.168  0.3585  1.0534 -0.3594
 6156TIP3    H139883   2.355   1.663  15.223 -0.2082  0.4969 -0.4965
 6156TIP3    H239884   2.474   1.570  15.229  0.2738  1.1218 -0.2302
 6157TIP3   OH239885   1.440   4.130   5.533  0.8063  0.0389  0.4069
 6157TIP3    H139886   1.509   4.100   5.592  0.6720  0.0955  0.5945
 6157TIP3    H239887   1.369   4.158   5.591  0.6001 -0.0770  0.2152
 6158TIP3   OH239888   2.619   2.703  12.075 -0.0162  0.4462 -0.3757
 6158TIP3    H139889   2.688   2.764  12.049 -0.1464  1.0196  0.5746
 6158TIP3    H239890   2.560   2.755  12.128  0.5839 -0.7996  1.6320
 6159TIP3   OH239891   4.550   1.842  12.553  0.0762 -0.2183 -0.1767
 6159TIP3    H139892   4.599   1.895  12.616  0.0082  0.1422 -0.4282
 6159TIP3    H239893   4.466   1.825  12.596  0.2437 -0.4568  0.0656
 6160TIP3   OH239894   2.652   6.219   4.597  0.1935 -0.6318 -0.2187
 6160TIP3    H139895   2.569   6.175   4.615  0.8533 -2.2801 -1.0460
 6160TIP3    H239896   2.661   6.215   4.502  3.0130 -4.0634 -0.0231
 6161TIP3   OH239897   5.874   4.186  11.278  0.1745 -0.2444 -0.0107
 6161TIP3    H139898   5.839   4.119  11.336  0.5933 -0.3798  0.0824
 6161TIP3    H239899   5.846   4.159  11.190 -1.5732  0.6319  0.2197
 6162TIP3   OH239900   5.668   0.152   2.023  0.0460  0.3450 -0.0750
 6162TIP3    H139901   5.709   0.081   1.973 -2.5309 -1.3864  0.0761
 6162TIP3    H239902   5.666   0.120   2.113  0.4219  1.3976  0.3216
 6163TIP3   OH239903   2.293   0.575  14.390 -0.5414  0.3378 -0.3290
 6163TIP3    H139904   2.208   0.613  14.412 -0.1788  1.6320 -1.0354
 6163TIP3    H239905   2.275   0.483  14.374 -2.1205  0.8668 -1.9843
 6164TIP3   OH239906   3.546   2.914  14.683 -0.2790 -0.2694  0.5487
 6164TIP3    H139907   3.494   2.840  14.653 -1.9141  1.0811 -0.1412
 6164TIP3    H239908   3.510   2.935  14.769 -1.1073  0.8490 -0.0495
 6165TIP3   OH239909   4.780   2.803   2.708 -0.4129 -0.0227  0.3617
 6165TIP3    H139910   4.800   2.735   2.773  1.6630  2.1269  2.1948
 6165TIP3    H239911   4.862   2.817   2.662 -0.6946  1.3699  0.2217
 6166TIP3   OH239912   0.238   5.478   2.552  0.2610  0.2984 -0.2849
 6166TIP3    H139913   0.209   5.437   2.471 -0.5588  1.0814 -0.3980
 6166TIP3    H239914   0.241   5.571   2.533  1.4175  0.3797  0.1860
 6167TIP3   OH239915   4.201   2.532  13.801 -0.0829 -0.1256  0.0363
 6167TIP3    H139916   4.213   2.437  13.797  0.9554 -0.1080  1.5414
 6167TIP3    H239917   4.127   2.543  13.860  0.7906 -0.0112  1.1579
 6168TIP3   OH239918   3.747   0.352   5.631 -0.7539 -0.7733 -0.4120
 6168TIP3    H139919   3.808   0.290   5.592  0.2030 -0.0847 -0.0611
 6168TIP3    H239920   3.726   0.315   5.716  1.4677  0.3464  0.6981
 6169TIP3   OH239921   6.042   6.445  17.342  0.1751  0.0746  0.1422
 6169TIP3    H139922   5.954   6.406  17.342 -0.1629  0.8085 -0.8707
 6169TIP3    H239923   6.035   6.521  17.284  1.9151 -0.8885 -1.4626
 6170TIP3   OH239924   0.594   5.122   6.395  0.0869  0.1102  0.8771
 6170TIP3    H139925   0.548   5.038   6.385 -0.5325  0.5707 -0.3844
 6170TIP3    H239926   0.660   5.122   6.326 -0.9058  1.2654 -0.1196
 6171TIP3   OH239927   4.380   4.523  16.959  0.1928  0.1128 -0.0166
 6171TIP3    H139928   4.317   4.453  16.975 -1.2602  1.3269 -0.1753
 6171TIP3    H239929   4.352   4.561  16.875  1.5912  0.2313 -0.4540
 6172TIP3   OH239930   3.877   1.032   5.673 -0.2651  0.0845  0.9185
 6172TIP3    H139931   3.863   0.988   5.757 -0.5530  1.9099  1.8782
 6172TIP3    H239932   3.846   1.121   5.687  0.3996  0.6515 -0.9061
 6173TIP3   OH239933   3.795   0.872  16.012  0.0321  0.1439 -0.1411
 6173TIP3    H139934   3.871   0.831  15.970  0.7306  0.9900  0.2836
 6173TIP3    H239935   3.728   0.873  15.943  0.4300 -0.5074 -0.5527
 6174TIP3   OH239936   1.700   0.638   3.159 -0.2771  0.3812  0.7913
 6174TIP3    H139937   1.676   0.688   3.081  1.5102  0.5541  0.3159
 6174TIP3    H239938   1.755   0.698   3.210 -0.6167 -0.0719  1.7271
 6175TIP3   OH239939   0.252   0.364  11.530  0.1977 -0.5041 -0.1989
 6175TIP3    H139940   0.312   0.291  11.547  1.8971  0.9164  0.2339
 6175TIP3    H239941   0.249   0.413  11.612 -0.4939  0.2120 -0.6329
 6176TIP3   OH239942   2.197   2.399  16.134 -0.2582  0.6871 -0.0275
 6176TIP3    H139943   2.213   2.352  16.052 -0.4233 -0.4940  0.5914
 6176TIP3    H239944   2.228   2.339  16.202  0.2721  1.8208  0.7678
 6177TIP3   OH239945   0.860   5.631   2.920 -0.4610 -0.1408 -0.5075
 6177TIP3    H139946   0.823   5.675   2.997  0.8382  0.4693 -0.2162
 6177TIP3    H239947   0.889   5.546   2.953 -1.0426 -0.3825 -0.6075
 6178TIP3   OH239948   5.829   6.217  16.377  0.4098 -0.0905 -0.2606
 6178TIP3    H139949   5.781   6.287  16.421 -0.9189 -0.1994 -1.4449
 6178TIP3    H239950   5.839   6.248  16.287  1.9063 -0.4243 -0.2282
 6179TIP3   OH239951   5.551   1.117   3.189  0.0755 -0.2757 -0.0681
 6179TIP3    H139952   5.495   1.043   3.164  1.1780 -0.5394 -2.0094
 6179TIP3    H239953   5.521   1.141   3.277 -1.3150 -2.0547  0.0198
 6180TIP3   OH239954   1.581   2.115  13.627  0.3641  0.0078  0.0978
 6180TIP3    H139955   1.565   2.185  13.691 -1.7252 -1.3368  1.1874
 6180TIP3    H239956   1.628   2.048  13.677 -0.5355 -0.7060  0.0014
 6181TIP3   OH239957   4.212   2.036  11.107 -0.0251 -0.1433 -0.1400
 6181TIP3    H139958   4.292   1.989  11.131 -0.3628 -1.1923 -0.9712
 6181TIP3    H239959   4.209   2.029  11.011 -1.7993 -1.2871 -0.0312
 6182TIP3   OH239960   3.846   0.463  13.327  0.4209  0.4029  0.0398
 6182TIP3    H139961   3.835   0.386  13.383 -2.0755 -0.7590 -1.8965
 6182TIP3    H239962   3.777   0.523  13.355 -0.8131 -0.1632 -1.6502
 6183TIP3   OH239963   5.870   2.620   3.740  0.2256 -0.0777 -0.7190
 6183TIP3    H139964   5.827   2.703   3.718 -1.3097 -1.0620 -1.6857
 6183TIP3    H239965   5.826   2.556   3.684  1.0301 -1.6217  0.3557
 6184TIP3   OH239966   4.714   3.341  11.856 -0.3523 -0.2798  0.1307
 6184TIP3    H139967   4.690   3.433  11.863  0.2559 -0.0418 -0.6966
 6184TIP3    H239968   4.667   3.311  11.778 -0.4505 -0.6404  0.3275
 6185TIP3   OH239969   5.770   3.362  13.459 -0.1508  0.5622 -0.0736
 6185TIP3    H139970   5.773   3.389  13.367  0.4868 -1.3555 -0.6706
 6185TIP3    H239971   5.725   3.277  13.458  1.7182 -0.5165  1.0576
 6186TIP3   OH239972   6.567   0.578  11.360  0.8429 -0.0698 -0.4334
 6186TIP3    H139973   6.496   0.607  11.303  0.9267 -1.6928 -1.4472
 6186TIP3    H239974   6.532   0.499  11.403  0.6522  1.2859  2.0936
 6187TIP3   OH239975   1.161   6.552  11.721  0.2638 -0.1873  0.0906
 6187TIP3    H139976   1.153   6.628  11.778 -2.1157 -1.9101  2.2760
 6187TIP3    H239977   1.155   6.588  11.632  1.5976  2.3361  0.9124
 6188TIP3   OH239978   1.306   0.847   1.749  0.0009 -0.2625 -0.4273
 6188TIP3    H139979   1.253   0.873   1.673  0.9209  1.8276 -0.4124
 6188TIP3    H239980   1.383   0.805   1.711 -0.4286 -0.9632 -0.5470
 6189TIP3   OH239981   5.458   3.606  16.180 -0.2792 -0.4919  0.1003
 6189TIP3    H139982   5.407   3.577  16.255 -1.1093 -1.3890 -0.7753
 6189TIP3    H239983   5.530   3.657  16.217 -1.0797 -0.3049  1.4410
 6190TIP3   OH239984   5.925   3.611   0.582 -0.4617 -0.2850 -0.0646
 6190TIP3    H139985   5.843   3.563   0.574 -0.4155 -0.0677 -2.3651
 6190TIP3    H239986   5.987   3.564   0.525  0.4616  0.6641  0.1209
 6191TIP3   OH239987   5.908   0.976   4.152  0.4350  0.7621  0.4679
 6191TIP3    H139988   5.979   1.025   4.110  1.8210 -0.6139  1.1207
 6191TIP3    H239989   5.867   0.927   4.081  1.2210  0.3010  0.3162
 6192TIP3   OH239990   3.286   4.157   6.055 -0.7216  0.3294 -0.0402
 6192TIP3    H139991   3.325   4.113   6.130 -3.2431 -2.2432 -0.0848
 6192TIP3    H239992   3.256   4.087   5.997 -3.0908  2.0945 -1.1598
 6193TIP3   OH239993   4.981   0.810   3.569  0.2129 -0.5242 -0.2552
 6193TIP3    H139994   4.915   0.740   3.572  0.4357 -0.7137  0.2152
 6193TIP3    H239995   5.054   0.771   3.521 -1.0960  0.6161 -3.4461
 6194TIP3   OH239996   3.519   5.161   1.031  0.1473 -0.2596 -0.2807
 6194TIP3    H139997   3.538   5.255   1.040 -0.3665 -0.2017  0.1948
 6194TIP3    H239998   3.495   5.133   1.118  0.8543 -0.9715 -0.3038
 6195TIP3   OH239999   4.336   2.540   5.025  0.1281 -0.0963  0.4632
 6195TIP3    H140000   4.332   2.618   5.080  0.4611  0.7758 -0.7084
 6195TIP3    H240001   4.331   2.467   5.086 -0.1310  0.8407  1.5897
 6196TIP3   OH240002   1.129   6.381   0.061 -0.3172  0.5449 -0.2656
 6196TIP3    H140003   1.078   6.372  -0.019 -0.0483 -0.2986 -0.3506
 6196TIP3    H240004   1.173   6.465   0.052 -1.1214  0.9503 -0.5151
 6197TIP3   OH240005   3.951   4.069   3.582  0.3092 -0.4571 -0.0181
 6197TIP3    H140006   3.986   4.009   3.647 -0.5289 -0.6979  0.2220
 6197TIP3    H240007   4.001   4.051   3.503  0.9897 -0.5121  0.4217
 6198TIP3   OH240008   3.398   6.739  11.570 -0.4021 -0.1301  0.1606
 6198TIP3    H140009   3.469   6.699  11.521  0.0706 -0.0889  0.7934
 6198TIP3    H240010   3.397   6.692  11.653 -1.2798 -0.2911  0.0665
 6199TIP3   OH240011   6.615   1.922   0.168  0.4241 -0.4667 -0.8400
 6199TIP3    H140012   6.662   1.999   0.198  1.0498 -0.4419 -1.8537
 6199TIP3    H240013   6.676   1.878   0.109 -0.0187 -1.6074 -0.4725
 6200TIP3   OH240014   5.134   3.985  13.325 -0.3219 -0.1151  0.4168
 6200TIP3    H140015   5.205   4.015  13.268 -0.6616 -0.8052 -0.3954
 6200TIP3    H240016   5.059   3.974  13.266 -0.7810 -0.4811  1.0608
 6201TIP3   OH240017   1.736   5.389   1.590 -0.4026  0.1367 -0.5526
 6201TIP3    H140018   1.748   5.310   1.643 -1.4295  1.4512  1.8165
 6201TIP3    H240019   1.662   5.369   1.533 -0.7180 -0.5905  0.0959
 6202TIP3   OH240020   5.197   1.838  15.415  0.7230  0.2267 -0.0680
 6202TIP3    H140021   5.233   1.775  15.353  1.5734  0.2605  0.3798
 6202TIP3    H240022   5.111   1.803  15.438  1.0210 -0.5596 -0.1384
 6203TIP3   OH240023   1.397   0.962  11.438  0.2142  0.4031 -0.1053
 6203TIP3    H140024   1.392   0.915  11.521 -0.3028  2.0145  0.8093
 6203TIP3    H240025   1.441   0.901  11.379 -1.6905 -1.8204  0.6048
 6204TIP3   OH240026   4.997   3.595  16.493  0.5970  0.4663 -0.2008
 6204TIP3    H140027   4.936   3.661  16.460 -0.2006 -0.1016  0.0947
 6204TIP3    H240028   5.029   3.550  16.415  0.5845  0.7190 -0.3522
 6205TIP3   OH240029   2.312   2.262   5.606  0.0441 -0.4424 -0.5611
 6205TIP3    H140030   2.311   2.220   5.692  2.7653  0.5752  0.0525
 6205TIP3    H240031   2.361   2.202   5.550 -2.4142 -1.5061 -1.7374
 6206TIP3   OH240032   6.010   5.588  13.210  0.7986 -0.2107 -0.2015
 6206TIP3    H140033   5.935   5.646  13.195  1.2585  0.0493 -1.6626
 6206TIP3    H240034   5.984   5.535  13.285 -1.0635 -0.4502 -0.9551
 6207TIP3   OH240035   0.627   5.562  11.092  0.8172  0.5890 -0.1636
 6207TIP3    H140036   0.541   5.563  11.133  0.6295 -1.8647 -0.3383
 6207TIP3    H240037   0.688   5.547  11.165  0.8209 -0.2443 -0.3268
 6208TIP3   OH240038   6.260   5.607  11.967  0.0056 -0.0710  0.0272
 6208TIP3    H140039   6.323   5.570  11.905 -0.7290  1.2553 -1.6066
 6208TIP3    H240040   6.185   5.548  11.963  0.3357 -0.5259  0.4155
 6209TIP3   OH240041   4.426   4.602   0.464  0.1833  0.0605 -0.3104
 6209TIP3    H140042   4.460   4.665   0.401 -0.0864  0.4602 -0.0615
 6209TIP3    H240043   4.371   4.543   0.412 -1.3017  1.3187 -0.2229
 6210TIP3   OH240044   3.377   4.904  16.198 -0.1259  0.3291  0.0074
 6210TIP3    H140045   3.456   4.955  16.182  0.5337  0.0195  1.9543
 6210TIP3    H240046   3.313   4.939  16.137  0.9947  1.8348 -0.3684
 6211TIP3   OH240047   1.036   0.364   0.277  0.0471 -0.2705 -0.1475
 6211TIP3    H140048   1.003   0.292   0.224 -0.7005 -0.2396  0.2700
 6211TIP3    H240049   1.070   0.427   0.212  0.2474 -0.7680 -0.5317
 6212TIP3   OH240050   1.376   2.305   3.613 -0.4783 -0.0242 -0.0615
 6212TIP3    H140051   1.308   2.239   3.599 -1.2765  0.2549  2.0620
 6212TIP3    H240052   1.436   2.264   3.676 -0.8547  1.1210  1.1015
 6213TIP3   OH240053   4.664   5.385  14.557 -0.2790 -0.0965  0.4263
 6213TIP3    H140054   4.754   5.415  14.554  1.1202 -3.5326  2.0839
 6213TIP3    H240055   4.632   5.415  14.642 -0.3871  0.3195  0.2407
 6214TIP3   OH240056   2.570   1.490  17.381  0.0902 -0.0271  0.3200
 6214TIP3    H140057   2.644   1.530  17.335 -0.1710  0.8191  0.6336
 6214TIP3    H240058   2.610   1.432  17.446  0.4695 -1.0921 -0.8069
 6215TIP3   OH240059   3.925   1.802   5.119 -0.3036 -0.1509  0.0395
 6215TIP3    H140060   3.990   1.732   5.128 -0.8624 -0.6366  0.3451
 6215TIP3    H240061   3.872   1.796   5.198 -0.8952  0.0622 -0.3345
 6216TIP3   OH240062   3.641   4.368   5.445 -0.2479 -0.3659  0.2169
 6216TIP3    H140063   3.646   4.458   5.477  0.6778 -0.3079 -0.0508
 6216TIP3    H240064   3.601   4.319   5.516 -2.3807  0.5467 -0.2769
 6217TIP3   OH240065   1.212   3.887  16.384 -0.2621 -0.1890 -0.0929
 6217TIP3    H140066   1.157   3.811  16.365 -2.4249  0.7966  1.6813
 6217TIP3    H240067   1.198   3.946  16.311  0.3681 -0.9138 -0.8182
 6218TIP3   OH240068   2.851   0.778  16.716  0.3047 -0.5783 -0.2023
 6218TIP3    H140069   2.883   0.779  16.806 -0.6077 -0.5552  0.1320
 6218TIP3    H240070   2.800   0.697  16.709  1.4721 -1.2672 -1.1088
 6219TIP3   OH240071   4.638   6.439  16.008 -0.7116  0.2490  0.2581
 6219TIP3    H140072   4.708   6.461  16.070 -1.3170  1.4779  0.5410
 6219TIP3    H240073   4.675   6.457  15.922 -0.8866  1.5732  0.4414
 6220TIP3   OH240074   2.767   5.554   1.600 -0.6186 -0.7932 -0.0955
 6220TIP3    H140075   2.761   5.505   1.681 -0.3879 -1.5974 -0.5538
 6220TIP3    H240076   2.804   5.492   1.537  0.2071  0.1374 -0.5448
 6221TIP3   OH240077   0.628   6.697  11.180  0.6142 -0.5119 -0.2862
 6221TIP3    H140078   0.544   6.725  11.218  0.1321  0.9974 -2.2976
 6221TIP3    H240079   0.632   6.603  11.198 -1.1086 -0.4653  0.5722
 6222TIP3   OH240080   0.920   6.593  11.905 -0.2374  0.2867 -0.4799
 6222TIP3    H140081   0.966   6.678  11.903 -1.1175  0.7925  0.0847
 6222TIP3    H240082   0.987   6.531  11.935 -0.3539  1.3696  2.4132
 6223TIP3   OH240083   5.818   1.010  12.168 -0.3971  0.3565  0.2529
 6223TIP3    H140084   5.811   1.087  12.226 -0.1317  0.7318 -0.2006
 6223TIP3    H240085   5.846   1.047  12.084 -1.7685 -0.0705 -0.4037
 6224TIP3   OH240086   4.279   0.751  14.060 -0.5494  0.4224 -0.3636
 6224TIP3    H140087   4.257   0.796  14.142 -1.4726  0.0353 -0.3806
 6224TIP3    H240088   4.291   0.821  13.996 -2.2787  0.6687 -0.4648
 6225TIP3   OH240089   4.113   5.292   0.556  0.2949 -0.3523  0.0776
 6225TIP3    H140090   4.176   5.223   0.577  1.1664 -0.2499 -1.9302
 6225TIP3    H240091   4.043   5.247   0.508  0.3494 -0.0164 -0.3285
 6226TIP3   OH240092   1.863   3.268  11.232 -0.1707  0.2156 -0.8309
 6226TIP3    H140093   1.799   3.198  11.242  0.9874 -0.8766 -0.7610
 6226TIP3    H240094   1.939   3.225  11.192  1.0551  1.1339  0.4233
 6227TIP3   OH240095   1.497   6.318   4.016  0.0034  0.2619  0.8165
 6227TIP3    H140096   1.557   6.288   4.084  1.6429  1.5940  0.0306
 6227TIP3    H240097   1.527   6.275   3.936 -2.2183 -1.7018  0.9048
 6228TIP3   OH240098   6.409   1.793  12.556 -0.5546 -0.1627  0.4019
 6228TIP3    H140099   6.374   1.869  12.510 -1.6056 -0.3562  0.8529
 6228TIP3    H240100   6.441   1.735  12.487 -2.5890 -0.6960 -0.1643
 6229TIP3   OH240101   1.318   3.559   0.549 -0.2706 -0.4115  0.3443
 6229TIP3    H140102   1.350   3.495   0.486 -2.3667 -1.1500 -0.0724
 6229TIP3    H240103   1.337   3.521   0.635  0.1798 -0.6828  0.1272
 6230TIP3   OH240104   1.233   6.571  13.271 -0.2065  0.6583  0.5499
 6230TIP3    H140105   1.252   6.641  13.209  0.5618 -0.2489 -0.2927
 6230TIP3    H240106   1.215   6.615  13.354  0.1285  1.8448  0.0066
 6231TIP3   OH240107   0.503   4.342   0.662  0.0491 -0.1689  0.1857
 6231TIP3    H140108   0.535   4.383   0.582 -0.5482  0.4656  0.2582
 6231TIP3    H240109   0.467   4.415   0.713 -0.5398 -0.7096  0.5642
 6232TIP3   OH240110   1.176   3.069  14.349  0.3637  0.5723  0.3625
 6232TIP3    H140111   1.152   3.056  14.257  0.4674  1.4314  0.2030
 6232TIP3    H240112   1.165   2.983  14.389 -1.0141  0.4741 -0.1541
 6233TIP3   OH240113   0.529   1.112  11.092 -0.7527 -0.0059  0.2687
 6233TIP3    H140114   0.547   1.202  11.064 -0.0676 -0.6930 -1.6483
 6233TIP3    H240115   0.603   1.061  11.060 -0.4655 -1.1009  2.4583
 6234TIP3   OH240116   1.713   1.294   2.672 -0.1715  0.0417 -0.0807
 6234TIP3    H140117   1.772   1.310   2.597 -0.7050 -1.5140 -0.8845
 6234TIP3    H240118   1.657   1.372   2.676 -0.4811 -0.0649 -1.6645
 6235TIP3   OH240119   3.460   4.435  14.606  0.7828  0.0374 -0.5158
 6235TIP3    H140120   3.506   4.433  14.522  0.4107  0.6150 -0.7425
 6235TIP3    H240121   3.405   4.357  14.605  1.4798 -0.4723 -0.3929
 6236TIP3   OH240122   4.855   4.521   3.416  0.6105 -0.0005 -0.4655
 6236TIP3    H140123   4.922   4.464   3.454  0.8259  0.6589  0.1769
 6236TIP3    H240124   4.899   4.565   3.344  1.1523  1.0680  0.4824
 6237TIP3   OH240125   0.744   6.256   5.404 -0.1294 -0.3553  0.3657
 6237TIP3    H140126   0.729   6.349   5.384  0.2232 -0.2877  0.4094
 6237TIP3    H240127   0.705   6.244   5.490  1.5923  0.2465  1.2766
 6238TIP3   OH240128   3.522   5.650  16.645 -0.1777 -0.0197  0.2061
 6238TIP3    H140129   3.445   5.689  16.604  0.2193 -1.9063 -2.5923
 6238TIP3    H240130   3.487   5.603  16.721 -1.6620 -0.0432 -0.4501
 6239TIP3   OH240131   5.739   5.059   1.796  0.4571 -0.7939  0.2818
 6239TIP3    H140132   5.834   5.052   1.809  0.6058 -2.0404 -1.1189
 6239TIP3    H240133   5.726   5.034   1.704 -1.1731 -0.0078  0.2641
 6240TIP3   OH240134   3.465   6.227   0.112 -0.0587 -0.4304 -0.7741
 6240TIP3    H140135   3.468   6.259   0.202 -4.1758 -0.7610 -0.3625
 6240TIP3    H240136   3.497   6.301   0.060  1.6551  0.0464  0.8282
 6241TIP3   OH240137   2.582   0.056  14.173 -0.2410  0.0805 -0.0510
 6241TIP3    H140138   2.650  -0.001  14.137 -0.0213 -0.6810  1.4795
 6241TIP3    H240139   2.500   0.019  14.142 -0.0776 -0.8860  0.6226
 6242TIP3   OH240140   5.752   4.333  11.520 -0.2371  0.6829  0.0907
 6242TIP3    H140141   5.814   4.260  11.521  0.1773  0.9091 -2.4378
 6242TIP3    H240142   5.666   4.292  11.531  0.2100  0.2819  2.7225
 6243TIP3   OH240143   2.760   4.509  15.257  0.6093 -0.7243  0.4174
 6243TIP3    H140144   2.731   4.446  15.323 -0.6866 -0.2823  0.3062
 6243TIP3    H240145   2.679   4.548  15.224  1.1968 -1.1729 -1.6861
 6244TIP3   OH240146   4.579   0.838   4.423  0.1089 -0.2317  0.1699
 6244TIP3    H140147   4.659   0.796   4.455  0.3574  0.0356 -0.0852
 6244TIP3    H240148   4.508   0.795   4.470  0.4913  0.5175  1.4770
 6245TIP3   OH240149   0.395   1.407   2.836  0.1327  0.6569  0.3473
 6245TIP3    H140150   0.392   1.314   2.813  3.1830  0.8417 -1.3466
 6245TIP3    H240151   0.325   1.446   2.784  0.3515 -0.4058 -0.8138
 6246TIP3   OH240152   6.686   0.433   4.217  0.6084  0.1782  0.6484
 6246TIP3    H140153   6.746   0.358   4.216  1.9759  1.1874 -1.3106
 6246TIP3    H240154   6.599   0.394   4.229  1.2843 -1.7134 -0.1129
 6247TIP3   OH240155   5.995   4.621  16.256  0.3183  0.6506  0.0107
 6247TIP3    H140156   5.972   4.531  16.279 -1.4523  1.3751  1.2992
 6247TIP3    H240157   5.967   4.631  16.165  1.7822 -0.4617 -0.6002
 6248TIP3   OH240158   0.288   0.304   6.132  0.1091  0.4667 -0.5393
 6248TIP3    H140159   0.273   0.304   6.227  1.3674 -1.3801 -0.2871
 6248TIP3    H240160   0.201   0.321   6.095 -0.4091  1.2532  0.9263
 6249TIP3   OH240161   4.915   3.341   5.875 -0.1667 -0.6614  0.5430
 6249TIP3    H140162   4.999   3.305   5.903  0.4473  0.6995  0.5468
 6249TIP3    H240163   4.936   3.428   5.841 -1.5281 -0.4383  0.1900
 6250TIP3   OH240164   5.560   0.501   5.890  0.8066  0.2202  0.3470
 6250TIP3    H140165   5.481   0.477   5.937  0.5573 -0.3175 -0.3253
 6250TIP3    H240166   5.593   0.419   5.854  0.5797  0.6977 -1.0288
 6251TIP3   OH240167   0.150   4.731  17.018  0.2568 -0.0196  0.2900
 6251TIP3    H140168   0.146   4.819  17.054 -2.0862  0.6545 -1.3353
 6251TIP3    H240169   0.193   4.742  16.933 -1.5186 -0.0517 -0.6749
 6252TIP3   OH240170   5.089   2.091  11.054  0.1464  0.2951 -0.6129
 6252TIP3    H140171   5.100   2.158  10.986  1.9190  0.4189 -0.2563
 6252TIP3    H240172   5.131   2.013  11.018  0.0303  0.0171 -0.1511
 6253TIP3   OH240173   5.966   3.410   4.391 -0.1163 -0.0632  0.2252
 6253TIP3    H140174   6.041   3.398   4.334 -0.6947  0.3281 -0.6400
 6253TIP3    H240175   5.921   3.487   4.356 -0.8955 -0.2670  0.7513
 6254TIP3   OH240176   6.524   6.577   4.807  0.2901 -0.5789 -0.4074
 6254TIP3    H140177   6.574   6.603   4.884 -0.0851 -1.4781  0.1586
 6254TIP3    H240178   6.574   6.612   4.733  0.1741  1.1190  0.2535
 6255TIP3   OH240179   0.221   5.939   0.203  0.2404 -0.4793  0.2088
 6255TIP3    H140180   0.144   5.927   0.147 -0.8146  0.9314  1.2989
 6255TIP3    H240181   0.208   5.878   0.275  2.3521 -3.4420 -1.6666
 6256TIP3   OH240182   4.184   5.032  14.702 -0.0584 -0.1758 -0.9171
 6256TIP3    H140183   4.178   5.108  14.759  0.6237 -0.6563 -0.1838
 6256TIP3    H240184   4.197   4.958  14.762  0.7745 -0.6807 -1.6903
 6257TIP3   OH240185   2.381   6.488   1.813 -0.5224 -0.2821 -0.2018
 6257TIP3    H140186   2.475   6.472   1.825 -1.1575 -3.5035  1.6582
 6257TIP3    H240187   2.365   6.474   1.720  0.7188 -0.4794 -0.3958
 6258TIP3   OH240188   0.062   4.251   3.161 -0.9217 -0.4558 -1.2583
 6258TIP3    H140189   0.076   4.167   3.117 -0.4642 -0.5448 -0.9489
 6258TIP3    H240190  -0.032   4.266   3.155 -0.9765 -0.8868 -1.5057
 6259TIP3   OH240191   2.196   1.281  13.267  0.2385 -0.5404  0.3412
 6259TIP3    H140192   2.172   1.275  13.360 -0.5015  0.2688  0.2216
 6259TIP3    H240193   2.231   1.370  13.257  0.0985 -0.5413 -0.1997
 6260TIP3   OH240194   1.196   4.247  12.251 -0.0244 -0.0372  0.2409
 6260TIP3    H140195   1.157   4.167  12.215 -1.5874  1.0098 -0.4938
 6260TIP3    H240196   1.144   4.318  12.212  0.3375  1.2785  2.0689
 6261TIP3   OH240197   3.670   0.414   4.233  0.1289 -0.1422  0.7108
 6261TIP3    H140198   3.611   0.346   4.201  0.5911 -0.6690  0.9390
 6261TIP3    H240199   3.702   0.379   4.317  1.4145 -0.2669  0.1872
 6262TIP3   OH240200   0.904   3.042   3.992  0.4847 -0.5168  0.0522
 6262TIP3    H140201   0.837   3.071   3.930  1.4980 -0.7420 -1.1896
 6262TIP3    H240202   0.861   2.975   4.044 -0.4960 -0.0748 -0.1717
 6263TIP3   OH240203   1.802   4.753  16.894  0.7642  0.7134  0.4641
 6263TIP3    H140204   1.842   4.825  16.844  1.2969 -0.7630 -1.3437
 6263TIP3    H240205   1.715   4.742  16.855  1.2656 -0.5998 -0.3347
 6264TIP3   OH240206   4.247   3.885   4.282  0.5467  0.2781  0.0651
 6264TIP3    H140207   4.316   3.820   4.275  2.0452  1.3199  3.1868
 6264TIP3    H240208   4.258   3.940   4.205  1.5081 -1.0755 -0.8157
 6265TIP3   OH240209   2.748   3.655   6.226 -0.2361  0.2949 -0.1511
 6265TIP3    H140210   2.826   3.708   6.242  0.0508 -0.2712  0.3315
 6265TIP3    H240211   2.764   3.573   6.273 -1.3978  0.4286  0.5268
 6266TIP3   OH240212   0.614   4.734   3.380  0.0315  0.3807 -0.1074
 6266TIP3    H140213   0.706   4.727   3.403  0.6617  0.3149 -2.3846
 6266TIP3    H240214   0.568   4.684   3.447  1.6769  0.0559  0.8289
 6267TIP3   OH240215   0.116   3.958  16.748 -0.1629  0.1626 -0.3423
 6267TIP3    H140216   0.166   4.024  16.701  0.1398  0.7909  0.8229
 6267TIP3    H240217   0.043   3.936  16.690 -0.3141  1.5791 -0.7113
 6268TIP3   OH240218   4.247   6.474  13.495  0.1682  0.5140  0.1883
 6268TIP3    H140219   4.180   6.538  13.517  0.3735  0.9217 -0.3701
 6268TIP3    H240220   4.312   6.522  13.445  0.1476 -0.2030 -0.5517
 6269TIP3   OH240221   6.071   5.759   5.763 -0.5253  0.0673 -0.2505
 6269TIP3    H140222   6.064   5.826   5.832  0.4306 -0.2636  0.1905
 6269TIP3    H240223   6.011   5.690   5.791 -2.2630  1.1292 -1.2078
 6270TIP3   OH240224   4.976   5.350  11.631 -0.2485  0.1185  0.1048
 6270TIP3    H140225   5.032   5.275  11.613 -0.2367 -0.1943  1.3583
 6270TIP3    H240226   4.940   5.333  11.718 -0.9151  1.1592  0.0533
 6271TIP3   OH240227   0.875   1.471   1.203 -0.2087 -0.8281  0.2899
 6271TIP3    H140228   0.787   1.436   1.189 -0.9027  0.6048  0.9072
 6271TIP3    H240229   0.864   1.566   1.206  0.9667 -0.6699  2.6954
 6272TIP3   OH240230   5.823   4.034  13.789 -0.1632  0.0610  0.0336
 6272TIP3    H140231   5.893   4.065  13.847  0.6840  0.5843 -1.2383
 6272TIP3    H240232   5.742   4.063  13.833  0.3311 -1.0497  1.8116
 6273TIP3   OH240233   1.685   1.482  10.949  0.0363  0.0265  0.1196
 6273TIP3    H140234   1.722   1.492  11.036  0.5723 -0.8972  0.0119
 6273TIP3    H240235   1.753   1.513  10.890 -0.7976  1.8738  0.0436
 6274TIP3   OH240236   1.820   3.677  17.367 -0.3712  0.0798  0.5068
 6274TIP3    H140237   1.838   3.768  17.389  2.0421  0.6664 -3.0207
 6274TIP3    H240238   1.727   3.675  17.344 -0.1626  2.0027 -0.6476
 6275TIP3   OH240239   5.630   5.240  16.259  0.2282 -0.1686  0.3169
 6275TIP3    H140240   5.602   5.158  16.298 -1.2286 -0.4920 -1.2831
 6275TIP3    H240241   5.553   5.296  16.264  0.2482  0.0407 -1.3105
 6276TIP3   OH240242   3.008   2.784  16.978 -0.1474  0.2013  0.3203
 6276TIP3    H140243   2.940   2.852  16.971 -2.6058 -1.8137  2.5167
 6276TIP3    H240244   2.989   2.740  17.061  4.3452 -0.1141  1.4629
 6277TIP3   OH240245   1.061   2.406  10.990  0.0412 -0.3026  0.1810
 6277TIP3    H140246   0.975   2.371  10.964  0.1866 -0.8393  0.4312
 6277TIP3    H240247   1.100   2.436  10.908  0.7003 -2.4273 -0.3244
 6278TIP3   OH240248   4.835   2.072  13.126 -0.1362 -0.3261 -0.0249
 6278TIP3    H140249   4.854   2.041  13.215 -0.0706  0.2236  0.1586
 6278TIP3    H240250   4.890   2.150  13.116 -0.8533  0.1666 -0.1981
 6279TIP3   OH240251   2.205   2.061   1.091  0.6214 -0.0230 -0.2127
 6279TIP3    H140252   2.117   2.041   1.057 -0.4930  0.2975  2.2481
 6279TIP3    H240253   2.260   1.990   1.058 -0.8308 -0.8969 -0.8555
 6280TIP3   OH240254   1.820   0.722  13.608 -0.4532  0.0349  0.0839
 6280TIP3    H140255   1.760   0.780  13.561 -0.2414  0.6884  0.6059
 6280TIP3    H240256   1.897   0.776  13.624  0.3071 -0.8193 -0.6363
 6281TIP3   OH240257   6.335   6.735  11.207  0.2947  0.2178  0.3391
 6281TIP3    H140258   6.411   6.741  11.264  0.6863  1.2008 -0.2423
 6281TIP3    H240259   6.282   6.812  11.229  0.0125  0.1249  0.0019
 6282TIP3   OH240260   5.712   0.597   2.151 -1.1232 -0.3256  0.1865
 6282TIP3    H140261   5.642   0.619   2.089 -0.0379  0.8694 -0.6559
 6282TIP3    H240262   5.793   0.614   2.104 -0.2523 -0.7509  1.4748
 6283TIP3   OH240263   0.897   4.214  12.542  0.0197 -0.3888 -0.3412
 6283TIP3    H140264   0.868   4.147  12.480 -0.6766 -2.1825  1.7736
 6283TIP3    H240265   0.993   4.211  12.538  0.0583 -2.5380  0.6141
 6284TIP3   OH240266   5.663   3.003  11.897 -0.2628  0.2876  0.6760
 6284TIP3    H140267   5.672   3.093  11.868 -0.1147  0.5025  1.3815
 6284TIP3    H240268   5.587   2.970  11.849  1.0121  0.0697 -1.3408
 6285TIP3   OH240269   1.283   5.231  11.916 -0.2266  0.2178 -0.8594
 6285TIP3    H140270   1.331   5.305  11.952 -0.5251  0.2570 -0.5350
 6285TIP3    H240271   1.286   5.244  11.821 -0.6111  0.8647 -0.7930
 6286TIP3   OH240272   3.738   4.490  12.749  0.4834  0.0995  0.2113
 6286TIP3    H140273   3.658   4.543  12.751  1.0370  0.9165  1.0840
 6286TIP3    H240274   3.804   4.547  12.709  0.6948 -0.5088 -0.3307
 6287TIP3   OH240275   3.503   1.057   5.529 -0.5342  0.7837 -0.2873
 6287TIP3    H140276   3.480   1.057   5.436  1.0908 -0.4479 -0.7365
 6287TIP3    H240277   3.523   1.148   5.549  0.6195  0.8549 -1.5869
 6288TIP3   OH240278   3.743   4.866  16.435  0.3814  0.0835 -0.5202
 6288TIP3    H140279   3.648   4.872  16.429  0.3399 -1.1180 -1.5525
 6288TIP3    H240280   3.773   4.957  16.432 -0.6931  0.4390 -1.2596
 6289TIP3   OH240281   1.058   2.421   1.421 -0.0170 -0.0094 -0.2583
 6289TIP3    H140282   1.048   2.402   1.514 -1.1520 -0.0482 -0.3811
 6289TIP3    H240283   1.126   2.360   1.391  0.0581 -0.2810  0.4555
 6290TIP3   OH240284   0.175   5.400   6.576 -0.3022  0.4077  0.1642
 6290TIP3    H140285   0.231   5.434   6.507 -0.7764 -0.1870 -0.5348
 6290TIP3    H240286   0.234   5.350   6.632 -0.2097 -0.8861 -1.0048
 6291TIP3   OH240287   2.525   3.678   2.648 -0.9993 -0.5309 -0.3820
 6291TIP3    H140288   2.611   3.708   2.677 -1.7284  1.4270 -0.0442
 6291TIP3    H240289   2.489   3.631   2.723 -0.8231 -0.0138  0.0314
 6292TIP3   OH240290   4.593   2.369   5.439  0.1159  0.0635 -0.1449
 6292TIP3    H140291   4.561   2.280   5.421  2.0481 -0.2993 -2.2043
 6292TIP3    H240292   4.601   2.373   5.534  0.3242 -2.1026 -0.0243
 6293TIP3   OH240293   6.276   0.473   2.563  0.2203  0.6978 -0.2148
 6293TIP3    H140294   6.260   0.379   2.562  1.1059  0.5113  1.1034
 6293TIP3    H240295   6.357   0.484   2.513  0.0088  0.7838 -0.5395
 6294TIP3   OH240296   0.169   4.071   1.126 -0.4722 -0.0452  0.2543
 6294TIP3    H140297   0.241   4.129   1.151 -0.9128  0.9789 -0.7153
 6294TIP3    H240298   0.124   4.052   1.208  1.1729 -1.1408  0.9573
 6295TIP3   OH240299   4.401   6.255  12.010  0.1382  0.2526 -0.0131
 6295TIP3    H140300   4.345   6.207  11.948 -1.7686  0.3554  1.5257
 6295TIP3    H240301   4.423   6.336  11.964 -1.3649  0.4029 -0.5312
 6296TIP3   OH240302   5.718   5.938  12.937  0.2268  0.5334  0.2008
 6296TIP3    H140303   5.742   6.028  12.961  0.0774  0.7371 -0.4112
 6296TIP3    H240304   5.623   5.936  12.942  0.1293  0.8196 -1.1825
 6297TIP3   OH240305   1.460   4.488  15.293  0.2571  0.3579 -0.6344
 6297TIP3    H140306   1.476   4.538  15.372 -2.4355  0.9100 -0.3575
 6297TIP3    H240307   1.405   4.545  15.239 -1.5935 -1.6289 -0.9774
 6298TIP3   OH240308   4.914   2.968  17.065  0.3718  0.2835 -0.4299
 6298TIP3    H140309   4.972   3.027  17.016  0.7501  0.2548 -0.0215
 6298TIP3    H240310   4.845   3.025  17.098  0.6815  0.4904 -0.1229
 6299TIP3   OH240311   0.565   0.631   1.111  1.2422  0.8824 -0.1491
 6299TIP3    H140312   0.514   0.550   1.109  1.3670  0.8092 -0.4982
 6299TIP3    H240313   0.537   0.675   1.191 -0.9555  1.8726 -1.3673
 6300TIP3   OH240314   6.557   3.807  16.506  0.1494 -0.2652 -0.1307
 6300TIP3    H140315   6.540   3.714  16.513  2.1150 -0.6231  0.8379
 6300TIP3    H240316   6.618   3.815  16.432  1.9549 -0.1479  1.2763
 6301TIP3   OH240317   1.029   4.698  16.002  0.3430 -0.1154  0.3493
 6301TIP3    H140318   0.952   4.642  16.006  1.3143 -1.4594  0.5978
 6301TIP3    H240319   0.993   4.787  15.997 -1.2099 -0.6307  1.6762
 6302TIP3   OH240320   2.963   6.016   3.675 -0.4634 -0.8842 -0.6151
 6302TIP3    H140321   3.030   6.056   3.730  0.0201 -0.6617 -1.3590
 6302TIP3    H240322   2.987   5.923   3.672 -1.2613 -1.1695  0.6371
 6303TIP3   OH240323   4.868   5.888   0.867  0.2365  0.1348 -0.3843
 6303TIP3    H140324   4.902   5.909   0.780  2.0223  3.8588  1.0018
 6303TIP3    H240325   4.944   5.859   0.917 -0.3028  0.2131  0.5081
 6304TIP3   OH240326   4.336   6.167   4.431  0.1754 -0.1770  0.0857
 6304TIP3    H140327   4.351   6.122   4.348 -1.0767 -1.1285  0.3499
 6304TIP3    H240328   4.399   6.128   4.492  1.5569  0.9873 -0.5361
 6305TIP3   OH240329   4.014   3.369   1.239  0.5297  0.1469 -0.3474
 6305TIP3    H140330   3.984   3.281   1.260 -0.3788  0.1806 -1.4248
 6305TIP3    H240331   4.108   3.368   1.260  0.1354 -0.4458  1.5522
 6306TIP3   OH240332   5.398   5.999   0.370 -0.5493  0.0726 -0.5344
 6306TIP3    H140333   5.393   5.931   0.437  1.9762 -0.0522 -0.3997
 6306TIP3    H240334   5.477   6.049   0.392 -1.2017  1.7724 -1.8273
 6307TIP3   OH240335   5.900   1.763   3.767 -0.4210  0.1784  0.3435
 6307TIP3    H140336   5.949   1.772   3.685  1.6930 -0.4296  1.4601
 6307TIP3    H240337   5.944   1.821   3.829  0.5183 -2.1665  2.0506
 6308TIP3   OH240338   6.301   5.132   3.755 -0.4051  0.1222 -0.2070
 6308TIP3    H140339   6.310   5.221   3.722 -0.0473  0.4865  0.8205
 6308TIP3    H240340   6.314   5.076   3.679  0.2243  0.9315 -0.7092
 6309TIP3   OH240341   3.114   2.757   3.651  0.0118 -0.5072  0.1264
 6309TIP3    H140342   3.143   2.765   3.742  0.9026  0.0512 -0.1954
 6309TIP3    H240343   3.044   2.822   3.643  0.6181  0.1609  0.1497
 6310TIP3   OH240344   6.647   1.191  14.962 -0.0660  0.0219 -0.9932
 6310TIP3    H140345   6.742   1.195  14.957 -0.0327  1.1587  0.0982
 6310TIP3    H240346   6.628   1.103  14.994  0.7764  0.5835  1.1897
 6311TIP3   OH240347   3.794   2.192  14.444 -0.1795 -0.7369  0.2112
 6311TIP3    H140348   3.759   2.107  14.416  0.8776 -1.1031 -0.0499
 6311TIP3    H240349   3.796   2.244  14.364 -3.6706  0.6626  0.8215
 6312TIP3   OH240350   2.380   3.938   3.554 -0.0206  0.9831 -0.0652
 6312TIP3    H140351   2.449   3.890   3.509  0.1503  0.9876  0.1863
 6312TIP3    H240352   2.304   3.931   3.497 -0.5507 -1.1471  0.7888
 6313TIP3   OH240353   4.442   3.274   4.013 -0.1765 -0.1030 -0.5100
 6313TIP3    H140354   4.398   3.189   4.019  0.5576 -0.4720 -0.2713
 6313TIP3    H240355   4.398   3.327   4.080 -1.3125  0.0338 -1.3287
 6314TIP3   OH240356   3.671   1.616   5.728  0.3507 -0.5968  0.6503
 6314TIP3    H140357   3.762   1.606   5.701  0.2878 -1.8338  0.8643
 6314TIP3    H240358   3.651   1.538   5.779 -0.6134  0.0127  1.2479
 6315TIP3   OH240359   6.334   0.335  12.437  0.3774 -0.0867  0.4487
 6315TIP3    H140360   6.304   0.353  12.348  2.4524  3.0573  0.2270
 6315TIP3    H240361   6.281   0.261  12.466 -0.9534 -0.6921 -3.0673
 6316TIP3   OH240362   0.706   0.106   0.325  0.0715 -0.4210 -0.5382
 6316TIP3    H140363   0.622   0.075   0.360 -0.2049  0.5598 -0.2963
 6316TIP3    H240364   0.768   0.090   0.396  0.0532 -0.9376 -0.6321
 6317TIP3   OH240365   1.404   0.394   5.774  0.3199  0.4332 -0.2099
 6317TIP3    H140366   1.483   0.447   5.786  0.2124  0.2921  1.2844
 6317TIP3    H240367   1.334   0.458   5.762  0.2200  0.6544  1.4055
 6318TIP3   OH240368   1.628   5.976   4.565  0.5062 -0.0572  0.5296
 6318TIP3    H140369   1.551   5.919   4.574  0.6255  0.0176  2.3486
 6318TIP3    H240370   1.693   5.939   4.625  1.7147  0.2064 -0.5739
 6319TIP3   OH240371   2.429   6.019   4.637  0.3364 -0.1673 -0.3688
 6319TIP3    H140372   2.367   6.012   4.710  1.7394 -2.0202  0.7242
 6319TIP3    H240373   2.513   5.994   4.674  1.7762  2.0540 -1.8643
 6320TIP3   OH240374   6.004   3.504  13.751  0.4706  0.4258  0.5918
 6320TIP3    H140375   6.041   3.555  13.823 -1.4627  0.4056  1.6772
 6320TIP3    H240376   5.952   3.566  13.701  0.2163  0.0440  0.3766
 6321TIP3   OH240377   0.457   4.616   4.239  0.5661 -0.3705 -0.8217
 6321TIP3    H140378   0.428   4.687   4.182  1.5339 -1.4632 -2.7872
 6321TIP3    H240379   0.512   4.659   4.305 -2.0986  1.1615  0.5262
 6322TIP3   OH240380   2.441   5.793   1.512  0.5081 -0.1417 -0.1262
 6322TIP3    H140381   2.464   5.827   1.599  1.6861 -0.1544 -0.4172
 6322TIP3    H240382   2.396   5.711   1.530 -0.5639  0.5588  0.5146
 6323TIP3   OH240383   2.418   3.281   5.469  0.2465  0.6541 -0.9453
 6323TIP3    H140384   2.392   3.372   5.452 -1.2169  1.0579  2.6158
 6323TIP3    H240385   2.349   3.247   5.526  2.5341 -1.5627  0.6746
 6324TIP3   OH240386   0.234   6.248  11.308 -0.3992 -0.2652 -0.2305
 6324TIP3    H140387   0.218   6.336  11.341 -1.2000 -1.0334  1.5543
 6324TIP3    H240388   0.330   6.241  11.304 -0.3258  0.6903 -0.4900
 6325TIP3   OH240389   6.290   2.265  14.218  0.0276  0.0820  0.2416
 6325TIP3    H140390   6.224   2.282  14.285  1.2938  0.9061  1.3287
 6325TIP3    H240391   6.350   2.202  14.259 -0.2707 -0.9902 -0.8872
 6326TIP3   OH240392   3.506   6.345   6.324  0.3861 -0.8098  0.9158
 6326TIP3    H140393   3.506   6.273   6.387 -0.3093 -1.0139  0.6949
 6326TIP3    H240394   3.487   6.422   6.376  0.3698 -0.8983  1.0423
 6327TIP3   OH240395   1.506   2.869   0.670  0.0139 -0.4035  0.1741
 6327TIP3    H140396   1.545   2.783   0.688  0.1658 -0.2538  0.5438
 6327TIP3    H240397   1.421   2.866   0.714  0.6815  0.2282  1.5299
 6328TIP3   OH240398   4.481   5.888  14.474  0.2202 -0.1967  0.1369
 6328TIP3    H140399   4.450   5.808  14.430 -0.2395  0.3064 -0.4692
 6328TIP3    H240400   4.421   5.900  14.547 -1.6931  1.3214 -1.6036
 6329TIP3   OH240401   1.239   3.022   5.792  0.2393  0.2226 -0.3228
 6329TIP3    H140402   1.213   2.986   5.707  0.4261  0.6406 -0.5604
 6329TIP3    H240403   1.262   3.113   5.773  0.6451  0.2110  0.1100
 6330TIP3   OH240404   2.867   4.295   1.907  0.4147 -0.1204 -0.1318
 6330TIP3    H140405   2.795   4.293   1.971  0.4614  1.8362  0.0662
 6330TIP3    H240406   2.942   4.261   1.955  0.3297  0.8483  0.7307
 6331TIP3   OH240407   4.944   1.647   5.492 -0.1938  0.3334  0.0086
 6331TIP3    H140408   4.852   1.621   5.486 -0.2114  0.6132 -1.1535
 6331TIP3    H240409   4.969   1.625   5.581 -0.9185 -1.3008 -0.1637
 6332TIP3   OH240410   1.332   0.923  10.668 -0.6341 -0.4073 -0.1657
 6332TIP3    H140411   1.397   0.962  10.610 -1.2626 -1.1379 -1.4017
 6332TIP3    H240412   1.278   0.996  10.697  0.1862  0.0768  0.1722
 6333TIP3   OH240413   2.244   3.956   0.419  0.3325 -0.1120  0.1193
 6333TIP3    H140414   2.253   3.924   0.329 -0.3473  1.1585 -0.4268
 6333TIP3    H240415   2.174   3.903   0.457 -0.9522  0.8368 -0.8510
 6334TIP3   OH240416   1.043   4.680   6.736 -0.0399 -0.3241 -0.1027
 6334TIP3    H140417   1.117   4.689   6.796  0.6779 -1.8948 -0.7004
 6334TIP3    H240418   0.973   4.643   6.790  0.6702 -1.9385 -0.2218
 6335TIP3   OH240419   6.126   4.732  15.548 -0.1366  0.0277  0.4443
 6335TIP3    H140420   6.189   4.699  15.612  0.1684  2.4582  1.4984
 6335TIP3    H240421   6.129   4.827  15.558 -1.5517  0.3823 -1.8250
 6336TIP3   OH240422   1.944   5.589   5.387  0.0592 -0.2585 -0.0871
 6336TIP3    H140423   2.018   5.609   5.330  0.9519  0.6400  1.3251
 6336TIP3    H240424   1.901   5.673   5.401  0.6535 -0.1960  1.5940
 6337TIP3   OH240425   4.474   4.409   5.696  0.1172  0.2600  0.1578
 6337TIP3    H140426   4.442   4.325   5.664  0.3749  0.7143 -1.3551
 6337TIP3    H240427   4.395   4.455   5.727 -0.0294 -0.4954  0.9415
 6338TIP3   OH240428   0.671   6.546  12.008  0.8692  0.0063 -0.2249
 6338TIP3    H140429   0.702   6.463  12.045  0.4645 -0.5929 -1.1808
 6338TIP3    H240430   0.744   6.578  11.956  1.0994  0.3582  0.3136
 6339TIP3   OH240431   2.557   2.389   0.369 -0.0087 -0.1703  0.0729
 6339TIP3    H140432   2.627   2.442   0.407  0.1138  0.2839 -0.7631
 6339TIP3    H240433   2.590   2.364   0.283 -0.2989 -1.1469  0.2246
 6340TIP3   OH240434   0.757   2.174  12.409 -0.0884  0.3566 -0.4194
 6340TIP3    H140435   0.795   2.093  12.445  0.2059  1.2778  1.4792
 6340TIP3    H240436   0.746   2.156  12.316  0.8979 -1.5180 -0.2269
 6341TIP3   OH240437   2.594   3.137  15.983 -0.2862 -0.1172 -0.2234
 6341TIP3    H140438   2.644   3.146  15.901 -0.5985  1.1437 -0.2891
 6341TIP3    H240439   2.516   3.190  15.970 -0.4786 -0.1284  0.7991
 6342TIP3   OH240440   6.689   0.373   6.865  0.0111 -0.3438 -0.3447
 6342TIP3    H140441   6.593   0.367   6.870 -0.0468 -0.7215 -1.5101
 6342TIP3    H240442   6.705   0.443   6.802  0.4764 -1.0279 -1.0035
 6343TIP3   OH240443   4.899   2.249   2.906  0.2544  0.7021 -0.3368
 6343TIP3    H140444   4.984   2.207   2.901 -0.6022 -1.7288  2.4535
 6343TIP3    H240445   4.904   2.304   2.985 -1.1261 -0.6710  0.7737
 6344TIP3   OH240446   4.073   2.994   4.025 -0.3912 -0.1276  0.4514
 6344TIP3    H140447   4.156   3.007   3.979 -0.3340 -0.9080  0.3274
 6344TIP3    H240448   4.020   3.070   4.000  0.3032  0.4122  0.5869
 6345TIP3   OH240449   0.076   5.894   3.793  0.3778  0.3235  0.2135
 6345TIP3    H140450  -0.018   5.873   3.793  0.4651 -0.1007  0.8131
 6345TIP3    H240451   0.112   5.843   3.721 -0.0523  1.4684 -0.8325
 6346TIP3   OH240452   0.482   1.792   2.581 -0.5470 -0.1548  0.2176
 6346TIP3    H140453   0.545   1.849   2.537  0.0482 -0.4045  0.7404
 6346TIP3    H240454   0.535   1.737   2.638 -0.7780 -3.0504 -2.1476
 6347TIP3   OH240455   5.142   4.189  12.533  0.3795  0.4018 -0.4498
 6347TIP3    H140456   5.154   4.248  12.459  1.0868  0.2646 -0.4495
 6347TIP3    H240457   5.073   4.230  12.586  1.6715  1.8619  0.1724
 6348TIP3   OH240458   6.107   6.042  13.116  0.1353 -0.1830  0.8011
 6348TIP3    H140459   6.108   6.090  13.199 -1.4210  0.6974  0.3570
 6348TIP3    H240460   6.199   6.029  13.094  0.5846  1.4053  1.6157
 6349TIP3   OH240461   5.466   1.805   4.378  0.0568  0.3668  0.3723
 6349TIP3    H140462   5.430   1.743   4.314  1.2548 -1.3492  1.2649
 6349TIP3    H240463   5.559   1.809   4.357  0.4670 -0.1889  1.9326
 6350TIP3   OH240464   2.784   3.912  12.381  0.6806 -0.3922 -0.3228
 6350TIP3    H140465   2.854   3.899  12.445  0.4730  0.4197  0.0910
 6350TIP3    H240466   2.704   3.915  12.434  0.5048  0.2944 -0.6066
 6351TIP3   OH240467   6.146   3.145   0.452 -0.0677 -0.0036  0.2127
 6351TIP3    H140468   6.213   3.130   0.386 -0.0741  1.2330 -0.1152
 6351TIP3    H240469   6.191   3.135   0.535  0.0367 -1.1702  0.0289
 6352TIP3   OH240470   4.650   3.928   2.534 -0.4396 -0.2438 -0.5733
 6352TIP3    H140471   4.597   4.005   2.510  0.2761  0.9835  1.5636
 6352TIP3    H240472   4.615   3.900   2.619 -0.5646 -2.2290 -1.2261
 6353TIP3   OH240473   5.815   3.700   5.549  0.1008 -0.2204 -0.3124
 6353TIP3    H140474   5.723   3.690   5.571 -0.3092  0.0904 -1.7989
 6353TIP3    H240475   5.855   3.738   5.628 -1.1090  0.0326  0.1956
 6354TIP3   OH240476   0.691   6.236   5.686  0.0250  0.4430 -0.8274
 6354TIP3    H140477   0.616   6.249   5.744 -0.3654 -3.2115 -0.2803
 6354TIP3    H240478   0.752   6.305   5.711 -2.1459  2.1006  0.3425
 6355TIP3   OH240479   1.964   3.856  16.366  0.2892  0.2406 -0.3403
 6355TIP3    H140480   2.049   3.814  16.348 -0.9472 -1.8192 -1.8405
 6355TIP3    H240481   1.983   3.950  16.364  2.8754 -0.1392  1.3107
 6356TIP3   OH240482   2.774   3.269  10.944  0.2129 -0.3270  0.1097
 6356TIP3    H140483   2.761   3.178  10.920 -0.5832 -0.2678  0.2685
 6356TIP3    H240484   2.697   3.291  10.996  1.0740  0.0350  1.2667
 6357TIP3   OH240485   5.044   5.483  15.994  0.6069 -0.2215  0.2959
 6357TIP3    H140486   5.104   5.541  16.041  0.9132 -0.4098  0.1355
 6357TIP3    H240487   5.026   5.527  15.911  0.0920  0.0950  0.5686
 6358TIP3   OH240488   6.487   6.464   3.572 -0.8344 -0.0176 -0.5782
 6358TIP3    H140489   6.518   6.453   3.662 -1.0036  1.8407 -0.2625
 6358TIP3    H240490   6.502   6.378   3.531  1.5553 -0.2123  0.5127
 6359TIP3   OH240491   6.689   0.920  12.706 -0.1049 -0.3162  0.5738
 6359TIP3    H140492   6.651   0.882  12.626  1.6716 -0.9396 -0.0359
 6359TIP3    H240493   6.780   0.937  12.682  0.1761  0.5109  2.1532
 6360TIP3   OH240494   2.419   0.145   2.780  0.4239  0.4753 -0.2154
 6360TIP3    H140495   2.432   0.177   2.690 -0.4349  1.7865  0.0900
 6360TIP3    H240496   2.487   0.189   2.831  0.9904 -0.3676 -0.2327
 6361TIP3   OH240497   4.521   0.854  14.295 -0.1118  0.0701 -0.2775
 6361TIP3    H140498   4.471   0.792  14.348 -2.0267  0.1375 -1.8920
 6361TIP3    H240499   4.598   0.806  14.267  1.2730  0.2015  2.9370
 6362TIP3   OH240500   1.375   6.041  11.570  0.8290 -0.3525 -0.0154
 6362TIP3    H140501   1.334   6.123  11.595  0.8464 -0.1286 -0.7135
 6362TIP3    H240502   1.394   6.050  11.477  1.7333 -0.7566  0.1148
 6363TIP3   OH240503   6.284   0.816   2.318  0.0124 -0.0321  0.5761
 6363TIP3    H140504   6.212   0.759   2.291 -0.3605  1.0595 -0.8375
 6363TIP3    H240505   6.252   0.858   2.398 -0.1809 -0.8664  0.9571
 6364TIP3   OH240506   2.759   6.083   4.078 -0.2759 -0.1448 -0.4454
 6364TIP3    H140507   2.838   6.030   4.067 -0.2598  0.0446 -1.3433
 6364TIP3    H240508   2.687   6.019   4.082 -0.0285 -0.3649  1.1819
 6365TIP3   OH240509   4.608   5.262  11.759 -0.1003 -0.4116  0.2002
 6365TIP3    H140510   4.530   5.211  11.781 -0.1829 -0.6641 -0.6381
 6365TIP3    H240511   4.679   5.218  11.805 -0.2175 -1.1320 -0.2788
 6366TIP3   OH240512   0.617   3.510  15.641  0.3721 -0.8723  0.4748
 6366TIP3    H140513   0.556   3.578  15.668  0.8347  0.0412 -0.6915
 6366TIP3    H240514   0.585   3.431  15.685  0.0768  0.1515  2.1953
 6367TIP3   OH240515   2.199   6.307  16.490  0.5344  0.1267 -0.4931
 6367TIP3    H140516   2.267   6.252  16.452 -0.8087 -0.9503 -1.4394
 6367TIP3    H240517   2.160   6.253  16.560  1.5740  1.2863  1.0422
 6368TIP3   OH240518   2.744   1.420   3.490  0.2058 -0.3833 -0.1444
 6368TIP3    H140519   2.676   1.413   3.422 -1.7372 -0.9279  1.7519
 6368TIP3    H240520   2.793   1.339   3.482  0.3826 -0.1948 -1.2377
 6369TIP3   OH240521   5.205   6.233  16.892  0.7388  0.5010  0.0939
 6369TIP3    H140522   5.132   6.253  16.833 -0.9240  1.2182  2.2672
 6369TIP3    H240523   5.182   6.148  16.930  1.3357  0.4568  0.3628
 6370TIP3   OH240524   3.568   1.749  15.702 -0.8656  0.2588  0.4418
 6370TIP3    H140525   3.490   1.757  15.646 -0.4134 -2.7007 -0.8477
 6370TIP3    H240526   3.598   1.838  15.715 -4.2273  1.5137  0.6928
 6371TIP3   OH240527   0.851   2.048   5.199  0.3369  0.2569  0.2539
 6371TIP3    H140528   0.756   2.045   5.203  0.4014 -1.0834  1.3365
 6371TIP3    H240529   0.875   1.978   5.137  0.6787 -1.1069  1.8593
 6372TIP3   OH240530   3.132   6.666  11.113  0.2953 -0.8498 -0.4164
 6372TIP3    H140531   3.077   6.650  11.036 -0.8502  0.9451 -0.0237
 6372TIP3    H240532   3.099   6.748  11.150  1.7529 -0.9246  1.1828
 6373TIP3   OH240533   0.099   5.650  12.264  0.3303 -0.3432 -0.0656
 6373TIP3    H140534   0.186   5.623  12.294  1.2144  1.0066 -1.2503
 6373TIP3    H240535   0.039   5.590  12.308  1.7803 -0.7299  1.5196
 6374TIP3   OH240536   3.975   1.255  12.862 -0.5702 -0.1531 -0.3173
 6374TIP3    H140537   3.911   1.300  12.918  1.2791  2.0847  0.1270
 6374TIP3    H240538   3.996   1.174  12.909 -2.1417 -0.3589  0.0938
 6375TIP3   OH240539   4.686   3.826   3.981  0.0029 -0.5799 -0.0704
 6375TIP3    H140540   4.639   3.808   4.063 -0.7774 -0.3726 -0.4560
 6375TIP3    H240541   4.637   3.899   3.942 -0.4225 -1.5245 -1.3455
 6376TIP3   OH240542   4.755   2.243   3.518  0.1756  0.0278  0.2334
 6376TIP3    H140543   4.749   2.176   3.587 -2.2815  1.7287  1.8089
 6376TIP3    H240544   4.791   2.320   3.562 -0.6151  0.8914 -0.5815
 6377TIP3   OH240545   6.244   0.248  16.529 -0.8994 -0.3826  0.1687
 6377TIP3    H140546   6.230   0.293  16.613  1.7475 -0.0466  0.4931
 6377TIP3    H240547   6.199   0.164  16.540 -1.2234 -0.0496  1.6336
 6378TIP3   OH240548   3.067   3.898  14.073 -0.4263  0.3028  0.0844
 6378TIP3    H140549   3.151   3.940  14.092  0.0704 -1.0475  1.0522
 6378TIP3    H240550   3.089   3.807  14.055 -1.8405 -0.6947  2.8029
 6379TIP3   OH240551   4.175   2.164   0.672  0.1712 -0.2837 -0.3038
 6379TIP3    H140552   4.259   2.187   0.633  0.2045 -1.3560 -0.9186
 6379TIP3    H240553   4.184   2.187   0.764  2.1280 -2.6998  0.2358
 6380TIP3   OH240554   5.626   1.013  17.009 -0.2319 -0.5050 -0.8445
 6380TIP3    H140555   5.565   1.068  17.057  0.6134  0.2304 -0.5791
 6380TIP3    H240556   5.627   1.049  16.920  1.0984  0.6176 -0.4150
 6381TIP3   OH240557   5.624   4.026   4.955 -0.1609 -0.1503  0.5948
 6381TIP3    H140558   5.568   4.098   4.984 -0.1351  0.5231 -0.9577
 6381TIP3    H240559   5.700   4.031   5.013 -0.3854  0.7491  0.8323
 6382TIP3   OH240560   6.103   0.944   0.835  0.0164  0.0376  0.3346
 6382TIP3    H140561   6.064   1.024   0.872 -0.3003 -0.1275  0.3585
 6382TIP3    H240562   6.094   0.956   0.740 -1.7331 -0.8005  0.3631
 6383TIP3   OH240563   0.427   6.638   6.099  0.1891 -0.0412  0.1486
 6383TIP3    H140564   0.400   6.715   6.148 -3.5155  0.2588 -2.0017
 6383TIP3    H240565   0.505   6.666   6.051  1.1835  1.0468  2.2404
 6384TIP3   OH240566   3.305   3.362   3.535 -0.1199  0.7521 -0.2195
 6384TIP3    H140567   3.239   3.352   3.604 -0.4979 -1.4489 -0.8197
 6384TIP3    H240568   3.386   3.380   3.582 -0.6706  0.9446  0.6893
 6385TIP3   OH240569   4.714   1.148   4.639  0.5553 -0.1928  0.0265
 6385TIP3    H140570   4.807   1.130   4.639  0.9066  1.3590 -1.6322
 6385TIP3    H240571   4.675   1.082   4.582  1.1428  1.0930 -1.9633
 6386TIP3   OH240572   5.263   0.396  13.325  0.2723 -0.0427 -0.1608
 6386TIP3    H140573   5.326   0.462  13.354  0.3641  1.0858 -2.6374
 6386TIP3    H240574   5.178   0.436  13.342  0.3119  0.1875 -0.4812
 6387TIP3   OH240575   1.308   1.174  13.081  0.3050  0.2166  0.1275
 6387TIP3    H140576   1.277   1.254  13.037  1.6204  0.6969  0.0260
 6387TIP3    H240577   1.237   1.111  13.069 -2.3149  2.2956  3.0859
 6388TIP3   OH240578   2.725   0.530   6.500  0.6808 -0.1414 -0.5045
 6388TIP3    H140579   2.664   0.585   6.451 -2.3111 -1.6653  1.1875
 6388TIP3    H240580   2.734   0.573   6.585 -0.9092 -1.5837  0.4780
 6389TIP3   OH240581   3.972   3.069   2.460  0.0219 -0.4716 -0.1980
 6389TIP3    H140582   4.011   3.129   2.397 -2.7395  1.5839 -0.1100
 6389TIP3    H240583   4.000   3.102   2.545 -0.0209 -0.4321 -0.1995
 6390TIP3   OH240584   4.727   0.700  14.226 -0.3114 -0.2388  0.4398
 6390TIP3    H140585   4.745   0.730  14.137  1.7792  2.2171  1.5784
 6390TIP3    H240586   4.737   0.605  14.222  0.7931 -0.0868 -1.7045
 6391TIP3   OH240587   4.181   1.672   2.597  0.1903  0.0568  0.3551
 6391TIP3    H140588   4.257   1.704   2.646  0.6666  0.5884 -0.6858
 6391TIP3    H240589   4.123   1.748   2.590  0.3056  0.1014 -0.2143
 6392TIP3   OH240590   4.936   4.197   1.863 -0.0335 -0.2442 -0.3342
 6392TIP3    H140591   4.949   4.173   1.955  0.4263 -0.0808 -0.3519
 6392TIP3    H240592   4.888   4.280   1.866  0.3434 -0.0244 -0.2280
 6393TIP3   OH240593   3.753   1.654  15.198 -0.4840 -0.0805 -0.1239
 6393TIP3    H140594   3.763   1.559  15.204  1.8112  0.0667 -0.8134
 6393TIP3    H240595   3.714   1.679  15.282 -0.1124 -1.5153  0.5097
 6394TIP3   OH240596   4.646   6.694  11.728 -0.1037 -0.2086 -0.0229
 6394TIP3    H140597   4.665   6.705  11.634  0.2962  0.7722  0.1628
 6394TIP3    H240598   4.729   6.667  11.766 -0.9177 -3.6812 -0.3723
 6395TIP3   OH240599   5.212   3.787  12.424 -0.0879 -1.1308 -0.0107
 6395TIP3    H140600   5.148   3.830  12.482  1.9122 -0.3051  1.7295
 6395TIP3    H240601   5.183   3.811  12.336 -0.4743  1.8920  0.7898
 6396TIP3   OH240602   2.092   2.454   3.558 -0.0180 -0.2159  0.3008
 6396TIP3    H140603   1.998   2.471   3.560 -0.1478 -0.9367  1.1070
 6396TIP3    H240604   2.099   2.361   3.535  0.4923 -0.1629  0.2265
 6397TIP3   OH240605   5.975   0.648   0.738  0.3726 -0.6957 -0.3666
 6397TIP3    H140606   5.880   0.654   0.747  0.5302 -0.1042  1.4800
 6397TIP3    H240607   6.000   0.726   0.689 -0.0560 -0.6082 -0.4497
 6398TIP3   OH240608   0.189   6.345  17.238  0.1995 -0.6968  0.3548
 6398TIP3    H140609   0.102   6.330  17.277  0.2176 -1.6831  0.0536
 6398TIP3    H240610   0.206   6.266  17.187  1.6967 -0.9494  1.1804
 6399TIP3   OH240611   4.986   2.594  17.118  0.0683  0.1579 -0.3490
 6399TIP3    H140612   5.077   2.609  17.141  0.9094 -2.9073 -1.1235
 6399TIP3    H240613   4.985   2.594  17.023 -0.8899  0.8570 -0.3467
 6400TIP3   OH240614   2.767   1.991  11.361  0.5573 -0.6417  0.0225
 6400TIP3    H140615   2.732   2.043  11.289 -0.3668  0.3898  1.1642
 6400TIP3    H240616   2.823   1.926  11.319  0.8773  0.5738 -1.5397
 6401TIP3   OH240617   2.007   1.211   0.746  0.5193  0.6242 -0.3857
 6401TIP3    H140618   2.071   1.149   0.712  0.1781  0.2561 -0.3638
 6401TIP3    H240619   2.026   1.293   0.701  1.5252  0.7304  0.2099
 6402TIP3   OH240620   5.489   2.802  16.961 -0.6198  0.2567  0.3734
 6402TIP3    H140621   5.509   2.753  16.881 -1.1003  0.0339  0.3821
 6402TIP3    H240622   5.571   2.845  16.985 -0.3444 -0.0728  0.0355
 6403TIP3   OH240623   0.134   1.373  13.247 -0.0073  0.1474 -0.4752
 6403TIP3    H140624   0.063   1.416  13.294 -0.1525 -0.7577  0.1696
 6403TIP3    H240625   0.197   1.442  13.229  1.1287  0.2174  3.0553
 6404TIP3   OH240626   5.369   6.411   4.973  0.4073  0.7299  0.6618
 6404TIP3    H140627   5.427   6.348   4.930 -2.1360  0.1852 -2.2744
 6404TIP3    H240628   5.297   6.358   5.008 -0.8647  1.7610 -0.2823
 6405TIP3   OH240629   0.095   1.151   0.509  0.2816  0.3647  1.0823
 6405TIP3    H140630  -0.001   1.151   0.519  0.0558 -1.3003 -0.3925
 6405TIP3    H240631   0.122   1.066   0.544  0.8366 -0.3719 -0.9983
 6406TIP3   OH240632   0.823   5.597   1.509  0.2822 -0.2275  0.0933
 6406TIP3    H140633   0.888   5.535   1.475 -0.0857 -0.1515 -0.7703
 6406TIP3    H240634   0.857   5.621   1.595 -0.5067 -3.0923  1.3362
 6407TIP3   OH240635   3.031   3.311   0.775 -0.0356 -0.3216  0.2914
 6407TIP3    H140636   3.039   3.347   0.687 -0.3963  0.8615  0.7198
 6407TIP3    H240637   2.970   3.238   0.766 -0.4287  0.0769 -0.3617
 6408TIP3   OH240638   4.402   1.172  14.860 -0.1558  0.3192 -0.1424
 6408TIP3    H140639   4.389   1.082  14.889 -0.0935  0.0300 -1.0001
 6408TIP3    H240640   4.316   1.202  14.832  0.0130  0.1575 -0.8667
 6409TIP3   OH240641   3.774   1.702   0.135  0.2824  0.0045  0.1606
 6409TIP3    H140642   3.743   1.776   0.188  1.5972  1.0599 -0.4897
 6409TIP3    H240643   3.848   1.666   0.184 -1.0402 -1.6528  1.0383
 6410TIP3   OH240644   2.672   5.325  12.044 -0.0823  0.4464 -0.4208
 6410TIP3    H140645   2.679   5.236  12.079 -1.1047  0.2364 -0.6900
 6410TIP3    H240646   2.594   5.322  11.988 -0.6866  1.7473  0.2971
 6411TIP3   OH240647   0.330   5.918   5.120  0.3001  0.5225  0.5214
 6411TIP3    H140648   0.358   5.998   5.075  0.1824  0.2815  0.0083
 6411TIP3    H240649   0.255   5.945   5.173 -0.3649  0.5643 -0.4061
 6412TIP3   OH240650   0.356   6.737   5.817  0.3217  0.2872  0.5437
 6412TIP3    H140651   0.365   6.642   5.826 -0.2029  0.0704 -1.0189
 6412TIP3    H240652   0.351   6.768   5.907 -1.9549 -1.4138  1.0935
 6413TIP3   OH240653   0.761   6.292  12.130  0.1009  0.2214  0.0028
 6413TIP3    H140654   0.830   6.234  12.162 -0.1183  0.3388  0.7103
 6413TIP3    H240655   0.715   6.239  12.064  1.8972  0.7326 -1.7695
 6414TIP3   OH240656   5.059   1.144  15.980  0.6697  0.2263  0.8615
 6414TIP3    H140657   5.112   1.066  15.995  2.0632  0.7572 -1.0019
 6414TIP3    H240658   4.971   1.109  15.962  1.2457 -0.9154  0.1461
 6415TIP3   OH240659   5.266   1.069   5.375 -0.0699  0.0534  1.0222
 6415TIP3    H140660   5.272   1.044   5.467  3.2018 -0.5238  0.7631
 6415TIP3    H240661   5.335   1.133   5.362 -0.8296  0.5554 -0.9283
 6416TIP3   OH240662   2.756   2.235  12.700  0.3644 -0.0161  0.3346
 6416TIP3    H140663   2.829   2.186  12.737  2.5957  2.3960 -0.5205
 6416TIP3    H240664   2.733   2.298  12.768  1.3840  1.3922 -0.5625
 6417TIP3   OH240665   3.473   0.741  15.023 -0.8603 -0.3976 -0.3650
 6417TIP3    H140666   3.516   0.817  14.984 -1.8548 -0.0200 -0.7473
 6417TIP3    H240667   3.395   0.777  15.066 -0.7992 -1.0682  0.3302
 6418TIP3   OH240668   5.173   0.630   3.485 -0.0827 -0.0329 -0.1747
 6418TIP3    H140669   5.221   0.622   3.567 -0.2491  0.8702  0.0264
 6418TIP3    H240670   5.118   0.552   3.481 -1.6724  0.9207  1.6537
 6419TIP3   OH240671   1.235   4.698   0.443 -0.5208  0.0410 -0.1903
 6419TIP3    H140672   1.196   4.656   0.367 -1.3612 -1.0089  0.7891
 6419TIP3    H240673   1.161   4.726   0.497  0.0538  1.0675  0.1096
 6420TIP3   OH240674   3.461   0.597   5.329 -0.5825 -0.7945  0.0916
 6420TIP3    H140675   3.367   0.579   5.327 -0.4770 -1.5425  1.0495
 6420TIP3    H240676   3.496   0.535   5.394  0.3216  0.5892  0.9800
 6421TIP3   OH240677   6.635   4.939  17.028 -0.4613 -0.1184  0.3312
 6421TIP3    H140678   6.714   4.989  17.047 -0.6698 -0.2280  1.6183
 6421TIP3    H240679   6.662   4.874  16.963  0.3258  0.3002  0.2362
 6422TIP3   OH240680   4.735   5.934   1.861 -0.2991  0.3976 -0.4112
 6422TIP3    H140681   4.716   5.988   1.785  0.7500 -0.1672 -1.0999
 6422TIP3    H240682   4.712   5.845   1.833  0.9798  0.0463 -0.4286
 6423TIP3   OH240683   6.549   1.781  14.955 -0.5569 -0.3492 -0.1988
 6423TIP3    H140684   6.465   1.794  14.997  0.0883  2.1094  0.4859
 6423TIP3    H240685   6.614   1.804  15.021  0.5265  2.3970 -2.0224
 6424TIP3   OH240686   6.296   5.042  13.573 -0.0942 -0.0092 -0.0014
 6424TIP3    H140687   6.264   5.096  13.501 -0.2387  1.6460  1.2414
 6424TIP3    H240688   6.387   5.022  13.550 -0.6136 -0.9143 -1.3941
 6425TIP3   OH240689   3.027   2.053   4.394 -0.6176 -0.5938  0.3968
 6425TIP3    H140690   3.096   2.018   4.337  0.3349 -1.2830  1.9327
 6425TIP3    H240691   2.946   2.026   4.352 -0.1148  1.7687 -2.4705
 6426TIP3   OH240692   6.677   6.702  14.082 -0.3446  0.1733 -0.2575
 6426TIP3    H140693   6.656   6.642  14.153 -0.2847  1.0195  0.4932
 6426TIP3    H240694   6.598   6.706  14.029 -0.4251 -0.3807 -0.1832
 6427TIP3   OH240695   4.514   5.522  12.361 -0.5543 -0.0572 -0.2302
 6427TIP3    H140696   4.579   5.483  12.303 -1.6561  0.1929 -1.6641
 6427TIP3    H240697   4.494   5.453  12.424  0.1554 -0.5676 -0.5518
 6428TIP3   OH240698   4.965   1.364   4.212  0.2269 -0.4357 -0.2803
 6428TIP3    H140699   4.919   1.300   4.158 -0.8209 -0.5432  0.7118
 6428TIP3    H240700   4.989   1.317   4.291  0.0434  0.2016  0.1681
 6429TIP3   OH240701   4.155   2.135  11.897  0.3725 -0.0505  0.2409
 6429TIP3    H140702   4.150   2.046  11.931  0.0124 -1.0311 -2.1990
 6429TIP3    H240703   4.120   2.129  11.808  1.1882  2.3483 -0.3209
 6430TIP3   OH240704   0.910   2.761   3.213 -0.2963 -0.4818  0.3588
 6430TIP3    H140705   0.887   2.751   3.121 -2.1558 -0.6002  0.7779
 6430TIP3    H240706   0.834   2.725   3.260  0.1963  0.4227  1.9171
 6431TIP3   OH240707   0.292   0.202   2.601  0.1409  0.0793 -0.4772
 6431TIP3    H140708   0.384   0.185   2.619  0.1628  1.2581  0.6184
 6431TIP3    H240709   0.292   0.281   2.547 -0.2434  0.3254 -0.1226
 6432TIP3   OH240710   1.218   0.111  13.890  0.1936 -0.0089  0.0967
 6432TIP3    H140711   1.282   0.176  13.918 -0.6206  2.0753 -2.5522
 6432TIP3    H240712   1.265   0.057  13.826 -0.2763  0.7409 -0.9148
 6433TIP3   OH240713   1.640   6.583  12.503 -0.2282 -0.0411  1.3007
 6433TIP3    H140714   1.705   6.628  12.557 -2.5322  0.7447  3.6280
 6433TIP3    H240715   1.657   6.490  12.518  1.1284  0.1050  0.8202
 6434TIP3   OH240716   3.080   6.657   5.161  0.1408  0.4256 -0.7620
 6434TIP3    H140717   3.105   6.641   5.252  0.4541 -0.6196 -1.0162
 6434TIP3    H240718   3.161   6.645   5.112 -0.1725  0.3090 -1.2513
 6435TIP3   OH240719   4.337   3.839   2.659  0.2122  0.0375 -0.1001
 6435TIP3    H140720   4.333   3.920   2.709 -0.3273  0.8971 -1.4735
 6435TIP3    H240721   4.271   3.783   2.699  0.6156  0.2426  0.8842
 6436TIP3   OH240722   1.543   4.774   3.582  0.0256 -0.4572 -0.0848
 6436TIP3    H140723   1.474   4.840   3.583  0.3904 -0.0801  0.2666
 6436TIP3    H240724   1.506   4.701   3.633 -0.3688 -0.5241 -0.4575
 6437TIP3   OH240725   5.356   5.840   1.985  0.1572  0.0081 -0.4335
 6437TIP3    H140726   5.418   5.819   2.055  1.1459  0.7373 -1.0565
 6437TIP3    H240727   5.389   5.793   1.909 -0.3182  0.0461 -0.6670
 6438TIP3   OH240728   3.907   0.923   5.435 -0.4254  0.1750  0.6833
 6438TIP3    H140729   3.971   0.973   5.384 -2.6500  0.9231 -1.6181
 6438TIP3    H240730   3.893   0.975   5.514  0.2105  1.1468  0.1794
 6439TIP3   OH240731   3.883   2.832   5.799 -0.6609  0.3532 -0.2085
 6439TIP3    H140732   3.825   2.757   5.786  0.6969 -0.4992 -1.6414
 6439TIP3    H240733   3.877   2.852   5.892  1.9431 -4.0514  1.1434
 6440TIP3   OH240734   0.144   1.024  16.557 -0.3690 -0.1531  0.1174
 6440TIP3    H140735   0.086   1.006  16.483 -2.0523  1.3200  0.9946
 6440TIP3    H240736   0.090   1.076  16.617  1.4961  0.1944  1.5737
 6441TIP3   OH240737   2.288   5.158  14.405  0.1334 -0.7467  0.1526
 6441TIP3    H140738   2.227   5.095  14.367  0.0426 -0.9280  0.5952
 6441TIP3    H240739   2.267   5.160  14.498 -0.7790  0.9766 -0.0601
 6442TIP3   OH240740   1.704   2.947  16.435  0.4228  0.6783 -0.1714
 6442TIP3    H140741   1.773   2.976  16.494  0.8628  0.1868 -0.4399
 6442TIP3    H240742   1.704   3.013  16.365 -0.5613  1.6395  0.7092
 6443TIP3   OH240743   5.796   2.599   4.879 -0.4581  0.2480 -0.1418
 6443TIP3    H140744   5.873   2.554   4.847 -1.1799 -0.2964 -1.1833
 6443TIP3    H240745   5.830   2.671   4.932  0.7177 -0.8853  0.6897
 6444TIP3   OH240746   4.650   3.910  15.475  0.1903 -0.5980 -0.1950
 6444TIP3    H140747   4.559   3.931  15.497  0.2516 -0.8331  0.2919
 6444TIP3    H240748   4.662   3.946  15.387  0.5508  2.2477  0.8885
 6445TIP3   OH240749   0.806   2.547  10.869  0.1817  0.3661 -0.5016
 6445TIP3    H140750   0.715   2.576  10.871  0.4439  1.2078  0.6782
 6445TIP3    H240751   0.802   2.455  10.896 -0.3805  0.1982 -1.1429
 6446TIP3   OH240752   5.875   1.360   5.484  0.2510  0.2912  0.4636
 6446TIP3    H140753   5.935   1.336   5.554 -1.2589 -0.2196  1.6347
 6446TIP3    H240754   5.924   1.344   5.403  1.0144 -2.0076  1.3089
 6447TIP3   OH240755   3.497   1.451   5.842  0.5851 -0.6334 -0.3812
 6447TIP3    H140756   3.467   1.504   5.769  2.7347  0.4952 -0.5295
 6447TIP3    H240757   3.480   1.504   5.919  0.4966 -0.7871 -0.2957
 6448TIP3   OH240758   2.958   0.020  16.029 -0.0124  0.0722  0.4543
 6448TIP3    H140759   2.895  -0.007  15.962  0.2731 -0.0418  0.2292
 6448TIP3    H240760   2.904   0.041  16.105 -0.2255 -2.0037  0.9397
 6449TIP3   OH240761   4.869   3.949   0.994  0.0883 -0.2267  0.7236
 6449TIP3    H140762   4.781   3.955   0.957 -0.2548 -2.0687  1.1138
 6449TIP3    H240763   4.860   3.977   1.084 -0.3351 -1.2868  1.0324
 6450TIP3   OH240764   1.204   5.801  12.925 -0.2947  0.6244 -0.2159
 6450TIP3    H140765   1.242   5.714  12.928 -1.1399  0.2098 -1.1753
 6450TIP3    H240766   1.245   5.843  12.850  0.3210  1.1664  0.4106
 6451TIP3   OH240767   3.536   0.284  16.274  0.0227  0.4180 -0.6253
 6451TIP3    H140768   3.534   0.222  16.347 -1.5508 -1.5642 -2.1977
 6451TIP3    H240769   3.492   0.362  16.307 -0.3639 -0.3036  0.6576
 6452TIP3   OH240770   3.359   4.185  13.360  0.0052 -0.0625 -0.2887
 6452TIP3    H140771   3.410   4.224  13.289  2.7117 -3.7493 -0.6767
 6452TIP3    H240772   3.308   4.116  13.317  0.6320 -1.4386  1.0828
 6453TIP3   OH240773   3.572   1.076  12.801 -0.6347 -0.3045  0.1780
 6453TIP3    H140774   3.479   1.096  12.808 -0.4087  1.1645 -0.4568
 6453TIP3    H240775   3.580   1.026  12.719 -0.9023 -0.7025  0.3946
 6454TIP3   OH240776   5.433   0.239   2.920 -0.0514  0.0319 -0.0398
 6454TIP3    H140777   5.510   0.287   2.890 -0.2523  0.0283 -0.5933
 6454TIP3    H240778   5.423   0.169   2.855 -0.9692  0.5053 -0.4306
 6455TIP3   OH240779   6.612   0.199   2.540  0.2322  0.3997 -0.2167
 6455TIP3    H140780   6.679   0.264   2.517 -0.0543  2.1638  3.2224
 6455TIP3    H240781   6.536   0.223   2.486  0.5158  2.2526  0.1255
 6456TIP3   OH240782   0.408   3.215  14.626 -0.0616 -0.4119  0.6064
 6456TIP3    H140783   0.411   3.283  14.693  0.0391  0.5421 -0.3338
 6456TIP3    H240784   0.441   3.258  14.547 -0.3807 -1.4401 -0.1109
 6457TIP3   OH240785   5.134   1.470   3.352 -0.1750  0.7303  0.0297
 6457TIP3    H140786   5.191   1.478   3.428 -1.2047  1.3748  0.7718
 6457TIP3    H240787   5.165   1.538   3.291 -0.3243  1.2841  0.5567
 6458TIP3   OH240788   4.178   4.430   5.360  0.5623  0.5837 -0.0575
 6458TIP3    H140789   4.117   4.440   5.287 -0.0964  1.0669  0.5402
 6458TIP3    H240790   4.264   4.419   5.319 -0.0763 -1.6310 -0.9704
 6459TIP3   OH240791   6.623   0.735  16.262 -0.2990 -0.2794  0.9329
 6459TIP3    H140792   6.660   0.647  16.255  2.0663  0.7635 -2.0319
 6459TIP3    H240793   6.551   0.736  16.199  0.3802  0.1328  0.1302
 6460TIP3   OH240794   1.544   3.982   6.173 -0.5241  0.0696 -0.4164
 6460TIP3    H140795   1.482   3.996   6.244 -0.3564  0.0727 -0.2687
 6460TIP3    H240796   1.541   3.888   6.156 -1.5891  0.2510 -1.3503
 6461TIP3   OH240797   3.447   4.324  16.903  0.1045  0.2674 -0.3383
 6461TIP3    H140798   3.362   4.367  16.895 -0.4722 -1.0765 -2.5236
 6461TIP3    H240799   3.495   4.375  16.969 -2.3300  1.1160  0.8797
 6462TIP3   OH240800   3.713   5.768  12.014 -0.3935 -0.7127 -0.3152
 6462TIP3    H140801   3.718   5.858  11.981  1.1234 -0.6907 -0.0817
 6462TIP3    H240802   3.689   5.778  12.106  0.6774 -0.4698 -0.0433
 6463TIP3   OH240803   1.302   6.442   2.144  0.5025  0.3166  0.2677
 6463TIP3    H140804   1.212   6.426   2.174  0.5937 -0.0506  0.3456
 6463TIP3    H240805   1.324   6.527   2.182  0.1671  0.4365  0.2021
 6464TIP3   OH240806   1.105   1.865   3.736  0.4096  0.3143  0.1415
 6464TIP3    H140807   1.183   1.902   3.777  1.4027 -1.8992  0.4017
 6464TIP3    H240808   1.133   1.842   3.647 -0.3235  0.6412 -0.1821
 6465TIP3   OH240809   1.346   2.880  17.017 -0.0233 -0.1753  0.2641
 6465TIP3    H140810   1.284   2.952  17.005  0.8591  0.5409 -0.0850
 6465TIP3    H240811   1.364   2.848  16.929  0.1659 -0.3238  0.3560
 6466TIP3   OH240812   2.189   1.728  11.359  0.7836  0.2669 -0.0899
 6466TIP3    H140813   2.210   1.791  11.429  0.3717 -0.2863  0.5435
 6466TIP3    H240814   2.266   1.671  11.354 -0.6964 -2.2991  2.8225
 6467TIP3   OH240815   2.200   6.240   1.514  0.2802 -0.5061  0.1251
 6467TIP3    H140816   2.212   6.335   1.504 -0.1707 -0.1161  2.6496
 6467TIP3    H240817   2.146   6.215   1.439 -0.0721  1.3460 -0.2947
 6468TIP3   OH240818   5.610   6.105  15.848 -0.2958  0.1761 -0.2090
 6468TIP3    H140819   5.583   6.195  15.829  1.0311  0.9480  1.3205
 6468TIP3    H240820   5.689   6.092  15.796  0.1444  0.3107  0.4106
 6469TIP3   OH240821   2.388   5.211   2.724 -0.1811 -0.2832 -0.1439
 6469TIP3    H140822   2.468   5.215   2.672  0.8631 -2.7194  1.1279
 6469TIP3    H240823   2.401   5.277   2.792  1.2204 -1.2687  0.5948
 6470TIP3   OH240824   5.893   6.485  16.708  0.0036 -0.3604 -0.5512
 6470TIP3    H140825   5.988   6.494  16.702 -0.0670  1.7962  0.3744
 6470TIP3    H240826   5.863   6.571  16.741 -2.0574 -1.6458  1.2240
 6471TIP3   OH240827   2.948   6.528  10.960  0.1035 -0.9052 -0.1430
 6471TIP3    H140828   2.913   6.478  11.034  1.4580  0.0057  1.1708
 6471TIP3    H240829   2.883   6.597  10.946 -0.1145 -1.0212  0.2738
 6472TIP3   OH240830   0.224   2.158   1.570  0.3530 -0.2264 -0.2514
 6472TIP3    H140831   0.279   2.081   1.556  0.4192 -0.2513  0.1378
 6472TIP3    H240832   0.281   2.232   1.548  0.1961 -0.2932 -0.9220
 6473TIP3   OH240833   2.058   6.665  13.300 -0.0031 -0.2422 -0.1524
 6473TIP3    H140834   2.031   6.594  13.359 -0.3087  1.0547  1.3486
 6473TIP3    H240835   2.141   6.696  13.337  0.5121 -0.2821 -1.2341
 6474TIP3   OH240836   4.737   0.276   2.205  0.0034  0.4393 -0.1562
 6474TIP3    H140837   4.706   0.355   2.249 -0.1934  0.4383 -0.2898
 6474TIP3    H240838   4.826   0.264   2.238 -0.4636 -0.1022  0.9928
 6475TIP3   OH240839   4.517   5.123   4.794 -0.1587 -0.0576 -0.8563
 6475TIP3    H140840   4.598   5.135   4.844  0.1158 -2.3928 -0.6490
 6475TIP3    H240841   4.460   5.194   4.823  1.8001  1.7087 -1.0741
 6476TIP3   OH240842   4.935   4.869  14.619 -0.4135 -0.4254  0.1245
 6476TIP3    H140843   4.955   4.931  14.549  1.9108 -0.8437  0.3323
 6476TIP3    H240844   4.940   4.783  14.577  2.5107 -0.7862  0.9887
 6477TIP3   OH240845   2.757   6.498   4.595  0.1978  0.0985 -0.6026
 6477TIP3    H140846   2.792   6.513   4.683 -3.0066  0.2665  0.7717
 6477TIP3    H240847   2.743   6.403   4.590 -0.8570  0.2343 -0.3898
 6478TIP3   OH240848   5.843   3.599  13.297 -0.1780 -0.1571 -0.1159
 6478TIP3    H140849   5.772   3.662  13.284  1.7453  1.7734 -1.9727
 6478TIP3    H240850   5.874   3.616  13.386 -0.9884  0.0942  0.1254
 6479TIP3   OH240851   5.649   1.372  12.221 -0.2891 -0.1506 -0.0300
 6479TIP3    H140852   5.600   1.443  12.263  1.5472  0.9605  0.3181
 6479TIP3    H240853   5.705   1.337  12.290  1.6185  0.6444 -1.0930
 6480TIP3   OH240854   5.460   0.509   0.952 -0.1648 -0.0501 -0.0217
 6480TIP3    H140855   5.367   0.514   0.976 -0.1110  2.7620 -0.0514
 6480TIP3    H240856   5.460   0.491   0.858 -0.8159  1.8565 -0.4368
 6481TIP3   OH240857   4.485   3.654   5.960 -0.5372 -0.3108  0.2489
 6481TIP3    H140858   4.577   3.651   5.934 -0.8190  0.4241 -0.9135
 6481TIP3    H240859   4.459   3.562   5.964 -0.3669 -0.5174 -1.8583
 6482TIP3   OH240860   4.979   0.448  11.823  0.3150 -0.0250  0.1445
 6482TIP3    H140861   5.021   0.495  11.751 -0.0938 -0.7807 -0.6073
 6482TIP3    H240862   4.933   0.516  11.873 -2.5917  0.1402 -2.4947
 6483TIP3   OH240863   4.300   5.638   4.307 -0.3051  0.2749  0.0220
 6483TIP3    H140864   4.353   5.561   4.328 -1.9963 -0.7682  0.6358
 6483TIP3    H240865   4.359   5.695   4.258  1.3227 -0.8985  0.5468
 6484TIP3   OH240866   3.185   3.958  17.452  0.0730  0.1736 -0.2365
 6484TIP3    H140867   3.192   3.998  17.539  1.3606 -0.9074  0.1888
 6484TIP3    H240868   3.274   3.960  17.418  0.1370 -2.0106 -0.3188
 6485TIP3   OH240869   3.931   1.490   5.778  0.1761  0.1672  0.0821
 6485TIP3    H140870   3.963   1.493   5.688 -0.7379  2.4630 -0.2510
 6485TIP3    H240871   3.890   1.405   5.786 -1.3772  0.5815 -2.3302
 6486TIP3   OH240872   4.333   0.541   5.333  0.7096 -0.2232 -0.1126
 6486TIP3    H140873   4.254   0.530   5.386  1.4949  0.6281  1.2946
 6486TIP3    H240874   4.397   0.482   5.372  1.2102  0.1836 -0.2984
 6487TIP3   OH240875   2.215   3.608   0.353  0.1083 -0.0572 -0.2841
 6487TIP3    H140876   2.170   3.654   0.281  0.9956  0.4245 -0.5465
 6487TIP3    H240877   2.218   3.517   0.324 -0.1328  0.0179 -0.5574
 6488TIP3   OH240878   0.598   2.830  13.615 -0.2652 -0.0355  0.6830
 6488TIP3    H140879   0.630   2.868  13.697 -0.4323  0.3923  0.5524
 6488TIP3    H240880   0.648   2.749  13.606 -0.0609  0.0400  1.0775
 6489TIP3   OH240881   2.630   2.054   0.632  0.3354  0.1389 -0.5764
 6489TIP3    H140882   2.554   1.998   0.616 -0.2943  0.6981  0.3753
 6489TIP3    H240883   2.683   2.004   0.695  2.0380 -1.3635 -3.0409
 6490TIP3   OH240884   4.005   2.486  17.471 -0.5230  0.0260 -0.4138
 6490TIP3    H140885   4.058   2.554  17.429  0.0985 -0.3026 -0.1774
 6490TIP3    H240886   4.044   2.476  17.558 -2.6478  1.7133  0.8416
 6491TIP3   OH240887   2.447   3.509  14.871  0.3429 -0.0934  0.0529
 6491TIP3    H140888   2.383   3.449  14.908 -0.2629  1.6759  2.0617
 6491TIP3    H240889   2.395   3.574  14.824  0.6539  1.0236  1.2027
 6492TIP3   OH240890   6.553   5.193  15.743 -0.0265 -0.2440  0.1795
 6492TIP3    H140891   6.477   5.183  15.799  1.1351 -0.5938  1.7547
 6492TIP3    H240892   6.561   5.288  15.731  0.0595 -0.1239  1.1198
 6493TIP3   OH240893   3.016   0.009   4.883 -0.2981  0.2932  0.0849
 6493TIP3    H140894   3.098   0.058   4.888  0.1546 -0.1356 -2.0535
 6493TIP3    H240895   2.997  -0.016   4.974  2.5005 -0.4819  0.5551
 6494TIP3   OH240896   2.510   5.375  12.760 -0.4468  0.0749 -0.2869
 6494TIP3    H140897   2.576   5.309  12.739  0.8775  1.3763 -0.4125
 6494TIP3    H240898   2.532   5.403  12.849 -1.5624 -0.3030  0.1120
 6495TIP3   OH240899   5.585   3.788   0.664 -0.1107 -0.1463  0.1279
 6495TIP3    H140900   5.645   3.814   0.595 -0.0900 -2.2840 -0.7282
 6495TIP3    H240901   5.498   3.791   0.624 -0.2511 -0.0807  0.4281
 6496TIP3   OH240902   0.028   3.598   3.960  0.2824 -0.3728 -0.2341
 6496TIP3    H140903  -0.040   3.653   3.923 -0.6359 -0.5577  1.1124
 6496TIP3    H240904  -0.014   3.513   3.974  0.7373 -0.4517  0.7402
 6497TIP3   OH240905   4.920   6.390   6.003 -0.1330  0.0759 -0.2414
 6497TIP3    H140906   4.874   6.311   6.033  0.3506  0.7527  2.6060
 6497TIP3    H240907   5.013   6.371   6.015  0.1793  0.1663 -2.1403
 6498TIP3   OH240908   1.282   6.448   3.558  0.2409  0.3301 -1.0671
 6498TIP3    H140909   1.280   6.362   3.600 -0.6637  0.2422 -1.2699
 6498TIP3    H240910   1.231   6.437   3.477 -0.6609  1.2801 -0.6557
 6499TIP3   OH240911   4.039   1.555   4.992  0.3059  0.0939 -0.4195
 6499TIP3    H140912   4.081   1.526   4.912  0.7989  0.9640 -0.4871
 6499TIP3    H240913   3.949   1.524   4.984  0.3071  0.3080 -1.3813
 6500TIP3   OH240914   4.860   5.667   6.014  0.9301  0.1627 -0.1049
 6500TIP3    H140915   4.782   5.652   6.068 -0.8751  1.4223 -2.1814
 6500TIP3    H240916   4.869   5.587   5.962  0.8920  0.0844  0.0101
 6501TIP3   OH240917   2.080   1.862   2.384 -0.0463  0.0734 -0.3272
 6501TIP3    H140918   2.085   1.923   2.310 -0.5546 -0.7161 -1.0207
 6501TIP3    H240919   2.025   1.907   2.449  0.2139  0.6698 -0.5157
 6502TIP3   OH240920   4.240   0.811  15.705  0.0457 -0.1709  0.2252
 6502TIP3    H140921   4.193   0.895  15.706 -0.3569 -0.3877  1.7810
 6502TIP3    H240922   4.330   0.834  15.730 -0.2154 -0.2664  1.2918
 6503TIP3   OH240923   0.225   0.714  11.327  0.0073  0.0493 -0.4347
 6503TIP3    H140924   0.156   0.665  11.282  0.6672 -0.4630 -0.8986
 6503TIP3    H240925   0.293   0.726  11.262  0.6218  0.0221  0.1926
 6504TIP3   OH240926   1.094   6.466   0.657 -0.5471 -0.3293  0.7714
 6504TIP3    H140927   1.083   6.401   0.588  1.3462 -1.2252  1.2329
 6504TIP3    H240928   1.063   6.423   0.736  2.4232 -1.5301  1.4318
 6505TIP3   OH240929   0.299   0.659   1.946 -0.1034 -0.4160 -0.0485
 6505TIP3    H140930   0.265   0.738   1.904  0.2763 -0.8916 -1.3083
 6505TIP3    H240931   0.358   0.691   2.014 -0.0635  0.3918 -0.4514
 6506TIP3   OH240932   6.557   2.927  16.147  0.0879 -0.1087 -0.4525
 6506TIP3    H140933   6.560   2.948  16.240 -3.1810 -0.0763 -0.2209
 6506TIP3    H240934   6.577   3.010  16.103 -0.7278  0.4941  0.2745
 6507TIP3   OH240935   0.609   4.965  13.485  0.3548  0.2674 -0.2757
 6507TIP3    H140936   0.622   4.968  13.579 -0.5452 -0.1192 -0.1222
 6507TIP3    H240937   0.557   5.043  13.465 -0.7532 -0.4149 -0.2017
 6508TIP3   OH240938   4.778   3.108  15.707 -0.4719  0.5309  0.1040
 6508TIP3    H140939   4.713   3.107  15.638 -0.9598  0.1693  0.5633
 6508TIP3    H240940   4.829   3.188  15.691  0.3954 -0.3015 -1.5489
 6509TIP3   OH240941   3.172   4.928   4.011  0.2955 -0.1865  0.1678
 6509TIP3    H140942   3.132   4.860   4.065 -0.8804  1.1410  1.0174
 6509TIP3    H240943   3.264   4.929   4.039  0.0602 -0.6169  0.9966
 6510TIP3   OH240944   5.125   4.758  15.198  0.2863  0.1352  0.4016
 6510TIP3    H140945   5.088   4.847  15.194 -0.3293 -0.0684  1.1244
 6510TIP3    H240946   5.201   4.761  15.140 -0.0956  0.9551 -0.0833
 6511TIP3   OH240947   2.846   1.218   1.431 -0.5368 -0.5547 -0.2017
 6511TIP3    H140948   2.842   1.187   1.521 -2.7252 -1.7358 -0.6467
 6511TIP3    H240949   2.825   1.141   1.378 -0.8108  0.4735 -1.6537
 6512TIP3   OH240950   1.310   1.739  11.945 -0.6233  0.3099 -0.4069
 6512TIP3    H140951   1.291   1.652  11.979 -1.0989  0.0211 -1.3777
 6512TIP3    H240952   1.404   1.752  11.960 -1.1165  0.9621  2.6941
 6513TIP3   OH240953   5.631   0.115  16.550  0.4609 -0.1968  0.3356
 6513TIP3    H140954   5.562   0.151  16.606  1.1906  0.2987  0.9477
 6513TIP3    H240955   5.588   0.096  16.467 -0.4747 -0.1911  0.8064
 6514TIP3   OH240956   0.300   0.952   0.893  0.3341 -0.9345 -0.2433
 6514TIP3    H140957   0.234   0.901   0.938  1.6709 -2.6651 -0.1486
 6514TIP3    H240958   0.332   0.895   0.823  1.4559 -0.0160 -0.5313
 6515TIP3   OH240959   2.603   0.225  17.303  0.0764  0.1959 -0.2528
 6515TIP3    H140960   2.688   0.190  17.330  0.1595 -1.0918 -1.9854
 6515TIP3    H240961   2.547   0.148  17.295 -1.3989  1.0638  1.2483
 6516TIP3   OH240962   0.122   0.869   4.864  0.4668 -0.0980 -0.1581
 6516TIP3    H140963   0.093   0.798   4.921  2.3131 -1.2755 -0.5983
 6516TIP3    H240964   0.128   0.830   4.777  0.6116  0.8508 -0.5897
 6517TIP3   OH240965   0.022   4.149   0.892  0.1930 -0.0462  0.1344
 6517TIP3    H140966   0.100   4.100   0.864  1.6101  2.1683 -0.0812
 6517TIP3    H240967   0.037   4.167   0.985  0.6057  1.4565 -0.1931
 6518TIP3   OH240968   0.433   5.398  14.088 -0.3379  0.2694  0.4470
 6518TIP3    H140969   0.454   5.432  14.175 -0.3711 -0.3988  0.7215
 6518TIP3    H240970   0.370   5.461  14.052  0.3902  1.0516  0.5238
 6519TIP3   OH240971   0.925   5.032   0.718 -0.0290 -0.0607  0.0553
 6519TIP3    H140972   0.850   4.980   0.745  0.4331 -1.0772 -0.5541
 6519TIP3    H240973   0.887   5.114   0.686 -0.8946 -0.6186 -0.3891
 6520TIP3   OH240974   1.609   2.495  11.550  0.1324 -0.2489 -0.0792
 6520TIP3    H140975   1.524   2.453  11.542  0.1128 -0.1252 -0.5808
 6520TIP3    H240976   1.607   2.538  11.636 -1.4250  2.1425 -1.1927
 6521TIP3   OH240977   5.255   0.585   5.076 -0.1889 -0.3803 -0.1938
 6521TIP3    H140978   5.176   0.629   5.044  0.8114  0.9270 -0.9613
 6521TIP3    H240979   5.269   0.622   5.163 -0.3599 -0.5361 -0.0996
 6522TIP3   OH240980   5.719   5.808  12.120 -0.3537  0.0851 -0.7952
 6522TIP3    H140981   5.713   5.758  12.039 -1.5081 -1.6535  0.2963
 6522TIP3    H240982   5.628   5.832  12.141 -0.0223  0.9176 -0.2402
 6523TIP3   OH240983   4.456   2.356   0.033 -0.0017  0.5320  0.6213
 6523TIP3    H140984   4.481   2.426   0.093 -0.4003 -1.0401  2.7535
 6523TIP3    H240985   4.528   2.292   0.041  0.3469  0.6481 -1.2591
 6524TIP3   OH240986   1.285   3.713   3.143  0.5907 -0.2857 -0.5129
 6524TIP3    H140987   1.215   3.653   3.172  0.5944 -0.3209 -0.5764
 6524TIP3    H240988   1.296   3.692   3.050 -0.7741  1.1564 -1.0449
 6525TIP3   OH240989   2.213   5.861  12.606  0.5965 -0.4735 -0.0751
 6525TIP3    H140990   2.141   5.818  12.652  0.4142  0.2357  0.3189
 6525TIP3    H240991   2.206   5.830  12.515  0.0614 -0.7430  0.0547
 6526TIP3   OH240992   4.699   2.232   3.259  0.4389 -0.1954  0.3955
 6526TIP3    H140993   4.724   2.212   3.349 -0.5340 -0.2247  0.6713
 6526TIP3    H240994   4.736   2.318   3.242  2.3588 -1.0195  0.1130
 6527TIP3   OH240995   5.507   3.163   1.677 -0.4284 -0.3271  0.8374
 6527TIP3    H140996   5.412   3.160   1.692 -0.8568 -1.1527 -1.6613
 6527TIP3    H240997   5.524   3.253   1.650 -0.5503 -0.2751  0.9299
 6528TIP3   OH240998   3.282   0.668  16.342 -0.4161 -0.6154 -0.0588
 6528TIP3    H140999   3.344   0.601  16.371 -1.0186 -0.9970  0.3711
 6528TIP3    H241000   3.202   0.651  16.393 -0.8638 -0.1099 -0.5765
 6529TIP3   OH241001   1.249   0.663  13.154  0.1877  0.0212 -0.2245
 6529TIP3    H141002   1.203   0.581  13.136  0.6558 -0.2367 -0.2435
 6529TIP3    H241003   1.308   0.675  13.080  0.4411  0.1472 -0.0064
 6530TIP3   OH241004   3.061   2.424  12.461 -0.0148  0.1577 -0.0686
 6530TIP3    H141005   3.017   2.379  12.389 -0.5108 -1.4931  1.2119
 6530TIP3    H241006   3.074   2.357  12.528  1.0380  1.4819  1.1312
 6531TIP3   OH241007   0.891   4.391   1.304  1.0393 -0.3277  0.0592
 6531TIP3    H141008   0.897   4.376   1.210  1.4892  0.1265  0.0080
 6531TIP3    H241009   0.833   4.322   1.336  1.8548 -1.2356 -0.3628
 6532TIP3   OH241010   3.293   4.944   5.970 -0.4228  0.4488 -0.4853
 6532TIP3    H141011   3.285   4.889   5.892  0.1477  0.9328 -0.8924
 6532TIP3    H241012   3.232   4.905   6.033 -0.9141  0.0673 -1.1791
 6533TIP3   OH241013   0.080   1.371   0.318  0.7053 -0.6287 -0.4980
 6533TIP3    H141014   0.078   1.326   0.402 -1.4634 -0.9058 -0.6422
 6533TIP3    H241015  -0.012   1.393   0.300  1.3033  0.8246 -2.0473
 6534TIP3   OH241016   0.556   0.304  15.402  0.1639  0.5444 -0.1558
 6534TIP3    H141017   0.615   0.248  15.351 -0.7994 -0.3395 -0.3231
 6534TIP3    H241018   0.493   0.337  15.339 -0.9405 -0.4262  0.4129
 6535TIP3   OH241019   0.108   5.048   3.810  0.2808  0.6285 -0.1843
 6535TIP3    H141020   0.070   4.986   3.873 -0.6498  1.2910 -0.0672
 6535TIP3    H241021   0.042   5.117   3.802  0.3443  0.5213 -1.9505
 6536TIP3   OH241022   6.015   2.484  15.565  0.0526  0.5081  0.0527
 6536TIP3    H141023   5.974   2.523  15.488  0.0564  0.2808 -0.0651
 6536TIP3    H241024   5.943   2.474  15.628  0.1634  1.2480  0.3007
 6537TIP3   OH241025   5.143   5.704   3.831 -0.0493  0.0394  0.1061
 6537TIP3    H141026   5.157   5.609   3.825  0.7774  0.1472  0.2552
 6537TIP3    H241027   5.222   5.737   3.873  0.4212  1.0118 -1.4792
 6538TIP3   OH241028   3.174   1.280  14.290 -0.0003 -0.4701  0.3701
 6538TIP3    H141029   3.268   1.279  14.272 -0.1488 -0.1442 -0.4521
 6538TIP3    H241030   3.169   1.281  14.386  0.8473  0.1774  0.4292
 6539TIP3   OH241031   5.354   1.336   1.223 -0.1112 -0.4995 -0.4151
 6539TIP3    H141032   5.323   1.334   1.133  0.4766 -5.3991 -0.7696
 6539TIP3    H241033   5.278   1.315   1.276  0.4273 -2.6164 -0.3715
 6540TIP3   OH241034   6.223   5.847  15.347 -0.7116  0.4027 -0.1527
 6540TIP3    H141035   6.248   5.777  15.408  1.1181 -0.8291 -2.1783
 6540TIP3    H241036   6.169   5.803  15.281  0.9212  0.7158 -1.7583
 6541TIP3   OH241037   2.370   6.738  15.078  0.7179 -0.0780 -0.2467
 6541TIP3    H141038   2.282   6.738  15.040  0.1855 -1.1649  0.9329
 6541TIP3    H241039   2.397   6.830  15.077 -0.2908  0.2258 -0.8962
 6542TIP3   OH241040   1.242   2.685  14.276  0.0313 -0.8222 -0.7284
 6542TIP3    H141041   1.170   2.643  14.323  0.1569  0.7886  1.0106
 6542TIP3    H241042   1.199   2.732  14.204 -0.6615 -0.1619  0.0865
 6543TIP3   OH241043   1.254   4.935  14.430  0.0883 -0.4201  0.0881
 6543TIP3    H141044   1.240   4.882  14.352 -0.9713 -0.7472  0.4915
 6543TIP3    H241045   1.203   4.892  14.499  0.0453  0.5312  0.6740
 6544TIP3   OH241046   2.328   6.685  14.411 -0.3342  0.7454 -0.2426
 6544TIP3    H141047   2.393   6.618  14.431 -0.8607  0.3692  0.2193
 6544TIP3    H241048   2.351   6.715  14.323  0.7565  0.9654  0.0995
 6545TIP3   OH241049   1.747   2.990   4.135  0.3017 -0.4744 -0.1113
 6545TIP3    H141050   1.772   3.078   4.164 -0.7823 -0.1276 -0.1814
 6545TIP3    H241051   1.805   2.971   4.062 -0.7570  1.0344 -1.4125
 6546TIP3   OH241052   2.801   6.142   5.123  0.4143 -0.2280  0.7144
 6546TIP3    H141053   2.810   6.069   5.061 -0.5534  0.5213 -0.3378
 6546TIP3    H241054   2.847   6.215   5.081  3.3550 -0.7048  2.7386
 6547TIP3   OH241055   6.519   5.805  14.296  0.2221  0.2502  0.1631
 6547TIP3    H141056   6.446   5.859  14.327 -0.7151 -1.1286  0.4581
 6547TIP3    H241057   6.517   5.814  14.201  0.2579  0.9426  0.2229
 6548TIP3   OH241058   2.196   1.760  15.164 -0.0032 -0.1164 -0.1370
 6548TIP3    H141059   2.228   1.850  15.170  0.1702 -0.2720  2.0796
 6548TIP3    H241060   2.109   1.768  15.124  1.1125  0.6908 -2.6198
 6549TIP3   OH241061   5.219   0.058   3.132  0.2621 -0.2050 -0.4759
 6549TIP3    H141062   5.144   0.004   3.156  2.2752 -1.5734  3.7025
 6549TIP3    H241063   5.190   0.148   3.147 -0.6816 -0.6767  0.6059
 6550TIP3   OH241064   2.377   4.709  15.753  0.4939  0.6840  0.8838
 6550TIP3    H141065   2.303   4.742  15.804 -0.4165 -0.5528  0.4220
 6550TIP3    H241066   2.428   4.656  15.814 -0.3736 -0.4650  0.6490
 6551TIP3   OH241067   4.163   2.668  14.895  0.0587 -0.4527 -0.6299
 6551TIP3    H141068   4.086   2.719  14.917 -0.1551 -1.3078  0.7198
 6551TIP3    H241069   4.138   2.577  14.914  1.2137 -0.7965 -0.6630
 6552TIP3   OH241070   2.603   5.054  15.910 -0.3774  0.2984 -0.8616
 6552TIP3    H141071   2.652   5.074  15.830  1.0445  1.0352  0.1355
 6552TIP3    H241072   2.642   4.973  15.942 -0.4146  0.4215 -0.5077
 6553TIP3   OH241073   4.093   5.474  10.784  0.2076 -0.0879 -0.2356
 6553TIP3    H141074   4.029   5.518  10.841 -0.0315 -1.2997  0.4709
 6553TIP3    H241075   4.173   5.526  10.794  0.3009 -0.4908  1.5886
 6554TIP3   OH241076   1.905   5.513  14.896 -0.5079 -0.6268 -0.4426
 6554TIP3    H141077   1.958   5.459  14.838  0.6818 -0.3821  0.3787
 6554TIP3    H241078   1.907   5.467  14.980 -1.5071 -0.5395 -0.3531
 6555TIP3   OH241079   5.110   2.834  15.545 -0.2632 -0.0718  0.0882
 6555TIP3    H141080   5.016   2.815  15.547 -0.7407  1.7201 -1.7765
 6555TIP3    H241081   5.118   2.918  15.590  0.4175 -0.1422  0.1050
 6556TIP3   OH241082   5.528   5.135   6.058 -0.2700 -0.5651  0.3703
 6556TIP3    H141083   5.441   5.123   6.095 -1.2116 -1.5728 -1.9416
 6556TIP3    H241084   5.517   5.203   5.991  0.7260 -0.7036  0.0366
 6557TIP3   OH241085   5.874   0.109   1.675 -0.5525  0.2268  0.3866
 6557TIP3    H141086   5.785   0.109   1.712  0.4873  0.7633  3.1074
 6557TIP3    H241087   5.898   0.201   1.669  0.4866  0.0452  1.4799
 6558TIP3   OH241088   1.881   4.239   5.697  0.4166 -0.1878  0.1582
 6558TIP3    H141089   1.913   4.234   5.787  0.7286  0.6913  0.1084
 6558TIP3    H241090   1.829   4.320   5.695  0.2831 -0.2830 -0.4084
 6559TIP3   OH241091   1.008   6.024  14.869 -0.1966 -0.0586 -0.2377
 6559TIP3    H141092   0.992   5.943  14.919  0.9680  0.1468  0.5015
 6559TIP3    H241093   1.076   6.070  14.919  0.3538  0.5904 -1.5391
 6560TIP3   OH241094   2.816   3.885  16.619 -0.1665 -0.2475  0.8280
 6560TIP3    H141095   2.858   3.876  16.705 -1.1465 -0.1983  1.3169
 6560TIP3    H241096   2.874   3.837  16.560  1.1576  0.7113  1.2936
 6561TIP3   OH241097   2.706   4.329  15.479  0.6493  0.3125  0.4016
 6561TIP3    H141098   2.636   4.293  15.532  1.5673 -1.6021  0.3964
 6561TIP3    H241099   2.780   4.270  15.493  1.8641  1.5166 -0.6106
 6562TIP3   OH241100   1.464   1.708   0.546 -0.7072  0.1429  0.0156
 6562TIP3    H141101   1.456   1.647   0.619 -0.2270 -1.2887 -1.0798
 6562TIP3    H241102   1.393   1.771   0.559 -0.7470 -0.1882  1.5954
 6563TIP3   OH241103   6.098   5.046  14.594 -0.2664 -0.6019  0.2888
 6563TIP3    H141104   6.145   5.089  14.666 -0.6967 -2.4368  1.7400
 6563TIP3    H241105   6.162   4.988  14.554 -0.1207  0.1703 -0.6354
 6564TIP3   OH241106   1.258   1.022   5.178  0.3590  0.3535 -0.2323
 6564TIP3    H141107   1.213   0.959   5.121 -0.9232  1.8859 -0.9940
 6564TIP3    H241108   1.344   0.983   5.194 -0.4528 -1.6619 -0.5143
 6565TIP3   OH241109   6.669   2.789   5.484  0.2532 -0.3590  0.2378
 6565TIP3    H141110   6.623   2.707   5.467  0.6489 -0.4664 -0.3442
 6565TIP3    H241111   6.644   2.847   5.412  1.4255 -0.5994 -0.3902
 6566TIP3   OH241112   5.665   2.966   0.049  0.1071  0.4484 -0.2221
 6566TIP3    H141113   5.715   2.885   0.061  1.7303  1.4602  0.1565
 6566TIP3    H241114   5.584   2.938   0.006  1.1299 -1.2254 -1.1771
 6567TIP3   OH241115   3.400   3.174  13.730  0.0250  0.8003  0.5128
 6567TIP3    H141116   3.419   3.237  13.661  2.1498  1.2340  1.4223
 6567TIP3    H241117   3.466   3.191  13.797 -1.0833 -0.5570  2.0244
 6568TIP3   OH241118   1.617   0.940  13.654 -0.0478  0.0742 -0.7577
 6568TIP3    H141119   1.626   0.984  13.569  0.6673 -0.8204 -1.1539
 6568TIP3    H241120   1.584   0.853  13.633  1.4433 -0.6445 -0.2536
 6569TIP3   OH241121   5.674   6.403   1.102 -0.3067 -0.7921  0.4231
 6569TIP3    H141122   5.644   6.394   1.192  0.0268 -0.8573  0.5292
 6569TIP3    H241123   5.616   6.469   1.063  0.2294  0.0356  0.9955
 6570TIP3   OH241124   2.424   2.663  16.471  0.4759 -0.1137  0.2516
 6570TIP3    H141125   2.481   2.594  16.437 -0.1628 -1.1021  1.1167
 6570TIP3    H241126   2.337   2.624  16.472  0.0453  0.8223  0.4758
 6571TIP3   OH241127   0.193   4.288  13.465 -0.0462 -0.6208  0.1193
 6571TIP3    H141128   0.180   4.220  13.398 -0.7688  1.6446 -2.1777
 6571TIP3    H241129   0.288   4.298  13.470  0.0748 -1.8082  0.5459
 6572TIP3   OH241130   2.478   0.216  16.257 -0.3720 -0.1668 -0.4620
 6572TIP3    H141131   2.453   0.193  16.347 -0.3967 -0.3637 -0.5193
 6572TIP3    H241132   2.491   0.132  16.213 -1.5832 -0.0904 -0.9936
 6573TIP3   OH241133   1.316   3.402   1.954  0.1140 -0.0285  0.1094
 6573TIP3    H141134   1.311   3.354   2.036 -2.6113  1.5695  1.0390
 6573TIP3    H241135   1.253   3.358   1.896  0.0645  0.4023 -0.1753
 6574TIP3   OH241136   3.284   6.363  17.167  0.1895 -0.5246 -0.4179
 6574TIP3    H141137   3.199   6.374  17.209  0.6523 -0.7899  0.6047
 6574TIP3    H241138   3.298   6.268  17.166 -0.7548 -0.7461 -3.1246
 6575TIP3   OH241139   0.327   5.076   5.129  0.2317  0.1354  0.3221
 6575TIP3    H141140   0.417   5.053   5.103 -0.3319  0.6889 -2.3947
 6575TIP3    H241141   0.278   5.075   5.047 -2.0909  0.6479  1.6432
 6576TIP3   OH241142   4.097   5.489   0.746  0.9690  0.2047 -0.0761
 6576TIP3    H141143   4.119   5.407   0.701  0.3876 -0.9184  1.5880
 6576TIP3    H241144   4.150   5.487   0.825 -1.1241  0.0248  1.3835
 6577TIP3   OH241145   3.375   2.552  14.087  0.3876 -0.1136  0.0260
 6577TIP3    H141146   3.392   2.472  14.036  0.9027  0.3862 -0.6115
 6577TIP3    H241147   3.313   2.601  14.033  0.3329  0.0688  0.2571
 6578TIP3   OH241148   6.136   1.808  13.597 -0.3121  0.4458  0.1696
 6578TIP3    H141149   6.183   1.729  13.573 -0.9553 -0.1682  0.8577
 6578TIP3    H241150   6.185   1.879  13.556 -0.5194 -0.3990 -1.6440
 6579TIP3   OH241151   2.629   3.966  12.615 -0.0330 -0.1366  0.1947
 6579TIP3    H141152   2.643   3.925  12.701 -1.5381  1.1572  1.1322
 6579TIP3    H241153   2.593   4.052  12.636  0.8215  0.7494 -1.7396
 6580TIP3   OH241154   0.460   0.052   0.439 -0.5904  0.2204 -0.1902
 6580TIP3    H141155   0.427  -0.036   0.422  2.7938 -0.9931 -1.4035
 6580TIP3    H241156   0.388   0.097   0.481 -2.5490 -3.0738  0.3490
 6581TIP3   OH241157   5.416   0.382   1.967 -0.5575  0.5037  0.7280
 6581TIP3    H141158   5.485   0.337   2.015 -1.2899  0.2601  1.5741
 6581TIP3    H241159   5.459   0.462   1.934  0.1155  0.3819  1.2767
 6582TIP3   OH241160   3.926   3.186   3.904 -0.3978  0.2695 -0.4971
 6582TIP3    H141161   3.911   3.275   3.872 -1.1072 -0.0654 -1.1370
 6582TIP3    H241162   3.902   3.130   3.830  0.7409 -0.4404 -0.3507
 6583TIP3   OH241163   0.109   5.954  16.303 -0.4583  0.3131 -0.4754
 6583TIP3    H141164   0.119   6.043  16.270  1.1107 -0.1364 -1.3590
 6583TIP3    H241165   0.023   5.952  16.344 -0.7481  2.0707 -0.9376
 6584TIP3   OH241166   3.963   2.096   2.181 -0.7463 -0.7491 -0.1443
 6584TIP3    H141167   4.028   2.092   2.111 -1.0363  0.7833 -0.5422
 6584TIP3    H241168   3.880   2.108   2.136 -0.8930  0.6273  0.4579
 6585TIP3   OH241169   5.325   4.805   2.237  0.2151  0.1480  0.4487
 6585TIP3    H141170   5.319   4.822   2.143  1.0398 -1.2606  0.1197
 6585TIP3    H241171   5.380   4.875   2.270  0.7664  0.0820 -0.2993
 6586TIP3   OH241172   4.732   0.608   1.695 -0.5238 -0.4904  0.2058
 6586TIP3    H141173   4.741   0.658   1.614  0.1175 -0.7958  0.0873
 6586TIP3    H241174   4.822   0.588   1.721 -0.5646  1.3149  2.0601
 6587TIP3   OH241175   0.577   6.548  14.737  0.4409  0.7598 -0.1260
 6587TIP3    H141176   0.673   6.548  14.738  0.4718  1.8927 -1.1204
 6587TIP3    H241177   0.553   6.463  14.772  1.8458 -0.1132 -1.1603
 6588TIP3   OH241178   0.043   4.135   0.059 -0.1749  0.1808  0.0499
 6588TIP3    H141179   0.118   4.194   0.068  0.5738 -0.5721 -0.9784
 6588TIP3    H241180   0.074   4.052   0.096 -0.3521 -0.2523 -0.7551
 6589TIP3   OH241181   1.869   6.393   3.661 -0.0590 -0.2503 -0.5537
 6589TIP3    H141182   1.838   6.368   3.573  1.4197  2.1828 -1.8843
 6589TIP3    H241183   1.950   6.343   3.673  0.5347  0.5102 -1.2704
 6590TIP3   OH241184   3.042   5.968   2.856  0.5347  0.0634 -0.4416
 6590TIP3    H141185   3.120   5.969   2.911 -0.3142 -1.4215  0.8650
 6590TIP3    H241186   3.038   5.879   2.820 -0.5643  0.0928 -0.4469
 6591TIP3   OH241187   4.094   2.667   1.457  0.2227  0.4325 -0.0811
 6591TIP3    H141188   4.030   2.697   1.521  0.3535  0.8802 -0.1564
 6591TIP3    H241189   4.116   2.745   1.406 -0.2177 -0.0069 -0.9692
 6592TIP3   OH241190   2.558   5.139  16.986 -0.1891  0.7280  0.3362
 6592TIP3    H141191   2.571   5.233  16.970 -0.9876  0.7667 -0.1836
 6592TIP3    H241192   2.535   5.134  17.079  1.5169  0.8423  0.8045
 6593TIP3   OH241193   5.737   0.696  14.073  0.1726  0.2509  0.1553
 6593TIP3    H141194   5.731   0.760  14.002 -1.6502 -0.3402 -0.2597
 6593TIP3    H241195   5.658   0.709  14.125  1.6211  0.9221  2.3649
 6594TIP3   OH241196   5.622   2.172   4.929  0.1485 -0.3883 -0.0327
 6594TIP3    H141197   5.613   2.254   4.880  1.2886 -0.1279  0.1764
 6594TIP3    H241198   5.714   2.168   4.953  0.1633 -1.8585 -0.2476
 6595TIP3   OH241199   0.410   0.301  11.742 -0.4830  0.0581 -0.5792
 6595TIP3    H141200   0.478   0.328  11.804  0.8467  1.0424 -2.3679
 6595TIP3    H241201   0.334   0.354  11.766  0.0263  0.4592  0.1858
 6596TIP3   OH241202   2.002   0.320  13.207  0.1323  0.1375  0.2338
 6596TIP3    H141203   2.024   0.408  13.238 -0.2090 -0.2970  1.8362
 6596TIP3    H241204   1.907   0.316  13.213  0.0384  0.0415 -1.0034
 6597TIP3   OH241205   0.382   2.346  15.798  0.1371  0.1724 -0.5629
 6597TIP3    H141206   0.355   2.427  15.840  0.8740 -0.0248  0.3268
 6597TIP3    H241207   0.408   2.372  15.710 -1.3970  0.5995 -0.9184
 6598TIP3   OH241208   4.261   3.230   5.217 -0.4155 -0.4988  0.5442
 6598TIP3    H141209   4.351   3.258   5.233 -0.8801  1.7573 -0.3847
 6598TIP3    H241210   4.265   3.184   5.133 -0.3845  1.4924 -0.6214
 6599TIP3   OH241211   6.533   5.434   3.870 -0.4474  0.2540  0.4990
 6599TIP3    H141212   6.544   5.341   3.891 -0.9126  0.0173 -0.2746
 6599TIP3    H241213   6.544   5.439   3.775  1.1413  1.2231  0.6928
 6600TIP3   OH241214   5.332   4.569  13.622  0.3159  0.2312 -0.6122
 6600TIP3    H141215   5.332   4.631  13.695 -0.2212  2.7998 -2.6096
 6600TIP3    H241216   5.319   4.484  13.662  0.2014  1.4978  2.2775
 6601TIP3   OH241217   3.069   0.796   6.003  0.4172 -0.5266  0.0597
 6601TIP3    H141218   3.151   0.747   6.009  1.8833  1.4583 -2.0491
 6601TIP3    H241219   3.094   0.887   6.019 -1.2652  0.1786 -1.0588
 6602TIP3   OH241220   3.997   0.663  15.546  0.4256  0.0933  0.3936
 6602TIP3    H141221   4.010   0.651  15.451 -0.7651 -1.8698  0.4267
 6602TIP3    H241222   3.917   0.715  15.552  0.3839  0.0387  0.3233
 6603TIP3   OH241223   5.132   4.079  13.752 -0.8128  0.2478  0.5189
 6603TIP3    H141224   5.146   4.119  13.838  2.2966  1.2136 -0.2756
 6603TIP3    H241225   5.074   4.005  13.768 -0.8193  0.7588  3.3135
 6604TIP3   OH241226   3.965   1.874  14.424  0.1360  0.2344  0.3668
 6604TIP3    H141227   4.040   1.816  14.442  0.1479  0.1935  0.1852
 6604TIP3    H241228   3.973   1.896  14.332 -1.7360 -2.1840 -0.4895
 6605TIP3   OH241229   6.106   3.929   2.199 -0.5332  0.0836 -0.3082
 6605TIP3    H141230   6.089   4.022   2.213  2.4263  0.7534 -0.4574
 6605TIP3    H241231   6.060   3.907   2.118 -0.3645  1.7334 -0.8756
 6606TIP3   OH241232   4.706   1.618   0.867  0.7564  0.0278 -0.1740
 6606TIP3    H141233   4.705   1.663   0.782  2.1999 -0.5281 -0.5188
 6606TIP3    H241234   4.677   1.685   0.929 -1.5484  0.1075 -1.2101
 6607TIP3   OH241235   0.871   1.349   5.517  0.1955  0.2255 -0.3206
 6607TIP3    H141236   0.920   1.422   5.554  1.3172 -0.1743 -0.9816
 6607TIP3    H241237   0.887   1.353   5.423  1.3524 -1.6138 -0.2530
 6608TIP3   OH241238   3.915   4.618  12.598 -0.2903  0.2563 -0.4481
 6608TIP3    H141239   3.846   4.593  12.537 -0.7950  0.0972  0.1778
 6608TIP3    H241240   3.989   4.641  12.542 -1.0531  1.0677 -1.1553
 6609TIP3   OH241241   1.387   1.861  15.429  0.5483 -0.4338  0.8014
 6609TIP3    H141242   1.354   1.791  15.486 -0.3614 -0.7268 -0.0462
 6609TIP3    H241243   1.372   1.828  15.341  0.4091  0.6966  0.3898
 6610TIP3   OH241244   0.976   5.807   4.950 -0.2223 -0.2009  0.1026
 6610TIP3    H141245   0.973   5.751   5.028 -1.8138 -1.6122 -0.9122
 6610TIP3    H241246   1.023   5.754   4.885 -1.2140 -0.1218 -0.6856
 6611TIP3   OH241247   5.034   6.200   6.618 -0.5894 -0.1389 -0.6092
 6611TIP3    H141248   5.021   6.245   6.535  0.6780  1.4656  0.0223
 6611TIP3    H241249   5.069   6.266   6.677 -0.9181 -1.3815  1.0637
 6612TIP3   OH241250   2.009   0.229   2.564 -0.2301 -0.1673  0.2855
 6612TIP3    H141251   1.948   0.158   2.544 -0.9304  0.4566  0.1760
 6612TIP3    H241252   2.023   0.274   2.481 -1.0544  0.8007  0.6603
 6613TIP3   OH241253   3.672   2.706  16.897  0.3963 -0.1590  0.2506
 6613TIP3    H141254   3.699   2.664  16.815  2.3749  0.2497  0.6414
 6613TIP3    H241255   3.704   2.647  16.965 -1.3365 -0.5558  0.7875
 6614TIP3   OH241256   5.092   3.553   6.377  0.3620 -0.1798  0.1929
 6614TIP3    H141257   5.123   3.495   6.446 -0.3581 -0.0420  0.6412
 6614TIP3    H241258   5.046   3.496   6.317 -0.3031 -0.0902  0.6083
 6615TIP3   OH241259   6.531   6.251  14.231  0.7939 -0.2511  0.0934
 6615TIP3    H141260   6.481   6.172  14.253  1.3434 -0.7603 -0.4438
 6615TIP3    H241261   6.475   6.323  14.259 -0.2525 -0.8097 -0.4884
 6616TIP3   OH241262   1.458   6.278  13.988  0.1990 -0.0648 -0.5719
 6616TIP3    H141263   1.380   6.333  13.982 -0.4876 -0.6782  1.7175
 6616TIP3    H241264   1.453   6.222  13.910  0.0547  1.9273 -2.0832
 6617TIP3   OH241265   1.884   4.682  17.144 -0.4640 -0.5093 -0.1835
 6617TIP3    H141266   1.843   4.700  17.060  2.1875  0.9082 -1.2760
 6617TIP3    H241267   1.960   4.628  17.123  1.6675  1.8776  0.8977
 6618TIP3   OH241268   4.463   2.245   0.954  0.1823 -0.3370  0.0365
 6618TIP3    H141269   4.502   2.332   0.952  0.5481 -0.5112 -0.5105
 6618TIP3    H241270   4.373   2.259   0.925 -0.5129  0.2226  2.2714
 6619TIP3   OH241271   1.102   2.218   2.256 -0.9214  0.1873  0.4809
 6619TIP3    H141272   1.133   2.130   2.277  1.9707  1.2027  0.9046
 6619TIP3    H241273   1.086   2.259   2.340  0.7681  1.0060  0.4420
 6620TIP3   OH241274   0.287   6.080   1.505  0.0819  0.1050  0.1126
 6620TIP3    H141275   0.209   6.126   1.473 -0.5291  0.3912  1.8968
 6620TIP3    H241276   0.269   5.988   1.491 -0.1193  0.2319 -0.4653
 6621TIP3   OH241277   3.958   0.469   6.241  0.0045 -0.7122 -0.4713
 6621TIP3    H141278   3.896   0.531   6.202 -0.1614 -0.5993 -0.0465
 6621TIP3    H241279   4.039   0.519   6.250  0.0728 -0.7702 -0.7620
 6622TIP3   OH241280   3.171   4.432   2.186  0.1454 -0.0102  0.2889
 6622TIP3    H141281   3.173   4.434   2.282 -1.0198 -0.2151  0.3307
 6622TIP3    H241282   3.264   4.430   2.161  0.5221  1.9742  1.3413
 6623TIP3   OH241283   5.605   2.398  15.950  0.7096 -0.3727  0.0874
 6623TIP3    H141284   5.609   2.483  15.993 -0.5513 -0.4724  0.4410
 6623TIP3    H241285   5.566   2.340  16.015  0.8609 -1.0486 -0.4107
 6624TIP3   OH241286   2.502   1.966  12.408 -0.2272 -0.4945 -0.3925
 6624TIP3    H141287   2.514   1.917  12.327  0.0220 -2.6597  0.8616
 6624TIP3    H241288   2.583   1.952  12.457  0.0015  1.5373 -0.1286
 6625TIP3   OH241289   2.933   2.851  14.244 -0.6574 -0.3761  0.4378
 6625TIP3    H141290   2.870   2.913  14.208 -0.1963  0.6187  1.3000
 6625TIP3    H241291   2.898   2.765  14.220 -1.8276  0.1799  0.0658
 6626TIP3   OH241292   1.566   2.284  13.245 -0.5680  0.5979 -0.0016
 6626TIP3    H141293   1.643   2.275  13.301 -1.4914 -0.9277  1.1135
 6626TIP3    H241294   1.549   2.378  13.243  1.3316  0.9866 -0.3356
 6627TIP3   OH241295   5.308   4.536  12.058  0.2371 -0.3798  0.1217
 6627TIP3    H141296   5.330   4.605  12.121  0.3796 -1.2375  1.0381
 6627TIP3    H241297   5.338   4.571  11.974  0.1323  0.7513  0.5279
 6628TIP3   OH241298   1.856   3.811  16.114  0.5514 -0.1797  0.0336
 6628TIP3    H141299   1.877   3.815  16.207  2.0574 -1.3792 -0.2170
 6628TIP3    H241300   1.876   3.899  16.081  0.4907  0.1072  0.7479
 6629TIP3   OH241301   1.876   4.454  12.506 -0.3424 -0.2924 -0.3205
 6629TIP3    H141302   1.924   4.533  12.482  0.3839 -0.9222 -1.0302
 6629TIP3    H241303   1.940   4.384  12.497 -1.2768 -1.1069 -0.8399
 6630TIP3   OH241304   3.155   4.921  13.982 -0.6371  0.2762 -0.5538
 6630TIP3    H141305   3.234   4.867  13.981 -0.6533  0.1474  1.3796
 6630TIP3    H241306   3.139   4.942  13.890  1.0348 -0.5759 -1.0784
 6631TIP3   OH241307   5.512   0.734   5.151  0.4172 -0.3270 -0.0081
 6631TIP3    H141308   5.606   0.751   5.143  0.1432  0.4817 -2.2235
 6631TIP3    H241309   5.496   0.661   5.091 -0.3849 -0.3952  0.2798
 6632TIP3   OH241310   2.650   6.587   1.686  0.1978 -0.1214  0.4867
 6632TIP3    H141311   2.662   6.675   1.722 -0.6952 -0.0715  0.6913
 6632TIP3    H241312   2.737   6.547   1.692  1.0219  1.3016 -1.1747
 6633TIP3   OH241313   6.156   3.016   3.104  0.0508 -0.4544  0.6289
 6633TIP3    H141314   6.150   3.067   3.185 -0.3224  1.4398 -0.5437
 6633TIP3    H241315   6.084   3.049   3.050  2.3603  0.8992 -1.8549
 6634TIP3   OH241316   1.518   1.313  15.719  0.5126 -0.1950 -0.2342
 6634TIP3    H141317   1.456   1.294  15.648 -2.0335  0.4121  1.6614
 6634TIP3    H241318   1.557   1.229  15.740 -1.2186 -1.0408 -0.1966
 6635TIP3   OH241319   0.285   3.914   5.029  0.4257  0.4708 -0.6124
 6635TIP3    H141320   0.346   3.938   4.960  1.1780  1.2002  0.2715
 6635TIP3    H241321   0.323   3.834   5.068  1.3259  1.4011  0.4967
 6636TIP3   OH241322   2.399   4.439  14.122 -0.8618  1.2194 -0.3314
 6636TIP3    H141323   2.493   4.420  14.125 -1.0722  0.1743  1.5849
 6636TIP3    H241324   2.359   4.358  14.091 -1.1845  1.2977 -0.1293
 6637TIP3   OH241325   6.451   3.215   2.491 -0.2698  0.2018  0.4105
 6637TIP3    H141326   6.508   3.272   2.542 -1.5249  1.0082  0.9560
 6637TIP3    H241327   6.386   3.273   2.452  0.3312 -0.4722 -1.7060
 6638TIP3   OH241328   3.882   6.599  14.026 -0.3912 -0.3691  0.2901
 6638TIP3    H141329   3.791   6.626  14.023 -0.2268  0.0979 -0.7533
 6638TIP3    H241330   3.886   6.519  13.974 -0.3201 -0.7364  0.8568
 6639TIP3   OH241331   5.379   6.680  15.214 -0.3885 -0.0926  0.3530
 6639TIP3    H141332   5.463   6.688  15.168 -0.9356 -1.2118 -0.9081
 6639TIP3    H241333   5.403   6.676  15.306  0.8658  0.6210  0.0789
 6640TIP3   OH241334   1.774   3.267  10.816 -0.1162 -0.1481 -0.5938
 6640TIP3    H141335   1.838   3.274  10.745 -1.4688  2.1076 -1.6760
 6640TIP3    H241336   1.823   3.293  10.894  0.5884  0.3529 -1.1878
 6641TIP3   OH241337   1.314   5.011  11.710  0.1044 -0.0831  0.9234
 6641TIP3    H141338   1.272   5.025  11.795 -0.2134  0.7554  0.6430
 6641TIP3    H241339   1.243   4.982  11.653 -0.1101  1.2234  0.4770
 6642TIP3   OH241340   4.617   4.508  15.288  0.9959  0.1003  0.0353
 6642TIP3    H141341   4.705   4.540  15.306  1.2511 -1.2235  1.3967
 6642TIP3    H241342   4.621   4.415  15.310 -0.5248 -0.1703 -0.7139
 6643TIP3   OH241343   1.429   5.553   5.348  0.7764 -0.3874  0.0502
 6643TIP3    H141344   1.423   5.648   5.345  0.5310 -0.2957  1.9602
 6643TIP3    H241345   1.339   5.523   5.344  0.7420 -0.4361  0.8725
 6644TIP3   OH241346   2.158   5.102  16.526 -0.0428 -0.0877 -0.0056
 6644TIP3    H141347   2.070   5.087  16.492 -0.4070  0.4424  0.6880
 6644TIP3    H241348   2.147   5.166  16.596  0.8637 -0.1940  0.2550
 6645TIP3   OH241349   5.079   6.264   3.453 -0.2811  0.1072  0.9826
 6645TIP3    H141350   5.007   6.203   3.437  0.3047 -0.9857  2.2850
 6645TIP3    H241351   5.062   6.337   3.393 -0.2579 -1.9049 -1.6441
 6646TIP3   OH241352   3.998   3.938   4.117  0.1630 -0.4030  0.3630
 6646TIP3    H141353   3.955   3.998   4.177  0.3402 -0.6123  0.7052
 6646TIP3    H241354   4.074   3.905   4.166  1.4048  0.8590 -0.6466
 6647TIP3   OH241355   6.427   6.309  12.431 -0.1802  0.1538 -0.1357
 6647TIP3    H141356   6.395   6.248  12.365 -1.0018  1.3143 -0.8467
 6647TIP3    H241357   6.517   6.329  12.405  0.5898 -1.7789  0.8845
 6648TIP3   OH241358   4.437   5.815   5.967 -0.3207  0.0782  0.2259
 6648TIP3    H141359   4.388   5.797   6.048 -1.2150 -0.3166 -0.3951
 6648TIP3    H241360   4.425   5.737   5.914  0.0622  0.4400 -0.3990
 6649TIP3   OH241361   6.165   0.205  16.063 -0.0491 -0.0647 -0.2466
 6649TIP3    H141362   6.235   0.147  16.093 -0.1917  0.6636  1.5942
 6649TIP3    H241363   6.163   0.276  16.127 -1.0278  1.0938 -1.4906
 6650TIP3   OH241364   6.261   1.954  13.885 -0.1844 -0.3801  0.4946
 6650TIP3    H141365   6.188   1.892  13.891 -0.9779  0.5059  0.1990
 6650TIP3    H241366   6.228   2.034  13.925  0.7223 -0.0406  0.5883
 6651TIP3   OH241367   3.673   5.182  15.010 -0.6285 -0.0703  0.4830
 6651TIP3    H141368   3.608   5.112  15.003 -0.7964  0.0701  0.5969
 6651TIP3    H241369   3.713   5.187  14.923  1.5355 -2.3319  1.2518
 6652TIP3   OH241370   3.315   6.520  13.316  0.4078  0.3167 -0.0458
 6652TIP3    H141371   3.323   6.578  13.240  0.2926  0.9313  0.4041
 6652TIP3    H241372   3.357   6.567  13.387  1.2172 -0.5975  0.1078
 6653TIP3   OH241373   3.125   4.685   5.834 -0.0584 -0.3483 -0.2501
 6653TIP3    H141374   3.166   4.751   5.778 -0.0792 -0.1452 -0.0240
 6653TIP3    H241375   3.187   4.612   5.834 -0.0064 -0.3065 -0.4464
 6654TIP3   OH241376   3.352   1.738   0.495  0.5687 -0.2324 -0.1050
 6654TIP3    H141377   3.322   1.715   0.407  0.7993 -1.0357  0.0207
 6654TIP3    H241378   3.426   1.797   0.480  0.6703 -0.4447 -0.4519
 6655TIP3   OH241379   4.212   4.589   3.625  0.2815 -0.1190  0.2402
 6655TIP3    H141380   4.135   4.540   3.654  0.7136 -1.2054 -0.3679
 6655TIP3    H241381   4.203   4.675   3.665  0.2231 -1.1316  2.5419
 6656TIP3   OH241382   1.232   5.323  14.885 -0.1206  0.1458  0.3392
 6656TIP3    H141383   1.286   5.268  14.828 -1.4632 -0.2043 -0.6551
 6656TIP3    H241384   1.288   5.398  14.906  0.2191  0.6388 -2.0323
 6657TIP3   OH241385   0.783   0.452   5.563 -0.6449 -0.2049 -0.3177
 6657TIP3    H141386   0.793   0.517   5.632 -0.2503  1.0898 -1.5533
 6657TIP3    H241387   0.873   0.423   5.544 -0.3862  1.5854 -2.2207
 6658TIP3   OH241388   3.090   4.114  17.197  0.9643  0.0112  0.5191
 6658TIP3    H141389   3.093   4.105  17.292  0.3335 -1.0256  0.4550
 6658TIP3    H241390   2.999   4.140  17.178  1.2603  0.8631  0.2474
 6659TIP3   OH241391   4.665   6.258  11.142 -0.6178  0.0912  0.3786
 6659TIP3    H141392   4.599   6.261  11.073  1.0377  2.0902 -1.2487
 6659TIP3    H241393   4.641   6.329  11.202 -0.0399  0.7412 -0.1493
 6660TIP3   OH241394   1.971   4.320   1.165  0.5973  0.0283 -0.4397
 6660TIP3    H141395   2.003   4.404   1.133  1.4193 -0.2130 -0.2728
 6660TIP3    H241396   2.024   4.255   1.119 -0.8158 -0.4614 -1.4480
 6661TIP3   OH241397   2.482   3.719   6.225 -0.4836  0.4110 -0.2006
 6661TIP3    H141398   2.571   3.687   6.235 -0.6679  0.1596  0.8478
 6661TIP3    H241399   2.480   3.761   6.139  0.1293 -1.2187 -1.0449
 6662TIP3   OH241400   6.743   0.559   0.892 -0.6274 -0.7783 -1.4771
 6662TIP3    H141401   6.796   0.499   0.945  0.8952  0.3025 -1.7348
 6662TIP3    H241402   6.732   0.513   0.809  0.8990 -0.5495 -1.8279
 6663TIP3   OH241403   3.314   4.490   5.352  0.0903  0.1279 -0.0346
 6663TIP3    H141404   3.350   4.411   5.393 -1.7473 -0.1396  1.1540
 6663TIP3    H241405   3.345   4.562   5.407  0.8651  0.1641 -0.4948
 6664TIP3   OH241406   4.326   1.313   5.100 -0.4855 -0.3295  0.2048
 6664TIP3    H141407   4.313   1.307   5.006 -1.6954 -1.2029  0.3965
 6664TIP3    H241408   4.417   1.338   5.111 -1.1286  3.1041 -1.2340
 6665TIP3   OH241409   3.828   3.027   3.701 -0.3294  0.0054 -0.0325
 6665TIP3    H141410   3.811   2.954   3.641 -3.3192  0.1677  0.4459
 6665TIP3    H241411   3.790   3.103   3.658  1.2848  0.9765  0.2126
 6666TIP3   OH241412   0.881   4.746   3.467  0.2487 -0.1839  0.0686
 6666TIP3    H141413   0.965   4.737   3.513  0.9005 -2.5616 -1.3747
 6666TIP3    H241414   0.815   4.725   3.533  1.0472 -1.7285  0.4243
 6667TIP3   OH241415   5.410   5.915  15.806  0.4522  0.9538 -0.4332
 6667TIP3    H141416   5.330   5.945  15.849 -1.5222  4.3031 -5.5234
 6667TIP3    H241417   5.474   5.983  15.825  0.1319  1.4883 -1.2133
 6668TIP3   OH241418   6.675   6.048  12.403 -0.4386  0.1019 -0.3398
 6668TIP3    H141419   6.679   6.141  12.380  1.2752  0.4129  0.9633
 6668TIP3    H241420   6.630   6.046  12.488  2.8153  0.2664  1.5530
 6669TIP3   OH241421   6.293   6.672  12.301  0.1865 -0.0650 -0.7107
 6669TIP3    H141422   6.338   6.644  12.221  1.3413  1.3006 -0.5817
 6669TIP3    H241423   6.254   6.592  12.336  1.1120 -0.9968 -1.7314
 6670TIP3   OH241424   2.623   1.533  11.962 -0.5942 -1.1558 -0.1981
 6670TIP3    H141425   2.665   1.452  11.934  1.0596 -0.4126  0.0460
 6670TIP3    H241426   2.564   1.507  12.033 -2.6156 -2.6174 -2.2419
 6671TIP3   OH241427   0.320   3.349  15.122 -0.1288 -0.5435 -0.0582
 6671TIP3    H141428   0.226   3.331  15.130 -0.2050  0.1147  0.6426
 6671TIP3    H241429   0.360   3.307  15.198  0.1109 -0.5619 -0.1908
 6672TIP3   OH241430   4.652   1.597  13.353 -0.8581  0.4830  0.4490
 6672TIP3    H141431   4.729   1.623  13.403 -0.5014 -1.3066  0.9170
 6672TIP3    H241432   4.686   1.539  13.285 -1.6370  0.8342 -0.2621
 6673TIP3   OH241433   5.455   2.737  11.170  0.0320  0.4956  0.7066
 6673TIP3    H141434   5.449   2.805  11.238  0.1432  0.1248  1.0927
 6673TIP3    H241435   5.548   2.714  11.167  0.4654  2.2011 -1.2742
 6674TIP3   OH241436   2.705   4.327  13.479  0.0653 -0.0916 -0.2047
 6674TIP3    H141437   2.672   4.258  13.421 -2.0881 -0.3171  1.1750
 6674TIP3    H241438   2.750   4.280  13.549  2.1216  0.1551 -1.2820
 6675TIP3   OH241439   3.483   6.720   5.769  0.0804 -0.1245  0.4456
 6675TIP3    H141440   3.507   6.628   5.765  2.9031  0.5531 -0.3100
 6675TIP3    H241441   3.548   6.765   5.714  0.3957  2.5863  2.7440
 6676TIP3   OH241442   6.240   0.408  11.598 -0.2167 -0.3528 -0.3204
 6676TIP3    H141443   6.151   0.380  11.573 -0.5022 -1.5006  1.8025
 6676TIP3    H241444   6.237   0.414  11.693  2.4849 -2.2469 -0.0179
 6677TIP3   OH241445   2.177   1.585  13.776 -0.6246  0.0082  0.1668
 6677TIP3    H141446   2.212   1.655  13.721  0.6952  0.7343  1.8369
 6677TIP3    H241447   2.148   1.629  13.856  2.0488 -1.4364  2.1117
 6678TIP3   OH241448   4.107   4.272  15.875  1.0778 -0.1054 -0.8321
 6678TIP3    H141449   4.085   4.178  15.879 -1.2629  0.3955 -0.7436
 6678TIP3    H241450   4.078   4.300  15.789 -0.8607  1.0774  0.1322
 6679TIP3   OH241451   6.641   2.827   6.222  0.4318 -0.1583  0.0318
 6679TIP3    H141452   6.668   2.911   6.259 -1.1114 -0.3946  1.8562
 6679TIP3    H241453   6.652   2.765   6.294 -2.0218 -0.7804 -0.0294
 6680TIP3   OH241454   3.133   1.780   3.620 -0.1691  0.0788  0.8968
 6680TIP3    H141455   3.207   1.728   3.591 -0.7781 -0.8802  1.0212
 6680TIP3    H241456   3.061   1.718   3.626 -0.4368  0.5277  2.9956
 6681TIP3   OH241457   6.007   2.451   1.612  0.2030  0.1844 -0.7305
 6681TIP3    H141458   6.084   2.406   1.647 -1.2866 -2.2829 -0.4102
 6681TIP3    H241459   5.986   2.517   1.678  0.8629 -0.4842  0.1743
 6682TIP3   OH241460   3.714   6.683   4.422 -0.0161  0.1178 -0.0160
 6682TIP3    H141461   3.759   6.599   4.424 -0.4341 -0.0959  1.4425
 6682TIP3    H241462   3.630   6.665   4.379  0.4129  0.0702 -0.8436
 6683TIP3   OH241463   3.387   3.009   3.251 -0.2620 -0.5793  0.0175
 6683TIP3    H141464   3.354   3.009   3.161  1.0247  1.8589 -0.5347
 6683TIP3    H241465   3.312   2.982   3.304 -2.1747  1.4686 -1.4695
 6684TIP3   OH241466   3.683   3.574  11.594 -0.2728 -0.2886 -0.5346
 6684TIP3    H141467   3.640   3.556  11.510  0.3687  1.6915 -1.3641
 6684TIP3    H241468   3.735   3.653  11.577  0.5478 -0.3367  1.5126
 6685TIP3   OH241469   4.190   1.114  13.614  0.2986 -0.2180 -0.3403
 6685TIP3    H141470   4.112   1.071  13.649  0.8205 -1.4641 -0.6288
 6685TIP3    H241471   4.215   1.178  13.680 -1.2413  0.5649 -0.4694
 6686TIP3   OH241472   4.259   3.737  14.148 -0.6462  0.3382  0.8679
 6686TIP3    H141473   4.341   3.695  14.175 -1.4038 -1.9566 -0.1019
 6686TIP3    H241474   4.258   3.821  14.194  2.3822  0.6108  0.6462
 6687TIP3   OH241475   1.313   3.615  13.854  0.0013  0.5104 -1.1793
 6687TIP3    H141476   1.322   3.709  13.865  1.7592  0.1061  1.6008
 6687TIP3    H241477   1.228   3.594  13.890  1.4348  0.5872  2.6497
 6688TIP3   OH241478   2.871   1.401  14.594 -0.2064 -0.2105 -0.0474
 6688TIP3    H141479   2.832   1.396  14.507  2.2208  1.4671 -1.3705
 6688TIP3    H241480   2.862   1.493  14.619  1.0701 -0.1963  0.4494
 6689TIP3   OH241481   1.230   5.945   2.996  0.3893 -0.2289  0.2033
 6689TIP3    H141482   1.184   5.912   2.919 -1.5536  0.8483  0.8175
 6689TIP3    H241483   1.320   5.959   2.967 -0.5378  1.2436 -2.2280
 6690TIP3   OH241484   2.212   3.261   1.784  0.5953  0.2115  0.0226
 6690TIP3    H141485   2.272   3.243   1.857  1.6821  0.8787 -0.6713
 6690TIP3    H241486   2.167   3.341   1.809 -0.0071 -0.2855  0.5438
 6691TIP3   OH241487   3.225   0.805  12.786  0.8565 -0.5780  0.1711
 6691TIP3    H141488   3.241   0.863  12.711 -2.3628 -0.1110 -0.2752
 6691TIP3    H241489   3.300   0.820  12.844  1.4486  2.0697 -1.1133
 6692TIP3   OH241490   4.798   0.504  12.917 -0.5239  0.1308 -0.0583
 6692TIP3    H141491   4.858   0.577  12.904 -0.0978  0.3197  2.4548
 6692TIP3    H241492   4.714   0.545  12.935 -0.5427 -0.0247  0.2124
 6693TIP3   OH241493   0.110   6.263   1.740  0.1714  0.3867 -0.1889
 6693TIP3    H141494   0.081   6.236   1.653  1.1248 -0.1199 -0.3562
 6693TIP3    H241495   0.031   6.257   1.794 -0.6237  1.4342 -1.1574
 6694TIP3   OH241496   0.599   3.606  13.336  0.7396 -0.1417 -0.3245
 6694TIP3    H141497   0.615   3.661  13.260  0.2203  1.0885  0.4119
 6694TIP3    H241498   0.549   3.532  13.303  2.0727 -0.5637 -1.4683
 6695TIP3   OH241499   0.971   6.353  17.328  0.0840  0.4634 -0.1872
 6695TIP3    H141500   1.000   6.292  17.260 -0.9229 -0.8411  0.5135
 6695TIP3    H241501   0.935   6.427  17.279 -0.3789 -0.3249 -1.0934
 6696TIP3   OH241502   1.744   4.161   4.354  0.0426 -0.0360  0.0482
 6696TIP3    H141503   1.804   4.217   4.304 -0.1588 -1.3121 -1.7278
 6696TIP3    H241504   1.657   4.183   4.320 -0.2617  0.0458  0.8503
 6697TIP3   OH241505   1.013   5.587  17.463 -0.6586 -0.4221  1.0217
 6697TIP3    H141506   0.975   5.531  17.395  1.3142  1.0629 -1.4976
 6697TIP3    H241507   0.945   5.651  17.481 -1.8953 -1.9151  1.8792
 6698TIP3   OH241508   1.625   1.021   3.216  0.3708 -0.4012 -0.0269
 6698TIP3    H141509   1.614   1.116   3.213  1.1632 -0.3095 -1.2797
 6698TIP3    H241510   1.596   0.995   3.303 -0.9884  0.8355 -0.0727
 6699TIP3   OH241511   0.622   0.289   5.856  0.4465 -0.4286  0.5810
 6699TIP3    H141512   0.543   0.322   5.813  0.4092 -1.4839 -0.2039
 6699TIP3    H241513   0.677   0.366   5.868 -0.1832  0.1181 -0.0030
 6700TIP3   OH241514   1.640   2.976   0.442  0.1147  0.7081 -0.4555
 6700TIP3    H141515   1.576   3.024   0.493  0.7548  2.3350 -1.0987
 6700TIP3    H241516   1.597   2.959   0.358 -1.2803 -2.7881  0.7950
 6701TIP3   OH241517   3.007   1.136   2.616 -0.2011  0.2310 -0.2021
 6701TIP3    H141518   2.994   1.087   2.536 -2.2581  1.1403 -0.4838
 6701TIP3    H241519   3.015   1.227   2.587 -0.4374  0.5098  0.5862
 6702TIP3   OH241520   1.586   2.313  15.902 -0.0590 -0.0337  0.0165
 6702TIP3    H141521   1.584   2.337  15.809  0.9910 -1.5098 -0.4237
 6702TIP3    H241522   1.497   2.332  15.934 -0.6556 -0.2025 -1.4717
 6703TIP3   OH241523   4.926   0.948   2.612 -0.1673  0.2059 -0.6738
 6703TIP3    H141524   4.897   0.970   2.524  0.1826 -0.7192 -1.0247
 6703TIP3    H241525   4.910   1.028   2.663  2.2758  1.8056 -2.1923
 6704TIP3   OH241526   5.966   5.379   3.239 -0.5712  0.6634  0.3132
 6704TIP3    H141527   5.956   5.473   3.251 -2.1903  0.4329  1.0384
 6704TIP3    H241528   5.878   5.348   3.219 -0.1265 -0.7545  0.4317
 6705TIP3   OH241529   6.367   5.888  14.616 -0.2596 -0.2049 -0.4259
 6705TIP3    H141530   6.292   5.937  14.583 -1.0521  0.0512  1.6134
 6705TIP3    H241531   6.339   5.796  14.611 -0.2836 -0.1862 -0.6559
 6706TIP3   OH241532   0.993   4.719   1.625  0.3010 -0.4453 -0.2481
 6706TIP3    H141533   0.928   4.780   1.659  1.0011 -0.3215  0.8839
 6706TIP3    H241534   0.973   4.714   1.531 -0.9612  0.0425 -0.0297
 6707TIP3   OH241535   0.096   4.735  11.480  0.1008 -0.0890  0.3614
 6707TIP3    H141536   0.096   4.681  11.400 -1.8117  1.5234 -0.8194
 6707TIP3    H241537   0.147   4.812  11.456 -0.6053  0.4695  0.6467
 6708TIP3   OH241538   6.705   3.913  12.568 -0.0294 -0.4522  0.0821
 6708TIP3    H141539   6.725   3.819  12.572  1.1595 -0.1645  2.1682
 6708TIP3    H241540   6.788   3.956  12.590 -0.7096  1.0808 -0.2243
 6709TIP3   OH241541   2.205   1.077   0.596  0.4962 -0.0153  0.8479
 6709TIP3    H141542   2.226   1.005   0.656  1.4918 -0.1833  0.3056
 6709TIP3    H241543   2.268   1.069   0.525  0.7428  1.4955  0.8553
 6710TIP3   OH241544   1.770   2.136   1.100  0.1493  0.1721 -0.0642
 6710TIP3    H141545   1.681   2.130   1.067 -0.2301  3.0409  0.1676
 6710TIP3    H241546   1.825   2.133   1.021 -0.4430  2.0586 -0.6061
 6711TIP3   OH241547   5.106   6.645  13.400 -0.4854 -0.2626 -0.4183
 6711TIP3    H141548   5.200   6.630  13.387 -0.0620  1.8681 -0.3035
 6711TIP3    H241549   5.086   6.599  13.481  0.2391 -1.4921 -0.9087
 6712TIP3   OH241550   3.438   6.448   3.431  0.1187 -0.3907 -0.2559
 6712TIP3    H141551   3.524   6.481   3.405  1.0426 -1.1691  1.5773
 6712TIP3    H241552   3.444   6.441   3.527 -2.1998  0.0863 -0.0165
 6713TIP3   OH241553   5.318   6.081   4.448  0.5896 -0.0370 -0.7295
 6713TIP3    H141554   5.282   6.105   4.363 -2.8663  3.4337  1.3782
 6713TIP3    H241555   5.289   5.991   4.462  3.6957 -1.8486 -4.1230
 6714TIP3   OH241556   5.330   1.832   2.015 -0.6079  0.4344  0.1720
 6714TIP3    H141557   5.299   1.839   2.106 -1.0189  0.8600  0.0042
 6714TIP3    H241558   5.410   1.781   2.021 -0.5710  0.5539  0.7931
 6715TIP3   OH241559   4.182   2.213  15.375 -0.5020 -0.5495 -0.0338
 6715TIP3    H141560   4.110   2.252  15.425 -1.5072 -0.5389 -1.4432
 6715TIP3    H241561   4.254   2.206  15.438 -1.4777  0.1745  1.1979
 6716TIP3   OH241562   5.132   4.897   5.364 -0.2824 -0.5755  0.0449
 6716TIP3    H141563   5.044   4.874   5.393 -0.1745  1.2009  2.0710
 6716TIP3    H241564   5.136   4.992   5.375  1.4200 -0.4223 -1.4515
 6717TIP3   OH241565   5.806   3.603  10.908  0.2297 -0.2430  0.2947
 6717TIP3    H141566   5.867   3.653  10.962 -0.4678  0.3135  0.5846
 6717TIP3    H241567   5.860   3.567  10.838  1.6369 -2.7425  2.4580
 6718TIP3   OH241568   2.904   6.424  12.105  1.0925 -0.2091 -0.3488
 6718TIP3    H141569   2.993   6.390  12.105  0.9680 -0.5787  0.8145
 6718TIP3    H241570   2.849   6.348  12.125  0.5551  0.1024 -0.6170
 6719TIP3   OH241571   4.711   6.318  12.013 -0.6432  0.1221  0.0442
 6719TIP3    H141572   4.634   6.261  12.007 -1.4494  1.0594  0.8353
 6719TIP3    H241573   4.730   6.342  11.923 -1.2224 -0.2129 -0.1786
 6720TIP3   OH241574   4.092   4.897   1.901 -0.2013  0.3919 -0.4490
 6720TIP3    H141575   4.033   4.824   1.916  2.0271 -2.1003 -2.6294
 6720TIP3    H241576   4.061   4.937   1.820  0.4540 -0.2737 -1.0421
 6721TIP3   OH241577   0.306   2.251  14.702  0.5859  0.0829  0.6495
 6721TIP3    H141578   0.257   2.327  14.669 -2.1546 -1.1500  1.5866
 6721TIP3    H241579   0.350   2.284  14.781 -1.9399  0.4192  2.0335
 6722TIP3   OH241580   3.695   0.707   0.157 -0.2819  0.5461 -1.0722
 6722TIP3    H141581   3.671   0.722   0.248  2.1452  0.7762 -0.3849
 6722TIP3    H241582   3.740   0.787   0.130 -0.5529  0.3064 -2.3154
 6723TIP3   OH241583   1.291   1.578  16.349 -0.3006  0.1676 -0.2005
 6723TIP3    H141584   1.350   1.599  16.276 -0.0660  0.1913 -0.0025
 6723TIP3    H241585   1.349   1.564  16.424 -0.4210 -1.6299 -0.4130
 6724TIP3   OH241586   4.022   0.712  15.923  0.3555  0.1024 -0.2039
 6724TIP3    H141587   4.110   0.734  15.956 -0.5519  1.7046  1.3215
 6724TIP3    H241588   4.029   0.722  15.828  2.4725 -2.4028 -0.4224
 6725TIP3   OH241589   5.476   1.395   2.855 -0.7485 -0.6657 -0.0749
 6725TIP3    H141590   5.456   1.464   2.792 -0.7544  0.3529  0.9886
 6725TIP3    H241591   5.404   1.399   2.919 -0.5031 -1.3442  0.2551
 6726TIP3   OH241592   2.181   0.746  15.108 -0.2762 -0.1967  0.7294
 6726TIP3    H141593   2.185   0.678  15.041  0.7572 -1.1946  1.7570
 6726TIP3    H241594   2.147   0.701  15.185 -1.0619  0.8354  1.0052
 6727TIP3   OH241595   1.373   3.908  11.009  0.2561 -0.8639 -0.5836
 6727TIP3    H141596   1.436   3.898  10.937 -0.8264 -1.2972 -1.5005
 6727TIP3    H241597   1.334   3.821  11.018  0.5574 -0.8803  0.7275
 6728TIP3   OH241598   6.721   0.765   1.199 -0.7668 -0.1974 -0.1287
 6728TIP3    H141599   6.697   0.677   1.228  0.4578 -0.3413  0.4913
 6728TIP3    H241600   6.734   0.814   1.280  1.1407 -0.1762 -0.3926
 6729TIP3   OH241601   4.898   2.100   1.415 -0.4546 -0.1180 -0.1532
 6729TIP3    H141602   4.952   2.178   1.402 -1.2509  0.2699 -1.2827
 6729TIP3    H241603   4.844   2.121   1.491 -0.3062  0.2370 -0.1456
 6730TIP3   OH241604   6.035   3.789   1.718 -0.1517  0.1152 -0.1174
 6730TIP3    H141605   5.940   3.800   1.723 -0.2198 -0.4287 -0.2418
 6730TIP3    H241606   6.056   3.798   1.625 -0.2630 -1.2564 -0.2833
 6731TIP3   OH241607   1.001   6.086   5.656 -0.4726 -0.8129 -0.7533
 6731TIP3    H141608   1.073   6.052   5.603 -0.1327 -0.4894 -0.5086
 6731TIP3    H241609   0.989   6.176   5.625 -1.2787 -1.0969 -1.3089
 6732TIP3   OH241610   5.044   5.261  14.654 -0.1828  0.2074 -0.1073
 6732TIP3    H141611   5.006   5.184  14.697  0.5684 -0.5595 -0.7873
 6732TIP3    H241612   5.126   5.276  14.701 -0.1137  0.3303 -0.2684
 6733TIP3   OH241613   4.437   3.575  12.213  0.1996 -0.1437  0.4310
 6733TIP3    H141614   4.433   3.649  12.274 -0.5701 -1.1173  1.5974
 6733TIP3    H241615   4.375   3.599  12.143 -0.2128  0.2229  0.9143
 6734TIP3   OH241616   6.042   3.741   5.878 -0.0588 -0.1329 -0.4654
 6734TIP3    H141617   6.062   3.810   5.940  0.0340 -0.7800  0.2364
 6734TIP3    H241618   6.102   3.756   5.805 -0.0759  0.5491 -0.3467
 6735TIP3   OH241619   0.666   6.099   3.785 -0.3154  0.0430  0.9685
 6735TIP3    H141620   0.645   6.142   3.702 -0.3646 -1.5609  0.1187
 6735TIP3    H241621   0.584   6.104   3.835 -0.1975  1.2920  1.0809
 6736TIP3   OH241622   2.454   6.526   0.106 -0.4432 -0.2508  0.2809
 6736TIP3    H141623   2.376   6.519   0.051 -0.7523 -0.8103  0.7837
 6736TIP3    H241624   2.477   6.618   0.103 -2.0371  0.2138  1.3757
 6737TIP3   OH241625   2.115   5.903   3.074 -0.0557  0.4462  0.4272
 6737TIP3    H141626   2.029   5.926   3.037  0.3697  0.2451 -0.7269
 6737TIP3    H241627   2.130   5.813   3.045  0.5709  0.5004  0.5754
 6738TIP3   OH241628   3.256   3.157  16.133  0.2821  0.0842 -0.4561
 6738TIP3    H141629   3.334   3.102  16.137  0.9326  1.0212  0.0638
 6738TIP3    H241630   3.252   3.187  16.042  1.3330  1.1318 -0.1865
 6739TIP3   OH241631   4.198   2.996   6.046 -0.5140  0.2952  0.1460
 6739TIP3    H141632   4.237   3.022   6.130  0.4751  2.3100 -0.8790
 6739TIP3    H241633   4.273   2.981   5.988 -1.2009  0.8440 -0.9120
 6740TIP3   OH241634   5.005   2.349  17.405 -0.7199 -0.1335  0.2929
 6740TIP3    H141635   5.019   2.428  17.456 -2.0753  0.7088 -0.5690
 6740TIP3    H241636   5.093   2.318  17.383 -0.0888 -0.3979  2.8604
 6741TIP3   OH241637   5.578   2.046  15.893 -0.3630 -0.2509 -0.3422
 6741TIP3    H141638   5.545   2.100  15.965 -1.2856 -0.2557 -0.7447
 6741TIP3    H241639   5.546   2.089  15.814  1.0824  0.0392 -0.7868
 6742TIP3   OH241640   3.694   5.224  14.120 -0.0315 -0.0985  0.3233
 6742TIP3    H141641   3.781   5.259  14.101 -0.1424  0.6319  1.1164
 6742TIP3    H241642   3.672   5.172  14.043  0.6491  0.5983 -0.3635
 6743TIP3   OH241643   3.336   2.882   3.591 -0.1779  0.2041 -0.2708
 6743TIP3    H141644   3.319   2.939   3.516  0.0086  0.2666 -0.2660
 6743TIP3    H241645   3.255   2.833   3.603 -0.7021  1.2181  0.3788
 6744TIP3   OH241646   4.533   0.768   4.111 -0.3869  0.0836 -0.4463
 6744TIP3    H141647   4.464   0.805   4.057 -2.3496 -2.8132 -0.1387
 6744TIP3    H241648   4.512   0.796   4.200 -0.2881  0.4057 -0.5220
 6745TIP3   OH241649   0.185   2.843  16.058  0.2578  0.5026  0.6034
 6745TIP3    H141650   0.137   2.840  15.975  0.0126 -1.8935  0.7689
 6745TIP3    H241651   0.122   2.816  16.124  0.9942  0.3493  1.2582
 6746TIP3   OH241652   4.352   1.272  13.199 -0.1823 -0.3271 -0.4708
 6746TIP3    H141653   4.291   1.295  13.130  1.0653  2.1806 -0.8834
 6746TIP3    H241654   4.435   1.258  13.154  0.5558  0.9375  0.4240
 6747TIP3   OH241655   6.148   0.381  16.772  0.4711  0.0731  0.1854
 6747TIP3    H141656   6.208   0.426  16.830 -2.0716  0.8685  2.3774
 6747TIP3    H241657   6.081   0.343  16.829 -0.1691 -2.3782 -1.9496
 6748TIP3   OH241658   6.462   6.312   4.123  0.1931  0.3636  0.2401
 6748TIP3    H141659   6.386   6.279   4.074  2.1592 -0.6229 -2.4109
 6748TIP3    H241660   6.503   6.234   4.158  1.6060  0.5151 -0.9760
 6749TIP3   OH241661   0.576   4.787   0.658  0.3249  0.1688 -0.8390
 6749TIP3    H141662   0.511   4.758   0.722  1.6126  0.4434  0.6373
 6749TIP3    H241663   0.610   4.706   0.620  1.0773 -0.1089  0.3918
 6750TIP3   OH241664   3.432   1.049  17.308  0.8163 -0.7669 -0.5516
 6750TIP3    H141665   3.422   0.967  17.356  1.2885 -0.6724 -0.2879
 6750TIP3    H241666   3.431   1.117  17.375  0.9207 -0.5897 -0.7286
 6751TIP3   OH241667   0.915   2.270  14.071 -0.1068  0.6570 -0.3899
 6751TIP3    H141668   0.840   2.211  14.057 -1.0506  0.9284  2.7605
 6751TIP3    H241669   0.973   2.221  14.129  0.1170  1.9929  0.5514
 6752TIP3   OH241670   2.632   2.006  15.883  0.4436  0.6246 -0.0306
 6752TIP3    H141671   2.543   2.038  15.867 -0.9097 -2.4897  0.5042
 6752TIP3    H241672   2.658   1.967  15.799 -0.0161 -1.1748  0.6110
 6753TIP3   OH241673   4.948   0.596  13.852  0.0944  0.5640  0.0326
 6753TIP3    H141674   4.943   0.516  13.800  0.1660  1.4702 -1.4202
 6753TIP3    H241675   5.011   0.651  13.806 -0.6646  1.8412  0.4612
 6754TIP3   OH241676   5.376   4.996   3.504  0.3322 -0.0636 -0.1959
 6754TIP3    H141677   5.422   4.912   3.508 -0.4193 -0.4995 -0.5391
 6754TIP3    H241678   5.318   4.995   3.580 -1.1857 -0.7718 -1.3134
 6755TIP3   OH241679   2.775   1.064  16.698 -0.0029  0.1187 -0.3479
 6755TIP3    H141680   2.708   1.026  16.642  1.7734 -1.9237 -1.2643
 6755TIP3    H241681   2.835   0.991  16.716  0.1868  0.9677  3.2444
 6756TIP3   OH241682   5.231   1.031  15.733  0.1414 -0.5342 -0.2543
 6756TIP3    H141683   5.250   0.955  15.788 -1.2921  0.2287  1.3816
 6756TIP3    H241684   5.139   1.050  15.750 -0.2049  0.1301 -2.4825
 6757TIP3   OH241685   3.275   6.727  17.112 -0.6238 -0.7766 -0.4776
 6757TIP3    H141686   3.233   6.754  17.031 -1.6909 -1.2347 -0.0875
 6757TIP3    H241687   3.204   6.699  17.169  0.1384 -0.8300  0.4882
 6758TIP3   OH241688   0.622   4.476  14.825  0.2915  0.4700 -0.3330
 6758TIP3    H141689   0.716   4.460  14.822  0.0559 -1.2148  0.4578
 6758TIP3    H241690   0.582   4.392  14.802 -1.0280  0.7838  0.6798
 6759TIP3   OH241691   1.400   2.273  11.240 -0.1048 -0.0701  0.3636
 6759TIP3    H141692   1.314   2.313  11.253  1.6152  3.4033  2.6139
 6759TIP3    H241693   1.430   2.308  11.156  0.1621  1.0324  0.8935
 6760TIP3   OH241694   2.557   2.787   1.730 -0.1431  0.2367 -0.8781
 6760TIP3    H141695   2.537   2.729   1.656  1.8149  0.7820 -1.9093
 6760TIP3    H241696   2.594   2.729   1.797  0.1275  0.0293 -1.2019
 6761TIP3   OH241697   2.693   2.662  17.110 -0.7130 -0.0954  0.1026
 6761TIP3    H141698   2.632   2.695  17.175 -1.9936 -0.2954 -0.9468
 6761TIP3    H241699   2.763   2.621  17.161 -0.7337  1.3449  1.3596
 6762TIP3   OH241700   5.577   4.957  14.817 -0.1491 -0.3100  0.0857
 6762TIP3    H141701   5.661   4.930  14.780 -0.2979 -1.5187  0.5764
 6762TIP3    H241702   5.553   4.885  14.875 -1.4125  0.1329  0.1307
 6763TIP3   OH241703   4.225   1.770  14.519 -0.3157 -0.3355  0.0800
 6763TIP3    H141704   4.263   1.857  14.534  0.2860 -0.7485  0.9915
 6763TIP3    H241705   4.258   1.744  14.433 -0.7316  0.4486 -0.3321
 6764TIP3   OH241706   4.761   2.391   5.929  0.1851  0.3449  0.4932
 6764TIP3    H141707   4.753   2.475   5.974 -1.3988  0.0361  0.8429
 6764TIP3    H241708   4.746   2.325   5.997  1.3458 -0.2336  0.2111
 6765TIP3   OH241709   6.392   2.216  11.806 -0.3337  0.0556 -0.4720
 6765TIP3    H141710   6.304   2.255  11.798  0.1796  1.1924 -0.7792
 6765TIP3    H241711   6.420   2.203  11.715 -0.0529  0.0238 -0.3811
 6766TIP3   OH241712   4.747   3.479  13.551  0.7392  1.0772 -0.5887
 6766TIP3    H141713   4.672   3.453  13.497  0.1629  0.9039  0.2855
 6766TIP3    H241714   4.821   3.430  13.514  0.1543  0.1554 -0.5708
 6767TIP3   OH241715   0.375   0.359   5.729 -0.1690 -0.4208  0.1646
 6767TIP3    H141716   0.361   0.299   5.656  0.6160 -0.8307  0.3431
 6767TIP3    H241717   0.331   0.440   5.703 -0.4147 -0.7631 -0.4909
 6768TIP3   OH241718   5.429   4.500   4.760  0.3245 -0.4315  0.4009
 6768TIP3    H141719   5.412   4.408   4.744  1.7185 -0.5230 -0.6388
 6768TIP3    H241720   5.408   4.544   4.678 -0.6312  0.2569  0.9732
 6769TIP3   OH241721   3.217   1.954  11.938 -0.6378  0.2402 -0.1345
 6769TIP3    H141722   3.151   1.965  11.869 -1.2177 -2.1975 -0.0817
 6769TIP3    H241723   3.298   1.935  11.891 -0.8847 -0.7310 -0.1991
 6770TIP3   OH241724   6.436   5.150  12.581 -0.1891  0.1393  0.5237
 6770TIP3    H141725   6.398   5.137  12.668  1.3442  0.7006  1.3148
 6770TIP3    H241726   6.399   5.080  12.528  0.2362 -1.3579  2.0960
 6771TIP3   OH241727   1.947   3.191   2.532 -0.1485 -0.6704 -0.4381
 6771TIP3    H141728   1.908   3.106   2.515 -0.9339 -0.6067  0.9338
 6771TIP3    H241729   2.020   3.172   2.592 -1.1500 -0.2652  0.9554
 6772TIP3   OH241730   5.000   0.650   0.420  0.3820 -0.1700 -0.5708
 6772TIP3    H141731   5.024   0.562   0.390 -0.5639 -1.1318  1.2972
 6772TIP3    H241732   4.905   0.650   0.419  0.3444  1.3895 -1.8874
 6773TIP3   OH241733   2.716   1.749   2.303 -0.1871  0.1015 -0.9180
 6773TIP3    H141734   2.690   1.791   2.221 -1.2270 -1.2047 -1.2940
 6773TIP3    H241735   2.635   1.709   2.336  0.0877  1.1045  1.0681
 6774TIP3   OH241736   5.254   3.676   2.451 -0.2561  0.1338  0.4567
 6774TIP3    H141737   5.158   3.685   2.446 -0.5850 -2.2494  1.4122
 6774TIP3    H241738   5.280   3.643   2.365 -0.0863  1.9203 -0.2206
 6775TIP3   OH241739   6.184   0.145   6.704 -0.2934 -0.0461 -0.4230
 6775TIP3    H141740   6.118   0.171   6.768 -1.3085  0.0712 -1.4814
 6775TIP3    H241741   6.172   0.206   6.631  1.4800  0.4388 -0.3508
 6776TIP3   OH241742   3.399   5.979   5.018 -0.0289 -0.0418  0.5627
 6776TIP3    H141743   3.484   6.009   4.987 -0.3928  1.6749  1.0826
 6776TIP3    H241744   3.415   5.892   5.053  1.2838 -0.1742 -0.3101
 6777TIP3   OH241745   6.484   2.851   0.777  0.7833 -0.4138  0.5834
 6777TIP3    H141746   6.411   2.826   0.834 -0.3049  2.6019  0.6899
 6777TIP3    H241747   6.546   2.894   0.835  2.6696 -2.7438  0.4477
 6778TIP3   OH241748   2.925   5.782   0.987 -0.4821 -0.4960 -0.5751
 6778TIP3    H141749   3.008   5.787   1.036 -0.2132  2.0479 -1.1425
 6778TIP3    H241750   2.923   5.692   0.953  0.0535 -1.9089  2.7056
 6779TIP3   OH241751   1.219   2.053   1.061 -0.4216  0.1394 -0.1844
 6779TIP3    H141752   1.149   2.107   1.098 -0.7000 -1.4917  1.8793
 6779TIP3    H241753   1.221   1.976   1.117  0.9377 -1.3227 -2.1163
 6780TIP3   OH241754   6.040   6.197   3.166 -0.3707  0.2719 -0.1418
 6780TIP3    H141755   5.973   6.141   3.205  0.4806 -0.6481  0.0476
 6780TIP3    H241756   6.098   6.136   3.121  0.4988  1.0212 -0.0575
 6781TIP3   OH241757   1.793   0.278  15.927 -0.6139 -1.0975  0.0188
 6781TIP3    H141758   1.717   0.247  15.977 -1.5145 -0.4564 -0.8982
 6781TIP3    H241759   1.775   0.372  15.913  1.0114 -0.6136  0.9319
 6782TIP3   OH241760   5.120   3.140  15.157  0.1145 -0.0293 -0.2132
 6782TIP3    H141761   5.122   3.233  15.179  1.6763 -0.4924  1.9516
 6782TIP3    H241762   5.055   3.103  15.215 -1.0469 -0.2265 -1.5888
 6783TIP3   OH241763   2.160   6.491   1.011  0.1521 -0.3952 -0.3940
 6783TIP3    H141764   2.167   6.563   1.074  0.0255  0.3889 -1.2504
 6783TIP3    H241765   2.190   6.414   1.059 -1.3383 -0.1127  1.0887
 6784TIP3   OH241766   4.305   1.390  12.132 -0.0221  0.0507 -0.1595
 6784TIP3    H141767   4.234   1.449  12.157 -0.4601 -0.9883  1.1565
 6784TIP3    H241768   4.384   1.432  12.167 -0.2560  0.1169  0.2888
 6785TIP3   OH241769   6.671   3.975   4.008 -0.0145  0.7829 -0.0490
 6785TIP3    H141770   6.636   3.890   3.979 -2.7422  1.5272  0.7569
 6785TIP3    H241771   6.712   4.012   3.929 -0.4144 -0.4927 -0.8973
 6786TIP3   OH241772   3.832   0.123   4.082  0.2414  0.2339 -0.2337
 6786TIP3    H141773   3.904   0.158   4.135  0.0433 -1.3902  1.2097
 6786TIP3    H241774   3.757   0.178   4.103 -0.1396 -1.0508  2.2025
 6787TIP3   OH241775   4.472   5.716   5.253 -0.2132  0.0656 -0.1411
 6787TIP3    H141776   4.504   5.632   5.284  0.3943  0.3421 -0.0186
 6787TIP3    H241777   4.537   5.744   5.189 -2.3224 -1.3977 -3.2343
 6788TIP3   OH241778   0.825   4.272  16.111  0.3600  0.0109 -0.4100
 6788TIP3    H141779   0.830   4.262  16.206  0.8542 -0.0492 -0.4431
 6788TIP3    H241780   0.806   4.184  16.079  1.8325 -0.2889 -0.4863
 6789TIP3   OH241781   0.440   5.042   2.355 -0.1039  0.6577  0.3042
 6789TIP3    H141782   0.419   4.952   2.330  0.6175  0.0591  1.7589
 6789TIP3    H241783   0.516   5.035   2.412  0.4655  2.2786 -0.1714
 6790TIP3   OH241784   2.338   2.755   5.429 -0.7863  0.0772  0.2073
 6790TIP3    H141785   2.422   2.763   5.474 -1.8779 -0.7438  2.5304
 6790TIP3    H241786   2.302   2.672   5.458 -2.9613  0.9603  0.2961
 6791TIP3   OH241787   1.970   6.668   2.185  0.1622 -0.0753 -0.5475
 6791TIP3    H141788   2.024   6.641   2.111 -0.0552  1.8251 -1.4719
 6791TIP3    H241789   2.014   6.747   2.218 -0.7813  0.1735  0.1387
 6792TIP3   OH241790   0.083   6.366   2.485  0.0091 -0.4787 -0.3838
 6792TIP3    H141791   0.171   6.339   2.456  0.0394 -0.1786 -0.5716
 6792TIP3    H241792   0.046   6.413   2.410  0.5053  1.2671  0.4105
 6793TIP3   OH241793   0.211   1.314   2.483  0.2816  0.4240 -0.3390
 6793TIP3    H141794   0.219   1.398   2.437 -0.7942 -0.6469 -2.6022
 6793TIP3    H241795   0.152   1.333   2.556 -1.4249  1.2891 -1.8754
 6794TIP3   OH241796   5.857   6.385  10.828 -0.0360  0.0116 -0.1858
 6794TIP3    H141797   5.856   6.295  10.798 -0.7121 -0.0833  0.1132
 6794TIP3    H241798   5.778   6.394  10.882  0.7242  0.4024  0.8949
 6795TIP3   OH241799   4.994   3.040  11.539 -0.3021  0.2854  0.4182
 6795TIP3    H141800   4.943   2.959  11.543 -0.7869  0.6031  0.6393
 6795TIP3    H241801   5.079   3.012  11.504 -0.8022 -0.1536 -0.4694
 6796TIP3   OH241802   3.108   3.029  13.311 -0.3417  0.5769 -0.5780
 6796TIP3    H141803   3.165   3.070  13.246 -1.7987  0.2331 -2.1445
 6796TIP3    H241804   3.094   2.941  13.277  0.5720 -0.3787  1.3488
 6797TIP3   OH241805   0.734   2.619  14.577 -0.0694 -0.2770  0.2780
 6797TIP3    H141806   0.651   2.604  14.532  1.0136  1.4547 -2.6304
 6797TIP3    H241807   0.782   2.536  14.567 -1.2474 -1.1646  1.6726
 6798TIP3   OH241808   4.092   3.973  13.077  0.7938  0.1540 -0.3846
 6798TIP3    H141809   4.169   3.947  13.026 -0.3427 -2.5921 -0.8749
 6798TIP3    H241810   4.038   4.021  13.014 -0.3544 -2.7602 -1.8109
 6799TIP3   OH241811   5.311   2.568   5.635  0.5104 -0.2887 -0.6522
 6799TIP3    H141812   5.361   2.490   5.658  1.6450  0.8342  0.9081
 6799TIP3    H241813   5.250   2.580   5.709  1.0469  0.8311 -0.3576
 6800TIP3   OH241814   4.208   2.371  10.961 -0.2120 -0.0039 -0.2448
 6800TIP3    H141815   4.143   2.343  11.026  0.6395 -1.6731 -0.0476
 6800TIP3    H241816   4.251   2.447  11.000  0.2256 -0.9227  1.1446
 6801TIP3   OH241817   6.391   4.021   5.308  0.0377  0.6695  0.0427
 6801TIP3    H141818   6.485   4.024   5.289  0.3443 -0.4637  1.2059
 6801TIP3    H241819   6.372   3.927   5.317 -0.5542  0.9840  2.7637
 6802TIP3   OH241820   4.528   5.832   2.617 -0.0530 -0.4518  0.6467
 6802TIP3    H141821   4.604   5.779   2.642  0.0731 -0.7546 -0.3502
 6802TIP3    H241822   4.540   5.915   2.665  1.6563  0.0435 -0.5512
 6803TIP3   OH241823   0.024   3.901  11.415 -0.4447  0.3512  0.1401
 6803TIP3    H141824   0.095   3.964  11.397 -0.7760  1.0750  1.2822
 6803TIP3    H241825  -0.046   3.927  11.355 -0.4406  0.8523  0.3469
 6804TIP3   OH241826   2.600   5.465   4.515  0.6023 -0.0970 -0.1560
 6804TIP3    H141827   2.619   5.394   4.576  1.3173  0.6162  0.4668
 6804TIP3    H241828   2.549   5.528   4.566 -0.9158 -0.5878 -0.9776
 6805TIP3   OH241829   3.866   5.734   3.456  0.0059 -0.3306  0.0382
 6805TIP3    H141830   3.960   5.743   3.473  0.3955 -2.5168 -0.7123
 6805TIP3    H241831   3.847   5.805   3.394  1.1400  0.1576  0.2170
 6806TIP3   OH241832   6.057   2.022  16.648  0.4616 -0.4736 -0.1388
 6806TIP3    H141833   6.040   1.930  16.629  0.9665 -0.4797 -0.5861
 6806TIP3    H241834   6.148   2.024  16.678 -0.1249 -0.3769  1.7520
 6807TIP3   OH241835   6.174   0.408  14.351  0.3156 -0.8198 -0.2314
 6807TIP3    H141836   6.238   0.410  14.279 -0.4329 -1.1926 -0.9163
 6807TIP3    H241837   6.135   0.496  14.349  0.5161 -0.7246 -0.0670
 6808TIP3   OH241838   5.657   0.060  11.568  0.3280  0.2166  0.1699
 6808TIP3    H141839   5.670   0.135  11.509 -0.8612  0.6027  0.3688
 6808TIP3    H241840   5.671   0.095  11.656 -1.0741  0.4521  0.3295
 6809TIP3   OH241841   5.327   6.362  15.920  0.1343 -0.2663  0.0041
 6809TIP3    H141842   5.285   6.378  15.836  0.2238  0.4894  0.0977
 6809TIP3    H241843   5.374   6.443  15.940 -0.3215 -0.2304  1.0350
 6810TIP3   OH241844   1.220   0.476   4.174 -0.0309  0.1597 -0.5907
 6810TIP3    H141845   1.274   0.414   4.124  1.3337  1.4006 -0.7329
 6810TIP3    H241846   1.248   0.463   4.265  1.1540  1.3596 -0.7514
 6811TIP3   OH241847   2.862   6.439   1.726 -0.4665  0.1707  0.4913
 6811TIP3    H141848   2.848   6.378   1.799 -0.4135  1.0953  1.2958
 6811TIP3    H241849   2.948   6.477   1.744 -0.7603  0.9220  0.3335
 6812TIP3   OH241850   0.037   3.622  12.508 -0.0436 -0.8975 -0.1345
 6812TIP3    H141851   0.131   3.625  12.526 -0.2255 -0.8449  0.8540
 6812TIP3    H241852   0.025   3.538  12.463  0.2453 -1.6789  1.1988
 6813TIP3   OH241853   4.746   4.993   5.201  0.5475 -0.4564 -0.9004
 6813TIP3    H141854   4.802   5.006   5.125  0.4065 -0.8441 -1.0716
 6813TIP3    H241855   4.658   5.010   5.170  0.6947  1.7302 -0.2512
 6814TIP3   OH241856   4.648   2.158  17.461 -0.3129  0.1541 -0.5641
 6814TIP3    H141857   4.739   2.154  17.489 -0.4161  1.3333  0.0121
 6814TIP3    H241858   4.606   2.084  17.504  0.3376 -0.2887 -0.6858
 6815TIP3   OH241859   4.565   2.987   4.235 -0.0910  0.1736  0.1122
 6815TIP3    H141860   4.544   3.007   4.326 -0.0249 -0.0144  0.1678
 6815TIP3    H241861   4.633   3.050   4.211  0.1917 -0.0537  0.3199
 6816TIP3   OH241862   1.046   1.617  14.575  0.0274 -0.5323 -0.7023
 6816TIP3    H141863   0.979   1.560  14.613  1.8554 -1.6443  1.0676
 6816TIP3    H241864   1.070   1.677  14.646 -2.1951  3.0163 -2.6428
 6817TIP3   OH241865   4.242   0.766  17.454  0.0665  0.2046 -0.4957
 6817TIP3    H141866   4.323   0.760  17.505 -0.1772 -0.7499 -0.2097
 6817TIP3    H241867   4.173   0.741  17.515 -0.0672 -2.7179 -1.6997
 6818TIP3   OH241868   5.072   4.373   1.232  0.4189  0.2825  0.0688
 6818TIP3    H141869   5.031   4.460   1.230 -0.4682 -0.1126  0.2645
 6818TIP3    H241870   5.048   4.334   1.147  2.0323  0.7464 -0.6366
 6819TIP3   OH241871   1.042   1.129   5.595 -0.4660 -0.5216  0.7480
 6819TIP3    H141872   0.961   1.178   5.581 -0.2849 -0.0118  1.4132
 6819TIP3    H241873   1.081   1.169   5.674 -0.1137 -1.4674  1.0699
 6820TIP3   OH241874   3.797   1.277   1.090  0.2160  0.3168  0.0456
 6820TIP3    H141875   3.728   1.210   1.089  0.6633 -0.1511 -1.0755
 6820TIP3    H241876   3.811   1.296   1.182 -0.0908 -0.9602  0.3684
 6821TIP3   OH241877   1.510   4.741   4.789 -0.5383 -0.0966  0.2820
 6821TIP3    H141878   1.527   4.832   4.766 -0.0987 -0.5736 -1.4234
 6821TIP3    H241879   1.425   4.722   4.750 -0.1892 -0.6857 -0.2070
 6822TIP3   OH241880   3.150   0.059  11.968  0.1611 -0.1992  0.4607
 6822TIP3    H141881   3.115   0.146  11.988  0.2635  0.7478 -2.8974
 6822TIP3    H241882   3.232   0.077  11.922  0.6884 -2.1574  0.5536
 6823TIP3   OH241883   3.287   3.851   4.092 -0.1515  0.3159  0.4364
 6823TIP3    H141884   3.363   3.897   4.127  0.0988  1.6804 -1.6878
 6823TIP3    H241885   3.302   3.847   3.998 -2.1854 -0.3896  0.0742
 6824TIP3   OH241886   2.591   3.050   5.891  0.1336  0.2025 -0.7447
 6824TIP3    H141887   2.618   3.138   5.867  1.5858  1.1490  3.5280
 6824TIP3    H241888   2.514   3.062   5.947  0.6226 -1.1981  0.2859
 6825TIP3   OH241889   2.750   4.388  14.154  0.0377  0.2830  0.4513
 6825TIP3    H141890   2.757   4.302  14.113  2.5013  0.2197  0.8714
 6825TIP3    H241891   2.713   4.371  14.240 -0.5095 -0.2003  0.1268
 6826TIP3   OH241892   4.779   1.003   4.337 -0.0282 -0.0410 -0.8854
 6826TIP3    H141893   4.741   1.010   4.250 -2.7622 -0.3137  0.1802
 6826TIP3    H241894   4.745   0.921   4.372  1.9325 -0.5242  0.0697
 6827TIP3   OH241895   5.356   4.802  13.784  0.1185 -0.2151  0.6550
 6827TIP3    H141896   5.418   4.843  13.724  0.5845 -1.0917  0.5237
 6827TIP3    H241897   5.407   4.782  13.862 -0.0421 -0.7205  0.6391
 6828TIP3   OH241898   2.366   5.998  12.810  0.2962 -0.1224 -0.8450
 6828TIP3    H141899   2.296   5.957  12.760  0.2644 -0.3315 -0.6352
 6828TIP3    H241900   2.385   6.079  12.764  1.0798 -0.8725 -1.8740
 6829TIP3   OH241901   3.372   0.392   5.673 -0.3101 -0.2244 -0.0671
 6829TIP3    H141902   3.353   0.347   5.755 -2.2894  1.2870  0.3607
 6829TIP3    H241903   3.374   0.485   5.695 -2.1104  0.3299 -1.8924
 6830TIP3   OH241904   1.068   5.558   4.024 -0.3354  0.7819 -0.7634
 6830TIP3    H141905   0.978   5.529   4.010  0.6025 -3.2303  0.2675
 6830TIP3    H241906   1.112   5.542   3.941  0.0679 -0.2226 -0.3637
 6831TIP3   OH241907   1.919   1.904   3.484 -0.4155 -0.3255  0.4241
 6831TIP3    H141908   1.858   1.888   3.413  0.6862 -2.1237 -0.1791
 6831TIP3    H241909   1.904   1.833   3.546  1.3780 -1.1341  0.0036
 6832TIP3   OH241910   2.219   4.112   3.757  0.5200 -0.4553 -0.0006
 6832TIP3    H141911   2.163   4.038   3.735  1.1052 -1.1266  0.7072
 6832TIP3    H241912   2.236   4.155   3.673 -1.3877  0.0419 -0.1812
 6833TIP3   OH241913   1.319   2.309   3.264 -0.2219 -0.1043  0.4139
 6833TIP3    H141914   1.241   2.359   3.240  0.8794  0.2009 -3.0682
 6833TIP3    H241915   1.391   2.372   3.259  0.6847 -1.1450 -0.0731
 6834TIP3   OH241916   2.022   0.844   1.038 -0.1244  0.1941 -0.2545
 6834TIP3    H141917   2.116   0.840   1.025 -0.1477 -0.7121 -0.2347
 6834TIP3    H241918   1.992   0.754   1.025 -0.8938  0.3365  0.4409
 6835TIP3   OH241919   1.209   5.236  16.571  0.2026  0.0470 -0.0549
 6835TIP3    H141920   1.119   5.270  16.566  1.4450  3.6671 -0.6042
 6835TIP3    H241921   1.253   5.274  16.495  1.9465 -2.7045 -0.5279
 6836TIP3   OH241922   3.962   3.685  11.806 -0.5467 -0.1717 -0.4420
 6836TIP3    H141923   3.952   3.737  11.886 -0.7150 -2.6419  1.2631
 6836TIP3    H241924   3.904   3.727  11.742 -0.4021  1.8830  0.6943
 6837TIP3   OH241925   1.939   2.123   5.945  0.4885 -0.2504 -0.3132
 6837TIP3    H141926   1.966   2.049   5.890 -3.2311 -1.6245 -0.5473
 6837TIP3    H241927   1.868   2.164   5.897  0.7478  1.9590  1.0326
 6838TIP3   OH241928   3.132   5.801   0.446 -0.0435  0.2770 -0.5782
 6838TIP3    H141929   3.119   5.743   0.520  1.6799 -1.7304 -1.7141
 6838TIP3    H241930   3.044   5.824   0.416 -0.7516  0.1335  1.2772
 6839TIP3   OH241931   6.329   6.202   1.608  0.0539 -0.4759  0.1397
 6839TIP3    H141932   6.338   6.128   1.668 -0.2556 -2.1545 -1.7699
 6839TIP3    H241933   6.291   6.272   1.661  0.1619 -1.7501  1.9688
 6840TIP3   OH241934   5.511   3.432  11.946 -0.2441 -0.0327  0.4688
 6840TIP3    H141935   5.446   3.491  11.907  0.8906  0.6336 -0.5249
 6840TIP3    H241936   5.583   3.490  11.971  0.8207 -0.9638 -0.3395
 6841TIP3   OH241937   6.246   3.141  14.923  0.2420 -0.0588 -0.2086
 6841TIP3    H141938   6.323   3.128  14.978 -0.7041 -1.0101  0.9869
 6841TIP3    H241939   6.203   3.219  14.959 -0.3073 -0.6051  0.3610
 6842TIP3   OH241940   5.520   0.596  12.452  0.0818 -0.3652  0.5435
 6842TIP3    H141941   5.445   0.654  12.466  1.2869  1.8299 -1.3207
 6842TIP3    H241942   5.596   0.649  12.476  1.2058 -1.4691 -0.4136
 6843TIP3   OH241943   0.061   6.237   1.473  0.0382  0.3568 -0.1026
 6843TIP3    H141944  -0.034   6.242   1.482 -0.3988 -0.9398 -2.8951
 6843TIP3    H241945   0.085   6.319   1.430 -0.0928 -0.0169 -0.9130
 6844TIP3   OH241946   5.469   6.684   6.234 -0.3937 -0.2619 -0.1777
 6844TIP3    H141947   5.389   6.725   6.267  0.2871 -0.7448  2.2826
 6844TIP3    H241948   5.527   6.679   6.310  0.9140 -2.5059 -1.2199
 6845TIP3   OH241949   5.277   5.127   4.413  0.2160  0.5997  0.5014
 6845TIP3    H141950   5.188   5.143   4.382 -0.4274 -1.9548  0.8426
 6845TIP3    H241951   5.326   5.105   4.334  0.1901  0.5280  0.5057
 6846TIP3   OH241952   3.473   6.385   1.320  0.4665 -0.0517  0.9173
 6846TIP3    H141953   3.523   6.313   1.357 -0.0862  0.1480  2.1016
 6846TIP3    H241954   3.536   6.434   1.268  0.6557 -1.8542 -0.6348
 6847TIP3   OH241955   6.308   6.142   3.964 -0.1347  0.5810 -0.2012
 6847TIP3    H141956   6.336   6.064   3.915 -0.2829  1.6827 -2.1053
 6847TIP3    H241957   6.243   6.184   3.909  1.8631  3.5208 -0.5443
 6848TIP3   OH241958   5.715   3.618  11.989 -0.7855  0.3353 -0.0078
 6848TIP3    H141959   5.807   3.593  11.984 -1.1783 -1.2918  0.1966
 6848TIP3    H241960   5.715   3.713  11.985  0.7618  0.2942 -1.9921
 6849TIP3   OH241961   4.956   3.088  15.373  0.0253 -0.5365 -0.3399
 6849TIP3    H141962   4.990   3.104  15.461 -0.0863  0.0146 -0.3919
 6849TIP3    H241963   4.914   3.002  15.378  0.4632 -0.7344  0.0097
 6850TIP3   OH241964   2.700   0.040   4.596  0.2924  0.0208 -0.5500
 6850TIP3    H141965   2.697  -0.049   4.630  0.1763  0.4672  0.6413
 6850TIP3    H241966   2.787   0.049   4.557  1.5262  0.3566  2.1036
 6851TIP3   OH241967   1.360   4.744  16.354 -0.5138  0.1808 -0.5107
 6851TIP3    H141968   1.269   4.728  16.331  0.1476 -3.7935 -1.1351
 6851TIP3    H241969   1.364   4.735  16.449 -0.8843  1.5314 -0.3445
 6852TIP3   OH241970   1.361   4.639  14.896 -0.1820  0.6439 -0.2084
 6852TIP3    H141971   1.419   4.592  14.956  0.4705 -0.0908 -1.3719
 6852TIP3    H241972   1.414   4.714  14.867  0.2372 -0.0650 -1.3239
 6853TIP3   OH241973   0.948   5.641  15.544  0.5000 -0.1322  0.7146
 6853TIP3    H141974   0.945   5.598  15.459 -0.7435 -1.6241  1.4622
 6853TIP3    H241975   0.864   5.687  15.551  0.3838 -0.4167  1.3012
 6854TIP3   OH241976   0.910   6.534  16.651 -0.3164  0.1240  0.0391
 6854TIP3    H141977   0.966   6.505  16.723  2.1366  0.3874 -1.6300
 6854TIP3    H241978   0.901   6.457  16.595 -0.3720  0.4818 -0.4501
 6855TIP3   OH241979   4.827   1.817   5.153  0.3921 -0.1393  0.4930
 6855TIP3    H141980   4.746   1.854   5.120  1.1099  0.2835 -0.8394
 6855TIP3    H241981   4.807   1.724   5.164 -0.1437 -0.1173 -0.2256
 6856TIP3   OH241982   1.673   2.997  13.848  0.0841 -0.0696 -0.0672
 6856TIP3    H141983   1.686   3.074  13.904  1.7755 -1.0935  1.0393
 6856TIP3    H241984   1.736   2.932  13.881  0.0795 -1.2576 -2.2183
 6857TIP3   OH241985   4.347   5.672  16.229 -0.3894 -1.2536  0.1743
 6857TIP3    H141986   4.339   5.621  16.148 -0.1118 -0.9381 -0.0543
 6857TIP3    H241987   4.329   5.762  16.202  0.2475 -1.0711  0.3601
 6858TIP3   OH241988   4.867   5.326  12.370  0.1701  0.1913  0.3150
 6858TIP3    H141989   4.789   5.356  12.322 -1.0201 -1.7198  0.9345
 6858TIP3    H241990   4.832   5.274  12.442  2.0309 -2.6275 -0.6690
 6859TIP3   OH241991   2.476   1.051  12.711 -0.1789  0.1162 -0.8550
 6859TIP3    H141992   2.522   1.098  12.640 -0.7318 -1.2339 -2.1485
 6859TIP3    H241993   2.529   0.973  12.725 -0.4146  0.0755 -0.1784
 6860TIP3   OH241994   5.543   2.896  12.141 -0.0528  0.3841 -0.5292
 6860TIP3    H141995   5.562   2.956  12.069  1.5776  0.4400 -0.0928
 6860TIP3    H241996   5.567   2.946  12.220 -0.8802 -0.0222 -0.0144
 6861TIP3   OH241997   0.036   2.417   1.944 -0.2269  0.6532 -0.1827
 6861TIP3    H141998   0.067   2.333   1.910 -0.6295  1.0788 -1.6720
 6861TIP3    H241999   0.052   2.412   2.038  2.7702  0.1691 -0.6015
 6862TIP3   OH242000   1.957   2.618  16.498 -0.2007  0.1338  0.5013
 6862TIP3    H142001   1.928   2.528  16.514 -0.1508  0.1851  0.9147
 6862TIP3    H242002   1.881   2.663  16.461  0.5938 -0.8022 -2.5438
 6863TIP3   OH242003   2.514   0.705  11.646  0.2236  0.0181  0.0959
 6863TIP3    H142004   2.566   0.768  11.595  0.7574 -1.8283 -1.7695
 6863TIP3    H242005   2.575   0.635  11.668 -0.4472 -0.0891  1.8044
 6864TIP3   OH242006   5.359   1.446  14.754 -0.5429 -0.0720  0.5073
 6864TIP3    H142007   5.366   1.472  14.846  1.8690  0.0662  0.3570
 6864TIP3    H242008   5.391   1.522  14.706 -0.8287 -0.5152 -0.4005
 6865TIP3   OH242009   1.040   1.755  12.613  0.6659  0.3725  0.3005
 6865TIP3    H142010   1.092   1.835  12.602 -0.6178  1.2437  0.4113
 6865TIP3    H242011   0.992   1.768  12.694  3.2554 -2.1614  2.4785
 6866TIP3   OH242012   3.543   5.083   5.900  0.8319 -0.1680  0.2690
 6866TIP3    H142013   3.455   5.049   5.912  0.6492  0.4988  0.9702
 6866TIP3    H242014   3.531   5.169   5.859  1.1951 -0.3370 -0.2046
 6867TIP3   OH242015   2.478   0.426   0.815  0.2008 -0.3532  0.4029
 6867TIP3    H142016   2.494   0.331   0.810  0.3024 -0.3077 -0.3944
 6867TIP3    H242017   2.417   0.443   0.743  0.4702  0.2394  0.3090
 6868TIP3   OH242018   4.250   1.583  14.733  0.3074  0.4959 -0.0431
 6868TIP3    H142019   4.338   1.581  14.769  0.9440  0.2513 -1.5492
 6868TIP3    H242020   4.247   1.664  14.681 -1.1981  1.8264  1.9573
 6869TIP3   OH242021   2.965   1.860  16.293  0.1630 -0.3382 -0.2732
 6869TIP3    H142022   2.895   1.842  16.231  0.2003 -1.0746 -0.1125
 6869TIP3    H242023   2.989   1.774  16.328 -1.1422  0.1819  2.1708
 6870TIP3   OH242024   6.370   5.269   0.144  0.6313 -0.4978 -0.5522
 6870TIP3    H142025   6.414   5.333   0.200  0.1176  0.3136 -1.0614
 6870TIP3    H242026   6.429   5.193   0.143  0.2383 -0.9359  1.8607
 6871TIP3   OH242027   6.150   0.713   0.982 -0.4265 -0.2713  0.5486
 6871TIP3    H142028   6.142   0.720   0.887  1.1517 -2.1677  0.1999
 6871TIP3    H242029   6.206   0.786   1.007 -1.6454  0.8195  0.1888
 6872TIP3   OH242030   6.081   4.619  12.037 -0.0641 -0.1044 -0.1762
 6872TIP3    H142031   6.111   4.629  11.947 -0.5938  0.4783 -0.2981
 6872TIP3    H242032   5.989   4.646  12.034 -0.9307 -2.7690 -0.0255
 6873TIP3   OH242033   0.235   3.705   3.777  0.3787  0.3489 -0.2359
 6873TIP3    H142034   0.199   3.673   3.859 -0.3525 -0.5787 -0.8995
 6873TIP3    H242035   0.187   3.786   3.760 -0.4699 -0.1927 -0.4491
 6874TIP3   OH242036   4.910   0.974  15.272  0.1977  0.3728  0.0011
 6874TIP3    H142037   4.982   1.037  15.268  1.4116 -1.0117 -3.0201
 6874TIP3    H242038   4.869   0.979  15.186 -1.6532 -0.7981  0.7556
 6875TIP3   OH242039   0.601   6.018   1.778  0.9937 -0.5365 -0.2931
 6875TIP3    H142040   0.596   5.987   1.868  0.4519 -0.5307 -0.3172
 6875TIP3    H242041   0.526   6.076   1.768  0.3286 -1.4968 -1.1107
 6876TIP3   OH242042   0.192   3.090  15.470 -0.7083  0.0776  0.0312
 6876TIP3    H142043   0.101   3.075  15.492 -0.1503  0.0218  2.5778
 6876TIP3    H242044   0.220   3.010  15.425 -1.7356 -0.1416 -0.2343
 6877TIP3   OH242045   3.678   5.185   1.501 -0.4274  0.2856 -0.2808
 6877TIP3    H142046   3.740   5.178   1.428  0.4714 -0.6271  0.5317
 6877TIP3    H242047   3.697   5.270   1.540  1.2557 -0.5003  0.7323
 6878TIP3   OH242048   3.904   2.294  17.296  0.2321  0.3594  0.6899
 6878TIP3    H142049   3.922   2.346  17.375  1.2201  1.4269 -0.1822
 6878TIP3    H242050   3.945   2.345  17.225  0.7617 -1.3633 -0.2907
 6879TIP3   OH242051   4.248   5.626  12.857  0.1946 -0.5188 -0.0437
 6879TIP3    H142052   4.254   5.715  12.822  3.3720  0.4751  2.4688
 6879TIP3    H242053   4.327   5.582  12.824 -0.6307 -1.9923 -0.1506
 6880TIP3   OH242054   1.626   2.517  16.168 -0.1113  0.2636  0.3063
 6880TIP3    H142055   1.695   2.581  16.185  2.2089 -2.0351  0.0539
 6880TIP3    H242056   1.558   2.568  16.122  2.0052  2.3573 -0.7334
 6881TIP3   OH242057   1.000   2.695   0.444 -0.5142 -0.3354 -0.0454
 6881TIP3    H142058   1.080   2.698   0.498  0.7116  0.1454 -1.8074
 6881TIP3    H242059   1.016   2.624   0.382 -1.0730  0.3157 -0.9535
 6882TIP3   OH242060   5.884   0.337  17.249 -0.1536  0.2072 -0.1219
 6882TIP3    H142061   5.815   0.399  17.226  0.6705  1.1335 -0.1642
 6882TIP3    H242062   5.838   0.261  17.284 -1.2137  0.5903 -0.6575
 6883TIP3   OH242063   6.014   1.953  11.308  0.2171 -0.7916  0.1884
 6883TIP3    H142064   6.054   1.912  11.385  0.4200 -1.3748 -0.2190
 6883TIP3    H242065   6.087   1.985  11.256  0.2326 -2.3893 -0.8534
 6884TIP3   OH242066   5.006   3.581   5.751 -0.2302  0.0693 -0.6017
 6884TIP3    H142067   4.985   3.651   5.689 -0.2951  0.8074  0.2433
 6884TIP3    H242068   5.083   3.538   5.713  1.0815  1.9098 -0.1245
 6885TIP3   OH242069   0.311   3.024   0.526 -0.0424 -0.1955  0.3168
 6885TIP3    H142070   0.293   3.085   0.454 -0.3010 -0.8771 -0.2117
 6885TIP3    H242071   0.266   2.943   0.500 -0.9908 -0.1488  1.7305
 6886TIP3   OH242072   1.079   2.210  11.820 -0.0689  0.0964 -0.3000
 6886TIP3    H142073   1.041   2.274  11.760 -3.0699 -0.6990  0.5508
 6886TIP3    H242074   1.051   2.125  11.786  0.1408 -0.5008  0.9271
 6887TIP3   OH242075   3.070   6.479  13.458  0.1195 -0.1847 -0.5913
 6887TIP3    H142076   3.012   6.553  13.444  0.6104  0.5235  0.9320
 6887TIP3    H242077   3.152   6.517  13.489  0.5833 -1.3218 -0.3444
 6888TIP3   OH242078   3.604   3.741  14.875  0.1929 -0.9366  0.2893
 6888TIP3    H142079   3.542   3.747  14.947  0.6623 -1.1160  0.7153
 6888TIP3    H242080   3.590   3.821  14.825  0.4362 -0.3972  1.0578
 6889TIP3   OH242081   3.190   3.231   5.471 -0.3878  0.1840  0.4900
 6889TIP3    H142082   3.129   3.213   5.543  0.3913  0.5806  1.2621
 6889TIP3    H242083   3.263   3.171   5.485 -0.6113 -0.3492 -0.4820
 6890TIP3   OH242084   4.110   4.361  15.608 -0.2625  0.2113 -0.1354
 6890TIP3    H142085   4.104   4.444  15.561 -4.0283 -1.3134 -2.7691
 6890TIP3    H242086   4.166   4.306  15.553 -0.0765  0.1145  0.1463
 6891TIP3   OH242087   1.977   2.814  14.151  0.4280  0.3726  0.4177
 6891TIP3    H142088   1.908   2.840  14.212  0.6749  1.3753  0.2788
 6891TIP3    H242089   2.013   2.733  14.188  1.5050  1.6821  2.3546
 6892TIP3   OH242090   3.264   6.511  14.419 -0.2853 -0.5720  0.2318
 6892TIP3    H142091   3.185   6.467  14.388 -1.5214 -0.6929  3.1777
 6892TIP3    H242092   3.335   6.451  14.400 -1.0927 -1.0975 -1.2354
 6893TIP3   OH242093   5.642   3.175  12.574 -0.4368  0.3010  0.3464
 6893TIP3    H142094   5.623   3.262  12.539 -0.0368  0.6710  1.0497
 6893TIP3    H242095   5.733   3.179  12.602  0.8081 -1.4263 -2.9016
 6894TIP3   OH242096   5.715   3.962   1.119  0.1183 -0.1707  0.2686
 6894TIP3    H142097   5.670   4.042   1.091  0.0963  0.2149  1.3301
 6894TIP3    H242098   5.650   3.893   1.107 -0.1943  0.1241  0.2378
 6895TIP3   OH242099   1.165   1.387   2.698 -0.0498 -0.4098  0.0386
 6895TIP3    H142100   1.191   1.392   2.606  0.4786  0.0533  0.2088
 6895TIP3    H242101   1.190   1.299   2.726 -0.3246 -0.5955 -0.2882
 6896TIP3   OH242102   3.147   4.232   0.517 -0.4852 -0.3181  0.0996
 6896TIP3    H142103   3.072   4.223   0.575  0.3696  1.3559  1.5954
 6896TIP3    H242104   3.116   4.288   0.446 -1.8896 -3.3569 -1.8603
 6897TIP3   OH242105   5.447   4.077   2.949 -0.6311 -0.2380 -0.2226
 6897TIP3    H142106   5.382   4.044   2.887 -0.7445  1.0488 -0.8323
 6897TIP3    H242107   5.524   4.097   2.895 -0.9587  1.5429 -0.1142
 6898TIP3   OH242108   4.732   2.067   2.574  0.1457 -0.0108 -0.0560
 6898TIP3    H142109   4.764   2.153   2.547 -2.6975  1.9473  2.2489
 6898TIP3    H242110   4.726   2.017   2.493 -0.4858  2.8203 -1.8924
 6899TIP3   OH242111   5.634   6.156   0.446  0.3551  0.8217  0.2516
 6899TIP3    H142112   5.635   6.197   0.533  3.6684  1.4988 -0.0057
 6899TIP3    H242113   5.639   6.229   0.385 -1.6721  0.3334 -0.5816
 6900TIP3   OH242114   6.280   2.971   5.400  0.1915 -0.3182 -0.3494
 6900TIP3    H142115   6.240   2.921   5.471 -0.8130  1.6264  0.5462
 6900TIP3    H242116   6.207   2.994   5.342  0.6482 -0.0251 -0.8227
 6901TIP3   OH242117   4.944   3.957   0.387  0.5632  0.1089  0.1668
 6901TIP3    H142118   4.961   3.942   0.480 -0.9436 -1.5877  0.2275
 6901TIP3    H242119   4.931   4.051   0.380  0.5607  0.2560  1.7130
 6902TIP3   OH242120   5.301   3.574  16.403 -0.7694  0.2617 -0.2846
 6902TIP3    H142121   5.316   3.641  16.470  0.3671  0.1393 -0.4008
 6902TIP3    H242122   5.278   3.496  16.452  2.4102 -0.5115  0.2179
 6903TIP3   OH242123   2.397   6.456  15.390  0.4714  0.5265  0.2861
 6903TIP3    H142124   2.406   6.456  15.486  0.4946 -1.4664  0.3185
 6903TIP3    H242125   2.365   6.369  15.369 -0.9339  1.3941 -1.4304
 6904TIP3   OH242126   3.166   5.748  14.425 -0.4082 -0.4159 -0.7336
 6904TIP3    H142127   3.143   5.672  14.370 -0.6432 -0.5309 -0.4771
 6904TIP3    H242128   3.135   5.823  14.375 -1.5536 -0.5810 -0.2939
 6905TIP3   OH242129   1.344   4.832   6.745 -0.4449 -0.3055 -0.5557
 6905TIP3    H142130   1.370   4.750   6.786 -0.8781 -1.5724 -2.6842
 6905TIP3    H242131   1.361   4.898   6.812  1.9061 -1.8380  0.5087
 6906TIP3   OH242132   0.043   5.439  17.408  0.2099  0.3583 -0.6565
 6906TIP3    H142133   0.004   5.394  17.483 -0.0306  2.0953  0.3067
 6906TIP3    H242134  -0.006   5.408  17.332 -1.9277  1.1794  0.3240
 6907TIP3   OH242135   5.771   2.859   1.930 -0.1490  0.1149  0.0490
 6907TIP3    H142136   5.686   2.838   1.891 -0.2076 -0.0974  0.2806
 6907TIP3    H242137   5.827   2.881   1.856 -0.7245  1.4325 -0.0278
 6908TIP3   OH242138   6.180   1.514  11.976  0.5847 -0.0478 -0.5884
 6908TIP3    H142139   6.121   1.580  12.012  0.4572 -0.5732  0.1878
 6908TIP3    H242140   6.156   1.508  11.884  1.7680  2.2567 -1.1426
 6909TIP3   OH242141   0.188   1.238  15.643  0.4188 -0.6771  0.1365
 6909TIP3    H142142   0.115   1.189  15.607  0.6603 -1.6085  0.8650
 6909TIP3    H242143   0.242   1.172  15.687  0.6216  0.2604  1.3719
 6910TIP3   OH242144   1.313   6.228   2.411  0.4883  0.0552  0.9852
 6910TIP3    H142145   1.386   6.285   2.437  0.8302 -0.0026  0.1843
 6910TIP3    H242146   1.315   6.156   2.474  0.4581  0.5966  1.6125
 6911TIP3   OH242147   4.358   6.260   6.092 -0.7954  0.0403 -0.3701
 6911TIP3    H142148   4.275   6.233   6.131 -0.9376 -1.1461 -1.4284
 6911TIP3    H242149   4.372   6.349   6.124 -2.6748  0.4153 -0.4735
 6912TIP3   OH242150   4.348   0.098  12.856  0.6138 -0.4423  0.2371
 6912TIP3    H142151   4.416   0.165  12.863  0.0790 -0.0265  1.9487
 6912TIP3    H242152   4.329   0.072  12.946 -1.9583 -0.0314 -0.0866
 6913TIP3   OH242153   2.012   5.234   5.615  0.2392  0.2909  0.0842
 6913TIP3    H142154   2.084   5.171   5.602  0.8267  1.3252 -2.0705
 6913TIP3    H242155   2.055   5.310   5.656  0.0377  0.2969  0.2857
 6914TIP3   OH242156   5.612   2.626   4.127  0.7284 -0.3345  0.5279
 6914TIP3    H142157   5.656   2.560   4.073 -0.0683  0.1922 -0.8213
 6914TIP3    H242158   5.652   2.617   4.214  1.8407 -1.4159 -0.0640
 6915TIP3   OH242159   6.549   2.953   5.304  0.1874 -0.2403  0.2838
 6915TIP3    H142160   6.469   2.964   5.356  0.1354 -1.0956  0.4045
 6915TIP3    H242161   6.577   3.042   5.283 -0.6592  0.0752  0.4554
 6916TIP3   OH242162   1.517   0.264  16.026  0.3438 -0.1461  0.4467
 6916TIP3    H142163   1.556   0.313  16.099  0.6303 -0.2908  0.3902
 6916TIP3    H242164   1.434   0.308  16.010  1.3400  1.4248 -0.7503
 6917TIP3   OH242165   0.068   5.184   3.255  0.0291  0.4918 -0.5288
 6917TIP3    H142166  -0.015   5.184   3.207 -0.5315  1.4500  0.3831
 6917TIP3    H242167   0.042   5.173   3.347  0.9752  0.0106 -0.3077
 6918TIP3   OH242168   5.546   6.107   2.437 -0.0388  0.5988  0.8402
 6918TIP3    H142169   5.599   6.168   2.488  2.2556 -0.9879  0.5144
 6918TIP3    H242170   5.577   6.116   2.347 -1.5761  0.8582  0.3048
 6919TIP3   OH242171   2.652   3.715   4.578 -0.2951  0.6885  0.3220
 6919TIP3    H142172   2.621   3.700   4.489  0.4173  0.6051  0.0818
 6919TIP3    H242173   2.680   3.807   4.579 -1.6079  1.1062  0.8662
 6920TIP3   OH242174   5.675   5.531  13.520 -0.5779  0.3492  0.0084
 6920TIP3    H142175   5.643   5.584  13.447 -0.6027  0.0431 -0.2017
 6920TIP3    H242176   5.762   5.503  13.493  0.0458  1.4865  0.7294
 6921TIP3   OH242177   5.791   2.271  14.703 -0.1536  0.1252  0.6217
 6921TIP3    H142178   5.737   2.213  14.649 -0.8715  1.5999 -0.3006
 6921TIP3    H242179   5.874   2.278  14.655 -0.6605  1.1425 -0.1475
 6922TIP3   OH242180   2.785   5.834   6.152 -0.0163 -0.3387 -0.1208
 6922TIP3    H142181   2.779   5.824   6.057 -0.8037 -1.1204 -0.0017
 6922TIP3    H242182   2.770   5.927   6.168 -3.1854 -0.6705 -0.5657
 6923TIP3   OH242183   2.722   3.602  14.665  0.3460 -0.9235 -0.3349
 6923TIP3    H142184   2.786   3.587  14.595 -0.8815  0.2840 -1.7789
 6923TIP3    H242185   2.642   3.561  14.634 -0.4218  0.2766 -0.0010
 6924TIP3   OH242186   6.520   0.751   1.877  0.0916 -0.5793 -0.2027
 6924TIP3    H142187   6.486   0.665   1.902 -2.7959  0.7879  1.0749
 6924TIP3    H242188   6.527   0.747   1.781  0.4855 -2.3493 -0.1409
 6925TIP3   OH242189   4.627   3.758  12.381  0.4044 -0.3060  0.0159
 6925TIP3    H142190   4.675   3.677  12.397  1.1374  0.7000  3.7902
 6925TIP3    H242191   4.695   3.824  12.371 -0.0929 -0.1410 -4.8953
 6926TIP3   OH242192   5.829   1.294   3.855 -0.5768 -0.3132 -0.1451
 6926TIP3    H142193   5.758   1.355   3.835  0.2730  0.1797 -1.8697
 6926TIP3    H242194   5.863   1.322   3.939 -1.9358 -0.1037  0.3599
 6927TIP3   OH242195   1.726   0.256   0.291 -0.3259 -0.2789  0.8274
 6927TIP3    H142196   1.814   0.219   0.296 -0.5491 -0.8774  0.4397
 6927TIP3    H242197   1.741   0.348   0.269  0.2511  0.0356  2.4420
 6928TIP3   OH242198   0.019   6.515   4.345 -0.2976  0.1313 -0.3740
 6928TIP3    H142199   0.063   6.576   4.285  0.5492 -0.9397 -0.8864
 6928TIP3    H242200   0.065   6.527   4.428 -1.2164  1.3378 -0.0068
 6929TIP3   OH242201   6.655   1.866   2.959 -0.5616  0.4031  0.0976
 6929TIP3    H142202   6.614   1.951   2.941 -0.2451  0.9721  1.9097
 6929TIP3    H242203   6.749   1.886   2.963 -0.5303  0.0849  1.0759
 6930TIP3   OH242204   6.592   1.273   5.482  0.3018 -0.2322 -0.2871
 6930TIP3    H142205   6.588   1.313   5.396  0.0709 -0.7325 -0.5161
 6930TIP3    H242206   6.605   1.180   5.464 -0.3686 -0.4305  0.1980
 6931TIP3   OH242207   4.000   5.238   4.566 -0.2215 -0.4996 -0.2518
 6931TIP3    H142208   4.094   5.255   4.568 -0.2001 -0.1614 -1.9307
 6931TIP3    H242209   3.970   5.282   4.485 -1.9551  0.0969  0.6558
 6932TIP3   OH242210   2.378   0.934  13.638  0.0669  1.1469  0.5752
 6932TIP3    H142211   2.344   0.981  13.714 -2.6812  0.3716 -0.0558
 6932TIP3    H242212   2.348   0.985  13.562  3.0895  2.1318 -0.0965
 6933TIP3   OH242213   5.920   1.200  15.535 -0.4810 -0.0713  0.0302
 6933TIP3    H142214   5.880   1.199  15.448 -2.4022 -0.1746  0.8635
 6933TIP3    H242215   5.891   1.118  15.575  2.0834 -1.0400  0.0927
 6934TIP3   OH242216   5.678   0.501   1.492 -1.0225  0.0060 -0.4123
 6934TIP3    H142217   5.660   0.545   1.409 -1.1217  0.0224 -0.3821
 6934TIP3    H242218   5.663   0.569   1.558 -3.4824 -0.6706 -0.1745
 6935TIP3   OH242219   5.759   1.700   2.513 -0.1334 -0.3640 -0.3714
 6935TIP3    H142220   5.817   1.624   2.516  1.1472  0.5919  1.3108
 6935TIP3    H242221   5.815   1.773   2.540 -1.3607  1.1732 -1.7648
 6936TIP3   OH242222   5.483   3.079  17.196 -0.0842 -0.0058  1.0696
 6936TIP3    H142223   5.430   3.149  17.236  0.5607 -0.5421  2.9784
 6936TIP3    H242224   5.425   3.003  17.196  0.3728 -0.3888  2.4359
 6937TIP3   OH242225   2.270   2.535   0.657  0.4115 -0.1354 -0.2863
 6937TIP3    H142226   2.296   2.443   0.653  0.6192 -0.0748 -0.3633
 6937TIP3    H242227   2.210   2.546   0.583 -0.6190 -0.5158  0.4751
 6938TIP3   OH242228   3.286   4.216  14.616  0.1513 -0.1457 -0.0408
 6938TIP3    H142229   3.199   4.237  14.583  0.2885  0.4935 -0.0110
 6938TIP3    H242230   3.272   4.193  14.708  0.1149  0.8139  0.2048
 6939TIP3   OH242231   6.463   1.660   4.808  0.3062  0.1437 -0.4627
 6939TIP3    H142232   6.517   1.588   4.775  0.5102 -0.5048  1.1891
 6939TIP3    H242233   6.517   1.703   4.875 -0.4266  0.8198 -0.2816
 6940TIP3   OH242234   0.295   6.739   0.745  0.0677 -0.0376  0.5801
 6940TIP3    H142235   0.253   6.777   0.667  0.7498  0.9341  0.6752
 6940TIP3    H242236   0.374   6.791   0.758  1.3849 -1.8873  0.3655
 6941TIP3   OH242237   1.609   1.110  13.443  0.5972 -0.2448 -0.0265
 6941TIP3    H142238   1.636   1.169  13.372 -1.1732  1.6410  0.7949
 6941TIP3    H242239   1.603   1.166  13.520 -1.8697 -1.2969  0.6307
 6942TIP3   OH242240   1.598   2.726  14.105  0.0524  0.7049 -0.0282
 6942TIP3    H142241   1.686   2.709  14.069  0.1842  2.0057 -0.3738
 6942TIP3    H242242   1.584   2.655  14.167  1.2339  0.3075 -0.1754
 6943TIP3   OH242243   6.463   1.265   2.862 -0.5540  0.1006  0.3433
 6943TIP3    H142244   6.445   1.215   2.782 -1.4439  0.7316  0.1381
 6943TIP3    H242245   6.476   1.355   2.831  1.2552 -0.0142  0.6806
 6944TIP3   OH242246   3.984   6.478  12.286 -0.3871 -0.0020 -0.2130
 6944TIP3    H142247   3.952   6.426  12.360  0.0915 -1.3497 -0.9250
 6944TIP3    H242248   3.975   6.569  12.315 -1.8094 -0.4460  0.8346
 6945TIP3   OH242249   4.071   6.264  14.919  0.3029  0.2306  0.4793
 6945TIP3    H142250   3.997   6.238  14.973 -1.0694  2.2713 -0.2799
 6945TIP3    H242251   4.140   6.286  14.982  0.2593 -1.5362  1.1997
 6946TIP3   OH242252   4.646   2.541  10.556  0.0950 -0.0786  0.1684
 6946TIP3    H142253   4.593   2.621  10.553  0.9014  0.4343 -2.3442
 6946TIP3    H242254   4.582   2.470  10.553 -0.5596  0.5032  0.0466
 6947TIP3   OH242255   1.441   3.601  16.325  0.0327  0.2456  0.2981
 6947TIP3    H142256   1.405   3.671  16.380  0.2307  0.0295  0.7100
 6947TIP3    H242257   1.420   3.628  16.235  2.2128  2.0670  0.2601
 6948TIP3   OH242258   4.673   5.209   1.198  0.0570 -0.0727  0.2381
 6948TIP3    H142259   4.738   5.147   1.231 -0.3298  0.1782  1.5220
 6948TIP3    H242260   4.692   5.290   1.244 -2.5841 -0.6028  2.4715
 6949TIP3   OH242261   6.072   4.091   0.754  0.2112 -0.9178 -0.0625
 6949TIP3    H142262   6.020   4.157   0.708  1.6898 -0.0414 -0.5059
 6949TIP3    H242263   6.040   4.007   0.719 -0.8181 -0.4082 -0.3951
 6950TIP3   OH242264   4.742   2.069  17.012 -0.1279  0.0449 -0.2702
 6950TIP3    H142265   4.689   2.005  17.058 -0.7406 -1.1094 -2.4395
 6950TIP3    H242266   4.818   2.019  16.980 -0.6290  0.3099 -2.0181
 6951TIP3   OH242267   4.892   1.620  16.199 -0.0754  0.0610  0.5758
 6951TIP3    H142268   4.824   1.553  16.186 -0.2526  0.5668 -1.5226
 6951TIP3    H242269   4.888   1.673  16.119  0.6204  2.0803  1.8119
 6952TIP3   OH242270   5.368   3.931   2.530 -0.3552 -0.4498 -0.1065
 6952TIP3    H142271   5.369   3.836   2.532  0.3161 -0.4349  0.6789
 6952TIP3    H242272   5.426   3.954   2.457  0.7935 -0.6344  0.7237
 6953TIP3   OH242273   0.301   1.882  12.762 -0.2410 -0.5985 -0.0542
 6953TIP3    H142274   0.236   1.816  12.789 -1.0116  0.5178  0.9159
 6953TIP3    H242275   0.254   1.938  12.700  0.2511 -0.6585 -0.4819
 6954TIP3   OH242276   4.607   1.814   1.847  0.2074  0.4223 -0.2613
 6954TIP3    H142277   4.650   1.822   1.762 -0.7336 -0.2993 -0.8235
 6954TIP3    H242278   4.671   1.848   1.910  3.0544 -3.4584 -0.6454
 6955TIP3   OH242279   0.219   5.347   0.710 -0.3371 -0.1838  0.3354
 6955TIP3    H142280   0.176   5.343   0.625 -1.5297 -0.1657  0.9057
 6955TIP3    H242281   0.285   5.416   0.700 -2.0493  1.5317  0.0655
 6956TIP3   OH242282   2.544   2.364  12.239  0.3761  0.4353 -0.3793
 6956TIP3    H142283   2.529   2.271  12.224  0.7073 -0.0609  2.0277
 6956TIP3    H242284   2.456   2.402  12.246  0.2367  0.0637 -0.0960
 6957TIP3   OH242285   5.779   5.033  12.942  0.8277 -0.0015 -0.4803
 6957TIP3    H142286   5.760   5.120  12.906  0.2743 -0.3907 -1.1785
 6957TIP3    H242287   5.833   4.991  12.875 -2.6134 -1.8052 -2.4197
 6958TIP3   OH242288   0.521   1.593  12.507  0.3143  0.1432  0.2512
 6958TIP3    H142289   0.453   1.555  12.452  0.5476  0.4488 -0.2581
 6958TIP3    H242290   0.564   1.657  12.451  1.1767 -0.2104  0.4897
 6959TIP3   OH242291   3.773   1.470   5.410  0.3053 -0.3058  0.3426
 6959TIP3    H142292   3.734   1.416   5.341 -0.0836 -0.0080  0.3251
 6959TIP3    H242293   3.863   1.439   5.417  0.6784  0.3659 -1.0466
 6960TIP3   OH242294   1.549   5.714  14.848 -0.0425 -0.5996 -0.2503
 6960TIP3    H142295   1.619   5.758  14.801  0.6159  0.2090  1.4088
 6960TIP3    H242296   1.507   5.784  14.899 -0.4430 -1.5067  0.6967
 6961TIP3   OH242297   6.533   4.236  12.183  0.4743 -0.0195 -0.0985
 6961TIP3    H142298   6.573   4.153  12.208 -0.0452  0.3700  2.2649
 6961TIP3    H242299   6.465   4.211  12.120  0.1872 -1.4232  0.7157
 6962TIP3   OH242300   5.837   2.057  14.417  0.5075 -0.4473 -0.4470
 6962TIP3    H142301   5.749   2.050  14.380 -0.1098 -1.8967  1.1331
 6962TIP3    H242302   5.893   2.011  14.355  0.5644  2.2338 -2.5118
 6963TIP3   OH242303   1.220   0.616  14.888 -0.4638  0.1902 -0.2547
 6963TIP3    H142304   1.203   0.565  14.809  0.4966 -1.6782  0.6677
 6963TIP3    H242305   1.221   0.551  14.958 -1.0001  1.7587  1.2708
 6964TIP3   OH242306   0.472   2.285  17.453 -0.3645 -0.0051  0.1721
 6964TIP3    H142307   0.554   2.243  17.478  0.4406  0.8615 -0.9194
 6964TIP3    H242308   0.483   2.377  17.476 -1.7138 -0.1561  1.5927
 6965TIP3   OH242309   2.556   1.622   0.595 -0.8810 -0.1201  0.2105
 6965TIP3    H142310   2.519   1.634   0.507 -2.1826  1.2030  0.8943
 6965TIP3    H242311   2.492   1.661   0.654  0.2441 -0.4404  1.7218
 6966TIP3   OH242312   2.541   0.653  13.138 -0.1220  0.4998  0.3646
 6966TIP3    H142313   2.561   0.603  13.059 -1.7323  1.6320 -0.8294
 6966TIP3    H242314   2.456   0.693  13.120  0.4217  2.4756  1.8426
 6967TIP3   OH242315   6.659   6.070  13.715 -0.3927 -0.4065  0.2706
 6967TIP3    H142316   6.564   6.066  13.726 -0.2733 -0.4541  1.3777
 6967TIP3    H242317   6.689   5.980  13.732 -0.1919 -0.5106 -0.5864
 6968TIP3   OH242318   4.806   1.591   3.658 -0.3680  0.2807 -0.6935
 6968TIP3    H142319   4.854   1.671   3.637  0.3384  0.4863  1.4255
 6968TIP3    H242320   4.779   1.603   3.749 -2.0724 -1.0242 -0.9833
 6969TIP3   OH242321   4.886   0.884  16.519 -0.2956  0.5516  0.3481
 6969TIP3    H142322   4.823   0.823  16.481 -0.8644  0.7592  0.9337
 6969TIP3    H242323   4.943   0.908  16.446 -0.8718  0.3314 -0.1885
 6970TIP3   OH242324   0.920   4.046  14.891 -0.0672 -0.0969 -0.3767
 6970TIP3    H142325   0.934   3.990  14.814 -3.0135 -0.1665 -1.0023
 6970TIP3    H242326   0.883   4.127  14.855  2.4617  1.6249  0.6731
 6971TIP3   OH242327   3.524   1.833   5.706  0.4987  0.2488 -0.0812
 6971TIP3    H142328   3.589   1.762   5.709 -0.4910 -0.8226 -1.9306
 6971TIP3    H242329   3.575   1.913   5.717  1.8732 -0.6551  0.3711
 6972TIP3   OH242330   0.033   4.537   2.217 -0.6981  0.3246 -0.2808
 6972TIP3    H142331   0.063   4.460   2.170 -0.9947  0.7002 -1.1074
 6972TIP3    H242332   0.078   4.610   2.176 -1.6790  0.7559 -0.6309
 6973TIP3   OH242333   5.951   1.251  11.757  0.2913  0.0237  0.3898
 6973TIP3    H142334   5.954   1.242  11.853  1.8127  0.8041  0.4387
 6973TIP3    H242335   6.013   1.321  11.738  0.0625 -0.1831 -1.1911
 6974TIP3   OH242336   4.916   0.304  15.052  0.0061 -0.4174 -0.3106
 6974TIP3    H142337   4.926   0.364  15.125  4.3440  0.0726 -1.0429
 6974TIP3    H242338   4.892   0.360  14.978  0.8457 -0.0474 -0.3157
 6975TIP3   OH242339   1.109   2.083   3.281 -0.1506  0.2211  0.2264
 6975TIP3    H142340   1.026   2.130   3.287  0.3557  1.1026  0.5613
 6975TIP3    H242341   1.175   2.149   3.303  0.6936 -0.2716 -0.7626
 6976TIP3   OH242342   3.907   2.802  12.009 -0.1603 -0.1489 -0.0892
 6976TIP3    H142343   3.845   2.852  11.957 -0.0342  0.3135  0.1992
 6976TIP3    H242344   3.963   2.759  11.944  0.4535  0.9964 -0.3551
 6977TIP3   OH242345   5.041   3.522   5.360  0.0015  0.6981 -0.4971
 6977TIP3    H142346   5.085   3.476   5.431 -1.6074  0.0158  0.0924
 6977TIP3    H242347   4.971   3.463   5.332 -0.7590  1.8738 -1.1753
 6978TIP3   OH242348   4.547   0.179  16.639 -0.4265 -0.3914  0.3894
 6978TIP3    H142349   4.579   0.141  16.558 -1.5756 -2.5448  0.8813
 6978TIP3    H242350   4.626   0.213  16.682  0.9575 -3.4647  0.5252
 6979TIP3   OH242351   5.551   6.631  14.047  0.0866  0.0366  0.2299
 6979TIP3    H142352   5.591   6.574  13.981 -0.2989 -1.1313  0.9985
 6979TIP3    H242353   5.459   6.604  14.050  0.5140 -1.3909  2.7203
 6980TIP3   OH242354   5.557   2.622  12.297 -0.2690 -0.0579 -0.1989
 6980TIP3    H142355   5.524   2.709  12.276 -0.3136  0.1031  0.5372
 6980TIP3    H242356   5.539   2.610  12.390 -0.6868 -1.0459 -0.3966
 6981TIP3   OH242357   5.818   1.354   1.821 -0.0804  0.0805  0.6200
 6981TIP3    H142358   5.904   1.312   1.812  0.0065  0.6196 -2.0187
 6981TIP3    H242359   5.755   1.283   1.805 -0.3116 -0.6922  4.1672
 6982TIP3   OH242360   5.037   1.374   2.180 -0.5441  0.4395  0.3900
 6982TIP3    H142361   5.042   1.329   2.095  0.5349  1.4543 -0.1269
 6982TIP3    H242362   4.986   1.453   2.162 -2.3598 -0.5005  1.2663
 6983TIP3   OH242363   1.834   1.744   4.806 -0.7446  0.1954 -0.5254
 6983TIP3    H142364   1.799   1.832   4.818  1.5644  0.9134  2.2290
 6983TIP3    H242365   1.923   1.759   4.772  0.0060 -0.9474  0.8385
 6984TIP3   OH242366   5.815   1.045  14.676  0.7017  0.0591 -0.8397
 6984TIP3    H142367   5.896   1.079  14.714  0.2497  1.4754 -1.0480
 6984TIP3    H242368   5.749   1.062  14.744  0.3020  0.4612 -1.3210
 6985TIP3   OH242369   2.081   4.207  12.152  0.3956  0.4923  0.3077
 6985TIP3    H142370   2.145   4.278  12.147  2.2951 -1.0265  1.4987
 6985TIP3    H242371   2.118   4.137  12.098 -1.3460  0.2896 -0.6937
 6986TIP3   OH242372   1.610   5.372   4.043  0.7626 -0.2278 -0.8068
 6986TIP3    H142373   1.627   5.437   3.975  0.3536  0.7201 -0.0371
 6986TIP3    H242374   1.548   5.415   4.102 -0.3355 -1.7168 -0.8228
 6987TIP3   OH242375   5.738   3.737   3.520 -0.3568  0.3449 -0.2785
 6987TIP3    H142376   5.764   3.700   3.605  1.0736 -1.1269 -1.2779
 6987TIP3    H242377   5.697   3.663   3.474  1.1015  0.3971 -1.7389
 6988TIP3   OH242378   2.938   0.998   1.245 -0.1131 -0.2878 -0.2000
 6988TIP3    H142379   2.898   0.934   1.304 -0.7389  1.0604  0.9100
 6988TIP3    H242380   2.909   0.971   1.158 -0.1262 -1.6622  0.2040
 6989TIP3   OH242381   4.712   0.208   5.777  0.1798 -0.0832  0.0330
 6989TIP3    H142382   4.669   0.130   5.812  0.9786 -0.5887 -0.0978
 6989TIP3    H242383   4.788   0.175   5.729  1.7756  0.8642  1.7612
 6990TIP3   OH242384   3.947   0.030  16.162 -0.6846 -0.1969 -0.5047
 6990TIP3    H142385   3.953   0.053  16.069 -0.9457  0.5620 -0.3457
 6990TIP3    H242386   3.992  -0.054  16.169 -0.3931 -0.1171 -1.2634
 6991TIP3   OH242387   1.899   3.326   2.272  0.1830 -0.3714 -0.0870
 6991TIP3    H142388   1.917   3.287   2.357 -0.2712 -2.4473 -0.8643
 6991TIP3    H242389   1.827   3.387   2.288  2.9653  2.7933  1.7587
 6992TIP3   OH242390   1.989   3.092  17.249  0.6068  0.0076  0.1172
 6992TIP3    H142391   1.951   3.088  17.161  0.8394 -2.7998  0.0341
 6992TIP3    H242392   1.917   3.120  17.305 -0.1285 -0.1671 -0.7081
 6993TIP3   OH242393   2.037   3.051  11.664 -0.5025 -0.4487  0.0736
 6993TIP3    H142394   1.985   3.125  11.632 -1.4830 -1.2592 -0.2458
 6993TIP3    H242395   2.086   3.021  11.587  1.1787  0.8607  0.5626
 6994TIP3   OH242396   6.350   5.823  12.131  0.1714  0.8077  0.6335
 6994TIP3    H142397   6.333   5.792  12.042  0.8761 -0.3883  0.8941
 6994TIP3    H242398   6.267   5.864  12.158 -0.7207 -0.5851  0.1325
 6995TIP3   OH242399   0.984   1.784   0.940 -0.6240 -0.2480  0.7143
 6995TIP3    H142400   1.033   1.705   0.961 -0.5286 -0.4500 -0.2049
 6995TIP3    H242401   0.933   1.804   1.019 -1.2993 -1.7115  0.6750
 6996TIP3   OH242402   3.927   0.263  15.247 -0.5841 -0.0539 -0.4688
 6996TIP3    H142403   3.853   0.270  15.309 -0.0264  1.3096  0.0933
 6996TIP3    H242404   3.889   0.287  15.163 -1.2466 -1.4537 -0.5954
 6997TIP3   OH242405   6.539   1.277   1.030 -0.1336 -0.6477 -0.1630
 6997TIP3    H142406   6.445   1.263   1.034 -0.0538 -1.4566 -0.7937
 6997TIP3    H242407   6.549   1.369   1.008 -0.7567 -0.3643  0.6835
 6998TIP3   OH242408   1.694   5.230   2.820 -0.7370 -0.0016  0.2978
 6998TIP3    H142409   1.713   5.274   2.903 -0.5057  0.1280  0.1772
 6998TIP3    H242410   1.747   5.150   2.822  2.9025  2.0927 -1.6329
 6999TIP3   OH242411   4.116   0.167   1.097  0.7385  0.4894 -0.0751
 6999TIP3    H142412   4.110   0.211   1.182  1.8227 -0.8080  0.7152
 6999TIP3    H242413   4.033   0.187   1.054  0.8415  2.5639  0.5806
 7000TIP3   OH242414   1.567   2.916   5.544 -0.3428  0.5005 -0.0268
 7000TIP3    H142415   1.499   2.848   5.543 -2.3160  2.2087  2.9239
 7000TIP3    H242416   1.533   2.985   5.487 -1.1263  1.3107  1.3678
 7001TIP3   OH242417   1.519   1.007   1.293 -0.0741 -0.3761 -0.5369
 7001TIP3    H142418   1.528   1.102   1.296  1.8987 -0.5418  0.4727
 7001TIP3    H242419   1.509   0.986   1.200 -0.2164  0.7806 -0.7915
 7002TIP3   OH242420   6.016   1.621  15.966  0.2391  0.3133  0.1937
 7002TIP3    H142421   5.948   1.603  15.900 -0.3258  0.9343  0.5931
 7002TIP3    H242422   5.971   1.670  16.034  0.9986  0.3546  0.6788
 7003TIP3   OH242423   2.922   3.980  13.829 -0.3286  0.0945  0.2235
 7003TIP3    H142424   2.855   3.916  13.805  1.1559 -1.0072 -1.2511
 7003TIP3    H242425   2.959   3.945  13.911  0.0979 -0.6929 -0.2812
 7004TIP3   OH242426   4.472   6.447  12.607  0.1038 -0.4953 -0.1791
 7004TIP3    H142427   4.465   6.400  12.524  0.2651 -0.0225 -0.4651
 7004TIP3    H242428   4.497   6.536  12.582  2.1264 -0.8240  0.4751
 7005TIP3   OH242429   6.569   3.214   1.975 -0.7172 -0.0422 -0.9903
 7005TIP3    H142430   6.630   3.145   2.003  1.2285  1.5965 -1.0121
 7005TIP3    H242431   6.620   3.295   1.979 -3.9603  2.1782  3.0539
 7006TIP3   OH242432   2.779   4.173  14.427 -0.0998  0.1455 -0.0581
 7006TIP3    H142433   2.711   4.222  14.381 -1.1726  1.2977  2.5540
 7006TIP3    H242434   2.751   4.173  14.518  3.3067  0.4670  1.1090
 7007TIP3   OH242435   1.474   1.141   1.606  0.1432  0.5971  0.0345
 7007TIP3    H142436   1.420   1.197   1.661  1.3244  1.7502  0.0598
 7007TIP3    H242437   1.414   1.072   1.576 -0.9164  0.8957  1.3841
 7008TIP3   OH242438   5.892   0.847   1.697 -0.5193 -0.3352 -0.5268
 7008TIP3    H142439   5.978   0.819   1.665  0.1147 -0.5259  1.2021
 7008TIP3    H242440   5.874   0.928   1.651  0.5948 -0.2935 -0.9261
 7009TIP3   OH242441   6.719   4.604   1.454 -0.0868  0.8176 -0.4301
 7009TIP3    H142442   6.660   4.599   1.529 -0.5827  0.2402 -0.8510
 7009TIP3    H242443   6.800   4.564   1.484  0.0434  1.4530  0.0939
 7010TIP3   OH242444   5.354   4.257  16.696 -0.0965 -0.4283  0.1933
 7010TIP3    H142445   5.272   4.218  16.666  0.8264 -0.7940 -2.0030
 7010TIP3    H242446   5.422   4.212  16.646  1.1863  2.5468 -0.9833
 7011TIP3   OH242447   6.079   2.699  16.416 -0.1453  0.6283  0.7282
 7011TIP3    H142448   6.056   2.684  16.324 -1.2779  2.9019  0.5826
 7011TIP3    H242449   6.042   2.624  16.462  1.6075 -1.2833 -0.7473
 7012TIP3   OH242450   2.272   6.304   5.374  0.3545 -0.4350  0.5712
 7012TIP3    H142451   2.299   6.246   5.445 -0.5400 -0.4627  0.8906
 7012TIP3    H242452   2.351   6.354   5.353  1.1571 -1.7857  0.2557
 7013TIP3   OH242453   1.937   1.326  16.879 -0.9196  0.3909 -0.3836
 7013TIP3    H142454   2.013   1.382  16.859 -1.0678  0.8048  0.1953
 7013TIP3    H242455   1.888   1.375  16.946 -0.8665 -0.5868  0.3917
 7014TIP3   OH242456   4.305   5.375  16.501 -0.1111 -0.3449  0.7574
 7014TIP3    H142457   4.354   5.295  16.518 -0.0023  0.3387  4.5620
 7014TIP3    H242458   4.368   5.432  16.457  0.4731 -1.6024 -0.0899
 7015TIP3   OH242459   2.054   2.954  11.357 -0.1302 -0.3072 -0.3288
 7015TIP3    H142460   2.146   2.927  11.365  0.7452  2.7125  1.6393
 7015TIP3    H242461   2.053   3.014  11.283 -0.4053  0.0956  0.0010
 7016TIP3   OH242462   4.549   5.214  12.859 -0.0984 -0.0445 -0.2858
 7016TIP3    H142463   4.623   5.272  12.843  0.2556 -0.4064  0.0136
 7016TIP3    H242464   4.497   5.219  12.779 -0.6069  1.4415  0.1112
 7017TIP3   OH242465   1.816   4.709   6.901 -0.2481 -0.4184 -0.4239
 7017TIP3    H142466   1.820   4.770   6.827 -0.7427  0.2002  0.0467
 7017TIP3    H242467   1.907   4.687   6.919  0.0667  1.3759  0.3580
 7018TIP3   OH242468   3.583   3.202   6.009  0.1942  0.2722  0.0744
 7018TIP3    H142469   3.660   3.194   6.067 -0.0808  0.1935  0.4334
 7018TIP3    H242470   3.558   3.294   6.016  1.8435  0.9631 -2.1072
 7019TIP3   OH242471   6.581   4.528  14.159  0.2979  0.3426  0.7617
 7019TIP3    H142472   6.588   4.461  14.228 -2.0904 -0.4952  0.3086
 7019TIP3    H242473   6.649   4.505  14.097  1.0708 -0.2275  1.7781
 7020TIP3   OH242474   3.037   1.587   0.607  0.1719  0.1206  0.2140
 7020TIP3    H142475   3.130   1.592   0.627  0.2741 -0.6143 -0.0664
 7020TIP3    H242476   2.995   1.585   0.693  0.4069  0.4967  0.3411
 7021TIP3   OH242477   5.562   3.944  16.014 -0.2598  0.3412  0.6171
 7021TIP3    H142478   5.623   4.004  15.972 -0.0416  0.0235  0.4739
 7021TIP3    H242479   5.606   3.859  16.011 -1.0011 -0.0328 -0.1426
 7022TIP3   OH242480   4.707   5.198   3.204  0.0808 -0.0988 -0.1343
 7022TIP3    H142481   4.616   5.192   3.177  0.4102  1.8818 -1.9479
 7022TIP3    H242482   4.752   5.238   3.129  3.1613 -4.1588 -0.8130
 7023TIP3   OH242483   1.792   5.490   5.931  0.3770 -0.1860  0.3695
 7023TIP3    H142484   1.713   5.456   5.974 -0.0584  0.8357  0.4129
 7023TIP3    H242485   1.786   5.459   5.841  1.5021 -2.6971  1.0856
 7024TIP3   OH242486   2.169   3.781   2.181 -0.1207 -0.0197 -0.2227
 7024TIP3    H142487   2.132   3.842   2.244 -0.2749  0.2649 -0.5870
 7024TIP3    H242488   2.152   3.695   2.218 -0.9910  0.1131 -0.2981
 7025TIP3   OH242489   1.637   5.678   4.918  0.1801  0.0664 -0.6025
 7025TIP3    H142490   1.587   5.759   4.902  0.4603  0.1274 -1.1849
 7025TIP3    H242491   1.653   5.678   5.013 -0.6025  0.2348 -0.4625
 7026TIP3   OH242492   4.928   6.026  13.674 -0.4613 -0.0855 -0.6606
 7026TIP3    H142493   4.845   6.064  13.645 -0.9953  0.0125  0.8768
 7026TIP3    H242494   4.905   5.939  13.705  0.6183 -1.4399 -3.3441
 7027TIP3   OH242495   3.248   4.312   6.724 -0.0901 -0.2188 -0.4526
 7027TIP3    H142496   3.156   4.317   6.696 -0.2050  0.3845  0.0023
 7027TIP3    H242497   3.275   4.404   6.733  1.0528 -0.3446 -2.1490
 7028TIP3   OH242498   3.868   1.908  16.759  0.1978  0.0353 -0.0838
 7028TIP3    H142499   3.959   1.914  16.732  0.1705  1.2500  0.0727
 7028TIP3    H242500   3.822   1.875  16.681  0.5932  0.5242 -0.5270
 7029TIP3   OH242501   1.097   3.810   4.536 -0.4321  0.3755  0.7540
 7029TIP3    H142502   1.153   3.868   4.486 -0.5439  1.6639  2.0558
 7029TIP3    H242503   1.140   3.725   4.532 -0.6101  0.3368 -1.7365
 7030TIP3   OH242504   3.560   5.812  12.245 -0.3815 -0.7157 -0.5586
 7030TIP3    H142505   3.555   5.897  12.288  1.2745 -0.0147 -1.6559
 7030TIP3    H242506   3.468   5.786  12.233 -0.9073  0.5329  0.4818
 7031TIP3   OH242507   5.013   1.424  15.416 -0.0310  0.2844  0.0553
 7031TIP3    H142508   5.019   1.330  15.399  1.2248  0.6511 -1.7768
 7031TIP3    H242509   4.942   1.455  15.361 -1.8402  0.1562  2.1754
 7032TIP3   OH242510   6.415   2.428  12.190  0.2128 -0.4433  0.5077
 7032TIP3    H142511   6.370   2.346  12.172 -0.2476 -0.1527  0.3168
 7032TIP3    H242512   6.471   2.409  12.266  0.4314 -1.0440  0.1992
 7033TIP3   OH242513   2.844   0.648   2.994  0.0426  0.6848 -0.0121
 7033TIP3    H142514   2.915   0.648   3.058 -0.2842 -0.7019  0.3944
 7033TIP3    H242515   2.782   0.713   3.026  0.1331  0.3802  0.7869
 7034TIP3   OH242516   0.631   3.348  15.421  0.4300  0.3334  0.2730
 7034TIP3    H142517   0.708   3.298  15.394  0.1981  0.8803 -1.5603
 7034TIP3    H242518   0.655   3.388  15.504  1.1291 -1.6501  1.0669
 7035TIP3   OH242519   6.622   4.706  17.227 -0.4081 -0.1923 -0.1950
 7035TIP3    H142520   6.666   4.630  17.188  1.5450  2.2207 -3.2281
 7035TIP3    H242521   6.612   4.768  17.154 -3.4334  1.8748  1.7145
 7036TIP3   OH242522   3.227   3.688  12.111  0.0761 -0.1841  0.8403
 7036TIP3    H142523   3.308   3.713  12.156 -0.3580  0.8001  1.1183
 7036TIP3    H242524   3.180   3.635  12.175  1.1175 -2.0060  0.1587
 7037TIP3   OH242525   5.789   5.697   0.805  0.2976 -0.5531 -0.1982
 7037TIP3    H142526   5.769   5.649   0.725 -0.5647  0.0801 -0.3747
 7037TIP3    H242527   5.827   5.779   0.773  1.4193 -0.9394  0.0909
 7038TIP3   OH242528   5.475   2.178  10.446  0.2545 -0.4326  0.3769
 7038TIP3    H142529   5.418   2.251  10.469 -0.1066 -0.7730  0.5798
 7038TIP3    H242530   5.525   2.161  10.526  1.8066  0.8867 -0.2583
 7039TIP3   OH242531   2.487   3.019  13.468  0.4555 -0.1283 -0.4865
 7039TIP3    H142532   2.488   3.055  13.557 -0.5317 -0.4268 -0.3425
 7039TIP3    H242533   2.567   3.052  13.428  0.3682  0.9085  0.1585
 7040TIP3   OH242534   0.748   6.139   0.997  0.3181 -0.5603  0.2480
 7040TIP3    H142535   0.729   6.045   0.997 -0.4682 -0.4171 -0.7906
 7040TIP3    H242536   0.777   6.158   0.908  0.9998  0.0845  0.5981
 7041TIP3   OH242537   0.857   0.003   0.576  0.2770  0.5377 -0.0224
 7041TIP3    H142538   0.799   0.019   0.650  1.4436  1.2648  0.7625
 7041TIP3    H242539   0.940   0.044   0.601  1.0316 -0.1791 -1.2536
 7042TIP3   OH242540   2.775   6.640  14.065 -0.1654  0.4158 -0.6355
 7042TIP3    H142541   2.862   6.663  14.096 -0.1063  0.4358 -0.8163
 7042TIP3    H242542   2.773   6.544  14.070 -0.5112  0.4606  0.3872
 7043TIP3   OH242543   5.310   3.891   1.069  0.1541 -0.4940 -0.1166
 7043TIP3    H142544   5.319   3.950   1.144 -2.5829 -0.4948  0.3224
 7043TIP3    H242545   5.397   3.889   1.029  0.9844  1.7593  1.3827
 7044TIP3   OH242546   6.006   2.741  15.134  0.1969  0.4021  0.0765
 7044TIP3    H142547   6.029   2.656  15.172 -1.7242  0.4403  1.4734
 7044TIP3    H242548   6.088   2.790  15.133  0.9418 -0.7650  1.1243
 7045TIP3   OH242549   3.061   2.881  17.266 -0.1030  0.3310 -0.1645
 7045TIP3    H142550   3.011   2.936  17.327 -0.0956  0.1723 -0.0166
 7045TIP3    H242551   3.040   2.792  17.291  0.9336  0.2450  0.4755
 7046TIP3   OH242552   6.724   2.901  17.327  0.0797 -0.3375 -0.0409
 7046TIP3    H142553   6.696   2.818  17.366  0.8062  0.5409  2.5700
 7046TIP3    H242554   6.660   2.965  17.357 -0.2627  0.1466 -1.7155
 7047TIP3   OH242555   1.800   4.596   3.415  0.1066 -0.7845  0.5263
 7047TIP3    H142556   1.848   4.561   3.340  0.3880 -2.0238  1.2550
 7047TIP3    H242557   1.727   4.644   3.376  0.2154 -1.4505 -0.5474
 7048TIP3   OH242558   1.877   4.293  11.968 -0.2509  0.9004  0.1863
 7048TIP3    H142559   1.793   4.304  12.014 -0.1049  3.7873 -0.0584
 7048TIP3    H242560   1.940   4.278  12.038 -0.7291  0.0763  0.4700
 7049TIP3   OH242561   4.960   4.914   2.658 -0.1198 -0.2260  0.5455
 7049TIP3    H142562   5.005   4.831   2.643 -1.5404 -0.8200 -0.7605
 7049TIP3    H242563   4.876   4.904   2.613 -0.5617  1.7151  0.8417
 7050TIP3   OH242564   2.808   0.385   1.315  0.7542  0.5734 -0.5250
 7050TIP3    H142565   2.888   0.427   1.283  0.9693 -0.0660 -0.8554
 7050TIP3    H242566   2.834   0.295   1.334  0.1750  0.4299 -0.3835
 7051TIP3   OH242567   2.168   6.159   6.124 -1.1491  0.2653  0.8355
 7051TIP3    H142568   2.123   6.243   6.125 -1.6023  0.0248  1.1259
 7051TIP3    H242569   2.101   6.096   6.100 -0.3716  0.2236 -1.4656
 7052TIP3   OH242570   0.295   0.226  12.983  0.3933  0.1763 -0.2278
 7052TIP3    H142571   0.258   0.162  13.043  0.1459  1.5014  1.0735
 7052TIP3    H242572   0.294   0.182  12.898 -0.6126 -1.2011  0.4602
 7053TIP3   OH242573   1.664   0.361   3.064  0.6277 -0.0170 -0.4570
 7053TIP3    H142574   1.647   0.320   3.149  0.2755 -0.9216 -0.9468
 7053TIP3    H242575   1.704   0.445   3.085 -2.1497  1.1356  0.6887
 7054TIP3   OH242576   1.411   5.857   2.801 -0.2900  0.5956 -0.4342
 7054TIP3    H142577   1.400   5.764   2.823  0.9029  0.7437  0.9488
 7054TIP3    H242578   1.486   5.858   2.742  0.0802  0.7390  0.0398
 7055TIP3   OH242579   0.996   3.055   4.623  0.0755 -0.2318  0.4686
 7055TIP3    H142580   1.015   3.126   4.562  1.6769 -1.1052 -0.1252
 7055TIP3    H242581   0.923   3.007   4.584  0.3368 -0.1104 -0.1749
 7056TIP3   OH242582   2.547   2.483   6.645 -0.2676  0.1513 -0.1370
 7056TIP3    H142583   2.503   2.399   6.647  0.0687 -0.0819  3.2713
 7056TIP3    H242584   2.619   2.475   6.707  1.9979  1.9115 -2.2702
 7057TIP3   OH242585   5.209   5.177   2.640 -0.2863  0.9694  0.1300
 7057TIP3    H142586   5.130   5.189   2.587  0.1219 -0.3102 -0.8087
 7057TIP3    H242587   5.230   5.265   2.671 -2.2149  1.3084  0.6276
 7058TIP3   OH242588   1.806   1.837   5.478 -0.1192 -0.3492 -0.2754
 7058TIP3    H142589   1.744   1.869   5.412  0.6950 -0.2618 -1.0060
 7058TIP3    H242590   1.758   1.844   5.561 -1.7414 -1.9345 -1.0107
 7059TIP3   OH242591   5.405   5.395  16.259 -0.3160 -0.4217 -0.0277
 7059TIP3    H142592   5.411   5.434  16.172 -0.6533 -2.0896 -0.8389
 7059TIP3    H242593   5.440   5.461  16.318 -1.0496  1.1627 -1.3039
 7060TIP3   OH242594   4.290   1.592   0.470 -0.3096 -0.5450  0.2978
 7060TIP3    H142595   4.286   1.627   0.559 -2.1435  0.4304 -0.1225
 7060TIP3    H242596   4.215   1.533   0.464 -1.5574  1.0663 -1.2174
 7061TIP3   OH242597   0.952   4.760  13.269 -0.4584  0.0816  0.3577
 7061TIP3    H142598   1.010   4.768  13.193 -2.0112 -0.8079 -0.9875
 7061TIP3    H242599   0.935   4.666  13.276 -3.0322  0.4393 -0.3353
 7062TIP3   OH242600   0.311   4.643   0.463 -0.3436  0.0024  0.0087
 7062TIP3    H142601   0.398   4.635   0.501  0.0460 -0.1935 -0.8933
 7062TIP3    H242602   0.279   4.553   0.455 -0.3381  0.0254 -0.3005
 7063TIP3   OH242603   5.309   1.071   1.443 -0.0503  0.0285 -0.7922
 7063TIP3    H142604   5.243   1.140   1.430  1.0334  1.2619  0.0044
 7063TIP3    H242605   5.260   0.998   1.482 -1.1549  0.4690 -1.3028
 7064TIP3   OH242606   0.361   6.409  17.455 -0.1421  0.1139  0.2458
 7064TIP3    H142607   0.286   6.383  17.401  0.3182 -0.9663  0.1185
 7064TIP3    H242608   0.372   6.339  17.519  1.6660 -0.5100 -0.6726
 7065TIP3   OH242609   6.262   3.910   4.278  0.2012 -0.3165 -1.0381
 7065TIP3    H142610   6.182   3.877   4.237 -0.2540 -0.0880 -0.3641
 7065TIP3    H242611   6.299   3.970   4.214 -0.5006  0.0410 -1.1257
 7066TIP3   OH242612   1.723   4.478   3.688 -0.0985 -0.4075  0.0236
 7066TIP3    H142613   1.636   4.455   3.721 -0.4023  0.5596 -0.0694
 7066TIP3    H242614   1.707   4.508   3.598  0.1319  1.0948  0.4655
 7067TIP3   OH242615   6.654   6.365  17.337  0.7464  0.8378  0.2029
 7067TIP3    H142616   6.651   6.328  17.248 -0.9688  2.7716 -0.6271
 7067TIP3    H242617   6.591   6.313  17.386  1.3843  0.0390  0.2041
 7068TIP3   OH242618   5.655   4.075   5.672 -0.0059  0.3598 -0.5933
 7068TIP3    H142619   5.721   4.144   5.663 -0.0199  0.6747  1.3168
 7068TIP3    H242620   5.589   4.112   5.731 -0.8911 -0.6783 -0.8953
 7069TIP3   OH242621   4.287   1.633   4.386 -0.8743  0.0988 -0.2331
 7069TIP3    H142622   4.211   1.630   4.445 -0.8670 -0.3799 -0.2463
 7069TIP3    H242623   4.326   1.546   4.392  0.0712  0.5425  0.2798
 7070TIP3   OH242624   1.184   2.649   1.464  0.0167 -0.4410 -0.2665
 7070TIP3    H142625   1.124   2.576   1.451  0.2113 -1.5006  3.6059
 7070TIP3    H242626   1.270   2.614   1.440 -0.1752 -0.8294 -0.3975
 7071TIP3   OH242627   1.287   4.919   3.123 -0.3934  0.0234 -0.3987
 7071TIP3    H142628   1.345   4.955   3.056  0.8489 -3.0048 -1.0889
 7071TIP3    H242629   1.199   4.939   3.092  0.1804  2.1340 -0.8223
 7072TIP3   OH242630   3.255   0.089   4.250  0.0062 -0.1580 -0.3381
 7072TIP3    H142631   3.162   0.077   4.233 -0.0390  1.0527 -1.0876
 7072TIP3    H242632   3.259   0.133   4.335 -0.0847 -0.4081 -0.2021
 7073TIP3   OH242633   3.186   3.827  12.382  0.2162 -0.5933  0.1565
 7073TIP3    H142634   3.138   3.896  12.335  0.9166  1.3493  2.0928
 7073TIP3    H242635   3.126   3.752  12.383 -2.1390  1.1631  0.9663
 7074TIP3   OH242636   1.938   1.265  14.610  0.0475 -0.5009  0.4675
 7074TIP3    H142637   1.968   1.327  14.544  1.4509 -0.4437  1.1355
 7074TIP3    H242638   1.872   1.313  14.660 -0.5126 -0.3151 -0.4229
 7075TIP3   OH242639   2.611   1.564  15.382 -0.2944  0.4733  0.3410
 7075TIP3    H142640   2.553   1.599  15.450  0.9104  4.1204 -0.2756
 7075TIP3    H242641   2.661   1.495  15.426 -2.4961 -0.2968  1.8482
 7076TIP3   OH242642   4.173   4.211   4.086 -0.4140 -0.2195  0.0805
 7076TIP3    H142643   4.215   4.276   4.142 -0.4867  1.0349 -1.2252
 7076TIP3    H242644   4.081   4.238   4.084 -0.3647 -0.0633 -0.8119
 7077TIP3   OH242645   5.714   4.825   1.509  0.0744 -0.0572 -0.4897
 7077TIP3    H142646   5.779   4.895   1.505  0.3289 -0.1887  0.8902
 7077TIP3    H242647   5.750   4.762   1.571 -0.0823 -1.5107 -1.7981
 7078TIP3   OH242648   5.216   4.591   3.347  0.4563  0.7876 -0.1459
 7078TIP3    H142649   5.228   4.670   3.296  0.0348  0.1925 -1.2060
 7078TIP3    H242650   5.266   4.524   3.300  0.2608  0.2740  0.3583
 7079TIP3   OH242651   6.320   1.159  12.200  0.2489 -0.3117  0.1835
 7079TIP3    H142652   6.395   1.142  12.258 -1.2975 -1.3630  1.9929
 7079TIP3    H242653   6.245   1.167  12.260 -1.4327 -1.2835 -1.6706
 7080TIP3   OH242654   3.245   3.683  11.619  0.2518  0.2761 -0.2891
 7080TIP3    H142655   3.196   3.740  11.560 -2.2780 -1.2788  0.1491
 7080TIP3    H242656   3.258   3.734  11.698 -0.3451  0.8597 -0.5627
 7081TIP3   OH242657   6.398   4.044   4.095  0.6677 -0.1711  0.0177
 7081TIP3    H142658   6.472   3.991   4.065  0.6074  0.3474 -1.0867
 7081TIP3    H242659   6.437   4.108   4.155  1.4952  1.4079 -2.0860
 7082TIP3   OH242660   3.760   3.967   1.793  0.2613  0.1310  0.3531
 7082TIP3    H142661   3.794   3.877   1.793 -0.8666 -0.3182  0.1732
 7082TIP3    H242662   3.743   3.986   1.701  0.9671  0.7246  0.3412
 7083TIP3   OH242663   0.907   2.848  14.586 -0.2775  0.3186  0.1389
 7083TIP3    H142664   0.871   2.905  14.517 -0.0348 -0.5494 -0.7142
 7083TIP3    H242665   0.846   2.775  14.590 -1.1591  1.0995  1.9524
 7084TIP3   OH242666   6.504   5.436  14.934 -1.1175  0.0184  0.4097
 7084TIP3    H142667   6.594   5.469  14.933 -1.6409  1.7720  2.7017
 7084TIP3    H242668   6.465   5.469  14.853 -0.1301  0.6445  0.1731
 7085TIP3   OH242669   2.827   6.270  12.654 -0.0721 -0.5778  0.3051
 7085TIP3    H142670   2.773   6.255  12.576  0.6367  1.8930 -0.7677
 7085TIP3    H242671   2.765   6.299  12.721 -0.2101  3.1844 -1.1927
 7086TIP3   OH242672   4.272   0.463  15.169  0.3021 -0.4486  0.0333
 7086TIP3    H142673   4.205   0.436  15.106  0.5173 -0.3012 -0.2642
 7086TIP3    H242674   4.271   0.396  15.237  2.2095 -2.3567 -1.6745
 7087TIP3   OH242675   2.345   0.046  17.142  0.7662 -0.0275  0.1630
 7087TIP3    H142676   2.390   0.119  17.100 -0.1558  1.6220  1.8840
 7087TIP3    H242677   2.256   0.078  17.157 -0.0762 -2.0216 -0.2263
 7088TIP3   OH242678   6.226   0.584   0.168 -0.5228  0.4825 -0.7499
 7088TIP3    H142679   6.279   0.648   0.215 -2.4364  0.3770  1.7852
 7088TIP3    H242680   6.281   0.506   0.163 -0.0005  0.7164  0.8139
 7089TIP3   OH242681   5.786   5.112  17.411  0.5256  0.0158  0.1133
 7089TIP3    H142682   5.858   5.110  17.348  0.5491  0.3335  0.1307
 7089TIP3    H242683   5.733   5.035  17.389  1.4605 -0.8492  0.7890
 7090TIP3   OH242684   0.864   5.355   0.684  0.4232  0.1255 -0.1018
 7090TIP3    H142685   0.915   5.395   0.614  0.9496 -1.1821 -0.4793
 7090TIP3    H242686   0.777   5.343   0.646  0.8262 -0.9975 -0.7038
 7091TIP3   OH242687   0.304   5.180  16.418  0.2871 -0.3368  0.7405
 7091TIP3    H142688   0.236   5.150  16.478 -0.7784  0.5053  0.0044
 7091TIP3    H242689   0.296   5.276  16.419  0.0920 -0.3114 -0.8919
 7092TIP3   OH242690   4.010   0.054   6.021 -0.6695  0.3256  0.5671
 7092TIP3    H142691   4.025   0.148   6.011  1.6246  0.0533  0.7367
 7092TIP3    H242692   4.008   0.041   6.116  2.0546 -0.1052  0.6437
 7093TIP3   OH242693   2.281   0.488   0.993  0.1776 -0.2424 -0.9449
 7093TIP3    H142694   2.339   0.468   0.920 -0.2004  1.0482 -1.6351
 7093TIP3    H242695   2.211   0.540   0.955 -0.1410  0.2763  0.2938
 7094TIP3   OH242696   0.729   5.282  17.237 -0.5657 -0.5117 -0.3766
 7094TIP3    H142697   0.728   5.356  17.297  0.6432 -0.9352  0.2022
 7094TIP3    H242698   0.668   5.219  17.276 -0.1637 -0.5824  0.1437
 7095TIP3   OH242699   5.900   4.357  11.914  0.1770 -0.4527 -0.0508
 7095TIP3    H142700   5.896   4.354  12.010  0.3861 -0.6563 -0.0488
 7095TIP3    H242701   5.890   4.266  11.887  0.1523 -0.3988 -0.2223
 7096TIP3   OH242702   0.881   3.797   4.360 -0.0202  0.2643  0.1903
 7096TIP3    H142703   0.954   3.784   4.421 -0.6290  0.8790  1.0858
 7096TIP3    H242704   0.845   3.710   4.345  1.9042 -0.3145 -1.6150
 7097TIP3   OH242705   1.565   1.779  11.912  0.4412 -0.6021 -0.6907
 7097TIP3    H142706   1.604   1.712  11.856  0.1889 -1.1281 -0.2488
 7097TIP3    H242707   1.570   1.860  11.861  0.1468 -1.0880 -1.4926
 7098TIP3   OH242708   0.307   2.164  16.008 -0.1043  0.1727  0.7117
 7098TIP3    H142709   0.357   2.082  16.011 -0.6704 -0.1874  0.4634
 7098TIP3    H242710   0.359   2.222  15.953 -0.1937 -0.3612  0.0514
 7099TIP3   OH242711   2.034   2.661  14.813  0.2219  0.5135 -0.0663
 7099TIP3    H142712   2.113   2.611  14.835 -0.1633  0.3642  0.9939
 7099TIP3    H242713   1.965   2.621  14.865 -0.1704  1.9221  0.5337
 7100TIP3   OH242714   0.061   1.365   6.408  0.4875  0.1702  0.2634
 7100TIP3    H142715   0.056   1.284   6.459  0.5903 -0.7078 -1.0564
 7100TIP3    H242716   0.151   1.395   6.418  0.2110  0.6394  1.4934
 7101TIP3   OH242717   4.711   0.933   5.774 -0.2497  0.0298 -0.2844
 7101TIP3    H142718   4.663   0.922   5.856  0.3725  0.0547  0.0892
 7101TIP3    H242719   4.719   0.844   5.739  2.1097 -0.4586  1.2113
 7102TIP3   OH242720   3.804   6.659   5.770  0.2581 -0.3497 -0.3724
 7102TIP3    H142721   3.895   6.675   5.745 -0.1450  1.5691 -0.7082
 7102TIP3    H242722   3.770   6.744   5.798 -1.0329 -1.2824  1.1656
 7103TIP3   OH242723   1.652   0.003   5.488  0.1828  0.0765  0.4462
 7103TIP3    H142724   1.712   0.054   5.434  0.5941 -0.5376  0.3145
 7103TIP3    H242725   1.582   0.064   5.510 -0.0366  0.3264 -0.8416
 7104TIP3   OH242726   1.007   5.335   4.942  0.2064  0.2333 -0.1319
 7104TIP3    H142727   1.072   5.347   4.873 -1.0102  0.8816 -1.2037
 7104TIP3    H242728   0.925   5.366   4.903 -1.4902 -3.6708 -0.0897
 7105TIP3   OH242729   1.251   0.462  14.202  0.0136  0.1249 -0.6321
 7105TIP3    H142730   1.269   0.369  14.214  1.6551  0.4785 -0.0761
 7105TIP3    H242731   1.168   0.465  14.155  0.5077 -1.6520 -1.6963
 7106TIP3   OH242732   5.539   5.252  16.791  0.0017 -0.2722 -1.0779
 7106TIP3    H142733   5.624   5.230  16.752  0.5800 -0.4815  0.2703
 7106TIP3    H242734   5.546   5.225  16.882 -1.5763 -0.4213 -0.9766
 7107TIP3   OH242735   3.730   3.246   3.528  0.0148  0.5030 -0.4531
 7107TIP3    H142736   3.707   3.242   3.436 -0.9722 -0.8086 -0.1834
 7107TIP3    H242737   3.816   3.288   3.530 -0.5695  1.8592 -1.8348
 7108TIP3   OH242738   3.968   4.436  13.008 -0.1207  0.4161  0.5027
 7108TIP3    H142739   3.955   4.498  12.935  0.6604 -2.0234 -1.8955
 7108TIP3    H242740   4.063   4.431  13.017 -0.1649 -0.5386  0.5125
 7109TIP3   OH242741   6.479   1.362  12.920  0.1349  0.0816 -0.1513
 7109TIP3    H142742   6.517   1.281  12.953  0.3788 -0.1056 -0.8770
 7109TIP3    H242743   6.388   1.359  12.949  0.2922 -0.1729  0.3256
 7110TIP3   OH242744   1.928   2.829   6.268  0.0512  0.2181  0.0541
 7110TIP3    H142745   1.858   2.893   6.262  0.1200  0.5477  2.0872
 7110TIP3    H242746   1.884   2.744   6.263 -0.3945  0.4236  0.5069
 7111TIP3   OH242747   2.465   0.907   4.124  0.3529 -0.2504  0.4563
 7111TIP3    H142748   2.440   0.835   4.067  1.1393 -0.0724 -0.1152
 7111TIP3    H242749   2.424   0.984   4.085 -0.2404 -0.3230  0.9043
 7112TIP3   OH242750   1.327   2.854   4.625  0.5148  0.0922  0.7320
 7112TIP3    H142751   1.367   2.932   4.587  2.0167 -0.8355  0.2792
 7112TIP3    H242752   1.351   2.856   4.717 -1.7954  1.5353  1.3712
 7113TIP3   OH242753   6.290   4.271  14.216 -0.3272 -0.2207 -0.0856
 7113TIP3    H142754   6.341   4.227  14.149 -2.0879 -1.7209 -0.4980
 7113TIP3    H242755   6.210   4.299  14.171 -0.6857  0.4695  0.9485
 7114TIP3   OH242756   5.230   3.357  16.539  0.4817 -0.0443  0.0309
 7114TIP3    H142757   5.147   3.324  16.504  0.9580 -0.7049 -0.5258
 7114TIP3    H242758   5.210   3.389  16.626 -1.3149  3.9352 -1.5877
 7115TIP3   OH242759   2.425   6.660  12.862  0.0489 -0.3949  0.1449
 7115TIP3    H142760   2.436   6.665  12.957  2.0026  0.7839 -0.1093
 7115TIP3    H242761   2.471   6.736  12.827 -0.1768 -1.0790 -1.7981
 7116TIP3   OH242762   4.497   5.506   4.670 -0.1723 -0.2110  0.4725
 7116TIP3    H142763   4.528   5.596   4.659 -3.0532  0.8604  0.2447
 7116TIP3    H242764   4.477   5.477   4.581  0.4595 -1.0014  0.5755
 7117TIP3   OH242765   0.635   3.481  11.999  0.0022  0.1580  0.2699
 7117TIP3    H142766   0.626   3.441  12.086 -1.2520  1.2028  0.6538
 7117TIP3    H242767   0.547   3.514  11.979  0.5865  1.1075 -0.8232
 7118TIP3   OH242768   1.900   2.697   0.025  0.0794 -0.0645  0.1784
 7118TIP3    H142769   1.942   2.613   0.042  1.0823  0.6278  1.2791
 7118TIP3    H242770   1.828   2.677  -0.034  0.9712 -1.5287 -0.4430
 7119TIP3   OH242771   0.099   0.071   5.756  0.2110  0.1511  0.1424
 7119TIP3    H142772   0.093   0.166   5.771  1.0335 -0.1242  2.4774
 7119TIP3    H242773   0.192   0.055   5.741  0.3757 -0.5217  1.7445
 7120TIP3   OH242774   3.181   2.066   1.564 -0.5651 -0.4177  0.3233
 7120TIP3    H142775   3.191   2.156   1.535  0.5034 -0.6360 -0.0551
 7120TIP3    H242776   3.119   2.027   1.503 -0.1618 -0.2321 -0.2092
 7121TIP3   OH242777   5.293   3.966  16.069  0.0458 -0.2379 -0.1278
 7121TIP3    H142778   5.244   3.963  15.987  0.4400 -0.4270 -0.3582
 7121TIP3    H242779   5.379   3.931  16.047  0.1930 -0.1781  0.3402
 7122TIP3   OH242780   4.459   0.627   0.711  0.1434  0.3897  0.3050
 7122TIP3    H142781   4.553   0.641   0.725  0.5719  0.1613 -1.9182
 7122TIP3    H242782   4.427   0.711   0.679 -0.1654  0.1320 -0.0641
 7123TIP3   OH242783   6.338   3.346  13.410  0.4643 -0.3065  0.2759
 7123TIP3    H142784   6.249   3.340  13.443  0.0894  0.4944 -0.5590
 7123TIP3    H242785   6.378   3.262  13.433 -0.5350 -0.7129  0.5563
 7124TIP3   OH242786   2.416   2.792  15.064 -0.0520 -0.1466 -0.1689
 7124TIP3    H142787   2.332   2.831  15.089 -0.0733 -0.5493  0.4285
 7124TIP3    H242788   2.456   2.856  15.005 -1.9172 -1.0990 -2.6071
 7125TIP3   OH242789   5.558   2.604  16.766 -0.0652  0.0033 -0.6560
 7125TIP3    H142790   5.585   2.534  16.825  1.7331  0.1927 -1.1847
 7125TIP3    H242791   5.500   2.562  16.702  0.4747 -0.8708 -0.5803
 7126TIP3   OH242792   2.780   4.017   0.432  0.3777  0.7620 -0.0190
 7126TIP3    H142793   2.861   4.049   0.471 -0.6936  1.6337  1.6351
 7126TIP3    H242794   2.715   4.028   0.501 -0.8996 -1.1456 -0.8371
 7127TIP3   OH242795   2.655   6.081   1.540  0.3351 -0.1843  0.0005
 7127TIP3    H142796   2.709   6.012   1.577 -1.0777 -1.4598 -0.2221
 7127TIP3    H242797   2.663   6.070   1.445  0.7083  0.4592 -0.0478
 7128TIP3   OH242798   1.440   0.720   0.393 -0.2686  0.0186  0.3412
 7128TIP3    H142799   1.440   0.770   0.475  1.8197  1.1046 -0.2388
 7128TIP3    H242800   1.518   0.665   0.398  0.9771  1.4458 -1.5991
 7129TIP3   OH242801   3.951   4.179   1.561 -0.0526 -0.2265 -0.5076
 7129TIP3    H142802   4.016   4.165   1.493  1.4888  1.5649  0.5292
 7129TIP3    H242803   3.928   4.091   1.591  0.1190 -0.9822 -2.4689
 7130TIP3   OH242804   2.475   2.847   4.989 -0.2190  0.1990 -0.1938
 7130TIP3    H142805   2.530   2.874   4.916  0.5012  1.4916  0.7966
 7130TIP3    H242806   2.420   2.777   4.953 -0.2748  1.1721 -2.1225
 7131TIP3   OH242807   1.322   5.160  14.678  0.3764  0.5478 -0.1579
 7131TIP3    H142808   1.308   5.078  14.726  2.0767  1.0392  1.2869
 7131TIP3    H242809   1.330   5.133  14.586 -2.2644 -0.4890 -0.1777
 7132TIP3   OH242810   0.302   5.508  17.435  0.2534 -0.2382  0.0060
 7132TIP3    H142811   0.226   5.487  17.381  0.6091  0.1094 -0.6373
 7132TIP3    H242812   0.319   5.429  17.486 -1.1144 -0.0228  0.8572
 7133TIP3   OH242813   4.616   3.025   2.773  0.0555 -0.1574 -0.2241
 7133TIP3    H142814   4.669   2.953   2.739  1.8231  0.1681  1.5884
 7133TIP3    H242815   4.679   3.078   2.823 -1.2181  2.5076 -1.2678
 7134TIP3   OH242816   1.357   4.440   0.162 -0.3872  0.4435 -0.0159
 7134TIP3    H142817   1.276   4.483   0.190 -0.6163  3.0196 -3.8280
 7134TIP3    H242818   1.426   4.489   0.205 -0.6520 -1.2542  2.6116
 7135TIP3   OH242819   6.676   1.773  12.938  0.3581  0.3070  0.1598
 7135TIP3    H142820   6.619   1.758  13.013  1.4405  0.0744  0.9608
 7135TIP3    H242821   6.635   1.845  12.891 -1.0809 -0.4562  0.1956
 7136TIP3   OH242822   1.045   3.708   6.290 -0.5962 -0.7645 -0.0717
 7136TIP3    H142823   1.087   3.647   6.350 -0.0642 -0.4181 -0.0810
 7136TIP3    H242824   1.077   3.794   6.317  0.0768 -0.6445 -1.1676
 7137TIP3   OH242825   3.739   6.648   3.364 -0.5049  0.3896  0.3471
 7137TIP3    H142826   3.792   6.569   3.354  0.0674  0.9673 -1.5349
 7137TIP3    H242827   3.671   6.640   3.297 -2.2697  0.1286  2.0843
 7138TIP3   OH242828   6.222   1.412   4.872  0.1932 -0.5038  0.0745
 7138TIP3    H142829   6.264   1.356   4.937 -1.1960 -1.6867  0.0303
 7138TIP3    H242830   6.163   1.468   4.922 -1.1583 -1.6707 -0.1078
 7139TIP3   OH242831   6.725   0.630   6.749 -0.7355 -0.0705 -0.7049
 7139TIP3    H142832   6.762   0.617   6.662 -0.6824 -2.8116 -0.3716
 7139TIP3    H242833   6.647   0.684   6.735  0.3322  1.1423 -2.1554
 7140TIP3   OH242834   3.607   4.047   5.460 -0.3658  0.1006  0.6191
 7140TIP3    H142835   3.678   4.081   5.405 -0.6700  0.9944  0.7663
 7140TIP3    H242836   3.652   4.007   5.534  0.1467 -2.7602 -1.0981
 7141TIP3   OH242837   2.532   5.924   0.968 -0.0401 -0.7854 -0.2059
 7141TIP3    H142838   2.563   5.901   0.880  1.6763 -0.8648  0.3684
 7141TIP3    H242839   2.562   5.852   1.023  0.8854  0.3132  0.7906
 7142TIP3   OH242840   2.661   5.589   3.191 -0.2201  0.1389 -0.3066
 7142TIP3    H142841   2.666   5.622   3.101  0.7231  1.3473  0.1791
 7142TIP3    H242842   2.576   5.620   3.223 -0.8185 -0.7696 -0.9280
 7143TIP3   OH242843   1.005   2.817   2.128  0.0236  0.0764 -0.3508
 7143TIP3    H142844   0.944   2.752   2.094  1.4747 -2.7086  1.9577
 7143TIP3    H242845   0.985   2.822   2.222  2.5650 -0.1294  0.2692
 7144TIP3   OH242846   4.831   0.562   4.751  0.6110  0.2158 -0.2428
 7144TIP3    H142847   4.797   0.525   4.670 -2.2816  0.4008  0.7829
 7144TIP3    H242848   4.808   0.499   4.818  0.1445  1.5038  0.8462
 7145TIP3   OH242849   4.450   5.355  10.719 -0.6929 -0.2718  0.3897
 7145TIP3    H142850   4.541   5.382  10.708 -0.7769 -0.3212 -0.4603
 7145TIP3    H242851   4.401   5.438  10.724 -0.8129 -0.2323 -1.0504
 7146TIP3   OH242852   2.273   1.253  14.752 -0.3175  0.5262  0.6230
 7146TIP3    H142853   2.334   1.324  14.733  0.7856 -0.0158  1.9685
 7146TIP3    H242854   2.307   1.212  14.831  0.0877 -2.5921 -0.9979
 7147TIP3   OH242855   3.158   1.062   5.961 -0.1455 -0.8438  0.2937
 7147TIP3    H142856   3.195   1.135   6.011  0.8644 -2.1307  1.5113
 7147TIP3    H242857   3.171   1.087   5.870  1.3001 -0.0197  0.6834
 7148TIP3   OH242858   1.593   4.194  13.469 -0.4547 -0.2643  0.0130
 7148TIP3    H142859   1.524   4.173  13.406 -0.1772  0.9869 -0.7406
 7148TIP3    H242860   1.653   4.252  13.421  0.3060 -0.0979  1.1214
 7149TIP3   OH242861   5.541   0.808   2.656 -0.2439  1.1872 -0.7695
 7149TIP3    H142862   5.616   0.833   2.603  1.1266 -0.1807  0.4435
 7149TIP3    H242863   5.545   0.866   2.732  0.3531  0.2778 -0.0922
 7150TIP3   OH242864   0.709   3.109  16.537 -0.6422 -0.3005 -0.1059
 7150TIP3    H142865   0.681   3.043  16.600  0.5935  0.2790  1.1158
 7150TIP3    H242866   0.760   3.061  16.472 -0.5936 -0.6959  0.2197
 7151TIP3   OH242867   2.204   1.405  11.139  0.5015  0.4183  0.1979
 7151TIP3    H142868   2.277   1.365  11.091 -0.2753 -0.1470 -0.5583
 7151TIP3    H242869   2.134   1.413  11.074 -0.8754 -1.1307  1.3775
 7152TIP3   OH242870   5.126   4.862  13.131  0.0927 -0.4801  0.1804
 7152TIP3    H142871   5.183   4.911  13.072  0.5607  0.5546  1.4176
 7152TIP3    H242872   5.104   4.926  13.200 -2.8677 -0.7147 -0.4238
 7153TIP3   OH242873   2.145   3.201  12.474 -0.0490  0.3650  0.2692
 7153TIP3    H142874   2.054   3.210  12.446 -0.3671 -0.9720  0.8022
 7153TIP3    H242875   2.142   3.142  12.550  1.1021  1.5505  1.2925
 7154TIP3   OH242876   5.629   0.224   5.842  0.2465 -0.8738  0.5483
 7154TIP3    H142877   5.580   0.206   5.922  0.5524  0.7889  1.1441
 7154TIP3    H242878   5.664   0.139   5.816 -0.9789 -1.6884  1.4083
 7155TIP3   OH242879   2.936   4.468  16.587 -0.1798  0.7378  0.2393
 7155TIP3    H142880   3.006   4.520  16.549  0.3563 -0.5775 -0.6086
 7155TIP3    H242881   2.974   4.382  16.601 -1.4424  0.1762  0.3611
 7156TIP3   OH242882   0.312   3.568  12.559 -0.7514  0.5578  0.0236
 7156TIP3    H142883   0.365   3.620  12.619 -0.1064  1.0613 -0.9720
 7156TIP3    H242884   0.299   3.485  12.605  0.7152  0.5000  0.3678
 7157TIP3   OH242885   0.198   1.078   5.108 -0.0174 -0.3109  0.2232
 7157TIP3    H142886   0.167   1.098   5.020  1.6807 -0.2815 -0.4065
 7157TIP3    H242887   0.264   1.145   5.126 -2.4019  1.6126  2.7883
 7158TIP3   OH242888   1.850   3.662  13.957  0.0891  0.0037  0.2031
 7158TIP3    H142889   1.934   3.700  13.983  0.3402 -0.3130 -0.1174
 7158TIP3    H242890   1.812   3.726  13.897 -0.7067  0.9512  1.6681
 7159TIP3   OH242891   3.244   5.515  16.167  0.3209  0.3149  0.3581
 7159TIP3    H142892   3.192   5.437  16.152 -1.5913  1.5871 -0.0091
 7159TIP3    H242893   3.317   5.507  16.105  1.1017 -1.8931  1.4521
 7160TIP3   OH242894   1.813   3.753   5.645 -0.5378  0.8828  0.3773
 7160TIP3    H142895   1.800   3.689   5.715 -1.0560 -0.0768 -0.5717
 7160TIP3    H242896   1.903   3.740   5.616 -1.0203 -0.3110 -0.6548
 7161TIP3   OH242897   5.250   4.221   4.455 -0.7933 -0.1460 -0.3616
 7161TIP3    H142898   5.169   4.258   4.419 -0.3681  0.4784 -0.7055
 7161TIP3    H242899   5.249   4.249   4.547 -0.4473  0.7993 -0.6336
 7162TIP3   OH242900   0.933   5.086   3.261 -0.6568 -0.3102 -0.0371
 7162TIP3    H142901   0.840   5.087   3.281 -0.5158 -1.1233  0.6613
 7162TIP3    H242902   0.971   5.152   3.319 -0.8250  0.2627 -0.5554
 7163TIP3   OH242903   5.869   3.005   3.423 -0.3255  0.1877 -0.3953
 7163TIP3    H142904   5.821   3.033   3.500 -0.2624 -1.1538  0.1657
 7163TIP3    H242905   5.827   3.049   3.350 -2.0738 -0.5297  0.1384
 7164TIP3   OH242906   1.338   1.376   1.008  0.0983  0.6648 -0.2823
 7164TIP3    H142907   1.305   1.379   0.918 -1.3809 -0.2862  0.1938
 7164TIP3    H242908   1.260   1.365   1.062  1.1400 -1.4312  0.9216
 7165TIP3   OH242909   5.168   3.746  12.874 -0.3243  0.3713 -0.4724
 7165TIP3    H142910   5.218   3.783  12.947 -0.1814 -0.1402 -0.3069
 7165TIP3    H242911   5.234   3.717  12.812 -0.4419  0.6065 -0.7108
 7166TIP3   OH242912   0.612   4.058  14.667  0.4413  0.1555 -0.3820
 7166TIP3    H142913   0.691   4.099  14.631  0.6448 -1.1486 -1.5069
 7166TIP3    H242914   0.643   3.976  14.706 -0.0495  0.6971  1.2138
 7167TIP3   OH242915   4.808   3.546  15.291 -0.0524  0.0653 -1.0538
 7167TIP3    H142916   4.791   3.451  15.294  0.7486 -0.0646  0.1957
 7167TIP3    H242917   4.722   3.585  15.309  0.2995 -0.5450  2.8548
 7168TIP3   OH242918   1.534   1.347  17.467 -0.0118  0.2484  0.6706
 7168TIP3    H142919   1.512   1.260  17.433  0.9054  0.6089 -0.9586
 7168TIP3    H242920   1.454   1.398  17.458 -0.8268 -0.6269  2.4724
 7169TIP3   OH242921   6.115   2.484  15.226  0.0571 -0.4783  0.3566
 7169TIP3    H142922   6.081   2.444  15.146  0.4044  0.7764 -0.4502
 7169TIP3    H242923   6.130   2.410  15.285  1.8459 -1.7076 -1.4760
 7170TIP3   OH242924   4.593   3.162   1.233  0.9127  0.2524  0.4133
 7170TIP3    H142925   4.523   3.227   1.230  0.2156 -0.4974  0.1715
 7170TIP3    H242926   4.602   3.132   1.142  0.9542 -0.2695  0.5848
 7171TIP3   OH242927   3.855   3.055  13.840 -0.4526  0.3611 -0.1289
 7171TIP3    H142928   3.841   3.042  13.934 -1.2880  1.0647 -0.1451
 7171TIP3    H242929   3.794   2.993  13.798 -0.4177  0.3780 -0.2041
 7172TIP3   OH242930   2.382   3.168  16.659  0.0704 -0.1067  0.6068
 7172TIP3    H142931   2.385   3.191  16.751 -0.0054 -1.3637  0.9509
 7172TIP3    H242932   2.326   3.090  16.656  1.7775 -1.3735 -0.1778
 7173TIP3   OH242933   5.469   5.958   2.694 -0.0136  0.0219  0.0068
 7173TIP3    H142934   5.516   6.028   2.740 -0.6261  0.7460 -0.4598
 7173TIP3    H242935   5.482   5.977   2.601 -1.5407  0.4540 -0.1368
 7174TIP3   OH242936   1.678   2.728  16.612  0.1664 -0.2902  0.6703
 7174TIP3    H142937   1.726   2.752  16.691 -1.0507 -0.3012  1.4437
 7174TIP3    H242938   1.662   2.811  16.567  0.4227 -0.2292  0.6913
 7175TIP3   OH242939   4.819   5.406  11.411  0.2148  0.0616  0.2897
 7175TIP3    H142940   4.872   5.391  11.332  1.7628  0.7056  1.1706
 7175TIP3    H242941   4.883   5.416  11.481 -1.0958  0.8142  1.4125
 7176TIP3   OH242942   2.906   6.307  13.659  0.5790  0.0305 -0.0229
 7176TIP3    H142943   2.984   6.351  13.627  0.0384  0.8320 -0.2803
 7176TIP3    H242944   2.937   6.223  13.692  1.5316  0.3101 -0.1840
 7177TIP3   OH242945   3.781   1.718   2.182  0.5250 -0.4432 -0.2965
 7177TIP3    H142946   3.856   1.685   2.231  0.5419 -0.0318 -0.0369
 7177TIP3    H242947   3.818   1.747   2.099  0.8405  0.7273  0.2313
 7178TIP3   OH242948   4.274   5.014   1.532  0.0140 -0.5049  0.3846
 7178TIP3    H142949   4.188   4.992   1.567 -0.6226 -1.0311 -1.4157
 7178TIP3    H242950   4.256   5.054   1.447  1.5672 -1.1460 -0.2839
 7179TIP3   OH242951   3.685   0.952   5.227 -0.9953  0.0261  0.5555
 7179TIP3    H142952   3.749   0.913   5.286 -0.5124  1.0088  0.7016
 7179TIP3    H242953   3.737   1.006   5.168 -1.5676 -0.2143 -0.1764
 7180TIP3   OH242954   3.774   1.306  13.020  0.1971 -0.2897 -0.6370
 7180TIP3    H142955   3.717   1.372  12.982 -0.0679 -0.9745 -1.4490
 7180TIP3    H242956   3.738   1.291  13.107  0.7741  1.2449 -0.0971
 7181TIP3   OH242957   5.566   4.352  12.712  0.0176 -0.0004 -0.2719
 7181TIP3    H142958   5.570   4.389  12.624 -1.1333  0.2212 -0.2482
 7181TIP3    H242959   5.481   4.379  12.746 -0.0903 -1.1319  0.4321
 7182TIP3   OH242960   2.142   5.008   5.551 -0.4977  0.2335 -0.6292
 7182TIP3    H142961   2.094   4.968   5.479  0.7756  1.6650 -2.4108
 7182TIP3    H242962   2.228   5.028   5.513  0.8886 -0.6108  1.8688
 7183TIP3   OH242963   6.730   2.989  14.547  0.6670  0.1349 -0.4794
 7183TIP3    H142964   6.793   2.928  14.507  0.2003 -0.2202 -0.6838
 7183TIP3    H242965   6.779   3.032  14.617  1.1848 -0.0237 -0.7390
 7184TIP3   OH242966   1.846   2.244  16.833  0.2235  0.4143 -0.4366
 7184TIP3    H142967   1.791   2.166  16.841  0.1700  0.3328 -1.4149
 7184TIP3    H242968   1.935   2.210  16.830  0.2343  0.4321 -0.3166
 7185TIP3   OH242969   3.021   2.509  11.631  0.1218  0.1779  0.4401
 7185TIP3    H142970   2.934   2.547  11.619  0.2466  0.4742  0.4693
 7185TIP3    H242971   3.048   2.481  11.544 -0.6781 -1.4002  0.6638
 7186TIP3   OH242972   0.664   3.799  12.574 -0.4712  0.3357  0.4096
 7186TIP3    H142973   0.745   3.833  12.612 -0.9880  1.9196  0.1685
 7186TIP3    H242974   0.609   3.779  12.649  0.0057 -0.4287  0.5658
 7187TIP3   OH242975   2.038   5.048  17.031 -0.3142  0.1375  0.2915
 7187TIP3    H142976   1.945   5.059  17.048 -0.0389  1.1462  1.3026
 7187TIP3    H242977   2.049   5.074  16.940 -0.9027  0.8509  0.4099
 7188TIP3   OH242978   0.240   3.087   1.714 -0.3212  0.0839 -0.1405
 7188TIP3    H142979   0.263   3.008   1.665  2.8496  0.4469  0.5017
 7188TIP3    H242980   0.173   3.059   1.775 -0.5822 -1.6573 -1.1631
 7189TIP3   OH242981   1.605   1.753   5.890  0.0820 -0.6018  0.4448
 7189TIP3    H142982   1.649   1.709   5.963  1.8462  1.1349  0.5065
 7189TIP3    H242983   1.545   1.815   5.933  1.6285  0.9235  0.5124
 7190TIP3   OH242984   0.306   2.519   1.210 -0.3850 -0.4205 -0.0871
 7190TIP3    H142985   0.391   2.549   1.240 -0.7909  1.1453 -0.3925
 7190TIP3    H242986   0.321   2.491   1.119  0.0876 -1.6078  0.3393
 7191TIP3   OH242987   6.120   6.128   1.185  0.1627 -0.5643  0.1530
 7191TIP3    H142988   6.161   6.204   1.144 -0.3778 -1.0297 -1.2918
 7191TIP3    H242989   6.027   6.139   1.169  0.0169 -1.1867  0.5300
 7192TIP3   OH242990   3.126   0.749   3.592  0.2413 -0.0389  0.2079
 7192TIP3    H142991   3.164   0.837   3.596 -2.8104  1.3983  0.3120
 7192TIP3    H242992   3.082   0.738   3.676 -0.5486 -1.1349 -0.3325
 7193TIP3   OH242993   6.153   2.785   6.685 -0.2325  0.1010 -0.6550
 7193TIP3    H142994   6.226   2.789   6.623  0.4373 -1.3612 -0.0117
 7193TIP3    H242995   6.075   2.778   6.630  0.0534  1.9618 -1.3604
 7194TIP3   OH242996   2.010   6.181   1.295  0.2261 -0.1270 -0.1488
 7194TIP3    H142997   1.947   6.134   1.349 -0.1357 -1.0779 -1.3646
 7194TIP3    H242998   1.958   6.247   1.250  0.0938 -0.8631 -1.0957
 7195TIP3   OH242999   3.680   3.287  17.267  0.0662 -0.0607 -0.7610
 7195TIP3    H143000   3.722   3.227  17.205  0.4137 -0.3022 -0.2938
 7195TIP3    H243001   3.595   3.246  17.285  0.0654 -0.1160 -0.8865
 7196TIP3   OH243002   2.452   2.076  12.115 -1.1597 -0.2095 -0.3637
 7196TIP3    H143003   2.390   2.076  12.042 -1.6833  0.1544  0.0710
 7196TIP3    H243004   2.400   2.104  12.191 -0.1896  1.3066 -0.2257
 7197TIP3   OH243005   5.737   0.703  16.637  0.3870  0.1689  0.9802
 7197TIP3    H143006   5.759   0.620  16.679 -2.5786 -0.6351  1.1491
 7197TIP3    H243007   5.667   0.740  16.691 -1.7859  0.3249 -1.7042
 7198TIP3   OH243008   0.250   0.060  17.351 -0.1129 -0.3139  0.2268
 7198TIP3    H143009   0.228   0.109  17.272  0.9025 -0.5901 -0.2512
 7198TIP3    H243010   0.334   0.018  17.330 -0.8960 -2.1935  0.6385
 7199TIP3   OH243011   3.389   6.348   5.453  0.3158 -0.4107 -0.1700
 7199TIP3    H143012   3.364   6.335   5.361 -0.1084  1.6266 -0.3899
 7199TIP3    H243013   3.479   6.317   5.458  0.2033 -0.9293 -1.1855
 7200TIP3   OH243014   3.924   6.318  16.828 -0.5927 -0.1809 -0.5802
 7200TIP3    H143015   3.903   6.382  16.896 -0.5614 -0.1945 -0.5573
 7200TIP3    H243016   4.015   6.335  16.806 -0.8746  0.4602 -1.3013
 7201TIP3   OH243017   4.382   1.776   2.774  0.1671  0.1212 -1.1743
 7201TIP3    H143018   4.424   1.861   2.787  0.7537 -0.1803 -1.0681
 7201TIP3    H243019   4.397   1.728   2.855 -2.6491  0.9172 -0.0702
 7202TIP3   OH243020   1.632   6.373  15.277 -0.1800  0.3391 -0.0283
 7202TIP3    H143021   1.656   6.443  15.338  0.0944 -0.5371  0.9016
 7202TIP3    H243022   1.543   6.349  15.303  0.1200 -0.3735  0.3730
 7203TIP3   OH243023   3.445   5.937  14.610  0.2548 -0.2751  0.1402
 7203TIP3    H143024   3.382   6.008  14.595  0.9382  0.3633  0.2207
 7203TIP3    H243025   3.474   5.912  14.522  1.9014  1.3078  0.1654
 7204TIP3   OH243026   2.111   2.725   2.224  0.2014 -0.3419 -0.3764
 7204TIP3    H143027   2.190   2.763   2.186  0.0426  0.1089 -0.2588
 7204TIP3    H243028   2.119   2.631   2.206  1.5294 -0.5408  0.9825
 7205TIP3   OH243029   1.469   3.540   2.318 -0.0974 -0.1877  0.1480
 7205TIP3    H143030   1.430   3.603   2.379  0.3370  0.1065  0.1232
 7205TIP3    H243031   1.500   3.593   2.245 -2.1593 -0.7135 -1.1719
 7206TIP3   OH243032   4.506   6.604  13.043  0.7216  0.4788 -0.0068
 7206TIP3    H143033   4.429   6.581  12.991  0.7500  1.3655 -0.4485
 7206TIP3    H243034   4.540   6.520  13.074 -0.4577  0.0769  0.2501
 7207TIP3   OH243035   5.091   4.585   2.465  0.0038 -0.3802  0.8105
 7207TIP3    H143036   5.105   4.509   2.408 -1.9886  0.4898 -0.9834
 7207TIP3    H243037   5.087   4.659   2.405 -0.7543  0.7956  2.2401
 7208TIP3   OH243038   5.732   3.638  11.691 -0.1142  0.0240  0.5292
 7208TIP3    H143039   5.670   3.615  11.622 -0.3820 -0.3886  0.9024
 7208TIP3    H243040   5.679   3.639  11.771  0.5210 -1.2431  0.9979
 7209TIP3   OH243041   3.957   3.358  11.771 -0.0123  0.2226  0.3121
 7209TIP3    H143042   3.875   3.336  11.814 -0.2576 -1.9157 -1.0560
 7209TIP3    H243043   3.946   3.448  11.741 -3.2738 -0.9022 -2.6282
 7210TIP3   OH243044   6.293   5.233   1.778  0.0638 -0.1427 -0.0874
 7210TIP3    H143045   6.219   5.260   1.833  0.3170  1.6536 -0.5686
 7210TIP3    H243046   6.253   5.206   1.696 -0.0332  2.5952 -1.0347
 7211TIP3   OH243047   1.352   3.664   2.086  0.5036  0.9029  0.5649
 7211TIP3    H143048   1.279   3.716   2.052  0.9976  0.0643 -2.0748
 7211TIP3    H243049   1.323   3.573   2.077  1.5933  0.5865  0.0844
 7212TIP3   OH243050   1.092   3.637  16.302  0.2683  0.2378  0.4337
 7212TIP3    H143051   1.060   3.614  16.214  0.9075  0.6001  0.0972
 7212TIP3    H243052   1.157   3.569  16.322  1.9153  1.5160 -0.4183
 7213TIP3   OH243053   0.768   4.469  16.492 -0.1249  0.1656  0.5091
 7213TIP3    H143054   0.837   4.491  16.430 -0.7558 -0.4370 -0.4271
 7213TIP3    H243055   0.771   4.539  16.557 -0.6519  1.8772 -1.2124
 7214TIP3   OH243056   0.245   0.495  11.770  0.6969 -0.3215  0.0023
 7214TIP3    H143057   0.153   0.469  11.774  0.5189 -0.3900 -2.6838
 7214TIP3    H243058   0.243   0.591  11.779  0.2967 -0.2820 -0.4464
 7215TIP3   OH243059   2.882   1.672  15.194 -0.3059 -0.1501 -0.2334
 7215TIP3    H143060   2.807   1.651  15.138  0.6656  1.1471 -2.1168
 7215TIP3    H243061   2.908   1.587  15.230 -0.0988 -1.3577 -2.9376
 7216TIP3   OH243062   4.798   4.143  14.247 -0.0922  0.1239 -0.1434
 7216TIP3    H143063   4.794   4.187  14.162 -0.7461  0.1165 -0.1157
 7216TIP3    H243064   4.868   4.078  14.236 -1.6702 -1.4391 -1.4264
 7217TIP3   OH243065   0.415   1.142   2.809 -0.0987  0.5041 -0.2920
 7217TIP3    H143066   0.485   1.111   2.866 -0.7209  0.4028  0.4391
 7217TIP3    H243067   0.336   1.102   2.845 -0.8243  2.2657  0.1643
 7218TIP3   OH243068   1.129   1.694  15.263  0.1404  0.1170  0.0329
 7218TIP3    H143069   1.140   1.790  15.262  1.4757  0.0450  1.7942
 7218TIP3    H243070   1.173   1.666  15.344  1.8191 -2.2165 -1.5678
 7219TIP3   OH243071   0.462   1.267  12.496  0.3250 -0.3104 -0.5056
 7219TIP3    H143072   0.374   1.250  12.462 -0.3460 -0.0068  0.9714
 7219TIP3    H243073   0.506   1.182  12.490 -0.3490 -0.6760 -0.4980
 7220TIP3   OH243074   2.001   4.939   0.053 -0.5071 -0.1085 -0.2335
 7220TIP3    H143075   1.921   4.945   0.106 -0.2846  0.1516  0.0797
 7220TIP3    H243076   2.040   5.027   0.059 -0.2620 -0.1981 -0.4874
 7221TIP3   OH243077   2.951   5.389   2.612 -0.3098 -0.3848 -0.0687
 7221TIP3    H143078   3.023   5.384   2.674  1.6972 -3.8654 -2.3605
 7221TIP3    H243079   2.917   5.478   2.621  3.8295  1.2427  1.5839
 7222TIP3   OH243080   4.835   6.559   3.464 -0.1007  0.4739 -0.2370
 7222TIP3    H143081   4.807   6.624   3.528  0.4626  0.3451  0.1516
 7222TIP3    H243082   4.931   6.564   3.465 -0.0151 -0.8065  0.2685
 7223TIP3   OH243083   2.447   3.221   0.995 -0.1649  0.0779  0.3483
 7223TIP3    H143084   2.495   3.171   0.929 -0.9999 -0.9313  0.4847
 7223TIP3    H243085   2.355   3.214   0.969 -0.4651  0.0333  1.3702
 7224TIP3   OH243086   5.049   2.906  14.993  0.1433  0.1234 -0.4298
 7224TIP3    H143087   5.105   2.974  15.030 -1.4305  0.7373  0.9541
 7224TIP3    H243088   5.016   2.943  14.912  1.2800 -0.0492 -1.0017
 7225TIP3   OH243089   3.500   5.778  13.086 -0.0504  0.7438 -0.1787
 7225TIP3    H143090   3.574   5.834  13.063  0.4996 -0.2799 -1.0061
 7225TIP3    H243091   3.501   5.709  13.019 -1.2144  0.2194  0.3202
 7226TIP3   OH243092   1.603   4.067  12.810  0.2897 -0.6611 -0.0260
 7226TIP3    H143093   1.538   3.997  12.813  1.5151 -1.7896  0.7295
 7226TIP3    H243094   1.671   4.035  12.752  0.7928 -0.0295  0.2016
 7227TIP3   OH243095   3.533   1.092  16.850  0.8504  0.4895  0.6887
 7227TIP3    H143096   3.564   1.008  16.818 -3.0118 -0.3724 -1.4162
 7227TIP3    H243097   3.477   1.070  16.925 -0.0817  1.1338  0.2056
 7228TIP3   OH243098   1.144   5.461  12.491 -0.5421 -0.0642  0.1521
 7228TIP3    H143099   1.079   5.516  12.534  1.0888  1.4117  0.8155
 7228TIP3    H243100   1.131   5.478  12.397  0.0378  1.5898  0.3533
 7229TIP3   OH243101   3.859   2.466  11.414 -0.2306  0.2191  0.2197
 7229TIP3    H143102   3.764   2.475  11.424  0.1276  2.6839  2.4908
 7229TIP3    H243103   3.892   2.459  11.504  1.8487  1.3467 -0.3938
 7230TIP3   OH243104   2.871   2.430  16.828  0.4416 -0.5054 -0.2056
 7230TIP3    H143105   2.832   2.505  16.784  0.6599 -1.5541 -2.3333
 7230TIP3    H243106   2.813   2.411  16.901 -0.4965  0.7363 -0.6039
 7231TIP3   OH243107   0.284   4.828  14.533  0.1590  0.4222 -0.0966
 7231TIP3    H143108   0.359   4.770  14.538  0.2682  0.6921  2.6650
 7231TIP3    H243109   0.253   4.819  14.443  2.6664 -0.6965 -0.9306
 7232TIP3   OH243110   5.561   2.137  17.290 -0.1166 -0.1684  0.2856
 7232TIP3    H143111   5.622   2.081  17.338 -0.0942  1.4825  2.3291
 7232TIP3    H243112   5.475   2.113  17.324 -0.1602  0.5864  0.7328
 7233TIP3   OH243113   2.615   4.883  13.518 -0.2455 -0.7589  0.5474
 7233TIP3    H143114   2.623   4.788  13.526  0.1241 -0.5743  2.8889
 7233TIP3    H243115   2.526   4.902  13.548  0.2658 -0.2406  1.8158
 7234TIP3   OH243116   0.315   3.548   0.962  0.8365 -0.5654 -0.0446
 7234TIP3    H143117   0.348   3.522   1.048 -1.0037 -0.4123  0.7662
 7234TIP3    H243118   0.385   3.601   0.924  0.6468  1.8596  2.6280
 7235TIP3   OH243119   4.632   6.016   0.762  0.3766 -0.7400 -0.8950
 7235TIP3    H143120   4.715   5.969   0.771 -0.4086 -1.8910  0.8784
 7235TIP3    H243121   4.580   5.961   0.703  0.5986 -0.3951 -1.4197
 7236TIP3   OH243122   3.933   2.217   5.127  0.1905  0.3336 -0.1834
 7236TIP3    H143123   3.947   2.128   5.157 -0.0494 -0.0582 -1.1960
 7236TIP3    H243124   3.868   2.210   5.058 -1.1844  1.5168  0.9274
 7237TIP3   OH243125   5.043   3.757   5.545  0.3822  0.0875  0.0400
 7237TIP3    H143126   5.133   3.771   5.516  0.5485  0.6284  0.8106
 7237TIP3    H243127   5.001   3.714   5.470  2.1333 -3.3917  0.8635
 7238TIP3   OH243128   0.734   5.500  16.407 -0.6482 -0.1082 -0.2112
 7238TIP3    H143129   0.653   5.546  16.427 -0.0828  0.4604  0.8849
 7238TIP3    H243130   0.718   5.409  16.431 -1.5166 -0.3815 -1.6627
 7239TIP3   OH243131   1.919   4.311  17.020 -0.1971  0.1690 -0.0198
 7239TIP3    H143132   1.897   4.405  17.016  1.1178  0.4651 -0.8648
 7239TIP3    H243133   1.838   4.267  16.996 -0.8400  1.0870  0.3811
 7240TIP3   OH243134   5.515   0.733  14.373 -0.0107  0.4427 -0.2914
 7240TIP3    H143135   5.535   0.651  14.419  3.5532  1.0926 -0.3403
 7240TIP3    H243136   5.428   0.758  14.404 -0.7699 -2.8036  0.4991
 7241TIP3   OH243137   3.300   0.191  13.520 -0.1940  0.5910 -0.1003
 7241TIP3    H143138   3.324   0.259  13.583 -1.2559  1.3762 -0.5258
 7241TIP3    H243139   3.204   0.190  13.520 -0.2017 -0.6714 -0.3627
 7242TIP3   OH243140   1.793   4.620  16.608  0.0814 -0.0532 -0.0688
 7242TIP3    H143141   1.865   4.682  16.595  1.7161 -1.5306  1.3488
 7242TIP3    H243142   1.720   4.674  16.636  0.6815  1.4826 -1.2994
 7243TIP3   OH243143   2.187   5.517   0.489 -0.1633  0.1363  0.5975
 7243TIP3    H143144   2.204   5.573   0.413  0.1557  0.2630  0.7617
 7243TIP3    H243145   2.092   5.508   0.491 -0.1583 -0.1020  0.0152
 7244TIP3   OH243146   1.000   3.917  15.839 -0.7429 -0.7828 -0.6724
 7244TIP3    H143147   0.934   3.951  15.777  0.5549  2.8155 -0.3658
 7244TIP3    H243148   1.069   3.881  15.783 -1.1578 -0.7808 -1.1879
 7245TIP3   OH243149   1.446   4.218   3.727 -0.0028  0.3849  0.0689
 7245TIP3    H143150   1.426   4.129   3.700  1.9130 -0.2728  0.6382
 7245TIP3    H243151   1.540   4.216   3.748 -0.0466  2.3849  0.6468
 7246TIP3   OH243152   5.959   3.629  14.271 -0.1506 -0.0567 -0.0091
 7246TIP3    H143153   6.053   3.619  14.283  0.2268  2.0802 -0.9147
 7246TIP3    H243154   5.949   3.701  14.209 -2.3939  0.1223  0.4629
 7247TIP3   OH243155   2.620   4.334  13.809 -0.2000 -0.1750  0.4271
 7247TIP3    H143156   2.598   4.242  13.794 -0.5976  0.0517 -0.4715
 7247TIP3    H243157   2.709   4.342  13.774 -1.0438  0.2994 -1.7909
 7248TIP3   OH243158   1.986   0.138  17.163  0.3923 -0.0467  0.1912
 7248TIP3    H143159   1.902   0.123  17.205  0.6507  0.9336  1.1312
 7248TIP3    H243160   1.981   0.092  17.080 -1.1913  0.2602  0.0913
 7249TIP3   OH243161   4.489   1.703  11.814  0.3536  0.4933 -0.0538
 7249TIP3    H143162   4.472   1.649  11.737 -3.2390  1.0862  0.1585
 7249TIP3    H243163   4.542   1.776  11.782 -0.6173  0.4422 -1.8760
 7250TIP3   OH243164   4.391   4.662   2.082 -0.1936  0.6090 -0.2426
 7250TIP3    H143165   4.481   4.645   2.110 -0.6869 -1.8144  0.1338
 7250TIP3    H243166   4.342   4.675   2.164 -0.0901  2.8118 -0.4763
 7251TIP3   OH243167   0.296   5.057   3.175 -0.3740 -0.0943  0.2332
 7251TIP3    H143168   0.213   5.064   3.222  0.0348  1.3528  0.7760
 7251TIP3    H243169   0.300   5.137   3.122  0.2220 -0.6312 -0.5599
 7252TIP3   OH243170   5.210   4.538   0.618  0.2533 -0.0766  0.3693
 7252TIP3    H143171   5.241   4.625   0.643  0.6933 -0.8275  2.7577
 7252TIP3    H243172   5.277   4.478   0.652 -0.0245 -1.3615 -1.2387
 7253TIP3   OH243173   5.497   3.963  17.443  0.4993 -0.4520 -0.3503
 7253TIP3    H143174   5.579   3.920  17.419 -0.2955 -0.6955 -2.9421
 7253TIP3    H243175   5.459   3.991  17.360 -1.1053  1.4730  0.9214
 7254TIP3   OH243176   2.212   3.421  10.770 -0.3950  0.3660 -0.4813
 7254TIP3    H143177   2.301   3.389  10.751 -0.8839 -0.8661 -0.8449
 7254TIP3    H243178   2.188   3.377  10.851 -1.4146 -0.9648 -1.4449
 7255TIP3   OH243179   2.131   6.574   5.071  0.1456  0.6350  0.1485
 7255TIP3    H143180   2.193   6.589   4.999 -1.4138 -0.0033 -1.3849
 7255TIP3    H243181   2.164   6.629   5.142  1.5769  1.5351 -1.1458
 7256TIP3   OH243182   0.372   1.097   2.246  0.7130  0.1971 -0.3354
 7256TIP3    H143183   0.393   1.190   2.241  0.8878  0.2228  0.6249
 7256TIP3    H243184   0.355   1.071   2.155  1.9182  0.8713 -0.7769
 7257TIP3   OH243185   3.506   3.149  15.981 -0.0089 -0.4855  0.1217
 7257TIP3    H143186   3.479   3.236  15.950 -0.9422 -1.0848 -0.8288
 7257TIP3    H243187   3.549   3.166  16.065 -0.5962  0.8504  0.1878
 7258TIP3   OH243188   2.800   3.387   3.125 -0.3486 -0.1251  0.0352
 7258TIP3    H143189   2.873   3.450   3.125  0.0837 -0.4301  3.2338
 7258TIP3    H243190   2.734   3.428   3.180 -2.3003 -0.2784 -2.0657
 7259TIP3   OH243191   2.415   1.114   3.318  0.1003 -0.3580 -0.4998
 7259TIP3    H143192   2.335   1.100   3.268  1.1523 -2.1009 -1.8151
 7259TIP3    H243193   2.484   1.119   3.252  1.3881 -1.4522  0.6906
 7260TIP3   OH243194   5.623   2.235   5.985  0.4035  0.3387  0.0679
 7260TIP3    H143195   5.670   2.299   5.933  0.2983 -0.3058 -0.8354
 7260TIP3    H243196   5.677   2.223   6.063  0.8268  0.9160 -0.1338
 7261TIP3   OH243197   5.176   6.588  11.420 -0.0484  0.0357  0.2020
 7261TIP3    H143198   5.166   6.637  11.339  3.0066 -0.2915 -0.5242
 7261TIP3    H243199   5.227   6.646  11.477  2.5256 -1.6152 -0.2180
 7262TIP3   OH243200   1.337   1.797   0.093 -0.4955  0.0037  0.1552
 7262TIP3    H143201   1.410   1.834   0.043  0.1280 -0.3261  0.8114
 7262TIP3    H243202   1.286   1.874   0.121 -0.9773  0.1801 -1.1540
 7263TIP3   OH243203   4.850   4.679  14.435  0.2387 -0.1543  0.1502
 7263TIP3    H143204   4.781   4.686  14.369 -0.6437 -0.9211  0.9547
 7263TIP3    H243205   4.920   4.630  14.392 -0.2110 -0.4015 -0.3068
 7264TIP3   OH243206   4.995   4.683  15.636  0.6802  0.0092 -0.0746
 7264TIP3    H143207   5.063   4.666  15.571  0.0025 -0.5996 -0.6434
 7264TIP3    H243208   4.958   4.768  15.610  0.7476  0.0029 -0.1925
 7265TIP3   OH243209   5.003   2.344   5.796  0.1246 -0.2916  0.0337
 7265TIP3    H143210   4.918   2.353   5.839 -0.0100  0.6322 -0.3961
 7265TIP3    H243211   5.017   2.249   5.789 -1.0004 -0.4593 -0.1323
 7266TIP3   OH243212   3.502   5.986  11.406 -0.0227  0.1658 -0.5371
 7266TIP3    H143213   3.431   6.008  11.345 -1.0845 -2.0416 -0.1983
 7266TIP3    H243214   3.472   6.019  11.491  0.3075  1.0259 -0.7483
 7267TIP3   OH243215   1.628   1.786   3.527 -0.3580 -0.4908  0.1742
 7267TIP3    H143216   1.539   1.777   3.492  0.2598  0.6905 -1.8102
 7267TIP3    H243217   1.685   1.757   3.457  0.8756 -1.1987  1.4182
 7268TIP3   OH243218   0.256   2.090  10.969  0.4061 -0.2825  0.2844
 7268TIP3    H143219   0.236   2.128  10.883  0.5444  1.6203  1.0448
 7268TIP3    H243220   0.344   2.054  10.960  0.3329 -0.2990 -0.4243
 7269TIP3   OH243221   0.773   4.577   5.324  0.2404 -0.3600  0.2930
 7269TIP3    H143222   0.698   4.619   5.281 -1.3600 -0.7025  2.5619
 7269TIP3    H243223   0.800   4.509   5.263 -1.7480 -0.6563 -0.3470
 7270TIP3   OH243224   6.319   3.571  12.404  0.1448  0.0257 -0.6884
 7270TIP3    H143225   6.254   3.500  12.400  1.6642 -1.4446 -0.2173
 7270TIP3    H243226   6.329   3.589  12.497  1.2091 -0.5230 -0.6901
 7271TIP3   OH243227   4.637   1.566  14.246  0.3369 -0.3979 -0.0344
 7271TIP3    H143228   4.586   1.518  14.181 -0.7081 -1.7098  1.6837
 7271TIP3    H243229   4.727   1.559  14.215 -0.1927 -0.4798 -1.6411
 7272TIP3   OH243230   3.514   2.741   3.791  0.3063 -0.3015 -0.5710
 7272TIP3    H143231   3.509   2.745   3.886 -0.1668 -1.2880 -0.5463
 7272TIP3    H243232   3.438   2.792   3.760  1.1975  1.1643 -0.4657
 7273TIP3   OH243233   0.790   4.365   5.112  0.6986 -0.7156 -0.4006
 7273TIP3    H143234   0.831   4.286   5.147  0.8950 -1.2465 -1.7540
 7273TIP3    H243235   0.854   4.401   5.052  0.0281 -0.3569 -0.9221
 7274TIP3   OH243236   3.763   1.444  12.495  0.6373  0.4091 -0.3601
 7274TIP3    H143237   3.757   1.374  12.559 -0.4210  1.3599  0.6247
 7274TIP3    H243238   3.816   1.407  12.424  2.9955 -0.2726  1.5975
 7275TIP3   OH243239   1.832   4.568   5.875 -0.6109 -0.1526 -0.0761
 7275TIP3    H143240   1.774   4.524   5.937 -2.1227  1.8138  0.0364
 7275TIP3    H243241   1.781   4.643   5.845  1.4067  0.9143 -1.0425
 7276TIP3   OH243242   1.622   0.066  12.334  0.0616  0.0943 -0.1575
 7276TIP3    H143243   1.578   0.071  12.249 -0.3429  1.9786  0.1119
 7276TIP3    H243244   1.619  -0.027  12.357 -1.4895 -0.2020 -1.3515
 7277TIP3   OH243245   4.087   0.056  16.717 -0.0386  0.0027 -0.1971
 7277TIP3    H143246   4.001   0.089  16.741 -0.8694 -2.6989  0.9045
 7277TIP3    H243247   4.142   0.135  16.709 -2.5193  1.7869 -0.8300
 7278TIP3   OH243248   4.088   2.956   3.298 -0.3304 -0.8158 -0.2577
 7278TIP3    H143249   4.060   3.041   3.330  1.9326  0.1101 -0.6008
 7278TIP3    H243250   4.138   2.918   3.369 -1.0753 -1.7613 -0.2166
 7279TIP3   OH243251   0.851   2.352  17.407 -0.4933 -0.5750  0.7230
 7279TIP3    H143252   0.830   2.443  17.425  0.3945  0.0853 -1.2675
 7279TIP3    H243253   0.909   2.355  17.331  2.0178 -2.6119  2.3587
 7280TIP3   OH243254   0.935   5.270  11.659 -0.4604 -0.0143 -0.2611
 7280TIP3    H143255   0.870   5.341  11.662  0.5970  1.0411 -1.2434
 7280TIP3    H243256   1.019   5.316  11.656  0.3190 -1.3515  0.4861
 7281TIP3   OH243257   2.721   4.687   0.886 -0.0881  0.0012 -0.1468
 7281TIP3    H143258   2.726   4.745   0.963 -0.0485 -0.5928  0.3055
 7281TIP3    H243259   2.630   4.657   0.885 -0.0086 -0.2448 -0.1378
 7282TIP3   OH243260   1.173   2.436  11.242 -0.3251  0.6233  0.0621
 7282TIP3    H143261   1.230   2.511  11.259 -0.6292  1.0764 -0.8507
 7282TIP3    H243262   1.149   2.445  11.150  1.4989 -1.9191 -0.7519
 7283TIP3   OH243263   3.599   1.152   2.669 -0.1072  0.4314  0.9013
 7283TIP3    H143264   3.687   1.145   2.632  0.3334 -1.6056  2.1574
 7283TIP3    H243265   3.587   1.245   2.687  0.5709  1.1910 -1.9891
 7284TIP3   OH243266   6.413   2.050   2.424 -0.5523  0.0983  0.5003
 7284TIP3    H143267   6.452   2.034   2.510 -3.2990  0.5960  1.9434
 7284TIP3    H243268   6.412   1.964   2.382 -0.1207 -0.3514  1.3830
 7285TIP3   OH243269   0.431   1.580   3.442 -0.3506 -0.2266 -0.3938
 7285TIP3    H143270   0.366   1.632   3.489 -2.0304 -1.9338 -0.7456
 7285TIP3    H243271   0.475   1.643   3.385 -1.7747  0.9510 -0.2358
 7286TIP3   OH243272   6.167   4.116  15.373 -0.1036  0.0436  0.2748
 7286TIP3    H143273   6.180   4.196  15.423  0.3617  0.4993 -0.5510
 7286TIP3    H243274   6.148   4.049  15.439 -0.0847  0.7440  1.0045
 7287TIP3   OH243275   0.947   4.593   5.758 -0.5716  0.4030 -0.4560
 7287TIP3    H143276   0.933   4.642   5.839  1.6591  1.7018 -0.7736
 7287TIP3    H243277   1.006   4.522   5.782 -2.3389 -1.1131 -0.3796
 7288TIP3   OH243278   6.661   3.215   4.014  0.1595  0.1394 -0.0035
 7288TIP3    H143279   6.697   3.205   3.926 -1.4310  0.7575 -0.7772
 7288TIP3    H243280   6.726   3.265   4.062  0.1868  1.5868 -1.4630
 7289TIP3   OH243281   0.159   2.636  13.371  0.1033  0.0052  0.4959
 7289TIP3    H143282   0.176   2.634  13.466 -0.5141 -0.2823  0.6042
 7289TIP3    H243283   0.070   2.601  13.362  0.2481 -0.1934 -0.2131
 7290TIP3   OH243284   0.084   3.974   2.219 -0.3665 -0.1198  0.4582
 7290TIP3    H143285   0.062   3.978   2.312 -0.5136  0.4645  0.4062
 7290TIP3    H243286   0.075   3.882   2.195  1.1617 -0.5512  1.3877
 7291TIP3   OH243287   3.625   2.017   1.126  0.0792 -0.1941  0.0611
 7291TIP3    H143288   3.597   1.961   1.198  0.0140 -0.4836 -0.1898
 7291TIP3    H243289   3.715   1.989   1.107 -0.8146 -2.0597 -1.8218
 7292TIP3   OH243290   4.849   2.395   1.381 -0.2031 -0.0673 -0.1073
 7292TIP3    H143291   4.777   2.346   1.342 -1.1733  1.3138 -0.1119
 7292TIP3    H243292   4.809   2.477   1.412  1.2213  0.4144  0.5528
 7293TIP3   OH243293   4.567   0.598  14.739 -0.1666 -0.1097  0.4289
 7293TIP3    H143294   4.552   0.568  14.829 -0.2905 -0.5455  0.2635
 7293TIP3    H243295   4.596   0.520  14.692 -0.6185 -0.0006 -0.0336
 7294TIP3   OH243296   3.955   2.128   5.552 -0.2443  0.1607 -0.1692
 7294TIP3    H143297   3.942   2.150   5.645 -0.0639  1.3498 -0.4065
 7294TIP3    H243298   3.883   2.174   5.507  0.4639  0.7375 -0.7445
 7295TIP3   OH243299   2.698   3.287  14.461  0.4281 -0.9573  0.1956
 7295TIP3    H143300   2.611   3.325  14.469  0.4514 -0.7080 -0.5771
 7295TIP3    H243301   2.757   3.363  14.455  0.5185 -1.0945 -0.9190
 7296TIP3   OH243302   4.920   0.252   5.583  0.5742  0.1281 -0.4152
 7296TIP3    H143303   4.866   0.241   5.504 -1.8695  0.5195  1.0749
 7296TIP3    H243304   4.965   0.336   5.569  3.1919 -1.4993 -2.9102
 7297TIP3   OH243305   4.505   2.745  14.883  0.2259  0.6316  0.3893
 7297TIP3    H143306   4.528   2.675  14.823 -0.6933  0.0667  0.6775
 7297TIP3    H243307   4.524   2.825  14.835 -0.5519  0.1892 -0.6905
 7298TIP3   OH243308   0.331   0.928   0.501 -0.0067  0.5418 -0.3170
 7298TIP3    H143309   0.283   0.849   0.523 -0.6313  1.0915  0.3766
 7298TIP3    H243310   0.330   0.932   0.405  0.1791 -0.3634 -0.3629
 7299TIP3   OH243311   3.444   2.738  17.024 -0.8791 -0.5947  0.4540
 7299TIP3    H143312   3.527   2.738  16.978  0.4972 -1.3948  2.7923
 7299TIP3    H243313   3.385   2.787  16.966  1.9209  2.5824 -0.0595
 7300TIP3   OH243314   4.305   6.661   2.651 -0.5102 -0.2868 -0.6348
 7300TIP3    H143315   4.218   6.695   2.672 -0.1188 -0.0702  0.7645
 7300TIP3    H243316   4.299   6.568   2.672  0.1521  0.1017  1.4933
 7301TIP3   OH243317   5.167   3.323  12.226  0.1499 -0.5351 -0.1849
 7301TIP3    H143318   5.250   3.352  12.266 -0.5935  1.4904  0.0102
 7301TIP3    H243319   5.174   3.350  12.135 -1.1863  1.8743  0.3436
 7302TIP3   OH243320   4.415   4.522  16.570  0.1642 -0.4729 -0.2490
 7302TIP3    H143321   4.507   4.500  16.561  0.1814 -0.5065  0.0105
 7302TIP3    H243322   4.368   4.452  16.524  0.1252 -2.0254  2.0054
 7303TIP3   OH243323   4.749   4.435  13.740  0.2694  0.2475 -0.0339
 7303TIP3    H143324   4.763   4.517  13.693 -0.9543  0.9798  0.8175
 7303TIP3    H243325   4.668   4.399  13.703  0.3215 -0.1212  0.2038
 7304TIP3   OH243326   3.353   1.215   5.825  0.2893  0.2341 -0.0671
 7304TIP3    H143327   3.389   1.302   5.846  1.8529 -0.9896  2.9797
 7304TIP3    H243328   3.428   1.157   5.828 -0.9390 -1.4547 -0.5821
 7305TIP3   OH243329   2.230   3.083   2.078  0.2639  0.2491  0.3407
 7305TIP3    H143330   2.221   3.008   2.019 -0.4333 -0.1774  0.9852
 7305TIP3    H243331   2.143   3.096   2.114  0.3770  1.3908  0.2208
 7306TIP3   OH243332   2.828   0.166  17.479  0.0665  0.3404  0.3704
 7306TIP3    H143333   2.816   0.230  17.550 -1.5620  0.8016 -0.2673
 7306TIP3    H243334   2.906   0.196  17.433 -0.0711  1.2775  0.7063
 7307TIP3   OH243335   2.170   2.200   0.665  0.1375 -0.0323 -0.2701
 7307TIP3    H143336   2.262   2.223   0.650  0.5174 -0.2944  1.3590
 7307TIP3    H243337   2.157   2.119   0.616  1.1027 -0.5441  0.2628
 7308TIP3   OH243338   0.830   3.324  12.465 -0.1733 -0.1185 -0.1165
 7308TIP3    H143339   0.744   3.366  12.458 -0.3231 -0.5399 -1.0164
 7308TIP3    H243340   0.810   3.233  12.487  0.0200 -0.2921 -0.6435
 7309TIP3   OH243341   5.632   4.716   4.940 -0.8288 -0.5465  0.4760
 7309TIP3    H143342   5.685   4.680   5.011  0.9276 -1.2357 -1.0927
 7309TIP3    H243343   5.686   4.786   4.903 -0.9007 -1.3180 -1.2086
 7310TIP3   OH243344   2.427   0.365   3.730  0.3170  0.0777  0.6363
 7310TIP3    H143345   2.493   0.368   3.799 -1.7441 -2.0888  2.8922
 7310TIP3    H243346   2.431   0.275   3.697 -0.9704  0.1233  0.2981
 7311TIP3   OH243347   5.208   2.653   4.743 -0.2058 -0.2323 -0.3390
 7311TIP3    H143348   5.270   2.638   4.671 -1.1300 -5.8779 -0.4485
 7311TIP3    H243349   5.258   2.631   4.822 -0.4472  1.4130  0.2928
 7312TIP3   OH243350   2.832   3.119  15.385  0.0717  0.3752  0.0040
 7312TIP3    H143351   2.825   3.088  15.295  2.2393 -1.7411  0.4582
 7312TIP3    H243352   2.901   3.065  15.424 -0.4835  1.5061  2.8244
 7313TIP3   OH243353   5.123   4.838   5.921  0.3181 -0.1718  0.4974
 7313TIP3    H143354   5.124   4.868   6.012  1.2471  1.5032  0.0008
 7313TIP3    H243355   5.216   4.830   5.899  0.0876 -1.3342 -0.0812
 7314TIP3   OH243356   3.150   6.501  12.904  0.0964  0.0862  0.7552
 7314TIP3    H143357   3.116   6.515  12.993 -0.1607  0.1017  0.6543
 7314TIP3    H243358   3.106   6.422  12.874 -2.0253  1.6277 -0.4373
 7315TIP3   OH243359   4.037   5.480   2.139  0.0063 -0.2993  0.1120
 7315TIP3    H143360   3.981   5.466   2.063  1.3031 -0.6999 -0.7942
 7315TIP3    H243361   4.057   5.574   2.137  0.8775 -0.4895 -0.6617
 7316TIP3   OH243362   3.394   2.719  11.377 -0.8167  0.4717 -0.1560
 7316TIP3    H143363   3.354   2.803  11.354  1.6733  1.7153 -0.2284
 7316TIP3    H243364   3.471   2.712  11.321  0.3799 -0.6960  1.5243
 7317TIP3   OH243365   0.088   4.352   5.710 -0.2297 -0.0305 -0.4617
 7317TIP3    H143366   0.050   4.411   5.775 -0.2056 -2.3451  1.8373
 7317TIP3    H243367   0.023   4.347   5.640 -1.3278  0.8048  0.4637
 7318TIP3   OH243368   4.629   0.070  15.643  0.0113 -0.1166  0.1166
 7318TIP3    H143369   4.692   0.122  15.693 -0.7311  0.1477  0.8003
 7318TIP3    H243370   4.594   0.130  15.577 -0.5140  0.1386  0.6165
 7319TIP3   OH243371   0.734   5.054  12.199  0.5774  0.1059 -0.2125
 7319TIP3    H143372   0.656   5.109  12.206  0.3288 -0.4394  1.8225
 7319TIP3    H243373   0.753   5.052  12.105 -0.2244  2.4814 -0.4974
 7320TIP3   OH243374   0.455   3.975  12.448 -0.1218 -0.0962  0.4998
 7320TIP3    H143375   0.515   3.939  12.514  0.3827  0.3185  0.2778
 7320TIP3    H243376   0.468   3.919  12.371  1.5080  1.1842 -0.2302
 7321TIP3   OH243377   3.199   0.092  16.875 -0.1278 -0.4307  0.3618
 7321TIP3    H143378   3.275   0.149  16.862  0.1141 -0.7131  0.4913
 7321TIP3    H243379   3.132   0.148  16.914 -0.3387  0.0657 -0.6809
 7322TIP3   OH243380   0.935   2.309   0.950  0.2991 -0.1920 -0.1408
 7322TIP3    H143381   0.932   2.390   0.900 -0.1378 -0.4418 -0.5401
 7322TIP3    H243382   0.903   2.242   0.889  2.2867 -0.9828 -0.4085
 7323TIP3   OH243383   0.175   4.416  16.291  0.5335  0.2754 -0.1288
 7323TIP3    H143384   0.098   4.448  16.339  1.0898 -0.7384  1.5276
 7323TIP3    H243385   0.139   4.367  16.217 -0.4571 -0.4427  0.7953
 7324TIP3   OH243386   2.927   1.213   3.470  0.2169 -0.1968  0.1240
 7324TIP3    H143387   2.994   1.157   3.431 -0.7686 -1.2598 -0.1027
 7324TIP3    H243388   2.951   1.218   3.562  0.3141 -1.0341  0.1556
 7325TIP3   OH243389   5.548   1.060   0.430 -0.3276  0.1323  0.1434
 7325TIP3    H143390   5.550   1.156   0.435  0.7309  0.0859  0.9874
 7325TIP3    H243391   5.510   1.041   0.345  0.2750  1.3278 -0.4190
 7326TIP3   OH243392   0.024   1.204  12.043  0.3877  0.5406  0.6308
 7326TIP3    H143393  -0.068   1.189  12.026  0.1135 -0.3438  2.6089
 7326TIP3    H243394   0.070   1.137  11.993  0.1997  2.3402 -2.1716
 7327TIP3   OH243395   2.333   4.750  16.946  0.6522  0.3394 -0.7617
 7327TIP3    H143396   2.405   4.711  16.896  1.1527  2.5927 -1.8992
 7327TIP3    H243397   2.320   4.837  16.908 -1.6433  0.6224  0.4473
 7328TIP3   OH243398   2.976   4.367  12.694  0.3031  0.0647  0.0014
 7328TIP3    H143399   2.996   4.367  12.600  3.7628  0.5274  0.5861
 7328TIP3    H243400   2.925   4.447  12.708  0.3137  0.3351 -1.3847
 7329TIP3   OH243401   1.299   3.431   5.148 -0.1061  0.2687  0.3685
 7329TIP3    H143402   1.369   3.372   5.121 -1.2826 -0.1718 -2.0437
 7329TIP3    H243403   1.343   3.498   5.200  1.6664 -1.3252  1.0531
 7330TIP3   OH243404   2.373   4.981   2.873  0.3375  0.2199 -0.7677
 7330TIP3    H143405   2.358   5.061   2.822  2.0089  0.2854 -1.2010
 7330TIP3    H243406   2.321   4.915   2.827 -0.9033  0.9919 -0.5244
 7331TIP3   OH243407   4.623   1.902   0.084 -0.0819 -0.6468  0.0605
 7331TIP3    H143408   4.597   1.951   0.162  1.3102  0.6835 -0.2625
 7331TIP3    H243409   4.700   1.853   0.111  1.3544  1.0274 -0.8406
 7332TIP3   OH243410   2.132   1.315  15.286  0.0373 -0.6335  0.0753
 7332TIP3    H143411   2.141   1.406  15.317 -1.7740  0.0117 -1.1253
 7332TIP3    H243412   2.044   1.290  15.313  0.8406 -2.4449  1.2393
 7333TIP3   OH243413   0.443   2.352   3.385 -1.0014 -0.1224  0.1688
 7333TIP3    H143414   0.462   2.364   3.291  0.4905 -0.1312  0.4460
 7333TIP3    H243415   0.348   2.366   3.392 -1.0004  0.7904 -1.1956
 7334TIP3   OH243416   0.934   4.142   5.188 -0.5157 -0.0887 -0.0149
 7334TIP3    H143417   0.991   4.114   5.260  0.6071  0.0569 -0.8354
 7334TIP3    H243418   0.877   4.066   5.173  0.7133 -0.9683 -0.4277
 7335TIP3   OH243419   1.187   0.860   3.643 -0.2075  0.2308 -0.3530
 7335TIP3    H143420   1.194   0.827   3.553 -0.9373  0.2930 -0.4323
 7335TIP3    H243421   1.256   0.813   3.690  0.6154  0.6838 -1.0818
 7336TIP3   OH243422   1.679   2.827   5.786  0.0778  0.2638 -0.6436
 7336TIP3    H143423   1.620   2.883   5.837 -0.5135 -0.1734 -0.8410
 7336TIP3    H243424   1.659   2.848   5.694 -0.0916 -0.2087 -0.7177
 7337TIP3   OH243425   2.066   6.496  15.524 -0.1002  0.3530  0.6324
 7337TIP3    H143426   2.033   6.408  15.542  0.4274  0.0284  0.0697
 7337TIP3    H243427   2.161   6.485  15.519 -0.1218  0.6630 -0.9573
 7338TIP3   OH243428   4.804   5.401   2.062 -0.2428  0.9332  0.5454
 7338TIP3    H143429   4.743   5.473   2.045  3.4649  3.9115 -2.1010
 7338TIP3    H243430   4.856   5.431   2.137  0.4941  0.4417  0.2440
 7339TIP3   OH243431   4.940   1.694   2.576  0.0119 -0.8435  0.4693
 7339TIP3    H143432   4.851   1.671   2.549 -0.6040 -0.1719  1.8240
 7339TIP3    H243433   4.996   1.646   2.516 -1.2625 -1.0491 -0.6162
 7340TIP3   OH243434   4.075   0.584  14.467  0.0512  0.2644  0.4155
 7340TIP3    H143435   4.166   0.598  14.441 -0.4999  0.7742 -1.3666
 7340TIP3    H243436   4.080   0.531  14.547  1.8704 -1.3390 -0.6876
 7341TIP3   OH243437   1.127   5.111   5.025 -0.5738  0.2243  0.0668
 7341TIP3    H143438   1.160   5.133   5.112  1.2552  2.1907 -1.0195
 7341TIP3    H243439   1.092   5.194   4.991  1.3652  0.2561 -2.1155
 7342TIP3   OH243440   5.188   4.040   0.872 -0.0294  0.2733  0.0895
 7342TIP3    H143441   5.201   4.036   0.778  0.4788  1.1639  0.1060
 7342TIP3    H243442   5.276   4.051   0.908 -0.0630 -1.5154  0.7771
 7343TIP3   OH243443   0.939   0.433  16.552  0.2535 -0.7041 -0.4215
 7343TIP3    H143444   0.852   0.393  16.552 -0.8069  1.3991  1.4614
 7343TIP3    H243445   0.953   0.460  16.461 -0.5356 -2.0724 -0.9832
 7344TIP3   OH243446   4.008   2.774  13.861 -0.3890  0.4511 -0.1695
 7344TIP3    H143447   3.948   2.841  13.894 -0.9742 -0.5211  0.8289
 7344TIP3    H243448   3.985   2.695  13.910  0.2980 -0.4856 -1.2804
 7345TIP3   OH243449   6.743   4.834   0.358  0.2851 -0.1489  0.1233
 7345TIP3    H143450   6.798   4.895   0.308  1.1569 -1.3590 -0.4726
 7345TIP3    H243451   6.713   4.771   0.292  0.5787 -1.1632  0.9374
 7346TIP3   OH243452   2.572   5.647   0.128  0.4306 -0.1771 -0.4944
 7346TIP3    H143453   2.507   5.588   0.167 -1.1103  0.4841 -1.9720
 7346TIP3    H243454   2.655   5.618   0.166 -0.2966 -3.0704 -0.8522
 7347TIP3   OH243455   4.097   4.995  16.562 -0.0182  0.2197 -0.0924
 7347TIP3    H143456   4.151   5.019  16.487  2.6111  1.4548  2.0034
 7347TIP3    H243457   4.082   4.901  16.553  2.6739 -0.2102 -0.7665
 7348TIP3   OH243458   3.028   4.408   0.346 -0.5034  0.9689 -0.2221
 7348TIP3    H143459   3.068   4.391   0.261 -0.7890  1.8135 -0.5398
 7348TIP3    H243460   2.934   4.394   0.332 -0.4708  0.2712  0.1841
 7349TIP3   OH243461   1.871   3.654   4.753 -0.1093  0.0645 -0.2513
 7349TIP3    H143462   1.923   3.589   4.705  0.5264  0.7896 -0.5440
 7349TIP3    H243463   1.793   3.605   4.780  0.9662 -1.1836  0.6864
 7350TIP3   OH243464   5.646   5.120   5.274  0.0686  0.8165  0.5344
 7350TIP3    H143465   5.578   5.061   5.308  0.0508  0.5630  0.0708
 7350TIP3    H243466   5.615   5.208   5.297  0.1578  0.6432  1.3433
 7351TIP3   OH243467   0.011   3.028  11.103 -0.2165  0.1471 -0.0972
 7351TIP3    H143468  -0.021   2.975  11.176 -1.0951  1.7591  0.7581
 7351TIP3    H243469   0.031   2.966  11.034  0.1669 -1.3978  1.3451
 7352TIP3   OH243470   0.203   2.338  17.177  0.1788  0.0065  0.0238
 7352TIP3    H143471   0.219   2.263  17.235  3.2219  1.3792  1.1520
 7352TIP3    H243472   0.256   2.320  17.100  1.6166  1.3205  0.6619
 7353TIP3   OH243473   4.427   0.591   6.747 -0.8871  0.6007 -0.3050
 7353TIP3    H143474   4.465   0.511   6.711 -0.1212  1.2735 -1.0527
 7353TIP3    H243475   4.347   0.562   6.792 -1.1870 -0.4451 -1.4589
 7354TIP3   OH243476   1.620   2.568   0.789 -0.2911 -0.2000  0.0223
 7354TIP3    H143477   1.571   2.485   0.783 -2.6247  1.1300 -0.5575
 7354TIP3    H243478   1.692   2.557   0.726 -1.4008 -1.2779 -1.1395
 7355TIP3   OH243479   4.289   0.623  16.484  0.0231 -0.2805  0.2449
 7355TIP3    H143480   4.238   0.566  16.427 -1.7722  0.0605  1.4120
 7355TIP3    H243481   4.267   0.712  16.456 -0.0880 -0.1306  0.7879
 7356TIP3   OH243482   2.099   5.519  13.470  0.6564  0.0800 -0.4704
 7356TIP3    H143483   2.096   5.466  13.391  0.0670  1.7058 -1.5976
 7356TIP3    H243484   2.191   5.517  13.497  0.4975 -2.2164  0.0741
 7357TIP3   OH243485   0.535   2.109  14.982 -0.2074 -0.0232 -0.4658
 7357TIP3    H143486   0.485   2.038  14.943 -0.9228  2.2800 -4.3275
 7357TIP3    H243487   0.470   2.161  15.030 -0.0642 -0.8323  0.6324
 7358TIP3   OH243488   6.189   4.157   2.383  0.1101  0.0729 -0.1840
 7358TIP3    H143489   6.215   4.245   2.355 -0.7620 -0.5167 -3.2346
 7358TIP3    H243490   6.269   4.105   2.378  0.5920  0.5721  1.4710
 7359TIP3   OH243491   0.164   3.742   1.874  0.3040  0.4916  0.3696
 7359TIP3    H143492   0.136   3.832   1.858 -1.8263 -0.1101  0.4576
 7359TIP3    H243493   0.132   3.693   1.799 -1.0692 -0.6582  1.6489
 7360TIP3   OH243494   3.364   5.216  16.021 -0.2898 -0.2399  0.3617
 7360TIP3    H143495   3.425   5.284  15.992  1.3786 -2.1745 -0.8866
 7360TIP3    H243496   3.388   5.201  16.113 -1.0118  1.1464  0.8084
 7361TIP3   OH243497   0.085   5.182  11.966  0.5831 -0.1835 -0.2285
 7361TIP3    H143498   0.046   5.185  11.879  0.5415  0.3390 -0.1941
 7361TIP3    H243499   0.178   5.164  11.950  0.7026  0.5689 -0.4227
 7362TIP3   OH243500   1.424   5.940  15.620 -0.2903  0.0215 -0.8101
 7362TIP3    H143501   1.479   5.896  15.685 -0.0692  0.9087 -0.3704
 7362TIP3    H243502   1.338   5.900  15.630 -0.3518  0.3866  0.3085
 7363TIP3   OH243503   2.677   2.795   5.209 -0.0862  0.4741  0.8138
 7363TIP3    H143504   2.750   2.763   5.156  0.3526  0.5515  1.3551
 7363TIP3    H243505   2.612   2.826   5.145 -0.0646 -0.4979  0.3127
 7364TIP3   OH243506   4.384   3.956  15.486  0.4116  0.1932  0.0282
 7364TIP3    H143507   4.316   3.986  15.546  0.8306  2.3141 -0.4552
 7364TIP3    H243508   4.343   3.957  15.399  0.2852 -1.2472  0.0463
 7365TIP3   OH243509   0.493   6.135   6.507  0.1667 -0.3199 -0.2599
 7365TIP3    H143510   0.402   6.129   6.477 -0.2830 -0.6067  1.0928
 7365TIP3    H243511   0.510   6.051   6.549  0.9340 -0.1345 -0.1844
 7366TIP3   OH243512   6.481   3.427   1.023 -0.0833 -0.4046 -0.2547
 7366TIP3    H143513   6.559   3.373   1.025  0.2176  0.0329  1.3458
 7366TIP3    H243514   6.496   3.493   1.090 -0.9995  0.8791 -1.2584
 7367TIP3   OH243515   3.381   0.103  15.209  0.2113  0.3222  0.1101
 7367TIP3    H143516   3.394   0.174  15.271 -1.3034  0.2008  0.6075
 7367TIP3    H243517   3.338   0.144  15.133 -1.1811 -0.1140  0.6263
 7368TIP3   OH243518   3.139   3.106  16.794 -0.1989 -0.0636 -0.5348
 7368TIP3    H143519   3.174   3.166  16.859 -2.8886  0.1842  0.8495
 7368TIP3    H243520   3.211   3.046  16.775  0.8980  0.1790  2.3124
 7369TIP3   OH243521   6.429   5.610   0.140 -0.4737 -0.1518 -0.1732
 7369TIP3    H143522   6.483   5.556   0.198  1.5456  1.9509  0.0390
 7369TIP3    H243523   6.340   5.599   0.173 -0.0165 -2.5367  0.4386
 7370TIP3   OH243524   4.284   6.439   5.045 -0.3165  0.5128  0.0455
 7370TIP3    H143525   4.361   6.490   5.018 -0.9365  0.7375 -1.4159
 7370TIP3    H243526   4.239   6.420   4.963  0.1032 -2.7787  0.4511
 7371TIP3   OH243527   5.068   3.709   4.811 -0.1392  0.3002 -0.4463
 7371TIP3    H143528   5.107   3.682   4.728 -1.2669 -1.7077 -0.3822
 7371TIP3    H243529   4.992   3.652   4.821 -0.2202  0.7332  1.8058
 7372TIP3   OH243530   2.022   5.796  11.149 -0.2471 -0.3399 -0.4263
 7372TIP3    H143531   2.056   5.833  11.068  0.9022  0.8633  0.5505
 7372TIP3    H243532   2.017   5.871  11.209 -1.5033 -1.1191  0.4821
 7373TIP3   OH243533   1.978   5.330   3.099 -0.4608 -0.0444 -0.0058
 7373TIP3    H143534   1.892   5.350   3.137 -0.8841 -1.3088 -0.2736
 7373TIP3    H243535   1.982   5.235   3.096  2.0888 -0.1424  2.5638
 7374TIP3   OH243536   6.191   4.443   0.636  0.1189  0.1710  0.0757
 7374TIP3    H143537   6.161   4.522   0.590  0.6316  0.2080 -0.2039
 7374TIP3    H243538   6.121   4.424   0.698  0.0441  0.9327  0.2448
 7375TIP3   OH243539   4.580   3.293  12.202  0.0763 -0.4864  0.2930
 7375TIP3    H143540   4.529   3.374  12.205  0.0357 -0.5231  0.6750
 7375TIP3    H243541   4.668   3.319  12.229  0.7176 -0.0976 -1.9908
 7376TIP3   OH243542   4.738   6.177  13.871 -0.3273 -0.2732 -0.2682
 7376TIP3    H143543   4.675   6.131  13.816 -2.0148  1.7852 -0.1946
 7376TIP3    H243544   4.739   6.127  13.953 -0.2694 -1.4947 -0.9912
 7377TIP3   OH243545   6.335   4.232   4.747  0.4175  0.3503 -0.1789
 7377TIP3    H143546   6.355   4.185   4.828  0.2927  0.2632 -0.1977
 7377TIP3    H243547   6.281   4.171   4.697  2.2742 -0.4585 -1.2751
 7378TIP3   OH243548   4.897   3.129   5.351 -0.0209 -0.1246  0.0056
 7378TIP3    H143549   4.903   3.156   5.442  2.9651  1.0269 -0.4063
 7378TIP3    H243550   4.890   3.212   5.302 -1.0609 -0.6922 -0.8482
 7379TIP3   OH243551   4.505   4.003   0.287  0.1917 -0.1084  0.1035
 7379TIP3    H143552   4.559   4.082   0.288  1.7140 -1.1013  1.3387
 7379TIP3    H243553   4.457   4.007   0.370 -0.3188 -0.1083 -0.1885
 7380TIP3   OH243554   0.202   3.407  13.936  0.4388  0.1215 -0.1664
 7380TIP3    H143555   0.202   3.377  14.027  0.1689 -2.1701 -0.8595
 7380TIP3    H243556   0.273   3.471  13.932  1.2475 -0.6279  1.3882
 7381TIP3   OH243557   1.912   6.568  15.767 -0.1641  0.4005 -0.0423
 7381TIP3    H143558   1.949   6.545  15.682 -2.2252 -2.6567 -0.2818
 7381TIP3    H243559   1.887   6.484  15.806 -1.3826  1.8552  2.5878
 7382TIP3   OH243560   2.700   0.595   0.804 -0.4169  0.3761  0.4954
 7382TIP3    H143561   2.629   0.538   0.830 -0.3329 -0.2131 -0.5093
 7382TIP3    H243562   2.697   0.596   0.708  0.9424  0.2985  0.4220
 7383TIP3   OH243563   6.678   1.321   6.780  0.0928  0.6579  0.5902
 7383TIP3    H143564   6.636   1.268   6.848  0.9856 -0.3410  0.3977
 7383TIP3    H243565   6.606   1.369   6.739 -0.6189  0.3126  1.4001
 7384TIP3   OH243566   2.229   5.062   6.147  0.1112 -0.9109  0.0931
 7384TIP3    H143567   2.218   4.967   6.152  0.3671 -1.0222 -1.1155
 7384TIP3    H243568   2.324   5.075   6.139  0.0689 -0.5663  0.1432
 7385TIP3   OH243569   4.325   5.564   0.508 -0.5658 -0.5951  0.4886
 7385TIP3    H143570   4.357   5.643   0.465 -0.1402 -0.9781  0.0875
 7385TIP3    H243571   4.247   5.592   0.555 -1.0167 -0.1543 -0.5014
 7386TIP3   OH243572   0.524   2.592   2.366 -0.3743 -0.0649 -0.2180
 7386TIP3    H143573   0.509   2.515   2.310 -0.5380 -0.7551  0.7452
 7386TIP3    H243574   0.619   2.601   2.369 -0.3528 -0.2497 -0.3102
 7387TIP3   OH243575   5.570   0.168   4.692 -0.0524 -0.2870 -0.1570
 7387TIP3    H143576   5.476   0.154   4.699  0.0086 -0.3341  0.6152
 7387TIP3    H243577   5.579   0.234   4.623 -0.5850 -0.9519 -0.8764
 7388TIP3   OH243578   3.311   1.839  13.916 -0.1538  0.2714 -0.0997
 7388TIP3    H143579   3.253   1.783  13.865  0.9755 -0.8435 -0.2230
 7388TIP3    H243580   3.275   1.838  14.005 -0.4296 -0.2454 -0.2159
 7389TIP3   OH243581   5.896   0.218   3.813 -0.8767 -0.3502 -0.0376
 7389TIP3    H143582   5.844   0.252   3.739 -0.4340 -1.4702 -0.8966
 7389TIP3    H243583   5.956   0.290   3.835 -2.6262  0.9165  0.8719
 7390TIP3   OH243584   4.511   1.273   3.987  0.5887 -0.5977 -0.0376
 7390TIP3    H143585   4.541   1.295   3.899  2.4107  0.5420  0.8077
 7390TIP3    H243586   4.552   1.338   4.043 -3.2306  0.8790  1.3594
 7391TIP3   OH243587   4.317   2.601   1.584  0.2863  0.3552  0.0694
 7391TIP3    H143588   4.364   2.684   1.580  0.3531  0.4157  1.5688
 7391TIP3    H243589   4.234   2.618   1.539 -0.3187  1.6813  1.5849
 7392TIP3   OH243590   3.318   5.856   3.476  0.6116  0.0538  0.3205
 7392TIP3    H143591   3.320   5.940   3.430  0.3481  0.7316  1.4998
 7392TIP3    H243592   3.231   5.820   3.455  1.1041 -0.4076 -0.9900
 7393TIP3   OH243593   3.843   2.493  11.113  0.0983  0.0464 -0.0639
 7393TIP3    H143594   3.919   2.477  11.058  0.6241  1.6479  0.1512
 7393TIP3    H243595   3.872   2.468  11.201  0.2863  0.3796 -0.0292
 7394TIP3   OH243596   3.719   2.868   5.137  0.5969  0.6673 -0.1528
 7394TIP3    H143597   3.790   2.924   5.104  0.5848  1.2970  0.8463
 7394TIP3    H243598   3.723   2.879   5.232 -0.2440 -0.0324 -0.0301
 7395TIP3   OH243599   0.120   2.638   4.494  0.1526 -0.8288  0.0336
 7395TIP3    H143600   0.135   2.643   4.399 -0.3908 -1.4382 -0.0977
 7395TIP3    H243601   0.090   2.548   4.508  0.4417 -0.8079  0.8193
 7396TIP3   OH243602   3.409   4.829  11.736 -0.4703 -0.1835 -0.1953
 7396TIP3    H143603   3.499   4.824  11.703 -1.0400  0.1557 -1.8493
 7396TIP3    H243604   3.390   4.922  11.742 -0.7557 -0.2557  0.0767
 7397TIP3   OH243605   4.203   0.544  15.663  0.2724 -0.1477  0.7683
 7397TIP3    H143606   4.123   0.548  15.611 -0.1702 -1.3669  1.2926
 7397TIP3    H243607   4.220   0.634  15.689  1.3612  0.7652 -2.6679
 7398TIP3   OH243608   0.705   4.784   0.931 -0.6468  0.0753  0.4716
 7398TIP3    H143609   0.715   4.712   0.869  0.4203 -0.7761  1.5772
 7398TIP3    H243610   0.625   4.763   0.980 -1.4685  0.7291 -0.5577
 7399TIP3   OH243611   5.421   0.877   3.156 -0.2184  0.1630  0.7675
 7399TIP3    H143612   5.399   0.849   3.245  2.0524 -0.8596  1.0481
 7399TIP3    H243613   5.378   0.813   3.099  1.5162 -1.5296  1.2879
 7400TIP3   OH243614   2.171   6.236  17.480 -0.6122  0.2179 -0.0404
 7400TIP3    H143615   2.188   6.145  17.506 -0.6213  0.3348  0.3766
 7400TIP3    H243616   2.083   6.254  17.511  0.3424  1.2410  2.3688
 7401TIP3   OH243617   1.680   1.728   2.823 -0.1780  0.1825  0.3730
 7401TIP3    H143618   1.649   1.649   2.779 -1.5739  1.2930 -0.7632
 7401TIP3    H243619   1.603   1.763   2.867  0.0050  1.7155 -0.4512
 7402TIP3   OH243620   2.468   4.626   0.188  0.5333  0.0138 -0.1731
 7402TIP3    H143621   2.499   4.608   0.276  1.3008  0.2791 -0.3826
 7402TIP3    H243622   2.374   4.607   0.191  0.0115  2.4180  1.3555
 7403TIP3   OH243623   4.106   2.802  15.239 -0.5092  0.2459  0.1422
 7403TIP3    H143624   4.022   2.772  15.206  0.0810 -1.2422 -0.0917
 7403TIP3    H243625   4.151   2.723  15.267  1.3849  0.8066 -1.0872
 7404TIP3   OH243626   3.911   0.520  11.182  0.2722 -0.6518  0.5922
 7404TIP3    H143627   3.876   0.442  11.225  0.5753 -0.3968  1.3106
 7404TIP3    H243628   3.974   0.485  11.118 -1.0449 -1.0977 -0.5172
 7405TIP3   OH243629   4.084   2.544  15.303  0.0678 -0.4279  0.2335
 7405TIP3    H143630   4.077   2.478  15.233 -0.1124  1.3217 -1.4962
 7405TIP3    H243631   3.993   2.561  15.328 -0.0502  0.6354 -0.8293
 7406TIP3   OH243632   0.393   6.313  12.036 -0.1086 -0.1810 -0.1432
 7406TIP3    H143633   0.381   6.257  11.960  1.0861 -0.9380  0.1837
 7406TIP3    H243634   0.488   6.310  12.053  0.0013  1.9460 -0.1024
 7407TIP3   OH243635   2.759   1.646  17.259  0.1636 -0.1745  0.5971
 7407TIP3    H143636   2.766   1.705  17.184  1.0111 -0.1424  0.6938
 7407TIP3    H243637   2.828   1.675  17.319  1.6811 -2.2505 -0.0414
 7408TIP3   OH243638   3.392   3.613   3.805  0.1702 -0.5565  0.1186
 7408TIP3    H143639   3.443   3.546   3.758  0.7792  0.8427 -1.3218
 7408TIP3    H243640   3.458   3.677   3.833 -0.4427 -0.3743  1.1711
 7409TIP3   OH243641   3.818   1.207  17.250  0.0984  0.1042 -0.4903
 7409TIP3    H143642   3.736   1.253  17.233  1.0292  1.3351 -1.8590
 7409TIP3    H243643   3.887   1.269  17.224  1.4453 -1.3115 -0.4613
 7410TIP3   OH243644   2.353   0.345  11.617  0.1191 -0.1792 -0.8231
 7410TIP3    H143645   2.364   0.308  11.529 -1.6375 -0.9231 -0.7576
 7410TIP3    H243646   2.442   0.370  11.643  0.8882 -1.2855 -2.2179
 7411TIP3   OH243647   3.001   3.023   6.361  0.0634 -0.7624  0.2119
 7411TIP3    H143648   3.090   3.010   6.395  0.7781  0.1319 -1.1932
 7411TIP3    H243649   2.983   3.116   6.375  0.7248 -0.1515 -2.4443
 7412TIP3   OH243650   0.453   4.142   1.801 -0.2018  0.5549  0.2262
 7412TIP3    H143651   0.540   4.176   1.821  0.1938 -0.2541 -0.0920
 7412TIP3    H243652   0.467   4.049   1.781 -1.0070  0.6187 -0.7206
 7413TIP3   OH243653   1.805   4.526   6.685  0.2881 -0.5467 -0.3355
 7413TIP3    H143654   1.849   4.552   6.766 -0.8555 -1.2715  0.5655
 7413TIP3    H243655   1.841   4.440   6.664  2.0424  0.4635 -1.7623
 7414TIP3   OH243656   1.352   5.243   1.042 -0.1619  0.7265  1.0941
 7414TIP3    H143657   1.437   5.207   1.015 -0.2500  0.2102  1.4843
 7414TIP3    H243658   1.355   5.334   1.014 -0.0199  0.3700 -0.1039
 7415TIP3   OH243659   4.384   3.757  13.552  0.0816 -0.0016  0.4296
 7415TIP3    H143660   4.386   3.702  13.629  1.4910  0.7733  0.9996
 7415TIP3    H243661   4.421   3.703  13.482 -0.0171 -0.2893  0.6032
 7416TIP3   OH243662   2.838   5.266  16.963 -0.3480 -0.0780  0.7730
 7416TIP3    H143663   2.746   5.274  16.990 -0.4854 -0.2292  0.3676
 7416TIP3    H243664   2.833   5.249  16.869  0.1872  2.9088  0.1058
 7417TIP3   OH243665   6.686   5.514  12.445  0.4797 -0.6827  0.5533
 7417TIP3    H143666   6.595   5.542  12.456  0.8794  1.0400 -0.1838
 7417TIP3    H243667   6.685   5.420  12.465 -1.8107 -1.1583 -1.3433
 7418TIP3   OH243668   4.215   0.147   3.298 -0.5223 -0.6194  0.0162
 7418TIP3    H143669   4.168   0.078   3.253  0.6016 -0.0379 -2.1748
 7418TIP3    H243670   4.305   0.115   3.305 -0.5385 -0.4489  1.3997
 7419TIP3   OH243671   0.486   3.298  15.770 -0.6018 -0.3053 -0.2032
 7419TIP3    H143672   0.464   3.209  15.742 -1.3501 -0.6652  1.4246
 7419TIP3    H243673   0.560   3.286  15.830 -2.0531 -0.1339  1.7429
 7420TIP3   OH243674   2.108   5.499  16.311  0.3135 -0.3057  0.0167
 7420TIP3    H143675   2.186   5.459  16.271  0.1678 -0.9879  0.3936
 7420TIP3    H243676   2.034   5.460  16.264  0.0582 -2.3702  1.9348
 7421TIP3   OH243677   2.954   0.274   3.175 -1.2619  0.6597 -0.2067
 7421TIP3    H143678   2.940   0.338   3.245 -0.7884  0.9499 -0.3679
 7421TIP3    H243679   3.048   0.257   3.177 -0.7675  2.5241 -2.3345
 7422TIP3   OH243680   3.267   3.795  11.343  0.3464  0.2709  0.3917
 7422TIP3    H143681   3.250   3.816  11.251  2.1419  1.0580  0.2016
 7422TIP3    H243682   3.342   3.736  11.340  0.1279 -0.0757  1.3527
 7423TIP3   OH243683   0.019   1.295  12.540  0.1066 -0.4705 -0.4198
 7423TIP3    H143684   0.031   1.325  12.450  0.8344  1.3596  0.2507
 7423TIP3    H243685  -0.075   1.278  12.548 -0.3659  1.6715 -0.8664
 7424TIP3   OH243686   4.347   6.473  12.853 -0.0510  0.0302  0.4601
 7424TIP3    H143687   4.390   6.466  12.768 -0.3371 -0.3078  0.3396
 7424TIP3    H243688   4.346   6.383  12.886  1.1658  0.3320  1.3821
 7425TIP3   OH243689   2.418   1.299  15.770 -0.5426 -0.2894  0.0271
 7425TIP3    H143690   2.390   1.208  15.771 -0.7578 -0.2434 -0.9378
 7425TIP3    H243691   2.369   1.338  15.697 -0.9734  0.7601  0.8433
 7426TIP3   OH243692   6.053   3.986   4.934 -0.1701  0.2045 -0.2162
 7426TIP3    H143693   6.054   3.891   4.931  0.4023  0.2048 -0.0832
 7426TIP3    H243694   6.129   4.009   4.987 -0.7236  0.7087  0.3757
 7427TIP3   OH243695   0.469   5.745   4.800 -0.0028 -0.0439  0.1586
 7427TIP3    H143696   0.511   5.661   4.784 -0.1220 -0.2989  1.1315
 7427TIP3    H243697   0.439   5.740   4.890 -1.2239  0.5185 -0.1895
 7428TIP3   OH243698   4.834   4.888  10.816  0.7401  0.0338  0.1468
 7428TIP3    H143699   4.766   4.824  10.839  2.2470 -1.8141 -0.2874
 7428TIP3    H243700   4.878   4.850  10.740  0.9649  2.1978 -0.8873
 7429TIP3   OH243701   2.381   1.280  12.044 -0.6101  0.1089 -0.4853
 7429TIP3    H143702   2.428   1.342  12.100  1.1746 -0.2503 -1.5134
 7429TIP3    H243703   2.400   1.194  12.082 -1.1600  0.0130 -0.4163
 7430TIP3   OH243704   5.499   2.337  14.201 -0.4647  1.1625  0.1936
 7430TIP3    H143705   5.573   2.286  14.233  0.0321  0.7138 -1.5227
 7430TIP3    H243706   5.525   2.362  14.112 -2.3198  1.1238 -0.3889
 7431TIP3   OH243707   4.697   5.682   1.750  0.8303 -0.1994  0.0536
 7431TIP3    H143708   4.658   5.661   1.835  0.3369  0.8202  0.0949
 7431TIP3    H243709   4.626   5.668   1.687  0.8772  0.0538 -0.0592
 7432TIP3   OH243710   3.082   2.785  11.333  0.8933  0.1862 -0.3193
 7432TIP3    H143711   3.124   2.823  11.255 -1.8200  1.0494 -1.4669
 7432TIP3    H243712   2.992   2.817  11.330 -0.4179 -2.9407  1.0253
 7433TIP3   OH243713   0.628   5.360   3.857  0.6186  0.6577 -0.2880
 7433TIP3    H143714   0.652   5.325   3.771  0.2301 -2.3325  0.7028
 7433TIP3    H243715   0.708   5.353   3.909  0.4632  1.0575  0.0124
 7434TIP3   OH243716   4.294   2.229  13.789 -0.0807  0.1357 -0.2543
 7434TIP3    H143717   4.263   2.139  13.790 -1.7963  0.5928  3.1789
 7434TIP3    H243718   4.355   2.234  13.863  0.4449  1.6460 -0.7564
 7435TIP3   OH243719   3.054   5.740   5.918 -0.1690 -0.3752 -0.0430
 7435TIP3    H143720   3.102   5.768   5.996  0.1084  0.5750 -0.5423
 7435TIP3    H243721   2.971   5.788   5.923  0.4381  0.8100 -1.0723
 7436TIP3   OH243722   5.929   1.158   4.829 -0.4094 -0.5407  0.5084
 7436TIP3    H143723   5.869   1.160   4.754 -1.2889  0.2305  1.2155
 7436TIP3    H243724   6.009   1.118   4.794 -1.2246 -1.3322 -0.5213
 7437TIP3   OH243725   4.237   4.112  10.725 -0.0066 -0.4325 -0.2990
 7437TIP3    H143726   4.281   4.044  10.776  0.9030 -0.0817 -0.6096
 7437TIP3    H243727   4.144   4.101  10.746  0.1532 -1.6198 -0.1738
 7438TIP3   OH243728   2.855   6.416   3.188  0.6633  0.6351  0.0678
 7438TIP3    H143729   2.847   6.377   3.275  1.3219  0.0725 -0.1127
 7438TIP3    H243730   2.776   6.470   3.178  0.1157 -0.0455  0.6360
 7439TIP3   OH243731   2.012   5.931  11.484  0.4503  0.3617  0.2876
 7439TIP3    H143732   2.031   5.995  11.415  0.7614 -1.1762 -1.1193
 7439TIP3    H243733   1.920   5.907  11.470  0.4704  0.1636  0.4898
 7440TIP3   OH243734   5.909   4.370  16.326 -0.3136 -0.0417 -0.0907
 7440TIP3    H143735   5.854   4.339  16.254  1.0106 -1.6013 -0.4785
 7440TIP3    H243736   5.880   4.319  16.402 -1.1497  1.0217  0.3398
 7441TIP3   OH243737   2.087   5.916   4.080  0.6004  0.4635  0.3582
 7441TIP3    H143738   2.162   5.862   4.107  0.6798 -0.8842 -2.2787
 7441TIP3    H243739   2.107   5.942   3.990 -1.5129  1.1792  0.0403
 7442TIP3   OH243740   2.401   4.728  13.180  0.3797 -0.2161  0.6701
 7442TIP3    H143741   2.356   4.671  13.244 -0.6703  0.5840  0.6770
 7442TIP3    H243742   2.470   4.673  13.144 -0.2093 -1.2995  1.1307
 7443TIP3   OH243743   3.279   0.661  14.796 -0.3304 -0.0910  0.2653
 7443TIP3    H143744   3.250   0.726  14.731  0.8838  0.3793  0.1614
 7443TIP3    H243745   3.321   0.713  14.865 -1.3112 -0.6158  1.2767
 7444TIP3   OH243746   4.024   2.198  12.471  0.0635  0.1788  0.1844
 7444TIP3    H143747   4.111   2.193  12.510  0.5319  2.3102 -0.4741
 7444TIP3    H243748   3.992   2.285  12.493 -2.0709 -0.6635  0.6601
 7445TIP3   OH243749   3.420   0.471   0.112 -0.4037  0.4856 -0.2689
 7445TIP3    H143750   3.514   0.488   0.106  0.0302 -1.6267 -0.2190
 7445TIP3    H243751   3.409   0.383   0.076 -2.0073 -0.2784  1.8459
 7446TIP3   OH243752   6.180   6.664  12.784  0.1951  0.1162 -0.2770
 7446TIP3    H143753   6.118   6.607  12.739  0.9463 -0.9495  0.0041
 7446TIP3    H243754   6.252   6.607  12.809 -0.0206  0.7188  1.9583
 7447TIP3   OH243755   3.268   3.111  13.107  0.1942 -0.3385 -0.4536
 7447TIP3    H143756   3.291   3.184  13.049  1.2186 -0.0867  0.2526
 7447TIP3    H243757   3.344   3.053  13.105 -1.0048 -1.9726 -1.8244
 7448TIP3   OH243758   0.635   0.921   0.278 -0.3715  0.5911  0.5173
 7448TIP3    H143759   0.643   0.887   0.368 -0.2778  1.1738  0.7312
 7448TIP3    H243760   0.725   0.939   0.252 -0.1313 -1.8522 -0.6025
 7449TIP3   OH243761   2.674   6.600  15.532 -0.1121  0.0902  0.1320
 7449TIP3    H143762   2.634   6.612  15.446 -0.7713 -1.1629  0.2293
 7449TIP3    H243763   2.767   6.618  15.518 -0.3653  0.8730 -0.6147
 7450TIP3   OH243764   2.970   3.890  12.587  0.1582 -0.5823 -0.2208
 7450TIP3    H143765   3.059   3.877  12.553  0.0396 -2.5923  0.1183
 7450TIP3    H243766   2.973   3.856  12.677 -0.5158  1.0633  0.4723
 7451TIP3   OH243767   5.250   4.229   3.079 -0.3082 -0.2048 -0.1833
 7451TIP3    H143768   5.318   4.161   3.076 -1.2214 -1.1092 -2.2704
 7451TIP3    H243769   5.257   4.273   2.994 -1.9778  0.0493 -0.2182
 7452TIP3   OH243770   1.870   0.622  12.866 -0.0002  0.4484  0.4168
 7452TIP3    H143771   1.896   0.640  12.776 -0.2946  2.5073  0.6925
 7452TIP3    H243772   1.916   0.540  12.888  0.3895  0.1165 -1.4427
 7453TIP3   OH243773   6.560   2.861  12.101 -0.3282 -0.0710 -0.5951
 7453TIP3    H143774   6.582   2.769  12.089  0.4394 -0.0988  0.8022
 7453TIP3    H243775   6.506   2.883  12.025 -0.2342 -1.5700 -1.1289
 7454TIP3   OH243776   0.842   0.341  12.899  0.3516  0.0121 -0.3604
 7454TIP3    H143777   0.757   0.382  12.914 -0.1586 -1.4355  0.9990
 7454TIP3    H243778   0.834   0.303  12.811  0.4413  1.7776 -1.1657
 7455TIP3   OH243779   0.699   4.714  15.764 -0.0515 -0.2549  0.2182
 7455TIP3    H143780   0.711   4.756  15.850 -0.0817  2.2687 -0.9200
 7455TIP3    H243781   0.619   4.663  15.774 -0.8361  1.0869  1.3432
 7456TIP3   OH243782   4.350   6.568   0.802  0.4191 -0.6261 -0.1547
 7456TIP3    H143783   4.444   6.554   0.797  0.4412 -0.4079 -0.3541
 7456TIP3    H243784   4.339   6.634   0.871  0.4236 -0.5434 -0.2326
 7457TIP3   OH243785   0.966   5.024  16.589 -0.3182 -0.2307  0.0221
 7457TIP3    H143786   1.030   4.965  16.548  1.0719  0.0586  1.6648
 7457TIP3    H243787   0.944   5.087  16.520 -0.4502 -1.5723 -1.2051
 7458TIP3   OH243788   2.245   0.209   4.184  0.2315  0.0436  0.2186
 7458TIP3    H143789   2.253   0.122   4.222 -0.0831 -0.1465 -0.1364
 7458TIP3    H243790   2.262   0.269   4.256  0.5494 -0.3137  0.4427
 7459TIP3   OH243791   2.398   5.063  13.602  0.2257 -0.2548  0.3346
 7459TIP3    H143792   2.464   5.085  13.667  2.1775  0.5384 -1.7741
 7459TIP3    H243793   2.385   4.968  13.611  1.2898 -0.3376  1.1220
 7460TIP3   OH243794   4.494   3.786   4.473  0.1179  0.6939 -0.7824
 7460TIP3    H143795   4.526   3.868   4.510 -1.0699  0.4526  0.9207
 7460TIP3    H243796   4.457   3.739   4.548  0.8566 -1.4496 -1.6898
 7461TIP3   OH243797   2.867   5.915  10.858  0.3978  0.3533 -0.3039
 7461TIP3    H143798   2.947   5.863  10.868  1.1025  1.4352 -0.1970
 7461TIP3    H243799   2.898   6.003  10.836 -0.6477  1.2903  1.6790
 7462TIP3   OH243800   4.491   0.513  14.992  0.1921 -0.0352  0.6504
 7462TIP3    H143801   4.416   0.513  15.052  0.0411 -0.1980  0.4667
 7462TIP3    H243802   4.467   0.448  14.925  0.6040 -0.2680  0.7247
 7463TIP3   OH243803   4.086   1.673   3.991  0.0609  0.5055  0.0727
 7463TIP3    H143804   4.158   1.611   4.001 -1.6310 -1.4257  0.8257
 7463TIP3    H243805   4.042   1.673   4.076 -0.9864  1.4850 -0.4406
 7464TIP3   OH243806   1.575   4.139   2.539  0.3381  0.3607 -0.3340
 7464TIP3    H143807   1.534   4.055   2.515 -0.9824  0.8845 -0.0082
 7464TIP3    H243808   1.598   4.128   2.631 -2.3877  1.2597  0.5451
 7465TIP3   OH243809   1.852   5.232   0.270 -0.6738  0.2981 -0.3758
 7465TIP3    H143810   1.825   5.310   0.222 -1.6761  0.4025  0.3224
 7465TIP3    H243811   1.828   5.250   0.361 -1.5993 -1.0859 -0.3012
 7466TIP3   OH243812   5.854   4.298  12.506  0.2615  0.6394 -0.2863
 7466TIP3    H143813   5.943   4.285  12.476  0.1577  1.4628 -0.9977
 7466TIP3    H243814   5.863   4.330  12.596  0.6891  0.8397 -0.3982
 7467TIP3   OH243815   0.106   5.318  15.775  0.4601 -0.0375  0.0958
 7467TIP3    H143816   0.165   5.297  15.703  0.8506 -2.2362  0.9916
 7467TIP3    H243817   0.130   5.257  15.845 -0.5934  1.3243  1.7302
 7468TIP3   OH243818   4.591   4.298  10.542  0.5477  0.4788  0.0331
 7468TIP3    H143819   4.567   4.297  10.635 -1.5522 -2.0591 -0.4017
 7468TIP3    H243820   4.508   4.286  10.496  1.5240  1.7198 -2.2036
 7469TIP3   OH243821   6.460   5.891   0.080 -0.1072 -0.3012  0.1918
 7469TIP3    H143822   6.478   5.798   0.093  2.5543 -0.3984 -2.8321
 7469TIP3    H243823   6.405   5.893   0.001  1.8588  0.6569 -1.2283
 7470TIP3   OH243824   1.433   5.964   4.059 -0.5285 -0.2276 -0.1907
 7470TIP3    H143825   1.432   5.873   4.030 -0.8150  0.0584 -1.0992
 7470TIP3    H243826   1.390   6.012   3.989  2.7096  1.1330 -1.4478
 7471TIP3   OH243827   3.290   6.708  14.121 -0.3169 -0.1102 -0.4248
 7471TIP3    H143828   3.267   6.785  14.172 -2.0008 -0.1751 -1.0150
 7471TIP3    H243829   3.361   6.666  14.171 -2.1480 -0.4110  2.1151
 7472TIP3   OH243830   0.418   5.458  16.462 -0.2600 -0.2650 -0.2564
 7472TIP3    H143831   0.445   5.550  16.458  0.2006 -0.4492 -1.8171
 7472TIP3    H243832   0.324   5.462  16.480 -0.2723  0.5138 -0.4289
 7473TIP3   OH243833   5.297   0.327   5.384 -0.3184  0.3348 -0.1401
 7473TIP3    H143834   5.348   0.303   5.461 -1.2519  1.2865  0.8257
 7473TIP3    H243835   5.346   0.398   5.343 -0.5121  0.7976  0.4104
 7474TIP3   OH243836   4.304   1.634  14.252  0.6683 -0.1359  1.0157
 7474TIP3    H143837   4.351   1.563  14.297 -0.2864 -0.6311  1.2498
 7474TIP3    H243838   4.249   1.589  14.189 -0.0610  0.3887  1.2727
 7475TIP3   OH243839   1.504   2.276   0.460 -0.4807 -0.1939  0.4758
 7475TIP3    H143840   1.466   2.205   0.407  0.3797 -0.0096 -0.4074
 7475TIP3    H243841   1.434   2.342   0.463 -1.0592 -0.8040  0.7750
 7476TIP3   OH243842   6.513   0.900  13.397 -0.3103  0.0827 -0.1467
 7476TIP3    H143843   6.576   0.853  13.452 -2.6834 -0.2268  2.5632
 7476TIP3    H243844   6.556   0.983  13.376  1.1039 -0.2241  1.3386
 7477TIP3   OH243845   5.023   3.632   1.109  0.0315  0.0331  0.3179
 7477TIP3    H143846   5.011   3.599   1.020  0.5618  1.1850 -0.2051
 7477TIP3    H243847   5.074   3.565   1.153  3.8805  1.3507 -1.6248
 7478TIP3   OH243848   3.952   4.991  16.097 -0.4684  0.0312  0.4576
 7478TIP3    H143849   3.900   4.950  16.028 -1.4901  1.5875  0.2478
 7478TIP3    H243850   3.961   4.923  16.164 -1.7872 -0.6687 -0.0351
 7479TIP3   OH243851   5.265   5.322  14.795 -0.0607  0.2373  0.3176
 7479TIP3    H143852   5.237   5.295  14.883 -0.2628 -0.3427  0.0744
 7479TIP3    H243853   5.360   5.317  14.797 -0.0992 -0.5804  0.2458
 7480TIP3   OH243854   1.949   4.520  13.272  0.5168 -0.0883  0.0237
 7480TIP3    H143855   1.951   4.609  13.306  0.0513 -0.1972  0.3400
 7480TIP3    H243856   1.908   4.528  13.186  0.0594 -0.0616  0.2456
 7481TIP3   OH243857   4.254   0.595   3.837  0.5077  0.0552  0.1531
 7481TIP3    H143858   4.252   0.547   3.754  0.7021  1.3413 -0.6260
 7481TIP3    H243859   4.258   0.527   3.904  0.4171 -1.0135 -0.8918
 7482TIP3   OH243860   6.524   2.084  13.615 -0.4023  0.0894 -0.1110
 7482TIP3    H143861   6.613   2.050  13.613 -0.1323  0.7907 -1.3166
 7482TIP3    H243862   6.514   2.120  13.703 -0.1569 -1.6303  0.6605
 7483TIP3   OH243863   6.009   1.489   2.878 -0.1139  0.0732 -0.5138
 7483TIP3    H143864   6.055   1.472   2.960  0.4396  1.5819 -0.4738
 7483TIP3    H243865   5.917   1.494   2.902 -0.1377 -1.2307 -0.2927
 7484TIP3   OH243866   6.392   2.926   2.366 -0.4840  0.0212 -0.4846
 7484TIP3    H143867   6.304   2.905   2.335 -0.6588 -0.5367  0.3679
 7484TIP3    H243868   6.389   3.021   2.383 -0.4756  0.2815 -1.8265
 7485TIP3   OH243869   1.636   6.438  10.556  0.4447  0.0323 -0.5876
 7485TIP3    H143870   1.678   6.500  10.616 -1.3587 -0.6120  1.4392
 7485TIP3    H243871   1.689   6.358  10.563  0.6178  0.1656 -0.3712
 7486TIP3   OH243872   2.316   6.026  15.716 -0.3107 -0.3443  0.1563
 7486TIP3    H143873   2.302   6.051  15.624 -0.9696 -1.1473  0.0320
 7486TIP3    H243874   2.410   6.013  15.723 -0.0539  1.2203 -0.0129
 7487TIP3   OH243875   0.811   1.435   2.385 -0.2550  0.1127 -0.3319
 7487TIP3    H143876   0.842   1.375   2.453  1.0541  0.6519 -0.4206
 7487TIP3    H243877   0.839   1.395   2.303 -0.7142  0.0944 -0.4808
 7488TIP3   OH243878   1.889   0.037   4.280  0.1987  0.0081 -0.5576
 7488TIP3    H143879   1.895   0.128   4.308 -0.4136  0.2947 -1.3250
 7488TIP3    H243880   1.881   0.042   4.184 -0.0904 -0.8409 -0.5829
 7489TIP3   OH243881   2.539   3.376  17.343 -0.1375  0.3418 -0.1267
 7489TIP3    H143882   2.528   3.285  17.316  0.8247 -0.4142  1.8189
 7489TIP3    H243883   2.514   3.427  17.267  1.7736 -1.5997 -2.2037
 7490TIP3   OH243884   0.852   0.403   3.010  0.2906 -0.4997  0.4355
 7490TIP3    H143885   0.799   0.461   3.064 -0.8487 -1.6252  0.5814
 7490TIP3    H243886   0.942   0.437   3.018 -0.2488  0.8583  0.9669
 7491TIP3   OH243887   1.428   0.834  12.973  0.3114 -0.2827  0.1682
 7491TIP3    H143888   1.495   0.769  12.953  0.7044  0.1071  0.1990
 7491TIP3    H243889   1.461   0.881  13.050 -0.6973 -1.0703  1.1187
 7492TIP3   OH243890   5.279   1.431   6.316 -0.0466  0.2737 -0.1896
 7492TIP3    H143891   5.365   1.437   6.359 -1.2411  3.0154  2.1606
 7492TIP3    H243892   5.230   1.371   6.372 -0.2426  0.2455 -0.3954
 7493TIP3   OH243893   2.981   3.735   6.022 -0.5806 -0.0168  0.3731
 7493TIP3    H143894   2.958   3.693   6.105 -0.9231  1.1650  0.9131
 7493TIP3    H243895   2.907   3.793   6.003 -0.4236 -0.1345 -0.6671
 7494TIP3   OH243896   0.677   0.846   4.393 -0.1090 -0.1217 -0.0129
 7494TIP3    H143897   0.600   0.881   4.349 -0.2401 -0.4006 -0.0090
 7494TIP3    H243898   0.672   0.751   4.379  0.3531 -0.1242 -0.2053
 7495TIP3   OH243899   6.347   5.926   4.195 -0.0928 -0.1662 -0.2421
 7495TIP3    H143900   6.285   5.956   4.128  0.3751  0.7446 -0.2807
 7495TIP3    H243901   6.421   5.987   4.188  0.6490 -1.0186  0.0445
 7496TIP3   OH243902   4.603   0.435  15.272  0.6162 -0.1824 -0.0520
 7496TIP3    H143903   4.674   0.497  15.256 -0.1666  0.4808 -1.1574
 7496TIP3    H243904   4.524   0.490  15.272 -0.1424 -1.2159 -1.4856
 7497TIP3   OH243905   3.959   4.475   3.679  0.4706  0.6562 -0.1525
 7497TIP3    H143906   3.909   4.556   3.675  0.5747  0.7718  0.6466
 7497TIP3    H243907   3.962   4.443   3.589  0.0252  1.2924 -0.3948
 7498TIP3   OH243908   6.147   1.698  17.106 -0.0064 -0.4901 -0.0113
 7498TIP3    H143909   6.199   1.724  17.182 -0.0414 -1.0919  0.2278
 7498TIP3    H243910   6.084   1.635  17.141  0.5015 -1.3857 -0.6774
 7499TIP3   OH243911   3.443   0.051   2.806  0.4345  0.1132 -0.1822
 7499TIP3    H143912   3.537   0.059   2.789  0.0077  1.3895 -2.1766
 7499TIP3    H243913   3.423   0.126   2.861  0.4447  0.2631 -0.3830
 7500TIP3   OH243914   5.509   1.015  12.424  0.4359 -0.1870  0.3922
 7500TIP3    H143915   5.514   0.980  12.513 -1.0604  0.3656  0.7161
 7500TIP3    H243916   5.453   0.953  12.378  1.6946 -0.8011 -0.3553
 7501TIP3   OH243917   0.334   5.100   3.974  0.2008 -0.3513 -0.1751
 7501TIP3    H143918   0.408   5.073   3.919 -0.0676 -0.1649 -0.6328
 7501TIP3    H243919   0.257   5.076   3.923 -0.0555  1.5996 -0.7812
 7502TIP3   OH243920   6.049   0.027   5.618 -0.4793 -0.1107 -0.1385
 7502TIP3    H143921   6.118   0.033   5.684  0.0950  0.3471 -0.7599
 7502TIP3    H243922   6.079  -0.041   5.558 -0.2501  0.5157 -0.7528
 7503TIP3   OH243923   2.040   6.699   2.950 -0.0862  0.1870  0.5327
 7503TIP3    H143924   2.129   6.728   2.970 -0.0188  1.5555 -1.4623
 7503TIP3    H243925   2.039   6.689   2.855 -2.4851  1.7859  0.3108
 7504TIP3   OH243926   3.783   3.079  10.748  0.1131 -0.1586 -0.3548
 7504TIP3    H143927   3.721   3.105  10.817  1.6567  1.0680  0.6379
 7504TIP3    H243928   3.763   2.987  10.732  0.3040 -0.7940  2.4430
 7505TIP3   OH243929   4.191   1.214   1.844 -0.1150 -0.1070  0.2535
 7505TIP3    H143930   4.238   1.135   1.871  0.3088  0.0819  0.0724
 7505TIP3    H243931   4.178   1.202   1.750 -1.6705 -0.8098  0.5132
 7506TIP3   OH243932   0.615   1.183  13.865 -0.3489  0.1698  0.2825
 7506TIP3    H143933   0.659   1.124  13.926 -1.2125  0.2653  1.0185
 7506TIP3    H243934   0.682   1.245  13.838  1.0091 -1.9242 -1.6169
 7507TIP3   OH243935   0.769   5.959   2.253 -0.0121 -0.2542  0.3704
 7507TIP3    H143936   0.781   6.048   2.286 -1.1709  0.2621 -0.4941
 7507TIP3    H243937   0.700   5.968   2.187 -0.3171 -1.8436  0.4426
 7508TIP3   OH243938   2.462   4.302  16.628  0.3587 -0.4433  0.6440
 7508TIP3    H143939   2.466   4.360  16.552 -1.0328  1.4414  1.9023
 7508TIP3    H243940   2.403   4.232  16.602 -1.2325  0.9302  0.4050
 7509TIP3   OH243941   5.165   5.898  12.222 -0.0173  0.7316 -0.1250
 7509TIP3    H143942   5.162   5.905  12.126 -0.0048 -2.2802 -0.4435
 7509TIP3    H243943   5.077   5.921  12.251 -0.6487 -0.3957 -1.0865
 7510TIP3   OH243944   1.982   6.318   1.662 -0.0524 -0.8548 -0.2499
 7510TIP3    H143945   2.070   6.316   1.626  0.4730 -1.6265  1.0035
 7510TIP3    H243946   1.925   6.331   1.586  1.1858  0.7294 -0.9616
 7511TIP3   OH243947   4.838   4.477   4.783 -0.2391 -0.0642 -0.0569
 7511TIP3    H143948   4.879   4.563   4.784  1.7730 -0.9598  0.3357
 7511TIP3    H243949   4.845   4.448   4.692 -0.6951  0.0897 -0.1408
 7512TIP3   OH243950   3.895   4.071  11.225  0.3628  0.1672  0.0380
 7512TIP3    H143951   3.841   3.996  11.200  1.7463 -1.3397  1.3581
 7512TIP3    H243952   3.985   4.040  11.213  0.9625  1.6914  0.4577
 7513TIP3   OH243953   3.311   6.366  11.563  0.2406  0.0240 -0.0130
 7513TIP3    H143954   3.351   6.408  11.639 -1.5759  0.8916  0.5278
 7513TIP3    H243955   3.256   6.434  11.524 -3.0886 -1.7880  1.0799
 7514TIP3   OH243956   3.603   0.286  16.011 -0.5889  0.1915 -0.4733
 7514TIP3    H143957   3.601   0.295  16.106  1.5367 -0.5411 -0.3060
 7514TIP3    H243958   3.691   0.314  15.986 -0.2092 -2.0083 -1.9092
 7515TIP3   OH243959   5.932   0.719  12.098  0.2354 -0.4910  1.0972
 7515TIP3    H143960   5.925   0.814  12.109 -1.2088 -0.4958  0.3524
 7515TIP3    H243961   5.862   0.683  12.152 -0.4651 -1.0159 -0.1303
 7516TIP3   OH243962   4.611   0.253  15.053  0.0351 -0.0223  0.1346
 7516TIP3    H143963   4.610   0.325  15.116  0.6507 -1.3995  1.7939
 7516TIP3    H243964   4.704   0.233  15.041 -0.1314 -0.5264 -0.3455
 7517TIP3   OH243965   3.890   0.960   2.251 -0.2052 -0.6879 -0.2257
 7517TIP3    H143966   3.914   0.993   2.338  0.3010 -2.3785  0.3109
 7517TIP3    H243967   3.834   1.028   2.214 -0.9408 -0.2152  1.6737
 7518TIP3   OH243968   5.470   3.446   5.673 -0.3260  0.2744 -0.2203
 7518TIP3    H143969   5.486   3.496   5.593 -0.5023  3.4389  1.5577
 7518TIP3    H243970   5.388   3.482   5.708 -0.6162 -1.4950  1.0764
 7519TIP3   OH243971   3.198   0.984   3.047  0.0151 -0.0953  0.4106
 7519TIP3    H143972   3.130   0.921   3.070  0.2034 -0.6442 -0.4769
 7519TIP3    H243973   3.198   0.985   2.951 -0.3925  1.7016  0.3952
 7520TIP3   OH243974   0.952   0.818   0.924  0.4078 -0.1107  0.1026
 7520TIP3    H143975   1.031   0.857   0.962  0.1714 -1.0622  1.6957
 7520TIP3    H243976   0.984   0.758   0.857  1.1697 -1.4314  1.5867
 7521TIP3   OH243977   0.958   0.856   0.025 -0.2110  0.1274  0.4055
 7521TIP3    H143978   0.981   0.853  -0.068  0.5627  0.3032  0.5881
 7521TIP3    H243979   1.032   0.900   0.067 -0.5554  0.0517  1.1072
 7522TIP3   OH243980   5.680   2.190   6.270 -0.0419 -0.0168  0.4941
 7522TIP3    H143981   5.678   2.245   6.349 -2.2416  0.6662  0.0184
 7522TIP3    H243982   5.589   2.185   6.241  0.7634  0.4646 -2.4991
 7523TIP3   OH243983   3.095   6.277  12.735  0.0149  0.4110 -0.4843
 7523TIP3    H143984   3.003   6.260  12.716  0.2471 -0.7838 -0.5858
 7523TIP3    H243985   3.139   6.274  12.650 -0.0598  2.5680 -0.6547
 7524TIP3   OH243986   3.302   1.852  14.551  0.1524  0.2162 -0.0791
 7524TIP3    H143987   3.316   1.799  14.473  1.6855 -0.0855  0.3683
 7524TIP3    H243988   3.248   1.926  14.521  0.7416  0.1231 -1.4175
 7525TIP3   OH243989   4.493   0.536   1.783 -0.1868  0.0640  0.3660
 7525TIP3    H143990   4.572   0.566   1.738 -0.8335  1.2827 -0.0200
 7525TIP3    H243991   4.438   0.499   1.713 -1.8833  3.4067 -0.2965
 7526TIP3   OH243992   6.732   2.555   0.634 -0.2234 -0.0003 -0.7198
 7526TIP3    H143993   6.735   2.581   0.726  0.8524  0.0619 -0.7683
 7526TIP3    H243994   6.772   2.468   0.632  0.3405  0.2663 -1.2162
 7527TIP3   OH243995   6.478   4.301   3.195  0.0061 -0.3472  0.8090
 7527TIP3    H143996   6.435   4.302   3.109  0.1128 -0.3582  0.7546
 7527TIP3    H243997   6.489   4.393   3.218 -0.7970 -0.3492  1.2035
 7528TIP3   OH243998   2.566   1.706  11.624  0.2425 -0.0755  0.7550
 7528TIP3    H143999   2.490   1.723  11.680  1.2755  2.5992  1.5230
 7528TIP3    H244000   2.577   1.786  11.573  2.5291 -0.3563  0.6795
 7529TIP3   OH244001   0.810   2.748   2.953 -0.2128  0.4399 -0.0961
 7529TIP3    H144002   0.718   2.763   2.975 -0.4104 -0.2292 -0.4373
 7529TIP3    H244003   0.812   2.745   2.858 -0.0501 -0.7474 -0.0734
 7530TIP3   OH244004   5.195   2.952   4.884  0.6346  0.3487 -0.6185
 7530TIP3    H144005   5.180   2.940   4.791  2.4594 -0.2092 -0.8739
 7530TIP3    H244006   5.132   3.020   4.910 -1.8282 -1.4069 -1.6159
 7531TIP3   OH244007   5.996   2.661   0.011 -0.6306  0.6989  0.0691
 7531TIP3    H144008   5.950   2.677  -0.072 -0.5268  0.2486 -0.0807
 7531TIP3    H244009   6.082   2.699  -0.002 -0.4800  0.2831 -0.1793
 7532TIP3   OH244010   5.702   1.573   2.860  0.2088  0.2502 -0.2297
 7532TIP3    H144011   5.650   1.493   2.855 -0.3485  0.5911  0.0165
 7532TIP3    H244012   5.714   1.599   2.769  1.9509 -1.0822 -0.4381
 7533TIP3   OH244013   2.414   1.833  13.945  0.0389  0.2651 -0.1949
 7533TIP3    H144014   2.467   1.908  13.917 -0.3914 -0.6240 -3.8713
 7533TIP3    H244015   2.325   1.866  13.951  0.2092  0.5850  0.8914
 7534TIP3   OH244016   2.615   5.131  13.343  0.1447 -0.2293  0.2623
 7534TIP3    H144017   2.581   5.089  13.264  1.5238  1.3506 -1.2388
 7534TIP3    H244018   2.622   5.060  13.407 -1.3380 -1.4744 -0.9024
 7535TIP3   OH244019   6.192   1.095   0.386  0.3836  0.2952 -0.1848
 7535TIP3    H144020   6.134   1.172   0.389 -0.1660 -0.0401 -1.5461
 7535TIP3    H244021   6.159   1.043   0.313  1.5114 -0.6417 -0.0559
 7536TIP3   OH244022   4.595   1.689  12.129 -0.6025 -0.4503 -0.1376
 7536TIP3    H144023   4.591   1.778  12.165  0.6573 -0.2927 -0.3473
 7536TIP3    H244024   4.527   1.641  12.177 -0.5755  0.3564  0.7489
 7537TIP3   OH244025   2.108   0.517  13.819 -0.3610 -0.3235 -0.5885
 7537TIP3    H144026   2.145   0.605  13.824  0.4756 -0.6463 -1.0437
 7537TIP3    H244027   2.180   0.462  13.790 -0.7643 -1.2422  0.1148
 7538TIP3   OH244028   2.189   4.317   5.707 -0.3715  0.0684 -0.0404
 7538TIP3    H144029   2.238   4.292   5.785  0.5868 -0.1651 -0.6945
 7538TIP3    H244030   2.101   4.336   5.738  0.3362  1.3069  1.3117
 7539TIP3   OH244031   6.169   0.415   0.737  0.0159 -0.4675 -0.1534
 7539TIP3    H144032   6.139   0.496   0.695 -1.5014 -1.9060 -2.0222
 7539TIP3    H244033   6.103   0.396   0.804  0.0848 -0.4356 -0.0764
 7540TIP3   OH244034   4.375   2.074  11.711  0.2781  0.1066  0.3832
 7540TIP3    H144035   4.340   2.155  11.674 -2.1622 -1.1567 -0.3108
 7540TIP3    H244036   4.330   2.004  11.663  1.3683 -1.6660  1.8024
 7541TIP3   OH244037   3.876   1.849   0.721  0.4078 -0.5257 -0.9470
 7541TIP3    H144038   3.904   1.759   0.702  0.2124 -0.6669 -0.5703
 7541TIP3    H244039   3.904   1.899   0.644  0.3176 -0.9495 -1.2627
 7542TIP3   OH244040   2.046   1.648  13.263 -0.5622  0.1493 -1.0407
 7542TIP3    H144041   2.108   1.577  13.276  0.3359  0.9718 -0.7395
 7542TIP3    H244042   2.025   1.645  13.169 -0.6367 -0.5760 -1.0079
 7543TIP3   OH244043   3.522   2.458  14.611 -0.0869  0.2210 -0.4076
 7543TIP3    H144044   3.493   2.548  14.624  2.0184  0.9895 -0.6234
 7543TIP3    H244045   3.480   2.409  14.681 -0.1486  1.6225  0.5718
 7544TIP3   OH244046   5.788   2.132   2.894 -0.1353 -0.0678  0.7701
 7544TIP3    H144047   5.702   2.173   2.880 -0.4975 -1.3844 -1.5520
 7544TIP3    H244048   5.769   2.038   2.900  1.1379 -0.4062 -0.0456
 7545TIP3   OH244049   1.332   4.904   4.197 -0.1492 -0.3143 -0.5274
 7545TIP3    H144050   1.374   4.838   4.143 -0.6895 -0.1170 -1.1924
 7545TIP3    H244051   1.386   4.982   4.186 -0.4576 -0.1772 -1.0523
 7546TIP3   OH244052   5.850   4.516   1.104 -0.4519  0.4044 -0.6072
 7546TIP3    H144053   5.758   4.515   1.080 -0.4826  1.3290 -0.5482
 7546TIP3    H244054   5.894   4.472   1.031 -0.9969 -0.6276 -0.3352
 7547TIP3   OH244055   3.465   0.865   3.348  0.0733 -0.1029  0.2273
 7547TIP3    H144056   3.498   0.905   3.428 -0.6671 -0.4686  0.7340
 7547TIP3    H244057   3.536   0.809   3.317  0.7232  0.7775  0.0849
 7548TIP3   OH244058   5.426   3.992  11.294 -0.1827 -0.1948  0.0048
 7548TIP3    H144059   5.438   4.022  11.384 -1.6345  0.2634  0.0750
 7548TIP3    H244060   5.365   4.055  11.256  1.2811  0.2802 -1.6725
 7549TIP3   OH244061   3.641   5.260   3.979  0.1400  0.5905 -0.2739
 7549TIP3    H144062   3.650   5.285   4.071 -0.7326 -1.0707  0.2903
 7549TIP3    H244063   3.551   5.285   3.957  0.1651  0.4713 -0.5082
 7550TIP3   OH244064   5.302   3.518   3.365  0.2541  0.4954 -0.2381
 7550TIP3    H144065   5.393   3.548   3.372  0.0812  1.3485 -1.3033
 7550TIP3    H244066   5.263   3.537   3.450  0.9529  0.5218  0.0830
 7551TIP3   OH244067   1.028   3.624  12.839  0.1007  0.3043 -0.1234
 7551TIP3    H144068   0.973   3.560  12.883  1.6190 -0.7070  0.3757
 7551TIP3    H244069   1.044   3.692  12.904  1.1765 -0.4837  0.4744
 7552TIP3   OH244070   2.787   0.660   2.277 -0.3023 -0.2984  0.3624
 7552TIP3    H144071   2.760   0.669   2.186 -2.7481  1.2092  1.1429
 7552TIP3    H244072   2.799   0.566   2.290  0.9553 -0.4653 -1.6935
 7553TIP3   OH244073   3.198   2.813   4.846 -0.2686 -0.1542  0.3557
 7553TIP3    H144074   3.190   2.906   4.867  3.0560  0.3785 -0.2256
 7553TIP3    H244075   3.277   2.784   4.891 -0.2504 -2.2783 -0.8638
 7554TIP3   OH244076   5.552   4.622  11.551 -0.3193 -0.3186 -0.0582
 7554TIP3    H144077   5.584   4.652  11.466  0.4633  0.2700  0.4280
 7554TIP3    H244078   5.631   4.595  11.598 -0.6284  0.2401  0.8180
 7555TIP3   OH244079   1.600   5.467   0.543  0.0052  0.2124  0.5099
 7555TIP3    H144080   1.583   5.490   0.452  3.8657  2.7017  0.1711
 7555TIP3    H244081   1.571   5.543   0.593  0.8754  0.2452  0.9763
 7556TIP3   OH244082   0.167   0.486  13.200 -0.3095 -0.4036 -0.5254
 7556TIP3    H144083   0.098   0.420  13.195 -0.5630 -0.0787 -1.6270
 7556TIP3    H244084   0.156   0.537  13.120  0.3578  0.5022 -0.0472
 7557TIP3   OH244085   0.149   0.014  11.440  0.3807 -0.4104 -0.0748
 7557TIP3    H144086   0.125   0.093  11.392  1.5818 -0.1987 -0.3643
 7557TIP3    H244087   0.162   0.043  11.530  1.4591 -0.1372 -0.3085
 7558TIP3   OH244088   3.007   0.233  13.562  0.2406  0.2014  0.1788
 7558TIP3    H144089   2.921   0.222  13.521  0.2101 -1.3671  0.6033
 7558TIP3    H244090   3.025   0.327  13.555 -0.5345  0.2564 -1.8436
 7559TIP3   OH244091   6.613   6.613   2.105 -0.0895 -0.3009 -0.0261
 7559TIP3    H144092   6.535   6.609   2.049 -1.1698  1.6365  1.2270
 7559TIP3    H244093   6.598   6.546   2.171 -0.0512 -0.8160 -0.5300
 7560TIP3   OH244094   5.421   0.817   0.511  0.0871 -0.2221 -0.5695
 7560TIP3    H144095   5.443   0.776   0.428  0.4933  1.8040 -1.5065
 7560TIP3    H244096   5.452   0.907   0.503 -0.9562  0.3589  1.3194
 7561TIP3   OH244097   0.442   3.615  14.780 -0.5162  0.0997 -0.0263
 7561TIP3    H144098   0.373   3.682  14.776 -0.7832 -0.2042 -0.7070
 7561TIP3    H244099   0.395   3.534  14.799 -0.1795  0.1135  0.8944
 7562TIP3   OH244100   3.572   1.766  12.051 -0.0019 -0.1146 -0.4165
 7562TIP3    H144101   3.536   1.774  11.962  3.0467  0.0274 -1.7655
 7562TIP3    H244102   3.550   1.677  12.078 -0.9119 -0.1968 -1.3533
 7563TIP3   OH244103   0.164   1.559  15.356 -0.1043 -0.3199 -0.3844
 7563TIP3    H144104   0.199   1.470  15.346  1.3063  0.3263 -1.4664
 7563TIP3    H244105   0.089   1.562  15.298 -1.2336 -1.3104  0.9545
 7564TIP3   OH244106   4.464   1.641   2.353 -1.0722  0.6982 -0.1401
 7564TIP3    H144107   4.520   1.646   2.275 -0.2802  0.3948  0.3866
 7564TIP3    H244108   4.436   1.731   2.368  0.6654  1.1836  0.5301
 7565TIP3   OH244109   0.705   3.163  14.848  0.4596 -0.5047  0.3110
 7565TIP3    H144110   0.796   3.181  14.871  1.3539 -1.5849 -2.0635
 7565TIP3    H244111   0.682   3.230  14.784 -0.6288  0.0605  1.2463
 7566TIP3   OH244112   2.320   6.097  11.951 -0.4649 -0.1218 -0.5006
 7566TIP3    H144113   2.255   6.167  11.940 -0.4640 -0.3958 -2.6936
 7566TIP3    H244114   2.287   6.025  11.896 -0.5010 -1.9144  1.7320
 7567TIP3   OH244115   1.633   4.226  14.398  0.0495  0.6063 -0.3288
 7567TIP3    H144116   1.661   4.310  14.434  0.6130 -0.2261  1.2998
 7567TIP3    H244117   1.583   4.185  14.469 -0.2435 -0.4162 -1.1011
 7568TIP3   OH244118   3.962   3.126  12.270 -0.2211  0.3879 -0.1290
 7568TIP3    H144119   4.022   3.079  12.328  0.0467  1.8473  0.8211
 7568TIP3    H244120   4.009   3.132  12.186  2.2177  3.7396  1.2625
 7569TIP3   OH244121   4.123   6.424   2.667 -0.0696  0.2268 -0.2478
 7569TIP3    H144122   4.122   6.459   2.578  0.8861  1.0590  0.0456
 7569TIP3    H244123   4.131   6.329   2.656  0.7523  0.3784 -1.0456
 7570TIP3   OH244124   6.078   6.030   2.498  0.2040 -0.0687 -0.0235
 7570TIP3    H144125   6.139   6.036   2.571 -0.0231 -2.0739  0.4012
 7570TIP3    H244126   5.994   6.058   2.535  0.1328 -0.8775  0.4419
 7571TIP3   OH244127   5.834   0.641  13.450  0.2371 -0.3786 -0.0106
 7571TIP3    H144128   5.909   0.589  13.420 -0.3940 -0.9434 -0.6508
 7571TIP3    H244129   5.832   0.717  13.391 -0.1911 -0.7994 -0.5541
 7572TIP3   OH244130   0.147   4.331   4.296 -0.3416  0.2249  0.0915
 7572TIP3    H144131   0.176   4.240   4.291 -0.8620  0.1229 -1.4592
 7572TIP3    H244132   0.179   4.371   4.216 -1.1604  1.0934  0.1784
 7573TIP3   OH244133   3.149   4.747  14.282 -0.6911 -0.5127  0.0281
 7573TIP3    H144134   3.239   4.777  14.279 -0.2390 -1.7653  0.4512
 7573TIP3    H244135   3.104   4.809  14.340 -0.1247  0.1241 -0.2030
 7574TIP3   OH244136   6.333   4.461  14.732 -0.3692 -0.1487  0.1232
 7574TIP3    H144137   6.294   4.431  14.650 -0.4429 -1.6004  0.6401
 7574TIP3    H244138   6.310   4.554  14.738  0.5610  0.2531 -1.9831
 7575TIP3   OH244139   1.243   5.116   5.278  0.6835  0.0962 -0.2451
 7575TIP3    H144140   1.264   5.054   5.348  0.6717 -1.2164 -1.3601
 7575TIP3    H244141   1.156   5.149   5.300  0.6444 -0.3549  0.3055
 7576TIP3   OH244142   6.504   0.927  13.886  0.2023  0.0526 -0.4198
 7576TIP3    H144143   6.493   0.835  13.911 -1.8017  0.6770  1.2592
 7576TIP3    H244144   6.557   0.966  13.956 -1.7366  0.8511  0.6682
 7577TIP3   OH244145   0.802   4.475  12.457 -0.4953 -0.0013  0.0730
 7577TIP3    H144146   0.896   4.468  12.445 -0.5232  0.6122 -0.5628
 7577TIP3    H244147   0.778   4.398  12.509  0.4796  0.2992  0.9943
 7578TIP3   OH244148   1.092   0.469   3.609 -0.3313 -0.1114 -0.1270
 7578TIP3    H144149   1.164   0.410   3.588  0.0153  0.4042 -0.3840
 7578TIP3    H244150   1.076   0.519   3.529 -0.7433  0.0245  0.0337
 7579TIP3   OH244151   6.318   2.476   1.694  0.2192 -0.4846 -0.0041
 7579TIP3    H144152   6.298   2.435   1.779  1.1225  1.7146  1.3624
 7579TIP3    H244153   6.338   2.567   1.716  1.1095  0.0014 -2.5397
 7580TIP3   OH244154   5.864   4.121   4.727  0.6397  0.3393  0.0955
 7580TIP3    H144155   5.820   4.058   4.783  1.5139  1.2319  1.8869
 7580TIP3    H244156   5.834   4.206   4.758 -1.5802  0.9161 -3.1552
 7581TIP3   OH244157   2.417   2.867  15.391 -0.2449  0.2404 -0.0795
 7581TIP3    H144158   2.437   2.920  15.468 -3.1942  2.2865 -0.5691
 7581TIP3    H244159   2.457   2.915  15.318 -1.3148  0.8249 -0.3021
 7582TIP3   OH244160   0.096   0.641   0.274 -0.1166  0.2361  0.0670
 7582TIP3    H144161   0.186   0.634   0.306  0.0730 -0.5133 -0.6156
 7582TIP3    H244162   0.048   0.683   0.346  0.6990  0.3206  0.5695
 7583TIP3   OH244163   6.037   2.100   5.549  0.1173  0.1073 -0.7957
 7583TIP3    H144164   6.037   2.195   5.558 -0.1257 -0.0178  0.7684
 7583TIP3    H244165   6.129   2.075   5.555  0.7572  0.5065 -5.4242
 7584TIP3   OH244166   6.088   4.034  13.030 -0.0452  0.3389  0.2721
 7584TIP3    H144167   6.161   4.095  13.047  0.0269  0.7333 -1.2769
 7584TIP3    H244168   6.057   4.058  12.943 -1.3037 -0.5852  0.4377
 7585TIP3   OH244169   5.290   3.049  11.015 -0.1174  0.5265 -0.4815
 7585TIP3    H144170   5.292   3.091  10.928  0.6834 -1.4450 -1.4833
 7585TIP3    H244171   5.382   3.028  11.033 -0.5215 -1.2525 -0.2994
 7586TIP3   OH244172   5.046   3.291   0.673 -0.0834 -0.3781 -0.2766
 7586TIP3    H144173   4.985   3.267   0.603  0.9743 -3.3081 -0.3493
 7586TIP3    H244174   5.100   3.213   0.685  0.2850  0.2688  3.3102
 7587TIP3   OH244175   2.167   2.674  16.067 -0.4770 -0.0280  0.5706
 7587TIP3    H144176   2.258   2.691  16.042 -0.4669 -1.0186 -0.1078
 7587TIP3    H244177   2.168   2.585  16.102 -1.3767 -0.4892 -0.5291
 7588TIP3   OH244178   4.531   0.554  16.170  0.5925  0.0423 -0.9685
 7588TIP3    H144179   4.511   0.496  16.097 -0.9789 -1.4924  0.5789
 7588TIP3    H244180   4.572   0.497  16.235  3.5725  1.6982 -1.2069
 7589TIP3   OH244181   5.974   2.036  12.992  0.5065 -0.0532  0.5515
 7589TIP3    H144182   5.887   2.000  12.979  0.4021  0.5626 -0.5533
 7589TIP3    H244183   5.977   2.058  13.085 -0.4585 -0.2075  0.6306
 7590TIP3   OH244184   0.215   5.351  12.433  0.7243  0.2892  0.2087
 7590TIP3    H144185   0.237   5.258  12.426  0.5635  0.3417 -1.4918
 7590TIP3    H244186   0.142   5.362  12.372 -0.4987  1.1844  1.7741
 7591TIP3   OH244187   3.174   2.009  14.765  0.3896  0.2621 -0.5615
 7591TIP3    H144188   3.262   2.012  14.728 -0.6002  1.1580 -3.0052
 7591TIP3    H244189   3.177   1.936  14.828  2.6075 -0.2963 -1.2348
 7592TIP3   OH244190   1.860   5.198  13.230 -0.0978  0.2947 -0.4800
 7592TIP3    H144191   1.825   5.273  13.182  0.9555  0.8913 -0.3363
 7592TIP3    H244192   1.812   5.123  13.195 -3.1948  1.2809  1.3106
 7593TIP3   OH244193   3.138   3.669   0.261 -0.7739 -0.1994 -0.0642
 7593TIP3    H144194   3.122   3.646   0.170 -1.7182 -4.3919  0.9443
 7593TIP3    H244195   3.051   3.692   0.296 -0.4346  1.2847 -0.1312
 7594TIP3   OH244196   3.102   4.185   4.267  0.1633  0.2867 -0.3318
 7594TIP3    H144197   3.188   4.144   4.257 -0.4538 -1.1910  0.1351
 7594TIP3    H244198   3.064   4.144   4.345 -1.5833 -0.2564 -1.4038
 7595TIP3   OH244199   3.635   5.959  14.042  0.0834 -0.2008  0.2734
 7595TIP3    H144200   3.566   5.956  13.976  0.9881 -1.2223 -0.6773
 7595TIP3    H244201   3.647   5.867  14.068  0.5825  0.0489  0.9654
 7596TIP3   OH244202   1.601   4.691   6.613  0.1804 -0.3598 -0.4470
 7596TIP3    H144203   1.663   4.634   6.659  0.3724  0.7943  0.8042
 7596TIP3    H244204   1.550   4.732   6.683 -0.9592 -0.1179 -1.3862
 7597TIP3   OH244205   0.896   2.084   1.655 -0.8070 -0.3612  0.0569
 7597TIP3    H144206   0.968   2.144   1.672  0.9263 -2.4899  0.6833
 7597TIP3    H244207   0.862   2.110   1.569  1.6781 -0.1783 -0.9531
 7598TIP3   OH244208   6.273   2.738   4.306 -0.2631  0.4708 -0.6429
 7598TIP3    H144209   6.286   2.764   4.216 -0.8165 -0.4330 -1.0027
 7598TIP3    H244210   6.257   2.644   4.302  0.7767  0.2144  0.5070
 7599TIP3   OH244211   1.619   4.371  11.937  0.5763 -0.0918  0.4830
 7599TIP3    H144212   1.576   4.292  11.968 -2.2299  1.6500  1.4310
 7599TIP3    H244213   1.596   4.376  11.844 -0.1936  0.1159  0.6718
 7600TIP3   OH244214   4.170   0.453  14.728  0.2418  0.1498 -0.1386
 7600TIP3    H144215   4.118   0.429  14.804 -1.5813 -1.1076 -1.6928
 7600TIP3    H244216   4.260   0.433  14.754 -0.3649 -0.6371  1.5442
 7601TIP3   OH244217   3.751   0.970  11.062 -0.7385 -0.1645  0.2213
 7601TIP3    H144218   3.756   0.992  10.969 -2.3339 -0.0368  0.1328
 7601TIP3    H244219   3.824   0.910  11.076 -0.3481 -0.0251 -1.0679
 7602TIP3   OH244220   0.612   0.214  15.979 -0.1977  0.4796 -0.0332
 7602TIP3    H144221   0.637   0.157  16.052 -0.3220 -1.3664 -1.3462
 7602TIP3    H244222   0.557   0.158  15.923  0.6056  1.5288 -1.9691
 7603TIP3   OH244223   4.253   4.881   6.794 -0.0177 -0.1904 -0.2328
 7603TIP3    H144224   4.183   4.946   6.799  0.3582  0.1405  1.3339
 7603TIP3    H244225   4.331   4.931   6.769  0.7975  0.5312  3.1528
 7604TIP3   OH244226   5.330   1.045   0.936 -0.1645  0.2714 -0.2840
 7604TIP3    H144227   5.327   1.078   0.845  0.7144 -0.1847 -0.4891
 7604TIP3    H244228   5.357   0.954   0.927  0.4701  0.3797  0.4717
 7605TIP3   OH244229   6.117   5.417  12.255 -0.1792  0.1104 -0.1094
 7605TIP3    H144230   6.052   5.449  12.192 -0.8704  3.0645  1.9210
 7605TIP3    H244231   6.157   5.496  12.290  1.0465 -1.4709  2.2672
 7606TIP3   OH244232   4.145   1.536  15.924 -0.0742  0.4128  0.3960
 7606TIP3    H144233   4.215   1.600  15.908  0.1027 -0.0281 -0.6996
 7606TIP3    H244234   4.143   1.483  15.844 -0.9765 -0.2326  0.8356
 7607TIP3   OH244235   6.672   3.573  17.487  0.2519 -0.3167 -0.3810
 7607TIP3    H144236   6.665   3.665  17.513  1.4534  0.0038 -1.1385
 7607TIP3    H244237   6.597   3.531  17.528 -0.3869  1.0274 -0.1268
 7608TIP3   OH244238   0.426   1.871   0.151 -0.0678 -0.4279 -0.1374
 7608TIP3    H144239   0.512   1.856   0.113 -0.3805 -2.6056 -0.0977
 7608TIP3    H244240   0.367   1.811   0.105 -0.8759 -1.5458  2.1793
 7609TIP3   OH244241   0.903   0.540  13.725  0.1505  0.5253 -0.2937
 7609TIP3    H144242   0.921   0.533  13.819 -0.9405 -1.2408 -0.1598
 7609TIP3    H244243   0.974   0.492  13.683  0.1174  0.4814 -0.2999
 7610TIP3   OH244244   5.844   3.605  16.217  0.1592  0.4791 -0.7377
 7610TIP3    H144245   5.823   3.677  16.157 -2.2488  1.2440  0.8771
 7610TIP3    H244246   5.806   3.528  16.174  0.1184  0.6849 -1.0839
 7611TIP3   OH244247   2.078   0.361   4.617  0.1036 -0.0431 -0.0740
 7611TIP3    H144248   2.139   0.292   4.592 -0.1564 -0.3085  0.0129
 7611TIP3    H244249   2.024   0.322   4.685 -0.0197  0.2614  0.0059
 7612TIP3   OH244250   4.720   4.263  12.300 -0.0621 -0.1627 -0.5417
 7612TIP3    H144251   4.674   4.182  12.280 -2.7709  1.1847 -0.2736
 7612TIP3    H244252   4.663   4.308  12.363  1.9634  1.4040  0.2943
 7613TIP3   OH244253   5.298   3.982  11.607 -0.1649 -0.3651  0.5970
 7613TIP3    H144254   5.244   4.049  11.564  0.0012  0.0459  1.0140
 7613TIP3    H244255   5.258   3.899  11.583 -1.3144 -0.0498  1.3413
 7614TIP3   OH244256   5.281   3.427  16.817  0.3289  0.0218 -0.0541
 7614TIP3    H144257   5.249   3.365  16.883  0.0227  1.2350  0.9795
 7614TIP3    H244258   5.373   3.405  16.806 -0.0949 -1.4883 -0.7215
 7615TIP3   OH244259   2.017   2.049  15.464  0.0178 -0.1653  0.3150
 7615TIP3    H144260   1.977   2.025  15.547 -1.4205 -1.4557 -0.6714
 7615TIP3    H244261   1.942   2.069  15.407  0.9689  0.7930 -0.6333
 7616TIP3   OH244262   2.959   0.003  13.326  0.2785 -0.1726 -0.1558
 7616TIP3    H144263   3.009   0.083  13.308  2.8304 -1.5056  0.5733
 7616TIP3    H244264   2.882   0.033  13.373  0.6157  1.9502 -0.8520
 7617TIP3   OH244265   6.520   2.447   4.393  0.6996  0.3654 -0.1521
 7617TIP3    H144266   6.448   2.429   4.453  1.1864 -2.3611 -0.2718
 7617TIP3    H244267   6.599   2.439   4.446  1.0204  1.5436 -0.4130
 7618TIP3   OH244268   3.419   2.611  13.715 -0.8916 -0.2834 -0.0375
 7618TIP3    H144269   3.369   2.628  13.795 -2.1031  0.1843 -0.8632
 7618TIP3    H244270   3.375   2.663  13.648  0.7788  0.2199 -0.7992
 7619TIP3   OH244271   2.323   0.400   5.207  0.0002 -0.4245 -0.2057
 7619TIP3    H144272   2.366   0.317   5.184  1.0171  0.0396 -0.0136
 7619TIP3    H244273   2.372   0.432   5.282 -0.1087  0.5811 -0.5545
 7620TIP3   OH244274   2.599   2.894   4.753 -0.7041 -0.1224 -0.0231
 7620TIP3    H144275   2.675   2.951   4.741 -1.4395  0.7815 -0.4510
 7620TIP3    H244276   2.611   2.824   4.689 -0.4850  0.2804 -0.4247
 7621TIP3   OH244277   2.609   0.887  16.996  0.4213 -0.4625 -0.4846
 7621TIP3    H144278   2.546   0.955  17.018  1.1543 -0.1183  0.6062
 7621TIP3    H244279   2.664   0.879  17.073  1.8591 -0.5981 -1.4871
 7622TIP3   OH244280   6.259   0.779  14.188  0.4146 -0.6080 -0.0781
 7622TIP3    H144281   6.245   0.775  14.283 -1.6030 -4.0277 -0.3401
 7622TIP3    H244282   6.238   0.869  14.164 -2.5066 -0.4883  2.3482
 7623TIP3   OH244283   1.449   4.342  12.771 -0.0847 -0.1799 -0.2094
 7623TIP3    H144284   1.517   4.382  12.717  0.2283  0.1658  0.4400
 7623TIP3    H244285   1.494   4.271  12.817 -0.5524 -1.0782 -1.0784
 7624TIP3   OH244286   4.190   4.256   1.165 -0.0105 -0.3680 -0.0255
 7624TIP3    H144287   4.220   4.347   1.163  1.5211 -0.8513 -1.7943
 7624TIP3    H244288   4.095   4.263   1.160 -0.1218  1.1565  2.3958
 7625TIP3   OH244289   2.599   5.384  16.863 -0.2967 -0.2312 -0.1696
 7625TIP3    H144290   2.676   5.387  16.805 -0.7524 -1.5075 -0.8676
 7625TIP3    H244291   2.575   5.476  16.875 -0.1506  0.0857 -1.9810
 7626TIP3   OH244292   2.090   1.784   4.677 -0.1163  0.3090 -0.2646
 7626TIP3    H144293   2.158   1.733   4.720 -2.4319 -1.6511  1.3494
 7626TIP3    H244294   2.117   1.875   4.689  1.4202 -0.3406  1.6907
 7627TIP3   OH244295   5.378   4.594   4.511 -0.2910  0.1381  0.0893
 7627TIP3    H144296   5.360   4.672   4.458  0.8315 -0.3920 -1.0929
 7627TIP3    H244297   5.423   4.534   4.453 -2.0099 -1.8567  0.6630
 7628TIP3   OH244298   6.143   6.725   5.312  0.2101 -0.4572 -0.5151
 7628TIP3    H144299   6.136   6.647   5.368  0.3804 -0.9750 -1.1914
 7628TIP3    H244300   6.115   6.694   5.226  1.3957 -0.0619 -1.0573
 7629TIP3   OH244301   2.970   6.460  14.282 -0.4278 -0.3962  0.1218
 7629TIP3    H144302   3.019   6.433  14.204 -1.8966 -0.5946 -0.7659
 7629TIP3    H244303   2.999   6.550  14.297  1.1833 -0.9386  0.4299
 7630TIP3   OH244304   1.869   1.382   1.614 -0.1289  0.3223  0.0601
 7630TIP3    H144305   1.922   1.443   1.563 -0.7303  0.4299 -0.4436
 7630TIP3    H244306   1.911   1.297   1.602  0.8648  0.6649  0.9724
 7631TIP3   OH244307   4.050   4.435  16.412 -0.2720  0.4866  0.0660
 7631TIP3    H144308   4.038   4.419  16.318  0.0927  0.2889  0.0491
 7631TIP3    H244309   4.141   4.410  16.428 -0.3271  0.5474  0.4693
 7632TIP3   OH244310   4.062   0.562  16.899  0.5931  0.2008 -0.4223
 7632TIP3    H144311   4.014   0.618  16.838  1.4699  0.8024 -0.5764
 7632TIP3    H244312   3.994   0.510  16.942 -0.0936  0.2619 -1.4099
 7633TIP3   OH244313   4.490   4.372  12.067 -0.4533 -0.2531 -0.0621
 7633TIP3    H144314   4.465   4.368  12.160 -0.2005 -0.9003 -0.0177
 7633TIP3    H244315   4.500   4.281  12.041  0.6705 -0.0369 -0.4110
 7634TIP3   OH244316   1.486   2.789  15.672  0.0689  0.5731  0.2282
 7634TIP3    H144317   1.561   2.798  15.731 -1.5409  0.3922  2.4721
 7634TIP3    H244318   1.449   2.703  15.694 -0.6758  0.5732 -0.9626
 7635TIP3   OH244319   0.379   5.198  15.737  0.1878  0.2995 -0.1411
 7635TIP3    H144320   0.384   5.227  15.828 -1.1498  1.1395 -0.3117
 7635TIP3    H244321   0.410   5.273  15.686  1.3536 -0.3177 -0.3897
 7636TIP3   OH244322   1.490   4.765   0.530  0.2397  0.5466  0.3650
 7636TIP3    H144323   1.405   4.746   0.491 -0.4201  0.7590  1.6668
 7636TIP3    H244324   1.494   4.861   0.532  0.6887  0.5441 -0.0384
 7637TIP3   OH244325   6.211   1.702  15.724  0.2231  0.0261 -0.3111
 7637TIP3    H144326   6.124   1.691  15.685  0.3416 -3.1495  0.0468
 7637TIP3    H244327   6.193   1.736  15.812 -0.5145  0.9909 -0.8177
 7638TIP3   OH244328   3.642   2.878   2.611 -0.2496  0.1767  0.2139
 7638TIP3    H144329   3.721   2.865   2.663 -1.4157  0.4507  2.1509
 7638TIP3    H244330   3.674   2.918   2.530  1.7183 -1.0047  0.3301
 7639TIP3   OH244331   4.838   5.730  13.331 -0.5491 -0.2016  0.9948
 7639TIP3    H144332   4.773   5.797  13.355 -1.1940  0.4206 -2.1448
 7639TIP3    H244333   4.917   5.780  13.313 -0.6982 -0.3852 -0.2166
 7640TIP3   OH244334   5.547   1.309  11.785 -0.9397 -0.8779  0.3579
 7640TIP3    H144335   5.515   1.339  11.869 -0.4334 -1.0041  0.6031
 7640TIP3    H244336   5.530   1.215  11.785 -2.9784 -0.5626 -0.6144
 7641TIP3   OH244337   6.637   0.086  12.270  0.4273 -0.4780  0.5237
 7641TIP3    H144338   6.698   0.159  12.261 -0.1015 -0.0752  0.1040
 7641TIP3    H244339   6.627   0.074  12.364  1.4334 -0.8000  0.6077
 7642TIP3   OH244340   4.957   0.938  14.277  0.0575 -0.0732 -0.0600
 7642TIP3    H144341   4.957   0.990  14.357 -1.3047  0.5500 -0.4167
 7642TIP3    H244342   4.908   0.859  14.299 -0.5428  0.2137 -0.3164
 7643TIP3   OH244343   0.849   6.577  14.732 -0.4418 -0.2499  0.6296
 7643TIP3    H144344   0.891   6.662  14.719  1.0075 -0.9899  0.1654
 7643TIP3    H244345   0.862   6.531  14.649 -2.1924 -0.5383  0.4907
 7644TIP3   OH244346   3.691   5.736  13.789 -0.7080  0.3115  0.8312
 7644TIP3    H144347   3.640   5.668  13.744  1.3084 -0.7069 -0.0340
 7644TIP3    H244348   3.699   5.703  13.879 -1.4833  0.4434  0.9558
 7645TIP3   OH244349   2.326   1.763  16.068 -0.4337 -0.0589  0.1596
 7645TIP3    H144350   2.336   1.726  16.155  2.4160  0.4374  0.1401
 7645TIP3    H244351   2.277   1.697  16.019 -1.5594 -0.6073  1.9193
 7646TIP3   OH244352   5.449   3.285  12.159  0.0633 -0.1496 -0.2450
 7646TIP3    H144353   5.462   3.316  12.069  0.1338 -0.1638 -0.2402
 7646TIP3    H244354   5.383   3.216  12.151  0.1607 -0.2358 -0.3027
 7647TIP3   OH244355   1.912   1.626   2.287 -0.7365  0.3150 -0.5766
 7647TIP3    H144356   1.884   1.646   2.198 -1.0716  0.1364 -0.5115
 7647TIP3    H244357   1.969   1.700   2.311 -0.3651  0.1889 -1.0585
 7648TIP3   OH244358   1.341   2.968   0.457  0.1747 -0.1490 -0.3972
 7648TIP3    H144359   1.392   2.887   0.446 -0.8342 -0.7082 -1.1374
 7648TIP3    H244360   1.316   2.968   0.550  1.4792  0.1303 -0.0236
 7649TIP3   OH244361   5.157   2.936  14.636  0.2746  0.5736 -0.0531
 7649TIP3    H144362   5.233   2.982  14.601  0.3507 -0.3093 -1.1107
 7649TIP3    H244363   5.192   2.883  14.707  0.6582  0.1613 -0.5422
 7650TIP3   OH244364   0.292   5.085  14.113  0.1192  0.3127 -0.1593
 7650TIP3    H144365   0.335   5.149  14.170  1.0323 -0.0775 -0.3892
 7650TIP3    H244366   0.278   5.132  14.031 -2.3163  1.2660  0.7260
 7651TIP3   OH244367   2.893   5.010   1.785 -0.2276  0.1956  0.2924
 7651TIP3    H144368   2.921   5.010   1.877  1.3764 -0.2097 -0.1601
 7651TIP3    H244369   2.933   4.931   1.749 -1.7651 -0.2498 -0.5110
 7652TIP3   OH244370   1.873   4.774   0.822 -0.0250 -0.0830 -0.3139
 7652TIP3    H144371   1.904   4.702   0.767 -0.8625 -1.7919  1.3523
 7652TIP3    H244372   1.779   4.780   0.804 -0.2253 -0.3652  0.5778
 7653TIP3   OH244373   0.486   4.977  15.444  0.1659  0.4823  0.0913
 7653TIP3    H144374   0.411   5.032  15.425 -0.0751 -0.1985 -1.0115
 7653TIP3    H244375   0.517   5.007  15.529 -0.7221  1.4583  0.0866
 7654TIP3   OH244376   3.738   6.028  11.912 -0.2134 -0.2156  0.3438
 7654TIP3    H144377   3.757   6.083  11.987 -2.2464  1.3837 -0.2484
 7654TIP3    H244378   3.736   6.088  11.838 -0.4032 -1.4258 -0.6667
 7655TIP3   OH244379   3.170   6.017   4.456 -0.1957  0.4863 -0.0266
 7655TIP3    H144380   3.197   6.102   4.421 -0.0959 -0.1448 -1.5783
 7655TIP3    H244381   3.185   6.023   4.550  1.5110  1.5831 -0.3357
 7656TIP3   OH244382   5.779   0.197  14.301 -0.0706 -0.0043  0.0520
 7656TIP3    H144383   5.843   0.152  14.357 -0.8016 -0.9958  0.1298
 7656TIP3    H244384   5.831   0.233  14.229  0.4996 -1.5367 -0.3543
 7657TIP3   OH244385   1.821   4.859  14.733 -0.6800 -0.1826  0.1350
 7657TIP3    H144386   1.874   4.858  14.653 -0.3069  0.0681  0.3744
 7657TIP3    H244387   1.772   4.941  14.729 -0.4462 -0.0328  0.2979
 7658TIP3   OH244388   4.706   1.708  17.024 -0.2539  0.1412 -0.5923
 7658TIP3    H144389   4.703   1.769  16.951 -1.5589 -1.0021 -1.5496
 7658TIP3    H244390   4.671   1.757  17.099  1.6365  1.5076 -0.5226
 7659TIP3   OH244391   0.716   0.783  13.778 -0.3205 -0.5291  0.8393
 7659TIP3    H144392   0.773   0.717  13.738  0.5831  1.6294 -1.7221
 7659TIP3    H244393   0.627   0.756  13.753  0.1659  0.2730 -2.0924
 7660TIP3   OH244394   3.862   0.181  12.694 -0.1065  0.5524 -0.1974
 7660TIP3    H144395   3.849   0.130  12.775 -1.2790  1.8042  0.4480
 7660TIP3    H244396   3.952   0.213  12.701 -0.3200  0.9789  0.8257
 7661TIP3   OH244397   2.927   5.215   3.332 -0.0753  0.8752  0.3738
 7661TIP3    H144398   3.003   5.273   3.335 -0.1700  1.0460 -0.2447
 7661TIP3    H244399   2.902   5.214   3.239  2.0671 -2.9888 -0.3381
 7662TIP3   OH244400   5.606   3.193  14.438  0.3185  0.2165  0.8855
 7662TIP3    H144401   5.593   3.167  14.347 -1.3959 -2.0848  1.7142
 7662TIP3    H244402   5.605   3.289  14.435 -0.7845  0.2018 -1.3702
 7663TIP3   OH244403   3.212   6.604  16.453  0.1216 -0.0095 -0.3934
 7663TIP3    H144404   3.129   6.581  16.496  0.6165 -0.7369  0.2120
 7663TIP3    H244405   3.213   6.700  16.451 -1.6245  0.0181 -2.1967
 7664TIP3   OH244406   3.850   0.605  16.478 -0.1944 -0.1739  0.5211
 7664TIP3    H144407   3.839   0.584  16.385  1.3459  1.3608 -0.0600
 7664TIP3    H244408   3.932   0.562  16.503 -1.6771 -2.4580  1.8480
 7665TIP3   OH244409   4.134   4.008  11.098 -0.1900 -0.8793  0.3430
 7665TIP3    H144410   4.182   4.058  11.032 -1.2625 -1.0684 -0.6281
 7665TIP3    H244411   4.200   3.986  11.164  0.8964 -0.5315 -0.5762
 7666TIP3   OH244412   3.532   2.671   4.712 -0.2375  0.0312  0.5280
 7666TIP3    H144413   3.521   2.732   4.785 -1.8265  0.3062  0.1016
 7666TIP3    H244414   3.463   2.695   4.650  0.9817 -0.3021 -1.0114
 7667TIP3   OH244415   2.225   3.943  11.143 -0.0365  0.3435  0.3483
 7667TIP3    H144416   2.258   4.033  11.147  2.0285 -0.3565  0.4487
 7667TIP3    H244417   2.205   3.928  11.051 -0.9337  1.0733  0.4159
 7668TIP3   OH244418   3.968   0.255   2.333  0.1120 -0.3201 -0.4441
 7668TIP3    H144419   4.000   0.305   2.257  1.6347  0.0238  0.3791
 7668TIP3    H244420   4.036   0.268   2.399 -1.5494  0.0060  1.2486
 7669TIP3   OH244421   4.473   0.057   2.504 -0.3373  0.4282 -0.1271
 7669TIP3    H144422   4.402   0.013   2.552 -0.7114 -0.1875 -1.2039
 7669TIP3    H244423   4.451   0.150   2.509 -0.7875  0.3102  0.2259
 7670TIP3   OH244424   3.753   6.325  14.278  0.2331 -0.3740 -0.2154
 7670TIP3    H144425   3.662   6.303  14.260  0.3332  0.2242 -1.5838
 7670TIP3    H244426   3.802   6.245  14.256  0.0406 -0.7012  0.5404
 7671TIP3   OH244427   2.832   5.476  13.571 -0.2377 -0.0053  0.2741
 7671TIP3    H144428   2.856   5.385  13.555 -0.1035  0.0722  0.0283
 7671TIP3    H244429   2.758   5.471  13.631  1.7230 -0.1995  2.8368
 7672TIP3   OH244430   3.355   5.954   6.301 -0.0255  0.1598 -0.5025
 7672TIP3    H144431   3.449   5.942   6.319 -0.0999 -0.4721 -0.5064
 7672TIP3    H244432   3.314   5.956   6.387 -0.0693 -0.1187 -0.5158
 7673TIP3   OH244433   1.218   4.198   0.518 -0.2655 -0.2238  0.1879
 7673TIP3    H144434   1.179   4.282   0.544 -0.8114 -0.2172 -0.6280
 7673TIP3    H244435   1.248   4.159   0.600  3.9234  2.6374  0.3452
 7674TIP3   OH244436   0.612   6.390  15.096  0.0839 -0.3159 -0.3980
 7674TIP3    H144437   0.684   6.397  15.159  1.9179  0.7990 -2.4807
 7674TIP3    H244438   0.623   6.303  15.058 -0.3739 -0.5784  0.0605
 7675TIP3   OH244439   4.744   2.228  15.320  0.0503 -0.3446 -0.5198
 7675TIP3    H144440   4.750   2.162  15.252 -0.4178  0.0764 -0.9789
 7675TIP3    H244441   4.824   2.280  15.311  0.1416 -0.4880 -0.5335
 7676TIP3   OH244442   4.732   2.408   6.322  0.0730 -0.4776 -0.3479
 7676TIP3    H144443   4.784   2.348   6.375  2.3424  0.2888 -1.5636
 7676TIP3    H244444   4.651   2.360   6.302  1.2045 -2.5747 -0.1183
 7677TIP3   OH244445   0.357   3.375  16.703  0.1294  0.1871  0.2043
 7677TIP3    H144446   0.442   3.410  16.729  1.0956 -1.7627 -0.1695
 7677TIP3    H244447   0.330   3.430  16.629 -0.8845  3.3710  2.7149
 7678TIP3   OH244448   5.966   2.107  15.443 -0.1951  0.2552 -0.3778
 7678TIP3    H144449   5.944   2.029  15.493 -2.2218 -1.0510 -3.0422
 7678TIP3    H244450   5.904   2.173  15.473  0.5667  0.4472  0.8516
 7679TIP3   OH244451   3.964   3.356   4.514 -0.4227  0.5181 -0.1472
 7679TIP3    H144452   4.023   3.306   4.571 -0.4252  0.0503 -0.5452
 7679TIP3    H244453   3.970   3.446   4.546 -0.5225  0.2413  0.6770
 7680TIP3   OH244454   5.910   3.974  14.909 -0.6261  0.0279 -0.2752
 7680TIP3    H144455   5.906   4.065  14.938 -1.3264 -0.0996  0.0453
 7680TIP3    H244456   6.003   3.951  14.915 -0.1630  1.2462 -2.0164
 7681TIP3   OH244457   4.287   3.197   0.649  0.2113  0.6610 -0.1007
 7681TIP3    H144458   4.253   3.237   0.729  0.7258 -0.9886  1.0066
 7681TIP3    H244459   4.210   3.165   0.603  0.0436 -0.5170  0.9641
 7682TIP3   OH244460   3.483   3.463   6.006  0.9317  0.2108 -0.3981
 7682TIP3    H144461   3.398   3.480   6.048  0.9841 -0.6307  0.0707
 7682TIP3    H244462   3.528   3.547   6.008  1.1486  0.1185  1.7482
 7683TIP3   OH244463   6.004   6.601  14.679  0.1265  0.5940  0.1746
 7683TIP3    H144464   5.930   6.564  14.728 -0.5448  0.8413 -0.6342
 7683TIP3    H244465   6.079   6.590  14.738 -0.7842  1.5825  1.5811
 7684TIP3   OH244466   5.225   1.200   4.304 -0.1245 -0.0248  0.0609
 7684TIP3    H144467   5.157   1.231   4.364 -0.0487  0.3299 -0.0352
 7684TIP3    H244468   5.183   1.129   4.256  0.0253 -0.7823  1.0105
 7685TIP3   OH244469   1.895   0.957   2.718 -0.1079 -0.0633 -0.1344
 7685TIP3    H144470   1.818   0.901   2.726 -0.4429  0.2171 -1.2646
 7685TIP3    H244471   1.896   0.985   2.627  2.5201 -1.7743 -0.7303
 7686TIP3   OH244472   2.423   5.988   5.271  0.5019  0.1241  0.0184
 7686TIP3    H144473   2.477   5.989   5.350 -0.2121  0.5168  0.5186
 7686TIP3    H244474   2.459   6.058   5.217  1.1551 -0.3147 -0.1201
 7687TIP3   OH244475   4.686   0.034  14.452 -0.2080 -0.3768  0.3028
 7687TIP3    H144476   4.617   0.010  14.390  1.0864 -1.9736 -0.6245
 7687TIP3    H244477   4.757  -0.028  14.434  2.7289  2.9510 -0.9136
 7688TIP3   OH244478   2.335   4.445   3.307  0.1096  0.2986  0.1303
 7688TIP3    H144479   2.381   4.529   3.300 -1.4397  1.0835 -1.1849
 7688TIP3    H244480   2.339   4.424   3.400  0.1703  2.0611  0.5691
 7689TIP3   OH244481   1.435   6.725   3.255  0.1604 -0.3843  0.1690
 7689TIP3    H144482   1.452   6.689   3.342  1.5896 -3.4114 -1.2149
 7689TIP3    H244483   1.353   6.684   3.228  0.2936 -0.3334 -0.3207
 7690TIP3   OH244484   5.404   0.840  10.958 -0.3631  0.5395  0.0539
 7690TIP3    H144485   5.393   0.828  11.053  1.0514 -1.7477 -0.0173
 7690TIP3    H244486   5.473   0.907  10.951  0.2903 -0.0542  0.6673
 7691TIP3   OH244487   2.403   0.561  15.736  0.0288 -0.3747 -0.2335
 7691TIP3    H144488   2.443   0.645  15.760  1.4615 -1.2529  0.5454
 7691TIP3    H244489   2.320   0.560  15.783 -0.6885  1.2042 -1.3729
 7692TIP3   OH244490   2.444   2.276  14.368  0.3111  0.5689  0.2562
 7692TIP3    H144491   2.354   2.308  14.382 -0.4908 -0.6666 -1.7477
 7692TIP3    H244492   2.484   2.343  14.313 -0.6991 -0.6936 -2.1579
 7693TIP3   OH244493   4.896   3.223  13.920 -0.4348 -0.0608 -0.0644
 7693TIP3    H144494   4.857   3.165  13.855  1.7678 -0.0041 -1.5600
 7693TIP3    H244495   4.830   3.231  13.989 -1.8362 -2.2148 -1.0618
 7694TIP3   OH244496   3.052   4.128   5.053 -0.1481  1.0535 -0.1411
 7694TIP3    H144497   2.984   4.105   4.990  1.7136 -1.0602 -1.5278
 7694TIP3    H244498   3.120   4.062   5.041  1.8319  2.5842  1.7221
 7695TIP3   OH244499   4.155   4.140   3.127  0.1115  0.1403  0.1656
 7695TIP3    H144500   4.073   4.170   3.087  0.7101  1.1340 -0.3357
 7695TIP3    H244501   4.126   4.084   3.200 -0.9974 -0.7724 -0.9174
 7696TIP3   OH244502   4.684   4.886  15.353 -0.0953 -0.2387  0.4267
 7696TIP3    H144503   4.757   4.838  15.314 -0.8836 -1.4393  0.3502
 7696TIP3    H244504   4.649   4.826  15.419 -2.3490 -0.6496 -1.0089
 7697TIP3   OH244505   5.915   1.103   3.572 -0.0233 -0.4405  0.0329
 7697TIP3    H144506   5.974   1.158   3.623 -0.5589 -0.2860  0.5058
 7697TIP3    H244507   5.956   1.017   3.572 -0.2178 -0.5479  1.0986
 7698TIP3   OH244508   3.953   0.831  14.674  0.0613 -0.4366 -0.4016
 7698TIP3    H144509   3.913   0.916  14.692  0.9562  0.0376 -0.5988
 7698TIP3    H244510   3.912   0.803  14.592 -0.0947 -0.1058 -0.4405
 7699TIP3   OH244511   4.989   5.136  16.786 -0.5416  0.0050 -0.2583
 7699TIP3    H144512   5.054   5.197  16.752  0.5429 -2.2770 -2.7032
 7699TIP3    H244513   4.913   5.146  16.728 -0.6900 -0.3406 -0.1321
 7700TIP3   OH244514   0.490   1.562   1.276 -0.0332 -0.7680 -0.1099
 7700TIP3    H144515   0.531   1.628   1.221  1.0189 -0.1425  1.3669
 7700TIP3    H244516   0.413   1.534   1.227 -1.2033  2.4071 -0.2997
 7701TIP3   OH244517   1.217   6.419  17.085  0.3910 -0.0756 -0.2916
 7701TIP3    H144518   1.130   6.419  17.044 -0.0884  0.0334  0.6917
 7701TIP3    H244519   1.269   6.359  17.032 -0.2576 -0.0640 -0.9531
 7702TIP3   OH244520   4.603   1.670  16.334  0.1567 -0.3401 -0.4284
 7702TIP3    H144521   4.590   1.647  16.426  0.9267  0.8471  0.0070
 7702TIP3    H244522   4.658   1.749  16.337  1.0800 -0.8934 -1.9370
 7703TIP3   OH244523   1.455   2.653  15.984 -0.5913 -0.1242 -0.0612
 7703TIP3    H144524   1.529   2.700  15.948  0.7076 -1.6573  0.4746
 7703TIP3    H244525   1.403   2.720  16.029  2.0270  0.6455  2.0768
 7704TIP3   OH244526   1.155   3.717   0.332  0.1304 -0.0746 -0.0737
 7704TIP3    H144527   1.166   3.799   0.380 -0.5820  1.2444 -2.0543
 7704TIP3    H244528   1.203   3.653   0.384 -1.6008  0.9557  3.0277
 7705TIP3   OH244529   6.137   0.557  14.682  0.5089 -0.2889 -0.4180
 7705TIP3    H144530   6.160   0.599  14.765  1.6363 -0.1980 -0.7505
 7705TIP3    H244531   6.169   0.468  14.690 -2.0556 -1.2308  0.3575
 7706TIP3   OH244532   4.654   5.018  17.053 -0.2332 -0.1168 -0.4436
 7706TIP3    H144533   4.598   5.072  16.997 -0.0486 -0.5540 -1.0665
 7706TIP3    H244534   4.601   4.999  17.130 -0.3565  0.8096 -0.2936
 7707TIP3   OH244535   5.750   1.609   1.806  0.2717 -0.8300 -0.0948
 7707TIP3    H144536   5.769   1.516   1.820 -1.1876 -0.9843  1.0941
 7707TIP3    H244537   5.695   1.610   1.728  0.7312 -0.9039 -0.4234
 7708TIP3   OH244538   0.900   0.616  10.951  0.4431 -0.0278  0.0168
 7708TIP3    H144539   0.913   0.629  10.857 -1.3999  0.6097 -0.2003
 7708TIP3    H244540   0.884   0.522  10.960 -0.0435  0.0093 -0.4134
 7709TIP3   OH244541   3.756   5.336  13.379  0.1801 -0.0495  1.1729
 7709TIP3    H144542   3.702   5.410  13.350  0.4129 -0.3013  0.0618
 7709TIP3    H244543   3.826   5.377  13.430  1.5098  0.7567 -1.1663
 7710TIP3   OH244544   4.551   3.916   4.845 -0.2707  0.1734 -0.2302
 7710TIP3    H144545   4.581   3.992   4.795  2.8802 -0.3353  0.6588
 7710TIP3    H244546   4.522   3.853   4.779 -1.4851  1.5241 -1.0427
 7711TIP3   OH244547   2.501   2.118   5.494 -0.2998  0.1517 -0.2102
 7711TIP3    H144548   2.545   2.042   5.457 -0.8697  1.3245 -3.5750
 7711TIP3    H244549   2.571   2.174   5.527  0.2270 -0.9618  0.6124
 7712TIP3   OH244550   1.545   5.762   5.898  0.1490 -0.6505  0.0268
 7712TIP3    H144551   1.638   5.738   5.894  0.0729 -0.9050 -0.2007
 7712TIP3    H244552   1.521   5.750   5.990  0.0457 -1.6810 -0.1255
 7713TIP3   OH244553   2.636   5.818  10.750  0.0446 -0.2220  0.4986
 7713TIP3    H144554   2.709   5.858  10.798 -0.5060 -1.1737  2.2394
 7713TIP3    H244555   2.633   5.865  10.667  0.0379  2.7281  2.0065
 7714TIP3   OH244556   0.730   2.136  14.753 -0.8809 -0.1027 -0.5913
 7714TIP3    H144557   0.814   2.177  14.773  0.5669 -1.7409 -2.8440
 7714TIP3    H244558   0.694   2.112  14.839  1.6193 -0.5685  0.3962
 7715TIP3   OH244559   1.250   4.424   6.624 -0.7995 -0.6797  0.2731
 7715TIP3    H144560   1.334   4.412   6.580 -1.0158 -0.9694 -0.0611
 7715TIP3    H244561   1.273   4.464   6.708 -0.2188 -1.8285  0.6804
 7716TIP3   OH244562   1.978   4.689   5.652  0.3144 -0.3738  0.0937
 7716TIP3    H144563   2.039   4.749   5.695  0.1737 -1.0754  1.3506
 7716TIP3    H244564   1.928   4.650   5.725  0.4285 -2.0300 -0.6601
 7717TIP3   OH244565   4.714   0.420   4.936 -0.0883  0.3955 -0.2515
 7717TIP3    H144566   4.622   0.399   4.957  0.6492 -1.3910  1.5825
 7717TIP3    H244567   4.755   0.334   4.923  1.2874  1.1827 -1.2750
 7718TIP3   OH244568   4.732   0.625   0.838  0.0331  0.2398 -0.4309
 7718TIP3    H144569   4.818   0.666   0.827 -0.3848  0.8848 -1.4578
 7718TIP3    H244570   4.741   0.571   0.917  1.1543  0.8643 -0.1062
 7719TIP3   OH244571   1.697   5.512  11.772  0.2396  0.2085 -0.5478
 7719TIP3    H144572   1.787   5.480  11.784  0.6413  1.6169  0.5596
 7719TIP3    H244573   1.661   5.514  11.861 -1.3429 -1.4445 -1.0817
 7720TIP3   OH244574   5.650   1.437  14.807 -0.3426  0.2200 -0.0157
 7720TIP3    H144575   5.694   1.410  14.888 -1.2652 -0.9366  0.1289
 7720TIP3    H244576   5.633   1.355  14.761 -1.2477  0.7461 -0.6426
 7721TIP3   OH244577   4.189   0.246   6.344  0.6082  0.0471 -0.4828
 7721TIP3    H144578   4.222   0.335   6.347 -0.0242  0.3834 -2.1279
 7721TIP3    H244579   4.104   0.250   6.388  1.5521 -0.2587  1.4348
 7722TIP3   OH244580   6.620   3.962   6.552 -0.1307 -0.2071  0.2300
 7722TIP3    H144581   6.588   3.895   6.612  0.8709 -1.0563 -0.1645
 7722TIP3    H244582   6.540   4.008   6.524 -0.9809 -1.9504 -0.3461
 7723TIP3   OH244583   3.091   5.840  11.202  0.3099  0.5401  0.4458
 7723TIP3    H144584   3.100   5.915  11.144  1.5611 -0.2711 -0.4686
 7723TIP3    H244585   3.009   5.799  11.176  0.1817  0.9556  0.1790
 7724TIP3   OH244586   1.967   3.164   1.490 -0.4484 -0.3770  0.3089
 7724TIP3    H144587   1.909   3.216   1.545  0.1019  0.3600  0.2165
 7724TIP3    H244588   2.022   3.117   1.552  0.8853  1.2559  0.4532
 7725TIP3   OH244589   0.269   5.235  13.869  0.0541  0.0068 -0.1569
 7725TIP3    H144590   0.237   5.324  13.856  0.1514 -0.3942 -5.0783
 7725TIP3    H244591   0.191   5.180  13.864  0.4054 -0.3815 -2.0438
 7726TIP3   OH244592   6.233   5.731  12.925 -0.0490 -0.5457 -0.1461
 7726TIP3    H144593   6.155   5.766  12.880 -1.1499  0.4271  2.3045
 7726TIP3    H244594   6.201   5.652  12.968  0.4055 -0.3355  0.5803
 7727TIP3   OH244595   2.220   3.228  11.416 -0.1771  0.8623  0.1434
 7727TIP3    H144596   2.204   3.302  11.474  1.7174  2.2250 -0.9828
 7727TIP3    H244597   2.223   3.266  11.328 -2.4711 -1.0702 -0.8871
 7728TIP3   OH244598   1.738   0.572  15.908 -0.4014 -0.1954 -0.5852
 7728TIP3    H144599   1.689   0.585  15.989 -1.1331 -2.2791 -0.6158
 7728TIP3    H244600   1.688   0.620  15.842 -1.1403 -0.4274 -0.2045
 7729TIP3   OH244601   1.945   1.388  13.455 -0.2051 -0.3280 -0.5502
 7729TIP3    H144602   1.889   1.413  13.381 -1.2754  1.6486  0.8597
 7729TIP3    H244603   1.889   1.395  13.532  1.4755 -0.1265  0.7245
 7730TIP3   OH244604   3.384   3.733   1.195 -0.0801  1.2133 -0.4965
 7730TIP3    H144605   3.392   3.649   1.241 -0.0331  1.0830 -0.7439
 7730TIP3    H244606   3.427   3.719   1.111  1.2593  1.9274  0.0420
 7731TIP3   OH244607   2.346   5.032  16.304 -0.1204 -0.0983  0.1053
 7731TIP3    H144608   2.315   5.089  16.234  0.6990 -1.2518 -1.2591
 7731TIP3    H244609   2.287   5.049  16.377  1.0590  3.6531  0.3509
 7732TIP3   OH244610   6.206   6.588   2.898 -0.5034 -0.5578  0.3975
 7732TIP3    H144611   6.114   6.612   2.908 -0.1435  1.6824 -0.8654
 7732TIP3    H244612   6.242   6.591   2.987 -1.5884 -1.2631  0.8747
 7733TIP3   OH244613   6.335   3.799   4.549  0.7700 -0.3363  0.2189
 7733TIP3    H144614   6.415   3.746   4.548 -0.0074 -1.5501 -0.6759
 7733TIP3    H244615   6.327   3.830   4.458 -1.6792 -3.3011 -0.7404
 7734TIP3   OH244616   2.763   5.956  11.201  0.4361  1.3643  0.7968
 7734TIP3    H144617   2.787   5.865  11.184  1.8109  2.0816 -1.5335
 7734TIP3    H244618   2.845   5.999  11.223  0.0944  2.3721  0.1465
 7735TIP3   OH244619   0.414   6.145   2.892  0.3152 -0.1140 -0.6617
 7735TIP3    H144620   0.446   6.095   2.816  0.1302  1.0083 -1.5128
 7735TIP3    H244621   0.355   6.085   2.937  0.6907 -0.9209 -1.2205
 7736TIP3   OH244622   5.352   5.982   6.184 -0.3336  0.2150 -0.5676
 7736TIP3    H144623   5.282   6.036   6.220 -1.9655 -1.4694 -1.0492
 7736TIP3    H244624   5.335   5.895   6.219  1.1618 -0.3616 -1.2073
 7737TIP3   OH244625   1.522   2.635   2.504 -0.5759 -0.0653  0.0085
 7737TIP3    H144626   1.572   2.586   2.439 -0.0920 -0.9540  1.0239
 7737TIP3    H244627   1.455   2.681   2.453 -0.6970 -1.3497 -1.0517
 7738TIP3   OH244628   1.279   0.408   5.436  0.2220  0.1395  0.0755
 7738TIP3    H144629   1.243   0.496   5.425 -0.2299  0.1557  1.4004
 7738TIP3    H244630   1.373   0.421   5.447 -0.0150  0.6706  1.9048
 7739TIP3   OH244631   1.954   0.837   2.966  0.0601 -0.2212  0.4360
 7739TIP3    H144632   1.971   0.756   2.917  0.3730 -1.2465  2.1332
 7739TIP3    H244633   1.953   0.906   2.900  0.3053 -1.5413 -1.0062
 7740TIP3   OH244634   2.911   5.964  17.454 -0.0478  0.0411 -0.5832
 7740TIP3    H144635   2.830   5.938  17.411  1.0750 -2.7972 -1.2170
 7740TIP3    H244636   2.981   5.938  17.394  1.4878 -1.7163  1.7469
 7741TIP3   OH244637   6.671   1.097   4.062 -0.2369 -0.1926  0.1624
 7741TIP3    H144638   6.727   1.169   4.033  0.2305 -0.3319  0.7099
 7741TIP3    H244639   6.711   1.019   4.023  1.5507 -0.6531  2.6255
 7742TIP3   OH244640   4.767   0.151  12.722 -0.2358  0.3488 -0.0328
 7742TIP3    H144641   4.857   0.184  12.725 -0.3627  0.6611  0.7975
 7742TIP3    H244642   4.756   0.106  12.806 -0.6850 -0.1526 -0.3569
 7743TIP3   OH244643   5.558   0.868   5.380 -0.1155  0.4645 -0.6343
 7743TIP3    H144644   5.537   0.818   5.301 -1.1917  2.0590 -1.4119
 7743TIP3    H244645   5.536   0.809   5.453 -0.6911 -0.4286 -1.5138
 7744TIP3   OH244646   1.139   6.159  16.139  0.5073  0.3645  0.0927
 7744TIP3    H144647   1.140   6.065  16.120 -3.1469  0.0906  0.3768
 7744TIP3    H244648   1.098   6.199  16.062 -2.1583  1.0044  1.6980
 7745TIP3   OH244649   3.211   6.118   1.887 -0.3531 -0.2876 -0.3154
 7745TIP3    H144650   3.214   6.179   1.961 -1.6186  0.5096 -0.8802
 7745TIP3    H244651   3.227   6.032   1.926  1.7798  0.3834  0.4604
 7746TIP3   OH244652   4.556   2.288  16.256 -0.0637  0.5839  0.7790
 7746TIP3    H144653   4.506   2.208  16.239  1.7779 -0.8290  1.6449
 7746TIP3    H244654   4.512   2.328  16.331  0.5114 -1.0742  2.0697
 7747TIP3   OH244655   1.198   3.943   1.293  0.3421 -0.2317 -0.8494
 7747TIP3    H144656   1.215   4.037   1.298 -0.6488 -0.1072  1.8590
 7747TIP3    H244657   1.285   3.902   1.293  0.7598  0.6341 -0.0568
 7748TIP3   OH244658   6.484   1.657   6.805 -0.2387  0.5235 -0.5286
 7748TIP3    H144659   6.457   1.565   6.799  0.7642  0.1814 -0.0224
 7748TIP3    H244660   6.404   1.707   6.792 -1.1077 -0.4442  0.9024
 7749TIP3   OH244661   2.286   4.025  12.555  0.1476 -0.2959 -0.5014
 7749TIP3    H144662   2.213   3.970  12.525 -1.0055 -0.2861  1.9807
 7749TIP3    H244663   2.343   4.033  12.479 -1.2034 -2.3568 -1.8519
 7750TIP3   OH244664   3.250   4.416   5.032 -0.4088  0.2962  0.2042
 7750TIP3    H144665   3.199   4.492   5.004  0.3197  1.2137  1.2584
 7750TIP3    H244666   3.251   4.423   5.128  0.9171 -0.2089  0.2444
 7751TIP3   OH244667   5.632   5.559  12.903 -0.8343 -0.0421 -0.1389
 7751TIP3    H144668   5.572   5.532  12.833  0.1566  0.6086 -1.2712
 7751TIP3    H244669   5.715   5.575  12.859 -0.8671  3.1523  0.6650
 7752TIP3   OH244670   3.000   3.144   4.155 -0.0734  0.0366 -0.8501
 7752TIP3    H144671   3.017   3.169   4.064  1.7050  0.2768 -0.5068
 7752TIP3    H244672   2.958   3.220   4.194  3.4258  1.9394 -0.3498
 7753TIP3   OH244673   4.620   2.332   1.240 -0.1226  0.1522  0.2865
 7753TIP3    H144674   4.561   2.357   1.311  0.7739  1.0313  0.7535
 7753TIP3    H244675   4.586   2.377   1.163  0.5546  1.5751  0.7888
 7754TIP3   OH244676   3.753   1.169   2.097  0.0047  1.0295 -0.5012
 7754TIP3    H144677   3.834   1.219   2.086 -0.2616  1.6179  0.1432
 7754TIP3    H244678   3.734   1.134   2.010  0.8403  1.0538 -0.7009
 7755TIP3   OH244679   2.304   6.095  16.220  0.7174  0.0613 -0.5286
 7755TIP3    H144680   2.366   6.104  16.292 -1.0619 -0.3218  1.1144
 7755TIP3    H244681   2.302   6.182  16.179  0.1630  0.9109  1.2424
 7756TIP3   OH244682   2.121   3.360   1.200 -0.0461  0.0764 -0.7940
 7756TIP3    H144683   2.204   3.395   1.230 -0.4980  0.3491  0.1875
 7756TIP3    H244684   2.145   3.293   1.136  0.9220  0.1809 -0.5589
 7757TIP3   OH244685   2.337   6.531  12.029 -0.2763 -0.4738  0.3623
 7757TIP3    H144686   2.372   6.547  12.117 -1.3635 -0.1245  0.7539
 7757TIP3    H244687   2.406   6.482  11.984  0.5372 -0.1532  1.2175
 7758TIP3   OH244688   3.864   1.303   3.702  0.2848  0.5589 -0.5862
 7758TIP3    H144689   3.875   1.265   3.790  0.8758 -0.1684 -0.9613
 7758TIP3    H244690   3.953   1.321   3.673  0.0848  0.8835 -1.0052
 7759TIP3   OH244691   1.119   1.606  13.427  0.3035  0.5173 -0.1773
 7759TIP3    H144692   1.163   1.525  13.401 -3.5842 -1.3132 -1.9230
 7759TIP3    H244693   1.088   1.644  13.345 -0.1793  2.4268  0.8260
 7760TIP3   OH244694   6.000   4.694   0.332  0.5706 -0.1437 -0.1376
 7760TIP3    H144695   5.945   4.765   0.300  1.1767 -0.6788 -2.5409
 7760TIP3    H244696   6.063   4.737   0.390  1.0361  1.3495 -1.6702
 7761TIP3   OH244697   3.548   1.328   5.573 -0.1388 -0.7604 -0.6548
 7761TIP3    H144698   3.453   1.344   5.570  0.1474  1.0483 -1.3342
 7761TIP3    H244699   3.585   1.395   5.516  1.7775  0.4723  1.8501
 7762TIP3   OH244700   1.059   1.529  15.880 -0.4070  0.1060  0.1757
 7762TIP3    H144701   1.153   1.516  15.866 -0.6602 -2.2439  0.3026
 7762TIP3    H244702   1.045   1.622  15.864  2.1284  0.7498  1.2674
 7763TIP3   OH244703   4.114   2.533   2.839  0.5631 -0.4513 -0.1691
 7763TIP3    H144704   4.144   2.493   2.921  1.4025 -0.8544 -0.6522
 7763TIP3    H244705   4.092   2.623   2.862  1.6024 -0.3133  0.3409
 7764TIP3   OH244706   4.005   4.663  14.372 -0.0440 -0.6090 -0.1064
 7764TIP3    H144707   3.914   4.649  14.345  0.2057 -2.6151 -0.0485
 7764TIP3    H244708   4.052   4.676  14.290 -0.4488  1.0354 -0.1044
 7765TIP3   OH244709   2.025   4.902   2.814 -0.0575  0.1223 -0.2697
 7765TIP3    H144710   2.083   4.831   2.840 -1.3406 -0.4904  1.0676
 7765TIP3    H244711   2.080   4.961   2.762  2.1562  0.3478  2.1638
 7766TIP3   OH244712   4.061   3.866   6.121 -0.1443 -0.0846 -0.1413
 7766TIP3    H144713   4.150   3.882   6.151 -0.2925 -0.1895  0.3611
 7766TIP3    H244714   4.006   3.895   6.194 -0.4481 -2.4213  0.6568
 7767TIP3   OH244715   5.179   3.382  11.943  0.5213 -0.3454 -0.2264
 7767TIP3    H144716   5.199   3.384  11.850 -2.6826  2.6540 -1.0736
 7767TIP3    H244717   5.110   3.316  11.952  2.0069 -1.9152  0.4899
 7768TIP3   OH244718   4.327   1.598  17.110 -0.4783  0.1749 -0.3140
 7768TIP3    H144719   4.344   1.514  17.152 -1.4408 -0.0970 -0.4394
 7768TIP3    H244720   4.321   1.577  17.017  1.5817  0.7613 -0.6080
 7769TIP3   OH244721   0.956   6.330   3.578 -0.2091 -0.5188 -0.3056
 7769TIP3    H144722   0.892   6.401   3.585  0.1779 -0.2914  1.1176
 7769TIP3    H244723   0.920   6.273   3.509 -1.8906 -0.3326  0.3610
 7770TIP3   OH244724   4.452   0.126   2.837  0.0987  0.3007  0.2912
 7770TIP3    H144725   4.362   0.100   2.819  0.3125 -0.9079  0.8801
 7770TIP3    H244726   4.459   0.215   2.801 -1.9048  1.2440  1.9860
 7771TIP3   OH244727   4.058   0.822   4.604  0.0544  0.2717  0.1448
 7771TIP3    H144728   4.048   0.826   4.509  0.8643  0.8064  0.0697
 7771TIP3    H244729   4.117   0.895   4.625  0.4559 -0.2725  0.9735
 7772TIP3   OH244730   4.350   4.294   3.888  0.4281 -0.0005 -0.3969
 7772TIP3    H144731   4.350   4.388   3.908 -0.3335  0.2004 -1.2652
 7772TIP3    H244732   4.277   4.259   3.940  1.2050 -0.2649  0.5389
 7773TIP3   OH244733   6.043   3.555  11.986 -0.4846  0.8859 -0.0320
 7773TIP3    H144734   6.073   3.475  12.031  0.1497  0.7058 -0.7452
 7773TIP3    H244735   6.085   3.551  11.900 -0.6565  1.8633 -0.1742
 7774TIP3   OH244736   5.166   1.201   6.429  0.6456  0.3810  0.0576
 7774TIP3    H144737   5.229   1.182   6.498  1.3390 -0.0791 -0.6853
 7774TIP3    H244738   5.087   1.155   6.456  1.7045 -2.0396 -0.7198
 7775TIP3   OH244739   5.070   1.110   3.851 -0.4379  0.8895  0.3141
 7775TIP3    H144740   5.135   1.043   3.876 -2.0043 -0.6957  0.3593
 7775TIP3    H244741   5.057   1.096   3.758 -1.0101  0.9169  0.3905
 7776TIP3   OH244742   5.600   6.722   4.237  0.0564  0.1581 -0.0632
 7776TIP3    H144743   5.529   6.785   4.244 -0.2839 -0.2996  0.7174
 7776TIP3    H244744   5.595   6.671   4.318  1.6479  0.5091  0.3053
 7777TIP3   OH244745   3.960   5.516   0.309  0.5088  0.5095 -0.5557
 7777TIP3    H144746   4.022   5.454   0.349  1.4040  0.4491 -1.9568
 7777TIP3    H244747   3.882   5.464   0.291 -1.1972  1.1611  3.7407
 7778TIP3   OH244748   3.572   3.047  14.210  0.5846  0.2739  0.2132
 7778TIP3    H144749   3.658   3.079  14.180  1.1358 -1.7938 -0.5839
 7778TIP3    H244750   3.538   2.998  14.135 -1.1965  0.8174  0.6278
 7779TIP3   OH244751   6.368   0.162   4.709  0.4577 -0.4321  0.2714
 7779TIP3    H144752   6.455   0.123   4.709  0.3928 -0.6681 -1.4055
 7779TIP3    H244753   6.308   0.090   4.726  0.6326  0.0562  3.4820
 7780TIP3   OH244754   6.737   6.142   2.160 -0.2542  0.6217  0.2067
 7780TIP3    H144755   6.653   6.131   2.204 -0.2779  1.2224  0.3230
 7780TIP3    H244756   6.802   6.109   2.223 -0.4632 -0.6185 -0.2166
 7781TIP3   OH244757   4.879   1.406   0.862  0.0492  0.2414 -0.7047
 7781TIP3    H144758   4.817   1.477   0.843 -1.7315 -1.3199 -1.0612
 7781TIP3    H244759   4.830   1.346   0.919  1.0881 -1.2217 -1.2806
 7782TIP3   OH244760   4.412   2.733  14.539 -0.2228  0.7048  0.0623
 7782TIP3    H144761   4.325   2.731  14.580  0.6817  1.1815  2.1113
 7782TIP3    H244762   4.410   2.813  14.485 -0.4920  1.7243  1.5067
 7783TIP3   OH244763   0.222   6.642  12.755 -0.0679 -0.0711  0.2937
 7783TIP3    H144764   0.254   6.630  12.844  0.9478  1.0147  0.0936
 7783TIP3    H244765   0.277   6.584  12.702 -1.0172 -1.1218  0.4010
 7784TIP3   OH244766   4.163   1.929   0.963  0.2523 -0.2724  0.2080
 7784TIP3    H144767   4.219   1.917   0.885  0.4789  0.3149  0.2712
 7784TIP3    H244768   4.161   1.843   1.005  0.6523 -0.4379 -0.1032
 7785TIP3   OH244769   5.441   5.279   0.495  0.2984  0.5297  0.6234
 7785TIP3    H144770   5.512   5.265   0.557  0.9579 -0.3715 -0.3141
 7785TIP3    H244771   5.481   5.270   0.409 -1.5160 -3.8859 -0.0574
 7786TIP3   OH244772   5.604   1.007  17.343 -0.9029  0.5145  0.4314
 7786TIP3    H144773   5.687   1.031  17.303 -0.0246  2.0934  2.9810
 7786TIP3    H244774   5.584   0.921  17.307  2.6794 -0.6761  0.8987
 7787TIP3   OH244775   6.142   0.507  12.807  0.3902  0.3367 -0.1619
 7787TIP3    H144776   6.209   0.549  12.754 -0.0090  0.9687 -0.1868
 7787TIP3    H244777   6.169   0.416  12.813  2.1814  0.9039  1.2685
 7788TIP3   OH244778   3.502   3.211   3.992 -0.2203  0.0152 -0.4209
 7788TIP3    H144779   3.432   3.276   3.996  0.7536  1.0513  0.4531
 7788TIP3    H244780   3.479   3.146   4.059 -0.4438  0.2428 -0.2782
 7789TIP3   OH244781   3.658   0.237  16.672  0.1465  0.3761 -0.0945
 7789TIP3    H144782   3.724   0.175  16.640 -1.9151 -0.2307 -3.6413
 7789TIP3    H244783   3.693   0.323  16.650  1.6767  0.4102  2.1644
 7790TIP3   OH244784   3.274   0.893   3.858 -0.5439  0.0286  0.3503
 7790TIP3    H144785   3.180   0.871   3.860 -0.5896  0.2542  0.9142
 7790TIP3    H244786   3.277   0.984   3.830 -0.3428 -0.6775 -2.1554
 7791TIP3   OH244787   4.683   3.067   2.419  0.4723 -0.0637 -0.0367
 7791TIP3    H144788   4.668   2.975   2.396  1.0333 -0.2460  0.3236
 7791TIP3    H244789   4.752   3.065   2.484  0.7495  0.6442 -0.2992
 7792TIP3   OH244790   2.125   3.578   4.402  0.0974 -0.0208  0.4820
 7792TIP3    H144791   2.103   3.559   4.310  1.0191  1.4487 -0.0854
 7792TIP3    H244792   2.201   3.637   4.396 -1.0178  1.6831  2.1224
 7793TIP3   OH244793   3.360   1.663  13.117 -0.0160  0.1274 -0.3115
 7793TIP3    H144794   3.347   1.716  13.196 -1.0855 -1.8173  0.9132
 7793TIP3    H244795   3.436   1.608  13.138 -0.3494 -0.4510 -0.6040
 7794TIP3   OH244796   4.086   5.368  13.588  0.1107 -0.6642  0.0376
 7794TIP3    H144797   4.065   5.420  13.510 -1.9832 -0.2402  0.8120
 7794TIP3    H244798   4.138   5.426  13.643  0.3743 -0.4620 -0.4256
 7795TIP3   OH244799   3.335   1.756  17.265 -0.5458 -0.3423 -0.0542
 7795TIP3    H144800   3.244   1.737  17.242 -1.0223 -0.9603  2.1568
 7795TIP3    H244801   3.349   1.712  17.349  1.8394 -0.3527 -0.3748
 7796TIP3   OH244802   0.630   1.936  15.693 -0.4075 -0.2734 -0.3205
 7796TIP3    H144803   0.580   1.997  15.638  1.1810  1.5265  0.1050
 7796TIP3    H244804   0.568   1.907  15.759 -1.9363 -1.2703 -2.1232
 7797TIP3   OH244805   2.724   2.053  16.370 -0.6172  0.4910 -0.6843
 7797TIP3    H144806   2.730   1.998  16.292  1.8873 -0.6313  0.1886
 7797TIP3    H244807   2.761   1.999  16.440 -1.7096  1.8913  1.0493
 7798TIP3   OH244808   3.927   0.026  15.475  0.2851 -0.2981 -0.3940
 7798TIP3    H144809   3.986   0.082  15.525 -1.5354 -1.2421  3.1068
 7798TIP3    H244810   3.859   0.000  15.537 -0.9994 -3.4056 -2.8034
 7799TIP3   OH244811   4.461   4.863  17.245  0.1907 -0.2738  0.1970
 7799TIP3    H144812   4.369   4.860  17.218  0.2357 -0.3969  0.0501
 7799TIP3    H244813   4.495   4.777  17.220  0.5535  0.0623 -0.4921
 7800TIP3   OH244814   0.109   1.621   2.163 -0.1210  0.1352  0.7538
 7800TIP3    H144815   0.190   1.593   2.121  0.1703  1.7400  0.1645
 7800TIP3    H244816   0.040   1.596   2.101  0.1924  1.2481 -0.0880
 7801TIP3   OH244817   0.232   3.520   6.347  0.1355 -0.1815 -0.2938
 7801TIP3    H144818   0.255   3.488   6.260 -0.0318  1.6205 -1.0489
 7801TIP3    H244819   0.137   3.508   6.353 -0.0007  0.5494 -0.7704
 7802TIP3   OH244820   0.945   5.718  12.446  0.6081  0.1414 -0.1524
 7802TIP3    H144821   0.975   5.686  12.531 -1.0413  1.6139  1.0690
 7802TIP3    H244822   0.869   5.663  12.426  0.1327  0.6979  0.0620
 7803TIP3   OH244823   0.311   1.003  15.772  0.2165  0.4813 -0.3027
 7803TIP3    H144824   0.283   0.932  15.714  0.7226  0.1678 -0.1699
 7803TIP3    H244825   0.378   0.963  15.828 -0.0313  0.8619  0.2782
 7804TIP3   OH244826   1.020   3.906  17.041 -0.1875  0.3992  0.3090
 7804TIP3    H144827   0.941   3.895  16.987  0.4905  1.7001 -1.0122
 7804TIP3    H244828   1.070   3.825  17.028 -2.3677 -1.6609  3.2033
 7805TIP3   OH244829   6.727   1.557   3.913 -0.0833 -0.0837  0.0559
 7805TIP3    H144830   6.748   1.488   3.850  0.2349 -1.6510  1.8083
 7805TIP3    H244831   6.728   1.514   3.998 -1.4036  1.7660  1.0954
 7806TIP3   OH244832   3.366   6.744   5.464 -0.2635  0.0009  1.1457
 7806TIP3    H144833   3.441   6.788   5.505  0.6372 -1.7319  1.4628
 7806TIP3    H244834   3.354   6.789   5.380 -0.2555  1.6841  1.9971
 7807TIP3   OH244835   3.784   5.036  12.199  0.9559 -0.2390  0.2517
 7807TIP3    H144836   3.707   4.981  12.212 -0.2848  1.0404 -1.2029
 7807TIP3    H244837   3.836   4.987  12.135  0.2429 -0.1139 -0.4480
 7808TIP3   OH244838   0.519   3.224   1.257  0.4877 -0.8263  0.3698
 7808TIP3    H144839   0.496   3.132   1.245 -1.2677 -0.6453  1.8998
 7808TIP3    H244840   0.538   3.232   1.350  1.3813  0.2251  0.1188
 7809TIP3   OH244841   3.355   4.139   0.930 -0.1229 -0.3474 -0.1461
 7809TIP3    H144842   3.278   4.194   0.917  0.5546  1.0455  1.3798
 7809TIP3    H244843   3.354   4.119   1.024  1.1997 -0.5663 -0.1647
 7810TIP3   OH244844   1.036   2.473  15.677  0.1354  0.0701  0.0979
 7810TIP3    H144845   1.027   2.567  15.660  0.8324 -0.1876 -1.9831
 7810TIP3    H244846   0.947   2.440  15.676 -0.0031  0.3007 -2.2429
 7811TIP3   OH244847   1.285   6.106  16.378 -0.2530  0.0614  0.3096
 7811TIP3    H144848   1.358   6.119  16.318  0.0758  0.4044  0.7738
 7811TIP3    H244849   1.209   6.143  16.332 -0.3360 -1.1451 -0.5728
 7812TIP3   OH244850   0.125   3.741   4.181 -0.4323  0.0300 -0.2117
 7812TIP3    H144851   0.121   3.709   4.091 -0.4685  1.0294 -0.5816
 7812TIP3    H244852   0.171   3.825   4.174  2.5217 -1.3573  1.1427
 7813TIP3   OH244853   5.039   5.787  12.506  0.1445  0.2389  0.7468
 7813TIP3    H144854   5.000   5.847  12.443  1.7967  0.3988 -0.1884
 7813TIP3    H244855   5.013   5.821  12.592 -0.9575  0.8508  0.1874
 7814TIP3   OH244856   4.837   2.815  15.414  0.2317 -0.1594  0.3262
 7814TIP3    H144857   4.767   2.825  15.478  0.8869 -0.5909  1.1335
 7814TIP3    H244858   4.815   2.734  15.367 -0.5701  0.4785 -0.4269
 7815TIP3   OH244859   6.315   1.691  13.363  0.0476  0.3852 -0.2569
 7815TIP3    H144860   6.344   1.776  13.396  0.6173 -0.1493  0.6580
 7815TIP3    H244861   6.291   1.641  13.442 -0.3113 -0.2887 -0.7817
 7816TIP3   OH244862   1.408   6.454   0.673  0.1862  0.0593 -0.4887
 7816TIP3    H144863   1.330   6.435   0.725  0.5472 -0.0093  0.0398
 7816TIP3    H244864   1.387   6.536   0.626  0.1933  0.6235  0.4717
 7817TIP3   OH244865   3.273   0.438   1.712  0.2932 -0.1990  0.3059
 7817TIP3    H144866   3.220   0.501   1.761  1.2203 -0.1615  1.2849
 7817TIP3    H244867   3.360   0.444   1.751  0.4294 -2.0147  0.3335
 7818TIP3   OH244868   0.253   4.008   5.587 -0.2107  0.0937  0.3023
 7818TIP3    H144869   0.328   4.049   5.544  0.2840  0.2502  1.2928
 7818TIP3    H244870   0.291   3.955   5.657 -0.9017 -1.4858 -0.4817
 7819TIP3   OH244871   1.403   1.828   3.370  0.1212 -0.4843  0.1901
 7819TIP3    H144872   1.436   1.911   3.335  1.6750 -0.8473  0.6990
 7819TIP3    H244873   1.315   1.848   3.401  0.0073  0.6641 -0.8190
 7820TIP3   OH244874   4.782   1.990  11.402  0.1496 -0.0930 -0.2504
 7820TIP3    H144875   4.798   1.950  11.317  1.2324 -1.4492  0.5373
 7820TIP3    H244876   4.786   2.084  11.386  1.2318 -0.3279 -1.5390
 7821TIP3   OH244877   1.873   5.093  15.467 -0.3564 -0.3402 -0.5693
 7821TIP3    H144878   1.869   5.166  15.529  1.6325 -0.1552 -0.5889
 7821TIP3    H244879   1.866   5.134  15.381  0.6817 -0.1479 -0.5771
 7822TIP3   OH244880   5.426   3.684  11.819 -0.1334  0.2103 -0.3879
 7822TIP3    H144881   5.450   3.759  11.874  1.0815 -0.0102 -0.5733
 7822TIP3    H244882   5.355   3.716  11.764 -0.1899  0.9686  0.1082
 7823TIP3   OH244883   1.821   5.769   5.942 -0.4011 -0.1381  0.3747
 7823TIP3    H144884   1.806   5.674   5.950 -0.2918 -0.1988 -0.1003
 7823TIP3    H244885   1.875   5.778   5.864 -1.4696  0.4117 -0.3221
 7824TIP3   OH244886   2.532   6.217  12.083  0.2218 -0.2175 -0.4832
 7824TIP3    H144887   2.546   6.279  12.012 -0.6769  0.2461 -0.2723
 7824TIP3    H244888   2.468   6.154  12.048  0.8805 -0.8443 -0.5847
 7825TIP3   OH244889   1.785   3.923   2.166 -0.1730 -0.1123 -0.2704
 7825TIP3    H144890   1.855   3.974   2.204  0.1378 -1.6859  1.3935
 7825TIP3    H244891   1.730   3.897   2.240  1.0116 -4.1349 -0.5796
 7826TIP3   OH244892   1.709   2.733  15.848 -0.1861 -0.1637 -0.0998
 7826TIP3    H144893   1.773   2.673  15.810  1.1625  2.4814 -2.3499
 7826TIP3    H244894   1.757   2.778  15.917 -0.7439 -0.5501  0.5616
 7827TIP3   OH244895   0.505   6.112  14.973 -0.3898 -0.1827 -0.3675
 7827TIP3    H144896   0.561   6.055  15.026  1.4621  1.3153 -0.6052
 7827TIP3    H244897   0.430   6.057  14.951 -1.2922 -0.9233  3.7102
 7828TIP3   OH244898   2.436   6.611   2.480  0.1270  0.5052  0.0152
 7828TIP3    H144899   2.380   6.661   2.420 -0.7096  0.1280  0.4610
 7828TIP3    H244900   2.478   6.677   2.534  0.7203  0.8371 -0.8358
 7829TIP3   OH244901   6.081   2.301   1.236 -0.0069  0.3758 -0.0541
 7829TIP3    H144902   6.130   2.225   1.268 -1.1261 -0.3713 -0.0561
 7829TIP3    H244903   6.141   2.375   1.246  0.8165 -0.3813  0.6961
 7830TIP3   OH244904   5.829   6.282   0.104  0.4929  0.2443 -0.0089
 7830TIP3    H144905   5.845   6.376   0.102  2.4002 -0.0017  1.2372
 7830TIP3    H244906   5.851   6.251   0.017 -0.0637  0.9211 -0.3999
 7831TIP3   OH244907   4.485   2.217  16.968 -0.2740 -0.0791 -0.0554
 7831TIP3    H144908   4.560   2.172  16.930 -0.4243 -0.1670 -0.2483
 7831TIP3    H244909   4.524   2.285  17.023 -0.0537  0.2232 -0.5707
 7832TIP3   OH244910   1.945   1.722  11.231 -0.3010 -0.2277 -0.3087
 7832TIP3    H144911   2.025   1.727  11.283  0.8707  1.8153 -2.1788
 7832TIP3    H244912   1.910   1.635  11.251  2.6872 -1.4614  0.1340
 7833TIP3   OH244913   4.478   4.482  13.072  0.1472  0.1792  0.2049
 7833TIP3    H144914   4.484   4.572  13.102 -2.8237  0.7768 -0.7282
 7833TIP3    H244915   4.482   4.487  12.977 -1.6209 -0.4486  0.0630
 7834TIP3   OH244916   4.617   5.517  15.388  0.0173  0.3837  0.1739
 7834TIP3    H144917   4.671   5.438  15.383  0.1493  0.4261  0.8212
 7834TIP3    H244918   4.644   5.559  15.470  0.3632  1.3948 -0.4385
 7835TIP3   OH244919   5.180   4.012   2.304 -0.1147 -0.1945 -0.4430
 7835TIP3    H144920   5.231   4.009   2.385  0.0799  2.9613 -0.2982
 7835TIP3    H244921   5.204   3.933   2.257  0.7131 -1.5149  2.0206
 7836TIP3   OH244922   5.711   0.566   4.687  0.1691 -0.3131 -0.0551
 7836TIP3    H144923   5.749   0.605   4.766 -0.2302  0.1385 -0.0869
 7836TIP3    H244924   5.720   0.471   4.701 -1.1939 -0.3011  1.2016
 7837TIP3   OH244925   6.292   0.474  14.124  0.3457  0.0288  0.4313
 7837TIP3    H144926   6.354   0.457  14.053 -0.9015 -1.5191 -0.3490
 7837TIP3    H244927   6.285   0.569  14.127  2.0698  0.2134 -0.0346
 7838TIP3   OH244928   1.105   4.438   5.243 -0.5600  0.0726  0.6861
 7838TIP3    H144929   1.113   4.529   5.215  0.7947  0.3627  1.9087
 7838TIP3    H244930   1.155   4.389   5.178 -0.5068  0.3078  0.5464
 7839TIP3   OH244931   6.507   5.161   5.209 -0.4544 -0.0602 -0.2268
 7839TIP3    H144932   6.421   5.200   5.224 -0.5232  0.0900 -0.9732
 7839TIP3    H244933   6.538   5.202   5.128  0.4290  0.0783  0.1746
 7840TIP3   OH244934   4.371   5.192   4.341  0.0534 -0.5235  0.0781
 7840TIP3    H144935   4.436   5.191   4.271  0.1840  1.4365  0.1313
 7840TIP3    H244936   4.290   5.165   4.298  0.5534 -1.4905 -0.3154
 7841TIP3   OH244937   2.410   1.883   1.306  0.0839  0.1162  0.0771
 7841TIP3    H144938   2.441   1.803   1.262  0.8013  0.9875 -1.0559
 7841TIP3    H244939   2.316   1.884   1.290 -0.2320 -1.3561  1.5602
 7842TIP3   OH244940   4.916   4.695  13.007  0.2300 -0.2131 -0.3744
 7842TIP3    H144941   4.929   4.613  13.055 -0.6861 -0.1769 -0.0565
 7842TIP3    H244942   4.984   4.753  13.041  1.6360 -1.1619 -1.3985
 7843TIP3   OH244943   2.464   2.919   2.435  0.2181 -0.0562  0.2535
 7843TIP3    H144944   2.462   2.952   2.345  0.2085  1.5663  0.8242
 7843TIP3    H244945   2.435   2.993   2.489 -0.5047 -1.2314  1.5411
 7844TIP3   OH244946   4.975   2.428   5.524 -0.3989  1.2687 -0.1838
 7844TIP3    H144947   4.962   2.375   5.602  1.2118  0.1740 -0.5961
 7844TIP3    H244948   4.913   2.392   5.460  0.9525 -0.5017 -0.5922
 7845TIP3   OH244949   4.056   5.357  14.774 -0.1778 -0.2967  0.0303
 7845TIP3    H144950   4.073   5.431  14.832  0.6414 -1.6085  1.5100
 7845TIP3    H244951   4.077   5.391  14.687 -0.6858  1.4777  0.5450
 7846TIP3   OH244952   4.588   2.992  11.565  0.0340 -0.2911  0.2320
 7846TIP3    H144953   4.674   2.956  11.586 -0.2474 -0.2788  1.4846
 7846TIP3    H244954   4.579   2.979  11.470  1.1902 -0.7564  0.1689
 7847TIP3   OH244955   4.284   6.558  11.099  0.4149 -0.1290 -0.3053
 7847TIP3    H144956   4.288   6.484  11.038 -0.4086  0.1104 -0.6649
 7847TIP3    H244957   4.192   6.586  11.097  0.2554 -0.4243  1.4194
 7848TIP3   OH244958   3.320   0.227  16.098 -0.1935 -0.4084 -0.2871
 7848TIP3    H144959   3.323   0.190  16.010  0.8666  0.7641 -0.7640
 7848TIP3    H244960   3.398   0.193  16.141  0.7755  1.1758 -0.7206
 7849TIP3   OH244961   5.064   2.073   5.954  0.2971 -0.3205 -0.8484
 7849TIP3    H144962   5.112   2.104   6.031  0.7673 -0.2290 -1.1736
 7849TIP3    H244963   5.119   2.002   5.919 -0.6112 -1.3202 -0.2894
 7850TIP3   OH244964   1.245   1.303   6.230  0.0492 -0.4488 -0.6146
 7850TIP3    H144965   1.307   1.332   6.297 -0.1363 -1.1266 -0.1456
 7850TIP3    H244966   1.206   1.223   6.265 -1.8210  0.4777 -0.4674
 7851TIP3   OH244967   4.837   2.563   6.125  0.0324 -0.4652  0.4745
 7851TIP3    H144968   4.790   2.527   6.200  1.2785  0.4105  1.7296
 7851TIP3    H244969   4.896   2.628   6.163  3.6221 -2.7302 -0.6297
 7852TIP3   OH244970   4.769   5.419   3.640  0.3511 -0.5567 -0.2239
 7852TIP3    H144971   4.699   5.482   3.654  0.1938 -0.9312  0.7837
 7852TIP3    H244972   4.844   5.473   3.613 -0.2137 -0.1165 -0.9343
 7853TIP3   OH244973   4.010   3.661   3.842 -0.0692  0.2982 -0.0157
 7853TIP3    H144974   4.018   3.753   3.818 -0.8578  0.2524 -0.4895
 7853TIP3    H244975   4.030   3.659   3.936  1.2778  0.7446 -0.2625
 7854TIP3   OH244976   2.524   5.167  15.270 -0.4067  0.2987  0.1122
 7854TIP3    H144977   2.508   5.211  15.186  0.1857 -0.2264 -0.2749
 7854TIP3    H244978   2.470   5.089  15.267  0.8818 -0.5944 -0.4893
 7855TIP3   OH244979   1.206   0.222   3.793 -0.1174 -0.1847  0.1614
 7855TIP3    H144980   1.117   0.192   3.813 -0.6554  0.5733 -1.0209
 7855TIP3    H244981   1.220   0.296   3.851  0.3633 -1.2585  1.4725
 7856TIP3   OH244982   2.116   1.172  13.504 -0.5830 -0.0492  0.5088
 7856TIP3    H144983   2.048   1.238  13.491 -0.0169  0.1354 -1.9778
 7856TIP3    H244984   2.175   1.209  13.569 -1.0230  1.2941  0.1607
 7857TIP3   OH244985   3.038   6.349   6.276  0.0757 -0.4607  0.0007
 7857TIP3    H144986   2.953   6.355   6.232 -0.5286  1.2760  1.2731
 7857TIP3    H244987   3.096   6.405   6.225 -0.7153  1.8399  1.4647
 7858TIP3   OH244988   2.320   0.242  13.466  0.3052  0.6028  0.2792
 7858TIP3    H144989   2.398   0.191  13.487  1.4842  2.6218  1.1709
 7858TIP3    H244990   2.290   0.208  13.382 -0.1018 -2.7228  1.6211
 7859TIP3   OH244991   5.945   6.588  12.017  0.1369  0.2325  0.2105
 7859TIP3    H144992   5.988   6.505  11.998 -0.4390  0.0745 -0.4283
 7859TIP3    H244993   5.935   6.589  12.112 -0.0045 -0.5037  0.2070
 7860TIP3   OH244994   2.666   6.420  13.611 -0.5690 -0.3889  0.3750
 7860TIP3    H144995   2.610   6.346  13.632 -0.4550 -0.1179  1.6891
 7860TIP3    H244996   2.755   6.386  13.621 -0.5091  0.2085  2.1433
 7861TIP3   OH244997   5.980   3.478   5.199 -0.2190 -0.1978 -1.1731
 7861TIP3    H144998   5.920   3.438   5.135  1.0278 -0.1847 -2.4089
 7861TIP3    H244999   6.049   3.413   5.210 -0.3975 -0.1785  0.1684
 7862TIP3   OH245000   1.678   4.765  11.811  0.0885 -0.2341 -0.9102
 7862TIP3    H145001   1.769   4.788  11.830 -0.3267  1.2414 -0.5243
 7862TIP3    H245002   1.673   4.671  11.827  0.8815  0.1057  1.9105
 7863TIP3   OH245003   6.176   4.803   2.029  0.6377  0.1282  0.4150
 7863TIP3    H145004   6.194   4.733   1.966 -1.2558  0.8323 -1.0459
 7863TIP3    H245005   6.255   4.857   2.029  1.4814 -1.0728  0.3035
 7864TIP3   OH245006   1.006   2.664  13.396 -0.4786  0.0661  0.1116
 7864TIP3    H145007   0.943   2.715  13.346 -1.4425 -1.3086 -0.1478
 7864TIP3    H245008   0.995   2.693  13.486 -0.1300  1.1649 -0.1883
 7865TIP3   OH245009   2.113   4.008  14.320  0.0097  0.2583 -0.2997
 7865TIP3    H145010   2.047   4.043  14.380 -0.5592  0.4955 -1.0426
 7865TIP3    H245011   2.167   3.951  14.374  1.2236  2.5554  1.0572
 7866TIP3   OH245012   0.816   0.990  16.676  0.7135 -0.1282  0.4183
 7866TIP3    H145013   0.734   0.978  16.724 -0.3029  1.0735 -0.9356
 7866TIP3    H245014   0.808   1.076  16.634  3.0552  0.4327  0.9511
 7867TIP3   OH245015   3.412   5.634  17.327 -0.1105  0.5935  0.0570
 7867TIP3    H145016   3.440   5.553  17.370  1.5854  0.1961 -1.6752
 7867TIP3    H245017   3.336   5.663  17.378  1.4930 -0.0337  3.0705
 7868TIP3   OH245018   1.729   6.098   2.425 -0.3120  0.0493 -0.0110
 7868TIP3    H145019   1.819   6.080   2.401 -0.2104  0.2180  0.2441
 7868TIP3    H245020   1.728   6.191   2.450 -0.8247  0.4125 -1.2823
 7869TIP3   OH245021   5.143   3.326  10.664  0.1178  0.4529  0.3007
 7869TIP3    H145022   5.062   3.276  10.676 -0.0935  1.0192  1.4566
 7869TIP3    H245023   5.116   3.417  10.678  0.8079  0.7147 -0.0841
 7870TIP3   OH245024   3.727   2.160  11.421 -0.2287  0.0675 -0.7052
 7870TIP3    H145025   3.784   2.093  11.382 -0.4893 -0.6383  0.0963
 7870TIP3    H245026   3.695   2.211  11.346  0.1072 -0.6073 -1.3175
 7871TIP3   OH245027   1.077   3.545   3.244 -0.4540 -0.3034 -0.0358
 7871TIP3    H145028   1.132   3.541   3.323  0.5578  2.3223 -0.5008
 7871TIP3    H245029   1.011   3.611   3.264  1.1078  2.0464 -1.9985
 7872TIP3   OH245030   0.242   6.242  12.255  0.1236  0.4387  0.9571
 7872TIP3    H145031   0.316   6.196  12.293  0.4004 -1.0146 -1.1568
 7872TIP3    H245032   0.271   6.264  12.166 -1.5895  0.8484  0.4650
 7873TIP3   OH245033   0.883   6.263   0.336 -0.3495  0.0793  0.2182
 7873TIP3    H145034   0.875   6.351   0.299 -0.5677  0.0430  0.1743
 7873TIP3    H245035   0.802   6.219   0.310  0.6306 -0.7971 -1.5103
 7874TIP3   OH245036   0.737   6.640  15.003 -0.5744 -0.4917  0.3886
 7874TIP3    H145037   0.683   6.565  15.027  1.3179 -1.4953  1.7180
 7874TIP3    H245038   0.749   6.632  14.909 -1.3203 -1.2252  0.3493
 7875TIP3   OH245039   4.407   6.466   0.276 -0.6306 -0.3454 -0.2433
 7875TIP3    H145040   4.399   6.457   0.371 -2.9488 -0.9850 -0.4516
 7875TIP3    H245041   4.439   6.381   0.246 -2.5599 -1.1195 -0.2453
 7876TIP3   OH245042   0.581   6.525   1.536 -0.0970  0.2331 -0.0357
 7876TIP3    H145043   0.638   6.464   1.490  0.7817 -0.0322  1.3590
 7876TIP3    H245044   0.641   6.588   1.576 -0.9277  1.3802 -0.5373
 7877TIP3   OH245045   5.583   5.280   2.504 -0.3530  0.4363  0.1955
 7877TIP3    H145046   5.623   5.195   2.487  2.2109  1.4027  0.9077
 7877TIP3    H245047   5.519   5.263   2.573 -0.5167 -1.0507 -0.2899
 7878TIP3   OH245048   2.638   6.455   4.096  0.6666  0.2011  0.1017
 7878TIP3    H145049   2.571   6.523   4.092  0.7519  0.3329  0.8338
 7878TIP3    H245050   2.649   6.427   4.005 -0.4460  0.0973 -0.0098
 7879TIP3   OH245051   3.417   5.102  14.876 -0.1582  0.0773  0.4586
 7879TIP3    H145052   3.481   5.092  14.806  0.5111  0.0654  1.0624
 7879TIP3    H245053   3.408   5.013  14.912  0.7378  0.3720  1.4477
 7880TIP3   OH245054   2.581   6.575   3.383 -0.2084  0.1110  0.6036
 7880TIP3    H145055   2.660   6.628   3.367  0.3842 -1.3575 -1.8698
 7880TIP3    H245056   2.510   6.625   3.344 -0.2896  0.7414  1.5216
 7881TIP3   OH245057   4.845   2.072   5.727  0.1877 -0.1653  0.1613
 7881TIP3    H145058   4.861   2.060   5.821  2.0661  1.7408  0.1732
 7881TIP3    H245059   4.750   2.073   5.719 -0.0366  0.9283  2.2800
 7882TIP3   OH245060   1.745   6.079  14.510 -0.6560 -0.0501  0.5435
 7882TIP3    H145061   1.748   5.993  14.553 -0.5728  0.3269  1.3160
 7882TIP3    H245062   1.699   6.135  14.573  2.1653  1.2978  1.6034
 7883TIP3   OH245063   5.493   1.193   5.884  0.2266  0.4269 -0.2454
 7883TIP3    H145064   5.479   1.107   5.924 -1.2236  1.0317  0.5847
 7883TIP3    H245065   5.422   1.202   5.820 -0.8276  1.7948  1.0528
 7884TIP3   OH245066   1.032   1.886  14.748 -0.3492 -0.3902  0.5677
 7884TIP3    H145067   1.081   1.922  14.674 -0.3673 -0.7146  0.4001
 7884TIP3    H245068   0.942   1.880  14.716 -0.2867 -0.9048  0.4807
 7885TIP3   OH245069   6.216   3.304  13.776 -0.1149  0.0329  0.1036
 7885TIP3    H145070   6.238   3.315  13.869 -0.1968 -1.2183  0.2989
 7885TIP3    H245071   6.130   3.345  13.767  0.8202  2.1001  0.0619
 7886TIP3   OH245072   2.955   4.355  16.300 -0.1650  0.6789  0.1608
 7886TIP3    H145073   2.941   4.275  16.351 -1.3818  1.0268  0.3810
 7886TIP3    H245074   2.995   4.416  16.362  0.0548  0.4970  0.2005
 7887TIP3   OH245075   5.362   1.975   1.785  0.1100  0.0563  0.1309
 7887TIP3    H145076   5.301   2.049   1.780  0.4294  0.4146  1.2991
 7887TIP3    H245077   5.340   1.931   1.867 -1.5462 -2.4969 -1.5116
 7888TIP3   OH245078   6.552   3.582   1.518  0.2090  0.6858 -0.1480
 7888TIP3    H145079   6.556   3.514   1.450 -1.8680  0.6925 -0.3298
 7888TIP3    H245080   6.542   3.664   1.470  1.0549  0.9694  0.1314
 7889TIP3   OH245081   1.036   6.613  16.907 -0.4096  0.2455  0.6651
 7889TIP3    H145082   1.038   6.703  16.939 -2.4450 -0.7965  4.3128
 7889TIP3    H245083   0.945   6.585  16.919  0.3254 -2.5597  0.5322
 7890TIP3   OH245084   3.341   6.570  14.666 -0.1834 -0.2184  0.0433
 7890TIP3    H145085   3.326   6.567  14.571  0.6329  2.1048 -0.2185
 7890TIP3    H245086   3.253   6.568  14.704 -0.6883  1.3022 -0.9306
 7891TIP3   OH245087   4.834   6.188  12.945 -0.4144  0.1817  0.3818
 7891TIP3    H145088   4.774   6.127  12.988 -2.3834  0.0657 -2.2462
 7891TIP3    H245089   4.784   6.221  12.870  1.6333  2.7876  0.0163
 7892TIP3   OH245090   4.701   4.903  14.773  0.3994 -0.3014  0.4645
 7892TIP3    H145091   4.684   4.932  14.683  0.7516 -2.7981 -0.4771
 7892TIP3    H245092   4.757   4.972  14.809 -0.3635  1.1392 -0.9428
 7893TIP3   OH245093   6.409   4.408   0.796 -0.2870  0.1044  0.3353
 7893TIP3    H145094   6.386   4.316   0.802 -2.0641  0.6143  2.7871
 7893TIP3    H245095   6.356   4.441   0.724 -2.5073 -0.1258  1.7546
 7894TIP3   OH245096   2.055   1.398  14.373  0.2291 -0.0710  0.3289
 7894TIP3    H145097   2.149   1.388  14.389  0.4750 -1.8538 -1.8282
 7894TIP3    H245098   2.049   1.456  14.297 -0.4592  0.5728  0.8603
 7895TIP3   OH245099   6.063   5.352  11.023  0.2111 -0.1273  0.6041
 7895TIP3    H145100   6.107   5.435  11.041 -1.3905  0.8238  0.3578
 7895TIP3    H245101   6.006   5.371  10.949  0.5677 -1.7400 -0.1100
 7896TIP3   OH245102   4.642   1.865   2.413 -0.2603  0.3604 -0.2805
 7896TIP3    H145103   4.556   1.903   2.427 -0.3912  0.1588 -0.5223
 7896TIP3    H245104   4.637   1.778   2.452 -0.3526  0.1288 -0.7976
 7897TIP3   OH245105   6.236   0.184  15.389  0.2472 -0.3917 -0.8238
 7897TIP3    H145106   6.218   0.253  15.454 -1.2857  0.3542 -1.9631
 7897TIP3    H245107   6.260   0.108  15.442  2.0140  0.9878  0.4740
 7898TIP3   OH245108   4.857   5.807  16.146  0.3004  0.9182 -0.2737
 7898TIP3    H145109   4.921   5.859  16.194  0.7058  0.8239 -0.7081
 7898TIP3    H245110   4.834   5.861  16.071 -2.1345  2.1388  1.2025
 7899TIP3   OH245111   6.428   6.325   6.580  0.0624 -0.2695 -0.1302
 7899TIP3    H145112   6.374   6.342   6.656 -0.2150 -0.9819 -0.1577
 7899TIP3    H245113   6.463   6.237   6.595  0.0214 -0.4066 -0.8085
 7900TIP3   OH245114   0.803   4.452  16.865 -0.2613  0.8417 -0.8607
 7900TIP3    H145115   0.783   4.378  16.808  0.2909  0.9845 -1.2485
 7900TIP3    H245116   0.893   4.436  16.894 -0.7902  0.3577  0.6110
 7901TIP3   OH245117   0.746   2.736   0.368  0.7615 -0.7955 -0.1656
 7901TIP3    H145118   0.833   2.712   0.401  0.9398  1.3074  1.0689
 7901TIP3    H245119   0.762   2.788   0.290  0.6449  0.0482  0.3668
 7902TIP3   OH245120   3.821   5.118   5.400  0.1112  0.1897  0.4324
 7902TIP3    H145121   3.832   5.153   5.489 -0.6437 -0.2816  0.7141
 7902TIP3    H245122   3.905   5.137   5.357  0.2452  1.0201  1.0335
 7903TIP3   OH245123   5.914   0.602   3.731  0.0293  0.6509 -0.1284
 7903TIP3    H145124   5.826   0.588   3.696  0.6563 -3.1446 -0.6118
 7903TIP3    H245125   5.938   0.690   3.700 -3.1859  1.4572 -0.7248
 7904TIP3   OH245126   0.622   1.919   6.365  0.1189  0.1684 -0.0983
 7904TIP3    H145127   0.653   2.008   6.347  0.5062  0.1779  0.5664
 7904TIP3    H245128   0.569   1.928   6.444  1.2375 -0.3850  0.7461
 7905TIP3   OH245129   5.057   0.314   2.022  0.0574 -0.1382 -0.1643
 7905TIP3    H145130   4.993   0.289   2.088 -0.1710 -1.6406 -0.9081
 7905TIP3    H245131   5.142   0.293   2.062 -0.0760 -0.9376 -0.2761
 7906TIP3   OH245132   2.758   5.379  15.225 -0.4689 -0.7701  0.0697
 7906TIP3    H145133   2.844   5.414  15.246 -0.5823 -0.5629  0.1927
 7906TIP3    H245134   2.773   5.286  15.210 -0.3260 -0.8486  0.6929
 7907TIP3   OH245135   3.153   5.503  11.404 -0.4689  0.1014  0.2000
 7907TIP3    H145136   3.218   5.573  11.398 -1.4694  1.1742  1.2886
 7907TIP3    H245137   3.204   5.426  11.430  0.6648  0.3716 -1.0998
 7908TIP3   OH245138   1.418   1.820   5.233  0.7663  0.8834 -0.0190
 7908TIP3    H145139   1.338   1.799   5.283 -0.5580  0.4133 -2.1906
 7908TIP3    H245140   1.386   1.864   5.154  2.8416  2.4052 -0.0880
 7909TIP3   OH245141   4.889   4.499  14.188 -0.1770 -0.0487 -0.2778
 7909TIP3    H145142   4.961   4.451  14.147  1.2921  0.2748  1.7468
 7909TIP3    H245143   4.855   4.555  14.118 -0.2015 -2.0669 -1.9749
 7910TIP3   OH245144   4.564   0.409   0.859  0.3543  0.2100  0.0914
 7910TIP3    H145145   4.520   0.482   0.815 -1.1891  0.0719  1.3210
 7910TIP3    H245146   4.533   0.413   0.949  1.3705 -1.1107  0.5311
 7911TIP3   OH245147   5.898   5.859   2.648 -0.2954 -0.3462  0.5404
 7911TIP3    H145148   5.903   5.908   2.731  0.0300 -1.3748  1.1505
 7911TIP3    H245149   5.898   5.767   2.675  2.0500 -0.7853 -0.6675
 7912TIP3   OH245150   6.098   1.871   5.206  0.0995  0.3092  0.4301
 7912TIP3    H145151   6.044   1.950   5.211  0.8406  0.9076 -0.6370
 7912TIP3    H245152   6.188   1.903   5.203  0.4154 -0.5721 -0.0382
 7913TIP3   OH245153   5.159   2.806   0.278 -0.7583  0.2652 -0.2236
 7913TIP3    H145154   5.124   2.770   0.360 -0.3552  0.7923  0.1881
 7913TIP3    H245155   5.197   2.731   0.233 -0.2896  0.0976  0.4341
 7914TIP3   OH245156   1.719   4.060   3.053  0.1154  0.0750 -0.1775
 7914TIP3    H145157   1.780   4.114   3.103  0.4653 -0.7908  0.3592
 7914TIP3    H245158   1.772   3.986   3.024 -0.6650 -0.6850  0.2789
 7915TIP3   OH245159   2.265   2.610  15.455 -0.0826 -0.0946  0.0055
 7915TIP3    H145160   2.329   2.679  15.435 -0.3387  0.1053 -0.1316
 7915TIP3    H245161   2.213   2.646  15.526 -2.3771  1.2690 -2.2051
 7916TIP3   OH245162   3.554   3.979  12.489 -0.4482  0.3225  0.5434
 7916TIP3    H145163   3.490   3.908  12.486 -0.2419  0.0716  1.6914
 7916TIP3    H245164   3.595   3.971  12.574  1.3842  0.2652 -0.3010
 7917TIP3   OH245165   4.294   3.313   3.471 -0.0040  0.4380  0.1890
 7917TIP3    H145166   4.389   3.305   3.480 -0.0142 -0.9786 -0.5768
 7917TIP3    H245167   4.259   3.271   3.549 -0.0124  0.9652  0.4738
 7918TIP3   OH245168   1.920   5.381  11.854 -0.8664  0.1186 -0.2035
 7918TIP3    H145169   1.958   5.340  11.776  1.4116 -1.2762  1.4785
 7918TIP3    H245170   1.960   5.468  11.857  2.0851 -1.1375  1.2476
 7919TIP3   OH245171   5.478   0.163  11.354 -0.9170 -0.3275 -0.2672
 7919TIP3    H145172   5.452   0.245  11.396 -0.6270 -0.5233  0.2994
 7919TIP3    H245173   5.468   0.097  11.422  1.2403 -0.3848  0.0597
 7920TIP3   OH245174   4.217   5.129  15.994  0.6759 -0.3082 -0.3280
 7920TIP3    H145175   4.125   5.148  15.975  1.0613  0.4753 -1.5246
 7920TIP3    H245176   4.242   5.062  15.931  0.1303 -2.8505  1.9923
 7921TIP3   OH245177   0.768   4.358   5.605 -0.6450  0.3243 -0.4818
 7921TIP3    H145178   0.677   4.371   5.632 -0.4663  2.0460 -0.5920
 7921TIP3    H245179   0.806   4.304   5.674 -1.4687  0.5484  0.1675
 7922TIP3   OH245180   6.239   4.721  12.290  0.0250 -0.0310 -0.5036
 7922TIP3    H145181   6.281   4.644  12.327 -0.6412 -0.9364 -1.5649
 7922TIP3    H245182   6.236   4.704  12.196 -1.8659  0.4042 -0.5625
 7923TIP3   OH245183   3.385   4.375  13.586 -0.2266  0.1577  0.5266
 7923TIP3    H145184   3.478   4.359  13.600 -0.2188 -0.7414 -0.4001
 7923TIP3    H245185   3.360   4.312  13.519 -1.1686  1.3497 -0.3012
 7924TIP3   OH245186   5.585   6.123  14.716 -0.4620 -0.0181  0.7430
 7924TIP3    H145187   5.596   6.028  14.707  1.3420  0.2786 -0.9291
 7924TIP3    H245188   5.527   6.147  14.643 -0.2534  0.2692  0.6727
 7925TIP3   OH245189   2.224   0.646  12.946  0.0214 -0.4112  0.2414
 7925TIP3    H145190   2.176   0.625  13.026  2.7286 -0.7361  1.8959
 7925TIP3    H245191   2.283   0.716  12.970  0.8773 -0.4644 -1.5000
 7926TIP3   OH245192   2.173   5.970  12.165  0.4145 -0.1897 -0.1772
 7926TIP3    H145193   2.099   6.031  12.177 -0.2818 -1.0434 -0.0207
 7926TIP3    H245194   2.230   6.014  12.102  1.4140  1.9412  2.0451
 7927TIP3   OH245195   1.749   3.337   5.096  0.0497  0.3797 -0.3920
 7927TIP3    H145196   1.750   3.290   5.012  2.0063 -0.8965  0.2783
 7927TIP3    H245197   1.834   3.318   5.135 -0.9988  0.5134  2.1195
 7928TIP3   OH245198   4.086   2.807   5.112  0.1897 -0.3775 -0.0552
 7928TIP3    H145199   4.043   2.723   5.096 -0.7034  0.1851 -0.7189
 7928TIP3    H245200   4.131   2.796   5.196  0.2307 -1.5622 -0.2189
 7929TIP3   OH245201   3.055   0.237  17.039  0.5937  0.5830  0.1620
 7929TIP3    H145202   3.116   0.280  17.100  0.9434  0.2500  0.0455
 7929TIP3    H245203   3.004   0.310  17.003  1.0083  0.8805  0.1613
 7930TIP3   OH245204   2.567   4.097  14.107 -0.5499  0.0590 -0.5188
 7930TIP3    H145205   2.658   4.076  14.126 -0.1741  0.8736 -1.3585
 7930TIP3    H245206   2.517   4.046  14.171  0.4604 -0.8214 -0.3998
 7931TIP3   OH245207   0.832   4.187  11.379  0.1340 -0.3952  0.1870
 7931TIP3    H145208   0.827   4.279  11.353 -0.5471 -0.6835 -0.7315
 7931TIP3    H245209   0.864   4.141  11.302 -0.8607 -1.1184  0.1890
 7932TIP3   OH245210   6.140   3.364   2.669 -0.1342 -0.2627 -0.5535
 7932TIP3    H145211   6.118   3.282   2.625 -0.7932 -0.0273 -0.6738
 7932TIP3    H245212   6.200   3.408   2.608 -0.8590 -0.0428 -1.1202
 7933TIP3   OH245213   3.214   1.593   3.041 -0.6069 -0.4821 -0.2665
 7933TIP3    H145214   3.204   1.654   3.113 -1.2059 -0.4384 -0.3820
 7933TIP3    H245215   3.306   1.569   3.042 -0.5748 -0.3372  0.3952
 7934TIP3   OH245216   6.380   6.485   6.232  0.9224 -0.6524 -0.3072
 7934TIP3    H145217   6.326   6.564   6.240  0.0767 -1.1391 -1.1411
 7934TIP3    H245218   6.456   6.503   6.288  0.6481  0.6685 -0.3302
 7935TIP3   OH245219   5.920   0.919  14.119  0.4535 -0.2436  0.1608
 7935TIP3    H145220   5.871   0.909  14.201  1.1204 -0.2836  0.5673
 7935TIP3    H245221   5.988   0.851  14.124  0.6874 -0.0436 -0.2857
 7936TIP3   OH245222   1.298   0.135   0.389  1.2307 -0.3909  0.1383
 7936TIP3    H145223   1.346   0.217   0.403  1.3438 -0.2644 -0.9544
 7936TIP3    H245224   1.267   0.111   0.477 -0.1552  1.6391  0.2824
 7937TIP3   OH245225   0.922   6.213  13.427  0.5888  0.6324 -0.1298
 7937TIP3    H145226   0.831   6.245  13.424  0.0886 -0.8289 -1.3133
 7937TIP3    H245227   0.918   6.136  13.483  1.0900  0.4965 -0.2806
 7938TIP3   OH245228   1.557   4.512  15.028  0.2491  0.4099  0.4651
 7938TIP3    H145229   1.625   4.483  14.968 -1.0667 -0.4221 -0.6900
 7938TIP3    H245230   1.565   4.452  15.103  0.4731 -0.0013  0.1194
 7939TIP3   OH245231   3.062   0.984  13.415  0.0675  0.1865 -0.2659
 7939TIP3    H145232   3.055   0.985  13.511  0.0042 -0.3977 -0.2641
 7939TIP3    H245233   3.104   0.901  13.395  1.9185  1.1495 -0.6254
 7940TIP3   OH245234   4.987   6.526   2.011 -0.1441 -0.1362  0.7661
 7940TIP3    H145235   4.964   6.589   2.080  0.3219  1.4353 -0.4531
 7940TIP3    H245236   5.068   6.486   2.041  0.0229  0.4853  1.1738
 7941TIP3   OH245237   1.630   0.453  15.548  0.1115 -0.3368  0.2831
 7941TIP3    H145238   1.563   0.516  15.577  2.0118  2.5569 -1.1366
 7941TIP3    H245239   1.702   0.465  15.610  0.6177 -0.9256 -0.1862
 7942TIP3   OH245240   1.902   5.183   5.988  0.1221  0.5175 -0.1945
 7942TIP3    H145241   1.843   5.230   6.047  1.2460  0.0942  1.3296
 7942TIP3    H245242   1.989   5.220   6.006  0.5304  0.2432 -1.4648
 7943TIP3   OH245243   0.743   0.580  17.184  0.1194 -0.1133 -0.2757
 7943TIP3    H145244   0.786   0.546  17.263 -0.9274 -0.6975  0.0557
 7943TIP3    H245245   0.804   0.646  17.150  0.2647  0.6831  1.4343
 7944TIP3   OH245246   3.227   5.717  14.689  0.7360 -0.0164 -0.5071
 7944TIP3    H145247   3.244   5.809  14.709 -0.9998  0.2521 -0.1814
 7944TIP3    H245248   3.214   5.715  14.594 -3.4988  0.8964 -0.1144
 7945TIP3   OH245249   4.457   2.442  12.042  0.6757  0.3110  0.0445
 7945TIP3    H145250   4.544   2.430  12.081  0.6087 -1.2966 -0.2596
 7945TIP3    H245251   4.418   2.355  12.041  0.0194  0.5591 -2.0699
 7946TIP3   OH245252   1.722   1.828   4.375  0.6556 -0.2806  0.5985
 7946TIP3    H145253   1.652   1.838   4.440  0.3857  1.4560  0.0846
 7946TIP3    H245254   1.681   1.782   4.302 -0.6233  2.4421 -0.5533
 7947TIP3   OH245255   1.331   5.709   4.324 -0.6266  0.1266 -0.3772
 7947TIP3    H145256   1.302   5.702   4.415 -1.7134 -3.0120 -0.8453
 7947TIP3    H245257   1.408   5.766   4.328 -0.7189  0.2031  2.4711
 7948TIP3   OH245258   1.245   3.503  15.018 -0.4044  0.3597  0.1079
 7948TIP3    H145259   1.281   3.414  15.020 -1.2794 -0.0301 -0.4955
 7948TIP3    H245260   1.308   3.553  14.965  0.8086  0.4649  1.5841
 7949TIP3   OH245261   5.535   0.494  16.412  0.8890 -0.3657 -0.4607
 7949TIP3    H145262   5.572   0.511  16.498 -1.3684 -1.2703  0.7866
 7949TIP3    H245263   5.526   0.581  16.372  0.6918  0.2201  0.8041
 7950TIP3   OH245264   6.723   3.335   1.053 -0.4720 -0.6082 -0.1418
 7950TIP3    H145265   6.788   3.282   1.098  1.7063  1.5318 -0.5968
 7950TIP3    H245266   6.773   3.391   0.994 -2.8565  0.1289 -1.6419
 7951TIP3   OH245267   1.740   2.515  13.097 -0.1774  0.0411 -0.0991
 7951TIP3    H145268   1.644   2.520  13.101 -0.2553 -1.3833  1.1488
 7951TIP3    H245269   1.767   2.521  13.189  0.9043  0.0649 -0.4112
 7952TIP3   OH245270   2.685   6.509  14.694 -0.1787 -0.2786  0.0574
 7952TIP3    H145271   2.742   6.478  14.623  1.1230  0.8091  0.5751
 7952TIP3    H245272   2.598   6.511  14.655  0.7000  1.6945 -2.0271
 7953TIP3   OH245273   5.339   5.781  13.598  0.9596 -0.1595 -0.4760
 7953TIP3    H145274   5.411   5.844  13.602 -1.5106  2.9344 -0.7961
 7953TIP3    H245275   5.342   5.747  13.509  1.4830  0.6686 -0.7909
 7954TIP3   OH245276   1.205   5.504  16.055 -0.6730  0.0260  0.3132
 7954TIP3    H145277   1.286   5.458  16.032  0.5698  1.5019  1.5492
 7954TIP3    H245278   1.136   5.443  16.029  0.8131 -1.3579 -0.6310
 7955TIP3   OH245279   4.453   3.234   2.911 -0.2072  0.0332  0.7305
 7955TIP3    H145280   4.427   3.226   3.003  1.5068 -0.7404  1.1950
 7955TIP3    H245281   4.501   3.153   2.893  0.1358  0.5078 -0.6248
 7956TIP3   OH245282   3.975   4.360  16.135  0.0831 -0.1486  0.1401
 7956TIP3    H145283   3.988   4.357  16.041 -0.6744 -0.1679  0.0250
 7956TIP3    H245284   3.891   4.317  16.149  0.4064 -0.5710  0.8726
 7957TIP3   OH245285   2.463   1.987   0.323 -0.3200 -0.1093  0.8533
 7957TIP3    H145286   2.496   1.898   0.319  1.1890  0.4488 -0.3497
 7957TIP3    H245287   2.541   2.042   0.312 -1.0854  1.3859  2.4437
 7958TIP3   OH245288   4.276   5.842  14.954  0.2113  0.0042 -0.6316
 7958TIP3    H145289   4.371   5.843  14.942  0.4933 -4.2609 -0.2069
 7958TIP3    H245290   4.263   5.869  15.045  1.0298  0.0900 -0.5319
 7959TIP3   OH245291   1.167   1.535  11.332 -0.5068 -0.2822 -0.2265
 7959TIP3    H145292   1.135   1.532  11.242 -0.7233  2.5516 -0.3490
 7959TIP3    H245293   1.154   1.626  11.359 -0.3224 -1.0012  2.6451
 7960TIP3   OH245294   5.923   2.911  12.554 -0.0243  0.6432 -0.1165
 7960TIP3    H145295   5.974   2.984  12.589  1.6999  0.0636 -1.2597
 7960TIP3    H245296   5.865   2.952  12.489  0.8955  1.0331 -0.7168
 7961TIP3   OH245297   4.658   6.578   6.135 -0.6367  0.7797 -0.2680
 7961TIP3    H145298   4.566   6.553   6.139 -0.3629 -0.2533 -0.1352
 7961TIP3    H245299   4.702   6.517   6.195  0.4070 -0.0303 -1.8039
 7962TIP3   OH245300   6.212   4.280  13.817  0.5295  0.1630  0.3173
 7962TIP3    H145301   6.131   4.250  13.776 -1.3293  2.6137  1.8538
 7962TIP3    H245302   6.258   4.328  13.748 -1.1926  1.8905  0.2921
 7963TIP3   OH245303   0.970   2.380  12.571  0.2771 -0.0779 -0.2211
 7963TIP3    H145304   0.878   2.373  12.595  0.8393 -1.1299  1.8178
 7963TIP3    H245305   0.968   2.412  12.480 -2.1947 -3.9313 -1.7956
 7964TIP3   OH245306   3.142   4.734   6.099  0.2699 -0.7708  0.0291
 7964TIP3    H145307   3.104   4.688   6.024 -0.8287 -0.1514  0.1917
 7964TIP3    H245308   3.084   4.715   6.172 -0.9560  1.8307 -0.1590
 7965TIP3   OH245309   6.356   4.604   0.122  0.1835 -0.1895  0.1699
 7965TIP3    H145310   6.313   4.585   0.038  0.2997  0.4746 -0.0485
 7965TIP3    H245311   6.354   4.521   0.169  0.3878 -0.6493 -0.6133
 7966TIP3   OH245312   0.190   3.671  15.118 -0.1532  0.0078 -0.0777
 7966TIP3    H145313   0.200   3.627  15.203 -0.8195 -0.4907 -0.2510
 7966TIP3    H245314   0.174   3.599  15.056 -0.0801  0.4027 -0.5572
 7967TIP3   OH245315   2.399   1.042   1.308  0.5659  0.7168  0.2068
 7967TIP3    H145316   2.323   1.100   1.312 -0.1216 -0.1993  0.8401
 7967TIP3    H245317   2.366   0.963   1.265  1.6407  0.9809 -1.1841
 7968TIP3   OH245318   5.757   5.996   0.208 -0.1362 -0.5928 -0.2145
 7968TIP3    H145319   5.769   6.077   0.257 -0.0368 -1.0987  0.6090
 7968TIP3    H245320   5.744   6.024   0.118  0.9448  0.2905 -0.1104
 7969TIP3   OH245321   5.341   2.148   4.403 -0.2272  0.0146  0.5659
 7969TIP3    H145322   5.403   2.111   4.466  1.1610  1.4114  0.1104
 7969TIP3    H245323   5.262   2.094   4.411  1.4553 -2.6790  0.2550
 7970TIP3   OH245324   0.282   3.529  13.066  0.1426  0.5815  0.1975
 7970TIP3    H145325   0.374   3.555  13.073  0.4218 -0.1627 -0.5963
 7970TIP3    H245326   0.282   3.456  13.004 -0.6804 -1.0086  1.9669
 7971TIP3   OH245327   6.012   0.710  15.197 -0.0488 -0.2910  0.5657
 7971TIP3    H145328   5.965   0.649  15.139 -0.6978  0.8669 -0.1554
 7971TIP3    H245329   6.070   0.653  15.248  0.6952 -1.3452 -1.3338
 7972TIP3   OH245330   4.986   1.640   6.210  0.0100 -0.2763 -0.7884
 7972TIP3    H145331   5.072   1.597   6.209  0.2728  0.2413 -0.9535
 7972TIP3    H245332   5.002   1.724   6.253 -0.5603 -0.4660 -0.2024
 7973TIP3   OH245333   5.943   4.598  17.191 -0.0645 -0.3568 -0.0840
 7973TIP3    H145334   5.873   4.581  17.255 -1.5252 -0.5394 -1.6565
 7973TIP3    H245335   5.953   4.515  17.144 -0.5963  0.3868 -1.5529
 7974TIP3   OH245336   2.636   3.310  14.835 -0.2665 -0.2495 -0.1010
 7974TIP3    H145337   2.587   3.389  14.858 -0.7638 -1.3441  3.1357
 7974TIP3    H245338   2.585   3.270  14.764  0.1101  2.3187 -1.9541
 7975TIP3   OH245339   2.582   2.174   1.513 -0.3527  0.0437 -0.5544
 7975TIP3    H145340   2.632   2.230   1.572 -0.7297 -0.0792 -0.1089
 7975TIP3    H245341   2.646   2.143   1.448 -0.1055  0.8245 -0.6862
 7976TIP3   OH245342   6.157   0.025  13.437  0.1621 -0.6565 -0.0106
 7976TIP3    H145343   6.068   0.023  13.472  0.4143  2.2706  0.9811
 7976TIP3    H245344   6.214   0.039  13.513  1.2897 -0.4194 -0.8607
 7977TIP3   OH245345   5.669   3.084  13.173  0.5141  0.3410  0.1649
 7977TIP3    H145346   5.594   3.036  13.139  0.2338 -0.7530  2.1494
 7977TIP3    H245347   5.667   3.068  13.268  1.3982  2.9442  0.7027
 7978TIP3   OH245348   5.719   0.735  12.926  0.5441 -0.1750  0.3893
 7978TIP3    H145349   5.775   0.774  12.858  1.0041 -1.4699 -0.0136
 7978TIP3    H245350   5.705   0.645  12.896  1.3157 -0.9910  2.3394
 7979TIP3   OH245351   4.142   5.496  16.804 -0.1123 -0.1289  0.2170
 7979TIP3    H145352   4.097   5.510  16.721  0.7126  0.2768 -0.1616
 7979TIP3    H245353   4.162   5.402  16.805  0.0755 -0.0924 -0.1417
 7980TIP3   OH245354   0.763   0.748  12.510  0.1124 -0.2694  0.0089
 7980TIP3    H145355   0.790   0.689  12.581 -3.1353  1.0480  2.6055
 7980TIP3    H245356   0.807   0.830  12.529 -0.0654 -0.1682 -0.0106
 7981TIP3   OH245357   3.115   5.506  12.007  0.9178 -0.3200 -0.2822
 7981TIP3    H145358   3.077   5.445  11.943  0.2787 -0.5309  0.2926
 7981TIP3    H245359   3.208   5.484  12.008  0.3777 -3.1207  1.8227
 7982TIP3   OH245360   6.467   2.094   3.190 -0.1490  0.3973  0.5500
 7982TIP3    H145361   6.474   2.124   3.280  3.4746  0.5241  0.3952
 7982TIP3    H245362   6.427   2.167   3.143  1.3515  1.8830  1.4727
 7983TIP3   OH245363   2.609   4.631   5.708  0.0931 -0.8112 -0.4738
 7983TIP3    H145364   2.556   4.707   5.683  0.4865 -1.0328 -2.0739
 7983TIP3    H245365   2.552   4.556   5.689  0.2852 -0.9775 -0.3902
 7984TIP3   OH245366   0.303   1.433   3.672  0.0421  0.2332 -0.9516
 7984TIP3    H145367   0.351   1.464   3.595  2.0511  0.1601  0.2120
 7984TIP3    H245368   0.338   1.484   3.745 -1.5566  0.0427  0.0011
 7985TIP3   OH245369   5.778   3.723  16.462 -0.0895  0.0871  0.5910
 7985TIP3    H145370   5.857   3.774  16.447 -0.2993  1.2084  2.8846
 7985TIP3    H245371   5.781   3.654  16.396  2.4176  0.5222  0.1597
 7986TIP3   OH245372   5.719   5.149   6.300 -0.2012  0.2184 -0.4451
 7986TIP3    H145373   5.755   5.100   6.374  2.0091  0.7340 -1.0744
 7986TIP3    H245374   5.762   5.234   6.305  1.0923 -0.1748 -3.0123
 7987TIP3   OH245375   2.306   2.938   1.289  0.2560 -0.5112  0.3911
 7987TIP3    H145376   2.386   2.945   1.341  1.2913  2.0898 -1.3388
 7987TIP3    H245377   2.332   2.889   1.211  1.7273  4.1480 -2.4465
 7988TIP3   OH245378   2.262   0.661  16.410  0.1980 -0.2593  0.0953
 7988TIP3    H145379   2.217   0.658  16.326 -0.1832 -3.3124  0.2764
 7988TIP3    H245380   2.267   0.569  16.438  1.2263  0.5355  2.9288
 7989TIP3   OH245381   2.211   0.294  14.954 -0.1925 -0.2057 -0.0608
 7989TIP3    H145382   2.278   0.310  15.019  0.2361 -0.5744 -0.3998
 7989TIP3    H245383   2.167   0.215  14.984  0.1337 -0.4877 -0.3116
 7990TIP3   OH245384   3.626   0.734  16.292 -0.6556  0.0611  1.0201
 7990TIP3    H145385   3.666   0.765  16.373  2.3974  0.7553 -0.6228
 7990TIP3    H245386   3.684   0.664  16.262 -2.3346 -0.9328 -0.0632
 7991TIP3   OH245387   4.428   6.725  12.614  0.2358  0.7426  0.3423
 7991TIP3    H145388   4.387   6.781  12.548 -0.8034 -0.2977  0.0936
 7991TIP3    H245389   4.377   6.740  12.694 -0.2324 -0.0669  0.1995
 7992TIP3   OH245390   0.436   3.385  11.759 -0.4975 -0.1089 -0.1310
 7992TIP3    H145391   0.451   3.291  11.768 -0.5038 -0.4376 -2.6873
 7992TIP3    H245392   0.511   3.416  11.708 -1.7490  0.7327 -1.5558
 7993TIP3   OH245393   0.798   2.606   2.393  1.0767 -0.1381 -0.3505
 7993TIP3    H145394   0.823   2.631   2.482 -0.5920  2.5369 -0.5141
 7993TIP3    H245395   0.800   2.688   2.344  0.5749 -1.3146 -2.4420
 7994TIP3   OH245396   6.401   4.367   2.121  0.0587 -0.3831 -0.7488
 7994TIP3    H145397   6.402   4.391   2.214  3.2105  1.1761 -1.0344
 7994TIP3    H245398   6.367   4.278   2.120 -1.5110  0.0794  1.6924
 7995TIP3   OH245399   3.044   4.287  15.829  0.2459  0.2124 -0.4451
 7995TIP3    H145400   3.114   4.228  15.856  1.1034  0.9980 -0.8859
 7995TIP3    H245401   3.011   4.325  15.911  0.2944 -0.2043 -0.2314
 7996TIP3   OH245402   0.547   0.325   4.385  0.3190  0.7188  0.1485
 7996TIP3    H145403   0.624   0.271   4.370  0.8194  1.3926  0.2542
 7996TIP3    H245404   0.484   0.266   4.427  0.9052  0.2504  0.3823
 7997TIP3   OH245405   4.903   6.459  12.229  0.4930  0.0807 -1.0343
 7997TIP3    H145406   4.969   6.392  12.215  1.9097  1.3376 -0.6632
 7997TIP3    H245407   4.830   6.433  12.173  2.0537 -0.3243 -2.9940
 7998TIP3   OH245408   0.226   2.511  13.646 -0.5976  0.5728 -0.4300
 7998TIP3    H145409   0.253   2.420  13.655 -0.6611  0.4781 -1.1223
 7998TIP3    H245410   0.136   2.506  13.613 -0.1797  0.8697 -1.6860
 7999TIP3   OH245411   5.239   2.417  17.068  0.0306  0.2363  0.1797
 7999TIP3    H145412   5.250   2.511  17.081  0.0495  0.3724 -0.7503
 7999TIP3    H245413   5.264   2.378  17.152 -0.6262  1.1006  0.8028
 8000TIP3   OH245414   1.554   6.137   4.801  0.0571  0.2777 -0.0180
 8000TIP3    H145415   1.609   6.113   4.726  0.1175  1.4272 -0.3534
 8000TIP3    H245416   1.562   6.232   4.807 -1.4920  0.4135  0.2476
 8001TIP3   OH245417   4.573   1.338   6.003 -0.2160  0.1965  0.3256
 8001TIP3    H145418   4.563   1.429   6.031  0.0468 -0.5432  3.1682
 8001TIP3    H245419   4.534   1.287   6.075 -2.5270 -1.9395 -2.2298
 8002TIP3   OH245420   3.708   3.335   4.628  0.2691 -0.3285 -0.0698
 8002TIP3    H145421   3.757   3.368   4.553 -0.6791  0.8833 -0.1950
 8002TIP3    H245422   3.751   3.252   4.650  2.7825  0.9695  0.2731
 8003TIP3   OH245423   0.908   3.499  15.956  0.1336  0.6478  0.4079
 8003TIP3    H145424   0.988   3.545  15.984  0.1507  0.0086  1.4662
 8003TIP3    H245425   0.847   3.568  15.934  1.6360  1.1878 -2.4809
 8004TIP3   OH245426   0.995   0.110  17.069 -0.0590  0.5457  0.4969
 8004TIP3    H145427   1.022   0.185  17.016  0.4784  1.0119  1.4106
 8004TIP3    H245428   0.899   0.112  17.065 -0.0389  0.9310  0.0471
 8005TIP3   OH245429   0.511   5.354   6.216 -0.2422 -0.3384 -0.0070
 8005TIP3    H145430   0.595   5.339   6.260 -0.3196  0.1310  0.2964
 8005TIP3    H245431   0.456   5.393   6.283 -0.7606 -0.7967 -0.1603
 8006TIP3   OH245432   3.194   6.110  14.128 -0.0085 -0.0757 -0.0186
 8006TIP3    H145433   3.149   6.029  14.154  0.2809 -0.6293 -1.1644
 8006TIP3    H245434   3.125   6.163  14.089 -0.4596  0.7880  1.8302
 8007TIP3   OH245435   4.177   0.314   2.532  0.0547  0.2040 -0.3524
 8007TIP3    H145436   4.188   0.378   2.602  0.2662  1.1425 -1.2162
 8007TIP3    H245437   4.263   0.310   2.489 -0.7333  1.6827 -2.2232
 8008TIP3   OH245438   3.143   3.724   2.165 -0.3302 -0.5326 -0.4816
 8008TIP3    H145439   3.227   3.711   2.209  0.0850  0.4003 -0.9687
 8008TIP3    H245440   3.147   3.814   2.133 -0.6253 -1.1637 -2.3845
 8009TIP3   OH245441   3.317   0.931  16.259  0.2217  0.7959 -0.2306
 8009TIP3    H145442   3.357   0.853  16.296  1.8638  0.5539 -2.3536
 8009TIP3    H245443   3.281   0.903  16.175  0.3055  2.1568 -0.7548
 8010TIP3   OH245444   5.062   5.605  14.445 -0.1765  0.6152  0.0740
 8010TIP3    H145445   5.081   5.692  14.479  0.8584  0.4005  0.0664
 8010TIP3    H245446   4.999   5.568  14.508  0.0242  1.0494  0.5328
 8011TIP3   OH245447   1.586   6.056   1.904  0.3246 -0.3477 -0.1506
 8011TIP3    H145448   1.596   6.077   1.997  1.6654  3.5691 -0.9729
 8011TIP3    H245449   1.602   5.962   1.898  0.4367 -0.6898  3.5052
 8012TIP3   OH245450   6.333   2.812   3.022  0.3190 -0.1706 -0.5633
 8012TIP3    H145451   6.259   2.854   3.067  0.1211 -0.7779 -0.3066
 8012TIP3    H245452   6.346   2.864   2.943  0.3656  0.6349 -0.0378
 8013TIP3   OH245453   5.458   5.541   0.924 -0.8152  0.1937  0.3069
 8013TIP3    H145454   5.393   5.574   0.985  0.0396  0.8490  0.8788
 8013TIP3    H245455   5.408   5.488   0.862 -1.6549 -0.8033  1.7849
 8014TIP3   OH245456   1.035   1.925   2.462  0.4240  0.3661 -0.1872
 8014TIP3    H145457   1.114   1.930   2.408  1.0040  0.7518  0.6696
 8014TIP3    H245458   1.015   1.831   2.468  0.7408  0.2770 -0.5149
 8015TIP3   OH245459   5.326   2.816  12.809  0.0366  0.2319 -0.1962
 8015TIP3    H145460   5.250   2.870  12.789 -1.1198 -0.7847  1.1603
 8015TIP3    H245461   5.309   2.734  12.763  0.0329 -0.1832  0.5278
 8016TIP3   OH245462   3.025   6.080   5.303  0.2234 -1.0156  0.5621
 8016TIP3    H145463   2.943   6.111   5.263  2.0358  1.5320 -1.5275
 8016TIP3    H245464   3.025   6.118   5.391 -0.7514 -0.9421  0.5373
 8017TIP3   OH245465   4.987   2.239  12.178 -0.2303 -0.3571 -0.5159
 8017TIP3    H145466   5.079   2.248  12.205 -0.0189  0.2664 -1.4031
 8017TIP3    H245467   4.958   2.158  12.221  0.5578 -0.2644  0.2370
 8018TIP3   OH245468   5.565   2.529  12.587  0.1115 -0.1361 -0.4570
 8018TIP3    H145469   5.542   2.490  12.671 -4.3004 -2.1354 -2.2689
 8018TIP3    H245470   5.628   2.468  12.548  0.9966  0.0034  0.7074
 8019TIP3   OH245471   6.298   3.164  15.403 -0.5610 -0.1860  0.5506
 8019TIP3    H145472   6.206   3.140  15.410  0.3011 -3.8240  0.9249
 8019TIP3    H245473   6.338   3.131  15.483  1.2904  0.3411 -0.1183
 8020TIP3   OH245474   6.067   3.881   0.163 -0.0705  0.6080  0.1256
 8020TIP3    H145475   6.105   3.830   0.091 -0.4797 -0.8558  0.9125
 8020TIP3    H245476   5.973   3.863   0.159 -0.0872  0.4069  1.0830
 8021TIP3   OH245477   3.479   6.338  15.617  0.0334 -0.4105 -0.6143
 8021TIP3    H145478   3.546   6.405  15.606 -0.8400  1.3013  3.1172
 8021TIP3    H245479   3.400   6.377  15.581 -0.7353  1.2176  2.5778
 8022TIP3   OH245480   5.456   3.709  17.010  0.2763  0.8913  0.2691
 8022TIP3    H145481   5.488   3.635  16.958  0.4478  1.4267 -0.4072
 8022TIP3    H245482   5.510   3.708  17.088  0.9102  0.8655 -0.1649
 8023TIP3   OH245483   2.465   3.111  12.678 -0.2182  0.0957  0.1912
 8023TIP3    H145484   2.416   3.125  12.759 -0.5097 -0.7493  0.1746
 8023TIP3    H245485   2.539   3.171  12.684 -1.4257  1.6706  0.0598
 8024TIP3   OH245486   4.757   0.166  14.138 -0.0206 -0.9591 -0.4250
 8024TIP3    H145487   4.669   0.183  14.104 -0.2382 -0.7370  0.2465
 8024TIP3    H245488   4.771   0.073  14.124  0.0761 -0.7977 -1.5495
 8025TIP3   OH245489   0.719   5.937   1.256  0.1785 -0.1308 -0.5246
 8025TIP3    H145490   0.642   5.994   1.262 -0.2727 -0.4575 -2.4878
 8025TIP3    H245491   0.793   5.996   1.246 -0.0959  0.1471 -0.9165
 8026TIP3   OH245492   4.777   4.059  13.634  0.6930 -0.3500  0.4169
 8026TIP3    H145493   4.709   4.054  13.701 -0.2044  1.2452 -0.3147
 8026TIP3    H245494   4.857   4.078  13.682  0.2531 -0.2547  1.1249
 8027TIP3   OH245495   4.699   3.482  14.387  0.3555 -0.1194  0.0899
 8027TIP3    H145496   4.765   3.428  14.430  0.9957  1.2900  0.9964
 8027TIP3    H245497   4.619   3.466  14.437  0.3157 -0.8848 -0.2134
 8028TIP3   OH245498   4.695   3.218  13.263  0.4498 -0.3585 -0.4366
 8028TIP3    H145499   4.648   3.266  13.331 -0.2316 -2.2543  0.5243
 8028TIP3    H245500   4.724   3.284  13.201 -2.5368  1.0186 -0.4847
 8029TIP3   OH245501   1.734   4.302  12.220 -0.2009 -0.2290  0.2491
 8029TIP3    H145502   1.758   4.373  12.280 -0.7500  1.1367 -1.0788
 8029TIP3    H245503   1.639   4.292  12.230  0.1393 -2.4908  2.1625
 8030TIP3   OH245504   3.010   1.120  12.750  0.3081 -0.3999  0.5732
 8030TIP3    H145505   2.997   1.191  12.688 -1.8212 -0.8150  0.4674
 8030TIP3    H245506   3.013   1.163  12.836  0.0773 -0.0956  0.4297
 8031TIP3   OH245507   2.776   1.082  12.585  0.2301 -0.0450 -0.2178
 8031TIP3    H145508   2.802   1.170  12.558  1.2309 -0.4620 -0.6646
 8031TIP3    H245509   2.716   1.054  12.517  0.7896 -0.1276 -0.6907
 8032TIP3   OH245510   2.236   5.602   2.610  0.2994 -0.5971 -0.1734
 8032TIP3    H145511   2.310   5.571   2.663  0.7799  0.0018 -0.4815
 8032TIP3    H245512   2.192   5.667   2.665  0.1765 -0.7364 -0.1061
 8033TIP3   OH245513   5.294   6.360  17.313  0.3591 -0.0146  0.0975
 8033TIP3    H145514   5.214   6.395  17.273 -0.2960 -0.0226  1.3290
 8033TIP3    H245515   5.263   6.312  17.390  1.4631 -1.0763 -0.0931
 8034TIP3   OH245516   5.008   1.811   0.217 -0.4968  0.2260  0.0002
 8034TIP3    H145517   4.932   1.756   0.199  0.8154 -1.3181 -1.1648
 8034TIP3    H245518   5.059   1.761   0.281  0.2263  0.5452 -0.3163
 8035TIP3   OH245519   3.136   1.665  13.795 -0.2634  0.0123 -0.4310
 8035TIP3    H145520   3.185   1.583  13.808 -0.1526  0.0318 -0.7122
 8035TIP3    H245521   3.089   1.652  13.713 -1.4266 -0.3408  0.2721
 8036TIP3   OH245522   3.627   0.129   4.955 -0.5248  0.2872  0.4395
 8036TIP3    H145523   3.642   0.203   5.014 -2.0195  0.8792  0.1309
 8036TIP3    H245524   3.562   0.162   4.893  0.1634 -0.6980 -0.8509
 8037TIP3   OH245525   2.476   0.141   0.823  0.4491  0.3625  0.1101
 8037TIP3    H145526   2.546   0.124   0.886  0.4654 -1.4965 -0.3505
 8037TIP3    H245527   2.435   0.056   0.808 -0.7407  1.0861 -1.0070
 8038TIP3   OH245528   3.168   0.822   3.316  0.2505 -0.3530 -0.1646
 8038TIP3    H145529   3.263   0.825   3.304  0.1821 -0.7608 -0.8979
 8038TIP3    H245530   3.156   0.806   3.409  0.8979 -0.0817 -0.0303
 8039TIP3   OH245531   6.279   3.688  16.796  0.0829  0.3160 -0.0151
 8039TIP3    H145532   6.371   3.712  16.811  0.5376 -0.5712 -1.1843
 8039TIP3    H245533   6.282   3.594  16.778 -1.0575  0.2930 -0.1363
 8040TIP3   OH245534   5.939   0.628   4.077  0.0786 -0.8375  0.6454
 8040TIP3    H145535   5.997   0.665   4.010  0.2719 -1.2622  0.5717
 8040TIP3    H245536   5.853   0.623   4.035  0.4442 -2.2217 -0.0009
 8041TIP3   OH245537   1.325   3.089  13.653  0.5316 -0.1910  0.2134
 8041TIP3    H145538   1.342   3.082  13.747 -0.6180  2.0600  0.6698
 8041TIP3    H245539   1.403   3.130  13.617  0.1123  1.0063  0.6109
 8042TIP3   OH245540   1.485   5.717  11.358 -0.5147  0.2951  0.0542
 8042TIP3    H145541   1.456   5.806  11.377 -1.6054  0.1157 -0.7013
 8042TIP3    H245542   1.436   5.691  11.280 -0.5868 -1.1505  0.5426
 8043TIP3   OH245543   1.884   6.491   0.373  0.4695  0.3689  0.0500
 8043TIP3    H145544   1.888   6.511   0.467 -0.4425  0.6694  0.0404
 8043TIP3    H245545   1.896   6.397   0.368 -0.8217  0.1436  0.6124
 8044TIP3   OH245546   2.800   4.556  12.592 -0.1340 -0.1132  0.3757
 8044TIP3    H145547   2.807   4.647  12.621  0.0179 -0.3262  1.0059
 8044TIP3    H245548   2.738   4.560  12.519 -0.2399  0.4737  0.4889
 8045TIP3   OH245549   1.222   6.176  15.380  0.0374  0.3165 -0.0868
 8045TIP3    H145550   1.162   6.233  15.427  0.6722 -1.3245  2.9645
 8045TIP3    H245551   1.305   6.183  15.428  0.1162 -3.1167  0.5533
 8046TIP3   OH245552   5.154   3.082  15.917 -0.3705  0.4483 -0.8490
 8046TIP3    H145553   5.216   3.010  15.909 -0.3739  0.5360 -1.8118
 8046TIP3    H245554   5.126   3.081  16.008 -0.3495 -0.7529 -0.8474
 8047TIP3   OH245555   4.907   3.157   1.795 -0.1807 -0.1083  0.2707
 8047TIP3    H145556   4.897   3.089   1.728 -0.6443 -1.2066  1.4231
 8047TIP3    H245557   4.950   3.114   1.868 -1.5315  0.4975  1.4840
 8048TIP3   OH245558   6.223   1.165   6.823 -0.0675 -0.3105 -0.1896
 8048TIP3    H145559   6.252   1.078   6.795 -0.6488 -0.6435  0.2158
 8048TIP3    H245560   6.127   1.162   6.815 -0.0525  0.5075 -0.7748
 8049TIP3   OH245561   6.225   4.900   1.125 -0.5529  0.3684  0.1556
 8049TIP3    H145562   6.258   4.837   1.189  0.7744  1.1027  0.2265
 8049TIP3    H245563   6.145   4.860   1.092  0.0468 -1.1849  0.4703
 8050TIP3   OH245564   6.139   2.682  11.483  0.6968 -0.1120  0.0115
 8050TIP3    H145565   6.201   2.656  11.551 -0.6174 -2.0119  0.5703
 8050TIP3    H245566   6.053   2.669  11.523 -0.1422 -1.5540 -2.0656
 8051TIP3   OH245567   1.922   0.775  12.174  0.0121  0.6833  0.6741
 8051TIP3    H145568   1.979   0.723  12.230  0.0930  1.4668  1.3431
 8051TIP3    H245569   1.883   0.840  12.233 -1.2244  0.4476  0.1415
 8052TIP3   OH245570   4.153   2.888  11.814  0.1157  0.0502 -0.2823
 8052TIP3    H145571   4.172   2.795  11.813  1.4220  0.2000  2.2358
 8052TIP3    H245572   4.218   2.928  11.756 -0.6455 -0.5660 -1.6165
 8053TIP3   OH245573   3.770   2.760   0.014  0.6163  0.4703  0.5350
 8053TIP3    H145574   3.828   2.748  -0.061 -0.4831  1.0243 -0.4201
 8053TIP3    H245575   3.721   2.678   0.019  1.2268  0.1292  1.1459
 8054TIP3   OH245576   2.889   3.544   0.894  0.0268 -0.8920 -0.0452
 8054TIP3    H145577   2.928   3.551   0.981  0.8022  1.2083 -0.4970
 8054TIP3    H245578   2.930   3.466   0.855  1.9273 -0.1896  0.4257
 8055TIP3   OH245579   0.535   2.287   5.251 -0.0944  0.2956  0.3272
 8055TIP3    H145580   0.537   2.220   5.320  0.6399  0.2196  0.2355
 8055TIP3    H245581   0.468   2.349   5.280 -0.4877 -0.2547  0.6205
 8056TIP3   OH245582   2.437   4.957   4.217  0.3673  0.0627  0.6408
 8056TIP3    H145583   2.507   5.022   4.221 -0.2267  0.7185  0.6847
 8056TIP3    H245584   2.472   4.881   4.264  1.0056  0.4189  0.7573
 8057TIP3   OH245585   5.308   6.167  16.548 -0.2144  0.3915  0.1426
 8057TIP3    H145586   5.221   6.198  16.573 -0.4986 -0.2096 -0.0807
 8057TIP3    H245587   5.333   6.106  16.618 -0.1483  0.2563  0.0013
 8058TIP3   OH245588   1.072   3.888  12.351  0.4971  0.9961  0.1009
 8058TIP3    H145589   1.066   3.933  12.266 -0.6827  2.0186  0.6906
 8058TIP3    H245590   0.984   3.892  12.387  0.6448 -0.7393  0.7516
 8059TIP3   OH245591   1.515   3.210   1.715  0.2322 -0.4364 -0.0089
 8059TIP3    H145592   1.502   3.118   1.739  1.0312 -0.9561 -1.4543
 8059TIP3    H245593   1.579   3.207   1.644 -0.6209  1.1531 -0.8840
 8060TIP3   OH245594   5.997   2.795   6.263  0.4419  0.0823  0.1064
 8060TIP3    H145595   5.967   2.753   6.183  1.7352  0.1373 -0.4328
 8060TIP3    H245596   5.948   2.752   6.333 -1.4723  0.7325 -0.7585
 8061TIP3   OH245597   0.873   6.397  13.907  0.3549  0.1423 -0.4531
 8061TIP3    H145598   0.939   6.457  13.941 -0.5100  1.4746 -1.0196
 8061TIP3    H245599   0.916   6.312  13.905  1.5360  0.6827  0.6478
 8062TIP3   OH245600   1.089   5.392  15.624 -0.5932  0.1823 -0.2064
 8062TIP3    H145601   1.038   5.311  15.622 -0.2634 -0.1182  1.7194
 8062TIP3    H245602   1.031   5.456  15.665  0.0730  0.1889  0.7577
 8063TIP3   OH245603   0.665   4.720  15.496 -0.5275 -0.1289  0.2475
 8063TIP3    H145604   0.694   4.706  15.586 -0.2598  2.1338  0.5714
 8063TIP3    H245605   0.580   4.764  15.505 -0.7044 -0.2806 -0.6093
 8064TIP3   OH245606   4.887   3.966  13.187 -0.1986  0.1277 -0.3412
 8064TIP3    H145607   4.894   3.881  13.228 -0.0115  0.0414 -0.5468
 8064TIP3    H245608   4.822   3.954  13.117 -1.3976  0.5711  0.6666
 8065TIP3   OH245609   6.289   4.141   0.915 -0.6767 -0.1696  0.3105
 8065TIP3    H145610   6.230   4.161   0.843 -0.2398  1.2324  0.3107
 8065TIP3    H245611   6.273   4.210   0.979 -0.6439 -1.0672  1.3213
 8066TIP3   OH245612   1.106   1.090   1.265  0.8456 -0.5414  0.4185
 8066TIP3    H145613   1.067   1.144   1.333  1.6333 -0.3144  0.7004
 8066TIP3    H245614   1.152   1.152   1.208 -0.2312 -0.6690 -0.6273
 8067TIP3   OH245615   2.658   6.233  14.844  0.0122 -0.0932 -0.2678
 8067TIP3    H145616   2.649   6.320  14.805  1.3579  0.1988  0.0091
 8067TIP3    H245617   2.613   6.239  14.928  2.0723  1.1183  0.8420
 8068TIP3   OH245618   5.351   2.950  15.093  0.1412  0.5017  0.5628
 8068TIP3    H145619   5.289   3.023  15.090  0.7319  0.9690 -1.4489
 8068TIP3    H245620   5.327   2.901  15.172 -1.8240  1.4967  0.6274
 8069TIP3   OH245621   6.283   4.745   4.488  0.4160  0.2964 -0.0802
 8069TIP3    H145622   6.329   4.665   4.513 -2.1326 -1.2544 -0.0196
 8069TIP3    H245623   6.255   4.729   4.397 -0.0755  1.1292 -0.0833
 8070TIP3   OH245624   4.512   2.463   4.503  0.3002 -0.0658 -0.2686
 8070TIP3    H145625   4.533   2.523   4.575 -1.4209 -0.0745  0.2821
 8070TIP3    H245626   4.592   2.461   4.450  0.8924  1.5949  0.4730
 8071TIP3   OH245627   2.603   0.976   1.906 -1.0677 -0.0426  0.9583
 8071TIP3    H145628   2.544   1.040   1.865 -0.8212 -0.7831 -0.6331
 8071TIP3    H245629   2.603   0.902   1.846  0.7818 -0.4284  1.3688
 8072TIP3   OH245630   0.708   4.487   1.947 -0.3417 -0.1366 -0.0179
 8072TIP3    H145631   0.682   4.407   1.993 -2.6262 -0.3399 -1.4769
 8072TIP3    H245632   0.803   4.483   1.944 -0.2891 -1.7321  1.7604
 8073TIP3   OH245633   5.519   6.211   3.686  0.0002  0.1552 -0.0039
 8073TIP3    H145634   5.458   6.225   3.614 -0.4192 -1.8586 -0.0866
 8073TIP3    H245635   5.599   6.256   3.658 -0.1566 -0.5649 -1.7475
 8074TIP3   OH245636   5.571   1.130  13.635  0.2660  0.0456 -0.3393
 8074TIP3    H145637   5.528   1.050  13.665 -1.4666  0.4639 -1.5419
 8074TIP3    H245638   5.557   1.130  13.540  0.9694  1.3674 -0.4618
 8075TIP3   OH245639   4.790   4.097   2.354 -0.2954  0.5848 -0.4422
 8075TIP3    H145640   4.747   4.017   2.386 -2.4806  1.6009 -0.6774
 8075TIP3    H245641   4.793   4.155   2.430  1.8291  0.1318 -0.1145
 8076TIP3   OH245642   4.949   4.756   3.558  0.1548 -0.4105  0.0221
 8076TIP3    H145643   4.899   4.710   3.491  1.1636 -0.2509 -0.8663
 8076TIP3    H245644   4.996   4.824   3.510  0.3905  0.1379  1.0001
 8077TIP3   OH245645   5.842   3.484   1.558  0.2635 -1.1453 -0.4909
 8077TIP3    H145646   5.838   3.520   1.470  0.4953 -1.6039 -0.6920
 8077TIP3    H245647   5.928   3.444   1.564  0.4921 -0.5942  0.1544
 8078TIP3   OH245648   3.261   2.276   5.651  0.0934 -0.0723 -0.3316
 8078TIP3    H145649   3.245   2.291   5.558  1.9417  0.3710 -0.6109
 8078TIP3    H245650   3.293   2.186   5.656  0.1323 -0.0490 -0.1439
 8079TIP3   OH245651   5.074   6.212   0.309 -0.1864 -0.2932  0.6849
 8079TIP3    H145652   5.040   6.124   0.324  0.1439 -0.2948  1.4339
 8079TIP3    H245653   5.016   6.269   0.357  1.0112 -0.3220  2.2502
 8080TIP3   OH245654   4.827   2.806  11.593  0.2200 -0.3291 -0.2287
 8080TIP3    H145655   4.758   2.747  11.623  0.1690  0.4200  1.1941
 8080TIP3    H245656   4.873   2.756  11.525  0.4755 -2.1886  1.2236
 8081TIP3   OH245657   4.241   4.565   5.647  0.2097  0.3047  0.5923
 8081TIP3    H145658   4.175   4.534   5.585  0.6346  0.2760  0.1553
 8081TIP3    H245659   4.212   4.530   5.732  0.2984 -0.6994  0.2245
 8082TIP3   OH245660   1.780   2.736   2.118  0.0570  0.1942  0.1130
 8082TIP3    H145661   1.834   2.807   2.083 -1.3225  1.2448 -0.0049
 8082TIP3    H245662   1.839   2.661   2.125  1.4833  1.2621 -0.0790
 8083TIP3   OH245663   4.696   2.100  12.201 -0.6239 -0.3520  0.3252
 8083TIP3    H145664   4.724   2.071  12.287 -0.2305 -0.5156  0.1465
 8083TIP3    H245665   4.606   2.069  12.193 -0.4177 -0.9805  0.3896
 8084TIP3   OH245666   4.911   3.979   0.690 -0.4641 -0.3326  0.0384
 8084TIP3    H145667   4.967   3.984   0.768 -1.8315 -1.0088  1.0991
 8084TIP3    H245668   4.877   3.890   0.690 -0.7876 -0.2315 -1.1395
 8085TIP3   OH245669   0.753   5.567  13.685  0.5901 -0.5278  0.3343
 8085TIP3    H145670   0.777   5.575  13.777 -1.6763  1.7241  0.8438
 8085TIP3    H245671   0.715   5.652  13.662 -0.0625 -1.4246 -2.3347
 8086TIP3   OH245672   5.799   1.438   0.727  0.2786  0.3663  0.1040
 8086TIP3    H145673   5.785   1.405   0.638 -1.1409  0.9554  0.0781
 8086TIP3    H245674   5.890   1.465   0.729  0.1781  0.8617 -1.3578
 8087TIP3   OH245675   6.381   4.560   5.172 -0.0160 -0.6926 -0.5903
 8087TIP3    H145676   6.379   4.648   5.133  1.5530 -0.9651 -1.3705
 8087TIP3    H245677   6.349   4.573   5.261  1.3577  0.9356 -0.2640
 8088TIP3   OH245678   6.165   1.769  10.974  0.4754 -0.0112 -0.2511
 8088TIP3    H145679   6.256   1.740  10.984  0.1439 -2.1109 -2.3700
 8088TIP3    H245680   6.118   1.725  11.045  0.9362  0.1916  0.1876
 8089TIP3   OH245681   1.991   5.195  14.104  0.2590  0.1217 -0.0003
 8089TIP3    H145682   2.037   5.129  14.156 -0.0781 -0.7575 -0.7978
 8089TIP3    H245683   1.930   5.235  14.167  0.3239 -0.4623  0.4517
 8090TIP3   OH245684   5.096   2.380  14.996 -0.3456  0.2092  0.2137
 8090TIP3    H145685   5.053   2.463  15.018  0.3877  0.9395 -0.9462
 8090TIP3    H245686   5.189   2.402  14.992 -0.2656 -0.3071 -1.5496
 8091TIP3   OH245687   2.583   4.577  13.494  0.5982 -0.1534  0.0480
 8091TIP3    H145688   2.489   4.585  13.482  0.3859  1.3299  2.1340
 8091TIP3    H245689   2.600   4.483  13.494 -1.1423 -0.5126  1.1820
 8092TIP3   OH245690   3.400   6.346  16.673 -0.2188  0.0797  0.2786
 8092TIP3    H145691   3.361   6.262  16.649  0.2251  0.2962 -1.2736
 8092TIP3    H245692   3.345   6.378  16.745 -2.7009  0.1714 -1.5380
 8093TIP3   OH245693   5.594   3.536   3.344 -0.4491 -0.7293 -0.2673
 8093TIP3    H145694   5.636   3.575   3.267 -1.6735 -1.8739 -1.5600
 8093TIP3    H245695   5.647   3.458   3.363 -0.5531 -0.8228 -0.3648
 8094TIP3   OH245696   4.276   0.835  10.997 -0.2817 -0.1321 -0.4459
 8094TIP3    H145697   4.289   0.743  11.022 -0.4844 -0.0205  0.0633
 8094TIP3    H245698   4.355   0.880  11.028 -0.1644 -0.1343 -0.7305
 8095TIP3   OH245699   2.385   3.687   3.212  0.1940  0.6078  1.2413
 8095TIP3    H145700   2.418   3.771   3.180 -1.7650  1.1495  0.4971
 8095TIP3    H245701   2.463   3.633   3.222  1.3779  2.1091  0.5231
 8096TIP3   OH245702   3.833   4.636  14.984 -0.1015  0.5523  0.3098
 8096TIP3    H145703   3.766   4.586  14.939  0.2399  0.2854  0.0891
 8096TIP3    H245704   3.877   4.573  15.041 -0.2286  0.7882  0.6712
 8097TIP3   OH245705   1.697   3.012   0.821 -0.4791  0.0491  0.5521
 8097TIP3    H145706   1.717   3.076   0.753  0.8834  0.6915  1.5185
 8097TIP3    H245707   1.643   2.946   0.777  0.1971  0.5492 -1.0848
 8098TIP3   OH245708   1.358   0.378   6.404 -0.2418  0.0467 -0.3978
 8098TIP3    H145709   1.298   0.305   6.389 -0.5338  0.2902 -0.4391
 8098TIP3    H245710   1.416   0.347   6.473 -0.4921 -0.1520 -0.2711
 8099TIP3   OH245711   0.596   3.721  17.240  0.0794  0.6145 -0.0384
 8099TIP3    H145712   0.639   3.800  17.274 -2.0891  1.4254  1.0881
 8099TIP3    H245713   0.569   3.673  17.318 -1.2147  0.2870 -0.6509
 8100TIP3   OH245714   6.640   3.901  11.150  0.4005  0.2085  0.3266
 8100TIP3    H145715   6.583   3.876  11.077  0.9546 -1.3116  0.3860
 8100TIP3    H245716   6.711   3.950  11.110 -0.9514  2.2632  0.2634
 8101TIP3   OH245717   1.304   5.332   4.159  0.3028  0.0719 -0.0536
 8101TIP3    H145718   1.378   5.274   4.173  1.4104  1.3661 -0.3112
 8101TIP3    H245719   1.332   5.416   4.196 -0.8880  0.6848 -0.4877
 8102TIP3   OH245720   2.361   5.077   1.283 -0.3948  0.4943  0.1674
 8102TIP3    H145721   2.301   5.066   1.209 -0.1143  1.1991 -0.1761
 8102TIP3    H245722   2.323   5.149   1.334 -0.8449 -0.3012  0.9827
 8103TIP3   OH245723   2.510   4.139  11.425  0.0094 -0.2249  0.4277
 8103TIP3    H145724   2.515   4.181  11.339 -0.4716 -1.5040 -0.2619
 8103TIP3    H245725   2.439   4.185  11.470 -0.7161 -0.4709 -0.4236
 8104TIP3   OH245726   2.178   5.666   3.896  0.6092  0.0353 -0.3761
 8104TIP3    H145727   2.192   5.753   3.860 -0.3402  0.8977  1.2195
 8104TIP3    H245728   2.217   5.607   3.831 -0.3095  1.5076 -2.3881
 8105TIP3   OH245729   6.122   3.228   3.767 -0.1586 -0.2810 -0.0820
 8105TIP3    H145730   6.049   3.166   3.769 -0.3004 -0.1711 -1.2821
 8105TIP3    H245731   6.088   3.307   3.808 -0.5663 -0.3715 -0.2446
 8106TIP3   OH245732   4.510   2.373  15.329 -0.7390  0.0351 -0.3110
 8106TIP3    H145733   4.467   2.303  15.280 -1.7298  1.7223 -1.9732
 8106TIP3    H245734   4.599   2.341  15.344 -0.6659 -0.9173 -2.4825
 8107TIP3   OH245735   1.732   2.847   3.162  0.0250  0.0527 -0.3464
 8107TIP3    H145736   1.736   2.844   3.258  0.8718 -1.5860 -0.4003
 8107TIP3    H245737   1.647   2.809   3.140  0.2344 -0.4779 -0.2578
 8108TIP3   OH245738   0.573   5.884  15.165 -0.1845 -0.0314 -0.6879
 8108TIP3    H145739   0.519   5.865  15.089 -0.7866 -0.9495 -0.0447
 8108TIP3    H245740   0.642   5.818  15.163  2.0209  2.0985 -2.4464
 8109TIP3   OH245741   3.764   2.355   2.748 -0.0530  0.5227  0.0406
 8109TIP3    H145742   3.716   2.382   2.669 -2.7053  0.0614  1.3536
 8109TIP3    H245743   3.777   2.261   2.736  0.0944  0.5618 -0.1114
 8110TIP3   OH245744   3.193   5.049  10.788 -0.1810  0.0536  0.0298
 8110TIP3    H145745   3.109   5.064  10.830  0.3070  0.0450  1.0218
 8110TIP3    H245746   3.181   5.083  10.699 -0.8658  1.1287  0.5148
 8111TIP3   OH245747   0.992   2.404  17.176 -0.2642 -0.2547 -0.3385
 8111TIP3    H145748   0.925   2.417  17.108 -0.7450 -2.4253 -0.3445
 8111TIP3    H245749   1.068   2.453  17.144 -1.5351  1.5409 -0.7663
 8112TIP3   OH245750   4.108   2.066   4.381 -1.0405  0.0629 -0.1007
 8112TIP3    H145751   4.092   2.145   4.433 -0.9229  1.2049 -1.7326
 8112TIP3    H245752   4.028   2.053   4.330 -0.0741  0.7985 -1.9025
 8113TIP3   OH245753   6.696   0.532  10.715  0.0340  0.3810  0.2537
 8113TIP3    H145754   6.725   0.442  10.732  0.4607  0.3184 -0.7449
 8113TIP3    H245755   6.777   0.582  10.704 -0.2013  0.9133  0.8773
 8114TIP3   OH245756   3.372   0.573   2.255 -0.1436  0.6198  0.3358
 8114TIP3    H145757   3.307   0.575   2.325 -0.5390 -0.6090  0.0110
 8114TIP3    H245758   3.345   0.643   2.195 -0.7922  0.5347  0.5232
 8115TIP3   OH245759   6.494   0.020   5.948 -0.0842  0.4288  0.0820
 8115TIP3    H145760   6.516  -0.072   5.966 -0.2959  0.2913 -0.3535
 8115TIP3    H245761   6.539   0.069   6.017  2.5626  0.2673 -1.4012
 8116TIP3   OH245762   2.128   0.102  14.473  0.3100  0.3553 -0.0593
 8116TIP3    H145763   2.133   0.153  14.392 -0.3778  0.3441 -0.1144
 8116TIP3    H245764   2.199   0.038  14.465  0.8971  1.0085 -0.1882
 8117TIP3   OH245765   2.604   2.317   2.495 -0.3016  0.4521  0.1524
 8117TIP3    H145766   2.666   2.335   2.424 -1.4087  1.3071 -0.6435
 8117TIP3    H245767   2.550   2.245   2.462  0.7733 -0.8845  1.1970
 8118TIP3   OH245768   3.239   3.056  11.915  0.1752  0.3180 -0.2620
 8118TIP3    H145769   3.233   2.990  11.984  0.6138  0.3524 -0.1833
 8118TIP3    H245770   3.211   3.012  11.835 -0.3989  0.2960 -0.0503
 8119TIP3   OH245771   0.283   6.669   4.004  0.2018  0.2582  0.1153
 8119TIP3    H145772   0.263   6.746   3.950 -0.1614 -2.0140 -3.2936
 8119TIP3    H245773   0.205   6.613   3.995 -0.0005 -0.1817  3.3862
 8120TIP3   OH245774   2.585   4.743  16.798 -0.0069  0.2146 -0.2373
 8120TIP3    H145775   2.561   4.829  16.763  0.2155  0.3145 -0.1433
 8120TIP3    H245776   2.631   4.700  16.726 -0.0004  0.2247 -0.2388
 8121TIP3   OH245777   4.419   1.325  16.792 -0.1094  0.0522 -0.6750
 8121TIP3    H145778   4.472   1.309  16.870 -1.1359 -1.4608 -0.2435
 8121TIP3    H245779   4.468   1.285  16.720 -1.0280 -2.2175 -0.1288
 8122TIP3   OH245780   5.119   5.182   3.809  0.0742  0.3221 -0.6156
 8122TIP3    H145781   5.174   5.113   3.772 -0.5549  0.3468 -1.6252
 8122TIP3    H245782   5.034   5.171   3.765 -0.1829  1.4260 -0.4230
 8123TIP3   OH245783   1.651   2.651   2.768 -0.1275  0.7137  0.3824
 8123TIP3    H145784   1.594   2.663   2.691 -0.3231 -1.5232  0.1041
 8123TIP3    H245785   1.719   2.718   2.758  0.2847  0.0384 -2.1707
 8124TIP3   OH245786   2.928   6.178   2.337 -0.7188 -0.2724 -0.0907
 8124TIP3    H145787   2.876   6.205   2.413 -1.3640 -0.4189 -0.4765
 8124TIP3    H245788   3.001   6.240   2.336 -0.8046 -0.1462  0.5348
 8125TIP3   OH245789   0.905   0.934   3.698 -0.0509  0.0843 -0.1765
 8125TIP3    H145790   0.983   0.951   3.646  1.0480 -1.4712  0.8829
 8125TIP3    H245791   0.862   1.019   3.705  0.9498  0.7580 -1.7058
 8126TIP3   OH245792   0.722   0.383   3.985 -0.4101  0.6922  0.4855
 8126TIP3    H145793   0.755   0.468   4.015  0.8688  0.0827  0.8644
 8126TIP3    H245794   0.748   0.378   3.893 -0.8714  0.8824  0.3396
 8127TIP3   OH245795   3.790   6.325  13.395  0.5384 -0.2488 -0.1028
 8127TIP3    H145796   3.828   6.406  13.361  0.7047  0.0070  0.6614
 8127TIP3    H245797   3.731   6.295  13.326 -0.7482  1.3808  0.2209
 8128TIP3   OH245798   1.046   5.386   4.285 -0.3419  0.3785 -0.4149
 8128TIP3    H145799   0.990   5.315   4.254 -0.2314 -0.5510  1.3693
 8128TIP3    H245800   1.134   5.359   4.262 -0.3395  0.1444 -0.1399
 8129TIP3   OH245801   6.370   4.183   5.508 -0.0411 -0.0401 -0.0044
 8129TIP3    H145802   6.454   4.228   5.512 -0.9998  1.9930 -1.4016
 8129TIP3    H245803   6.385   4.111   5.447  0.6750  0.3284 -0.2757
 8130TIP3   OH245804   3.432   4.166   1.924 -0.2530  0.5247  0.2956
 8130TIP3    H145805   3.441   4.097   1.857 -0.1872 -0.4580  1.2921
 8130TIP3    H245806   3.482   4.133   1.998  0.5188  2.0763  0.4904
 8131TIP3   OH245807   2.455   0.346   0.450  0.9517  0.1602  0.0632
 8131TIP3    H145808   2.398   0.381   0.519 -0.3166  0.2311 -0.9793
 8131TIP3    H245809   2.469   0.420   0.391 -0.1371 -0.5385 -1.1237
 8132TIP3   OH245810   5.385   1.660  11.404  0.0463  0.8947  0.5522
 8132TIP3    H145811   5.376   1.736  11.462 -2.0349 -0.1116  1.6695
 8132TIP3    H245812   5.375   1.584  11.462 -0.7916 -0.1688 -0.9096
 8133TIP3   OH245813   4.975   3.259  12.524  0.3759 -0.3803  0.7522
 8133TIP3    H145814   4.893   3.227  12.486  0.2752  1.8581 -1.1717
 8133TIP3    H245815   5.033   3.183  12.525 -1.0636 -1.5312  0.2128
 8134TIP3   OH245816   4.730   0.092   2.732  0.2265 -0.5257 -0.1756
 8134TIP3    H145817   4.705   0.004   2.761 -0.1361 -0.0224  1.0827
 8134TIP3    H245818   4.700   0.096   2.641  0.5490 -1.8130 -0.3565
 8135TIP3   OH245819   5.916   4.359  14.374 -0.0475  0.4857  0.3311
 8135TIP3    H145820   5.876   4.412  14.442  1.7352  2.2435  0.1097
 8135TIP3    H245821   5.859   4.370  14.298  0.5243  2.6066  0.1300
 8136TIP3   OH245822   1.573   6.240   0.828 -0.1885  0.4896  0.0388
 8136TIP3    H145823   1.658   6.280   0.842 -0.5377  1.2396  0.0421
 8136TIP3    H245824   1.520   6.308   0.788 -1.4874  0.8275  2.1817
 8137TIP3   OH245825   2.553   2.237   1.931  0.1910 -0.1306  0.0364
 8137TIP3    H145826   2.499   2.180   1.876  3.2566 -1.1553 -2.2180
 8137TIP3    H245827   2.554   2.321   1.886 -1.4428  0.6741  1.4262
 8138TIP3   OH245828   2.605   1.477   2.476  0.4125 -0.0300  0.4075
 8138TIP3    H145829   2.543   1.415   2.439 -0.8830  0.5435  1.5188
 8138TIP3    H245830   2.668   1.423   2.523 -0.9676 -0.5533  1.7571
 8139TIP3   OH245831   0.419   1.903   5.876 -0.0904 -0.3038 -0.3730
 8139TIP3    H145832   0.432   1.866   5.963  1.1574 -1.3400 -0.9613
 8139TIP3    H245833   0.470   1.984   5.876 -2.0498  1.0053  0.6048
 8140TIP3   OH245834   2.327   3.185  13.784 -0.3912 -0.4424  0.5627
 8140TIP3    H145835   2.305   3.270  13.747  0.6281 -0.1957  0.4988
 8140TIP3    H245836   2.345   3.203  13.876 -1.1224 -0.7540  0.7721
 8141TIP3   OH245837   2.196   4.126   1.151 -0.5977 -0.2091  0.1162
 8141TIP3    H145838   2.255   4.201   1.158 -0.8149 -0.0166 -0.0962
 8141TIP3    H245839   2.231   4.075   1.078 -0.1100 -0.6250  0.6287
 8142TIP3   OH245840   0.402   5.542   5.418 -0.3783 -0.2111 -0.4120
 8142TIP3    H145841   0.376   5.463   5.371  0.1418 -1.2442  0.9729
 8142TIP3    H245842   0.360   5.535   5.503 -0.8619  1.3537 -0.4875
 8143TIP3   OH245843   1.797   0.797  16.643 -0.7980  0.8155  0.2109
 8143TIP3    H145844   1.877   0.825  16.599 -0.9698  0.0964 -0.5900
 8143TIP3    H245845   1.727   0.843  16.598 -1.0168 -0.2883 -0.6400
 8144TIP3   OH245846   0.271   3.808  13.491  0.1060 -0.1335  0.4440
 8144TIP3    H145847   0.316   3.848  13.416 -0.9581 -0.6697 -0.5111
 8144TIP3    H245848   0.329   3.738  13.520  1.3881  1.2348  1.3175
 8145TIP3   OH245849   6.585   1.503   6.512  0.1371  0.1280  0.0014
 8145TIP3    H145850   6.667   1.476   6.472  0.9010 -1.4336  2.3918
 8145TIP3    H245851   6.532   1.423   6.514 -0.0416  0.2465  1.5661
 8146TIP3   OH245852   2.915   1.648   4.151  0.3743  0.9722  0.9085
 8146TIP3    H145853   2.962   1.581   4.102  0.1383  1.5295 -0.1045
 8146TIP3    H245854   2.973   1.724   4.152 -1.1948  2.3930 -2.1476
 8147TIP3   OH245855   6.543   4.999  13.472 -0.2538  0.0482  0.6062
 8147TIP3    H145856   6.547   4.938  13.398  0.3875  0.2699  0.4488
 8147TIP3    H245857   6.622   4.980  13.523 -0.1031  0.6609  0.6135
 8148TIP3   OH245858   6.540   6.155   5.775 -0.3682 -0.2236 -0.2351
 8148TIP3    H145859   6.549   6.092   5.847 -1.6808 -3.9516 -2.9788
 8148TIP3    H245860   6.450   6.186   5.781 -0.0855  0.4765  0.4424
 8149TIP3   OH245861   6.564   4.197  16.875  0.0173 -0.4719 -0.3236
 8149TIP3    H145862   6.499   4.252  16.918 -0.7715  0.1586 -2.2259
 8149TIP3    H245863   6.588   4.246  16.795  1.5131 -1.5160 -0.5633
 8150TIP3   OH245864   0.688   5.627   3.786  0.0428  0.1143  0.6249
 8150TIP3    H145865   0.624   5.678   3.836 -0.0075 -0.2973  0.9912
 8150TIP3    H245866   0.672   5.537   3.814 -0.0423 -0.1308 -0.2047
 8151TIP3   OH245867   4.546   5.183  13.143  0.0894 -0.0750  0.0633
 8151TIP3    H145868   4.634   5.220  13.149  0.8807 -1.6893 -0.8475
 8151TIP3    H245869   4.526   5.185  13.049 -1.7481  2.1423  0.4075
 8152TIP3   OH245870   0.276   5.909  14.433  0.2858  0.1294 -0.3310
 8152TIP3    H145871   0.288   5.986  14.488  0.9835 -0.1913 -0.0208
 8152TIP3    H245872   0.184   5.912  14.407  0.6872  2.0109 -1.7429
 8153TIP3   OH245873   1.704   0.620   1.508  0.2495  0.4380  0.5178
 8153TIP3    H145874   1.620   0.657   1.536 -0.2285 -1.4452  1.7066
 8153TIP3    H245875   1.763   0.696   1.503 -1.4038  1.7546 -0.0074
 8154TIP3   OH245876   1.436   3.278   2.186  0.3740 -0.2844  0.4883
 8154TIP3    H145877   1.506   3.264   2.122  0.0800 -0.9594  0.3055
 8154TIP3    H245878   1.455   3.363   2.225 -0.2890  0.8504 -1.5505
 8155TIP3   OH245879   1.333   4.052  15.904 -0.5493 -0.3048  0.3702
 8155TIP3    H145880   1.296   4.100  15.830  1.0191  0.5179  0.0858
 8155TIP3    H245881   1.424   4.037  15.881 -0.6883 -2.4246  0.9884
 8156TIP3   OH245882   2.673   5.099  14.193  0.1136 -0.2524 -0.0818
 8156TIP3    H145883   2.749   5.130  14.244  0.4491 -0.5885 -0.3781
 8156TIP3    H245884   2.602   5.158  14.219 -0.2164 -1.5547  2.2166
 8157TIP3   OH245885   6.439   6.551  16.861  0.1432  0.1211  0.7044
 8157TIP3    H145886   6.504   6.483  16.846 -0.0710 -0.9929  4.1103
 8157TIP3    H245887   6.488   6.633  16.857  1.0354 -0.4289 -0.1579
 8158TIP3   OH245888   0.186   1.778  13.702  0.5424 -0.7667  0.1452
 8158TIP3    H145889   0.235   1.744  13.776  0.7723 -0.4261  0.1501
 8158TIP3    H245890   0.249   1.782  13.630 -0.2167 -3.4859 -0.8359
 8159TIP3   OH245891   6.662   3.707  13.017  0.1638  0.0829 -0.4565
 8159TIP3    H145892   6.718   3.715  13.094  1.5726  0.4765 -1.4776
 8159TIP3    H245893   6.704   3.639  12.964  0.5857  1.4560 -1.9533
 8160TIP3   OH245894   3.825   3.433   3.844  0.7795  0.6043 -0.2738
 8160TIP3    H145895   3.796   3.432   3.752 -0.0795  1.3665 -0.0271
 8160TIP3    H245896   3.889   3.504   3.848 -0.1251  1.4301 -0.0305
 8161TIP3   OH245897   5.631   3.070   0.944 -0.3378  0.1267  0.1303
 8161TIP3    H145898   5.676   3.129   0.884 -2.6035 -0.2849 -2.1388
 8161TIP3    H245899   5.615   3.122   1.022  0.8984  1.3519 -0.4078
 8162TIP3   OH245900   2.115   5.594  14.623  0.1845 -0.1919 -0.0065
 8162TIP3    H145901   2.065   5.643  14.557 -0.0910 -0.4742 -0.0090
 8162TIP3    H245902   2.048   5.544  14.671  0.5914 -1.6004 -0.8582
 8163TIP3   OH245903   5.509   4.953  16.258  0.0072 -0.0479 -0.2154
 8163TIP3    H145904   5.558   4.875  16.234  0.4529 -0.6135  2.2808
 8163TIP3    H245905   5.536   4.972  16.348 -0.5004  2.6788 -0.5547
 8164TIP3   OH245906   0.293   0.739  16.408 -0.2207  0.2108  0.6860
 8164TIP3    H145907   0.330   0.664  16.363 -0.1142  1.1518 -0.8746
 8164TIP3    H245908   0.342   0.745  16.490 -0.1262 -1.3005  0.7624
 8165TIP3   OH245909   1.063   0.092   2.218 -0.2029 -0.1104  0.2698
 8165TIP3    H145910   1.020   0.124   2.298 -0.4953  1.1829 -0.3963
 8165TIP3    H245911   0.997   0.036   2.177 -0.0688 -0.7449  0.8899
 8166TIP3   OH245912   3.285   0.853   0.329 -0.5927  0.3848 -0.1811
 8166TIP3    H145913   3.281   0.855   0.425  1.3789  1.7857 -0.0844
 8166TIP3    H245914   3.376   0.833   0.309 -1.3240 -1.6701 -1.8200
 8167TIP3   OH245915   5.394   5.404   0.190  0.3559 -0.2502  0.2256
 8167TIP3    H145916   5.312   5.435   0.227  0.0512 -1.9724  1.1126
 8167TIP3    H245917   5.460   5.421   0.258  0.3244 -0.7939  0.4010
 8168TIP3   OH245918   4.023   3.814   2.596  0.3345  0.1702 -0.1899
 8168TIP3    H145919   4.058   3.765   2.522 -1.7697  0.6192 -1.5581
 8168TIP3    H245920   4.020   3.905   2.566 -0.0452  0.4422  0.6321
 8169TIP3   OH245921   6.027   4.928   1.555 -0.2935 -0.5009 -0.4946
 8169TIP3    H145922   5.979   4.992   1.501 -0.2719  0.4311  0.5602
 8169TIP3    H245923   6.029   4.967   1.642 -0.4534 -2.0575  0.2316
 8170TIP3   OH245924   4.500   1.581   0.288  0.3052 -0.2588 -0.4590
 8170TIP3    H145925   4.428   1.574   0.350  1.6228  2.7386  1.6860
 8170TIP3    H245926   4.461   1.619   0.210 -0.9013 -1.3778 -0.4265
 8171TIP3   OH245927   5.421   5.123   1.042 -0.3236  0.1706  0.6728
 8171TIP3    H145928   5.371   5.045   1.017  1.6131 -0.8781 -0.2044
 8171TIP3    H245929   5.445   5.107   1.133 -0.9548  0.3280  0.8690
 8172TIP3   OH245930   0.691   3.056  15.223  0.1595  0.5075 -0.4756
 8172TIP3    H145931   0.755   3.007  15.170 -0.4803 -1.0117  0.1245
 8172TIP3    H245932   0.719   3.043  15.313 -2.0740 -1.9062 -0.0223
 8173TIP3   OH245933   6.034   3.754  13.491  0.1521  0.0288  0.5379
 8173TIP3    H145934   6.120   3.712  13.497  0.1040 -0.5496 -1.8818
 8173TIP3    H245935   6.039   3.808  13.413 -2.3106 -1.6628 -0.9345
 8174TIP3   OH245936   5.970   2.224   6.235  0.4115 -0.6023  0.0037
 8174TIP3    H145937   5.875   2.213   6.230  0.5599 -1.6498 -0.6933
 8174TIP3    H245938   5.987   2.245   6.327 -0.4358 -0.9360  0.2430
 8175TIP3   OH245939   5.190   3.635  16.986  0.2704  0.3213 -0.0326
 8175TIP3    H145940   5.201   3.569  16.918  0.4810  1.0589 -0.7273
 8175TIP3    H245941   5.278   3.671  16.999  0.0675  0.8078 -0.0115
 8176TIP3   OH245942   1.070   6.568   2.688 -0.1533 -0.3390  0.4987
 8176TIP3    H145943   1.078   6.663   2.696  2.4357 -0.5272  0.9589
 8176TIP3    H245944   1.057   6.538   2.778  2.3748 -0.5952  0.8403
 8177TIP3   OH245945   1.584   6.549   3.053  0.2055 -0.0587  0.1793
 8177TIP3    H145946   1.533   6.592   3.121  0.1996 -0.9043  0.7194
 8177TIP3    H245947   1.620   6.621   3.001  0.7351  0.6284  1.4429
 8178TIP3   OH245948   4.911   0.688   6.221 -0.3611  1.1092  0.8345
 8178TIP3    H145949   4.918   0.734   6.304  0.2133 -0.8854  1.9694
 8178TIP3    H245950   4.855   0.613   6.240  1.6835 -0.7117  0.1049
 8179TIP3   OH245951   6.709   0.672   4.378 -0.0201 -0.1553  0.5182
 8179TIP3    H145952   6.716   0.591   4.327  0.5359  0.2350 -0.0473
 8179TIP3    H245953   6.616   0.693   4.378 -0.1621 -0.7645  0.6265
 8180TIP3   OH245954   2.634   0.599  12.672  0.5985  0.6143  0.0360
 8180TIP3    H145955   2.551   0.622  12.630  0.9205  1.9032  0.0612
 8180TIP3    H245956   2.699   0.602  12.601  0.7458  0.3639  0.1581
 8181TIP3   OH245957   5.548   6.258  12.826 -0.7615  0.0116  0.0905
 8181TIP3    H145958   5.566   6.314  12.901  0.4817 -1.8078  1.2355
 8181TIP3    H245959   5.478   6.303  12.778 -1.1544  1.5432  1.9895
 8182TIP3   OH245960   3.644   2.497  11.716  0.8157 -0.0755 -0.3769
 8182TIP3    H145961   3.557   2.505  11.677 -0.1378 -0.7692  1.4910
 8182TIP3    H245962   3.671   2.407  11.696  0.7601 -0.1124 -0.2856
 8183TIP3   OH245963   1.794   5.319  15.641 -0.2439  0.3548 -0.4636
 8183TIP3    H145964   1.709   5.314  15.685 -0.6135  1.5068 -0.9964
 8183TIP3    H245965   1.818   5.412  15.646 -0.1109  0.4543 -2.3144
 8184TIP3   OH245966   6.360   1.693   1.512 -0.3043  0.9414  0.8537
 8184TIP3    H145967   6.293   1.761   1.511 -1.4954 -0.1228 -1.8263
 8184TIP3    H245968   6.318   1.618   1.554  0.3525  1.2354  2.0740
 8185TIP3   OH245969   3.006   0.686  15.245  0.3777  0.2329  0.4820
 8185TIP3    H145970   2.916   0.705  15.273  0.4768  1.7825 -0.1691
 8185TIP3    H245971   3.015   0.591  15.256 -1.2888  0.0699  0.6752
 8186TIP3   OH245972   5.649   0.778  15.513 -0.6152 -0.3439 -0.0474
 8186TIP3    H145973   5.632   0.826  15.432 -1.1407  0.0734  0.2989
 8186TIP3    H245974   5.714   0.832  15.559 -0.3458 -0.5607 -0.1739
 8187TIP3   OH245975   2.755   5.820   5.858  0.0310 -0.1645 -0.1693
 8187TIP3    H145976   2.791   5.873   5.786 -0.4868 -0.6034 -0.7567
 8187TIP3    H245977   2.707   5.750   5.815 -0.2314 -0.4765  0.6114
 8188TIP3   OH245978   4.129   0.869   0.606 -0.1531 -0.0177  0.1213
 8188TIP3    H145979   4.209   0.850   0.657  0.3660 -1.7889 -1.2599
 8188TIP3    H245980   4.061   0.878   0.672  1.1220  1.3987  1.3409
 8189TIP3   OH245981   5.459   3.943  12.882 -0.4323 -0.5043  0.6127
 8189TIP3    H145982   5.541   3.979  12.914 -0.3604 -1.7968  2.0141
 8189TIP3    H245983   5.484   3.884  12.811 -0.5355  1.9020 -1.5486
 8190TIP3   OH245984   0.299   6.187   0.125 -0.1182 -0.2962  0.4863
 8190TIP3    H145985   0.264   6.099   0.138 -0.5365  0.1303  2.4567
 8190TIP3    H245986   0.225   6.246   0.139  0.2936  0.4144 -0.1772
 8191TIP3   OH245987   5.710   4.595  12.391 -0.6462  0.5336 -0.1872
 8191TIP3    H145988   5.791   4.647  12.394  0.3606 -0.9805  0.0254
 8191TIP3    H245989   5.679   4.594  12.481  0.1886 -0.4932  0.1059
 8192TIP3   OH245990   0.897   3.272   4.246  0.0675  0.1644  0.0665
 8192TIP3    H145991   0.835   3.272   4.319  0.4787  0.0425  0.4164
 8192TIP3    H245992   0.846   3.305   4.172 -0.3544  0.2774  0.4017
 8193TIP3   OH245993   2.740   1.131  14.284  0.1098 -0.2299 -0.0938
 8193TIP3    H145994   2.775   1.220  14.283 -2.8271  1.0176 -0.6842
 8193TIP3    H245995   2.718   1.113  14.192  0.5954 -1.5626  0.0294
 8194TIP3   OH245996   1.653   1.335   4.895  0.4854  0.7044 -0.0059
 8194TIP3    H145997   1.573   1.298   4.933  1.0052  0.1983  0.6083
 8194TIP3    H245998   1.718   1.265   4.902  0.5129  0.4370 -2.1959
 8195TIP3   OH245999   1.870   0.093   3.092  0.2620  0.0816  0.2704
 8195TIP3    H146000   1.929   0.048   3.031 -0.1329 -2.9016  1.8988
 8195TIP3    H246001   1.784   0.084   3.053 -0.2717 -3.4224  1.8495
 8196TIP3   OH246002   0.568   1.134   1.983  0.2100 -0.4332 -0.0012
 8196TIP3    H146003   0.498   1.075   1.957  0.6537 -1.2619  0.6517
 8196TIP3    H246004   0.641   1.077   2.007  1.2617  0.4158 -1.0332
 8197TIP3   OH246005   4.004   0.960  11.336  0.2283  0.5612 -0.3510
 8197TIP3    H146006   4.012   0.884  11.393 -1.7341  1.0455  0.6650
 8197TIP3    H246007   4.004   0.923  11.247  0.6006 -0.4772  0.0670
 8198TIP3   OH246008   3.814   0.377   3.167 -0.1624  0.2053 -0.3167
 8198TIP3    H146009   3.800   0.308   3.232  1.4556 -0.3267 -0.4874
 8198TIP3    H246010   3.908   0.394   3.170 -0.2400  1.0364 -1.6683
 8199TIP3   OH246011   3.186   0.397   2.448  0.5403 -0.3766 -0.2995
 8199TIP3    H146012   3.241   0.328   2.485  0.0281 -0.8082 -0.3212
 8199TIP3    H246013   3.107   0.396   2.502  0.2424 -0.2788 -0.7274
 8200TIP3   OH246014   0.606   2.548   1.594 -0.3390  0.2371  0.1927
 8200TIP3    H146015   0.640   2.636   1.608  1.5471 -0.7047  2.1847
 8200TIP3    H246016   0.644   2.520   1.511 -1.8307  1.6559 -0.9957
 8201TIP3   OH246017   1.668   4.938  16.384  0.5902 -0.1696 -0.3350
 8201TIP3    H146018   1.643   4.848  16.364 -0.6673  0.5085 -2.0555
 8201TIP3    H246019   1.589   4.989  16.365  0.2347  1.0279  3.4673
 8202TIP3   OH246020   0.079   3.738   3.493 -1.3996  0.8650  0.4158
 8202TIP3    H146021   0.171   3.746   3.517 -0.8405 -0.4225 -1.1613
 8202TIP3    H246022   0.055   3.824   3.459 -0.1628  0.6479 -1.1066
 8203TIP3   OH246023   3.482   2.283  13.308  0.1663 -0.0349  0.2337
 8203TIP3    H146024   3.477   2.350  13.377  1.3460  1.4314 -1.0219
 8203TIP3    H246025   3.413   2.308  13.246 -0.6388 -1.1191  0.6679
 8204TIP3   OH246026   4.525   4.488  11.653 -0.3772  0.1526 -0.0878
 8204TIP3    H146027   4.470   4.410  11.665 -1.3528  0.6087 -1.3775
 8204TIP3    H246028   4.614   4.458  11.673 -0.9729 -0.8038  1.2836
 8205TIP3   OH246029   0.306   2.016   3.973 -0.4957 -0.6702 -0.4446
 8205TIP3    H146030   0.263   1.930   3.980  0.8533 -1.3799 -0.5677
 8205TIP3    H246031   0.381   2.001   3.915  0.7471  0.1862  0.8749
 8206TIP3   OH246032   1.812   0.435  14.954  0.4880 -0.3144 -0.0310
 8206TIP3    H146033   1.867   0.375  14.903  0.0931  0.8429 -1.9433
 8206TIP3    H246034   1.809   0.515  14.901 -0.6581  0.6750  1.4472
 8207TIP3   OH246035   3.157   5.463  13.908 -0.0151  0.2655  0.2854
 8207TIP3    H146036   3.095   5.501  13.970 -1.4384  1.6323 -1.8133
 8207TIP3    H246037   3.106   5.395  13.863 -0.0831  1.4704 -1.5431
 8208TIP3   OH246038   6.026   3.146  15.428  0.2628 -0.3576  0.0716
 8208TIP3    H146039   5.978   3.065  15.409  0.6188 -0.0781 -2.3584
 8208TIP3    H246040   5.989   3.177  15.510 -1.2653 -1.9452  0.0474
 8209TIP3   OH246041   4.735   5.166   0.229 -0.0969 -0.1524  0.5059
 8209TIP3    H146042   4.690   5.244   0.197 -1.4750 -1.4881 -0.9747
 8209TIP3    H246043   4.807   5.153   0.167  1.3826  1.0114  1.8956
 8210TIP3   OH246044   2.576   6.635  15.285  0.3455 -0.1445  0.1546
 8210TIP3    H146045   2.537   6.549  15.300  0.5557 -0.1921  0.4342
 8210TIP3    H246046   2.517   6.678  15.223  1.2627 -1.2195 -1.5600
 8211TIP3   OH246047   1.434   0.320   4.033 -0.3463 -0.6638 -0.3985
 8211TIP3    H146048   1.520   0.288   4.060 -0.0555 -1.8878 -2.5355
 8211TIP3    H246049   1.451   0.369   3.953 -1.5350 -0.0937 -0.3173
 8212TIP3   OH246050   0.213   1.329   0.660 -0.4203  0.1691  0.0269
 8212TIP3    H146051   0.211   1.294   0.749  1.0222 -1.1970 -0.4449
 8212TIP3    H246052   0.190   1.255   0.604  0.0573  0.6500 -0.8293
 8213TIP3   OH246053   6.660   3.219   1.423  0.2355  0.5438 -0.1462
 8213TIP3    H146054   6.719   3.196   1.351 -0.7678  0.2771 -0.9014
 8213TIP3    H246055   6.643   3.313   1.410 -1.0303  0.2046 -1.0943
 8214TIP3   OH246056   1.828   6.191   5.497  0.0009  0.2885 -0.2971
 8214TIP3    H146057   1.881   6.153   5.427  1.6104 -0.2013  1.1079
 8214TIP3    H246058   1.875   6.271   5.523 -1.3531  1.2677 -0.7100
 8215TIP3   OH246059   2.784   0.650   4.755  0.7194  0.7655  0.4992
 8215TIP3    H146060   2.782   0.743   4.730  1.9544  0.2616 -1.6942
 8215TIP3    H246061   2.775   0.651   4.851 -2.4743  2.9461  0.3588
 8216TIP3   OH246062   0.026   0.145  14.741  0.1719  0.4187  0.1423
 8216TIP3    H146063   0.019   0.050  14.749 -0.3684  0.3740 -0.6844
 8216TIP3    H246064   0.053   0.160  14.651  1.8780  1.0131  0.7076
 8217TIP3   OH246065   5.630   2.607   2.203  0.2690 -0.1369  0.1097
 8217TIP3    H146066   5.607   2.648   2.287 -0.4040 -0.5349  0.1217
 8217TIP3    H246067   5.579   2.655   2.138  2.6607  1.9018 -0.4447
 8218TIP3   OH246068   1.790   4.835  10.953  0.3739 -0.2500  0.3975
 8218TIP3    H146069   1.705   4.878  10.958 -0.0175 -1.0238  0.5575
 8218TIP3    H246070   1.832   4.874  10.877  0.0565  0.4493  0.5722
 8219TIP3   OH246071   6.007   2.502   0.998 -0.2094  0.7598  0.2453
 8219TIP3    H146072   5.948   2.486   1.072 -0.9107  0.0919 -0.4314
 8219TIP3    H246073   5.951   2.547   0.934  0.5866  2.0129  0.3982
 8220TIP3   OH246074   4.902   5.209   4.529  1.0986  0.5272  0.0592
 8220TIP3    H146075   4.948   5.215   4.445  0.3969 -2.1097 -0.5945
 8220TIP3    H246076   4.885   5.116   4.540 -0.3450  0.9952  2.3366
 8221TIP3   OH246077   6.424   0.694  11.146 -0.3420  0.2428 -0.4836
 8221TIP3    H146078   6.493   0.696  11.079 -0.4671 -0.0867 -0.6228
 8221TIP3    H246079   6.388   0.783  11.144  1.9283  1.3255  1.5720
 8222TIP3   OH246080   6.568   0.207   1.890  0.1681 -0.0933 -0.2381
 8222TIP3    H146081   6.551   0.220   1.797 -0.4626 -2.2672 -0.4855
 8222TIP3    H246082   6.489   0.163   1.923 -0.1135  1.6135  1.6060
 8223TIP3   OH246083   0.715   0.367   1.484  0.2560 -0.3741 -0.6576
 8223TIP3    H146084   0.726   0.453   1.524  0.9976 -0.2042 -1.1974
 8223TIP3    H246085   0.802   0.346   1.449  0.5321 -2.0959  0.9527
 8224TIP3   OH246086   0.718   5.599   0.782 -0.1734  0.3368  0.1948
 8224TIP3    H146087   0.634   5.573   0.744 -0.5919  0.5285  0.9617
 8224TIP3    H246088   0.742   5.525   0.839 -1.0614  1.2975  1.9039
 8225TIP3   OH246089   3.032   5.265  12.335 -0.0042  0.4491 -0.0719
 8225TIP3    H146090   2.986   5.344  12.306 -0.4659 -0.0508 -0.7321
 8225TIP3    H246091   2.967   5.218  12.388  0.4932  0.8397  0.9001
 8226TIP3   OH246092   0.188   3.399   4.223 -0.0125 -0.2341  0.7341
 8226TIP3    H146093   0.182   3.493   4.239  1.1508 -0.1721  0.8578
 8226TIP3    H246094   0.221   3.362   4.304 -2.1809 -1.0227  1.3470
 8227TIP3   OH246095   3.182   4.319  14.198  0.4753  0.2493 -0.1577
 8227TIP3    H146096   3.164   4.349  14.109  0.2795  1.2549  0.2121
 8227TIP3    H246097   3.116   4.363  14.252 -0.3933 -1.5141  0.3102
 8228TIP3   OH246098   6.040   0.920  14.438  0.1205 -0.2038 -0.1521
 8228TIP3    H146099   5.946   0.898  14.435 -0.0331  0.5155 -0.8950
 8228TIP3    H246100   6.083   0.836  14.454 -0.7178 -0.3687  1.3951
 8229TIP3   OH246101   2.901   0.527   5.306  0.1067 -0.3385  0.7433
 8229TIP3    H146102   2.857   0.598   5.352  1.2122 -0.0349  1.3738
 8229TIP3    H246103   2.861   0.447   5.340  2.4930 -0.2912  4.1939
 8230TIP3   OH246104   6.581   1.519  15.603 -0.2384  0.2380  0.1981
 8230TIP3    H146105   6.574   1.423  15.609 -2.3284  0.3496  0.2704
 8230TIP3    H246106   6.528   1.542  15.527  1.1309  1.2802 -0.4650
 8231TIP3   OH246107   3.291   4.114  14.374 -0.0565  0.9184 -0.0664
 8231TIP3    H146108   3.315   4.142  14.463  0.6774  3.8088 -1.0911
 8231TIP3    H246109   3.275   4.195  14.326  1.3489 -0.4191 -3.0776
 8232TIP3   OH246110   3.984   1.179   2.755  0.6346 -0.0226 -0.4173
 8232TIP3    H146111   4.033   1.153   2.833 -2.4538 -1.1098  1.3213
 8232TIP3    H246112   3.990   1.275   2.754 -1.3527  0.2690  2.7753
 8233TIP3   OH246113   2.973   0.522   2.065 -0.2716  0.1283 -0.1697
 8233TIP3    H146114   2.942   0.480   1.985  0.9005  0.2587 -0.7022
 8233TIP3    H246115   3.021   0.454   2.111  0.1121  0.3927 -0.1749
 8234TIP3   OH246116   3.854   1.253  13.573  0.1560 -0.2206 -0.2085
 8234TIP3    H146117   3.936   1.278  13.532  0.0164  0.0947 -0.2946
 8234TIP3    H246118   3.869   1.263  13.667  0.5015 -1.0179 -0.1657
 8235TIP3   OH246119   3.228   0.735  13.405 -0.0131  0.0991 -0.2121
 8235TIP3    H146120   3.258   0.710  13.318  0.7018  1.5446 -0.4187
 8235TIP3    H246121   3.137   0.704  13.410 -0.3008  0.6302 -1.7452
 8236TIP3   OH246122   2.289   2.779   1.085 -0.0506  0.1284 -1.0114
 8236TIP3    H146123   2.331   2.694   1.095 -0.2834  0.2024  1.1231
 8236TIP3    H246124   2.249   2.777   0.998  0.0207 -1.9053 -1.0280
 8237TIP3   OH246125   4.053   3.181   0.176 -0.2726  0.4020  0.3187
 8237TIP3    H146126   3.998   3.243   0.128 -0.4641 -0.3020 -0.3886
 8237TIP3    H246127   4.032   3.095   0.139  0.2782 -0.0500  1.0066
 8238TIP3   OH246128   2.098   3.987   5.299 -0.1170  0.0569 -0.2258
 8238TIP3    H146129   2.095   4.051   5.228  0.2304 -0.2322 -0.5064
 8238TIP3    H246130   2.068   4.035   5.376  2.2880  1.2622  0.0732
 8239TIP3   OH246131   0.192   3.525  17.473  0.7684  0.0742  0.6944
 8239TIP3    H146132   0.234   3.558  17.553  1.1669 -1.4080  1.1333
 8239TIP3    H246133   0.103   3.558  17.477  0.9541  0.5058  1.4587
 8240TIP3   OH246134   2.851   4.206   3.105 -0.0933 -0.0030  0.4166
 8240TIP3    H146135   2.766   4.216   3.149 -0.6131 -1.2378 -0.2384
 8240TIP3    H246136   2.849   4.116   3.071  1.8429 -0.3676  1.1458
 8241TIP3   OH246137   0.238   3.917  15.443 -0.3253 -0.5023 -0.5533
 8241TIP3    H146138   0.306   3.889  15.504  0.3640 -2.4390 -2.0991
 8241TIP3    H246139   0.272   3.894  15.356 -1.7502  1.1091 -1.6190
 8242TIP3   OH246140   1.780   5.469   5.633  0.0711 -0.0774  0.1360
 8242TIP3    H146141   1.793   5.404   5.564 -0.0425  1.4807 -1.4359
 8242TIP3    H246142   1.806   5.552   5.593 -0.7870  1.0101  1.7023
 8243TIP3   OH246143   0.526   5.153  12.569 -0.0030 -0.2363  0.2232
 8243TIP3    H146144   0.617   5.165  12.597 -0.3769  3.0983  0.3745
 8243TIP3    H246145   0.473   5.175  12.645 -0.9979 -1.4529 -0.0765
 8244TIP3   OH246146   0.765   0.037   1.055  0.1261 -0.0379  0.3807
 8244TIP3    H146147   0.797  -0.045   1.092  0.7189  0.2129  0.4363
 8244TIP3    H246148   0.719   0.080   1.128 -1.3384 -0.9006  0.0054
 8245TIP3   OH246149   2.771   1.490  14.079  0.4148  0.2966 -0.2193
 8245TIP3    H146150   2.789   1.473  13.987  0.4490  0.5496 -0.2588
 8245TIP3    H246151   2.685   1.531  14.080 -0.3050 -1.1430 -0.0121
 8246TIP3   OH246152   5.826   1.442  17.045  0.0183  0.1604  0.2671
 8246TIP3    H146153   5.882   1.465  17.119  0.2373 -0.4360  0.2910
 8246TIP3    H246154   5.853   1.354  17.020  0.0584  0.4180 -0.6328
 8247TIP3   OH246155   3.043   6.185   0.491 -0.2062  0.5157  0.1223
 8247TIP3    H146156   3.130   6.152   0.512  0.7344  1.3312 -2.1404
 8247TIP3    H246157   3.018   6.140   0.410 -1.0162  1.7269 -0.3390
 8248TIP3   OH246158   6.599   0.347   5.169 -0.2815  1.1286  0.0956
 8248TIP3    H146159   6.569   0.257   5.179  0.7343  0.7914  0.2330
 8248TIP3    H246160   6.620   0.356   5.076 -0.6451  1.3165  0.0281
 8249TIP3   OH246161   4.581   5.022  17.402 -1.1982  0.1910  0.0828
 8249TIP3    H146162   4.508   5.065  17.447 -0.1283  1.4312  0.7097
 8249TIP3    H246163   4.539   4.970  17.333 -2.6049  1.8511 -0.3995
 8250TIP3   OH246164   3.585   1.797   3.420  0.1237  0.8107  0.4808
 8250TIP3    H146165   3.521   1.753   3.476 -0.3377  2.7386  1.5562
 8250TIP3    H246166   3.662   1.740   3.422 -0.3249  0.2117  2.0924
 8251TIP3   OH246167   6.142   4.333   3.477 -0.1714 -0.0276  0.2332
 8251TIP3    H146168   6.068   4.292   3.432 -0.7885  0.2378  0.9806
 8251TIP3    H246169   6.101   4.389   3.543  0.7209 -0.7887  1.4638
 8252TIP3   OH246170   2.261   6.368  14.163  0.1531  0.3267 -0.4458
 8252TIP3    H146171   2.237   6.295  14.220  1.0185  0.0256 -0.4662
 8252TIP3    H246172   2.335   6.410  14.207 -1.9798  2.8967  1.0324
 8253TIP3   OH246173   1.154   6.243  14.427 -0.2468 -0.3173  0.2334
 8253TIP3    H146174   1.196   6.158  14.412  0.4062  0.0101  0.1237
 8253TIP3    H246175   1.111   6.263  14.344 -3.2431 -2.0242  1.2460
 8254TIP3   OH246176   2.389   0.852  11.360  0.6307 -0.0031 -0.5622
 8254TIP3    H146177   2.419   0.828  11.272 -0.1834 -0.2821 -0.7687
 8254TIP3    H246178   2.470   0.871  11.408  1.2593 -2.0612 -0.7073
 8255TIP3   OH246179   1.449   2.218  14.386  0.0017  0.2017 -0.4128
 8255TIP3    H146180   1.519   2.224  14.451  0.6695  0.5642 -1.1418
 8255TIP3    H246181   1.492   2.185  14.308 -0.4071  1.4367 -1.1927
 8256TIP3   OH246182   5.369   0.269   0.291 -0.3846 -0.5688 -0.4346
 8256TIP3    H146183   5.290   0.260   0.345 -0.6121  0.5887 -0.5536
 8256TIP3    H246184   5.418   0.189   0.308 -1.3692 -1.1045 -0.0051
 8257TIP3   OH246185   3.360   5.552   2.330 -0.4685  0.3426  0.2259
 8257TIP3    H146186   3.336   5.491   2.260 -4.1572  1.3457  0.4289
 8257TIP3    H246187   3.376   5.635   2.286 -0.7043  0.4812  0.3987
 8258TIP3   OH246188   5.271   2.769   0.783 -0.2971  0.3334  0.4700
 8258TIP3    H146189   5.359   2.803   0.766 -0.2178  0.1890  0.5863
 8258TIP3    H246190   5.286   2.684   0.824 -0.4862  0.4242  0.7347
 8259TIP3   OH246191   0.923   2.111   5.822  0.1871 -0.2507  0.3109
 8259TIP3    H146192   0.867   2.183   5.795 -1.6183 -1.5892  0.3167
 8259TIP3    H246193   0.920   2.112   5.917  1.4929  0.6221  0.3726
 8260TIP3   OH246194   5.482   5.122  16.552  0.5412 -0.1789  0.0207
 8260TIP3    H146195   5.443   5.073  16.624  1.7220 -1.7991 -0.4041
 8260TIP3    H246196   5.556   5.169  16.592  0.5165 -0.1860  0.0750
 8261TIP3   OH246197   2.946   1.216  15.738  0.1661 -0.2306  0.4282
 8261TIP3    H146198   2.861   1.219  15.783 -0.4737 -0.2894 -0.7269
 8261TIP3    H246199   2.974   1.307  15.733 -0.3446 -0.0967 -0.1084
 8262TIP3   OH246200   6.457   3.134  16.570 -0.0381 -0.5038  0.4120
 8262TIP3    H146201   6.458   3.196  16.643  0.3904  1.0105 -0.8037
 8262TIP3    H246202   6.365   3.112  16.558 -0.0576 -1.2186  1.7472
 8263TIP3   OH246203   4.981   1.425   0.569 -0.4748 -0.0295 -0.8891
 8263TIP3    H146204   4.936   1.359   0.623  0.8787 -0.8334 -0.6934
 8263TIP3    H246205   4.956   1.509   0.607 -0.0515 -0.5529  0.6150
 8264TIP3   OH246206   3.392   3.246  14.156 -0.2144 -0.2277 -0.0472
 8264TIP3    H146207   3.434   3.305  14.093  0.5094  0.3623  0.9541
 8264TIP3    H246208   3.456   3.176  14.170  0.2831  0.4369  1.1438
 8265TIP3   OH246209   2.013   1.209  12.419 -0.1339  0.4603 -0.1978
 8265TIP3    H146210   2.039   1.300  12.431 -0.6258  0.7861 -1.4421
 8265TIP3    H246211   2.090   1.167  12.382  0.3351  0.1817  1.0428
 8266TIP3   OH246212   1.124   2.155   5.117 -0.5698  0.0646 -0.5492
 8266TIP3    H146213   1.179   2.132   5.192 -1.5091  0.5036  0.3044
 8266TIP3    H246214   1.034   2.145   5.150 -1.0034 -0.0898 -1.7324
 8267TIP3   OH246215   2.856   1.263  17.144  0.4065 -0.5588 -0.1362
 8267TIP3    H146216   2.883   1.212  17.068  1.1912 -0.8773  0.3419
 8267TIP3    H246217   2.889   1.351  17.127  1.0402 -0.7522  0.0663
 8268TIP3   OH246218   1.702   4.212   1.979  0.0355 -0.2701 -0.1013
 8268TIP3    H146219   1.777   4.170   2.021 -0.2170  0.7875  1.4916
 8268TIP3    H246220   1.739   4.291   1.937  0.1321 -0.8415 -1.1277
 8269TIP3   OH246221   3.769   0.114   6.664 -0.0650 -0.5806 -1.3070
 8269TIP3    H146222   3.689   0.076   6.628 -1.8984  0.7207  1.0773
 8269TIP3    H246223   3.793   0.056   6.736 -0.1557  0.1969 -0.6301
 8270TIP3   OH246224   2.397   0.090   4.683 -0.0415 -0.3270 -0.1734
 8270TIP3    H146225   2.479   0.105   4.636  1.6069 -0.2788  2.5141
 8270TIP3    H246226   2.395  -0.005   4.698 -1.0041 -0.4620 -1.0746
 8271TIP3   OH246227   0.279   6.369   1.138 -0.3870  0.1823  0.4060
 8271TIP3    H146228   0.282   6.422   1.059  0.2028 -0.5822 -0.0999
 8271TIP3    H246229   0.366   6.330   1.145 -1.2304 -1.9534 -0.1187
 8272TIP3   OH246230   5.797   4.640   5.175  0.3367  0.1967  0.4672
 8272TIP3    H146231   5.800   4.719   5.229 -1.1560 -0.1532  1.1216
 8272TIP3    H246232   5.888   4.626   5.148  0.7621  1.6558  1.0236
 8273TIP3   OH246233   1.915   2.493   2.850  0.6999 -0.3845 -0.0035
 8273TIP3    H146234   1.837   2.537   2.817  0.7725 -0.8760 -0.8463
 8273TIP3    H246235   1.943   2.547   2.924 -0.5310 -0.2954  0.4199
 8274TIP3   OH246236   1.859   3.394  15.262  0.1755  0.3703  0.4118
 8274TIP3    H146237   1.803   3.388  15.339  1.7724  1.2243  1.7189
 8274TIP3    H246238   1.807   3.442  15.197 -0.7155  0.8596  1.4620
 8275TIP3   OH246239   0.081   3.380  17.004  0.2718  0.4492 -0.1143
 8275TIP3    H146240   0.154   3.320  16.988 -0.1657 -0.1798  0.2153
 8275TIP3    H246241   0.083   3.440  16.930  1.6729  1.0038  0.3477
 8276TIP3   OH246242   6.432   3.087   1.188  0.2672 -0.1797 -0.3563
 8276TIP3    H146243   6.411   3.045   1.272 -1.0029 -1.0765 -1.0775
 8276TIP3    H246244   6.448   3.179   1.210 -1.3936 -0.1038  0.7145
 8277TIP3   OH246245   2.085   4.328   0.830 -0.2541  0.0544 -0.2170
 8277TIP3    H146246   2.116   4.284   0.750 -0.4183 -1.4319  0.5024
 8277TIP3    H246247   2.002   4.285   0.850 -0.1258  0.2911  0.8548
 8278TIP3   OH246248   4.179   5.922   5.300 -0.1049 -0.5605 -0.0811
 8278TIP3    H146249   4.246   5.986   5.275  0.8337 -1.6805 -0.5560
 8278TIP3    H246250   4.207   5.841   5.257 -1.8125 -1.0463 -0.3264
 8279TIP3   OH246251   2.992   0.525  17.034  0.0660  0.3359  0.2524
 8279TIP3    H146252   2.984   0.613  17.071 -1.7962 -0.1142  1.0586
 8279TIP3    H246253   3.060   0.533  16.967 -0.6783  2.6150 -0.3419
 8280TIP3   OH246254   3.245   4.263   3.895 -0.6512  0.2497 -0.0595
 8280TIP3    H146255   3.277   4.342   3.852 -0.1820 -0.2190 -0.5689
 8280TIP3    H246256   3.198   4.216   3.827 -0.1162 -0.3744  0.0006
 8281TIP3   OH246257   0.066   4.744   0.655 -0.2751  0.0941  0.0282
 8281TIP3    H146258  -0.023   4.728   0.686 -0.4715  0.2193 -0.4772
 8281TIP3    H246259   0.057   4.761   0.562  0.2320  0.5168  0.0518
 8282TIP3   OH246260   1.415   3.201   4.561  0.0371  0.1329  0.3217
 8282TIP3    H146261   1.379   3.211   4.649  0.2710  1.1117  0.3210
 8282TIP3    H246262   1.462   3.117   4.564 -0.3461 -0.0679  0.9862
 8283TIP3   OH246263   5.513   6.609   0.745 -0.4186  0.1836  0.3242
 8283TIP3    H146264   5.429   6.653   0.757 -0.7693 -0.7088  1.2677
 8283TIP3    H246265   5.575   6.663   0.794 -0.4821  0.7174 -0.1794
 8284TIP3   OH246266   2.968   5.170   4.825  0.0496  0.3524 -0.4777
 8284TIP3    H146267   2.878   5.199   4.841 -0.5181  0.3685 -3.1633
 8284TIP3    H246268   3.015   5.191   4.905 -1.6318  3.3068 -0.1053
 8285TIP3   OH246269   3.920   3.529   0.598 -0.0312 -0.1689 -0.2508
 8285TIP3    H146270   3.882   3.483   0.523 -0.1994 -1.2408  0.4695
 8285TIP3    H246271   3.882   3.485   0.674  1.6383 -0.3988  0.4885
 8286TIP3   OH246272   3.558   0.924  14.301  0.0077  0.3349  0.1386
 8286TIP3    H146273   3.552   1.008  14.255 -1.3847  1.5652  2.3959
 8286TIP3    H246274   3.568   0.947  14.393  3.8824 -2.0027  0.5273
 8287TIP3   OH246275   6.408   0.390   0.196  0.2698 -0.1818  0.0570
 8287TIP3    H146276   6.438   0.333   0.125 -0.4559  0.1577 -0.5373
 8287TIP3    H246277   6.472   0.462   0.197  0.6998 -0.5589  0.2450
 8288TIP3   OH246278   3.385   0.349  13.289 -0.0503 -0.7347 -0.0381
 8288TIP3    H146279   3.352   0.292  13.358 -2.8593 -1.1591 -1.6080
 8288TIP3    H246280   3.309   0.369  13.235  1.8129  0.4411 -2.4345
 8289TIP3   OH246281   5.240   2.924   5.152 -0.1240 -0.4224 -0.5767
 8289TIP3    H146282   5.251   2.924   5.057  0.4483  0.0416 -0.5130
 8289TIP3    H246283   5.156   2.879   5.166 -0.6989  0.3808 -1.3476
 8290TIP3   OH246284   5.516   2.848   3.421 -0.2003 -0.3140 -0.0565
 8290TIP3    H146285   5.488   2.928   3.376  1.0825  0.5938  0.6532
 8290TIP3    H246286   5.440   2.821   3.472 -0.6385  0.5168 -0.2437
 8291TIP3   OH246287   1.392   4.574   1.882  0.4019  0.5338 -0.4686
 8291TIP3    H146288   1.428   4.492   1.914  0.5393  0.8528  0.2254
 8291TIP3    H246289   1.325   4.548   1.819 -0.1408 -0.1460  0.3552
 8292TIP3   OH246290   5.112   4.768   1.232  0.3231 -0.0545 -0.1774
 8292TIP3    H146291   5.021   4.740   1.231 -0.4168  1.8263 -3.2697
 8292TIP3    H246292   5.127   4.803   1.320 -2.3617  0.6972  0.0511
 8293TIP3   OH246293   5.052   2.787   1.634  0.0192 -0.1609 -0.1306
 8293TIP3    H146294   4.992   2.731   1.683  0.1973  0.3165  0.6611
 8293TIP3    H246295   5.137   2.774   1.677 -0.0744  1.2326  0.5264
 8294TIP3   OH246296   1.661   4.720   1.372  0.4963  0.2848 -0.5568
 8294TIP3    H146297   1.641   4.770   1.451  1.2229  0.0485 -0.2186
 8294TIP3    H246298   1.675   4.786   1.304 -1.5315  0.4727 -0.8667
 8295TIP3   OH246299   5.851   0.616   1.026 -0.5340 -0.5399  0.1219
 8295TIP3    H146300   5.828   0.584   0.939 -0.4166 -0.6542  0.1335
 8295TIP3    H246301   5.903   0.694   1.010 -0.3351 -0.6791  0.0862
 8296TIP3   OH246302   3.845   2.620   4.724 -0.0419 -0.4285  0.1569
 8296TIP3    H146303   3.912   2.686   4.742  2.7681 -2.2050 -2.7455
 8296TIP3    H246304   3.776   2.668   4.678  1.3085  0.7637 -0.7303
 8297TIP3   OH246305   1.009   6.470   3.318  0.4743  0.3595 -0.0549
 8297TIP3    H146306   0.999   6.541   3.254 -1.3085 -0.1569 -0.3989
 8297TIP3    H246307   1.080   6.416   3.282  0.4130  0.8051 -0.8935
 8298TIP3   OH246308   0.215   3.601   4.582 -0.3027 -0.0081  0.2573
 8298TIP3    H146309   0.168   3.542   4.640 -2.1500  1.5224  0.4210
 8298TIP3    H246310   0.254   3.667   4.640 -0.2186  0.2466 -0.0838
 8299TIP3   OH246311   0.649   0.477  16.440  0.4798  0.3686  0.1002
 8299TIP3    H146312   0.574   0.509  16.391  0.0163  0.1113  0.6322
 8299TIP3    H246313   0.724   0.492  16.382  0.1085  1.2356 -0.1618
 8300TIP3   OH246314   0.393   5.735   2.543  0.0331 -0.2635 -0.1674
 8300TIP3    H146315   0.408   5.719   2.450 -0.9770 -0.7977 -0.2597
 8300TIP3    H246316   0.412   5.828   2.555 -0.1385 -0.1104 -0.9812
 8301TIP3   OH246317   4.558   6.191   2.031  0.3628  0.2990  0.2542
 8301TIP3    H146318   4.573   6.153   2.117 -0.0624  0.4812  0.4119
 8301TIP3    H246319   4.643   6.225   2.004  0.9551 -1.4414 -0.2299
 8302TIP3   OH246320   1.411   4.462   5.996 -0.2846 -0.1281 -0.0027
 8302TIP3    H146321   1.388   4.537   6.051 -0.9142 -1.3542  1.4624
 8302TIP3    H246322   1.329   4.412   5.988  0.2914 -1.0273 -0.3762
 8303TIP3   OH246323   2.814   6.628  12.941 -0.3753  0.0226  0.0877
 8303TIP3    H146324   2.772   6.646  13.025 -2.4937 -1.5971 -0.5239
 8303TIP3    H246325   2.809   6.533  12.932  0.5732  0.0907 -1.5014
 8304TIP3   OH246326   0.528   2.856   3.662  0.5785  0.1931 -0.1496
 8304TIP3    H146327   0.588   2.796   3.618 -0.4889 -2.1037  1.2801
 8304TIP3    H246328   0.455   2.866   3.601  1.0852  0.6406 -0.6914
 8305TIP3   OH246329   2.925   3.108   4.816  0.5928 -0.0865  0.0237
 8305TIP3    H146330   2.903   3.033   4.761 -0.6079  1.0061 -1.0735
 8305TIP3    H246331   3.020   3.104   4.826  0.5829 -1.5339 -0.3110
 8306TIP3   OH246332   0.748   0.868   2.153  0.2436  0.1830  0.3669
 8306TIP3    H146333   0.697   0.830   2.081  0.9844  1.5976 -0.9636
 8306TIP3    H246334   0.837   0.875   2.118  0.2643  2.5389  0.7523
 8307TIP3   OH246335   0.665   1.806  13.495 -0.1085  0.1746 -0.0268
 8307TIP3    H146336   0.684   1.781  13.585 -0.2088  2.2350  0.6175
 8307TIP3    H246337   0.725   1.754  13.442  0.8434 -0.1473  1.3306
 8308TIP3   OH246338   0.465   4.158   5.507 -0.1420  0.1330 -0.6634
 8308TIP3    H146339   0.484   4.121   5.421 -1.1399  1.5181 -1.5176
 8308TIP3    H246340   0.453   4.251   5.491  1.9683  0.8422  1.3749
 8309TIP3   OH246341   0.822   4.319   2.194  0.0416  0.1574 -0.1269
 8309TIP3    H146342   0.868   4.403   2.193 -0.0968  0.2511 -1.9781
 8309TIP3    H246343   0.890   4.255   2.175 -0.3777  0.2032 -1.9423
 8310TIP3   OH246344   3.865   0.852  14.390  0.2674  0.1176  0.2543
 8310TIP3    H146345   3.778   0.866  14.427  0.3910 -0.8784  0.9573
 8310TIP3    H246346   3.849   0.822  14.301 -0.0897  0.4542  0.2043
 8311TIP3   OH246347   3.976   2.613   2.144  0.3509 -0.0404 -0.1786
 8311TIP3    H146348   3.883   2.622   2.127  0.5200  0.8541 -0.6861
 8311TIP3    H246349   4.001   2.696   2.186  0.9161 -0.2689 -0.0525
 8312TIP3   OH246350   6.516   0.841  17.118  0.3619  0.1555 -0.2485
 8312TIP3    H146351   6.443   0.781  17.130  0.8981 -0.3573  0.5709
 8312TIP3    H246352   6.569   0.803  17.048  0.5879 -0.2225  0.1247
 8313TIP3   OH246353   3.747   5.598   1.111  0.2076 -0.1313 -0.1888
 8313TIP3    H146354   3.717   5.649   1.186  0.7165  1.6964 -1.1678
 8313TIP3    H246355   3.829   5.558   1.141  0.8149  1.2115  0.0104
 8314TIP3   OH246356   0.488   5.392  11.818 -0.2846  0.3521 -0.6655
 8314TIP3    H146357   0.395   5.381  11.839  0.3364 -0.0559  2.4157
 8314TIP3    H246358   0.509   5.480  11.848  0.2198  0.6939 -1.9647
 8315TIP3   OH246359   3.301   1.132   6.239 -0.3325 -0.4547  0.0120
 8315TIP3    H146360   3.224   1.183   6.211 -0.1285  0.1915  0.5941
 8315TIP3    H246361   3.277   1.041   6.222 -0.6024 -0.1619 -1.3029
 8316TIP3   OH246362   2.153   0.519  11.665 -0.0365 -0.1061 -0.6852
 8316TIP3    H146363   2.222   0.452  11.669 -1.8476 -2.1488 -1.3523
 8316TIP3    H246364   2.151   0.545  11.573  0.6828  0.9362 -0.4202
 8317TIP3   OH246365   3.162   4.524  11.969  0.0832 -0.1298  0.0652
 8317TIP3    H146366   3.100   4.593  11.993 -1.1296 -1.6482  1.5192
 8317TIP3    H246367   3.144   4.506  11.877 -0.6488  0.4304  0.0935
 8318TIP3   OH246368   1.793   1.996  13.751  0.3688  0.4368  0.4934
 8318TIP3    H146369   1.833   1.925  13.701 -1.4502 -0.4567  0.2276
 8318TIP3    H246370   1.847   2.073  13.732  0.2768 -0.0791 -2.1236
 8319TIP3   OH246371   0.389   1.230   1.193 -0.1721 -0.3214 -0.4883
 8319TIP3    H146372   0.374   1.141   1.223  0.6213 -0.3018 -0.0142
 8319TIP3    H246373   0.303   1.273   1.202 -0.6900 -1.1693 -1.2384
 8320TIP3   OH246374   6.590   4.872   2.346  0.1043  0.4213  0.3494
 8320TIP3    H146375   6.506   4.854   2.304 -1.7155  1.4456  3.2610
 8320TIP3    H246376   6.613   4.960   2.318 -0.2302  0.4694  0.2265
 8321TIP3   OH246377   2.069   6.621  13.707 -0.1393  0.0164  0.1243
 8321TIP3    H146378   2.123   6.638  13.631 -0.2836 -0.6190 -0.1248
 8321TIP3    H246379   2.094   6.689  13.770  0.0507  0.4793 -0.4457
 8322TIP3   OH246380   3.928   1.366  15.910 -0.2511 -0.0205 -0.1401
 8322TIP3    H146381   3.957   1.454  15.935 -2.4910 -0.4438  5.4174
 8322TIP3    H246382   3.991   1.307  15.952 -2.0167 -0.9116  1.4245
 8323TIP3   OH246383   6.274   5.140   4.246  0.4635  0.6940 -0.2065
 8323TIP3    H146384   6.310   5.225   4.221  0.1513  0.1951 -2.5987
 8323TIP3    H246385   6.320   5.077   4.191 -1.2095 -0.3752 -0.4504
 8324TIP3   OH246386   0.762   1.284   5.786 -0.6630 -0.3208  0.0338
 8324TIP3    H146387   0.735   1.368   5.822 -0.2421 -0.2249  0.1327
 8324TIP3    H246388   0.782   1.301   5.694  0.2048 -0.1293  0.2432
 8325TIP3   OH246389   2.231   3.938  16.153 -0.3497 -0.0292  0.4720
 8325TIP3    H146390   2.294   3.990  16.203 -1.2555  2.0783 -0.4460
 8325TIP3    H246391   2.253   3.956  16.061 -0.3437 -1.7670  0.1032
 8326TIP3   OH246392   1.679   1.842  12.145  0.5613 -0.2054  0.9730
 8326TIP3    H146393   1.628   1.813  12.069  1.9629  0.0895 -0.1181
 8326TIP3    H246394   1.655   1.934  12.155  1.5539  0.1972 -0.1371
 8327TIP3   OH246395   0.716   0.980   0.744 -0.2190  0.6059 -0.3990
 8327TIP3    H146396   0.721   0.909   0.808 -0.2277  1.1694  0.2369
 8327TIP3    H246397   0.634   1.025   0.765  0.3205  1.4621 -0.0913
 8328TIP3   OH246398   6.281   2.346   1.992 -0.2156  0.2724  0.4101
 8328TIP3    H146399   6.335   2.341   2.071  1.2502 -0.4879 -0.5961
 8328TIP3    H246400   6.191   2.350   2.025  0.2384 -1.6754  2.1066
 8329TIP3   OH246401   2.291   3.780   1.383  0.4663 -0.3415 -0.8214
 8329TIP3    H146402   2.278   3.760   1.476  0.4959  0.3551 -0.6561
 8329TIP3    H246403   2.224   3.846   1.364  1.2793  0.4639 -0.9600
 8330TIP3   OH246404   1.173   2.857  14.516 -0.9310 -0.1258  0.0076
 8330TIP3    H146405   1.079   2.843  14.519 -1.0133  0.2959 -0.4970
 8330TIP3    H246406   1.193   2.909  14.593 -0.9090 -1.3284  0.8395
 8331TIP3   OH246407   3.204   4.273   3.457 -0.3426 -0.1393 -0.0431
 8331TIP3    H146408   3.225   4.359   3.495  1.2983 -0.4738 -0.1104
 8331TIP3    H246409   3.252   4.270   3.375 -1.4123 -0.6420 -0.6733
 8332TIP3   OH246410   0.654   4.627   5.699  0.0384  0.7863  0.2174
 8332TIP3    H146411   0.595   4.573   5.752 -0.0701  1.9778  1.3689
 8332TIP3    H246412   0.684   4.695   5.760  0.9487  1.4309 -0.9225
 8333TIP3   OH246413   3.636   0.559  16.660 -0.5201 -0.4515  0.2939
 8333TIP3    H146414   3.663   0.555  16.752 -1.4248  0.4236  0.6195
 8333TIP3    H246415   3.717   0.576  16.612  0.2577 -2.6549  0.7142
 8334TIP3   OH246416   6.557   4.603   1.704  0.2139 -0.5483 -0.1739
 8334TIP3    H146417   6.523   4.642   1.785  0.1888 -0.2711 -0.3198
 8334TIP3    H246418   6.480   4.580   1.654  0.1711  2.1791 -1.5471
 8335TIP3   OH246419   1.135   1.611   4.437 -0.1476 -0.3941 -0.5422
 8335TIP3    H146420   1.168   1.533   4.392  2.3883 -0.3266  0.9868
 8335TIP3    H246421   1.095   1.577   4.517  1.4679 -0.1536  0.4039
 8336TIP3   OH246422   5.382   2.822   5.558 -0.0028  0.3683 -0.2352
 8336TIP3    H146423   5.364   2.734   5.591  1.6002  0.5968  1.4732
 8336TIP3    H246424   5.472   2.817   5.525  0.2785  1.4435  0.3135
 8337TIP3   OH246425   6.200   5.462   6.231 -0.3128 -0.0850 -0.0055
 8337TIP3    H146426   6.112   5.478   6.198 -0.2746  1.0973  0.4347
 8337TIP3    H246427   6.233   5.548   6.256  1.2512 -0.4005 -0.8378
 8338TIP3   OH246428   0.910   3.675  11.144 -0.1725 -0.1106 -0.6877
 8338TIP3    H146429   0.931   3.595  11.095 -0.0878 -1.2811  1.1722
 8338TIP3    H246430   0.987   3.730  11.134 -0.4801  0.0530 -2.5165
 8339TIP3   OH246431   4.626   6.382  17.201  0.0100  0.5016 -0.0552
 8339TIP3    H146432   4.606   6.297  17.162  1.1687  0.0059  0.3564
 8339TIP3    H246433   4.569   6.444  17.156 -1.4353 -0.5962  0.1941
 8340TIP3   OH246434   4.816   4.300   0.961  0.2714  0.2090  0.3721
 8340TIP3    H146435   4.843   4.294   0.870  1.0093 -0.7531  0.6366
 8340TIP3    H246436   4.824   4.393   0.983 -0.5606  0.5611 -0.7205
 8341TIP3   OH246437   4.469   3.340   5.651  0.1017 -0.1996 -0.2435
 8341TIP3    H146438   4.486   3.246   5.664 -0.6278 -0.0025  2.9936
 8341TIP3    H246439   4.555   3.380   5.656  0.1773 -0.4856  1.5858
 8342TIP3   OH246440   2.525   6.734  14.640 -0.3131 -0.1652 -0.1819
 8342TIP3    H146441   2.430   6.740  14.647 -0.3088 -0.1283 -0.1477
 8342TIP3    H246442   2.557   6.767  14.725 -0.3273 -1.9970  0.5730
 8343TIP3   OH246443   0.331   0.061   6.608 -1.1806  0.4591 -0.1788
 8343TIP3    H146444   0.405   0.017   6.566  0.9160  2.1116  1.5001
 8343TIP3    H246445   0.321   0.017   6.693 -0.3564  1.8387  0.6814
 8344TIP3   OH246446   2.984   5.206   4.378  0.2642  0.2659  0.4080
 8344TIP3    H146447   3.078   5.221   4.371  0.3645 -0.7720 -0.8943
 8344TIP3    H246448   2.953   5.276   4.435  1.7937  0.7178  0.7450
 8345TIP3   OH246449   4.569   6.539  15.574  0.0976 -0.5060  0.4790
 8345TIP3    H146450   4.605   6.622  15.604  1.2110 -0.5320 -0.6645
 8345TIP3    H246451   4.555   6.488  15.653  1.8048 -0.1581  1.0510
 8346TIP3   OH246452   5.557   3.426   1.631  0.4915 -0.4232  0.5769
 8346TIP3    H146453   5.646   3.460   1.630  0.2608  0.1872  0.2112
 8346TIP3    H246454   5.524   3.442   1.542  0.0542 -0.7460  0.6756
 8347TIP3   OH246455   1.387   0.462  17.358  0.2666 -0.0304  0.0857
 8347TIP3    H146456   1.385   0.411  17.276 -2.7463 -0.5903  0.3555
 8347TIP3    H246457   1.479   0.465  17.382  0.9772 -2.2612 -1.8761
 8348TIP3   OH246458   1.837   3.277  15.956 -0.0886 -0.5134  0.1604
 8348TIP3    H146459   1.818   3.349  16.016 -0.6760 -0.8573  0.3949
 8348TIP3    H246460   1.923   3.299  15.919  0.6392 -0.6854  1.6866
 8349TIP3   OH246461   4.028   5.141  14.951 -0.0351 -0.2068  0.7157
 8349TIP3    H146462   4.033   5.222  14.900 -1.3915  0.0818  0.9890
 8349TIP3    H246463   4.084   5.157  15.027  2.0033 -0.6402 -0.6139
 8350TIP3   OH246464   4.322   0.670   1.419 -0.6014  0.1097 -0.3151
 8350TIP3    H146465   4.245   0.659   1.362 -0.7517  1.9027 -0.4994
 8350TIP3    H246466   4.348   0.761   1.407  1.9179 -0.5789 -0.6922
 8351TIP3   OH246467   4.956   1.923  17.132 -0.0574  0.6786 -0.2453
 8351TIP3    H146468   4.926   1.895  17.219  0.6560  1.7054  0.3558
 8351TIP3    H246469   4.977   1.841  17.087 -1.2051  0.0843  0.2498
 8352TIP3   OH246470   4.187   3.586  17.478  0.5552 -0.2442  0.4322
 8352TIP3    H146471   4.155   3.592  17.568  0.1251  1.6125  0.2088
 8352TIP3    H246472   4.279   3.560  17.486  0.7341  0.6377  1.4777
 8353TIP3   OH246473   5.343   6.538  16.353 -0.3177 -0.2696 -0.1188
 8353TIP3    H146474   5.303   6.530  16.440  1.6077 -0.3517  0.8160
 8353TIP3    H246475   5.407   6.467  16.350 -1.1637 -1.0070 -2.1123
 8354TIP3   OH246476   1.934   2.766  17.224  0.3972 -0.3467  0.2046
 8354TIP3    H146477   1.971   2.752  17.137  1.3315  0.6371  0.4324
 8354TIP3    H246478   2.009   2.764  17.283  0.0006  0.7851  0.7750
 8355TIP3   OH246479   0.580   6.543   0.108  0.1286  0.3410  0.4301
 8355TIP3    H146480   0.485   6.537   0.122 -0.1305  1.0872 -0.8467
 8355TIP3    H246481   0.595   6.494   0.026  0.6062  1.5265 -0.2145
 8356TIP3   OH246482   2.891   1.863   1.677 -0.0337  0.2424  0.3106
 8356TIP3    H146483   2.968   1.811   1.703 -0.2467 -0.5123 -0.5117
 8356TIP3    H246484   2.816   1.810   1.704 -0.2944 -1.1866 -2.7598
 8357TIP3   OH246485   2.422   2.302   0.658 -0.3443 -0.0955 -0.4055
 8357TIP3    H146486   2.509   2.277   0.689 -1.8026 -2.7114  1.9954
 8357TIP3    H246487   2.433   2.313   0.563  2.1427 -2.6819 -0.5572
 8358TIP3   OH246488   0.970   0.673  10.689  0.4596  0.0138 -0.2303
 8358TIP3    H146489   0.912   0.748  10.698  0.7090  0.2859 -0.7895
 8358TIP3    H246490   1.027   0.696  10.615  0.5977 -0.6830 -0.3512
 8359TIP3   OH246491   2.208   0.253   3.255 -0.3187  0.5031 -0.3951
 8359TIP3    H146492   2.216   0.338   3.212  0.1119  0.8140  0.2916
 8359TIP3    H246493   2.236   0.190   3.188 -0.6542  0.8913 -0.9123
 8360TIP3   OH246494   6.684   5.206  16.801 -0.0693 -0.3789  0.0845
 8360TIP3    H146495   6.602   5.255  16.807 -0.6796 -1.3309 -0.3588
 8360TIP3    H246496   6.660   5.124  16.759  1.0100 -0.9215  0.5033
 8361TIP3   OH246497   5.917   1.382  15.109  0.1766  0.0998 -0.1718
 8361TIP3    H146498   5.861   1.320  15.063  0.7464  1.2792 -2.5896
 8361TIP3    H246499   5.857   1.450  15.140 -0.0695 -0.0653 -0.2843
 8362TIP3   OH246500   3.033   5.673   2.792  0.4692 -0.4044 -0.0095
 8362TIP3    H146501   3.080   5.640   2.868 -0.1996 -3.3195 -0.7291
 8362TIP3    H246502   3.094   5.659   2.719 -0.3252 -1.3076 -0.5148
 8363TIP3   OH246503   1.039   2.097   0.551  0.0610 -0.1541  0.0084
 8363TIP3    H146504   1.117   2.090   0.495  0.1185  1.5874 -0.1751
 8363TIP3    H246505   1.003   2.183   0.531  0.1594  0.6225  2.7508
 8364TIP3   OH246506   3.718   1.359   4.744  0.2907  0.5337 -0.0752
 8364TIP3    H146507   3.623   1.362   4.758 -0.0666  1.9057 -2.2048
 8364TIP3    H246508   3.733   1.276   4.698  0.0623  0.4473  0.0039
 8365TIP3   OH246509   3.155   2.824   3.898  0.6005  0.9190  0.1657
 8365TIP3    H146510   3.071   2.828   3.943 -0.8003 -1.4171 -1.9388
 8365TIP3    H246511   3.213   2.778   3.959 -0.6404 -0.3688  0.4323
 8366TIP3   OH246512   3.520   5.324   3.393  0.1036 -0.0606  0.2972
 8366TIP3    H146513   3.583   5.254   3.409  0.0307 -0.0842  0.4820
 8366TIP3    H246514   3.573   5.403   3.383  0.2526 -0.2807 -0.7950
 8367TIP3   OH246515   5.447   3.679   4.949  0.3858 -0.2008  0.1822
 8367TIP3    H146516   5.368   3.634   4.980  0.4072 -0.4380 -0.1029
 8367TIP3    H246517   5.513   3.662   5.017  0.7843 -1.7430 -0.5415
 8368TIP3   OH246518   5.048   3.891  12.246  0.3929 -0.2322 -0.2345
 8368TIP3    H146519   4.974   3.832  12.231 -0.0088  0.4885 -1.1262
 8368TIP3    H246520   5.025   3.972  12.201  1.7090  0.0226 -0.5050
 8369TIP3   OH246521   2.482   3.075  11.448 -0.1636  0.2778  0.0759
 8369TIP3    H146522   2.474   3.002  11.511  0.1850  1.0363  1.0240
 8369TIP3    H246523   2.391   3.098  11.427 -0.3795  1.4607  2.0436
 8370TIP3   OH246524   5.335   3.645  12.670 -0.0443 -0.6031 -0.6672
 8370TIP3    H146525   5.292   3.601  12.597  0.7982 -1.6260 -0.5644
 8370TIP3    H246526   5.380   3.719  12.630 -1.2902  0.0807 -0.8677
 8371TIP3   OH246527   2.965   0.468  15.882  0.1293 -0.0296  0.7920
 8371TIP3    H146528   2.873   0.451  15.862  0.9161 -3.4352 -0.6660
 8371TIP3    H246529   2.976   0.562  15.867 -3.1830  0.6274  1.6182
 8372TIP3   OH246530   1.360   5.315  11.682 -0.2244 -0.1515 -0.0258
 8372TIP3    H146531   1.377   5.409  11.682  1.1290 -0.2587  2.9992
 8372TIP3    H246532   1.447   5.275  11.672 -0.4433 -0.9906  1.1708
 8373TIP3   OH246533   5.310   0.351  17.083  0.2529 -0.4728  0.2579
 8373TIP3    H146534   5.262   0.273  17.112 -1.5107  1.2299  2.2778
 8373TIP3    H246535   5.257   0.386  17.011 -0.3659  0.2020  1.0258
 8374TIP3   OH246536   5.014   6.530   0.631 -0.1130 -0.2156 -0.7327
 8374TIP3    H146537   4.944   6.572   0.681 -1.2770 -0.7714 -1.8604
 8374TIP3    H246538   4.981   6.442   0.612  1.6947 -1.2106  0.3606
 8375TIP3   OH246539   4.518   5.912   2.927  0.3854 -0.4335  0.3178
 8375TIP3    H146540   4.536   5.827   2.965 -0.4013 -0.3643  0.8606
 8375TIP3    H246541   4.592   5.967   2.953  0.3003 -0.6301  0.9723
 8376TIP3   OH246542   3.964   1.197   0.617  0.6779  0.2889  0.2436
 8376TIP3    H146543   3.993   1.152   0.696  1.2962  1.1103  0.5019
 8376TIP3    H246544   3.885   1.150   0.590  1.3827 -1.0345  0.4011
 8377TIP3   OH246545   2.280   0.916   0.991 -0.0504 -0.0074 -0.3919
 8377TIP3    H146546   2.315   0.898   0.904 -0.4320 -0.1725 -0.5165
 8377TIP3    H246547   2.310   1.004   1.012 -0.8656  0.4633 -1.1536
 8378TIP3   OH246548   3.832   2.453   1.210 -0.1327 -0.0938 -0.7759
 8378TIP3    H146549   3.846   2.502   1.129 -2.8753  0.3245 -1.0834
 8378TIP3    H246550   3.907   2.393   1.214  0.8939  0.9323 -2.7909
 8379TIP3   OH246551   6.471   0.104  14.430 -0.3305 -0.2701  0.2203
 8379TIP3    H146552   6.440   0.068  14.347 -1.0899  0.2625  0.2673
 8379TIP3    H246553   6.507   0.190  14.406 -1.5438  0.3634  0.5846
 8380TIP3   OH246554   3.904   1.958   4.858 -0.3526  0.2055 -0.0799
 8380TIP3    H146555   3.905   1.916   4.944  0.1141  0.0053 -0.1812
 8380TIP3    H246556   3.867   2.045   4.875 -0.5844  0.0459  0.2627
 8381TIP3   OH246557   1.388   0.222  15.754 -0.7575  0.3313 -0.3623
 8381TIP3    H146558   1.317   0.191  15.810  0.4031 -1.8506 -0.0349
 8381TIP3    H246559   1.468   0.195  15.798  0.2192 -0.0575 -2.2952
 8382TIP3   OH246560   2.305   3.422  12.840 -0.3293 -0.0462  0.2034
 8382TIP3    H146561   2.306   3.454  12.930 -0.1533 -1.5918  0.7877
 8382TIP3    H246562   2.225   3.457  12.803  0.4676  2.0918  0.3642
 8383TIP3   OH246563   0.965   2.562  16.800 -0.0697 -0.7726  0.7530
 8383TIP3    H146564   0.879   2.602  16.788  0.1355  0.7648  3.5583
 8383TIP3    H246565   0.961   2.520  16.886  1.7416 -1.3247  0.6212
 8384TIP3   OH246566   0.982   5.686  14.313  0.1167 -0.4285  0.3288
 8384TIP3    H146567   0.921   5.735  14.258  1.1555 -0.2336 -0.6828
 8384TIP3    H246568   0.943   5.598  14.319  0.3503 -0.6910 -1.4043
 8385TIP3   OH246569   0.943   5.811  13.015 -0.1914 -0.1108 -0.5185
 8385TIP3    H146570   1.034   5.791  12.992  0.0722  1.8024 -1.3435
 8385TIP3    H246571   0.919   5.884  12.958 -1.8443  0.2509  0.5566
 8386TIP3   OH246572   0.073   3.148  13.846  0.1419 -0.6616  0.0800
 8386TIP3    H146573  -0.017   3.132  13.873 -0.0548 -0.8177 -0.6429
 8386TIP3    H246574   0.095   3.233  13.885  0.1195 -1.2018  1.3047
 8387TIP3   OH246575   4.680   0.199  17.179 -0.4716 -1.2998  0.6948
 8387TIP3    H146576   4.688   0.168  17.270  0.8123 -0.7923  0.7707
 8387TIP3    H246577   4.592   0.236  17.174  0.2145  0.7917  2.4328
 8388TIP3   OH246578   6.340   0.548  12.623  0.3423 -0.1643  0.3825
 8388TIP3    H146579   6.398   0.485  12.666 -1.4705 -1.3966  1.1754
 8388TIP3    H246580   6.317   0.506  12.540  0.8090  0.4618 -0.0736
 8389TIP3   OH246581   0.108   6.480  14.942 -0.4127  0.3104  0.6332
 8389TIP3    H146582   0.152   6.416  14.999  0.4290  0.2505 -0.0613
 8389TIP3    H246583   0.100   6.434  14.858  1.3702  1.5439 -0.2596
 8390TIP3   OH246584   4.147   4.269  14.519  0.2777  0.0239  0.2311
 8390TIP3    H146585   4.082   4.336  14.542 -0.8890 -0.5137 -1.3056
 8390TIP3    H246586   4.113   4.189  14.559  0.3022 -0.1511 -0.1002
 8391TIP3   OH246587   3.551   5.434   4.526 -0.2660  0.3075 -0.3000
 8391TIP3    H146588   3.540   5.497   4.597 -0.2657  0.7174 -0.6612
 8391TIP3    H246589   3.636   5.394   4.543 -0.0793  0.6992 -0.3006
 8392TIP3   OH246590   4.083   2.854  14.350 -0.3565 -0.2450  0.2393
 8392TIP3    H146591   4.103   2.776  14.297  1.5905 -0.6268  1.4292
 8392TIP3    H246592   4.073   2.820  14.439 -2.3089  0.5474  0.3577
 8393TIP3   OH246593   6.022   2.025  11.817  0.6251  0.1669 -0.2571
 8393TIP3    H146594   5.983   1.987  11.896  1.9736  0.6208  0.6612
 8393TIP3    H246595   5.974   1.985  11.745 -1.9465  1.1623  0.7883
 8394TIP3   OH246596   2.673   4.479  11.366  0.1917 -0.0939 -0.3424
 8394TIP3    H146597   2.699   4.472  11.274 -0.7248  1.0476 -0.7135
 8394TIP3    H246598   2.577   4.477  11.363  0.1576 -0.2278  0.6111
 8395TIP3   OH246599   6.470   0.420   2.993 -0.3174 -0.0120  0.5100
 8395TIP3    H146600   6.472   0.344   2.936  0.0792 -0.3506  0.9649
 8395TIP3    H246601   6.420   0.392   3.070  0.5295 -0.0954  1.0505
 8396TIP3   OH246602   2.042   4.059  14.045 -0.0861 -0.0907 -0.3377
 8396TIP3    H146603   2.003   4.145  14.029 -1.7910 -0.7996 -0.2304
 8396TIP3    H246604   2.059   4.058  14.139 -0.0188  0.1445 -0.3473
 8397TIP3   OH246605   6.061   0.882  16.987 -0.0029  0.1047 -0.3142
 8397TIP3    H146606   6.105   0.866  16.904 -0.4651 -0.2396 -0.4976
 8397TIP3    H246607   5.991   0.944  16.967  0.6001  0.9104  0.0407
 8398TIP3   OH246608   6.370   6.134   1.891  0.1406 -0.1825 -0.3540
 8398TIP3    H146609   6.359   6.048   1.931 -1.7487 -0.9457 -2.3335
 8398TIP3    H246610   6.332   6.195   1.954  1.8901 -0.6488  1.2675
 8399TIP3   OH246611   1.376   2.928  15.470 -0.3667 -0.5654 -0.5916
 8399TIP3    H146612   1.398   3.009  15.515 -1.9640  0.4513 -1.5441
 8399TIP3    H246613   1.409   2.859  15.527 -1.0062  0.6904  1.3977
 8400TIP3   OH246614   6.200   0.349   1.709 -0.5130  0.2150  0.1693
 8400TIP3    H146615   6.234   0.259   1.707  0.4586  0.5913 -1.2306
 8400TIP3    H246616   6.109   0.340   1.678 -0.3109 -0.2499 -0.3150
 8401TIP3   OH246617   0.192   3.061  14.724 -0.1658 -0.7693  0.0054
 8401TIP3    H146618   0.265   3.101  14.676 -0.6622  0.6838  0.3964
 8401TIP3    H246619   0.225   2.976  14.752  2.5555  0.9691  2.7512
 8402TIP3   OH246620   4.807   6.662  14.016 -0.2026  0.0408  0.1530
 8402TIP3    H146621   4.831   6.574  14.045  0.1716  0.6951  1.9226
 8402TIP3    H246622   4.845   6.670  13.928 -1.0285 -1.8708 -0.4189
 8403TIP3   OH246623   5.461   5.283  12.434  0.3942 -0.3584  0.3479
 8403TIP3    H146624   5.394   5.352  12.440 -0.7336 -0.9228 -3.3663
 8403TIP3    H246625   5.542   5.331  12.418  0.0901  0.1715  0.3417
 8404TIP3   OH246626   4.878   6.376  17.071  0.0042  0.5222  0.4342
 8404TIP3    H146627   4.857   6.299  17.018 -0.0998  1.3902 -0.8440
 8404TIP3    H246628   4.793   6.415  17.091  0.1012  1.9741 -1.5782
 8405TIP3   OH246629   5.367   3.037   3.241  0.8927 -0.4127  0.0572
 8405TIP3    H146630   5.316   2.958   3.221 -1.5390  0.8310  0.9654
 8405TIP3    H246631   5.392   3.072   3.155 -1.4029 -0.1003 -0.5500
 8406TIP3   OH246632   0.689   4.503  13.295 -0.1569 -0.2687 -0.3913
 8406TIP3    H146633   0.680   4.508  13.200 -1.0303 -0.7722 -0.3436
 8406TIP3    H246634   0.643   4.580  13.328  2.1129  1.1927 -0.4505
 8407TIP3   OH246635   3.071   3.757   2.659  0.0769 -0.0859  0.5697
 8407TIP3    H146636   3.122   3.681   2.684 -2.0108 -1.9894 -0.5964
 8407TIP3    H246637   3.113   3.789   2.579  0.9806  0.0518  1.0861
 8408TIP3   OH246638   6.503   4.521   6.085  0.0852  0.5590 -0.1558
 8408TIP3    H146639   6.454   4.448   6.123 -0.4717  0.9750 -0.0667
 8408TIP3    H246640   6.577   4.479   6.041  1.0896  0.1186  1.8699
 8409TIP3   OH246641   1.814   0.502   3.617  0.2457 -0.3763  0.6057
 8409TIP3    H146642   1.756   0.576   3.595  1.8600  0.4017 -1.4809
 8409TIP3    H246643   1.820   0.452   3.535  1.0848 -1.4513  1.3036
 8410TIP3   OH246644   2.653   1.892  16.152  0.0848  0.3900 -0.4300
 8410TIP3    H146645   2.632   1.931  16.067  1.5867 -0.3420 -1.1702
 8410TIP3    H246646   2.674   1.801  16.132  0.0772  0.1091  0.7878
 8411TIP3   OH246647   1.519   2.065   1.811 -0.2992 -0.2774 -0.1137
 8411TIP3    H146648   1.501   2.014   1.732 -0.1545  0.2367 -0.4794
 8411TIP3    H246649   1.614   2.060   1.821 -0.3501 -0.6323  0.2298
 8412TIP3   OH246650   1.747   6.588   2.313  0.3089 -0.4411  0.4569
 8412TIP3    H146651   1.827   6.602   2.262 -0.2435  1.7422  0.0730
 8412TIP3    H246652   1.679   6.635   2.263 -1.0239 -1.4714  1.2414
 8413TIP3   OH246653   6.726   1.933   6.058  0.4997 -0.4481  0.3474
 8413TIP3    H146654   6.748   1.998   5.991 -0.3866 -0.3867  0.1116
 8413TIP3    H246655   6.727   1.982   6.140  3.1599 -0.8301  0.6425
 8414TIP3   OH246656   3.991   4.577   2.858  0.0693 -0.3926  0.2708
 8414TIP3    H146657   4.027   4.595   2.945  0.3384 -2.0561  0.5321
 8414TIP3    H246658   4.066   4.545   2.807 -0.0437  0.7424 -0.6565
 8415TIP3   OH246659   5.952   3.616  10.570  0.6284 -0.2157  0.0871
 8415TIP3    H146660   6.016   3.560  10.613  1.7122  0.4833 -0.5681
 8415TIP3    H246661   6.005   3.678  10.519 -0.4977  1.5332  0.9409
 8416TIP3   OH246662   1.194   5.691   2.409  0.2274 -0.1037  0.0857
 8416TIP3    H146663   1.163   5.781   2.412 -0.3252 -0.2871 -0.0033
 8416TIP3    H246664   1.163   5.651   2.490 -0.8623 -0.6321 -0.5740
 8417TIP3   OH246665   1.071   3.400  15.575  0.0081 -0.5395 -0.2210
 8417TIP3    H146666   1.153   3.406  15.526  0.1460 -2.0243 -0.2040
 8417TIP3    H246667   1.007   3.371  15.510  0.6720 -5.0284  0.7967
 8418TIP3   OH246668   2.405   2.732   2.082  0.1835 -0.5459  0.0731
 8418TIP3    H146669   2.452   2.811   2.110 -2.4637  1.3955 -0.6307
 8418TIP3    H246670   2.365   2.756   1.998  0.6457 -3.2434 -1.0115
 8419TIP3   OH246671   3.464   2.451  16.848  0.7541 -0.3059 -0.4658
 8419TIP3    H146672   3.555   2.419  16.846  1.5696  1.7440  0.7016
 8419TIP3    H246673   3.441   2.452  16.941 -0.6770 -1.2261 -0.7762
 8420TIP3   OH246674   3.572   6.407   1.989  0.2712 -0.1841  0.0489
 8420TIP3    H146675   3.589   6.345   1.918 -1.1275  2.9791 -3.3325
 8420TIP3    H246676   3.504   6.364   2.042 -0.7166 -1.5925 -2.1982
 8421TIP3   OH246677   4.637   1.053   0.791  0.9697  0.0784  0.3335
 8421TIP3    H146678   4.583   1.082   0.865  1.5188 -4.6692  2.9891
 8421TIP3    H246679   4.574   1.017   0.728  0.6788  2.0304 -0.5904
 8422TIP3   OH246680   5.776   2.231   4.011 -0.3873  0.0053  0.0183
 8422TIP3    H146681   5.830   2.273   4.078  0.8117  2.1373 -2.1488
 8422TIP3    H246682   5.721   2.302   3.977  0.7384 -0.4101 -2.8734
 8423TIP3   OH246683   3.674   1.733   4.174 -0.4087 -0.1881 -0.3263
 8423TIP3    H146684   3.736   1.728   4.247 -1.4895 -2.5192  0.5290
 8423TIP3    H246685   3.589   1.745   4.215 -0.7640  1.0733 -1.3738
 8424TIP3   OH246686   4.788   1.922  12.752 -0.3237  0.2082 -0.2993
 8424TIP3    H146687   4.870   1.916  12.801 -1.1808  0.2281  1.2090
 8424TIP3    H246688   4.758   2.012  12.768 -2.4706 -0.8570  2.3506
 8425TIP3   OH246689   4.209   0.701   4.795 -0.0727 -0.1362 -0.0318
 8425TIP3    H146690   4.191   0.768   4.861  0.5002 -0.1701  0.1614
 8425TIP3    H246691   4.166   0.734   4.716 -1.6572 -0.5951  0.6123
 8426TIP3   OH246692   1.306   1.967  10.736  0.0614 -0.6490 -0.5959
 8426TIP3    H146693   1.332   1.976  10.644  1.2705  0.2662 -0.1899
 8426TIP3    H246694   1.376   2.010  10.785 -2.1923  1.9045  0.5923
 8427TIP3   OH246695   4.420   0.326   2.367 -0.8226 -0.1676  0.1480
 8427TIP3    H146696   4.423   0.292   2.278  0.2818 -4.1395  1.5039
 8427TIP3    H246697   4.507   0.364   2.381 -0.9734  0.4035 -0.3937
 8428TIP3   OH246698   1.131   5.954   3.252  0.0983  0.5746  0.3375
 8428TIP3    H146699   1.067   6.024   3.239  0.2839  0.6515 -0.1994
 8428TIP3    H246700   1.170   5.941   3.165 -0.3811 -0.6310  0.2752
 8429TIP3   OH246701   6.126   1.820  11.527  0.1110  0.1815  0.0574
 8429TIP3    H146702   6.170   1.903  11.546 -1.3494  0.9900  0.0385
 8429TIP3    H246703   6.170   1.757  11.583  1.1572  0.9912  0.1828
 8430TIP3   OH246704   4.077   0.357  14.978  0.3589 -0.2326 -0.2418
 8430TIP3    H146705   3.997   0.384  15.023  0.4012 -0.0197 -0.2964
 8430TIP3    H246706   4.063   0.264  14.958 -0.2515  0.0281 -1.0648
 8431TIP3   OH246707   0.192   3.876   6.229  0.7162 -0.4490  0.1133
 8431TIP3    H146708   0.139   3.834   6.297 -0.8756 -0.8252 -1.3154
 8431TIP3    H246709   0.222   3.804   6.174  0.8390 -0.0179 -0.3919
 8432TIP3   OH246710   3.535   5.831   2.294  0.1390  0.7617 -0.0022
 8432TIP3    H146711   3.593   5.762   2.261 -0.3292  0.1358  0.4500
 8432TIP3    H246712   3.585   5.874   2.363  1.1853  2.1857 -1.5883
 8433TIP3   OH246713   4.056   4.857  16.960  0.6380  0.4795 -0.6039
 8433TIP3    H146714   4.028   4.768  16.936  3.0287 -0.5540  0.0565
 8433TIP3    H246715   4.107   4.887  16.884  3.4440 -0.5286  0.7401
 8434TIP3   OH246716   4.045   1.526  14.475 -0.0782 -0.3051  0.2308
 8434TIP3    H146717   4.103   1.450  14.463  0.5126  0.2072 -0.2518
 8434TIP3    H246718   4.097   1.587  14.529 -0.8410 -0.5496  1.2747
 8435TIP3   OH246719   0.374   6.115   4.349  0.1162 -0.2311 -0.3414
 8435TIP3    H146720   0.322   6.051   4.397 -1.5817  2.0005  1.0541
 8435TIP3    H246721   0.454   6.125   4.401  0.3573 -1.1400 -0.5321
 8436TIP3   OH246722   6.645   0.219  11.071  0.1303 -0.5518 -0.1723
 8436TIP3    H146723   6.562   0.264  11.086  0.9284  0.2234  2.3472
 8436TIP3    H246724   6.687   0.269  11.000 -0.4998  0.5785  0.2235
 8437TIP3   OH246725   2.519   3.134   6.845  0.3483  0.2468 -0.3651
 8437TIP3    H146726   2.431   3.100   6.829 -0.5656  2.2188  0.1736
 8437TIP3    H246727   2.554   3.079   6.915 -1.1498  0.5000  0.6308
 8438TIP3   OH246728   4.086   6.267   0.259  0.0207  0.4171 -0.0676
 8438TIP3    H146729   4.103   6.197   0.196 -0.4087  1.2817 -1.1880
 8438TIP3    H246730   4.078   6.222   0.344  0.6689 -0.7706 -0.6084
 8439TIP3   OH246731   2.951   1.683  13.616 -0.2350  0.3075 -0.3510
 8439TIP3    H146732   2.869   1.712  13.656  0.4957  1.0748  0.6496
 8439TIP3    H246733   2.941   1.705  13.523 -0.3139  2.4334  0.1114
 8440TIP3   OH246734   6.110   2.334   6.482 -0.6086  0.2062 -0.0337
 8440TIP3    H146735   6.044   2.390   6.522 -2.4120 -1.1864 -0.8801
 8440TIP3    H246736   6.194   2.368   6.513 -1.7566  1.4596  1.8515
 8441TIP3   OH246737   3.635   1.364   0.775  0.2360 -0.2215 -0.0364
 8441TIP3    H146738   3.579   1.413   0.835 -1.2391  0.1395 -1.6422
 8441TIP3    H246739   3.694   1.430   0.738  0.7616 -0.3493  0.5410
 8442TIP3   OH246740   1.653   5.081   1.959 -0.7971  0.2341  0.0173
 8442TIP3    H146741   1.686   5.074   1.869  0.2431  2.1018  0.2243
 8442TIP3    H246742   1.670   4.995   1.997  0.9856  0.1652 -0.8454
 8443TIP3   OH246743   1.911   0.992   5.448 -0.1347  0.1253 -0.6451
 8443TIP3    H146744   1.817   1.006   5.435 -0.0693 -0.5341 -2.0340
 8443TIP3    H246745   1.949   1.080   5.446 -0.6421  0.3437 -0.8876
 8444TIP3   OH246746   1.302   3.164  15.308  0.4099  0.0940 -0.2105
 8444TIP3    H146747   1.293   3.069  15.315 -0.6300  0.2952  1.8869
 8444TIP3    H246748   1.342   3.190  15.391 -2.6310  1.8022  0.8555
 8445TIP3   OH246749   5.396   5.319   3.261  0.3379 -0.0896 -0.1628
 8445TIP3    H146750   5.436   5.233   3.251  1.8677  0.4340  0.9476
 8445TIP3    H246751   5.471   5.379   3.270 -0.6697  1.4130 -1.2451
 8446TIP3   OH246752   4.214   3.112  13.699  0.3418  0.1318  0.0697
 8446TIP3    H146753   4.168   3.142  13.777  0.2975  0.3937 -0.0566
 8446TIP3    H246754   4.155   3.046  13.661 -0.5600  1.3957 -0.8082
 8447TIP3   OH246755   1.811   3.272   5.425  0.3072 -0.5260 -0.0070
 8447TIP3    H146756   1.791   3.182   5.448 -0.6694 -0.3917 -0.2606
 8447TIP3    H246757   1.871   3.266   5.351  2.0995 -0.9549  1.4287
 8448TIP3   OH246758   2.205   1.852  16.422 -1.2476 -0.4029 -0.1015
 8448TIP3    H146759   2.294   1.888  16.421 -0.6274 -1.8582 -0.2941
 8448TIP3    H246760   2.213   1.768  16.377 -1.4884 -3.1916  4.4008
 8449TIP3   OH246761   4.016   3.761  13.619 -0.3903 -0.3837 -0.1754
 8449TIP3    H146762   4.026   3.711  13.700 -0.1093  1.5695  1.0433
 8449TIP3    H246763   3.922   3.759  13.601 -0.5006 -0.4954  0.4023
 8450TIP3   OH246764   5.639   5.191  15.993 -0.1293  0.0339  0.2834
 8450TIP3    H146765   5.630   5.257  16.062  1.2657  2.3276 -1.5841
 8450TIP3    H246766   5.687   5.120  16.035 -0.7790  0.6018  2.1077
 8451TIP3   OH246767   1.055   2.149  14.487 -0.5154 -0.2118 -0.1073
 8451TIP3    H146768   1.117   2.075  14.489  0.7321  0.8101  2.2794
 8451TIP3    H246769   1.095   2.211  14.427  0.1241 -0.1162  0.4060
 8452TIP3   OH246770   3.919   1.353  12.304 -0.7163  0.5009  0.0791
 8452TIP3    H146771   3.884   1.411  12.236  1.0372  0.8549 -0.5663
 8452TIP3    H246772   3.946   1.275  12.257  0.1470  0.5876  0.4289
 8453TIP3   OH246773   2.884   6.048  14.880 -0.0909  0.2571 -0.0201
 8453TIP3    H146774   2.836   5.965  14.885 -2.6010  1.6897  3.1000
 8453TIP3    H246775   2.820   6.112  14.850  0.5501  1.7636  1.6235
 8454TIP3   OH246776   0.955   6.166  13.082 -0.3589  0.4667 -0.5350
 8454TIP3    H146777   0.928   6.169  13.173 -0.6398 -1.5433 -0.5132
 8454TIP3    H246778   1.024   6.233  13.075 -0.2202  0.5404  1.1693
 8455TIP3   OH246779   4.155   3.533  16.349 -0.1386 -0.1600  0.0835
 8455TIP3    H146780   4.157   3.562  16.440 -0.9058 -0.0062  0.0564
 8455TIP3    H246781   4.247   3.520  16.326 -0.0188 -2.0078  1.4361
 8456TIP3   OH246782   1.908   1.954   2.578  0.1510 -0.2887 -0.1917
 8456TIP3    H146783   1.891   1.982   2.668  3.4202  0.8897  0.2136
 8456TIP3    H246784   1.849   2.008   2.525 -0.2142  0.6690  1.1317
 8457TIP3   OH246785   5.773   2.459   0.767  0.1172 -0.3827  0.2550
 8457TIP3    H146786   5.843   2.412   0.721 -0.1076 -0.6746  0.2081
 8457TIP3    H246787   5.740   2.523   0.704  0.4302 -0.1502  0.3217
 8458TIP3   OH246788   2.346   1.344  16.039 -0.5006  0.5635  0.4582
 8458TIP3    H146789   2.400   1.280  16.084  0.1406 -0.2050 -1.2820
 8458TIP3    H246790   2.383   1.347  15.950  0.2523  4.2321  0.7597
 8459TIP3   OH246791   5.434   4.839  15.493 -0.5476 -0.0523 -0.4395
 8459TIP3    H146792   5.393   4.885  15.567 -1.5954 -0.5430 -0.6952
 8459TIP3    H246793   5.472   4.909  15.440  1.0239  0.2644  1.0030
 8460TIP3   OH246794   5.142   4.981  17.383  0.0787 -0.2699  0.2717
 8460TIP3    H146795   5.107   4.983  17.294 -0.7091  2.3134  0.5772
 8460TIP3    H246796   5.172   5.070  17.399 -1.7179 -0.0858  3.3048
 8461TIP3   OH246797   3.956   5.839  14.336  0.1275  0.0487 -0.2687
 8461TIP3    H146798   3.916   5.817  14.420  2.1184 -0.4960  0.5860
 8461TIP3    H246799   3.955   5.758  14.286  2.2115 -0.6134  0.6653
 8462TIP3   OH246800   4.530   0.869  14.628  0.0984 -0.0082 -0.0340
 8462TIP3    H146801   4.568   0.918  14.700 -1.0200  0.3794  0.3139
 8462TIP3    H246802   4.533   0.777  14.656  2.1551 -0.1794 -0.6705
 8463TIP3   OH246803   6.261   4.224   3.807 -0.1381 -0.7681 -0.6315
 8463TIP3    H146804   6.170   4.203   3.828  0.4476 -1.4300  1.5716
 8463TIP3    H246805   6.275   4.188   3.720 -1.7332 -1.4406 -0.6415
 8464TIP3   OH246806   3.599   4.935   4.022 -0.1265  0.5816  0.3787
 8464TIP3    H146807   3.521   4.974   4.063 -0.1626  1.3604 -0.3791
 8464TIP3    H246808   3.602   4.976   3.935  0.7851  0.0912  0.1714
 8465TIP3   OH246809   2.795   0.681   3.475  0.0454 -0.2523  0.3630
 8465TIP3    H146810   2.721   0.645   3.524 -0.2180 -1.5101 -0.8884
 8465TIP3    H246811   2.831   0.749   3.532 -0.5508 -1.3002  2.0737
 8466TIP3   OH246812   4.305   2.934  15.073 -0.2833 -0.5334 -0.4155
 8466TIP3    H146813   4.218   2.902  15.097 -0.6868  0.5196 -0.4317
 8466TIP3    H246814   4.314   3.017  15.120  0.7188 -0.6244 -0.4157
 8467TIP3   OH246815   1.580   1.171   6.161  0.0187 -0.2735  0.1477
 8467TIP3    H146816   1.587   1.078   6.184  0.4595 -0.2623  0.0726
 8467TIP3    H246817   1.628   1.216   6.231 -0.0295 -0.1180  0.0796
 8468TIP3   OH246818   2.423   2.623  11.905 -0.2759  0.7500  0.6858
 8468TIP3    H146819   2.499   2.660  11.951 -0.6352  0.0864  1.8594
 8468TIP3    H246820   2.348   2.669  11.942 -0.7140 -0.9286  2.0193
 8469TIP3   OH246821   2.380   3.355  13.480  0.4856  0.0651 -0.1309
 8469TIP3    H146822   2.405   3.406  13.403 -0.4326  0.1256 -0.4024
 8469TIP3    H246823   2.341   3.419  13.539 -1.6994 -0.4632 -0.9334
 8470TIP3   OH246824   4.617   0.891   3.275 -0.5663 -0.5550 -0.0869
 8470TIP3    H146825   4.587   0.962   3.332 -0.7398 -1.0242  0.4126
 8470TIP3    H246826   4.571   0.905   3.193 -1.0789 -0.4445  0.2149
 8471TIP3   OH246827   4.362   4.699  14.932 -0.4148  0.1114  0.0426
 8471TIP3    H146828   4.392   4.790  14.928  1.5293 -0.5398 -1.2405
 8471TIP3    H246829   4.302   4.691  14.858  0.9277 -0.1378 -1.0423
 8472TIP3   OH246830   5.532   1.984  16.382  0.5089  0.2002  0.2244
 8472TIP3    H146831   5.527   2.018  16.472 -1.3398  0.2487  0.1400
 8472TIP3    H246832   5.496   2.053  16.328 -2.3440 -1.3771 -0.0619
 8473TIP3   OH246833   3.441   2.659   1.987 -0.2221 -0.2889 -0.0105
 8473TIP3    H146834   3.390   2.722   2.037  0.2744  0.7648 -0.8065
 8473TIP3    H246835   3.424   2.575   2.031  0.6945  0.6559  2.3348
 8474TIP3   OH246836   2.734   2.040   1.802 -0.0805  1.1116  0.7660
 8474TIP3    H146837   2.763   2.124   1.835 -0.3763  0.8834  1.6294
 8474TIP3    H246838   2.799   2.016   1.736 -0.5561  2.4786 -0.2264
 8475TIP3   OH246839   1.575   1.438  16.936 -0.0497  0.1274  0.1310
 8475TIP3    H146840   1.580   1.365  16.874 -0.1722  0.4521 -0.2640
 8475TIP3    H246841   1.657   1.434  16.984 -0.1427 -0.3946  0.2486
 8476TIP3   OH246842   0.440   6.633  17.313  0.6097 -0.2281 -0.2371
 8476TIP3    H146843   0.521   6.620  17.361  1.1074 -0.9615 -1.2364
 8476TIP3    H246844   0.393   6.550  17.323  0.1516  0.0500 -0.0076
 8477TIP3   OH246845   3.989   6.272   2.965 -0.3771 -0.1719 -0.2142
 8477TIP3    H146846   3.961   6.226   3.045 -2.2934 -1.1191 -1.3383
 8477TIP3    H246847   3.945   6.357   2.970  1.1926  0.6369  0.6836
 8478TIP3   OH246848   2.989   2.141  12.465  0.0412 -0.0497 -0.0390
 8478TIP3    H146849   3.031   2.106  12.386  1.5521  1.1401  0.1910
 8478TIP3    H246850   2.963   2.064  12.514  0.5059 -0.8223 -0.9719
 8479TIP3   OH246851   5.544   5.801   0.844  0.2153 -0.7741  0.2747
 8479TIP3    H146852   5.638   5.817   0.857  0.2819  0.7045 -1.5545
 8479TIP3    H246853   5.524   5.728   0.902  2.0213  0.2576  2.3639
 8480TIP3   OH246854   4.457   0.989  15.912  0.0688 -0.0573 -0.0224
 8480TIP3    H146855   4.545   1.023  15.899 -0.4694  1.3884 -0.0835
 8480TIP3    H246856   4.399   1.059  15.879 -1.1164 -0.4532  1.1343
 8481TIP3   OH246857   3.488   0.391   1.033 -0.6826 -0.6396  0.6849
 8481TIP3    H146858   3.399   0.424   1.022  0.5232  2.5028 -1.5532
 8481TIP3    H246859   3.524   0.442   1.105  0.3071  1.0126 -0.8646
 8482TIP3   OH246860   4.545   0.963   6.929 -0.5761  0.1396 -0.3899
 8482TIP3    H146861   4.453   0.939   6.940  0.0890 -2.2984  0.5363
 8482TIP3    H246862   4.548   1.009   6.846 -2.5654 -0.1537 -0.6683
 8483TIP3   OH246863   0.195   4.325   2.852 -0.4486  0.2606 -0.5222
 8483TIP3    H146864   0.138   4.402   2.843  1.7563  2.1915  0.7350
 8483TIP3    H246865   0.262   4.353   2.915  1.0777 -2.3565 -0.8471
 8484TIP3   OH246866   2.631   0.139   5.547  0.4471  0.0539  0.3906
 8484TIP3    H146867   2.584   0.074   5.599 -0.5955 -0.0187 -0.5989
 8484TIP3    H246868   2.723   0.123   5.567  0.2940 -2.2775 -0.4075
 8485TIP3   OH246869   1.496   2.606   1.860  0.5857 -0.3979  0.3379
 8485TIP3    H146870   1.480   2.694   1.827 -1.3122  0.0003  2.0980
 8485TIP3    H246871   1.591   2.595   1.854  0.9522  2.0055  0.6237
 8486TIP3   OH246872   3.079   1.904  14.334  0.0070  0.3953 -0.5844
 8486TIP3    H146873   3.037   1.957  14.267 -2.6188  0.2073  0.7871
 8486TIP3    H246874   3.150   1.859  14.288 -1.8301  0.0626 -3.3125
 8487TIP3   OH246875   2.627   0.890   2.339 -0.0778  0.2432 -0.2453
 8487TIP3    H146876   2.688   0.819   2.353  0.2460  0.4518 -0.5751
 8487TIP3    H246877   2.627   0.940   2.421 -0.8280 -0.5241  0.2336
 8488TIP3   OH246878   2.682   0.957  14.001 -0.3369 -0.0782 -0.6372
 8488TIP3    H146879   2.587   0.957  14.013 -0.3967 -1.2284 -0.9944
 8488TIP3    H246880   2.693   0.939  13.907  0.2351  0.0288 -0.5890
 8489TIP3   OH246881   6.590   6.544   0.271 -0.4515  0.1148 -0.3809
 8489TIP3    H146882   6.564   6.627   0.312 -0.6084  0.6097 -1.4476
 8489TIP3    H246883   6.522   6.528   0.206 -0.0789 -0.5323 -0.6150
 8490TIP3   OH246884   6.364   0.505   5.237 -0.0046  0.5264 -0.2653
 8490TIP3    H146885   6.330   0.548   5.158 -0.3439  0.3809 -0.1984
 8490TIP3    H246886   6.391   0.418   5.208  0.1498  0.5802 -0.2828
 8491TIP3   OH246887   5.364   2.206  16.326 -0.1558 -0.1999  0.4075
 8491TIP3    H146888   5.384   2.254  16.406  1.0350  0.0145  0.0026
 8491TIP3    H246889   5.274   2.232  16.304  0.2235  1.3422  0.5564
 8492TIP3   OH246890   1.942   4.964  11.482 -0.3148  0.5572 -0.7752
 8492TIP3    H146891   1.907   4.889  11.435 -2.4499  1.5054 -0.8309
 8492TIP3    H246892   2.018   4.930  11.529 -0.0022 -1.1304 -2.3938
 8493TIP3   OH246893   4.303   1.125  17.041  0.5155 -0.3721 -0.0123
 8493TIP3    H146894   4.303   1.062  17.113  1.3055 -0.6322 -0.2355
 8493TIP3    H246895   4.242   1.088  16.977 -1.5235  0.6825  1.2087
 8494TIP3   OH246896   4.596   3.808   6.186  0.6083  0.4073 -0.5522
 8494TIP3    H146897   4.609   3.903   6.188 -1.0585  0.7041 -1.5371
 8494TIP3    H246898   4.593   3.786   6.093  1.9081 -0.7931 -0.3530
 8495TIP3   OH246899   6.180   5.920  14.829 -0.2720  0.2412  0.2556
 8495TIP3    H146900   6.260   5.939  14.779  1.4703 -2.9505  1.5463
 8495TIP3    H246901   6.111   5.917  14.763  1.0496  0.9350 -1.2401
 8496TIP3   OH246902   3.616   2.230  11.172  0.1355 -0.1013 -0.1518
 8496TIP3    H146903   3.619   2.303  11.109  0.1976  0.3950  0.4151
 8496TIP3    H246904   3.606   2.152  11.118 -1.2562  0.4371 -0.6966
 8497TIP3   OH246905   3.253   6.121  16.433 -0.5552  0.4228 -0.1315
 8497TIP3    H146906   3.254   6.195  16.373 -2.2875  3.0138  2.7477
 8497TIP3    H246907   3.161   6.107  16.452 -0.1178 -1.0592  1.0616
 8498TIP3   OH246908   5.353   0.224  15.004  0.4828  0.0280  0.1568
 8498TIP3    H146909   5.338   0.260  14.917  1.9084 -0.1930 -0.2213
 8498TIP3    H246910   5.309   0.139  15.002  0.5489 -0.0006 -0.3728
 8499TIP3   OH246911   3.887   0.659  13.091  0.7162  0.5686  0.4854
 8499TIP3    H146912   3.948   0.673  13.163 -0.2934 -0.2790  1.5664
 8499TIP3    H246913   3.867   0.565  13.095  1.1690  0.3603 -1.3626
 8500TIP3   OH246914   3.030   2.816  15.067  0.6381  0.1998  0.1729
 8500TIP3    H146915   3.100   2.824  15.002  1.6904 -1.6851  0.9672
 8500TIP3    H246916   3.062   2.748  15.127 -2.2603 -1.4336  0.0553
 8501TIP3   OH246917   0.966   4.099   4.470  0.6551  0.2898  0.2048
 8501TIP3    H146918   1.020   4.074   4.395 -0.0133  0.7156 -0.4272
 8501TIP3    H246919   0.877   4.081   4.442  0.4271  0.0537  1.0620
 8502TIP3   OH246920   0.919   3.533  14.222  0.4100 -0.4129 -0.5471
 8502TIP3    H146921   0.865   3.586  14.163  0.4481  1.8552  1.3093
 8502TIP3    H246922   0.864   3.457  14.243 -1.2732  0.8255 -0.2907
 8503TIP3   OH246923   0.299   0.458   4.604  0.5534  0.3381  0.8423
 8503TIP3    H146924   0.282   0.449   4.698 -0.8847 -0.4273  0.5334
 8503TIP3    H246925   0.373   0.401   4.587 -0.0564 -0.5979  1.2803
 8504TIP3   OH246926   0.930   2.383  12.170  0.6892  0.0735  0.1807
 8504TIP3    H146927   0.996   2.434  12.217  0.9987  0.7969 -0.9830
 8504TIP3    H246928   0.954   2.292  12.185  1.2038  0.3076  0.8059
 8505TIP3   OH246929   4.302   5.841  14.672  0.1122 -0.3742 -0.5869
 8505TIP3    H146930   4.297   5.857  14.766  1.0577  0.1436 -0.6140
 8505TIP3    H246931   4.274   5.750  14.661  0.4438 -0.5795  0.2459
 8506TIP3   OH246932   3.837   0.679   1.597 -0.1168 -0.3514 -0.0098
 8506TIP3    H146933   3.904   0.736   1.634 -0.2244  1.8414 -2.8748
 8506TIP3    H246934   3.882   0.596   1.581  1.9303  0.9356 -1.4774
 8507TIP3   OH246935   1.317   5.103   1.321  0.5979 -0.3411 -0.3522
 8507TIP3    H146936   1.339   5.011   1.305  1.7411 -0.0522 -0.5118
 8507TIP3    H246937   1.301   5.139   1.234  0.1125 -0.3994 -0.2865
 8508TIP3   OH246938   4.810   5.708   3.254  0.0941  0.0661 -0.1899
 8508TIP3    H146939   4.851   5.768   3.316 -2.2982  1.1440  0.4619
 8508TIP3    H246940   4.840   5.621   3.281 -0.4098  0.5441  2.1625
 8509TIP3   OH246941   3.347   4.163  12.077  0.3736 -0.7694  0.1324
 8509TIP3    H146942   3.413   4.213  12.029  1.7362 -1.8968  0.7501
 8509TIP3    H246943   3.331   4.085  12.023 -0.1511 -0.7029  0.1846
 8510TIP3   OH246944   5.997   5.189  13.533 -0.3423  0.5419  0.2390
 8510TIP3    H146945   5.940   5.216  13.605 -2.2732 -1.5592 -0.4068
 8510TIP3    H246946   5.947   5.123  13.485  1.1700  1.2781 -2.6074
 8511TIP3   OH246947   5.643   4.933   1.173  0.0692 -0.1145  0.2905
 8511TIP3    H146948   5.656   4.991   1.247 -0.3670 -0.5110  0.6910
 8511TIP3    H246949   5.583   4.866   1.206 -1.4195  0.5811 -0.8813
 8512TIP3   OH246950   1.707   5.888  16.124  0.4733  0.1473  0.1570
 8512TIP3    H146951   1.715   5.925  16.036  1.2807  1.5011  0.7647
 8512TIP3    H246952   1.797   5.871  16.151  0.3448  0.9886  1.2031
 8513TIP3   OH246953   1.135   0.090  10.824  0.5571 -0.3876  0.0424
 8513TIP3    H146954   1.216   0.041  10.837  1.4347  0.0967 -2.8554
 8513TIP3    H246955   1.130   0.102  10.729 -1.2261  2.4452  0.3975
 8514TIP3   OH246956   4.971   2.955   0.151 -0.5437  0.2222  0.1722
 8514TIP3    H146957   4.976   2.907   0.069  1.3294  0.8640 -0.1310
 8514TIP3    H246958   5.034   2.913   0.209 -0.8620  0.6203  0.8375
 8515TIP3   OH246959   4.840   6.018   2.086  0.1654  0.0285  0.2044
 8515TIP3    H146960   4.913   5.959   2.073  2.0740  2.6344 -2.4247
 8515TIP3    H246961   4.775   5.991   2.021  0.7162  0.2915 -0.4731
 8516TIP3   OH246962   6.014   3.830  17.375 -0.4184 -0.5747  0.7072
 8516TIP3    H146963   6.034   3.753  17.322 -2.1331 -0.0120 -0.8541
 8516TIP3    H246964   6.044   3.904  17.322 -2.6057  0.0292  0.2293
 8517TIP3   OH246965   1.420   1.533   3.358 -0.0440  0.0002 -0.1464
 8517TIP3    H146966   1.340   1.495   3.396 -0.4170  0.6595 -0.2497
 8517TIP3    H246967   1.403   1.627   3.358  0.4749  0.0962 -0.7789
 8518TIP3   OH246968   0.457   5.791   5.340 -0.0880 -0.0436  0.6247
 8518TIP3    H146969   0.432   5.699   5.350 -1.1592  0.0475 -0.7859
 8518TIP3    H246970   0.438   5.810   5.248  1.9561  1.0698  0.3831
 8519TIP3   OH246971   5.517   6.494   1.389 -0.0926  0.1262  0.1739
 8519TIP3    H146972   5.592   6.550   1.408 -0.3206  0.3348  0.4687
 8519TIP3    H246973   5.514   6.432   1.462 -0.8829  0.8390  0.7733
 8520TIP3   OH246974   2.437   4.427   5.601  0.3477 -0.2878 -0.2949
 8520TIP3    H146975   2.348   4.410   5.634  1.4600 -1.3849  2.5587
 8520TIP3    H246976   2.430   4.420   5.506 -2.7801  0.6484 -0.2246
 8521TIP3   OH246977   1.334   2.827   4.912  0.2107  0.2693 -0.0875
 8521TIP3    H146978   1.239   2.813   4.907  0.3969 -0.7893 -1.1511
 8521TIP3    H246979   1.355   2.822   5.005 -0.5853 -0.9106  0.0420
 8522TIP3   OH246980   1.238   1.272  17.226 -0.0199 -0.1590 -0.6519
 8522TIP3    H146981   1.291   1.311  17.157 -1.0197  1.1610 -0.7356
 8522TIP3    H246982   1.155   1.250  17.183 -0.1026 -0.7413 -0.2056
 8523TIP3   OH246983   4.063   0.831   3.082  0.5321 -0.4500  0.2602
 8523TIP3    H146984   4.022   0.785   3.009  2.2390  0.1429 -1.1365
 8523TIP3    H246985   4.027   0.920   3.078  0.3403 -0.5189  0.4023
 8524TIP3   OH246986   4.320   6.535   1.162  0.0658  0.3338 -0.5356
 8524TIP3    H146987   4.414   6.546   1.144  0.1851 -0.5238 -0.4637
 8524TIP3    H246988   4.297   6.612   1.214  1.3570 -0.7767  1.8478
 8525TIP3   OH246989   0.162   3.431   5.201 -0.0262  0.5162 -0.5508
 8525TIP3    H146990   0.227   3.427   5.131 -0.0464 -1.1239 -0.5039
 8525TIP3    H246991   0.213   3.446   5.280  0.3046 -0.5663 -0.5423
 8526TIP3   OH246992   4.635   4.657  14.245  0.4495 -0.2122  0.6908
 8526TIP3    H146993   4.678   4.623  14.166  2.4717 -2.0171  2.4456
 8526TIP3    H246994   4.559   4.600  14.257 -0.9490  1.2154 -0.8679
 8527TIP3   OH246995   2.197   2.204   6.030  0.2883 -0.2258 -0.3149
 8527TIP3    H146996   2.104   2.184   6.022  0.0100 -0.5222  2.5951
 8527TIP3    H246997   2.203   2.298   6.012 -0.9208  0.2167  1.3815
 8528TIP3   OH246998   3.428   4.718   5.861 -0.2794 -0.2644  0.3818
 8528TIP3    H146999   3.463   4.662   5.930 -0.2836 -1.2969 -0.4374
 8528TIP3    H247000   3.456   4.807   5.886  1.5289 -0.8507  0.6206
 8529TIP3   OH247001   4.732   6.118  17.168 -0.0605  0.9361  0.6651
 8529TIP3    H147002   4.642   6.084  17.160 -0.5007  2.0476  0.7140
 8529TIP3    H247003   4.771   6.104  17.082 -0.8193  1.9017  0.1442
 8530TIP3   OH247004   3.096   1.064  13.879 -0.6535  0.0631  0.1343
 8530TIP3    H147005   3.158   1.117  13.829 -0.9898 -0.6346 -1.0553
 8530TIP3    H247006   3.135   1.057  13.966  1.0042 -0.4858 -0.6196
 8531TIP3   OH247007   0.913   2.875   5.607  0.2887 -0.4910  0.4512
 8531TIP3    H147008   0.883   2.917   5.687  1.4021  0.8429  0.2061
 8531TIP3    H247009   0.980   2.934   5.572  0.3407 -1.3943 -1.0869
 8532TIP3   OH247010   4.647   6.587   0.817  0.6089 -0.5647 -0.5321
 8532TIP3    H147011   4.665   6.655   0.753  0.2607 -1.2182 -1.3508
 8532TIP3    H247012   4.716   6.523   0.804  1.0654 -0.2644  0.3891
 8533TIP3   OH247013   0.346   3.922   2.641  0.0224 -0.2069  0.6402
 8533TIP3    H147014   0.338   3.998   2.699 -1.4740 -0.8378  1.3293
 8533TIP3    H247015   0.419   3.943   2.583  0.5238  1.1475  1.7109
 8534TIP3   OH247016   5.207   5.590   6.592  0.8400 -0.7437 -0.3471
 8534TIP3    H147017   5.266   5.653   6.633 -0.8356  0.7218 -0.0673
 8534TIP3    H247018   5.261   5.512   6.578  2.5777  0.2088  0.7099
 8535TIP3   OH247019   4.178   4.710   3.389  0.1988  0.0535  0.5191
 8535TIP3    H147020   4.199   4.656   3.465  0.4695 -0.3857  0.1419
 8535TIP3    H247021   4.159   4.796   3.424 -1.2864 -0.5376  1.2591
 8536TIP3   OH247022   0.033   2.573   0.916  0.4375 -0.7958 -0.2305
 8536TIP3    H147023   0.044   2.620   0.999 -2.0787 -0.4247 -0.0068
 8536TIP3    H247024   0.016   2.482   0.942 -0.6260 -0.6277 -0.2839
 8537TIP3   OH247025   1.988   0.130   0.330 -0.3432  0.1747  0.0544
 8537TIP3    H147026   2.077   0.133   0.294 -0.3813 -1.7286 -0.2904
 8537TIP3    H247027   1.996   0.171   0.416  1.5442 -2.4285  1.2453
 8538TIP3   OH247028   2.496   6.436  14.371 -0.1991  0.1197 -0.2307
 8538TIP3    H147029   2.558   6.363  14.368 -0.0948  0.2312 -0.8430
 8538TIP3    H247030   2.459   6.432  14.460  1.2089  0.4926  0.4092
 8539TIP3   OH247031   5.885   0.452  12.941  0.3573  0.2715  0.4626
 8539TIP3    H147032   5.970   0.428  12.905  0.3702  0.2331  0.5177
 8539TIP3    H247033   5.823   0.391  12.901  0.0088  1.7015 -1.3136
 8540TIP3   OH247034   4.758   4.604  16.936  0.5199 -0.0731  0.5608
 8540TIP3    H147035   4.827   4.632  16.876  0.0243 -1.4878 -0.7336
 8540TIP3    H247036   4.793   4.624  17.023  1.7324  1.0023 -0.1274
 8541TIP3   OH247037   1.440   0.267  11.306 -0.6485 -0.3872  0.8010
 8541TIP3    H147038   1.400   0.183  11.333  2.1473 -1.9993  0.3063
 8541TIP3    H247039   1.456   0.256  11.212  1.6953 -0.2209  1.1343
 8542TIP3   OH247040   5.823   3.098  11.640  0.2050  0.2990  0.7059
 8542TIP3    H147041   5.817   3.146  11.723  0.6911  1.2101  0.2240
 8542TIP3    H247042   5.843   3.165  11.575  1.5136 -0.6515  0.1024
 8543TIP3   OH247043   2.132   2.451  17.026  0.1749  0.5183 -0.3347
 8543TIP3    H147044   2.091   2.526  16.982 -0.5525  1.4636  1.8134
 8543TIP3    H247045   2.110   2.376  16.972 -1.3310  1.5135 -1.1732
 8544TIP3   OH247046   5.067   4.176  15.621 -1.0326  0.7161  0.8848
 8544TIP3    H147047   5.135   4.241  15.640 -1.9980  2.1060 -0.2211
 8544TIP3    H247048   5.036   4.147  15.707 -0.1167  1.2155  1.3908
 8545TIP3   OH247049   2.360   1.235  11.779 -0.0604 -0.6073  0.2435
 8545TIP3    H147050   2.395   1.152  11.814  1.6337 -0.1570 -0.2856
 8545TIP3    H247051   2.347   1.290  11.856 -0.1701 -0.9944  0.5053
 8546TIP3   OH247052   6.610   5.124   4.032  0.4442 -0.3996  0.5657
 8546TIP3    H147053   6.606   5.157   3.943  2.9853 -1.2066  0.0962
 8546TIP3    H247054   6.532   5.068   4.040  0.9841 -1.5978 -1.7095
 8547TIP3   OH247055   5.552   0.310  12.044  0.0384  0.4933 -0.3678
 8547TIP3    H147056   5.511   0.387  12.003 -3.5677 -1.7244 -1.3545
 8547TIP3    H247057   5.602   0.269  11.973 -1.1578 -0.0488 -0.9238
 8548TIP3   OH247058   1.598   6.424   2.111 -0.0486 -0.1438  0.3196
 8548TIP3    H147059   1.594   6.518   2.093 -0.8223 -0.6297 -2.6090
 8548TIP3    H247060   1.692   6.404   2.116  0.1852  1.1735  4.1820
 8549TIP3   OH247061   0.622   1.639   0.656  0.4513  0.4879  0.8143
 8549TIP3    H147062   0.636   1.544   0.663 -0.5902  0.3365  1.1695
 8549TIP3    H247063   0.526   1.648   0.651  0.5929  1.4273 -0.8340
 8550TIP3   OH247064   5.596   6.698  16.278  0.0249  0.5719 -0.1075
 8550TIP3    H147065   5.549   6.641  16.339 -0.0507 -0.6602 -1.2564
 8550TIP3    H247066   5.528   6.751  16.236  0.0488  1.2207  0.6486
 8551TIP3   OH247067   5.930   2.527   6.585 -0.2594  0.1548  0.4205
 8551TIP3    H147068   5.948   2.621   6.587  1.5917 -0.1740  2.5298
 8551TIP3    H247069   5.842   2.519   6.623 -0.6030  1.0408 -0.1629
 8552TIP3   OH247070   5.787   4.293  16.562  0.4981 -0.3118  0.1508
 8552TIP3    H147071   5.747   4.207  16.574 -0.7040  0.0288 -1.1810
 8552TIP3    H247072   5.726   4.354  16.603  0.9963 -0.0116  0.4608
 8553TIP3   OH247073   3.732   6.592  11.821  0.1099  0.3134 -0.6513
 8553TIP3    H147074   3.697   6.619  11.736 -0.6924  0.1132 -0.3973
 8553TIP3    H247075   3.733   6.496  11.818  0.8175  0.3180 -0.7184
 8554TIP3   OH247076   2.400   0.741   1.171 -0.2959  0.1336  0.2803
 8554TIP3    H147077   2.461   0.676   1.137 -0.5315 -0.8028  1.5585
 8554TIP3    H247078   2.371   0.790   1.094  1.2084 -0.1204 -0.4923
 8555TIP3   OH247079   6.632   2.368  14.753 -0.4974 -0.3052  0.8880
 8555TIP3    H147080   6.676   2.302  14.806  2.7514 -1.3446 -2.6666
 8555TIP3    H247081   6.604   2.321  14.674 -3.7671  1.4304  0.8465
 8556TIP3   OH247082   2.153   6.509   2.029 -0.4283  0.1393 -0.5045
 8556TIP3    H147083   2.100   6.493   1.951 -0.3234  0.9652 -0.7554
 8556TIP3    H247084   2.243   6.498   2.000 -0.3266  1.5402 -0.7973
 8557TIP3   OH247085   5.028   1.269  17.463 -0.0548 -0.2115  0.0003
 8557TIP3    H147086   5.099   1.265  17.399 -0.4909 -2.4539 -0.4028
 8557TIP3    H247087   4.949   1.284  17.412 -0.0460  1.1354  0.3444
 8558TIP3   OH247088   3.526   5.652   2.720 -0.2984 -0.4918  0.2879
 8558TIP3    H147089   3.463   5.718   2.693 -1.2420 -1.1886  0.7581
 8558TIP3    H247090   3.565   5.621   2.638  0.1418  0.6197  0.0638
 8559TIP3   OH247091   5.307   5.499  12.401  0.5445 -0.4914 -0.1443
 8559TIP3    H147092   5.224   5.471  12.438 -0.0319 -0.1699 -1.1629
 8559TIP3    H247093   5.310   5.594  12.416 -0.2190 -0.1571 -1.8531
 8560TIP3   OH247094   3.337   3.162   1.289 -0.0165  0.3748 -0.2867
 8560TIP3    H147095   3.337   3.083   1.343 -0.1298  0.3099 -0.3810
 8560TIP3    H247096   3.275   3.221   1.332 -0.2214  0.2644 -0.4304
 8561TIP3   OH247097   4.432   0.764   1.052 -0.3008 -0.2592  0.5508
 8561TIP3    H147098   4.514   0.722   1.077 -0.0409 -0.4098 -0.5308
 8561TIP3    H247099   4.418   0.831   1.119  0.7470 -0.1749  0.7000
 8562TIP3   OH247100   5.252   2.807   1.345  0.4529  0.4808  0.5293
 8562TIP3    H147101   5.290   2.720   1.354 -0.2539  0.1946  0.8108
 8562TIP3    H247102   5.237   2.817   1.251 -1.8265 -0.7558  0.6917
 8563TIP3   OH247103   6.536   0.529   3.484 -0.4354 -0.2134  0.1466
 8563TIP3    H147104   6.452   0.574   3.485 -0.9342 -0.9691 -1.9305
 8563TIP3    H247105   6.516   0.439   3.509  0.0804  0.0152  1.4484
 8564TIP3   OH247106   4.870   4.612  15.314 -0.0569  0.7714  0.2072
 8564TIP3    H147107   4.922   4.590  15.392  0.2570 -0.1209 -0.2428
 8564TIP3    H247108   4.934   4.648  15.252  0.4825 -2.1094 -1.0889
 8565TIP3   OH247109   2.533   1.267  13.821 -0.0359 -0.5220 -0.4010
 8565TIP3    H147110   2.626   1.268  13.796  0.9332  0.8732  2.7047
 8565TIP3    H247111   2.505   1.177  13.805  2.3447 -1.4293  0.0764
 8566TIP3   OH247112   5.836   5.635  15.424 -0.0942  0.5870  0.1123
 8566TIP3    H147113   5.831   5.717  15.472  0.2340 -0.2786  1.6921
 8566TIP3    H247114   5.849   5.568  15.491 -0.2865 -0.7608 -1.1309
 8567TIP3   OH247115   3.891   3.540  16.086 -0.6278 -0.5017  0.5303
 8567TIP3    H147116   3.796   3.548  16.094 -0.6665 -0.4778  0.0890
 8567TIP3    H247117   3.920   3.510  16.172 -0.8492  1.0943  1.1808
 8568TIP3   OH247118   4.645   6.119  15.763  0.2591  0.1257  0.0080
 8568TIP3    H147119   4.622   6.139  15.672 -1.0821  0.8829  0.4677
 8568TIP3    H247120   4.565   6.139  15.812  0.9761 -0.2098  1.3646
 8569TIP3   OH247121   5.909   1.154   1.261  0.5390 -0.0161  0.3203
 8569TIP3    H147122   5.871   1.159   1.173 -0.5697 -2.4295  0.5923
 8569TIP3    H247123   5.870   1.228   1.308 -3.0652 -1.6438  0.2171
 8570TIP3   OH247124   0.312   2.294  16.944 -0.0573  0.0515 -0.3391
 8570TIP3    H147125   0.311   2.199  16.956 -0.6116  0.0624 -0.2465
 8570TIP3    H247126   0.269   2.308  16.860  2.2968  0.0814 -1.6189
 8571TIP3   OH247127   4.121   3.295   1.543  0.5129 -0.5457 -0.0142
 8571TIP3    H147128   4.122   3.248   1.627  1.6398  1.4202  1.1378
 8571TIP3    H247129   4.102   3.386   1.567  1.1696  0.1134 -1.8675
 8572TIP3   OH247130   4.901   5.865   3.470 -0.3871 -0.3864  0.2269
 8572TIP3    H147131   4.985   5.893   3.507  1.0895 -2.1281 -1.5502
 8572TIP3    H247132   4.853   5.946   3.455  0.6991  0.6198  1.8638
 8573TIP3   OH247133   3.861   6.046   0.265 -0.3596 -0.0450  0.2405
 8573TIP3    H147134   3.859   6.097   0.346 -1.1631 -0.1960  0.3187
 8573TIP3    H247135   3.933   5.984   0.278 -0.5016 -0.0926  0.8510
 8574TIP3   OH247136   2.934   5.606  11.796 -0.0787  0.2831  0.0856
 8574TIP3    H147137   3.007   5.545  11.805 -0.3560 -0.4014 -1.7950
 8574TIP3    H247138   2.974   5.689  11.773  0.2307  0.5569  1.5255
 8575TIP3   OH247139   0.441   4.369  13.526  0.1924  0.1235 -0.2230
 8575TIP3    H147140   0.475   4.456  13.544 -0.7013  0.2684  0.8836
 8575TIP3    H247141   0.501   4.310  13.571  0.4887  0.2093 -0.5092
 8576TIP3   OH247142   0.262   5.894  16.518 -0.5937  0.0346  0.1118
 8576TIP3    H147143   0.327   5.834  16.481  0.0737  0.7933  0.0265
 8576TIP3    H247144   0.234   5.947  16.443 -0.9853  0.0034  0.2369
 8577TIP3   OH247145   3.978   5.625  17.428  0.0465 -0.2523  0.6428
 8577TIP3    H147146   3.945   5.556  17.370 -0.9977 -1.1671  2.2532
 8577TIP3    H247147   3.948   5.707  17.388 -0.6833 -0.8516 -0.0716
 8578TIP3   OH247148   6.244   0.814  13.498  0.4774 -0.4824 -0.0075
 8578TIP3    H147149   6.319   0.866  13.470  0.8229 -0.7783  0.3472
 8578TIP3    H247150   6.173   0.839  13.438  0.3575  1.0912  0.7561
 8579TIP3   OH247151   6.584   1.476   0.188  0.3120 -0.5804 -0.5915
 8579TIP3    H147152   6.502   1.426   0.182 -1.3039  2.1075 -3.8783
 8579TIP3    H247153   6.642   1.434   0.125  0.7927 -1.2076  0.2378
 8580TIP3   OH247154   5.767   2.167  12.350 -0.1832 -0.5329 -0.1936
 8580TIP3    H147155   5.716   2.137  12.425  1.2683  0.0173  1.0436
 8580TIP3    H247156   5.755   2.262  12.350  0.2705 -0.4766 -0.3303
 8581TIP3   OH247157   0.489   2.779  11.936 -0.7647 -0.2676 -0.4973
 8581TIP3    H147158   0.467   2.725  12.012 -0.7470  1.0205  0.4622
 8581TIP3    H247159   0.410   2.830  11.919 -0.3469  0.3759 -0.5285
 8582TIP3   OH247160   3.579   5.636  15.559  0.1709  0.5565  0.1154
 8582TIP3    H147161   3.588   5.664  15.468 -0.1671  1.2465  0.2902
 8582TIP3    H247162   3.668   5.616  15.587  0.2774  0.3595 -0.3600
 8583TIP3   OH247163   6.233   2.092  17.469 -0.4584 -0.2535 -0.1693
 8583TIP3    H147164   6.203   2.182  17.479  0.3730 -0.0665  0.9294
 8583TIP3    H247165   6.296   2.080  17.540  1.5261 -0.8323 -1.9319
 8584TIP3   OH247166   6.365   6.742  14.196 -0.0604  0.1100 -0.0764
 8584TIP3    H147167   6.273   6.770  14.194  0.2328  1.0879 -0.3590
 8584TIP3    H247168   6.396   6.756  14.107  0.5043  0.2488  0.1410
 8585TIP3   OH247169   3.281   2.152  15.098 -0.0972  0.6543  0.5917
 8585TIP3    H147170   3.347   2.141  15.167  1.5273  0.5568 -0.9154
 8585TIP3    H247171   3.288   2.072  15.046 -1.8559  0.3764  0.7319
 8586TIP3   OH247172   4.592   3.025  12.499  0.1440 -0.1769 -1.2942
 8586TIP3    H147173   4.600   2.953  12.562 -0.3257  0.6973 -0.1949
 8586TIP3    H247174   4.555   2.984  12.421  1.5706 -1.4604 -1.3504
 8587TIP3   OH247175   1.263   1.898   0.580  0.7041 -0.7497 -0.1512
 8587TIP3    H147176   1.180   1.862   0.611  0.7948 -0.1444  0.8276
 8587TIP3    H247177   1.308   1.928   0.659  1.7437 -0.8256 -0.6950
 8588TIP3   OH247178   1.376   5.445   3.885 -0.1298  0.1330 -0.2461
 8588TIP3    H147179   1.365   5.421   3.793  0.3734 -1.9979  0.1907
 8588TIP3    H247180   1.393   5.362   3.930 -0.6168  1.0713  1.8276
 8589TIP3   OH247181   2.507   3.432  15.863 -0.4985  0.1750 -0.2805
 8589TIP3    H147182   2.478   3.514  15.824 -0.8841 -0.2214 -0.8406
 8589TIP3    H247183   2.496   3.445  15.957  0.8786  1.3158 -0.2310
 8590TIP3   OH247184   1.910   3.003   5.570 -0.3125  0.2172 -0.1216
 8590TIP3    H147185   1.997   2.981   5.604 -0.0867  1.7282  0.3941
 8590TIP3    H247186   1.884   2.928   5.517  1.7899  0.1701 -1.1972
 8591TIP3   OH247187   2.348   0.489   4.056  0.2518  0.3513  0.0479
 8591TIP3    H147188   2.433   0.459   4.024  1.0131  0.5254  1.7704
 8591TIP3    H247189   2.330   0.433   4.132 -0.7799  0.8457  0.1899
 8592TIP3   OH247190   6.471   4.061   1.088  0.2655  0.2262 -0.1297
 8592TIP3    H147191   6.402   4.059   1.022  2.4233  0.2147 -2.5258
 8592TIP3    H247192   6.522   3.982   1.071  2.2257  1.4201  0.0107
 8593TIP3   OH247193   5.596   4.528   1.057  0.0187 -0.8145  0.0452
 8593TIP3    H147194   5.586   4.562   0.968  0.3337 -0.7906  0.0165
 8593TIP3    H247195   5.508   4.531   1.095  0.3447  2.0425  0.7851
 8594TIP3   OH247196   1.371   4.907   5.769  0.2460  0.5501  0.0856
 8594TIP3    H147197   1.417   4.960   5.703 -0.0442  0.6450 -0.0421
 8594TIP3    H247198   1.440   4.858   5.813  0.6864  1.9695  1.0667
 8595TIP3   OH247199   3.219   3.544   2.991  0.2609 -0.3089 -0.4726
 8595TIP3    H147200   3.223   3.633   2.956  0.6202 -0.1727 -0.0905
 8595TIP3    H247201   3.305   3.529   3.031 -0.3715 -0.1680  1.0247
 8596TIP3   OH247202   3.882   2.277   0.719  0.3072  0.0290 -0.3437
 8596TIP3    H147203   3.898   2.363   0.759 -1.0493 -0.7970  2.1566
 8596TIP3    H247204   3.970   2.244   0.699  0.9061  1.4967 -0.2885
 8597TIP3   OH247205   3.788   4.554   6.770 -0.2698  0.5696  0.1772
 8597TIP3    H147206   3.831   4.622   6.718 -0.0005  1.3103  1.3418
 8597TIP3    H247207   3.813   4.573   6.860 -1.9063  0.1842  0.7530
 8598TIP3   OH247208   4.068   6.535  12.577 -0.0433  0.1526 -0.0775
 8598TIP3    H147209   4.163   6.522  12.564 -0.1466  0.1973 -0.9517
 8598TIP3    H247210   4.043   6.596  12.508 -0.8367 -0.4087 -0.2985
 8599TIP3   OH247211   2.366   4.442  12.537 -0.1264 -0.1408  0.3583
 8599TIP3    H147212   2.346   4.448  12.630  1.1745  0.5398  0.6257
 8599TIP3    H247213   2.416   4.361  12.528  1.5900  0.8194  0.6695
 8600TIP3   OH247214   2.671   2.322   4.856 -0.7184  0.2602 -0.7111
 8600TIP3    H147215   2.644   2.234   4.831 -1.4635  0.1238  0.4595
 8600TIP3    H247216   2.666   2.322   4.952  1.1436  0.9940 -0.5742
 8601TIP3   OH247217   2.730   0.100  11.295  0.1170 -0.1291  0.4368
 8601TIP3    H147218   2.674   0.113  11.372  0.7009  0.5655  0.7528
 8601TIP3    H247219   2.672   0.114  11.221  0.8975  7.3755  0.4839
 8602TIP3   OH247220   5.903   5.295   1.058 -0.0214 -0.0571  0.1695
 8602TIP3    H147221   5.821   5.337   1.032  0.9934  0.6485 -2.1092
 8602TIP3    H247222   5.957   5.294   0.978  0.9792 -3.4755  0.7102
 8603TIP3   OH247223   4.567   4.548   2.517  0.1484  0.5309 -0.0778
 8603TIP3    H147224   4.627   4.579   2.585 -1.6909  2.4409  0.7982
 8603TIP3    H247225   4.539   4.628   2.472 -2.2030 -0.1821 -0.0151
 8604TIP3   OH247226   0.195   1.762   3.972  0.4859  0.1420  0.2150
 8604TIP3    H147227   0.268   1.703   3.991  1.0464  0.8563  0.3359
 8604TIP3    H247228   0.118   1.705   3.968  1.2359 -0.8159 -1.3047
 8605TIP3   OH247229   1.379   6.143  12.976  0.0533 -0.7122  0.2583
 8605TIP3    H147230   1.383   6.202  13.051 -1.1742 -0.2620 -0.0108
 8605TIP3    H247231   1.298   6.167  12.931 -0.5258 -2.6706  0.1925
 8606TIP3   OH247232   2.039   1.728  13.956  0.1382 -0.1640 -0.3446
 8606TIP3    H147233   2.085   1.802  13.995 -0.0269  0.3823 -1.1651
 8606TIP3    H247234   1.967   1.709  14.017  0.8229 -0.3681  0.4222
 8607TIP3   OH247235   6.075   4.295   1.046  0.2045  0.0221 -0.4612
 8607TIP3    H147236   6.095   4.352   1.120 -0.7833  1.5058 -1.2795
 8607TIP3    H247237   6.021   4.225   1.084  1.8815 -0.7476  0.6499
 8608TIP3   OH247238   6.543   4.657   2.006  0.1940  0.0402 -0.2160
 8608TIP3    H147239   6.524   4.565   1.987 -0.7721  0.5535 -1.9339
 8608TIP3    H247240   6.637   4.666   1.989  0.5180 -0.8422  0.9984
 8609TIP3   OH247241   2.293   0.178  14.736 -0.2529 -0.8073 -0.5780
 8609TIP3    H147242   2.274   0.221  14.819  1.3320 -1.1351 -0.0064
 8609TIP3    H247243   2.224   0.112  14.727 -0.3075 -0.9364  0.6118
 8610TIP3   OH247244   5.516   5.493  15.450 -0.3169  0.0237 -0.1861
 8610TIP3    H147245   5.588   5.542  15.491 -0.6449  0.7351 -0.4494
 8610TIP3    H247246   5.469   5.454  15.523  1.3410 -1.9406 -0.0600
 8611TIP3   OH247247   0.379   1.520   0.570 -0.6209 -0.1895  0.2349
 8611TIP3    H147248   0.459   1.469   0.583 -0.4544 -0.9253 -2.9101
 8611TIP3    H247249   0.310   1.468   0.609 -0.0178 -1.3022 -0.1528
 8612TIP3   OH247250   3.576   6.170   1.429  0.4947  0.5713  0.3211
 8612TIP3    H147251   3.634   6.118   1.485 -0.9952  0.9133  2.3041
 8612TIP3    H247252   3.489   6.135   1.445 -0.0470  0.8837 -1.6349
 8613TIP3   OH247253   3.471   1.383   6.659  0.6462  0.3506  0.3108
 8613TIP3    H147254   3.395   1.414   6.610 -0.4677  1.9390  2.8528
 8613TIP3    H247255   3.542   1.383   6.595 -0.8189  1.8033 -1.4355
 8614TIP3   OH247256   4.930   4.460   6.685 -0.9311  0.3759 -0.2156
 8614TIP3    H147257   4.954   4.376   6.646  0.0989  0.3888  0.3401
 8614TIP3    H247258   4.897   4.437   6.772  2.4128  0.6560  1.3114
 8615TIP3   OH247259   1.070   4.578  12.477  0.2923 -0.8014  0.2601
 8615TIP3    H147260   1.094   4.593  12.385 -1.0122  1.1816  0.1871
 8615TIP3    H247261   1.050   4.665  12.511  0.1962 -1.5685  2.2914
 8616TIP3   OH247262   3.171   2.443   0.663  0.1645 -0.8520  0.5653
 8616TIP3    H147263   3.228   2.405   0.596  1.6293 -0.5415  1.5775
 8616TIP3    H247264   3.232   2.473   0.731 -1.1509  0.5115  1.1836
 8617TIP3   OH247265   2.885   5.168  14.372 -0.3775  0.1808  0.9165
 8617TIP3    H147266   2.921   5.205  14.453 -1.0504  1.3508  0.7188
 8617TIP3    H247267   2.958   5.167  14.311  0.4079 -1.6982  1.8161
 8618TIP3   OH247268   5.537   0.925   1.927  0.4060  0.1188 -0.1331
 8618TIP3    H147269   5.445   0.944   1.946  0.9686  2.6421  0.5020
 8618TIP3    H247270   5.548   0.947   1.835  0.7958  2.1480  0.3281
 8619TIP3   OH247271   6.727   1.728   0.637 -0.3446 -0.7404 -0.5931
 8619TIP3    H147272   6.677   1.752   0.559 -0.9996 -0.7726 -0.1897
 8619TIP3    H247273   6.812   1.772   0.626 -2.2292  4.0741  1.2343
 8620TIP3   OH247274   3.252   5.220  17.162  0.1309  0.0018 -0.0144
 8620TIP3    H147275   3.163   5.225  17.196  0.4197  0.3443  0.7137
 8620TIP3    H247276   3.266   5.305  17.118  0.4825  0.4103  0.8647
 8621TIP3   OH247277   6.226   0.716   1.353  0.4518  0.0967 -0.4067
 8621TIP3    H147278   6.132   0.698   1.356  0.4700  0.1015  1.8431
 8621TIP3    H247279   6.233   0.801   1.310 -0.6546  0.4481  0.0777
 8622TIP3   OH247280   1.722   0.815   5.247  0.1155  0.2712 -0.3466
 8622TIP3    H147281   1.792   0.760   5.280 -0.3296  0.1032  0.3294
 8622TIP3    H247282   1.688   0.767   5.171  1.0907  0.6281 -1.0283
 8623TIP3   OH247283   6.505   2.226   0.058  0.3214  0.0125 -0.0396
 8623TIP3    H147284   6.598   2.215   0.077  0.3325  0.5820  0.2554
 8623TIP3    H247285   6.502   2.255  -0.033  0.4466  0.1548  0.0009
 8624TIP3   OH247286   2.492   1.675   5.819  0.3490 -0.4986  0.0058
 8624TIP3    H147287   2.561   1.610   5.808  1.0210  0.2494 -0.2452
 8624TIP3    H247288   2.457   1.658   5.906  1.8200  0.0204  0.7262
 8625TIP3   OH247289   0.670   5.499   5.576  0.2021  0.4222  0.2285
 8625TIP3    H147290   0.699   5.587   5.597  0.4655  0.5261 -0.5347
 8625TIP3    H247291   0.586   5.511   5.533  0.8765  0.4176 -1.1343
 8626TIP3   OH247292   0.673   1.865   2.141  0.2769  0.2356 -0.2039
 8626TIP3    H147293   0.681   1.904   2.054  0.9414  0.1746 -0.1756
 8626TIP3    H247294   0.635   1.778   2.125 -4.2056  1.9168 -0.0195
 8627TIP3   OH247295   2.589   2.642  11.674  0.0199 -0.3198  0.2191
 8627TIP3    H147296   2.534   2.613  11.746  0.4983  0.2523  0.8287
 8627TIP3    H247297   2.553   2.599  11.597 -0.9860 -0.3193  0.6817
 8628TIP3   OH247298   6.198   0.652   0.480 -0.5231 -0.0784  0.3157
 8628TIP3    H147299   6.124   0.601   0.447 -0.7436 -0.5770  1.5287
 8628TIP3    H247300   6.161   0.739   0.498 -0.9527 -0.4637  1.3787
 8629TIP3   OH247301   3.118   5.954  11.940 -0.4586  0.6289 -0.6011
 8629TIP3    H147302   3.054   5.916  11.880 -1.0357  2.0928 -0.9575
 8629TIP3    H247303   3.169   6.014  11.885  0.2604  0.5887 -0.0037
 8630TIP3   OH247304   5.204   3.303   4.215 -0.1674 -0.3158 -0.4351
 8630TIP3    H147305   5.263   3.254   4.158  1.7018  1.1348  0.1228
 8630TIP3    H247306   5.174   3.377   4.162  2.6637  1.8260  0.6564
 8631TIP3   OH247307   5.764   6.633   1.979 -0.0638  0.1770 -0.1808
 8631TIP3    H147308   5.727   6.588   2.055  1.4180 -2.1661 -0.7652
 8631TIP3    H247309   5.746   6.575   1.905 -0.0153  1.6197 -1.3738
 8632TIP3   OH247310   0.721   3.337   5.955  0.0742  0.2787  0.4415
 8632TIP3    H147311   0.627   3.349   5.939  0.2307  0.6586 -0.2017
 8632TIP3    H247312   0.741   3.398   6.026 -0.0932  0.4447  0.3446
 8633TIP3   OH247313   4.062   4.193  15.047  0.6526 -0.4283 -0.1169
 8633TIP3    H147314   4.040   4.149  14.965 -3.0389  0.7213  0.0491
 8633TIP3    H247315   4.095   4.279  15.020  0.7237 -0.5468 -0.4055
 8634TIP3   OH247316   2.118   2.637   0.864 -0.6175 -0.2330 -0.7982
 8634TIP3    H147317   2.173   2.601   0.794  1.2000 -0.4605  0.6651
 8634TIP3    H247318   2.132   2.577   0.937 -0.0895  1.6115  0.6763
 8635TIP3   OH247319   4.687   2.426   0.152  0.2529 -0.7156 -0.0337
 8635TIP3    H147320   4.697   2.459   0.063  1.7360  2.7036  1.2246
 8635TIP3    H247321   4.776   2.404   0.180  0.2632  1.0104  1.4698
 8636TIP3   OH247322   1.883   0.625   5.922 -0.2083  0.1971 -0.5114
 8636TIP3    H147323   1.910   0.716   5.911 -0.3616  0.2955 -0.0796
 8636TIP3    H247324   1.944   0.588   5.985 -2.2256  0.9831  2.0940
 8637TIP3   OH247325   3.912   1.081  14.184  0.6599  0.0369 -0.4515
 8637TIP3    H147326   3.868   1.091  14.269  0.0578  1.4640 -0.8958
 8637TIP3    H247327   3.915   0.986  14.169 -1.3311 -0.1609  0.1064
 8638TIP3   OH247328   2.130   3.496   2.236 -0.3060 -0.0851 -0.2500
 8638TIP3    H147329   2.168   3.473   2.320  1.7242 -1.2710 -1.4061
 8638TIP3    H247330   2.047   3.449   2.233 -0.2099 -0.3527  0.9127
 8639TIP3   OH247331   1.599   3.478   5.401  0.1518  0.2661  0.2949
 8639TIP3    H147332   1.562   3.527   5.474 -0.1916 -1.0518  1.0354
 8639TIP3    H247333   1.673   3.431   5.438  0.5103  0.2631 -0.4089
 8640TIP3   OH247334   4.370   2.238   0.446 -0.3351  0.2759 -0.0885
 8640TIP3    H147335   4.441   2.284   0.490 -0.3871  0.3697 -0.1025
 8640TIP3    H247336   4.318   2.307   0.405  0.3444  0.1097 -1.2517
 8641TIP3   OH247337   5.189   0.005   5.160  0.1407  0.1831  0.1044
 8641TIP3    H147338   5.186  -0.081   5.202  0.8161 -1.0876 -2.2504
 8641TIP3    H247339   5.277   0.038   5.179 -0.0577  0.2840  0.8653
 8642TIP3   OH247340   6.117   5.000  16.018 -0.1817 -0.0354  0.2926
 8642TIP3    H147341   6.084   5.052  15.945 -0.2468 -0.7500 -0.1998
 8642TIP3    H247342   6.042   4.991  16.076 -0.8861 -1.5939 -0.7907
 8643TIP3   OH247343   5.266   1.037   4.736  0.5402 -0.0204 -0.3060
 8643TIP3    H147344   5.291   0.947   4.753  0.9389 -0.0047 -0.7661
 8643TIP3    H247345   5.349   1.085   4.732  0.4034  0.1603 -1.1844
 8644TIP3   OH247346   3.837   2.791  15.098 -0.6083 -0.2489  0.3780
 8644TIP3    H147347   3.742   2.785  15.106 -0.7464  0.0424 -0.9219
 8644TIP3    H247348   3.853   2.883  15.077 -0.3330 -0.9067 -2.7556
 8645TIP3   OH247349   6.590   3.474   0.349 -0.2190 -0.0568 -0.6424
 8645TIP3    H147350   6.618   3.389   0.382 -1.5307 -0.1823  0.1997
 8645TIP3    H247351   6.670   3.513   0.311  0.3459 -1.7437 -1.2738
 8646TIP3   OH247352   6.119   0.052  14.133  0.9052 -0.1408  0.3224
 8646TIP3    H147353   6.064   0.130  14.123 -0.5221 -0.6425  3.0729
 8646TIP3    H247354   6.059  -0.016  14.162  2.2025 -2.2019 -1.4871
 8647TIP3   OH247355   0.726   5.646  13.051  0.2566 -0.1929 -0.1642
 8647TIP3    H147356   0.692   5.657  13.140 -0.8837  0.2057 -0.6313
 8647TIP3    H247357   0.806   5.699  13.049 -0.2417  0.5860  0.3304
 8648TIP3   OH247358   0.737   6.743   3.876  0.3096 -0.2374  0.0168
 8648TIP3    H147359   0.689   6.672   3.918  0.1141  1.1673  2.3337
 8648TIP3    H247360   0.670   6.797   3.834 -0.0536  0.8013  1.8228
 8649TIP3   OH247361   0.023   1.224   2.931 -0.6943 -0.3833  0.2104
 8649TIP3    H147362  -0.030   1.185   3.001  1.0968 -1.4242  1.0515
 8649TIP3    H247363   0.092   1.160   2.915 -0.2599  0.4752 -1.5610
 8650TIP3   OH247364   5.991   4.124   3.777 -0.6901  0.3223 -0.0805
 8650TIP3    H147365   5.931   4.162   3.714 -0.8869 -1.0630 -0.7648
 8650TIP3    H247366   5.987   4.030   3.760  1.4703  0.1658  0.0312
 8651TIP3   OH247367   1.751   1.248   0.536  0.2931 -0.3880 -0.0097
 8651TIP3    H147368   1.672   1.194   0.544  1.1471 -1.6996 -0.2309
 8651TIP3    H247369   1.786   1.253   0.624 -0.0656  0.2925  0.1095
 8652TIP3   OH247370   3.345   1.657   3.495  0.3697  0.2507 -1.1439
 8652TIP3    H147371   3.326   1.661   3.402  2.4330 -1.4367 -1.7325
 8652TIP3    H247372   3.312   1.571   3.523  1.1482  0.0694 -0.7296
 8653TIP3   OH247373   5.556   0.241   4.949 -0.0194 -0.0444  0.2285
 8653TIP3    H147374   5.622   0.281   4.892  0.2381  1.2346  1.3576
 8653TIP3    H247375   5.540   0.155   4.911  0.8659  0.3798 -1.1874
 8654TIP3   OH247376   1.330   4.072  13.158  0.2023 -0.2273  0.3472
 8654TIP3    H147377   1.242   4.081  13.194  0.6049 -1.4393  1.7423
 8654TIP3    H247378   1.339   4.145  13.097 -1.7792 -0.1287  0.1305
 8655TIP3   OH247379   1.112   2.564  16.012  0.6388 -0.1158 -0.0417
 8655TIP3    H147380   1.162   2.562  16.094  0.6717 -0.4019 -0.0680
 8655TIP3    H247381   1.136   2.648  15.972  0.3419  0.1965  0.4142
 8656TIP3   OH247382   6.023   2.264  14.338 -0.4494 -0.3390 -0.1556
 8656TIP3    H147383   6.010   2.353  14.373  0.3953  0.5354 -1.9194
 8656TIP3    H247384   6.060   2.215  14.411 -1.0409  0.7164  0.9001
 8657TIP3   OH247385   1.761   1.835  13.016  0.3336  0.2750  0.3792
 8657TIP3    H147386   1.817   1.763  12.986 -0.5836 -0.3508  0.1204
 8657TIP3    H247387   1.821   1.896  13.058  1.0712 -0.8887  1.0678
 8658TIP3   OH247388   1.525   0.659   0.774  0.7443 -0.4795  0.4222
 8658TIP3    H147389   1.574   0.736   0.803  0.2550 -0.8628  2.4125
 8658TIP3    H247390   1.592   0.592   0.761  1.0305 -0.1281  0.0485
 8659TIP3   OH247391   0.651   2.017  14.349  0.2483 -0.0641 -0.4607
 8659TIP3    H147392   0.599   2.060  14.416 -0.5387  2.3133 -2.4505
 8659TIP3    H247393   0.729   1.986  14.395  0.4971  2.8704  1.3065
 8660TIP3   OH247394   4.902   1.348  15.714 -0.4577 -0.1930 -0.0257
 8660TIP3    H147395   4.817   1.381  15.686  0.1453  1.7696  0.3387
 8660TIP3    H247396   4.934   1.297  15.639 -1.6670 -0.4354 -0.3935
 8661TIP3   OH247397   5.997   4.991   4.564  0.5840  0.2154 -0.0246
 8661TIP3    H147398   6.021   4.898   4.556 -0.9977 -0.0845 -2.2383
 8661TIP3    H247399   6.079   5.038   4.548  0.9993 -0.7943 -0.9805
 8662TIP3   OH247400   5.095   0.278   0.110  0.1118 -0.0916 -0.1816
 8662TIP3    H147401   5.124   0.234   0.189  0.3580 -0.6541 -0.5763
 8662TIP3    H247402   5.149   0.357   0.105 -0.2795  0.2222  0.4883
 8663TIP3   OH247403   1.373   5.917  12.732  0.8479  0.0821  0.0540
 8663TIP3    H147404   1.379   5.993  12.790  0.5954 -0.5397  0.9129
 8663TIP3    H247405   1.463   5.899  12.705  0.7346  1.9272 -1.8368
 8664TIP3   OH247406   5.750   1.851  11.782  0.0136 -0.3671  0.5459
 8664TIP3    H147407   5.684   1.782  11.785 -0.4723  0.0786  0.2455
 8664TIP3    H247408   5.752   1.878  11.690  0.5134 -0.2798  0.5809
 8665TIP3   OH247409   4.103   1.051  15.689 -0.1646 -0.1731 -0.3152
 8665TIP3    H147410   4.100   1.080  15.780 -0.6940 -1.5064  0.1074
 8665TIP3    H247411   4.017   1.074  15.653  0.4138  1.3408 -0.8246
 8666TIP3   OH247412   4.472   1.336  17.153  0.3307  0.1786  0.0822
 8666TIP3    H147413   4.545   1.305  17.099  0.0451 -2.0017  0.8608
 8666TIP3    H247414   4.399   1.279  17.130 -0.7544  1.4060  0.3699
 8667TIP3   OH247415   0.313   4.404   6.102  0.0136 -0.0177 -0.1984
 8667TIP3    H147416   0.376   4.431   6.035 -1.2875  1.4718 -0.8820
 8667TIP3    H247417   0.276   4.322   6.068  1.9199 -1.2572  0.5011
 8668TIP3   OH247418   4.971   5.221   3.347 -0.2154 -0.4534 -0.3687
 8668TIP3    H147419   4.986   5.315   3.339  0.9506 -0.4718  1.2374
 8668TIP3    H247420   4.896   5.204   3.290  0.5009  1.1748 -1.8955
 8669TIP3   OH247421   6.240   1.547  13.578  0.5840  0.3741  0.2315
 8669TIP3    H147422   6.324   1.521  13.617  0.0945 -0.1673  0.9455
 8669TIP3    H247423   6.174   1.501  13.630 -0.0400 -3.1725 -3.2245
 8670TIP3   OH247424   1.305   6.036   4.278 -0.7348  0.2028  0.1707
 8670TIP3    H147425   1.374   5.996   4.226 -0.7333 -1.5967  1.4624
 8670TIP3    H247426   1.229   6.039   4.220 -0.0899  0.4890 -0.6711
 8671TIP3   OH247427   0.572   2.744  12.365  0.4660 -0.4290  0.8283
 8671TIP3    H147428   0.557   2.697  12.283 -1.1786  1.2532  0.0875
 8671TIP3    H247429   0.666   2.764  12.364  1.1693 -3.3114  1.0464
 8672TIP3   OH247430   0.488   0.556   4.853  0.6476 -0.6584 -0.4023
 8672TIP3    H147431   0.401   0.573   4.889  0.2973 -0.0058 -1.5079
 8672TIP3    H247432   0.549   0.593   4.917 -0.0004  2.0761 -1.2653
 8673TIP3   OH247433   4.804   4.072  11.922  0.6782  0.1072  0.3183
 8673TIP3    H147434   4.739   4.033  11.864  0.1230 -0.0125  1.0103
 8673TIP3    H247435   4.803   4.166  11.900  0.2629  0.1074  0.3329
 8674TIP3   OH247436   1.520   5.894   5.192  0.0859 -0.5522 -0.0290
 8674TIP3    H147437   1.487   5.923   5.107  0.6720 -1.5900 -0.6310
 8674TIP3    H247438   1.441   5.883   5.246 -0.1709  1.8016  0.1497
 8675TIP3   OH247439   1.060   4.037  12.128  0.2790  0.9033 -0.1386
 8675TIP3    H147440   0.966   4.039  12.109  0.4153  0.0411 -1.0527
 8675TIP3    H247441   1.098   3.992  12.052  1.4333  1.2527  0.2118
 8676TIP3   OH247442   0.830   5.087  12.705 -0.3482  0.1121 -0.0377
 8676TIP3    H147443   0.815   5.161  12.647  0.3868  0.6660  0.4595
 8676TIP3    H247444   0.845   5.127  12.791 -0.4435 -0.6428  0.3398
 8677TIP3   OH247445   6.514   0.690  11.737  0.3884  0.8793  0.5321
 8677TIP3    H147446   6.421   0.696  11.758  0.3558  1.4605  0.2566
 8677TIP3    H247447   6.524   0.743  11.658  1.0804  1.4237  0.9713
 8678TIP3   OH247448   2.057   3.620  12.439  0.6482  0.2450 -0.3202
 8678TIP3    H147449   2.027   3.591  12.352 -0.6845  0.3951  0.0698
 8678TIP3    H247450   1.976   3.632  12.489  1.3876  0.5603  0.8214
 8679TIP3   OH247451   1.676   3.480   2.707  0.2025  0.1220 -0.2004
 8679TIP3    H147452   1.667   3.538   2.783 -2.0962  0.3664 -0.5790
 8679TIP3    H247453   1.623   3.403   2.730  1.0709 -0.6639 -0.7788
 8680TIP3   OH247454   5.388   3.610  12.307  0.4140  0.1536 -0.1467
 8680TIP3    H147455   5.327   3.616  12.233 -0.6144  0.1486  0.6912
 8680TIP3    H247456   5.355   3.673  12.371  2.2103  1.3505 -0.3119
 8681TIP3   OH247457   2.458   2.812   6.211 -0.6540  0.0019 -0.2299
 8681TIP3    H147458   2.526   2.844   6.271  0.9957  0.2479 -2.1350
 8681TIP3    H247459   2.414   2.742   6.259  2.4096 -1.6934  0.3295
 8682TIP3   OH247460   1.133   0.316   2.830  0.4723 -0.0977  0.0713
 8682TIP3    H147461   1.172   0.370   2.761 -1.5249  1.2475 -0.1059
 8682TIP3    H247462   1.096   0.380   2.891  0.9799 -1.2850  1.6746
 8683TIP3   OH247463   4.364   3.748   1.701  0.9070 -0.0493  0.3256
 8683TIP3    H147464   4.442   3.752   1.756 -0.4862  0.4917  2.3706
 8683TIP3    H247465   4.351   3.838   1.670  0.6437  0.0295  0.6611
 8684TIP3   OH247466   6.136   4.111  16.031  0.1228  0.2193  0.0823
 8684TIP3    H147467   6.206   4.107  16.096  0.1313 -1.0273  0.0221
 8684TIP3    H247468   6.179   4.143  15.951 -0.0321  2.4738  0.8280
 8685TIP3   OH247469   1.086   3.894   5.444 -0.0168  0.7798 -0.3721
 8685TIP3    H147470   1.017   3.830   5.427 -1.0087  1.3728  1.1813
 8685TIP3    H247471   1.045   3.958   5.502  1.9319  1.0063  0.8493
 8686TIP3   OH247472   5.244   5.307   3.522 -0.3559 -0.3338 -0.3798
 8686TIP3    H147473   5.152   5.324   3.500 -0.1418  1.6594  0.0706
 8686TIP3    H247474   5.285   5.287   3.438 -1.2071 -1.3496 -0.5745
 8687TIP3   OH247475   1.209   1.381   3.055  0.7937  0.0935 -0.1039
 8687TIP3    H147476   1.120   1.405   3.079  0.6757  1.2238 -1.4884
 8687TIP3    H247477   1.211   1.286   3.059 -0.3362  0.0842  0.4270
 8688TIP3   OH247478   2.170   5.131   1.803  0.1785  0.2226  0.7788
 8688TIP3    H147479   2.204   5.044   1.826  2.1814  0.3669 -1.2340
 8688TIP3    H247480   2.245   5.189   1.813 -0.4619  1.2600 -0.2276
 8689TIP3   OH247481   3.040   5.011  16.380  0.8326 -0.0719 -0.2974
 8689TIP3    H147482   3.035   4.932  16.327 -0.7021 -0.3420  0.2244
 8689TIP3    H247483   3.024   4.982  16.469  0.9317  0.7260 -0.0105
 8690TIP3   OH247484   5.418   2.328   2.603 -0.1583 -0.1793  0.0213
 8690TIP3    H147485   5.424   2.420   2.578  1.7605  0.2052  1.6219
 8690TIP3    H247486   5.501   2.290   2.573  0.3117 -0.6773  1.8340
 8691TIP3   OH247487   5.063   2.287   0.578  0.0971 -1.0054  0.3280
 8691TIP3    H147488   5.027   2.248   0.658 -0.7494 -0.0632  0.4364
 8691TIP3    H247489   5.068   2.215   0.516 -1.0801 -1.3796  0.6338
 8692TIP3   OH247490   2.418   2.477  11.499 -0.3482  0.6921 -0.8542
 8692TIP3    H147491   2.325   2.500  11.500 -0.1575  1.5030  0.5791
 8692TIP3    H247492   2.440   2.471  11.406 -1.3815  2.4699 -1.2625
 8693TIP3   OH247493   6.186   6.326  15.849  0.3169 -0.2677  0.3452
 8693TIP3    H147494   6.096   6.303  15.873  0.1448 -0.9947 -0.9260
 8693TIP3    H247495   6.198   6.289  15.762  1.0074  2.0472 -0.6109
 8694TIP3   OH247496   0.611   0.065   5.620  0.2378 -0.4680  0.0802
 8694TIP3    H147497   0.574   0.053   5.707  0.0892 -0.4755  0.0171
 8694TIP3    H247498   0.694   0.112   5.635  0.7268 -1.3865  0.3063
 8695TIP3   OH247499   6.322   6.125  11.882  0.5671 -0.2782 -0.8695
 8695TIP3    H147500   6.288   6.061  11.819  1.7947  0.4497 -2.3290
 8695TIP3    H247501   6.265   6.115  11.958 -0.0767 -2.2025 -1.5342
 8696TIP3   OH247502   0.904   2.339   2.796 -0.7916  0.1990  0.4585
 8696TIP3    H147503   0.873   2.430   2.792 -0.1851  0.3816 -0.2649
 8696TIP3    H247504   0.849   2.292   2.734 -0.8471  0.1423  0.5493
 8697TIP3   OH247505   6.015   1.235  12.272  0.4298  0.2041  0.5477
 8697TIP3    H147506   5.936   1.222  12.325 -0.6813  2.0558 -0.5340
 8697TIP3    H247507   6.056   1.313  12.310  1.9982 -0.9279  1.3171
 8698TIP3   OH247508   6.310   6.294   2.590  0.4188 -0.0856 -0.7667
 8698TIP3    H147509   6.371   6.364   2.611 -1.0573  1.4640 -1.3920
 8698TIP3    H247510   6.248   6.333   2.528 -1.5282 -1.3888  0.2312
 8699TIP3   OH247511   4.371   2.595   3.415 -0.3316 -0.0504 -0.0300
 8699TIP3    H147512   4.284   2.566   3.388 -0.0586  0.2101 -1.2813
 8699TIP3    H247513   4.418   2.515   3.436 -1.9233 -0.0933  4.3851
 8700TIP3   OH247514   6.426   0.789   4.025 -0.0105  0.9697  0.6243
 8700TIP3    H147515   6.490   0.723   4.001 -0.7683  0.6489 -0.6097
 8700TIP3    H247516   6.456   0.869   3.983 -0.3313  0.8504  0.1571
 8701TIP3   OH247517   5.316   3.927  16.877 -0.1842  0.6832 -0.4638
 8701TIP3    H147518   5.382   3.882  16.930 -1.2968 -0.8458 -0.3375
 8701TIP3    H247519   5.328   3.893  16.788  0.3975  1.8031 -0.8400
 8702TIP3   OH247520   1.750   4.834  11.311 -0.2320 -0.0419  0.9040
 8702TIP3    H147521   1.757   4.750  11.265  0.4616  0.7309 -0.4757
 8702TIP3    H247522   1.673   4.876  11.273  0.2677  0.5455  0.5101
 8703TIP3   OH247523   2.556   0.325   4.640 -0.6990 -0.7994  0.6112
 8703TIP3    H147524   2.564   0.400   4.581  3.3684  0.6087  2.5718
 8703TIP3    H247525   2.536   0.363   4.725  0.7359 -1.9541  1.5050
 8704TIP3   OH247526   1.270   1.425   0.741 -0.5407 -0.3690  0.0074
 8704TIP3    H147527   1.191   1.447   0.691  0.1100 -0.3811 -1.0531
 8704TIP3    H247528   1.337   1.411   0.674  0.1151 -1.3546  0.8509
 8705TIP3   OH247529   5.285   6.197  11.783 -0.2159  0.2107 -0.5893
 8705TIP3    H147530   5.256   6.259  11.850 -0.0505 -1.5138  1.1643
 8705TIP3    H247531   5.322   6.252  11.714 -0.6246  2.0777  0.6167
 8706TIP3   OH247532   3.461   3.015   0.412 -0.5301 -0.0645 -0.0415
 8706TIP3    H147533   3.388   2.965   0.376 -1.3798  0.8535  0.3268
 8706TIP3    H247534   3.483   2.971   0.494 -1.6988  0.4866  0.6034
 8707TIP3   OH247535   4.712   1.483   6.728  0.0408 -0.3628 -0.3702
 8707TIP3    H147536   4.617   1.475   6.739  0.2251 -0.9462  0.9110
 8707TIP3    H247537   4.725   1.576   6.709 -0.6946 -0.0540  0.5412
 8708TIP3   OH247538   3.199   0.911   5.638 -0.7327  0.3106 -0.7834
 8708TIP3    H147539   3.204   0.868   5.552  0.1404  0.2359 -0.7079
 8708TIP3    H247540   3.134   0.861   5.687 -0.2270 -0.5026 -0.9337
 8709TIP3   OH247541   3.505   3.986  11.615  0.0389  0.3169  0.7088
 8709TIP3    H147542   3.531   3.974  11.524 -0.6534  3.4406 -0.0198
 8709TIP3    H247543   3.409   3.987  11.612 -0.0134 -0.5577  1.6576
 8710TIP3   OH247544   3.884   1.557  16.275 -0.4546  0.2856 -0.9057
 8710TIP3    H147545   3.805   1.538  16.324  1.3874 -3.1897  1.0995
 8710TIP3    H247546   3.917   1.639  16.312 -2.0172  0.6937 -0.3794
 8711TIP3   OH247547   2.838   5.445   1.906 -0.5059  0.1802 -0.3763
 8711TIP3    H147548   2.910   5.465   1.847  0.0914  0.8909  0.5646
 8711TIP3    H247549   2.804   5.531   1.932 -1.5927 -0.1402 -0.6735
 8712TIP3   OH247550   2.113   3.150   5.993  0.2647 -0.1614  0.1217
 8712TIP3    H147551   2.164   3.097   6.054  0.1914  1.1066  1.3267
 8712TIP3    H247552   2.026   3.110   5.994  0.2237 -0.0815  0.9787
 8713TIP3   OH247553   4.290   0.572   1.981  0.2855  0.2484  0.6271
 8713TIP3    H147554   4.336   0.628   2.044 -0.2349 -0.1314  1.3597
 8713TIP3    H247555   4.335   0.588   1.898  1.4503  0.2291  1.2269
 8714TIP3   OH247556   2.674   5.088  16.469 -0.4670 -0.6240  0.1158
 8714TIP3    H147557   2.743   5.024  16.488  0.0439 -0.2532 -0.4396
 8714TIP3    H247558   2.658   5.080  16.375  0.2096  0.6107 -0.1415
 8715TIP3   OH247559   0.040   3.999   3.399 -0.4504  0.3116  0.0023
 8715TIP3    H147560  -0.019   4.042   3.337 -1.1846  2.1776  1.8571
 8715TIP3    H247561   0.117   4.056   3.402 -0.5376  0.4018  0.9536
 8716TIP3   OH247562   0.014   2.452  15.050  0.2408  0.0985 -0.2379
 8716TIP3    H147563   0.047   2.367  15.079  1.1229  0.4477 -0.1895
 8716TIP3    H247564  -0.040   2.431  14.974 -0.7979 -0.6536  0.6883
 8717TIP3   OH247565   5.381   2.682   3.978 -0.1194  0.3149 -0.3728
 8717TIP3    H147566   5.455   2.661   4.034 -0.6634 -0.2142  0.1589
 8717TIP3    H247567   5.311   2.705   4.039 -0.4822  0.5280 -0.8611
 8718TIP3   OH247568   4.217   3.744   1.394  0.3711  0.2661 -0.9702
 8718TIP3    H147569   4.238   3.832   1.363 -0.8504  0.7964 -0.3403
 8718TIP3    H247570   4.163   3.758   1.471 -1.0302 -1.0380 -1.6770
 8719TIP3   OH247571   0.509   4.251  11.208 -0.2043  0.0836  0.0833
 8719TIP3    H147572   0.559   4.285  11.134 -0.4581  0.1942 -0.0368
 8719TIP3    H247573   0.445   4.319  11.227 -0.8364 -0.3959 -0.2806
 8720TIP3   OH247574   0.606   2.652   4.835 -0.1559  0.1202  0.4166
 8720TIP3    H147575   0.580   2.598   4.761  0.6546 -1.0315  0.9371
 8720TIP3    H247576   0.702   2.659   4.827  0.0526 -0.7744  1.8250
 8721TIP3   OH247577   4.198   4.773  15.154  0.1640  0.1297 -0.2011
 8721TIP3    H147578   4.267   4.833  15.181  0.8056 -1.1879  1.1797
 8721TIP3    H247579   4.192   4.784  15.059  2.0534  0.4843 -0.3005
 8722TIP3   OH247580   0.399   1.493  13.468  0.0265 -0.0127 -0.4774
 8722TIP3    H147581   0.484   1.451  13.453  0.3090  0.8133 -1.3011
 8722TIP3    H247582   0.375   1.468  13.557 -0.1354 -2.4486 -1.1348
 8723TIP3   OH247583   2.681   2.375   5.793  0.3664 -0.2552  0.0025
 8723TIP3    H147584   2.714   2.313   5.729 -0.1398 -0.6179  0.0919
 8723TIP3    H247585   2.675   2.458   5.745 -0.1480 -0.5583 -0.4548
 8724TIP3   OH247586   3.235   0.297  14.706  0.0023  0.3379 -0.8294
 8724TIP3    H147587   3.289   0.226  14.671  0.7599  0.4000  0.1748
 8724TIP3    H247588   3.293   0.373  14.709 -0.1015  0.3966  0.2972
 8725TIP3   OH247589   6.234   6.417   1.723  0.0667  0.2690  0.4386
 8725TIP3    H147590   6.285   6.424   1.804  1.2911  0.2600 -0.3166
 8725TIP3    H247591   6.270   6.484   1.666 -0.9634  0.4464 -0.0296
 8726TIP3   OH247592   5.880   3.403   5.771  0.3393  0.1285 -0.6422
 8726TIP3    H147593   5.975   3.396   5.786  0.4995  0.3488 -1.5023
 8726TIP3    H247594   5.871   3.404   5.676 -0.3429  2.3063 -0.6100
 8727TIP3   OH247595   6.610   1.454   0.622 -0.4365  0.0316  0.0712
 8727TIP3    H147596   6.599   1.452   0.717  1.1104  0.3245  0.2802
 8727TIP3    H247597   6.647   1.540   0.603 -0.3376 -0.1767 -0.7504
 8728TIP3   OH247598   1.366   1.530   5.123 -0.0675 -0.1035  0.2478
 8728TIP3    H147599   1.338   1.448   5.163 -0.7626 -0.3868 -0.7940
 8728TIP3    H247600   1.357   1.595   5.193 -0.3158 -0.7567  0.8345
 8729TIP3   OH247601   4.663   1.535  15.366  0.3240  0.1263  0.3314
 8729TIP3    H147602   4.613   1.460  15.333  1.1293 -1.0298  1.6316
 8729TIP3    H247603   4.686   1.511  15.456  1.5649  1.4561  0.4072
 8730TIP3   OH247604   4.359   4.931   1.985 -0.1985  0.2856  0.0065
 8730TIP3    H147605   4.264   4.930   1.970 -0.3132  1.6851  0.4948
 8730TIP3    H247606   4.376   4.849   2.032 -0.7774 -1.1087 -2.1108
 8731TIP3   OH247607   2.052   5.237  12.976 -0.0693  0.2334  0.1049
 8731TIP3    H147608   2.089   5.185  13.047 -0.3697 -1.5672 -0.9969
 8731TIP3    H247609   2.106   5.215  12.900  1.3480  3.4339  0.0366
 8732TIP3   OH247610   3.734   4.371  14.747 -0.0208 -0.3267 -0.0294
 8732TIP3    H147611   3.728   4.294  14.690 -0.3271 -0.9933  0.8701
 8732TIP3    H247612   3.643   4.398  14.760  0.1381  2.2770 -2.9868
 8733TIP3   OH247613   5.165   3.250   5.910 -0.7744 -0.1744 -0.1705
 8733TIP3    H147614   5.218   3.195   5.968  0.2100  1.2602  0.3531
 8733TIP3    H247615   5.145   3.194   5.835  1.1643 -0.9213 -0.2001
 8734TIP3   OH247616   0.648   5.985  16.262  0.1518  0.4008  0.4687
 8734TIP3    H147617   0.730   5.952  16.226 -0.2461  0.7444 -0.8134
 8734TIP3    H247618   0.609   5.910  16.307  2.1344  0.7634  2.9998
 8735TIP3   OH247619   1.262   4.368   3.869 -0.7799  0.2957  0.7580
 8735TIP3    H147620   1.272   4.329   3.956  1.4573 -2.3143 -0.5221
 8735TIP3    H247621   1.325   4.321   3.814 -4.4280 -0.6533 -3.1043
 8736TIP3   OH247622   0.003   2.525   3.219  0.0387 -0.2583  0.6295
 8736TIP3    H147623  -0.072   2.538   3.277  1.7890  0.7126  2.8613
 8736TIP3    H247624  -0.013   2.584   3.145 -0.5533  1.3890  2.0015
 8737TIP3   OH247625   3.854   5.283  13.722  0.1588 -0.0010  0.1732
 8737TIP3    H147626   3.846   5.315  13.811 -1.0527  1.8283 -0.5433
 8737TIP3    H247627   3.925   5.335  13.683 -0.6713  0.6472 -0.5048
 8738TIP3   OH247628   2.973   4.020  13.349 -0.5530 -0.2459  0.3211
 8738TIP3    H147629   2.938   4.047  13.264 -2.0167  0.1039  0.9946
 8738TIP3    H247630   2.898   3.982  13.394  0.5054 -1.6479  0.9754
 8739TIP3   OH247631   4.301   4.292  16.458  0.1968  0.4516 -0.1995
 8739TIP3    H147632   4.308   4.203  16.494  1.8562  0.3719 -0.6405
 8739TIP3    H247633   4.320   4.281  16.364  0.9733  1.3277 -0.1547
 8740TIP3   OH247634   6.458   3.089  13.459 -0.4004  0.0530 -0.2220
 8740TIP3    H147635   6.413   3.009  13.485 -2.1179  0.4296 -1.8411
 8740TIP3    H247636   6.454   3.145  13.537  1.8020 -1.7224  1.3174
 8741TIP3   OH247637   0.567   3.510   2.422 -0.3901 -0.2116  0.3183
 8741TIP3    H147638   0.543   3.433   2.370 -1.6668  0.2022  0.2725
 8741TIP3    H247639   0.484   3.553   2.441  0.1475  0.2704  1.7388
 8742TIP3   OH247640   2.044   5.790   0.118  0.8130 -0.5369 -0.5752
 8742TIP3    H147641   1.964   5.832   0.150  0.5079 -1.1233 -0.5570
 8742TIP3    H247642   2.080   5.853   0.056  0.6457 -0.0168 -0.1526
 8743TIP3   OH247643   1.009   3.913   4.881 -0.4990 -0.4408  0.0216
 8743TIP3    H147644   0.943   3.873   4.825  0.1949 -0.3634 -0.8836
 8743TIP3    H247645   1.017   3.854   4.956 -0.4115 -1.3210 -0.6715
 8744TIP3   OH247646   5.973   3.188  13.243  0.2151  0.0432  0.4289
 8744TIP3    H147647   5.917   3.123  13.286 -1.1614 -1.1235 -2.8097
 8744TIP3    H247648   6.062   3.153  13.251 -0.2052 -0.9557  0.8876
 8745TIP3   OH247649   3.458   2.340   0.154 -0.1117  0.8431 -0.0623
 8745TIP3    H147650   3.480   2.383   0.071  0.2763  0.8983  0.0656
 8745TIP3    H247651   3.476   2.407   0.220  0.0636  0.6354  0.1026
 8746TIP3   OH247652   3.796   0.869  11.783 -0.5253 -0.5452 -0.3887
 8746TIP3    H147653   3.851   0.802  11.742  1.8046  1.0436 -0.0483
 8746TIP3    H247654   3.785   0.936  11.714 -0.3043  0.0907  0.1838
 8747TIP3   OH247655   4.265   3.479   1.336 -0.8148 -0.2022  0.2292
 8747TIP3    H147656   4.284   3.573   1.332 -1.9711  0.0228 -0.6142
 8747TIP3    H247657   4.234   3.464   1.425 -1.5105  0.4123  0.0999
 8748TIP3   OH247658   1.358   5.871  14.580  0.4562  0.1528  0.5136
 8748TIP3    H147659   1.305   5.903  14.506  1.5481 -1.2059 -0.9302
 8748TIP3    H247660   1.409   5.947  14.607  0.3888  0.5673 -0.4763
 8749TIP3   OH247661   4.736   6.719   3.676  0.0148 -0.0279 -0.5219
 8749TIP3    H147662   4.690   6.793   3.715 -1.8032 -1.1243 -0.5032
 8749TIP3    H247663   4.696   6.642   3.715  1.2037 -1.0666 -1.2748
 8750TIP3   OH247664   1.334   0.666   5.016  0.1944  0.3296 -0.3899
 8750TIP3    H147665   1.401   0.712   4.967 -0.4687  1.1290 -0.5763
 8750TIP3    H247666   1.375   0.584   5.044  0.5034 -0.3026 -2.5422
 8751TIP3   OH247667   3.794   1.803   2.687  0.0562 -0.6837 -0.0969
 8751TIP3    H147668   3.705   1.776   2.665  0.4243 -2.1657  0.1257
 8751TIP3    H247669   3.846   1.724   2.675  1.5786  0.4509 -1.4672
 8752TIP3   OH247670   1.414   6.710  15.476 -0.7394  0.0766  0.1757
 8752TIP3    H147671   1.396   6.802  15.498 -0.0032  0.1462  0.5160
 8752TIP3    H247672   1.369   6.696  15.393 -0.7938  0.7751  0.0828
 8753TIP3   OH247673   3.413   5.074  15.480  0.4313 -0.2922 -0.0964
 8753TIP3    H147674   3.338   5.117  15.521  1.2080 -0.5437  1.6749
 8753TIP3    H247675   3.376   4.995  15.440 -0.6138  0.7819 -1.3599
 8754TIP3   OH247676   3.031   2.396   0.888 -0.5002 -0.4367  0.2977
 8754TIP3    H147677   3.113   2.381   0.936  0.7128 -0.0342 -1.5274
 8754TIP3    H247678   3.059   2.433   0.804 -2.6134  0.2336 -0.1718
 8755TIP3   OH247679   5.771   6.009   0.770 -0.3175  0.2782 -0.6760
 8755TIP3    H147680   5.718   6.073   0.819  1.6606  0.1896  1.7738
 8755TIP3    H247681   5.830   6.062   0.718  0.9133  0.5353  0.8979
 8756TIP3   OH247682   6.551   4.652   4.868 -0.1484  0.5367 -0.2420
 8756TIP3    H147683   6.635   4.694   4.852  0.1630  1.1488  2.5241
 8756TIP3    H247684   6.573   4.563   4.894 -0.4572  0.2813 -0.8412
 8757TIP3   OH247685   2.662   3.298   0.764 -0.1739 -0.3502 -0.0926
 8757TIP3    H147686   2.729   3.240   0.727 -0.2044  0.1513 -0.9668
 8757TIP3    H247687   2.685   3.306   0.856 -0.0729 -1.6159  0.0199
 8758TIP3   OH247688   6.740   0.603  14.335 -0.4739 -0.5516 -0.0365
 8758TIP3    H147689   6.798   0.679  14.337 -0.4752 -0.5645  0.5433
 8758TIP3    H247690   6.657   0.637  14.302 -0.3165 -0.4139 -0.2974
 8759TIP3   OH247691   5.115   1.051   1.150  0.2149 -0.1932 -0.1240
 8759TIP3    H147692   5.173   1.053   1.074  1.3091  0.5220  0.6907
 8759TIP3    H247693   5.174   1.038   1.225 -0.6671  0.6233  0.7434
 8760TIP3   OH247694   0.410   1.430   5.818  0.1343  0.0855  0.1169
 8760TIP3    H147695   0.433   1.355   5.764 -1.0349 -0.9971  1.0506
 8760TIP3    H247696   0.328   1.404   5.861 -0.5989  2.1245  0.0381
 8761TIP3   OH247697   6.484   1.459  13.684 -0.1643 -0.3020  0.0956
 8761TIP3    H147698   6.569   1.481  13.646 -0.1127 -2.5418 -1.2471
 8761TIP3    H247699   6.473   1.365  13.667 -2.4394 -0.3114  1.1897
 8762TIP3   OH247700   0.430   6.050   6.166  0.0138 -0.0696  0.5449
 8762TIP3    H147701   0.488   6.124   6.149  0.1891 -0.3854 -0.3337
 8762TIP3    H247702   0.364   6.084   6.225  0.2935  0.6941  0.4317
 8763TIP3   OH247703   3.241   5.910   5.652 -0.3720  0.2650 -0.3968
 8763TIP3    H147704   3.215   5.857   5.728 -1.6146  0.1001 -0.9129
 8763TIP3    H247705   3.237   6.000   5.683 -0.2801  0.1662 -0.0934
 8764TIP3   OH247706   0.937   5.275  14.897  0.2033 -0.1186  0.3168
 8764TIP3    H147707   0.885   5.195  14.889  1.1975 -0.6481 -1.1026
 8764TIP3    H247708   1.025   5.245  14.920  1.7442  0.0789 -4.3881
 8765TIP3   OH247709   3.967   0.603   4.255  0.1718 -0.0903 -0.2443
 8765TIP3    H147710   3.914   0.526   4.277  1.0150 -1.5755 -2.9194
 8765TIP3    H247711   4.057   0.576   4.272  0.5290 -0.0141 -1.8086
 8766TIP3   OH247712   1.771   3.297  13.293 -0.1030  0.3202 -0.4466
 8766TIP3    H147713   1.826   3.218  13.288 -0.6620 -0.2871  1.8481
 8766TIP3    H247714   1.682   3.264  13.304 -0.1933  1.1791  2.0100
 8767TIP3   OH247715   3.543   6.730  17.027  0.1320 -0.9419  0.0970
 8767TIP3    H147716   3.454   6.694  17.032  1.4067 -4.7542 -0.9051
 8767TIP3    H247717   3.562   6.732  16.934  1.3030 -0.7887  0.3284
 8768TIP3   OH247718   5.451   5.097   6.370 -0.2078 -0.3009 -0.2332
 8768TIP3    H147719   5.524   5.152   6.342 -0.3696  0.0226 -0.0238
 8768TIP3    H247720   5.464   5.085   6.464 -1.4509  1.3488  0.2004
 8769TIP3   OH247721   3.031   6.228  13.184 -0.3951 -0.3247 -0.6032
 8769TIP3    H147722   3.039   6.319  13.211 -2.4175 -0.1624 -0.3447
 8769TIP3    H247723   3.092   6.218  13.111  0.4217  1.0032 -0.1218
 8770TIP3   OH247724   1.089   6.117   5.278 -0.6980 -0.2036 -0.2266
 8770TIP3    H147725   1.033   6.056   5.327  0.1800 -1.0324 -0.2413
 8770TIP3    H247726   1.032   6.149   5.207 -1.0251 -1.3767 -0.5098
 8771TIP3   OH247727   4.632   2.446   2.567 -0.5060 -0.3087  0.1173
 8771TIP3    H147728   4.608   2.368   2.517  0.4320 -1.7204  1.7588
 8771TIP3    H247729   4.548   2.485   2.593 -1.0048  0.1535 -1.9739
 8772TIP3   OH247730   4.426   4.819   2.503 -0.4864  0.6217 -0.1236
 8772TIP3    H147731   4.453   4.887   2.565 -1.2631 -0.2097  1.1831
 8772TIP3    H247732   4.400   4.866   2.425  0.0705  1.7493  0.3558
 8773TIP3   OH247733   2.957   2.555  14.837 -0.0632  0.0360 -0.4090
 8773TIP3    H147734   3.047   2.582  14.855 -0.4528  0.9382  0.2063
 8773TIP3    H247735   2.945   2.574  14.744  0.3749 -0.0974 -0.4986
 8774TIP3   OH247736   4.853   0.428  16.110 -0.1977 -0.1442 -0.0500
 8774TIP3    H147737   4.794   0.358  16.082  0.6310 -1.7380  1.9579
 8774TIP3    H247738   4.936   0.409  16.067  0.1320 -0.6655  0.7805
 8775TIP3   OH247739   5.044   2.694   2.797 -0.0679  0.2873 -0.0080
 8775TIP3    H147740   5.022   2.769   2.742 -1.8118  0.1572  0.4595
 8775TIP3    H247741   4.986   2.624   2.766  0.1103 -0.2779  0.9100
 8776TIP3   OH247742   0.581   6.227  14.718  0.8202  0.1656  0.7632
 8776TIP3    H147743   0.584   6.154  14.780  0.5327  0.0041  0.5907
 8776TIP3    H247744   0.671   6.235  14.686  0.2607 -2.5274 -1.9688
 8777TIP3   OH247745   4.456   3.164  12.914 -0.7143  0.3071  0.2942
 8777TIP3    H147746   4.472   3.259  12.919 -0.0196  0.2856 -1.1680
 8777TIP3    H247747   4.452   3.136  13.006  1.6839  1.3303  0.7847
 8778TIP3   OH247748   6.537   4.327   1.072  0.0264 -0.1357 -0.1683
 8778TIP3    H147749   6.458   4.375   1.047 -0.8589 -1.4820 -0.1235
 8778TIP3    H247750   6.513   4.235   1.060  1.0612 -0.6469  1.3593
 8779TIP3   OH247751   5.447   4.578   4.219 -0.0551 -0.0924 -0.0308
 8779TIP3    H147752   5.514   4.613   4.161 -1.1543  1.0327 -0.6756
 8779TIP3    H247753   5.419   4.496   4.177  0.3052 -0.1204 -0.2136
 8780TIP3   OH247754   6.623   4.754   4.532  0.4084 -0.3029 -0.4523
 8780TIP3    H147755   6.668   4.679   4.493  1.4677 -0.0200  0.1612
 8780TIP3    H247756   6.571   4.716   4.603  0.7740 -0.5010 -0.2822
 8781TIP3   OH247757   4.910   6.367  15.534 -0.1139  0.5373  0.5132
 8781TIP3    H147758   4.962   6.436  15.494  2.1371 -0.1713  2.0483
 8781TIP3    H247759   4.889   6.308  15.461  0.1233  1.5104 -0.3621
 8782TIP3   OH247760   2.111   1.901  13.007 -0.7654 -0.7732 -0.0790
 8782TIP3    H147761   2.172   1.914  12.934 -0.2880  0.3419  0.4829
 8782TIP3    H247762   2.066   1.819  12.987  0.8629 -1.5874 -0.5447
 8783TIP3   OH247763   5.357   1.797   4.134  0.6210  0.2978  0.1644
 8783TIP3    H147764   5.286   1.843   4.178 -0.6289  0.6133 -2.0610
 8783TIP3    H247765   5.426   1.863   4.123 -0.1897  1.0001 -0.8383
 8784TIP3   OH247766   3.390   3.730  16.223 -0.2702 -0.0070 -0.3163
 8784TIP3    H147767   3.434   3.764  16.301  0.4577  0.4728 -0.9113
 8784TIP3    H247768   3.426   3.643  16.211  0.2195  0.2275 -0.5695
 8785TIP3   OH247769   5.381   3.397   5.146  0.3207  0.3026 -0.5326
 8785TIP3    H147770   5.367   3.481   5.190  0.5883 -0.0814  0.3150
 8785TIP3    H247771   5.301   3.383   5.096 -0.3092  0.4333  0.4026
 8786TIP3   OH247772   3.274   5.380   2.100 -0.3680  0.6738  0.4371
 8786TIP3    H147773   3.292   5.290   2.072  0.4139  0.3055  2.0157
 8786TIP3    H247774   3.191   5.375   2.146 -1.0218  1.0465 -0.6571
 8787TIP3   OH247775   2.242   0.405   2.262  0.4433  0.1342  0.2263
 8787TIP3    H147776   2.181   0.343   2.222  2.4410 -1.6072 -0.2792
 8787TIP3    H247777   2.195   0.438   2.339 -1.7976  0.2425 -1.1070
 8788TIP3   OH247778   1.864   1.624   5.704 -0.2840 -0.3797  0.2896
 8788TIP3    H147779   1.807   1.549   5.723 -2.5721  1.2163  0.1722
 8788TIP3    H247780   1.818   1.671   5.634  0.8051  1.4056  0.7161
 8789TIP3   OH247781   0.593   2.299  16.863  0.5003  0.7414  0.2134
 8789TIP3    H147782   0.614   2.206  16.859 -0.8952  0.4458 -1.8143
 8789TIP3    H247783   0.510   2.302  16.910  0.7135  1.0059  0.5736
 8790TIP3   OH247784   2.603   2.674  13.080 -0.2572  0.4909  0.4925
 8790TIP3    H147785   2.578   2.583  13.061  2.6532 -0.3583  0.2647
 8790TIP3    H247786   2.581   2.722  13.000  0.8455 -0.6474 -0.5444
 8791TIP3   OH247787   6.555   5.525  15.188 -0.3247 -0.0553  0.3477
 8791TIP3    H147788   6.520   5.504  15.101  2.1044  2.3950 -1.3975
 8791TIP3    H247789   6.559   5.441  15.233 -1.2922 -1.5087 -2.0675
 8792TIP3   OH247790   3.550   2.611   3.561  0.4018 -0.0699 -0.5776
 8792TIP3    H147791   3.525   2.659   3.639  1.4448  0.1921 -0.3884
 8792TIP3    H247792   3.566   2.521   3.592  0.4566 -0.0540 -0.5603
 8793TIP3   OH247793   0.414   2.024  11.766  0.3803 -0.0056 -0.6132
 8793TIP3    H147794   0.506   2.049  11.759 -0.1911  2.5980  0.1653
 8793TIP3    H247795   0.383   2.067  11.845 -2.1121  1.4273 -2.2126
 8794TIP3   OH247796   0.796   0.956  16.293  0.5508  0.3803 -0.3236
 8794TIP3    H147797   0.716   0.912  16.265  1.1638 -0.7538 -0.3503
 8794TIP3    H247798   0.767   1.020  16.359 -0.2026 -1.2459  1.0051
 8795TIP3   OH247799   5.695   0.966   1.361  0.0800 -0.4141 -0.6900
 8795TIP3    H147800   5.623   1.008   1.314 -0.8991 -1.4146 -0.1592
 8795TIP3    H247801   5.770   1.024   1.349 -1.4917  2.2156  1.1438
 8796TIP3   OH247802   2.707   5.652  17.051 -0.1365 -0.3715  0.1632
 8796TIP3    H147803   2.613   5.660  17.035  0.2809 -0.6399 -3.0701
 8796TIP3    H247804   2.718   5.567  17.094 -1.4480  0.3945  2.1392
 8797TIP3   OH247805   2.489   4.144   1.381 -0.0169 -0.0069 -0.2091
 8797TIP3    H147806   2.507   4.052   1.398 -0.7835 -0.0697  0.3228
 8797TIP3    H247807   2.446   4.176   1.461 -3.1811 -0.1520 -1.6894
 8798TIP3   OH247808   5.711   2.855  11.636 -0.1854  0.0022 -0.1095
 8798TIP3    H147809   5.781   2.919  11.645 -0.1986  0.0105 -0.0643
 8798TIP3    H247810   5.631   2.908  11.629 -0.4235 -0.0300  1.8293
 8799TIP3   OH247811   0.361   0.758  13.289  0.0020  0.0128 -0.2771
 8799TIP3    H147812   0.388   0.669  13.264 -0.2004 -0.1797  0.1838
 8799TIP3    H247813   0.439   0.796  13.329  0.3469  0.3436 -1.2393
 8800TIP3   OH247814   6.254   3.371   2.150  0.0752  0.1525 -0.1944
 8800TIP3    H147815   6.191   3.441   2.132  0.9520  0.9113 -0.4595
 8800TIP3    H247816   6.329   3.392   2.093  0.8896 -0.2545  0.7006
 8801TIP3   OH247817   2.028   4.398   5.343  0.3412  0.1245 -0.2384
 8801TIP3    H147818   2.086   4.466   5.377 -0.2006  1.4160 -1.7667
 8801TIP3    H247819   1.942   4.439   5.339 -1.2109 -2.2599  3.5882
 8802TIP3   OH247820   0.021   4.116  14.247 -0.3371 -0.1537  0.2343
 8802TIP3    H147821   0.060   4.201  14.268 -0.1167 -0.3576  0.6540
 8802TIP3    H247822  -0.059   4.113  14.300 -1.3407  0.5720 -1.1547
 8803TIP3   OH247823   6.258   5.458  14.794  0.5841  0.3865  0.1896
 8803TIP3    H147824   6.234   5.519  14.864  0.6159 -1.1666  1.6346
 8803TIP3    H247825   6.182   5.458  14.736 -0.3481  0.1924  1.3545
 8804TIP3   OH247826   4.306   3.899  11.298  0.2343  0.7456 -0.2817
 8804TIP3    H147827   4.304   3.808  11.266  0.0211 -0.0378  1.8147
 8804TIP3    H247828   4.391   3.932  11.270  0.8558 -0.5376  0.0178
 8805TIP3   OH247829   3.220   0.080   0.860  0.3993  0.2078  0.1670
 8805TIP3    H147830   3.307   0.095   0.898  0.6800  1.4673 -0.8688
 8805TIP3    H247831   3.173   0.028   0.925  1.7212  0.0522  1.0252
 8806TIP3   OH247832   1.659   4.458  12.677 -0.1331 -0.3617  0.7786
 8806TIP3    H147833   1.733   4.467  12.616  0.2655  0.6900  1.3992
 8806TIP3    H247834   1.696   4.411  12.751 -0.0950  0.1074  1.0600
 8807TIP3   OH247835   5.018   5.577   6.308 -0.2953 -0.1976 -0.4870
 8807TIP3    H147836   5.071   5.499   6.290 -0.7241 -0.8347  0.8445
 8807TIP3    H247837   4.962   5.586   6.231 -0.7062 -1.6196 -0.3796
 8808TIP3   OH247838   0.175   6.461   6.247 -0.0854  0.3454 -0.7872
 8808TIP3    H147839   0.140   6.378   6.280 -1.2331  0.3584 -1.8837
 8808TIP3    H247840   0.253   6.436   6.197  0.2160  0.0589 -0.1807
 8809TIP3   OH247841   2.482   6.237  12.725 -0.6867 -0.1034  0.0925
 8809TIP3    H147842   2.418   6.249  12.655  0.4155  0.8198 -0.7846
 8809TIP3    H247843   2.526   6.322  12.732  0.2940 -0.6595  0.8338
 8810TIP3   OH247844   5.736   2.785  15.031 -0.3180 -0.1715  0.6021
 8810TIP3    H147845   5.717   2.878  15.031  0.3807 -0.0178  0.2123
 8810TIP3    H247846   5.820   2.778  15.078  0.9645 -0.2926 -1.6007
 8811TIP3   OH247847   1.653   4.838  12.280 -0.2491 -0.1008 -0.5473
 8811TIP3    H147848   1.723   4.889  12.238 -0.1130 -0.2562 -0.5084
 8811TIP3    H247849   1.643   4.761  12.224  0.6153 -0.8015  0.2519
 8812TIP3   OH247850   4.445   0.096  13.454 -0.4672 -0.4096 -0.6546
 8812TIP3    H147851   4.376   0.087  13.388  0.5101  0.1322 -1.7931
 8812TIP3    H247852   4.432   0.022  13.513 -1.4102 -0.8648 -1.4085
 8813TIP3   OH247853   2.682   6.737  16.544  0.4106  0.4250  0.5250
 8813TIP3    H147854   2.659   6.711  16.634 -1.7749  0.6627  0.0847
 8813TIP3    H247855   2.716   6.826  16.553  1.5003 -0.0560  1.2643
 8814TIP3   OH247856   6.183   6.413   4.944  0.5353  0.0082 -0.6764
 8814TIP3    H147857   6.188   6.318   4.946 -0.0736 -0.0237  0.3900
 8814TIP3    H247858   6.236   6.442   5.019 -0.7256  0.3988  0.1106
 8815TIP3   OH247859   3.596   4.751   3.283 -0.0540  0.3168  0.0518
 8815TIP3    H147860   3.598   4.793   3.197 -0.6991 -1.0634 -0.6783
 8815TIP3    H247861   3.685   4.716   3.295 -0.0965  0.1035 -0.2631
 8816TIP3   OH247862   3.864   4.595   0.141 -0.3267 -0.1301  0.1401
 8816TIP3    H147863   3.832   4.677   0.103 -0.1353 -0.3467 -0.4954
 8816TIP3    H247864   3.797   4.572   0.205 -0.8852  0.0086 -0.3835
 8817TIP3   OH247865   5.534   5.281  17.470  0.3502  0.2734 -0.3195
 8817TIP3    H147866   5.620   5.322  17.477  0.9858 -0.9495 -0.7544
 8817TIP3    H247867   5.478   5.332  17.529  1.5869  0.4950  0.6908
 8818TIP3   OH247868   3.269   2.087  11.592 -0.4233  0.4859 -0.0263
 8818TIP3    H147869   3.326   2.100  11.516  0.0331  1.5241  0.4714
 8818TIP3    H247870   3.299   2.153  11.655 -1.8564  0.7255  0.4325
 8819TIP3   OH247871   6.431   2.126  14.387 -0.0291  0.3035  0.5342
 8819TIP3    H147872   6.399   2.057  14.445  0.3759  0.9960  1.6114
 8819TIP3    H247873   6.501   2.084  14.336 -0.0030 -0.1653  0.9446
 8820TIP3   OH247874   1.048   6.606  15.090  0.2467  0.6867  0.2405
 8820TIP3    H147875   1.041   6.548  15.015  1.5280  0.3405  0.3701
 8820TIP3    H247876   0.991   6.680  15.068 -2.1613 -0.9667  0.4672
 8821TIP3   OH247877   4.791   5.161  14.818 -0.2175  0.0489 -0.0541
 8821TIP3    H147878   4.847   5.220  14.869 -0.4919  1.6799 -1.5499
 8821TIP3    H247879   4.707   5.206  14.814 -0.7857 -1.0108 -0.2602
 8822TIP3   OH247880   1.708   4.191  16.525  0.1570 -0.2407 -0.0195
 8822TIP3    H147881   1.747   4.238  16.451 -1.7181  3.2637  0.9961
 8822TIP3    H247882   1.773   4.197  16.595  0.2114  0.2513 -0.1112
 8823TIP3   OH247883   3.218   1.015   4.809  0.9781 -0.3648  0.8432
 8823TIP3    H147884   3.223   1.105   4.844  0.1718  0.6450 -1.4266
 8823TIP3    H247885   3.125   0.993   4.815  0.6390  0.2149 -1.3545
 8824TIP3   OH247886   4.009   0.246   2.942 -0.4609 -0.2212 -0.2371
 8824TIP3    H147887   4.065   0.316   2.910 -2.2911  1.7658  0.6463
 8824TIP3    H247888   4.020   0.248   3.037  0.2812 -1.9008 -0.2582
 8825TIP3   OH247889   3.430   5.988  16.980  0.0468 -0.2709  0.1486
 8825TIP3    H147890   3.348   5.970  16.934 -0.0228  0.1742  0.0920
 8825TIP3    H247891   3.457   5.903  17.015 -0.2996 -0.4688 -0.0588
 8826TIP3   OH247892   0.795   4.936   6.274  0.7686  0.0821 -0.8467
 8826TIP3    H147893   0.864   4.984   6.320  1.1912  0.3920 -1.8000
 8826TIP3    H247894   0.778   4.861   6.331  0.1995  1.2520  0.5948
 8827TIP3   OH247895   2.109   3.088   3.146 -0.0405  0.2281 -0.6611
 8827TIP3    H147896   2.174   3.147   3.109 -0.4706  0.1107 -1.6383
 8827TIP3    H247897   2.028   3.109   3.100 -0.3960 -0.5381 -0.4078
 8828TIP3   OH247898   0.389   3.878   1.587 -0.0595  0.3055  0.1280
 8828TIP3    H147899   0.375   3.961   1.541 -1.9664  1.1254  2.0102
 8828TIP3    H247900   0.324   3.819   1.552  0.1346  0.1468  0.0321
 8829TIP3   OH247901   4.066   0.785   2.114  0.4587 -0.0775 -0.4948
 8829TIP3    H147902   4.031   0.834   2.188  0.8836  0.8784 -0.9075
 8829TIP3    H247903   4.059   0.693   2.140 -1.7845  0.0900 -0.3150
 8830TIP3   OH247904   2.357   3.435   0.075 -0.4421  0.2432  0.1611
 8830TIP3    H147905   2.425   3.386   0.029  0.2717  0.1930  1.2392
 8830TIP3    H247906   2.340   3.511   0.019  0.8130  0.4786  0.0716
 8831TIP3   OH247907   5.911   3.493   2.681  0.0842  0.0230  0.3022
 8831TIP3    H147908   5.862   3.416   2.713 -1.1076  1.2824  1.6690
 8831TIP3    H247909   6.003   3.464   2.682 -0.3624 -1.5163  0.3601
 8832TIP3   OH247910   3.914   2.340   1.797 -0.0502 -0.4509 -0.2685
 8832TIP3    H147911   3.866   2.320   1.717 -0.6347 -1.5296  0.3435
 8832TIP3    H247912   3.848   2.371   1.858  0.3745  0.2316 -0.1404
 8833TIP3   OH247913   4.472   0.978   2.247  0.1137 -0.1630  0.3030
 8833TIP3    H147914   4.522   0.910   2.294  0.0108  1.3520  2.7793
 8833TIP3    H247915   4.471   1.052   2.307 -3.3442  0.6177 -0.5082
 8834TIP3   OH247916   1.262   1.192  14.122 -0.1590 -0.2122  0.5903
 8834TIP3    H147917   1.286   1.101  14.140 -1.1388 -0.4743  0.6227
 8834TIP3    H247918   1.216   1.221  14.201 -1.1812 -0.1865  0.0078
 8835TIP3   OH247919   5.226   4.086   6.044 -0.5499  0.0342  0.1134
 8835TIP3    H147920   5.153   4.137   6.080 -1.3099 -0.2786 -0.9356
 8835TIP3    H247921   5.196   3.996   6.044  0.5864 -0.3853  1.4401
 8836TIP3   OH247922   3.493   3.581   5.333  0.2715 -0.0968 -0.5570
 8836TIP3    H147923   3.563   3.520   5.308 -0.6380 -2.8433  2.8383
 8836TIP3    H247924   3.534   3.638   5.399 -0.3206 -0.9292  0.5556
 8837TIP3   OH247925   6.291   5.244  11.267  0.1359  0.4466  0.2120
 8837TIP3    H147926   6.216   5.257  11.210  0.3687  2.1692  0.2351
 8837TIP3    H247927   6.270   5.165  11.317 -1.4799  0.6834 -0.0434
 8838TIP3   OH247928   5.369   4.341   1.132  0.6371 -0.0747  0.1671
 8838TIP3    H147929   5.364   4.287   1.211  0.2883  0.1152  0.2780
 8838TIP3    H247930   5.329   4.424   1.157  1.3215  0.2936  0.0404
 8839TIP3   OH247931   2.087   2.057   4.758 -0.0137 -0.4978  0.6443
 8839TIP3    H147932   2.180   2.071   4.774 -0.3227 -0.5459  2.8137
 8839TIP3    H247933   2.044   2.098   4.834 -1.8490  0.7047 -0.9646
 8840TIP3   OH247934   3.743   4.034  16.635  0.3581 -0.4454 -0.1718
 8840TIP3    H147935   3.783   4.115  16.666  0.2346 -0.3385 -0.2891
 8840TIP3    H247936   3.671   4.018  16.697 -0.0444 -0.0984 -0.5399
 8841TIP3   OH247937   4.591   4.681   5.346 -0.0352  0.0804 -0.2473
 8841TIP3    H147938   4.518   4.678   5.285  0.5073 -1.1189 -0.8639
 8841TIP3    H247939   4.575   4.760   5.399 -1.4292  0.1720 -0.7723
 8842TIP3   OH247940   4.012   6.622   4.739  0.4472 -0.4118  0.0656
 8842TIP3    H147941   4.035   6.664   4.656 -1.0616 -1.0000 -0.6882
 8842TIP3    H247942   3.934   6.669   4.769  0.5395 -0.6975  0.7674
 8843TIP3   OH247943   3.597   5.868   4.309  0.2834 -0.2810 -0.0577
 8843TIP3    H147944   3.564   5.890   4.396  1.0787 -1.7821  0.6571
 8843TIP3    H247945   3.579   5.946   4.256 -2.6442 -0.2844  0.7413
 8844TIP3   OH247946   3.842   4.671   1.557 -0.3423 -0.0107 -0.0258
 8844TIP3    H147947   3.914   4.697   1.499 -0.4853 -0.7136 -0.5274
 8844TIP3    H247948   3.867   4.707   1.643  2.2717 -2.8857  0.6117
 8845TIP3   OH247949   4.559   0.581   2.600 -0.3661 -0.2158  0.1609
 8845TIP3    H147950   4.607   0.517   2.547 -1.1062 -0.8338  0.2193
 8845TIP3    H247951   4.627   0.631   2.645  0.2450 -0.3267 -0.6322
 8846TIP3   OH247952   0.022   4.710   3.387 -0.0546  0.6203 -0.2017
 8846TIP3    H147953   0.070   4.632   3.355  0.0067  1.0759 -1.2791
 8846TIP3    H247954   0.084   4.782   3.375 -0.4523  0.9771 -0.1201
 8847TIP3   OH247955   5.251   5.794   2.383  0.1436  0.3232  0.1512
 8847TIP3    H147956   5.298   5.785   2.300  1.1443  0.3147  0.7024
 8847TIP3    H247957   5.233   5.887   2.391  0.4134  0.3776  0.1241
 8848TIP3   OH247958   4.710   2.294  15.881  0.3408 -0.2765  0.8589
 8848TIP3    H147959   4.744   2.381  15.901 -1.4186  0.5429  0.4722
 8848TIP3    H247960   4.683   2.299  15.789 -0.9267 -0.8092  1.1691
 8849TIP3   OH247961   1.008   3.345  13.328  0.1555 -0.1114 -0.4518
 8849TIP3    H147962   0.998   3.353  13.423  0.0655  0.3957 -0.4983
 8849TIP3    H247963   1.091   3.299  13.316  0.9893  1.2265 -0.1298
 8850TIP3   OH247964   6.344   3.700  14.784  0.1335  0.1749 -0.1628
 8850TIP3    H147965   6.343   3.758  14.860  4.1245  0.4600 -0.0907
 8850TIP3    H247966   6.371   3.615  14.819 -0.5799 -0.3860 -0.9432
 8851TIP3   OH247967   3.974   0.809   0.851 -0.2032  0.1847  0.2112
 8851TIP3    H147968   3.923   0.760   0.916 -0.5610  1.1523  0.6790
 8851TIP3    H247969   3.921   0.887   0.833  0.5331  0.5877 -0.2293
 8852TIP3   OH247970   3.035   1.478  15.580  0.7753  0.1477 -0.0087
 8852TIP3    H147971   3.112   1.457  15.633  0.8285 -0.2537 -0.2398
 8852TIP3    H247972   3.018   1.570  15.598  0.7271 -0.0107  0.7896
 8853TIP3   OH247973   2.349   3.661  15.806  0.1480  0.0823 -0.0135
 8853TIP3    H147974   2.337   3.706  15.722 -2.0686 -1.9279 -0.8832
 8853TIP3    H247975   2.274   3.689  15.859 -0.9255 -1.9634 -0.3479
 8854TIP3   OH247976   1.474   5.012   2.954  0.3522 -0.4534  0.3940
 8854TIP3    H147977   1.482   5.104   2.979 -1.2120 -0.7221  2.0985
 8854TIP3    H247978   1.542   4.999   2.888  0.7793  1.8438  0.3020
 8855TIP3   OH247979   2.920   5.231  13.501 -0.1278  0.2789 -0.2802
 8855TIP3    H147980   2.964   5.217  13.417  0.4117 -0.0992  0.0614
 8855TIP3    H247981   2.903   5.143  13.534  0.1634  0.4213  0.2641
 8856TIP3   OH247982   5.700   6.097  14.263 -0.1804  0.0242  0.0699
 8856TIP3    H147983   5.738   6.086  14.176 -0.9410 -1.7144 -0.1036
 8856TIP3    H247984   5.661   6.185  14.262  2.7431  1.4212 -0.1033
 8857TIP3   OH247985   2.099   4.257   2.443 -1.0176  0.0671 -0.0162
 8857TIP3    H147986   2.027   4.196   2.426  0.1244 -1.3927  0.2023
 8857TIP3    H247987   2.165   4.234   2.378  0.1940 -0.2230  1.2882
 8858TIP3   OH247988   6.291   4.488   4.597  0.0939  0.2118 -0.2839
 8858TIP3    H147989   6.296   4.413   4.656  0.0945  2.4561  2.8280
 8858TIP3    H247990   6.198   4.495   4.575 -0.1644  0.2228  0.7579
 8859TIP3   OH247991   3.846   3.771   2.253  0.0053 -0.3245  0.3053
 8859TIP3    H147992   3.908   3.699   2.265 -0.7960 -1.2135 -0.7439
 8859TIP3    H247993   3.807   3.784   2.339  0.3344 -0.9832  0.5577
 8860TIP3   OH247994   1.194   5.963  14.373 -0.2994  0.1322 -0.3150
 8860TIP3    H147995   1.239   5.956  14.288 -1.2715 -0.6548 -0.7765
 8860TIP3    H247996   1.101   5.962  14.351 -0.5666 -0.6983  0.8059
 8861TIP3   OH247997   2.320   4.098   5.985 -0.1617 -0.1040 -0.2682
 8861TIP3    H147998   2.360   4.184   5.983 -0.4300  0.0379  0.3279
 8861TIP3    H247999   2.233   4.111   5.948  0.4577 -0.4846 -1.9167
 8862TIP3   OH248000   1.962   0.484   0.405 -0.0627 -0.4304 -0.5213
 8862TIP3    H148001   1.951   0.472   0.311 -0.5929 -0.8742 -0.4066
 8862TIP3    H248002   2.034   0.546   0.413  0.3252 -0.7758 -1.2134
 8863TIP3   OH248003   1.780   1.831   6.146 -0.0122 -0.1886 -0.6618
 8863TIP3    H148004   1.846   1.814   6.078 -1.1392 -0.1679 -1.8003
 8863TIP3    H248005   1.741   1.745   6.163 -1.2893  0.1429 -1.7348
 8864TIP3   OH248006   1.974   1.474  12.504  0.4758  0.1942 -0.2672
 8864TIP3    H148007   2.009   1.562  12.492 -1.2446  1.2856  2.0833
 8864TIP3    H248008   1.881   1.482  12.481 -0.2036 -0.4054  2.0249
 8865TIP3   OH248009   4.401   6.560   4.319 -0.0527  0.4819 -0.1734
 8865TIP3    H148010   4.491   6.532   4.334 -0.5676 -1.0057  0.3202
 8865TIP3    H248011   4.354   6.532   4.398 -0.9889  1.1027 -0.4944
 8866TIP3   OH248012   3.638   1.669  12.469  0.5844 -0.6905  0.4520
 8866TIP3    H148013   3.653   1.575  12.465  1.2078 -0.5339 -1.8464
 8866TIP3    H248014   3.724   1.707  12.485  0.0712 -0.5269  3.3876
 8867TIP3   OH248015   3.617   4.836  13.496 -0.2564  0.2691 -0.4328
 8867TIP3    H148016   3.657   4.811  13.412 -0.7318 -1.9561 -0.0488
 8867TIP3    H248017   3.669   4.911  13.525  1.1799 -0.1372 -1.7821
 8868TIP3   OH248018   4.593   3.654   4.218 -0.1191 -0.2828 -0.2260
 8868TIP3    H148019   4.542   3.660   4.299 -1.7085  2.0987 -1.3059
 8868TIP3    H248020   4.681   3.633   4.248 -0.8031 -0.2664  2.0595
 8869TIP3   OH248021   0.027   1.378  11.214  1.1832 -0.3662  0.0337
 8869TIP3    H148022  -0.019   1.461  11.205  0.6690 -0.5575  0.7593
 8869TIP3    H248023  -0.015   1.321  11.149  0.2291 -0.5987  0.8300
 8870TIP3   OH248024   4.492   1.569  14.474  0.0376  0.1421 -0.4207
 8870TIP3    H148025   4.550   1.547  14.401  2.2221 -1.7817  1.7214
 8870TIP3    H248026   4.509   1.662  14.489  0.0326  0.4201 -1.9022
 8871TIP3   OH248027   3.854   2.874  12.515  0.0581 -0.8238 -0.3330
 8871TIP3    H148028   3.942   2.904  12.537  0.9805 -3.0308 -0.7569
 8871TIP3    H248029   3.862   2.840  12.426 -1.1911 -1.1782 -0.3279
 8872TIP3   OH248030   2.014   2.217   6.756 -0.3013 -0.0706  0.3245
 8872TIP3    H148031   1.982   2.129   6.736 -1.1793  0.4103 -0.4246
 8872TIP3    H248032   2.087   2.202   6.817 -1.8953 -1.1976  2.0667
 8873TIP3   OH248033   5.277   0.873  16.315 -0.2142 -0.4812  0.1611
 8873TIP3    H148034   5.267   0.932  16.390 -1.2404 -0.6557  0.1744
 8873TIP3    H248035   5.243   0.789  16.347  2.6630 -1.5675  0.6815
 8874TIP3   OH248036   1.703   0.864   0.845 -0.1620  0.5684  0.1885
 8874TIP3    H148037   1.781   0.812   0.825 -0.0565  1.0373 -0.6256
 8874TIP3    H248038   1.733   0.954   0.847 -0.8675  0.8609 -1.1933
 8875TIP3   OH248039   5.514   4.263  16.363  1.1258  0.3926 -0.2650
 8875TIP3    H148040   5.557   4.253  16.278  0.2627 -1.8233 -0.5028
 8875TIP3    H248041   5.421   4.255  16.344  0.7849  1.6831  0.7056
 8876TIP3   OH248042   1.585   1.565   4.667  0.2176  0.2306 -0.2039
 8876TIP3    H148043   1.593   1.660   4.660  0.6608  0.1181 -1.6663
 8876TIP3    H248044   1.540   1.539   4.586  1.5917 -0.9429 -0.6370
 8877TIP3   OH248045   0.342   3.776   5.434  0.4891  0.1704  0.2144
 8877TIP3    H148046   0.270   3.823   5.475 -0.5831 -2.3809  1.4625
 8877TIP3    H248047   0.353   3.697   5.487  3.7015  0.0458 -0.3918
 8878TIP3   OH248048   1.483   1.473   4.405  0.3515  0.1873 -0.1298
 8878TIP3    H148049   1.388   1.467   4.389  0.2212  0.6746  0.4035
 8878TIP3    H248050   1.514   1.383   4.401  0.0399  0.1161 -1.3257
 8879TIP3   OH248051   1.150   5.909   4.554  0.1040 -0.1633 -0.5895
 8879TIP3    H148052   1.186   5.997   4.545  1.0783 -0.5415 -0.6069
 8879TIP3    H248053   1.169   5.867   4.470  2.7988 -1.4479  0.5227
 8880TIP3   OH248054   2.238   2.656   3.449 -0.3511  0.8486  0.5000
 8880TIP3    H148055   2.199   2.571   3.470  0.2914  0.1909 -0.8623
 8880TIP3    H248056   2.228   2.664   3.355  2.2924  0.8810  0.1424
 8881TIP3   OH248057   5.749   5.400   4.162  0.2470 -0.1858 -0.2403
 8881TIP3    H148058   5.747   5.399   4.257  0.3357 -0.9087 -0.2397
 8881TIP3    H248059   5.842   5.411   4.140  0.1912  0.2994 -0.2481
 8882TIP3   OH248060   6.378   3.701  11.580  0.4910  0.3935  0.0179
 8882TIP3    H148061   6.309   3.635  11.579 -1.3047  2.1748 -0.6569
 8882TIP3    H248062   6.384   3.729  11.488  2.0530  0.3799  0.0903
 8883TIP3   OH248063   4.724   2.190  16.750  0.1961 -0.4916  0.4876
 8883TIP3    H148064   4.733   2.228  16.662  0.2061 -0.3549  0.5465
 8883TIP3    H248065   4.787   2.239  16.803  0.9064 -1.2423  0.3554
 8884TIP3   OH248066   2.896   5.051   4.159 -0.5945  0.0750 -0.3881
 8884TIP3    H148067   2.806   5.070   4.184 -0.4104  0.7691 -0.2536
 8884TIP3    H248068   2.946   5.056   4.241  0.1336  3.0386 -0.8890
 8885TIP3   OH248069   3.523   5.688  15.862 -0.8000  0.0368  0.4641
 8885TIP3    H148070   3.436   5.726  15.850  0.4293  2.9188 -0.3287
 8885TIP3    H248071   3.559   5.684  15.773  0.9962  1.9808  1.0422
 8886TIP3   OH248072   0.357   3.507   2.226  0.5589  0.1188  0.0765
 8886TIP3    H148073   0.407   3.573   2.177  0.0709  0.1944 -0.3189
 8886TIP3    H248074   0.266   3.531   2.212  0.4005 -0.2423  0.4963
 8887TIP3   OH248075   4.289   0.767   5.194 -0.2691 -0.8378  0.0355
 8887TIP3    H148076   4.360   0.831   5.191 -0.1577 -0.7547  2.2948
 8887TIP3    H248077   4.325   0.693   5.243 -2.0602 -0.1690  2.6196
 8888TIP3   OH248078   2.737   3.920   4.041  0.3211  0.0302  0.0242
 8888TIP3    H148079   2.827   3.952   4.039 -0.1936  1.4753 -0.8073
 8888TIP3    H248080   2.695   3.960   3.965 -0.6847 -1.7222 -0.4149
 8889TIP3   OH248081   4.380   3.166   4.407  0.0932  0.2268  0.4619
 8889TIP3    H148082   4.437   3.113   4.463  0.1696 -1.0136 -0.7210
 8889TIP3    H248083   4.293   3.156   4.445  0.3434  0.4458  1.0947
 8890TIP3   OH248084   6.650   0.148  16.738 -0.1053 -0.1214 -0.0418
 8890TIP3    H148085   6.627   0.100  16.658 -1.2041  1.0910 -0.4803
 8890TIP3    H248086   6.722   0.206  16.712  0.3566 -0.5930  0.1661
 8891TIP3   OH248087   6.079   2.932   3.603 -0.4376 -0.1299  0.2385
 8891TIP3    H148088   6.163   2.964   3.571 -0.0211 -0.8728  0.5359
 8891TIP3    H248089   6.024   2.923   3.525 -0.7673  1.8062  0.2122
 8892TIP3   OH248090   1.222   3.667   2.741 -0.2484  0.2290 -0.0591
 8892TIP3    H148091   1.243   3.750   2.785 -0.0431  0.0679  0.1500
 8892TIP3    H248092   1.132   3.648   2.767 -0.8626  1.1987 -1.3926
 8893TIP3   OH248093   0.059   3.296   1.648 -0.0582  0.1607 -0.9853
 8893TIP3    H148094   0.049   3.271   1.556  0.0269 -0.8936 -0.7212
 8893TIP3    H248095   0.141   3.255   1.675 -1.0079 -1.1306  0.0659
 8894TIP3   OH248096   4.986   6.147   1.818 -0.4362 -0.3650 -0.0589
 8894TIP3    H148097   4.978   6.220   1.755  1.2482  0.5362  0.6884
 8894TIP3    H248098   4.930   6.173   1.891  2.1040  1.5891  1.3664
 8895TIP3   OH248099   1.523   1.459   2.925  0.3175 -0.0400 -0.3825
 8895TIP3    H148100   1.504   1.494   2.838 -0.5665 -1.2843 -0.7196
 8895TIP3    H248101   1.523   1.364   2.914  0.2826 -0.2218  0.9545
 8896TIP3   OH248102   0.726   3.096   1.768  0.2201  0.7451  0.8103
 8896TIP3    H148103   0.751   3.014   1.812 -2.1511  0.0013  0.8905
 8896TIP3    H248104   0.660   3.135   1.825 -0.8727  1.1709 -0.6911
 8897TIP3   OH248105   2.795   3.913   5.976  0.0942  0.8616 -0.1230
 8897TIP3    H148106   2.785   3.978   6.045 -0.8629 -0.8110  1.4176
 8897TIP3    H248107   2.705   3.890   5.953  0.4155  0.3893 -0.9265
 8898TIP3   OH248108   4.197   6.447   1.505  0.0587  0.1641 -0.2142
 8898TIP3    H148109   4.104   6.465   1.519 -0.0427 -1.6154  1.9243
 8898TIP3    H248110   4.198   6.368   1.451  0.3525  0.3070 -0.4219
 8899TIP3   OH248111   1.151   0.939  13.031 -0.4265 -0.5790  0.2954
 8899TIP3    H148112   1.236   0.897  13.038 -1.1926 -2.3375 -0.2508
 8899TIP3    H248113   1.096   0.892  13.094 -1.0657  0.3508  0.4528
 8900TIP3   OH248114   3.115   5.394   3.366 -0.4210  0.0412  0.0552
 8900TIP3    H148115   3.196   5.422   3.322  0.1044  0.0962  1.0371
 8900TIP3    H248116   3.054   5.466   3.351 -0.3375 -0.0550 -0.8001
 8901TIP3   OH248117   0.594   2.193  12.129  0.5472  0.8037  0.5280
 8901TIP3    H148118   0.672   2.243  12.104  0.4279 -0.1010 -1.8312
 8901TIP3    H248119   0.625   2.104  12.143 -0.2672 -0.1104 -2.6581
 8902TIP3   OH248120   0.078   2.871  16.619  0.3768 -0.1499 -1.3216
 8902TIP3    H148121   0.035   2.791  16.589 -0.4940 -1.4882  2.9158
 8902TIP3    H248122   0.006   2.929  16.643  0.8317 -0.5277  1.2323
 8903TIP3   OH248123   0.536   1.786  16.247  0.0282 -0.2058  0.1263
 8903TIP3    H148124   0.541   1.747  16.334 -2.1941  0.9408  0.8375
 8903TIP3    H248125   0.470   1.733  16.202  0.0694  0.1328 -0.3377
 8904TIP3   OH248126   2.689   3.225   5.484  0.1903  0.4286 -0.5695
 8904TIP3    H148127   2.723   3.195   5.400  0.2191 -1.1859 -0.0174
 8904TIP3    H248128   2.594   3.223   5.473  0.1663 -0.8158 -0.2486
 8905TIP3   OH248129   1.449   3.483   1.728 -0.3281 -0.2401 -0.1324
 8905TIP3    H148130   1.462   3.397   1.689 -1.0115 -0.6336  0.4865
 8905TIP3    H248131   1.418   3.465   1.817  0.0697  0.6402  0.2030
 8906TIP3   OH248132   3.190   4.368   6.384  0.1510 -0.4124 -0.0047
 8906TIP3    H148133   3.203   4.383   6.291 -1.1830  0.6564 -0.0352
 8906TIP3    H248134   3.095   4.365   6.396  0.2959 -0.3059  1.3559
 8907TIP3   OH248135   3.792   5.950  15.434 -0.0378  0.6102 -0.2253
 8907TIP3    H148136   3.751   5.880  15.384  1.8028 -0.6842 -0.0391
 8907TIP3    H248137   3.886   5.933  15.425  0.4025  1.8813  1.5133
 8908TIP3   OH248138   1.852   0.842   2.168 -0.3115  0.4380  0.2124
 8908TIP3    H148139   1.878   0.854   2.077  1.0370  0.9965  0.6432
 8908TIP3    H248140   1.829   0.930   2.198 -0.1166  0.3639  0.5898
 8909TIP3   OH248141   5.992   2.115  17.259  0.0332  0.6698  0.3017
 8909TIP3    H148142   5.918   2.056  17.268  0.1222  0.4969 -0.0610
 8909TIP3    H248143   6.061   2.076  17.313  0.3827 -0.0556 -0.6269
 8910TIP3   OH248144   2.529   0.301  16.685  0.1037  0.7933 -0.7286
 8910TIP3    H148145   2.490   0.217  16.707  3.4060 -1.0988 -1.4122
 8910TIP3    H248146   2.594   0.316  16.755  1.1416  1.5978 -1.8259
 8911TIP3   OH248147   4.774   2.933  13.251  0.3597 -0.2546  0.2127
 8911TIP3    H148148   4.788   3.021  13.284  0.6668 -0.2720  0.1354
 8911TIP3    H248149   4.707   2.896  13.307  1.3676 -0.5327  1.2782
 8912TIP3   OH248150   0.174   3.822  13.164 -0.1311  0.1687  0.1636
 8912TIP3    H148151   0.109   3.783  13.221 -1.8371  1.7073 -0.6201
 8912TIP3    H248152   0.243   3.756  13.156 -1.5448 -1.4738  1.0871
 8913TIP3   OH248153   0.814   1.453  15.989  0.2099  0.1599 -0.3288
 8913TIP3    H148154   0.903   1.470  15.957  0.6057 -0.4768  0.3911
 8913TIP3    H248155   0.764   1.530  15.964  1.2743  1.1141  0.4146
 8914TIP3   OH248156   1.648   1.073  15.771 -0.1490 -0.3963 -0.0960
 8914TIP3    H148157   1.669   1.000  15.713  0.9800  1.1035 -1.6804
 8914TIP3    H248158   1.669   1.041  15.858  0.3289 -1.9526 -0.7416
 8915TIP3   OH248159   3.059   5.765  12.125 -0.0864 -0.0936 -0.3668
 8915TIP3    H148160   3.073   5.837  12.065  1.3694 -1.0112 -1.1962
 8915TIP3    H248161   3.063   5.686  12.070  0.4049 -0.9067  0.7838
 8916TIP3   OH248162   4.462   2.181   1.527 -0.7210  0.4134 -0.8229
 8916TIP3    H148163   4.554   2.160   1.547 -0.7447  0.8040 -0.2999
 8916TIP3    H248164   4.416   2.098   1.535 -0.4656  0.2737 -0.7878
 8917TIP3   OH248165   2.086   4.098   4.719 -0.0075  0.3776 -0.3073
 8917TIP3    H148166   2.171   4.054   4.721 -0.5839 -0.8051 -0.8625
 8917TIP3    H248167   2.033   4.045   4.660 -0.9875  1.3880 -0.3695
 8918TIP3   OH248168   5.960   1.567  16.405  0.5216 -0.6528 -0.3634
 8918TIP3    H148169   5.867   1.544  16.398  0.5114 -0.3770 -1.2291
 8918TIP3    H248170   6.005   1.482  16.410  0.2284 -0.7877  0.0956
 8919TIP3   OH248171   3.301   4.773  12.835 -0.4607 -0.0504  0.1565
 8919TIP3    H148172   3.298   4.769  12.931 -0.7529  0.2691  0.1634
 8919TIP3    H248173   3.365   4.706  12.811 -0.3386 -0.0936  0.5775
 8920TIP3   OH248174   2.447   6.051  14.833 -0.5362 -0.6781 -0.7531
 8920TIP3    H148175   2.402   6.129  14.800 -0.5297 -0.6699 -0.7424
 8920TIP3    H248176   2.540   6.073  14.828 -0.5847  0.1370  1.2816
 8921TIP3   OH248177   2.492   1.372   2.067  0.0573  0.0837 -0.6976
 8921TIP3    H148178   2.520   1.394   1.978  1.0584  0.4865 -0.2929
 8921TIP3    H248179   2.571   1.381   2.120 -0.7539  0.9126  0.4243
 8922TIP3   OH248180   0.801   4.291  13.071 -0.3838  0.1554  0.1857
 8922TIP3    H148181   0.741   4.358  13.038 -0.0583  0.3498 -0.0184
 8922TIP3    H248182   0.862   4.276  12.998  0.3652  0.6176  0.7071
 8923TIP3   OH248183   6.498   0.783  14.801  0.1654 -0.5481  0.0784
 8923TIP3    H148184   6.513   0.740  14.717  0.9441  0.3754 -0.2776
 8923TIP3    H248185   6.498   0.876  14.781  0.2109 -0.3179  1.0822
 8924TIP3   OH248186   5.542   0.485  16.889  0.1321 -0.0458  0.0918
 8924TIP3    H148187   5.636   0.497  16.876  0.5414 -1.8906  1.0074
 8924TIP3    H248188   5.533   0.393  16.912 -1.7959  0.3222  1.0050
 8925TIP3   OH248189   0.296   3.774  16.831 -0.5379 -0.2079 -0.6746
 8925TIP3    H148190   0.364   3.789  16.897 -1.1206 -0.3841 -0.0224
 8925TIP3    H248191   0.246   3.855  16.829  1.1001  0.8590 -2.8944
 8926TIP3   OH248192   5.913   6.004   4.320 -0.4776  0.8511 -0.0267
 8926TIP3    H148193   5.972   5.962   4.382  1.2157  1.6669 -1.0020
 8926TIP3    H248194   5.830   5.960   4.331  0.6870 -1.3582  0.4032
 8927TIP3   OH248195   6.589   2.951  13.902  0.1479  0.6036 -0.3506
 8927TIP3    H148196   6.498   2.980  13.914 -0.1334  0.9736 -2.8614
 8927TIP3    H248197   6.611   2.907  13.984 -2.3962  0.2736  0.2389
 8928TIP3   OH248198   4.588   3.040   0.977 -0.2353  0.0895 -0.6538
 8928TIP3    H148199   4.658   3.092   0.938 -0.5679  1.9760  1.1157
 8928TIP3    H248200   4.613   2.949   0.959  0.6814  0.7697 -3.3031
 8929TIP3   OH248201   3.446   5.235  14.548 -0.2842  0.2311  0.1289
 8929TIP3    H148202   3.413   5.305  14.605 -0.3000 -0.2243  0.6983
 8929TIP3    H248203   3.517   5.194  14.599  1.5736  1.5323 -1.2808
 8930TIP3   OH248204   4.108   5.715   5.628 -0.3621  0.2699  0.4075
 8930TIP3    H148205   4.203   5.731   5.629 -0.4120  0.5909  0.1391
 8930TIP3    H248206   4.099   5.626   5.593 -0.2209  0.7132 -0.8004
 8931TIP3   OH248207   2.763   0.513  13.766 -0.1086  0.0395 -0.1627
 8931TIP3    H148208   2.746   0.573  13.838 -0.6716  0.5851 -0.7379
 8931TIP3    H248209   2.845   0.544  13.728 -0.8566  1.0631 -1.0368
 8932TIP3   OH248210   5.864   6.679  15.013  0.3858  0.7270  0.0018
 8932TIP3    H148211   5.874   6.605  14.952  1.0069  1.0477 -0.2945
 8932TIP3    H248212   5.836   6.752  14.957 -0.9925  0.5494  0.4042
 8933TIP3   OH248213   2.015   1.387   4.085 -0.4418  0.0738  0.2342
 8933TIP3    H148214   1.994   1.359   3.996  1.0786 -0.7319  0.0929
 8933TIP3    H248215   2.025   1.305   4.134 -1.1548  0.5086  1.1278
 8934TIP3   OH248216   4.518   4.231   2.244  0.4978  0.5109 -0.2502
 8934TIP3    H148217   4.493   4.189   2.162  0.0980  1.2114 -0.4999
 8934TIP3    H248218   4.613   4.243   2.238  1.3084 -3.5293  1.3363
 8935TIP3   OH248219   4.634   0.413  16.366 -0.2586  0.0527  0.2808
 8935TIP3    H148220   4.724   0.381  16.364 -0.6508 -1.1419 -2.1324
 8935TIP3    H248221   4.625   0.454  16.452  2.0895 -1.1827  1.2101
 8936TIP3   OH248222   0.910   5.238   0.329  0.3893  0.1818 -0.0090
 8936TIP3    H148223   0.893   5.226   0.235  0.6288  0.5652 -0.1038
 8936TIP3    H248224   0.882   5.156   0.369  1.8259 -0.6359 -0.6176
 8937TIP3   OH248225   0.572   1.927  13.007  0.2683  0.3037  0.1574
 8937TIP3    H148226   0.643   1.870  12.979 -0.0596 -0.0744  0.0913
 8937TIP3    H248227   0.545   1.894  13.092 -0.8670 -0.5315 -0.5075
 8938TIP3   OH248228   0.350   1.723  16.892  0.0795 -0.0054  0.0798
 8938TIP3    H148229   0.310   1.742  16.977  2.6850  0.6016  1.2732
 8938TIP3    H248230   0.445   1.728  16.909  0.7706 -2.7158 -2.1870
 8939TIP3   OH248231   1.623   5.575   1.969 -0.8173 -0.6466 -0.0927
 8939TIP3    H148232   1.671   5.497   1.942 -2.0321 -0.8575 -1.7842
 8939TIP3    H248233   1.584   5.551   2.053  1.0920 -0.8297  0.7898
 8940TIP3   OH248234   0.750   5.286  13.758  0.0606  0.4166 -0.0739
 8940TIP3    H148235   0.715   5.261  13.843  0.3295 -0.2965 -0.1654
 8940TIP3    H248236   0.747   5.382  13.758 -1.2937  0.4006  0.1627
 8941TIP3   OH248237   6.491   3.182  11.277  0.2986 -0.0432  0.3685
 8941TIP3    H148238   6.422   3.125  11.243 -0.9890  0.8259  1.4740
 8941TIP3    H248239   6.557   3.121  11.312 -0.3718 -0.8633  0.2397
 8942TIP3   OH248240   0.073   3.146  13.569  0.7383  0.0533  0.8094
 8942TIP3    H148241   0.113   3.059  13.565  2.4876  0.7685  1.7443
 8942TIP3    H248242   0.066   3.164  13.663  2.2557  1.7134  0.6530
 8943TIP3   OH248243   0.699   0.894  15.709  0.1199  1.2439  0.9342
 8943TIP3    H148244   0.657   0.894  15.795 -1.3571 -0.0277  0.2540
 8943TIP3    H248245   0.644   0.837  15.656  2.4507 -0.0981 -0.1659
 8944TIP3   OH248246   3.939   3.030   5.112  0.0652 -0.4795  0.5684
 8944TIP3    H148247   3.997   2.954   5.118 -0.5556 -0.8772  1.8813
 8944TIP3    H248248   3.971   3.090   5.179 -0.4921 -0.3136  0.6890
 8945TIP3   OH248249   3.692   3.914  15.157  0.7601 -0.2887 -0.2618
 8945TIP3    H148250   3.727   3.996  15.192  4.3036 -1.0468 -1.5912
 8945TIP3    H248251   3.600   3.932  15.139  0.8115  2.5736  1.7410
 8946TIP3   OH248252   2.716   6.540  12.446  0.1178  0.3556 -0.0429
 8946TIP3    H148253   2.810   6.522  12.455  0.1807  0.5596 -0.2840
 8946TIP3    H248254   2.678   6.456  12.420  0.2658  0.3263 -0.1671
 8947TIP3   OH248255   4.349   5.528   2.333 -0.1771 -0.4603  0.3756
 8947TIP3    H148256   4.375   5.619   2.321 -2.2441 -0.0857 -2.0978
 8947TIP3    H248257   4.268   5.532   2.383 -0.8720 -0.8339 -0.6968
 8948TIP3   OH248258   4.101   1.145   3.000 -0.7225 -1.1620  0.3924
 8948TIP3    H148259   4.142   1.226   3.030 -0.8929 -1.3699  1.2101
 8948TIP3    H248260   4.016   1.143   3.043 -0.9109 -1.5532  0.0149
 8949TIP3   OH248261   3.362   5.502  12.167  0.5509  0.8574 -0.3779
 8949TIP3    H148262   3.372   5.456  12.251 -2.5407  0.2487 -0.2316
 8949TIP3    H248263   3.375   5.594  12.189  1.9172  0.5407  0.2970
 8950TIP3   OH248264   3.355   6.666  16.726  0.2229 -0.4571  0.0899
 8950TIP3    H148265   3.300   6.728  16.774 -1.8999 -0.5670 -2.0413
 8950TIP3    H248266   3.354   6.587  16.780  0.4588  0.3557  1.3418
 8951TIP3   OH248267   6.568   2.592   4.150 -0.1521 -0.2311 -0.5084
 8951TIP3    H148268   6.579   2.675   4.197  1.1065  0.1517 -1.3970
 8951TIP3    H248269   6.539   2.530   4.216  2.1329  0.1370  0.9740
 8952TIP3   OH248270   3.034   1.983  11.657 -0.1968  0.0831 -0.1441
 8952TIP3    H148271   3.009   1.909  11.603 -0.2766 -0.3415  0.4630
 8952TIP3    H248272   3.124   2.002  11.632 -0.0559 -0.4524 -0.0513
 8953TIP3   OH248273   0.982   4.000   1.615  0.4432  0.2452 -0.4665
 8953TIP3    H148274   0.942   3.997   1.528  0.4679 -0.7882 -0.4522
 8953TIP3    H248275   0.923   4.055   1.667 -0.0651  0.1061 -0.8911
 8954TIP3   OH248276   6.014   1.964  14.950 -0.3383 -0.0194  0.3255
 8954TIP3    H148277   6.018   1.887  15.007 -0.7200 -0.7147 -0.5747
 8954TIP3    H248278   5.956   2.025  14.997 -0.0724 -0.2887  1.0221
 8955TIP3   OH248279   5.148   0.881   0.261 -0.5875 -0.3894 -0.4113
 8955TIP3    H148280   5.080   0.893   0.195 -0.8615  0.3919 -0.0008
 8955TIP3    H248281   5.110   0.819   0.324 -1.0058  0.1786 -0.0882
 8956TIP3   OH248282   3.233   3.600  15.388 -0.0504 -0.1041 -0.1554
 8956TIP3    H148283   3.187   3.676  15.352 -0.1586  0.3999  1.0045
 8956TIP3    H248284   3.324   3.612  15.362 -0.3959 -0.6747 -1.7488
 8957TIP3   OH248285   0.266   3.123   3.660 -0.5375  0.0067 -0.4543
 8957TIP3    H148286   0.202   3.171   3.607  1.0610  0.8915 -1.7029
 8957TIP3    H248287   0.292   3.049   3.604  0.1782  0.1813 -0.3663
 8958TIP3   OH248288   2.234   0.185   4.506 -0.1195  0.2991 -0.3691
 8958TIP3    H148289   2.221   0.094   4.477 -0.7921  0.1097  0.4742
 8958TIP3    H248290   2.309   0.180   4.565  1.4953  0.7487 -2.3001
 8959TIP3   OH248291   1.357   2.808  17.438 -0.1454 -0.1158 -0.0103
 8959TIP3    H148292   1.381   2.760  17.359 -0.4978  0.2088 -0.3180
 8959TIP3    H248293   1.439   2.845  17.470 -0.0004 -0.2579 -0.2172
 8960TIP3   OH248294   0.971   5.471  15.324 -0.9683 -0.0066  0.0894
 8960TIP3    H148295   0.914   5.436  15.256 -2.6738 -0.3227  1.6000
 8960TIP3    H248296   1.014   5.394  15.361  2.5746  0.3722 -2.6558
 8961TIP3   OH248297   5.587   5.274   1.697  0.4616  0.0408 -0.1703
 8961TIP3    H148298   5.659   5.212   1.694  0.6477  0.0546  2.0824
 8961TIP3    H248299   5.519   5.229   1.748 -0.2029  0.9140 -0.2587
 8962TIP3   OH248300   6.537   2.834  16.671  0.0290  0.0166  0.0927
 8962TIP3    H148301   6.480   2.774  16.719  1.7693 -0.8378  1.1749
 8962TIP3    H248302   6.491   2.917  16.672 -0.8359 -0.4504  1.6169
 8963TIP3   OH248303   4.083   2.378  11.776 -0.2736  0.3823 -0.0241
 8963TIP3    H148304   4.075   2.305  11.837  0.4445  0.9690  0.8022
 8963TIP3    H248305   4.145   2.348  11.710 -2.6022 -1.0416 -1.7077
 8964TIP3   OH248306   4.184   6.606   3.773 -0.9837  0.4437  0.1081
 8964TIP3    H148307   4.111   6.599   3.834 -1.7428  0.2664 -0.7827
 8964TIP3    H248308   4.142   6.614   3.687  0.0472 -0.3075 -0.4928
 8965TIP3   OH248309   0.203   2.443  11.595 -0.2435  0.6297  0.2930
 8965TIP3    H148310   0.195   2.496  11.516  0.7226 -0.1543 -0.3610
 8965TIP3    H248311   0.247   2.363  11.566 -0.6594 -0.0550  1.4603
 8966TIP3   OH248312   1.999   0.928  13.912  0.5464 -0.0225 -0.7792
 8966TIP3    H148313   2.047   0.936  13.994  0.1751 -0.5827 -0.5048
 8966TIP3    H248314   1.964   0.839  13.912 -0.6215  0.4107 -0.8897
 8967TIP3   OH248315   6.295   0.558  13.195 -1.3213 -0.8597 -0.1188
 8967TIP3    H148316   6.264   0.644  13.223  1.1826 -0.4603  1.7884
 8967TIP3    H248317   6.362   0.576  13.130 -1.5485 -1.4624 -0.5408
 8968TIP3   OH248318   3.561   1.799  16.745 -0.8293  0.3332 -0.0895
 8968TIP3    H148319   3.514   1.829  16.822 -0.5220 -0.7593  0.5390
 8968TIP3    H248320   3.501   1.740  16.701 -0.7970  0.5251 -0.3976
 8969TIP3   OH248321   3.826   4.387  13.917 -0.3810  0.3865  0.2772
 8969TIP3    H148322   3.909   4.430  13.938  0.4399 -0.3801 -1.1278
 8969TIP3    H248323   3.853   4.299  13.889 -1.8576 -0.5143  1.5985
 8970TIP3   OH248324   5.790   1.461   2.209 -0.7771 -0.2933  0.6362
 8970TIP3    H148325   5.824   1.469   2.120 -2.1588  2.0990  0.2316
 8970TIP3    H248326   5.856   1.502   2.264  0.0063 -1.6343  0.7304
 8971TIP3   OH248327   6.153   1.713  15.015  0.0758 -0.0732  0.3166
 8971TIP3    H148328   6.216   1.659  15.064 -0.8867  1.8225  4.0540
 8971TIP3    H248329   6.206   1.782  14.976  0.6686 -0.3188  0.6585
 8972TIP3   OH248330   4.778   2.682   5.195  0.3904 -0.4130 -0.1167
 8972TIP3    H148331   4.775   2.724   5.109 -0.7030 -0.7052 -0.2291
 8972TIP3    H248332   4.836   2.738   5.246  1.1193 -0.2741 -1.0562
 8973TIP3   OH248333   3.054   0.370  12.964  0.1572  0.0541  0.6447
 8973TIP3    H148334   3.028   0.444  12.910 -1.6551 -0.9922 -0.0009
 8973TIP3    H248335   2.973   0.323  12.982  1.3308 -2.3481  0.1379
 8974TIP3   OH248336   2.723   2.082  12.184 -0.3965 -0.8353  0.2907
 8974TIP3    H148337   2.771   2.098  12.102 -0.8669  3.7035  0.6856
 8974TIP3    H248338   2.631   2.090  12.160 -0.5248  1.6606  1.2896
 8975TIP3   OH248339   3.995   0.770  12.865 -0.6969 -0.1196 -0.4705
 8975TIP3    H148340   3.952   0.854  12.847  0.9839  0.4536 -2.0958
 8975TIP3    H248341   3.941   0.729  12.933 -2.5093  1.5234 -0.8466
 8976TIP3   OH248342   0.053   0.365  16.684  0.3934  0.1731  0.4215
 8976TIP3    H148343   0.120   0.314  16.638  0.6243 -0.4505  1.4080
 8976TIP3    H248344   0.092   0.382  16.770 -0.6489 -0.0802  0.9588
 8977TIP3   OH248345   0.275   1.298  11.176  0.3410  0.3095  0.3549
 8977TIP3    H148346   0.186   1.333  11.182  0.0883 -0.2866  0.2123
 8977TIP3    H248347   0.319   1.354  11.111 -0.1509  0.1668 -0.1077
 8978TIP3   OH248348   0.186   2.110   5.286 -0.2294  0.0861  0.4961
 8978TIP3    H148349   0.175   2.089   5.193 -2.2474  0.7236  0.5407
 8978TIP3    H248350   0.209   2.027   5.327  0.4683 -0.2475 -0.5362
 8979TIP3   OH248351   0.999   0.706  15.504 -0.2059  0.2256  0.1096
 8979TIP3    H148352   0.930   0.763  15.469 -0.5512  0.6788  1.4659
 8979TIP3    H248353   1.053   0.765  15.558  0.7380 -0.3029 -0.2289
 8980TIP3   OH248354   6.136   0.172  11.346  0.7063 -0.3551 -0.1711
 8980TIP3    H148355   6.071   0.166  11.416  3.8783 -1.9212  2.9141
 8980TIP3    H248356   6.142   0.266  11.328 -1.7339 -0.0872 -0.0223
 8981TIP3   OH248357   5.650   0.866   1.068  0.0884 -0.3600 -0.1163
 8981TIP3    H148358   5.604   0.943   1.103 -1.2841 -1.0832 -0.2384
 8981TIP3    H248359   5.739   0.897   1.051  0.0460  0.7262  1.4493
 8982TIP3   OH248360   3.149   4.567   1.761  0.0045  0.0864 -0.2271
 8982TIP3    H148361   3.176   4.530   1.845 -1.7326 -1.6812 -0.3553
 8982TIP3    H248362   3.230   4.577   1.711  0.9446  0.1538  1.2488
 8983TIP3   OH248363   3.968   2.516  13.950 -0.4324  0.3848 -0.0180
 8983TIP3    H148364   3.949   2.487  13.861  0.1290 -0.0797  0.0122
 8983TIP3    H248365   3.973   2.436  14.001  1.2021  0.4988  0.0441
 8984TIP3   OH248366   5.476   0.093  10.969 -0.1994  0.1295 -0.3163
 8984TIP3    H148367   5.382   0.103  10.961 -0.0705  2.4294  0.2699
 8984TIP3    H248368   5.488   0.010  11.017 -1.9862  0.5820  1.0092
 8985TIP3   OH248369   4.791   5.567   5.524  0.2257  0.2909 -0.3713
 8985TIP3    H148370   4.741   5.634   5.570 -0.3168 -1.3575  1.5875
 8985TIP3    H248371   4.813   5.607   5.440 -3.0673  1.6395 -0.7342
 8986TIP3   OH248372   4.807   6.497  10.752  0.1778  0.3882  0.1104
 8986TIP3    H148373   4.824   6.420  10.696 -0.4481 -0.1016  0.5741
 8986TIP3    H248374   4.889   6.511  10.799  0.6556  0.6987 -0.7938
 8987TIP3   OH248375   1.488   0.148  16.870 -0.1040 -0.3034  0.0881
 8987TIP3    H148376   1.447   0.080  16.817 -1.4060  0.7420 -0.3091
 8987TIP3    H248377   1.435   0.226  16.854  2.4044  1.3252 -0.9474
 8988TIP3   OH248378   1.972   6.264  16.323 -0.1645 -0.5721 -0.0999
 8988TIP3    H148379   1.920   6.202  16.375  0.7009 -1.9173 -0.7863
 8988TIP3    H248380   2.047   6.284  16.378 -1.5914  1.8364  1.1429
 8989TIP3   OH248381   1.474   4.263  16.643  0.4719  0.6466  0.2721
 8989TIP3    H148382   1.457   4.173  16.671  0.5856  0.7498  0.6847
 8989TIP3    H248383   1.556   4.258  16.594 -0.8199  0.1014 -1.9527
 8990TIP3   OH248384   3.318   3.427  13.016  0.4392 -0.1330  0.0805
 8990TIP3    H148385   3.264   3.498  12.983  0.8836 -0.2370 -0.9180
 8990TIP3    H248386   3.293   3.417  13.108 -0.5091  0.4768 -0.1068
 8991TIP3   OH248387   1.897   3.527   1.125 -0.3328 -0.2655 -0.2653
 8991TIP3    H148388   1.960   3.474   1.173 -1.8667 -1.0054  1.0207
 8991TIP3    H248389   1.843   3.463   1.078 -3.1898 -0.1213  2.4941
 8992TIP3   OH248390   0.237   4.553   6.335 -0.1950 -0.1124  0.0245
 8992TIP3    H148391   0.325   4.558   6.373 -0.5209 -2.2135  1.2382
 8992TIP3    H248392   0.252   4.528   6.244  0.4788  0.0461  0.0840
 8993TIP3   OH248393   3.909   4.682   1.940  0.8361 -0.1738 -0.2964
 8993TIP3    H148394   3.904   4.593   1.975  0.4331 -0.1407 -0.2696
 8993TIP3    H248395   3.824   4.697   1.900  0.9914  0.1101 -0.5243
 8994TIP3   OH248396   2.257   1.976   5.500  0.1997 -0.2087 -0.2628
 8994TIP3    H148397   2.329   2.036   5.478 -0.4666  0.5697 -0.4004
 8994TIP3    H248398   2.183   2.010   5.450 -0.3415 -0.8209  0.1126
 8995TIP3   OH248399   0.412   2.426   2.162 -0.3018 -0.0614  0.6705
 8995TIP3    H148400   0.330   2.461   2.197 -0.7707  0.6360 -1.0318
 8995TIP3    H248401   0.402   2.331   2.170 -1.2138  0.0176  0.6155
 8996TIP3   OH248402   1.322   0.854   2.832 -0.7647 -0.7455  0.4161
 8996TIP3    H148403   1.368   0.903   2.764  0.0693  1.1636  2.2775
 8996TIP3    H248404   1.264   0.795   2.783 -0.0327  0.3657 -1.9304
 8997TIP3   OH248405   4.920   4.265   6.343 -0.0030  0.2713 -0.1180
 8997TIP3    H148406   4.827   4.281   6.327  0.1161  0.3814 -0.7227
 8997TIP3    H248407   4.925   4.245   6.437 -0.3625  2.3221  0.4039
 8998TIP3   OH248408   5.811   4.660   3.712  0.4188  0.7520 -0.3821
 8998TIP3    H148409   5.883   4.609   3.675  0.0281 -0.6422  0.7195
 8998TIP3    H248410   5.738   4.645   3.651  0.5267  0.6425 -0.4857
 8999TIP3   OH248411   1.173   1.007   2.138  0.6093 -0.3686 -0.5195
 8999TIP3    H148412   1.174   0.919   2.101  0.4935 -0.7246  0.3144
 8999TIP3    H248413   1.116   1.057   2.079  0.8109 -0.8015 -1.0929
 9000TIP3   OH248414   3.994   5.541   4.809  0.2128 -0.0296 -0.3488
 9000TIP3    H148415   4.039   5.510   4.730  0.9096 -1.2554  0.4969
 9000TIP3    H248416   3.942   5.616   4.779  1.8285  0.6494 -1.6276
 9001TIP3   OH248417   1.867   4.553   5.128  0.1711  0.2064  0.0658
 9001TIP3    H148418   1.786   4.557   5.076  0.3871 -2.2443 -0.5662
 9001TIP3    H248419   1.841   4.583   5.215 -1.5671 -0.9952  0.0075
 9002TIP3   OH248420   2.129   6.463   0.742  0.2890  0.2183  0.8681
 9002TIP3    H148421   2.135   6.453   0.837 -1.5976 -0.6305  0.9532
 9002TIP3    H248422   2.110   6.556   0.728 -0.2077  0.1996  1.3870
 9003TIP3   OH248423   6.507   3.703   6.267  0.6253  0.1305 -0.4696
 9003TIP3    H148424   6.519   3.776   6.206  1.9319 -0.5420 -1.0689
 9003TIP3    H248425   6.518   3.625   6.213 -0.2693 -0.5165  0.2542
 9004TIP3   OH248426   0.998   1.090   1.740 -0.1620  0.1692  0.1295
 9004TIP3    H148427   1.051   1.119   1.666 -0.5501 -3.0309 -1.5932
 9004TIP3    H248428   0.908   1.096   1.709 -0.4622  0.5106  1.0357
 9005TIP3   OH248429   4.941   3.116   2.950  0.6541  0.2889  0.6718
 9005TIP3    H148430   4.878   3.175   2.991  1.8558  1.9881  0.1467
 9005TIP3    H248431   5.027   3.148   2.979  1.3394 -1.4186  0.6433
 9006TIP3   OH248432   1.247   1.241  16.799 -0.3034  0.0492  0.4669
 9006TIP3    H148433   1.275   1.162  16.846 -1.7666 -1.1203 -0.5255
 9006TIP3    H248434   1.307   1.248  16.725  0.0247  0.0699  0.7302
 9007TIP3   OH248435   3.919   2.374   4.175 -0.0378  0.0538  0.1816
 9007TIP3    H148436   4.009   2.347   4.194 -1.0432 -2.7658  1.4216
 9007TIP3    H248437   3.880   2.298   4.133 -1.6580  1.5448 -1.1446
 9008TIP3   OH248438   2.697   4.602  16.576 -0.1815 -0.1018  0.4176
 9008TIP3    H148439   2.779   4.554  16.571  0.5064  1.1115 -0.6767
 9008TIP3    H248440   2.631   4.539  16.547  0.6848 -0.4320 -0.9791
 9009TIP3   OH248441   0.715   5.994  15.763  0.2998  0.6606  0.3387
 9009TIP3    H148442   0.765   6.047  15.700  1.6655  0.0681  0.8906
 9009TIP3    H248443   0.639   6.048  15.783  0.9653  1.8373 -0.1473
 9010TIP3   OH248444   2.584   6.372  17.437  0.4253 -0.1852  0.0671
 9010TIP3    H148445   2.572   6.416  17.353  0.3770 -0.5274 -0.1066
 9010TIP3    H248446   2.529   6.421  17.498  1.7740  1.1233  0.2738
 9011TIP3   OH248447   3.791   4.872  15.522  1.0162 -0.7809 -0.5480
 9011TIP3    H148448   3.726   4.888  15.454 -0.0656 -1.4074  0.3120
 9011TIP3    H248449   3.874   4.864  15.474  0.7146  1.3493 -1.5446
 9012TIP3   OH248450   1.399   4.375   2.927 -0.3161  0.3913 -0.4957
 9012TIP3    H148451   1.308   4.394   2.901 -1.0310 -1.9876 -0.0121
 9012TIP3    H248452   1.432   4.458   2.961 -2.2350  1.3945 -0.9237
 9013TIP3   OH248453   1.502   5.814  16.313 -0.0197 -0.0551 -0.1282
 9013TIP3    H148454   1.567   5.852  16.254  1.6840 -0.1033  1.6157
 9013TIP3    H248455   1.428   5.792  16.257  1.6018 -0.3169 -2.2721
 9014TIP3   OH248456   3.415   5.297   1.642 -0.5838 -0.5067  0.1790
 9014TIP3    H148457   3.473   5.222   1.659 -0.5879 -0.4084  0.6390
 9014TIP3    H248458   3.353   5.264   1.578 -0.9049 -1.0740  0.7597
 9015TIP3   OH248459   0.103   4.903   4.307  0.3321 -0.2359 -0.3310
 9015TIP3    H148460   0.134   4.830   4.360  0.6976  0.2199  0.0938
 9015TIP3    H248461   0.014   4.878   4.281  0.0848 -0.4080  0.6279
 9016TIP3   OH248462   1.688   2.925  16.090  0.0974  0.0221 -0.5251
 9016TIP3    H148463   1.692   3.006  16.141 -1.2974  0.2865 -0.7963
 9016TIP3    H248464   1.723   2.858  16.149  0.5130  0.6797 -0.0109
 9017TIP3   OH248465   5.450   1.691  14.073 -0.1955  0.4339 -0.0349
 9017TIP3    H148466   5.508   1.677  14.148  0.0385  0.6390 -0.1744
 9017TIP3    H248467   5.364   1.709  14.112 -0.5354 -1.4196  0.1470
 9018TIP3   OH248468   5.889   5.313  12.458  0.0637 -0.0380 -0.0964
 9018TIP3    H148469   5.965   5.371  12.456  0.8696 -1.0901 -0.5142
 9018TIP3    H248470   5.822   5.359  12.408  0.3632  0.9694  0.4099
 9019TIP3   OH248471   0.883   1.802   1.214  0.1646  0.7682 -0.2308
 9019TIP3    H148472   0.802   1.806   1.164 -0.5194  0.3966  0.8018
 9019TIP3    H248473   0.863   1.848   1.296  0.7906  0.1439  0.2918
 9020TIP3   OH248474   5.237   4.257   5.801  0.0660  0.0841  0.3055
 9020TIP3    H148475   5.232   4.204   5.881  0.9375 -1.4088 -0.5719
 9020TIP3    H248476   5.184   4.209   5.738  0.7271  0.3410 -0.4635
 9021TIP3   OH248477   4.533   2.440   2.070  0.3951 -0.0350 -0.0980
 9021TIP3    H148478   4.492   2.365   2.028  0.3557 -0.1399  0.1235
 9021TIP3    H248479   4.472   2.465   2.140  0.6233 -0.0840  0.1236
 9022TIP3   OH248480   2.899   2.263   1.698 -0.0731 -0.0529  0.1916
 9022TIP3    H148481   2.876   2.350   1.730  0.4292 -0.1271  0.7837
 9022TIP3    H248482   2.883   2.267   1.604  0.3055  0.7992  0.1499
 9023TIP3   OH248483   6.347   6.115  15.968 -0.1927  0.0265  0.3209
 9023TIP3    H148484   6.323   6.204  15.943  0.4240  0.2753  0.5835
 9023TIP3    H248485   6.398   6.082  15.893 -1.5502 -0.5994 -0.3545
 9024TIP3   OH248486   0.914   4.663   0.474  0.2806  0.1470  0.3015
 9024TIP3    H148487   0.907   4.738   0.415 -0.9140  1.2362  1.7446
 9024TIP3    H248488   0.823   4.636   0.488  0.4102  0.7049  2.5755
 9025TIP3   OH248489   5.660   3.039   2.804 -0.0291 -0.2639 -0.2660
 9025TIP3    H148490   5.597   2.991   2.749 -1.9621  1.5016  0.2703
 9025TIP3    H248491   5.658   2.993   2.888  0.8888 -1.3561 -0.8175
 9026TIP3   OH248492   5.121   1.600  11.705  0.0361 -0.2113 -0.2060
 9026TIP3    H148493   5.190   1.665  11.689 -0.6629  0.4972 -0.4538
 9026TIP3    H248494   5.064   1.641  11.770  0.8669 -1.5776  1.4451
 9027TIP3   OH248495   5.797   3.042   6.189  0.2662 -0.3002 -0.1730
 9027TIP3    H148496   5.829   2.968   6.137 -0.3061 -1.1244  0.6203
 9027TIP3    H248497   5.717   3.069   6.144 -1.4038 -2.3597  1.3542
 9028TIP3   OH248498   5.990   0.434  13.766  0.3282  0.0715 -0.2039
 9028TIP3    H148499   5.971   0.463  13.855 -0.1515  1.5944 -0.7719
 9028TIP3    H248500   6.044   0.504  13.729  2.5953 -1.6478 -0.3855
 9029TIP3   OH248501   2.891   0.392   2.910  0.3960  0.9445 -0.3165
 9029TIP3    H148502   2.921   0.355   2.993  1.4190 -0.5867 -1.3207
 9029TIP3    H248503   2.891   0.487   2.925 -2.3627  0.6727  2.3660
 9030TIP3   OH248504   6.291   5.993   0.633 -0.9999  0.6583 -0.5488
 9030TIP3    H148505   6.295   6.038   0.717  1.8717  0.2753 -0.3794
 9030TIP3    H248506   6.297   5.900   0.655  1.3654  0.5984 -1.1312
 9031TIP3   OH248507   5.462   5.507  12.180  0.4212 -0.0939  1.1541
 9031TIP3    H148508   5.460   5.603  12.173  0.0238 -0.1444  0.4853
 9031TIP3    H248509   5.397   5.488  12.248 -1.5227 -0.0247 -0.6013
 9032TIP3   OH248510   0.291   2.846   1.578 -0.3387  0.0504 -0.4569
 9032TIP3    H148511   0.310   2.777   1.641 -1.2693 -1.6386 -1.9203
 9032TIP3    H248512   0.368   2.849   1.521 -0.2079  0.3840 -0.2651
 9033TIP3   OH248513   3.702   5.503  10.742 -0.1495 -0.0113 -0.5139
 9033TIP3    H148514   3.608   5.498  10.762 -0.4929  1.9175 -1.3837
 9033TIP3    H248515   3.739   5.551  10.816  0.1171 -0.5220 -0.3104
 9034TIP3   OH248516   0.174   1.675  10.987  0.2900  0.1341 -0.1406
 9034TIP3    H148517   0.202   1.697  10.898 -0.3331  2.3497  0.1505
 9034TIP3    H248518   0.240   1.614  11.018  0.4079 -0.8883 -2.1715
 9035TIP3   OH248519   6.356   5.841  13.771  0.2041  0.3297  0.2092
 9035TIP3    H148520   6.386   5.910  13.712  2.1061  0.1881  0.9379
 9035TIP3    H248521   6.409   5.852  13.850  0.6947 -2.0458  0.2763
 9036TIP3   OH248522   2.186   1.202   1.256  0.0915 -0.6711 -0.0539
 9036TIP3    H148523   2.171   1.287   1.214  1.8544 -0.5795 -0.5771
 9036TIP3    H248524   2.102   1.156   1.248 -0.9955  1.1146  0.5197
 9037TIP3   OH248525   2.659   0.261   1.043 -0.1558 -0.6090  0.7124
 9037TIP3    H148526   2.754   0.261   1.055 -0.2314  1.0693  1.6286
 9037TIP3    H248527   2.625   0.210   1.117  0.0283 -1.0545  0.4870
 9038TIP3   OH248528   5.358   1.685   5.448  0.4600 -0.7785  0.5669
 9038TIP3    H148529   5.307   1.733   5.384  2.9044  0.7792 -0.3665
 9038TIP3    H248530   5.301   1.679   5.525 -1.2001  0.5415 -0.4924
 9039TIP3   OH248531   5.667   1.831  16.939 -0.6200 -0.0691 -0.6095
 9039TIP3    H148532   5.762   1.846  16.938 -0.6363  0.1208  0.3358
 9039TIP3    H248533   5.655   1.757  16.998 -1.0618 -0.0602 -0.6855
 9040TIP3   OH248534   4.940   4.763  17.125 -0.5882  0.6165  0.1033
 9040TIP3    H148535   4.962   4.856  17.120 -1.7976  0.8672 -0.9776
 9040TIP3    H248536   4.925   4.747  17.218 -0.5674  1.5461  0.2721
 9041TIP3   OH248537   0.068   0.814   0.943  0.2003  0.7373  0.4392
 9041TIP3    H148538   0.045   0.728   0.910  0.1416  1.6270 -2.0392
 9041TIP3    H248539   0.037   0.814   1.034 -1.3714 -1.2199 -0.0321
 9042TIP3   OH248540   4.690   0.392  14.607 -0.3432  0.5800  0.0566
 9042TIP3    H148541   4.712   0.308  14.646 -0.1931  1.4999  2.0605
 9042TIP3    H248542   4.699   0.378  14.513  0.8433 -1.3112  0.4082
 9043TIP3   OH248543   2.832   1.713   0.902  0.0333  0.6026  0.7417
 9043TIP3    H148544   2.881   1.751   0.975  0.8791 -0.6192  0.8529
 9043TIP3    H248545   2.803   1.788   0.850  1.4007  1.4038  1.0856
 9044TIP3   OH248546   2.625   6.731  11.783  0.1408  0.5363 -0.3242
 9044TIP3    H148547   2.665   6.648  11.810  1.6500  1.3420  0.0488
 9044TIP3    H248548   2.580   6.763  11.861  1.4826  1.1378  0.2358
 9045TIP3   OH248549   1.903   0.459   2.239  0.2725  0.3893  0.4311
 9045TIP3    H148550   1.955   0.492   2.313  1.0684  1.3094 -0.5216
 9045TIP3    H248551   1.953   0.483   2.161 -0.9786  0.1861 -0.4611
 9046TIP3   OH248552   2.948   6.067   4.727  0.5095 -0.4227 -0.0003
 9046TIP3    H148553   3.004   5.997   4.761  2.2137  1.0805  0.3953
 9046TIP3    H248554   2.860   6.028   4.725  1.5098 -2.8130 -0.5524
 9047TIP3   OH248555   4.387   5.298  13.324 -0.7024  0.6130 -0.6695
 9047TIP3    H148556   4.312   5.331  13.275 -0.8434 -1.7686 -2.2106
 9047TIP3    H248557   4.447   5.265  13.256 -0.8065 -2.6274  0.6450
 9048TIP3   OH248558   1.466   4.029   2.003  0.4243 -0.0320  0.3101
 9048TIP3    H148559   1.551   4.074   2.011  0.0068  0.7794  0.3057
 9048TIP3    H248560   1.465   3.996   1.913  0.2357  1.0277 -0.0925
 9049TIP3   OH248561   0.923   2.324  14.839 -0.5118 -0.6155  0.2516
 9049TIP3    H148562   0.976   2.309  14.918  2.4420  2.3142 -0.9257
 9049TIP3    H248563   0.874   2.404  14.859 -1.1590 -0.8801 -0.2666
 9050TIP3   OH248564   4.377   2.395   1.408 -0.4472 -0.0704 -0.0558
 9050TIP3    H148565   4.403   2.318   1.458  0.3177 -0.1750 -0.5991
 9050TIP3    H248566   4.381   2.467   1.470 -1.0619 -0.4441  0.4285
 9051TIP3   OH248567   2.773   2.900  16.051  0.1538  0.4224  0.0186
 9051TIP3    H148568   2.705   2.957  16.016 -0.7027 -0.4541  0.2252
 9051TIP3    H248569   2.782   2.831  15.985  0.3389  0.1515  0.3248
 9052TIP3   OH248570   0.924   1.205  13.371 -0.1267 -0.1900  0.5459
 9052TIP3    H148571   0.985   1.132  13.361  0.0494 -0.0767  0.7913
 9052TIP3    H248572   0.880   1.189  13.454  0.2139  0.2076  0.8038
 9053TIP3   OH248573   0.993   3.097   2.541 -0.5969  0.2776  0.0353
 9053TIP3    H148574   1.002   3.171   2.482 -0.4750 -1.4240 -2.1961
 9053TIP3    H248575   1.035   3.126   2.622  2.3828  1.5564 -1.8071
 9054TIP3   OH248576   5.849   1.192  15.812 -0.4507 -0.1126  0.3216
 9054TIP3    H148577   5.871   1.195  15.905  0.1058  1.9540  0.1864
 9054TIP3    H248578   5.933   1.198  15.767 -0.7823 -0.0525 -0.3080
 9055TIP3   OH248579   4.851   0.318  15.781  0.2272  0.1229 -0.0146
 9055TIP3    H148580   4.870   0.319  15.687 -0.5304 -1.7882 -0.2452
 9055TIP3    H248581   4.781   0.381  15.793 -0.0874 -0.0598 -0.8573
 9056TIP3   OH248582   3.928   6.210  16.149  0.3530 -0.1725  0.0199
 9056TIP3    H148583   3.909   6.222  16.056  1.6786  1.9054 -0.0513
 9056TIP3    H248584   3.870   6.271  16.193 -0.7973 -1.6758  0.6689
 9057TIP3   OH248585   6.132   2.269  11.756  0.0674 -0.3432  0.3801
 9057TIP3    H148586   6.063   2.313  11.806  0.0905  0.4806 -0.2774
 9057TIP3    H248587   6.100   2.180  11.743 -0.9496  0.0766 -0.0581
 9058TIP3   OH248588   0.217   4.666   3.975  0.9347  0.1992 -0.2063
 9058TIP3    H148589   0.176   4.750   3.997  0.8306 -0.1474  0.9796
 9058TIP3    H248590   0.224   4.667   3.879 -2.0568  0.1946 -0.5151
 9059TIP3   OH248591   4.642   0.056  17.430  0.2477 -0.1344  0.0414
 9059TIP3    H148592   4.549   0.070  17.446  0.2487 -0.4587  0.3521
 9059TIP3    H248593   4.684   0.078  17.513  0.5184  0.6322 -0.2827
 9060TIP3   OH248594   2.055   2.209   4.194  0.4251  0.1668  0.5201
 9060TIP3    H148595   2.038   2.182   4.284 -0.9252 -1.5795 -0.1898
 9060TIP3    H248596   1.971   2.238   4.161  0.9181  0.8625 -0.1674
 9061TIP3   OH248597   1.225   6.538   2.464 -0.1818  0.5287 -0.7400
 9061TIP3    H148598   1.187   6.457   2.431 -0.9165 -0.2021  1.6511
 9061TIP3    H248599   1.162   6.569   2.530  1.2669  1.6646  0.1814
 9062TIP3   OH248600   2.189   1.896   1.905  0.2181 -0.2769  0.0046
 9062TIP3    H148601   2.121   1.860   1.849 -1.1514  1.3165  0.5289
 9062TIP3    H248602   2.208   1.982   1.867  0.4623  0.1241  0.9902
 9063TIP3   OH248603   3.306   5.829   4.296 -0.1166 -0.1182  0.0709
 9063TIP3    H148604   3.369   5.852   4.363 -1.4807 -0.6305  1.5947
 9063TIP3    H248605   3.225   5.873   4.322 -0.6555 -0.2213 -1.3043
 9064TIP3   OH248606   0.374   6.118   4.935  0.4174  0.1193  0.2123
 9064TIP3    H148607   0.294   6.166   4.915  2.0642  2.6444 -0.8750
 9064TIP3    H248608   0.408   6.090   4.850  1.2249  0.0464  0.5441
 9065TIP3   OH248609   0.772   5.962  16.540  0.1410 -0.4794  0.0348
 9065TIP3    H148610   0.683   5.973  16.507  0.1956 -1.4219 -0.4543
 9065TIP3    H248611   0.803   5.882  16.498  1.1075 -0.3272  0.4483
 9066TIP3   OH248612   1.367   5.595  11.585  0.2410  0.3041 -0.6448
 9066TIP3    H148613   1.416   5.609  11.504  0.6927  1.3808 -0.2152
 9066TIP3    H248614   1.413   5.649  11.650 -0.9256  0.5466  0.0046
 9067TIP3   OH248615   3.270   5.909   0.737 -0.7037 -0.7090 -0.1242
 9067TIP3    H148616   3.352   5.859   0.734 -0.8798 -0.9956 -0.1611
 9067TIP3    H248617   3.208   5.858   0.685 -0.4086  0.4435 -1.6731
 9068TIP3   OH248618   2.040   3.903   2.371 -0.1475 -0.7555 -0.5539
 9068TIP3    H148619   1.964   3.847   2.385  0.3887 -1.0447  1.4404
 9068TIP3    H248620   2.010   3.991   2.394 -0.7680 -0.2449 -2.9592
 9069TIP3   OH248621   2.284   2.461   5.398  0.0255 -0.0685 -0.2906
 9069TIP3    H148622   2.346   2.467   5.325  0.7608 -1.1781  0.2144
 9069TIP3    H248623   2.329   2.407   5.463 -0.4521  1.2084  1.1589
 9070TIP3   OH248624   0.178   4.335   3.398  0.2075  0.3575  0.2820
 9070TIP3    H148625   0.114   4.381   3.452  0.4431  2.4540 -1.1002
 9070TIP3    H248626   0.138   4.330   3.312  2.3858  3.1365 -1.0398
 9071TIP3   OH248627   5.002   5.511   3.343  0.4904  0.2867 -0.1974
 9071TIP3    H148628   5.054   5.579   3.300 -1.2015  1.1312 -1.0213
 9071TIP3    H248629   5.006   5.532   3.436 -2.0730  3.1925 -0.5789
 9072TIP3   OH248630   0.456   4.553   2.020  0.0390 -0.2412 -0.0757
 9072TIP3    H148631   0.442   4.624   2.083  0.7656 -0.0319 -0.1416
 9072TIP3    H248632   0.551   4.540   2.019  0.4323  1.7769 -3.2724
 9073TIP3   OH248633   3.983   1.724  17.331  0.2549 -0.2233 -0.3552
 9073TIP3    H148634   4.037   1.718  17.409 -0.3496 -1.7203 -0.0139
 9073TIP3    H248635   3.916   1.789  17.352  1.4442  1.0840 -0.5087
 9074TIP3   OH248636   2.100   5.947  16.340  0.1841  0.3538  0.0791
 9074TIP3    H148637   2.164   6.001  16.294 -0.2848 -0.2647 -1.3513
 9074TIP3    H248638   2.140   5.860  16.344 -0.7415 -0.1542 -1.2609
 9075TIP3   OH248639   6.702   2.250  11.058 -0.6282  0.2028 -0.4779
 9075TIP3    H148640   6.739   2.179  11.110 -0.1965  0.2105 -0.7663
 9075TIP3    H248641   6.657   2.206  10.985  0.8098  0.2480 -1.4242
 9076TIP3   OH248642   5.343   5.373   1.504  0.2131  0.1235 -0.2829
 9076TIP3    H148643   5.437   5.394   1.508 -0.0396  1.2867 -0.0189
 9076TIP3    H248644   5.339   5.279   1.521  1.4809 -0.3625 -2.2935
 9077TIP3   OH248645   5.178   0.557   0.163  0.1412  0.2862 -0.8560
 9077TIP3    H148646   5.110   0.623   0.149 -0.1019 -0.1162 -1.6208
 9077TIP3    H248647   5.157   0.518   0.247 -0.8160 -0.1104 -1.2700
 9078TIP3   OH248648   2.842   5.823   4.630 -0.1559  0.8310  0.9164
 9078TIP3    H148649   2.843   5.842   4.537 -0.6616  0.7956  0.8974
 9078TIP3    H248650   2.882   5.737   4.639  2.4951  1.9742  1.0347
 9079TIP3   OH248651   2.178   2.666  16.704 -0.0002 -0.7643 -0.4945
 9079TIP3    H148652   2.273   2.653  16.708  0.5029  1.8242 -1.9443
 9079TIP3    H248653   2.150   2.618  16.626  0.0306 -1.7965  0.1121
 9080TIP3   OH248654   3.770   2.968  15.496  0.3476  0.2022  0.0743
 9080TIP3    H148655   3.738   2.879  15.483  2.1178 -0.5139  0.3376
 9080TIP3    H248656   3.703   3.024  15.456 -0.0578 -1.3137 -1.4828
 9081TIP3   OH248657   0.504   4.314   0.203 -0.4228  0.3967 -0.6164
 9081TIP3    H148658   0.484   4.264   0.282  1.3422 -0.1617 -0.4854
 9081TIP3    H248659   0.548   4.393   0.235  0.3839  0.1220 -1.0464
 9082TIP3   OH248660   3.368   6.270   2.142 -0.1151  0.2120  0.5797
 9082TIP3    H148661   3.370   6.217   2.222  1.2447 -1.2497 -0.3655
 9082TIP3    H248662   3.287   6.321   2.150 -0.5449 -0.6429  2.4029
 9083TIP3   OH248663   2.740   4.763   5.923 -0.2349  0.8301  0.5413
 9083TIP3    H148664   2.791   4.831   5.879 -1.0700  0.9081 -0.3524
 9083TIP3    H248665   2.717   4.701   5.853  0.6121 -0.4518  1.3591
 9084TIP3   OH248666   6.457   1.463  12.032  0.4474 -0.2248 -0.3710
 9084TIP3    H148667   6.507   1.545  12.027 -1.4371  1.2468  2.3817
 9084TIP3    H248668   6.376   1.481  11.985  0.1168 -0.5689  0.0554
 9085TIP3   OH248669   3.964   0.631   2.756 -0.3192  0.6139  0.0292
 9085TIP3    H148670   3.912   0.659   2.832  1.2934  0.5135  1.2161
 9085TIP3    H248671   3.941   0.694   2.688 -0.5012  1.7951  1.1318
 9086TIP3   OH248672   6.617   2.738  12.500  0.6065  0.4960  0.2442
 9086TIP3    H148673   6.708   2.745  12.472  0.6656  0.3372  0.3902
 9086TIP3    H248674   6.572   2.809  12.456  0.7994  0.5640  0.1579
 9087TIP3   OH248675   0.294   0.626   1.373  0.2617  0.0841  0.1755
 9087TIP3    H148676   0.361   0.559   1.362 -0.4444 -0.6666  0.3162
 9087TIP3    H248677   0.215   0.577   1.398 -0.1431  1.0090  0.7752
 9088TIP3   OH248678   4.572   4.776   4.844 -0.0549  0.5486  0.1085
 9088TIP3    H148679   4.545   4.831   4.917  0.1848 -0.4020  0.9219
 9088TIP3    H248680   4.528   4.692   4.859  1.3887 -0.2316  0.1249
 9089TIP3   OH248681   4.414   3.271  11.962 -0.5614  0.1052  0.0985
 9089TIP3    H148682   4.481   3.254  12.029  0.1475  2.9838  0.2578
 9089TIP3    H248683   4.461   3.267  11.879 -0.8986 -0.9904 -0.0472
 9090TIP3   OH248684   2.400   2.363  11.809 -0.6245  0.1232  1.1563
 9090TIP3    H148685   2.384   2.450  11.845 -1.0064  0.1199  1.0021
 9090TIP3    H248686   2.341   2.358  11.733  0.6091  0.3775  0.1469
 9091TIP3   OH248687   0.211   6.507  11.911  0.2777  0.1199  0.5028
 9091TIP3    H148688   0.224   6.465  11.996 -1.4132  2.2612  1.9389
 9091TIP3    H248689   0.299   6.535  11.885  0.6241  1.2479  2.6162
 9092TIP3   OH248690   3.529   3.403   3.673 -0.0099 -0.3951  0.2432
 9092TIP3    H148691   3.517   3.312   3.702 -0.5854 -1.0124 -1.7315
 9092TIP3    H248692   3.609   3.401   3.620 -0.6345 -0.0288 -0.7509
 9093TIP3   OH248693   6.653   2.637   4.911  0.4604  0.2576 -0.4100
 9093TIP3    H148694   6.577   2.611   4.858  0.1552 -2.1547  1.0566
 9093TIP3    H248695   6.726   2.588   4.874  0.5374 -0.2993  0.4576
 9094TIP3   OH248696   5.149   1.827   1.675 -0.1622  0.7547  0.3028
 9094TIP3    H148697   5.170   1.756   1.736 -1.6831  0.7215  0.8356
 9094TIP3    H248698   5.123   1.900   1.731 -2.3987  0.4529 -0.2574
 9095TIP3   OH248699   5.152   2.284  13.545 -0.1880 -0.0330  0.1971
 9095TIP3    H148700   5.107   2.363  13.575  0.1392  0.0900  0.3634
 9095TIP3    H248701   5.185   2.243  13.625 -0.5759 -0.4780  0.1367
 9096TIP3   OH248702   3.391   5.738   0.911  0.2985 -0.5219 -0.3173
 9096TIP3    H148703   3.410   5.679   0.837 -0.2467 -1.5335  0.3302
 9096TIP3    H248704   3.475   5.780   0.929  0.8321 -1.4807 -0.4729
 9097TIP3   OH248705   6.500   5.718  15.422 -0.5993 -0.4805 -0.2943
 9097TIP3    H148706   6.517   5.776  15.349  1.5391 -0.9800 -0.2574
 9097TIP3    H248707   6.425   5.757  15.467 -0.4384  1.1411 -1.3562
 9098TIP3   OH248708   2.443   0.550   1.559  0.1607 -0.4482 -0.4556
 9098TIP3    H148709   2.534   0.532   1.537  0.3570  0.7829 -0.7154
 9098TIP3    H248710   2.396   0.543   1.475 -0.0409 -1.4111 -0.2643
 9099TIP3   OH248711   1.459   1.170   5.038  0.1822 -0.3800 -0.2899
 9099TIP3    H148712   1.370   1.203   5.039  0.3102 -0.0348  0.5649
 9099TIP3    H248713   1.492   1.188   5.126  0.9975 -0.7578 -0.5116
 9100TIP3   OH248714   2.169   0.670   4.251  0.7126 -0.0325 -0.6605
 9100TIP3    H148715   2.228   0.595   4.257 -0.0408 -0.7383 -1.6507
 9100TIP3    H248716   2.083   0.635   4.277  0.4129  0.5639 -0.8204
 9101TIP3   OH248717   2.268   1.920  12.789  0.4859  0.0440  0.3769
 9101TIP3    H148718   2.255   1.975  12.712  0.2871 -1.3077 -0.5863
 9101TIP3    H248719   2.246   1.832  12.760  3.3509 -1.0422  1.0836
 9102TIP3   OH248720   0.521   3.845  12.201  0.1210 -0.4573 -0.4607
 9102TIP3    H148721   0.478   3.785  12.141  2.2933 -2.0044 -0.5746
 9102TIP3    H248722   0.587   3.889  12.148  0.0902  0.3478  0.1491
 9103TIP3   OH248723   1.891   5.964   0.715 -0.2940 -0.2052  0.4413
 9103TIP3    H148724   1.889   6.043   0.661  1.0708  0.4304  1.2717
 9103TIP3    H248725   1.850   5.991   0.797  0.8876 -0.1021  1.0163
 9104TIP3   OH248726   3.402   2.723  17.327 -1.0770  0.0869 -0.2901
 9104TIP3    H148727   3.390   2.775  17.407 -0.0493  0.2349 -0.2246
 9104TIP3    H248728   3.429   2.787  17.261  0.5501 -0.3899 -0.1261
 9105TIP3   OH248729   3.907   5.898  12.808  0.5228  0.5582 -0.1099
 9105TIP3    H148730   3.851   5.879  12.733 -0.1907 -2.8883  1.1296
 9105TIP3    H248731   3.992   5.862  12.784  0.1277 -1.1412  0.8857
 9106TIP3   OH248732   4.814   6.729  12.276  0.5514 -0.0963 -0.3183
 9106TIP3    H148733   4.772   6.696  12.356 -1.2327 -0.7888 -1.4629
 9106TIP3    H248734   4.880   6.662  12.254 -1.5433 -1.9637 -1.4149
 9107TIP3   OH248735   3.624   2.450   0.868  0.1030 -0.1187  0.0563
 9107TIP3    H148736   3.694   2.488   0.919 -0.3394 -0.1499  0.7005
 9107TIP3    H248737   3.663   2.373   0.826  0.8338  0.6873 -0.7786
 9108TIP3   OH248738   4.796   2.305  17.177  0.2016 -0.5315 -0.2203
 9108TIP3    H148739   4.779   2.223  17.131  0.3739 -1.1627  0.8221
 9108TIP3    H248740   4.869   2.286  17.235 -0.4890  0.0150  0.8701
 9109TIP3   OH248741   0.545   1.009  12.597 -0.0624 -0.1468 -0.1861
 9109TIP3    H148742   0.640   1.025  12.596 -0.3326  1.7323 -0.9252
 9109TIP3    H248743   0.524   0.995  12.689  0.7215  1.0364  0.2005
 9110TIP3   OH248744   6.093   6.632   0.508 -0.1782  0.3964 -0.4211
 9110TIP3    H148745   6.038   6.554   0.502 -0.3021  0.4514  0.0119
 9110TIP3    H248746   6.099   6.651   0.601 -0.1427  0.9025 -0.5225
 9111TIP3   OH248747   5.584   2.735  14.089 -0.0221 -0.5354 -0.4737
 9111TIP3    H148748   5.514   2.752  14.153  0.8609  1.3077  0.0811
 9111TIP3    H248749   5.633   2.662  14.127 -0.2641 -0.2933  0.3400
 9112TIP3   OH248750   6.325   4.656  15.713 -0.7389  0.0784 -0.1307
 9112TIP3    H148751   6.313   4.577  15.765 -0.9130  0.6620  0.7363
 9112TIP3    H248752   6.419   4.662  15.698 -0.6774 -0.0313  0.2149
 9113TIP3   OH248753   6.533   0.668  15.036 -0.2957  0.6144 -0.0702
 9113TIP3    H148754   6.566   0.578  15.032 -2.7959 -0.3624 -0.2731
 9113TIP3    H248755   6.534   0.699  14.946 -1.8171 -0.1846 -0.3924
 9114TIP3   OH248756   6.489   0.285  16.909 -0.5503 -0.4238 -0.3318
 9114TIP3    H148757   6.551   0.247  16.847  1.9031  2.1582  0.3129
 9114TIP3    H248758   6.436   0.345  16.857 -0.1473 -0.0949 -0.3736
 9115TIP3   OH248759   5.727   2.836   3.976 -0.0987 -0.2587 -0.4718
 9115TIP3    H148760   5.698   2.767   4.036  1.2910 -1.0181 -0.6127
 9115TIP3    H248761   5.685   2.815   3.893 -0.0127 -0.7161 -0.4054
 9116TIP3   OH248762   3.366   1.071   5.255  0.2752 -0.2500 -0.4913
 9116TIP3    H148763   3.391   1.163   5.268 -1.6100  0.2044  0.2710
 9116TIP3    H248764   3.374   1.058   5.160  0.6337  0.6925 -0.6065
 9117TIP3   OH248765   4.886   1.640   4.181 -0.4021  0.1921  0.3673
 9117TIP3    H148766   4.896   1.546   4.189 -1.1727 -0.0169 -0.8225
 9117TIP3    H248767   4.795   1.657   4.205 -1.1176  0.2242 -2.1022
 9118TIP3   OH248768   1.779   5.139   5.737 -0.3075  0.3549 -0.4139
 9118TIP3    H148769   1.789   5.164   5.829 -0.4542  0.4666 -0.4261
 9118TIP3    H248770   1.853   5.180   5.692  0.4171 -0.6647 -0.1691
 9119TIP3   OH248771   6.656   0.101   3.002 -0.2874  0.2956 -0.1049
 9119TIP3    H148772   6.713   0.065   2.934 -2.2933 -0.3251 -1.5921
 9119TIP3    H248773   6.686   0.061   3.083  0.2888 -1.3723 -1.0876
 9120TIP3   OH248774   0.305   4.537  12.514 -0.0367  0.4904 -0.5245
 9120TIP3    H148775   0.239   4.541  12.446  0.2726  1.3229 -0.7835
 9120TIP3    H248776   0.338   4.447  12.511  0.6087  0.7608 -2.0826
 9121TIP3   OH248777   4.256   4.889   2.285  0.1232 -0.6159  0.0200
 9121TIP3    H148778   4.187   4.824   2.273 -1.4758  1.1864 -1.0915
 9121TIP3    H248779   4.214   4.960   2.334  2.2205 -0.9393  2.5034
 9122TIP3   OH248780   1.908   5.853   0.420 -0.3868  0.0207 -0.6456
 9122TIP3    H148781   1.827   5.902   0.434 -0.7135 -1.1768  2.5153
 9122TIP3    H248782   1.976   5.907   0.461 -0.0626 -0.3038 -0.7483
 9123TIP3   OH248783   0.946   4.055   6.886  0.2818 -0.1791  0.6051
 9123TIP3    H148784   0.952   3.993   6.812 -1.0103 -0.0301  0.3594
 9123TIP3    H248785   0.867   4.028   6.933 -0.0046  0.9606  0.7934
 9124TIP3   OH248786   1.444   0.647  15.523 -0.4160 -0.1796  0.2986
 9124TIP3    H148787   1.490   0.704  15.461  0.7907  0.0143  1.3251
 9124TIP3    H248788   1.358   0.633  15.484 -0.0268  0.7211 -0.9390
 9125TIP3   OH248789   6.192   1.642  13.134 -0.2653  0.0121  0.1632
 9125TIP3    H148790   6.185   1.732  13.104  2.3576  0.3253  0.2339
 9125TIP3    H248791   6.244   1.647  13.213  0.2846 -1.5940 -0.0569
 9126TIP3   OH248792   0.085   2.093   5.019 -0.4611  0.2176  0.3488
 9126TIP3    H148793   0.169   2.105   4.976 -1.3474 -0.5380 -1.7278
 9126TIP3    H248794   0.043   2.179   5.017 -0.6807  0.0939 -0.7623
 9127TIP3   OH248795   2.939   5.839   5.527 -0.4189  0.1947 -0.0376
 9127TIP3    H148796   2.925   5.926   5.567 -1.8920 -0.8814  1.9877
 9127TIP3    H248797   2.950   5.781   5.602  0.9643 -1.3370 -1.3755
 9128TIP3   OH248798   1.497   5.518   1.250 -0.2130 -0.5504  0.2063
 9128TIP3    H148799   1.590   5.534   1.266 -0.7897  1.6509  1.9198
 9128TIP3    H248800   1.475   5.444   1.307 -0.0775  0.8858  2.2687
 9129TIP3   OH248801   2.338   1.280   5.493  0.2620  0.2023  0.2065
 9129TIP3    H148802   2.273   1.210   5.498 -0.7360  1.1531  1.0594
 9129TIP3    H248803   2.287   1.361   5.498  1.2232  1.0798 -2.3133
 9130TIP3   OH248804   2.560   0.574   2.108 -0.6167 -0.4720  0.2482
 9130TIP3    H148805   2.485   0.576   2.167 -2.9354  0.8287 -2.5366
 9130TIP3    H248806   2.531   0.621   2.030  3.8145  2.0636 -0.2111
 9131TIP3   OH248807   5.905   4.734  12.907  0.0894 -0.1269 -0.0547
 9131TIP3    H148808   5.838   4.758  12.971  2.1374  0.9360  1.8007
 9131TIP3    H248809   5.900   4.802  12.840  0.0314  0.5543  0.6394
 9132TIP3   OH248810   4.214   4.788  11.418  0.1179 -0.0176 -0.1699
 9132TIP3    H148811   4.216   4.826  11.330 -2.2954  1.7580  0.4174
 9132TIP3    H248812   4.239   4.697  11.406 -1.6479 -0.2499 -3.0050
 9133TIP3   OH248813   0.681   6.164   6.135 -0.5582 -0.3352  0.3631
 9133TIP3    H148814   0.711   6.232   6.195  1.5957 -1.3578  0.5282
 9133TIP3    H248815   0.761   6.124   6.102 -1.7352 -2.4877 -0.0697
 9134TIP3   OH248816   6.661   5.528   5.911 -0.0106  0.7862  0.1426
 9134TIP3    H148817   6.576   5.494   5.883  0.2751 -0.6980  0.9984
 9134TIP3    H248818   6.724   5.460   5.888  1.6160  3.2136 -3.7179
 9135TIP3   OH248819   5.286   6.577   4.092 -0.2828  0.4276  0.0018
 9135TIP3    H148820   5.299   6.671   4.100  0.9708  0.4681 -2.0693
 9135TIP3    H248821   5.269   6.563   3.999  1.1240 -1.5600 -0.0037
 9136TIP3   OH248822   5.586   4.408   5.166 -0.2689 -0.2653 -0.5827
 9136TIP3    H148823   5.597   4.373   5.254 -0.6729 -0.3820 -0.5765
 9136TIP3    H248824   5.666   4.458   5.150 -1.2473  1.8470  0.7848
 9137TIP3   OH248825   2.975   1.446   6.270 -0.3859 -0.0803 -0.0402
 9137TIP3    H148826   2.929   1.521   6.307  0.2085 -0.5416  1.7264
 9137TIP3    H248827   2.971   1.379   6.339 -0.5060 -1.5242 -1.3838
 9138TIP3   OH248828   5.899   6.609   0.205 -0.2299  0.0153  0.3938
 9138TIP3    H148829   5.827   6.610   0.142  0.1116  2.6821 -0.0898
 9138TIP3    H248830   5.890   6.692   0.252  1.4039 -0.4748  1.6778
 9139TIP3   OH248831   2.275   6.186   5.649 -0.4587  0.3116 -0.0630
 9139TIP3    H148832   2.210   6.221   5.709 -0.1713  1.4810 -0.4028
 9139TIP3    H248833   2.357   6.227   5.677 -0.2688  0.6125 -1.0358
 9140TIP3   OH248834   1.044   2.323  13.824  0.0460  0.2293  0.1504
 9140TIP3    H148835   1.029   2.286  13.910  1.2950  0.6918  0.5999
 9140TIP3    H248836   1.064   2.415  13.841  2.0963 -0.0512 -0.4069
 9141TIP3   OH248837   3.380   0.255   0.509 -0.0039 -0.1721 -0.0743
 9141TIP3    H148838   3.325   0.177   0.512  0.7433 -0.7190 -0.5015
 9141TIP3    H248839   3.468   0.224   0.529  0.3684  0.4998 -0.6159
 9142TIP3   OH248840   6.138   4.781  17.116  0.3829 -0.6666 -0.4221
 9142TIP3    H148841   6.223   4.780  17.160  0.8133 -1.0621 -1.2459
 9142TIP3    H248842   6.094   4.702  17.148 -1.0965  1.1936  2.6330
 9143TIP3   OH248843   6.407   1.261  11.705  0.3552  0.4074 -0.2378
 9143TIP3    H148844   6.449   1.176  11.691  1.8723  1.2968 -1.3750
 9143TIP3    H248845   6.475   1.325  11.685 -0.7873  1.9083  0.4783
 9144TIP3   OH248846   1.253   0.778  16.593  0.1120 -0.0049  0.2167
 9144TIP3    H148847   1.221   0.805  16.506  1.0663  0.4313 -0.0060
 9144TIP3    H248848   1.221   0.846  16.652  2.0486  1.3885 -0.2632
 9145TIP3   OH248849   2.825   5.233  16.174 -0.5134 -0.2567  0.3508
 9145TIP3    H148850   2.784   5.317  16.155 -2.9728 -1.7580 -1.5944
 9145TIP3    H248851   2.753   5.171  16.179  1.2638 -2.4201  0.7995
 9146TIP3   OH248852   0.803   0.762  12.819  0.2125 -0.3107 -0.6157
 9146TIP3    H148853   0.832   0.851  12.841 -0.7237 -0.0292 -0.4848
 9146TIP3    H248854   0.875   0.706  12.848  0.4266  0.3301  0.1458
 9147TIP3   OH248855   1.072   2.675   2.639  0.1855  0.2625  0.8660
 9147TIP3    H148856   0.977   2.681   2.634  0.2766  1.8506 -3.1102
 9147TIP3    H248857   1.101   2.761   2.667  0.4621  0.1291  0.9939
 9148TIP3   OH248858   1.748   0.338  13.065 -0.1236 -0.6305 -0.3500
 9148TIP3    H148859   1.753   0.412  13.003 -0.4684 -1.1488 -1.0142
 9148TIP3    H248860   1.798   0.268  13.023  0.7131 -0.5873  0.5608
 9149TIP3   OH248861   3.552   2.076  14.233  0.5736 -0.2967  0.1272
 9149TIP3    H148862   3.557   1.981  14.241 -2.1570 -0.6153 -0.7454
 9149TIP3    H248863   3.489   2.102  14.300  0.8934  0.8304  0.0063
 9150TIP3   OH248864   5.697   0.609   6.085 -0.3385  0.0530 -0.1840
 9150TIP3    H148865   5.644   0.586   6.008  0.3194 -0.0356 -0.6226
 9150TIP3    H248866   5.687   0.704   6.094  0.2455  0.1950 -0.9010
 9151TIP3   OH248867   0.250   0.306   4.041 -0.3248 -0.5440  0.5142
 9151TIP3    H148868   0.332   0.283   3.997 -0.6245 -0.3897 -0.1511
 9151TIP3    H248869   0.198   0.349   3.973 -0.8816 -0.4675  0.9784
 9152TIP3   OH248870   1.851   0.630   6.331 -0.3267 -0.4754 -0.4657
 9152TIP3    H148871   1.904   0.709   6.339 -0.0714 -0.4428 -2.0977
 9152TIP3    H248872   1.903   0.572   6.276  0.1576 -2.4120  1.8775
 9153TIP3   OH248873   4.896   4.556  16.258 -0.0119  0.0772  0.3223
 9153TIP3    H148874   4.862   4.579  16.172 -1.7726  0.6594  1.1331
 9153TIP3    H248875   4.974   4.610  16.268  0.1711  0.0603 -0.8566
 9154TIP3   OH248876   2.920   4.759  11.193 -0.0636 -0.0838 -0.2697
 9154TIP3    H148877   2.829   4.736  11.177 -0.3485  0.4624  0.5274
 9154TIP3    H248878   2.961   4.677  11.222 -0.7408  0.0579  1.1701
 9155TIP3   OH248879   0.330   6.122  14.636 -0.3228  0.0256  0.5198
 9155TIP3    H148880   0.411   6.164  14.665  0.0851 -1.2889  1.3818
 9155TIP3    H248881   0.277   6.194  14.601  1.0819  0.9550  0.2064
 9156TIP3   OH248882   0.016   4.300  10.677  0.1887 -0.7541  0.3440
 9156TIP3    H148883   0.047   4.213  10.699 -1.7554 -1.1892  1.5920
 9156TIP3    H248884  -0.030   4.290  10.593 -1.4606 -1.3395  1.2667
 9157TIP3   OH248885   3.068   3.911  11.678 -0.1390  0.6374 -0.3051
 9157TIP3    H148886   3.013   3.989  11.678  1.6105  1.9432  1.3112
 9157TIP3    H248887   3.080   3.890  11.771  1.8540  0.2429 -0.6131
 9158TIP3   OH248888   4.103   3.671  11.139  0.2021  0.5755  0.5148
 9158TIP3    H148889   4.049   3.614  11.084 -1.1098  2.4450 -0.1993
 9158TIP3    H248890   4.184   3.683  11.089  0.6036 -0.8057  0.7886
 9159TIP3   OH248891   2.503   0.025  13.593 -0.5788  0.2337  0.0123
 9159TIP3    H148892   2.597   0.016  13.578 -0.4164  1.3869  0.2203
 9159TIP3    H248893   2.493   0.018  13.688 -0.8732 -1.1840 -0.1125
 9160TIP3   OH248894   3.733   2.903  12.222  0.1057 -0.1893 -0.3046
 9160TIP3    H148895   3.674   2.827  12.223 -0.6316  0.3660  0.9173
 9160TIP3    H248896   3.813   2.871  12.181  0.1735 -1.9230  1.0775
 9161TIP3   OH248897   6.049   0.235   0.572  0.4047  0.1865  0.4190
 9161TIP3    H148898   6.110   0.230   0.499  2.5879  0.0720  2.1681
 9161TIP3    H248899   6.090   0.294   0.635 -1.0105 -0.3245  1.9061
 9162TIP3   OH248900   6.722   2.573   3.891  0.0728  0.0007 -0.6115
 9162TIP3    H148901   6.711   2.579   3.986  0.6114 -0.6568 -0.5026
 9162TIP3    H248902   6.636   2.596   3.855 -0.6627 -1.5289  0.0853
 9163TIP3   OH248903   5.682   0.336  15.673 -0.1966 -0.4399  0.0316
 9163TIP3    H148904   5.725   0.407  15.721 -0.1679 -1.7223  1.9902
 9163TIP3    H248905   5.669   0.372  15.585 -0.3893  2.0871  0.9880
 9164TIP3   OH248906   0.393   2.477  15.301 -0.4094 -0.2177  0.1455
 9164TIP3    H148907   0.360   2.415  15.236 -0.5767 -0.6895  0.6722
 9164TIP3    H248908   0.416   2.555  15.250 -0.3430 -0.6513 -0.5052
 9165TIP3   OH248909   3.430   4.775   0.605 -0.4242 -0.4067 -0.0735
 9165TIP3    H148910   3.367   4.708   0.577  1.0696 -1.8954 -0.0806
 9165TIP3    H248911   3.426   4.774   0.700 -1.0121  0.1219 -0.0890
 9166TIP3   OH248912   6.237   5.118  12.800  0.1176  0.0366  0.1586
 9166TIP3    H148913   6.278   5.108  12.886 -2.9202  1.6503  1.9807
 9166TIP3    H248914   6.201   5.032  12.780  2.8965 -1.0125 -0.7940
 9167TIP3   OH248915   2.602   5.200  13.777 -0.8467  0.2072  0.6179
 9167TIP3    H148916   2.639   5.133  13.835  0.3818 -0.0285 -0.3891
 9167TIP3    H248917   2.648   5.280  13.802 -1.5176  0.4497  1.0817
 9168TIP3   OH248918   6.620   0.715  16.853 -0.3615  0.0159  0.4445
 9168TIP3    H148919   6.587   0.724  16.764  0.2889  1.4027  0.3211
 9168TIP3    H248920   6.710   0.746  16.849 -0.2991  0.0514  1.5785
 9169TIP3   OH248921   3.137   2.376  15.327 -0.0262  0.2803 -0.1723
 9169TIP3    H148922   3.096   2.294  15.299 -1.1585  0.4875  0.8239
 9169TIP3    H248923   3.077   2.413  15.391  1.8655  0.4412  1.6134
 9170TIP3   OH248924   3.373   0.381  13.709 -0.6566  0.0420 -0.1700
 9170TIP3    H148925   3.309   0.446  13.737  0.4003  0.6640  0.9097
 9170TIP3    H248926   3.458   0.425  13.717 -0.0294 -0.9705 -0.9082
 9171TIP3   OH248927   1.392   1.238  16.574  0.0163  0.3863 -0.6841
 9171TIP3    H148928   1.346   1.268  16.496 -0.9009 -0.4059 -0.4656
 9171TIP3    H248929   1.464   1.185  16.541  0.2497  0.8987 -1.0076
 9172TIP3   OH248930   3.361   5.109   0.297  0.3780 -0.0141  0.1326
 9172TIP3    H148931   3.370   5.095   0.391 -0.2100  0.5091  0.2751
 9172TIP3    H248932   3.420   5.182   0.277  0.5661 -0.1811  0.0831
 9173TIP3   OH248933   0.834   6.381  15.735  0.0790 -0.2442  0.2964
 9173TIP3    H148934   0.855   6.458  15.681  0.2517 -0.5263 -0.0423
 9173TIP3    H248935   0.751   6.349  15.700  0.0713 -0.2885  0.3549
 9174TIP3   OH248936   5.235   2.075  15.786 -0.7929 -0.0599 -0.6731
 9174TIP3    H148937   5.158   2.030  15.751 -0.5617  0.8848 -2.5163
 9174TIP3    H248938   5.303   2.063  15.720  0.0592  0.7631  0.0139
 9175TIP3   OH248939   2.560   4.628   6.899  0.4990  0.3694 -0.1056
 9175TIP3    H148940   2.619   4.673   6.959 -0.2062  1.3719 -0.1510
 9175TIP3    H248941   2.602   4.635   6.814  0.8443  0.1141  0.0403
 9176TIP3   OH248942   3.439   5.606  16.899 -0.1198  0.6366  0.0838
 9176TIP3    H148943   3.472   5.645  16.980  0.2067 -0.6396  0.5966
 9176TIP3    H248944   3.358   5.561  16.926  0.6484 -0.8582 -0.0009
 9177TIP3   OH248945   0.606   0.013  17.123 -0.0091 -0.5141 -0.2533
 9177TIP3    H148946   0.657   0.068  17.182 -0.4997  1.5455 -1.6222
 9177TIP3    H248947   0.530  -0.013  17.174  0.0729  0.3718  0.3499
 9178TIP3   OH248948   1.584   2.153  14.143  0.6470 -0.0895  0.0544
 9178TIP3    H148949   1.656   2.213  14.125  1.6915 -1.3644 -0.1470
 9178TIP3    H248950   1.539   2.144  14.059 -0.8033  1.9674  0.5282
 9179TIP3   OH248951   3.104   2.092   6.480 -0.1077 -0.0433  0.0066
 9179TIP3    H148952   3.079   2.039   6.555 -0.8467  0.4401  0.1194
 9179TIP3    H248953   3.135   2.175   6.518  1.6175 -0.5849 -0.1383
 9180TIP3   OH248954   6.423   4.039  15.632  0.2706 -0.8834 -0.9943
 9180TIP3    H148955   6.432   3.957  15.582 -0.1679 -1.1033 -0.7262
 9180TIP3    H248956   6.446   4.108  15.570 -0.5161 -1.1325 -1.5894
 9181TIP3   OH248957   6.680   3.593   5.293  0.1180 -0.1719 -0.4903
 9181TIP3    H148958   6.623   3.537   5.347  0.3792 -0.0829 -0.1181
 9181TIP3    H248959   6.732   3.530   5.243  0.8036 -0.2869  0.3363
 9182TIP3   OH248960   4.378   6.678   1.600 -0.0739 -0.0353  0.3451
 9182TIP3    H148961   4.441   6.707   1.666 -0.0692  0.1430  0.2635
 9182TIP3    H248962   4.317   6.751   1.592 -0.5413 -0.3833  0.7398
 9183TIP3   OH248963   4.142   5.875  12.641 -0.6991 -0.1352 -0.4141
 9183TIP3    H148964   4.222   5.868  12.589 -0.4291 -1.4048  0.1262
 9183TIP3    H248965   4.071   5.858  12.579 -0.4367 -0.7490 -0.5525
 9184TIP3   OH248966   3.004   1.747   4.806  0.1542  0.4196 -0.4958
 9184TIP3    H148967   2.974   1.738   4.715 -1.3627  0.1964 -0.0133
 9184TIP3    H248968   3.023   1.658   4.834 -2.6873 -0.0267  0.3978
 9185TIP3   OH248969   0.867   5.965   5.334  0.0207  0.3685  0.3268
 9185TIP3    H148970   0.820   5.944   5.252 -0.6906 -0.7119  0.9798
 9185TIP3    H248971   0.811   6.030   5.377 -0.6610 -0.5477  0.8696
 9186TIP3   OH248972   5.018   5.106  16.233  0.0974  0.0378 -0.1002
 9186TIP3    H148973   5.059   5.048  16.170  1.5096 -1.4248  2.0484
 9186TIP3    H248974   5.082   5.116  16.303 -2.0145  0.1491  1.9531
 9187TIP3   OH248975   5.604   3.170   1.202 -0.2683  0.4994  0.0609
 9187TIP3    H148976   5.694   3.197   1.184 -0.0519  0.2132  0.6955
 9187TIP3    H248977   5.611   3.108   1.275 -0.9802  0.4997  0.1385
 9188TIP3   OH248978   6.200   1.880  13.001  0.6067 -0.1989 -0.0921
 9188TIP3    H148979   6.205   1.827  12.922 -0.8298  0.6856 -0.8282
 9188TIP3    H248980   6.119   1.930  12.992  1.2804  1.2331  1.1121
 9189TIP3   OH248981   4.288   5.000  11.570  0.9924 -0.1329 -0.0869
 9189TIP3    H148982   4.375   4.983  11.605  1.2077 -0.5710 -0.8164
 9189TIP3    H248983   4.266   4.922  11.519  0.4955  0.2923 -0.5459
 9190TIP3   OH248984   3.111   2.556   6.004  1.0042 -0.8830  0.1561
 9190TIP3    H148985   3.070   2.626   6.054 -0.2624 -1.3419 -0.2083
 9190TIP3    H248986   3.204   2.577   6.005  0.8563 -0.1985  1.6051
 9191TIP3   OH248987   1.848   1.662   2.014  0.4338 -0.9026  0.0775
 9191TIP3    H148988   1.829   1.665   1.920 -1.3207 -0.1945  0.4024
 9191TIP3    H248989   1.764   1.638   2.054  0.3154  1.7885  1.6617
 9192TIP3   OH248990   3.842   3.982  15.814  0.2115  0.2863  0.4328
 9192TIP3    H148991   3.844   4.046  15.742  0.2639  0.5984  0.7109
 9192TIP3    H248992   3.925   3.994  15.859  0.0916  0.2332  0.6701
 9193TIP3   OH248993   2.693   3.505   4.119  0.1586 -0.1318  0.0913
 9193TIP3    H148994   2.620   3.528   4.063 -0.1246  0.5544  0.7129
 9193TIP3    H248995   2.725   3.421   4.086  0.5511  0.6498 -1.6248
 9194TIP3   OH248996   1.880   0.320  15.417  0.7584  0.3111 -0.0865
 9194TIP3    H148997   1.810   0.379  15.445  0.4351  0.5472 -1.2929
 9194TIP3    H248998   1.896   0.264  15.492  0.3344  1.2488  0.7298
 9195TIP3   OH248999   3.487   0.257  12.533  0.2173 -0.6245  0.0694
 9195TIP3    H149000   3.471   0.205  12.612  0.5202 -1.4827 -0.4152
 9195TIP3    H249001   3.574   0.230  12.504 -0.8346 -2.2044 -1.9142
 9196TIP3   OH249002   5.521   4.484   1.746 -0.7132  0.0972 -0.8719
 9196TIP3    H149003   5.442   4.432   1.762  0.0231 -0.3858  1.6085
 9196TIP3    H249004   5.579   4.425   1.698 -0.9991 -0.3301 -0.6994
 9197TIP3   OH249005   1.659   5.193   3.683 -0.2239 -0.0553 -0.2696
 9197TIP3    H149006   1.639   5.232   3.598  0.2240  0.5533 -0.1033
 9197TIP3    H249007   1.745   5.229   3.705 -0.2268 -0.4155  0.3200
 9198TIP3   OH249008   0.805   3.447   3.397 -0.3030 -0.1131 -0.3288
 9198TIP3    H149009   0.849   3.384   3.339 -1.9903 -1.8615  0.1764
 9198TIP3    H249010   0.746   3.393   3.451 -1.4149  1.8540  0.5411
 9199TIP3   OH249011   5.279   6.743  11.200  0.0732  0.3119 -0.3959
 9199TIP3    H149012   5.350   6.788  11.245 -1.8626  1.6962  1.4863
 9199TIP3    H249013   5.253   6.802  11.130  0.6426 -0.1227 -0.9852
 9200TIP3   OH249014   5.439   5.609   1.288  0.0380 -0.0543 -0.4285
 9200TIP3    H149015   5.376   5.546   1.254  0.3621 -0.8692  0.4510
 9200TIP3    H249016   5.388   5.689   1.303 -1.0707 -1.0375  1.3308
 9201TIP3   OH249017   0.552   1.037  15.334  0.0030  0.0750  0.0798
 9201TIP3    H149018   0.546   1.048  15.239  1.2106  0.2804  0.0069
 9201TIP3    H249019   0.471   0.993  15.359 -0.2751 -0.0793 -1.0632
 9202TIP3   OH249020   0.072   3.682   2.826 -0.3950 -0.0653  0.2069
 9202TIP3    H149021   0.162   3.713   2.835 -0.1884 -0.8359  0.9259
 9202TIP3    H249022   0.051   3.696   2.734  0.0395  1.2133  0.2821
 9203TIP3   OH249023   3.858   2.172  13.617 -0.0612  0.0364 -0.5287
 9203TIP3    H149024   3.808   2.095  13.644 -0.6363  0.6746  0.2986
 9203TIP3    H249025   3.867   2.164  13.522  0.3373 -1.2999 -0.3975
 9204TIP3   OH249026   1.620   6.036  12.368 -0.4607  0.0510  0.0021
 9204TIP3    H149027   1.676   6.111  12.351 -2.2285  1.6620  0.9139
 9204TIP3    H249028   1.655   5.997  12.448 -1.7238  2.2986  1.7881
 9205TIP3   OH249029   5.569   5.531   3.743  0.2254 -0.1314  0.1937
 9205TIP3    H149030   5.564   5.597   3.675  0.7287 -1.1699 -0.8829
 9205TIP3    H249031   5.619   5.573   3.814 -1.3797  1.3822  0.4847
 9206TIP3   OH249032   0.737   3.837   3.191  0.0417  0.3371  0.1438
 9206TIP3    H149033   0.703   3.749   3.208  0.7180 -0.4730 -2.3751
 9206TIP3    H249034   0.666   3.896   3.220 -1.2155 -1.0979  0.0908
 9207TIP3   OH249035   0.957   0.601  12.965  0.8958 -0.7106 -0.6353
 9207TIP3    H149036   0.931   0.516  12.932  0.0583 -1.3064  1.3738
 9207TIP3    H249037   0.929   0.600  13.057  0.9476  1.6912 -0.5347
 9208TIP3   OH249038   2.264   2.210   2.303 -0.7157 -0.3849  0.4150
 9208TIP3    H149039   2.348   2.185   2.342 -0.3877  1.1707  0.7918
 9208TIP3    H249040   2.283   2.290   2.253 -1.6933 -0.8080 -0.6955
 9209TIP3   OH249041   5.660   6.199   1.823 -0.1014  0.3359  0.1310
 9209TIP3    H149042   5.724   6.249   1.774 -0.9626 -0.3672 -1.7983
 9209TIP3    H249043   5.682   6.107   1.805  0.9106 -0.0730  2.8896
 9210TIP3   OH249044   2.828   5.275  11.430  0.2382  0.2328 -0.5632
 9210TIP3    H149045   2.894   5.224  11.383  0.5891  1.1893 -1.1541
 9210TIP3    H249046   2.765   5.300  11.362 -1.7400 -2.0936  0.2507
 9211TIP3   OH249047   5.089   6.502  12.550 -0.7825 -0.0806  0.2567
 9211TIP3    H149048   5.019   6.496  12.615 -0.3726  0.7443  0.8023
 9211TIP3    H249049   5.150   6.566  12.587  0.5667 -1.2314  0.0836
 9212TIP3   OH249050   0.040   0.882  11.657 -0.1436 -0.0177 -0.1326
 9212TIP3    H149051   0.060   0.812  11.719  3.5457 -0.2698 -1.3484
 9212TIP3    H249052  -0.030   0.846  11.602  1.4877 -2.7638 -0.6039
 9213TIP3   OH249053   4.937   6.599   5.419 -0.0313  0.1181 -0.2188
 9213TIP3    H149054   5.031   6.596   5.402  0.0498 -1.4120  0.3317
 9213TIP3    H249055   4.900   6.533   5.361 -0.6365 -0.0414  0.3364
 9214TIP3   OH249056   4.423   3.496   0.073 -0.8492  0.0617 -0.0724
 9214TIP3    H149057   4.446   3.407   0.100  2.5312  1.1963  1.2514
 9214TIP3    H249058   4.446   3.551   0.148 -0.1459  2.3543 -1.8521
 9215TIP3   OH249059   5.599   3.428  16.026  0.3893  0.1713 -0.2844
 9215TIP3    H149060   5.536   3.478  16.079  0.2659  2.6851 -2.5734
 9215TIP3    H249061   5.546   3.386  15.959  0.8990  0.5348 -0.9315
 9216TIP3   OH249062   5.643   3.351  11.234 -0.5007 -0.3218 -0.3417
 9216TIP3    H149063   5.555   3.332  11.265 -0.3342 -0.0696  0.2920
 9216TIP3    H249064   5.632   3.422  11.171 -0.5369  1.1725  1.2802
 9217TIP3   OH249065   2.275   0.054   0.018 -0.0697  0.1197 -0.1695
 9217TIP3    H149066   2.365   0.083   0.006  0.1356 -0.0775  0.8300
 9217TIP3    H249067   2.263   0.051   0.113 -2.4082  4.0337 -0.1233
 9218TIP3   OH249068   0.443   2.395  16.315  0.3238 -0.0466  0.0554
 9218TIP3    H149069   0.522   2.353  16.279  0.5394  0.7155 -0.3836
 9218TIP3    H249070   0.398   2.325  16.362  0.8206 -0.7010 -0.4269
 9219TIP3   OH249071   4.496   5.261   1.732 -0.3239 -0.1517 -0.4978
 9219TIP3    H149072   4.548   5.334   1.697  0.2779 -0.4426 -0.2251
 9219TIP3    H249073   4.407   5.295   1.736 -0.1452  0.3798 -0.9132
 9220TIP3   OH249074   0.963   0.860  11.544  0.5000 -0.7133  0.3979
 9220TIP3    H149075   1.039   0.881  11.491  1.0376  3.3447  2.4226
 9220TIP3    H249076   1.000   0.826  11.626 -0.1009 -1.9176  0.2038
 9221TIP3   OH249077   4.582   4.266   1.405  0.7123 -0.2906 -0.0631
 9221TIP3    H149078   4.488   4.261   1.387  0.9230 -1.9178 -0.8195
 9221TIP3    H249079   4.624   4.226   1.329  2.1759  2.2578 -0.7229
 9222TIP3   OH249080   6.484   2.711   1.725 -0.2585  0.2472 -0.6353
 9222TIP3    H149081   6.504   2.644   1.790 -0.4450  0.8313  0.0334
 9222TIP3    H249082   6.532   2.684   1.647 -1.0146 -1.1329 -0.6630
 9223TIP3   OH249083   1.438   0.314   1.249 -0.4268  0.0758  0.6503
 9223TIP3    H149084   1.396   0.229   1.237 -0.1048 -0.2805  1.9368
 9223TIP3    H249085   1.389   0.373   1.192  0.5126 -1.3047 -1.7485
 9224TIP3   OH249086   0.902   6.362  11.349 -0.7043 -1.0630  0.3699
 9224TIP3    H149087   0.974   6.327  11.298  0.5495  0.3050  1.1338
 9224TIP3    H249088   0.934   6.361  11.440 -0.4103  2.2863  0.4229
 9225TIP3   OH249089   0.655   2.534  15.552  0.5441  0.1573 -0.4654
 9225TIP3    H149090   0.670   2.628  15.556  1.5321 -0.0169  2.0656
 9225TIP3    H249091   0.688   2.501  15.636 -0.3126 -2.3722 -1.0295
 9226TIP3   OH249092   1.455   3.924   0.975 -0.0938  0.5123 -0.0084
 9226TIP3    H149093   1.489   4.013   0.978  0.7763  0.2426 -1.2254
 9226TIP3    H249094   1.447   3.899   1.067  0.1680  1.6492  0.3447
 9227TIP3   OH249095   5.520   4.242  15.394 -0.0457 -0.1085  0.1087
 9227TIP3    H149096   5.523   4.261  15.300 -2.2615 -0.2195 -0.0487
 9227TIP3    H249097   5.427   4.228  15.412  0.3300 -0.0792  2.3335
 9228TIP3   OH249098   3.373   2.784   4.518  0.4866  0.4924 -0.2751
 9228TIP3    H149099   3.342   2.804   4.430  2.4698  0.6561 -0.9827
 9228TIP3    H249100   3.307   2.822   4.576 -0.9218  0.2662 -1.6681
 9229TIP3   OH249101   4.379   4.328  12.297  0.3411 -0.5536  0.0449
 9229TIP3    H149102   4.299   4.376  12.277  0.3246 -1.1263 -1.4569
 9229TIP3    H249103   4.380   4.321  12.392 -0.8545  0.3588  0.1509
 9230TIP3   OH249104   0.476   6.549  11.734 -0.5142  0.2452  0.0459
 9230TIP3    H149105   0.553   6.492  11.735 -0.3275  0.4911 -0.2764
 9230TIP3    H249106   0.451   6.554  11.642 -1.0698 -0.0345  0.1730
 9231TIP3   OH249107   4.970   3.931  14.156 -0.0532  0.4183  0.0267
 9231TIP3    H149108   4.993   3.865  14.091 -1.3877  0.6696 -0.7382
 9231TIP3    H249109   5.021   3.908  14.234  0.7418 -0.5247 -0.7538
 9232TIP3   OH249110   0.652   3.773  12.908 -0.5830 -0.1102  0.7606
 9232TIP3    H149111   0.696   3.691  12.886 -1.9857 -1.1800  1.7092
 9232TIP3    H249112   0.721   3.839  12.907  1.0111 -1.6540  1.9931
 9233TIP3   OH249113   1.294   5.716   0.755  0.1268 -0.1339  0.0134
 9233TIP3    H149114   1.260   5.626   0.754  0.6970 -0.3641  0.5338
 9233TIP3    H249115   1.389   5.705   0.760  0.2008  0.5025  0.0300
 9234TIP3   OH249116   3.689   4.205   2.277 -0.0212 -0.0575  0.5843
 9234TIP3    H149117   3.702   4.133   2.215  0.1327 -0.8327  1.4943
 9234TIP3    H249118   3.752   4.189   2.347  0.3701  1.2568  0.5654
 9235TIP3   OH249119   3.432   0.842   4.823  0.6285  0.0218 -0.4526
 9235TIP3    H149120   3.438   0.836   4.919  1.1264  0.1545 -0.4730
 9235TIP3    H249121   3.355   0.896   4.807  0.4419 -0.1433 -0.1278
 9236TIP3   OH249122   2.188   1.526  12.139  0.2317  0.2741 -0.7246
 9236TIP3    H149123   2.205   1.443  12.094 -0.1451  0.5162 -1.3179
 9236TIP3    H249124   2.108   1.511  12.188  0.3936  0.1572 -0.4918
 9237TIP3   OH249125   3.469   3.928   4.470 -0.1086  0.4673  0.4974
 9237TIP3    H149126   3.417   3.894   4.543 -0.7017  2.2461  0.9728
 9237TIP3    H249127   3.407   3.937   4.398  0.4555 -1.1915 -0.2288
 9238TIP3   OH249128   3.337   3.930   3.578 -0.1186  0.2263  0.0640
 9238TIP3    H149129   3.363   3.922   3.486  0.1556 -0.0865  0.1660
 9238TIP3    H249130   3.326   3.840   3.608  0.7118  0.2938  0.5905
 9239TIP3   OH249131   0.018   5.575  16.312 -0.6847  0.2520  0.1432
 9239TIP3    H149132   0.065   5.627  16.246 -1.2362 -0.6416 -0.9800
 9239TIP3    H249133  -0.027   5.507  16.262 -2.3207  0.4289  1.2893
 9240TIP3   OH249134   3.489   3.493  12.660  0.0652 -0.0456 -0.1482
 9240TIP3    H149135   3.484   3.589  12.654 -0.0349 -0.0454 -0.0675
 9240TIP3    H249136   3.497   3.464  12.570  0.8376  0.0788 -0.1287
 9241TIP3   OH249137   2.958   0.600  13.388 -0.1451 -0.0672 -0.4225
 9241TIP3    H149138   2.866   0.584  13.368  0.1281 -0.4679 -1.4008
 9241TIP3    H249139   3.003   0.591  13.304  0.6853  0.9143 -0.1076
 9242TIP3   OH249140   3.755   3.970   2.069  0.2614  0.0718 -0.1232
 9242TIP3    H149141   3.818   3.925   2.125  0.6652  1.3721  0.5112
 9242TIP3    H249142   3.789   3.959   1.981 -1.4695 -3.8401 -0.5170
 9243TIP3   OH249143   4.691   4.471  16.531 -0.2189 -0.5965  0.2358
 9243TIP3    H149144   4.732   4.553  16.502  0.7089 -0.9460  0.5380
 9243TIP3    H249145   4.702   4.412  16.457 -0.0100 -0.7437  0.3830
 9244TIP3   OH249146   3.409   1.971   4.115  0.2093  0.4449 -0.4090
 9244TIP3    H149147   3.441   2.060   4.126 -0.3592  0.5804  0.1472
 9244TIP3    H249148   3.436   1.925   4.194  1.4742 -0.1852 -1.1649
 9245TIP3   OH249149   2.451   4.807   2.505 -0.4300  0.3704 -0.6619
 9245TIP3    H149150   2.399   4.887   2.496  1.4410  1.4957 -1.9783
 9245TIP3    H249151   2.536   4.829   2.468  0.8329 -1.5972  0.8960
 9246TIP3   OH249152   4.136   6.544  13.188 -0.2794 -0.1827  0.1999
 9246TIP3    H149153   4.120   6.545  13.094 -3.3595 -0.6073  0.6163
 9246TIP3    H249154   4.146   6.452  13.211 -1.9140 -0.2933  0.5692
 9247TIP3   OH249155   2.349   4.432   3.591 -0.7102 -0.1493  0.2790
 9247TIP3    H149156   2.290   4.502   3.619  0.5972  1.1811 -0.1554
 9247TIP3    H249157   2.299   4.352   3.604 -2.7389  0.9316 -0.3836
 9248TIP3   OH249158   0.308   0.621   5.741  0.5455  0.0977  0.0409
 9248TIP3    H149159   0.294   0.641   5.649  2.4305  0.6108 -0.1736
 9248TIP3    H249160   0.265   0.691   5.789  1.0340  0.7871 -0.5173
 9249TIP3   OH249161   2.549   3.393   3.017 -0.2031  0.0733  1.1402
 9249TIP3    H149162   2.632   3.346   3.010 -0.5539 -0.6917  1.8899
 9249TIP3    H249163   2.568   3.481   2.985  1.1657  0.2381  2.3181
 9250TIP3   OH249164   1.139   1.071  11.424 -0.3503  0.8066  0.5950
 9250TIP3    H149165   1.221   1.024  11.410  0.0282  1.2651  1.2241
 9250TIP3    H249166   1.165   1.162  11.436 -1.0172  1.0720  0.0885
 9251TIP3   OH249167   0.596   0.305   5.381  0.4563 -0.2580  0.3767
 9251TIP3    H149168   0.658   0.320   5.453  1.6177  0.2626 -0.6895
 9251TIP3    H249169   0.558   0.392   5.365 -1.4297 -0.7685  1.7454
 9252TIP3   OH249170   0.503   1.347   4.730 -0.5358 -0.5194  0.5488
 9252TIP3    H149171   0.575   1.398   4.769  0.3504 -1.4936  0.2231
 9252TIP3    H249172   0.473   1.401   4.657  0.3437 -0.4152  0.2462
 9253TIP3   OH249173   4.103   3.770   3.182  0.1083 -0.3075  0.1663
 9253TIP3    H149174   4.110   3.700   3.247 -0.1701 -1.1592 -0.6884
 9253TIP3    H249175   4.162   3.742   3.111  0.5431  0.6860  0.1151
 9254TIP3   OH249176   0.003   1.731  14.151  0.1749  0.0480  0.3652
 9254TIP3    H149177   0.087   1.689  14.171  0.4045 -0.2368 -1.1049
 9254TIP3    H249178  -0.062   1.664  14.168  0.2593  0.1608  1.1803
 9255TIP3   OH249179   5.543   4.132  16.937  0.2974 -0.0449  0.6194
 9255TIP3    H149180   5.524   4.102  17.025 -1.6576  0.1931  0.3196
 9255TIP3    H249181   5.502   4.218  16.931  1.0185  0.2554 -0.2907
 9256TIP3   OH249182   4.585   2.698  13.551 -0.4360 -0.4115  0.4212
 9256TIP3    H149183   4.627   2.619  13.583  1.5945  0.7436  0.8267
 9256TIP3    H249184   4.493   2.687  13.571 -0.0215 -2.1161  1.5844
 9257TIP3   OH249185   4.942   6.295   5.484  0.0685  0.3989 -0.3987
 9257TIP3    H149186   4.860   6.279   5.532 -0.3001  0.5568 -0.9651
 9257TIP3    H249187   4.973   6.379   5.517 -0.6642  0.9495 -1.0922
 9258TIP3   OH249188   2.645   3.282   6.270  0.5531 -0.3265  0.2073
 9258TIP3    H149189   2.710   3.348   6.295  0.5830 -0.4702  0.5047
 9258TIP3    H249190   2.689   3.198   6.281  0.5444 -0.3988 -0.2608
 9259TIP3   OH249191   2.296   2.902  16.399 -0.2705  0.0061 -0.2039
 9259TIP3    H149192   2.255   2.937  16.478 -1.2204 -0.3638 -0.5099
 9259TIP3    H249193   2.348   2.828  16.429 -0.3757  0.0563  0.1052
 9260TIP3   OH249194   4.236   3.992   0.191  0.6788  0.2462  0.1545
 9260TIP3    H149195   4.320   4.004   0.235  0.0899 -0.2143  1.4461
 9260TIP3    H249196   4.259   3.986   0.098  1.8233  2.6561  0.1948
 9261TIP3   OH249197   6.659   5.635   3.316 -0.3667  0.7042  0.0734
 9261TIP3    H149198   6.722   5.687   3.265 -0.8876 -0.6062 -2.0301
 9261TIP3    H249199   6.713   5.568   3.358 -0.0661  1.1035  0.3328
 9262TIP3   OH249200   0.884   2.384  14.571  0.7103 -0.3062 -0.2141
 9262TIP3    H149201   0.903   2.345  14.657  0.3731 -1.7325 -0.7484
 9262TIP3    H249202   0.953   2.350  14.514 -0.7130 -1.8214 -1.1413
 9263TIP3   OH249203   4.058   2.423   5.701 -0.2729 -0.2709  0.0657
 9263TIP3    H149204   3.968   2.393   5.687 -0.0036 -0.8734 -0.3702
 9263TIP3    H249205   4.087   2.454   5.615 -0.3011  0.5963  0.3550
 9264TIP3   OH249206   0.874   4.070   0.751 -0.6156  0.0803  0.2677
 9264TIP3    H149207   0.873   4.143   0.688 -0.4630  1.3246  1.6637
 9264TIP3    H249208   0.942   4.011   0.717 -0.0895  1.0376 -0.4076
 9265TIP3   OH249209   2.945   5.140   5.817  0.1231  0.3038  0.1285
 9265TIP3    H149210   2.936   5.048   5.793  0.8487 -0.0737  1.2259
 9265TIP3    H249211   2.940   5.141   5.913  2.5250  1.0758  0.3237
 9266TIP3   OH249212   0.488   5.133   5.399 -0.3426  0.0005  0.2141
 9266TIP3    H149213   0.413   5.136   5.339 -0.8950 -0.7667  0.8349
 9266TIP3    H249214   0.550   5.075   5.356  1.2749  2.9818 -1.7665
 9267TIP3   OH249215   3.428   0.598   1.335  0.0891  0.2675 -0.7992
 9267TIP3    H149216   3.464   0.602   1.423  0.0630  0.5946 -0.8023
 9267TIP3    H249217   3.357   0.663   1.334 -0.2351 -0.0856 -0.9143
 9268TIP3   OH249218   3.676   1.180   3.883 -0.4124  0.3636  0.0076
 9268TIP3    H149219   3.660   1.086   3.888  0.2311  0.2930  4.5948
 9268TIP3    H249220   3.736   1.199   3.955 -0.6949  4.3590 -0.5506
 9269TIP3   OH249221   0.812   1.107   3.448 -0.7943  0.3801  0.0794
 9269TIP3    H149222   0.775   1.195   3.440 -0.1881  0.6191 -0.0848
 9269TIP3    H249223   0.736   1.052   3.470 -0.8441  1.3076  2.6666
 9270TIP3   OH249224   1.390   4.932  17.348 -0.0802  0.0878 -0.1338
 9270TIP3    H149225   1.471   4.945  17.397  0.5580 -1.2632 -0.7841
 9270TIP3    H249226   1.404   4.851  17.299 -1.1315  0.7770 -1.6646
 9271TIP3   OH249227   5.573   0.553   3.289 -0.2636 -0.2061  0.0779
 9271TIP3    H149228   5.509   0.496   3.330 -0.7996 -0.8736 -1.6439
 9271TIP3    H249229   5.543   0.565   3.199  1.2167  0.6922 -0.3498
 9272TIP3   OH249230   4.447   4.943   4.067 -0.6485 -0.1027 -0.4006
 9272TIP3    H149231   4.450   5.017   4.006 -0.7784  3.8378  3.7486
 9272TIP3    H249232   4.354   4.930   4.084 -0.6224  1.8042  1.7879
 9273TIP3   OH249233   3.004   5.252   6.328  0.3820  0.3479  0.4698
 9273TIP3    H149234   3.055   5.193   6.383  0.6640  1.3118  1.2667
 9273TIP3    H249235   3.043   5.338   6.341 -0.4232  0.8357 -0.1717
 9274TIP3   OH249236   1.324   3.686   0.913  0.0305  0.0076  0.0950
 9274TIP3    H149237   1.366   3.770   0.894  0.4094  0.2066  1.6412
 9274TIP3    H249238   1.234   3.709   0.936  0.5641  0.2472  2.1952
 9275TIP3   OH249239   1.159   3.480   5.467 -0.2863  0.0483  0.3741
 9275TIP3    H149240   1.225   3.516   5.408 -2.2649  0.1767 -1.9133
 9275TIP3    H249241   1.132   3.554   5.521 -0.0491  0.4763 -0.0897
 9276TIP3   OH249242   2.423   3.892  11.459  0.1710 -0.0750  0.5153
 9276TIP3    H149243   2.391   3.927  11.542 -1.9710  0.0767 -0.3133
 9276TIP3    H249244   2.464   3.966  11.415 -0.3275  0.3127  0.6894
 9277TIP3   OH249245   2.535   2.944  12.148  0.4430 -0.1084  0.3005
 9277TIP3    H149246   2.468   2.961  12.083  0.2547 -0.7804  0.3027
 9277TIP3    H249247   2.494   2.965  12.232  1.3682  2.8448  0.1294
 9278TIP3   OH249248   1.025   2.278  12.921  0.1267  0.6889 -0.1326
 9278TIP3    H149249   0.980   2.220  12.860  0.7786  0.5476 -0.4868
 9278TIP3    H249250   0.955   2.333  12.957 -0.3648  0.2969 -0.4727
 9279TIP3   OH249251   1.387   2.927  13.404  0.3601 -0.7396 -0.2195
 9279TIP3    H149252   1.316   2.887  13.454 -0.1495  0.2994 -0.0808
 9279TIP3    H249253   1.466   2.878  13.430  0.0839 -0.3500  1.4703
 9280TIP3   OH249254   5.899   2.642  16.999 -0.2098  0.1561 -0.3507
 9280TIP3    H149255   5.878   2.718  17.053 -1.1735 -0.3623  0.0349
 9280TIP3    H249256   5.819   2.589  17.001  1.1917 -2.1049  1.4587
 9281TIP3   OH249257   0.305   5.517   4.249 -0.1120 -0.0036 -0.4066
 9281TIP3    H149258   0.254   5.453   4.299 -0.7002 -1.0673 -2.2381
 9281TIP3    H249259   0.331   5.470   4.169  2.4304  1.0090 -0.2704
 9282TIP3   OH249260   6.631   3.871   5.150  0.5580 -0.0624 -0.1838
 9282TIP3    H149261   6.557   3.818   5.122  0.0017  0.8835 -0.5348
 9282TIP3    H249262   6.701   3.807   5.168 -0.9212 -1.1649  2.1690
 9283TIP3   OH249263   2.621   0.962   1.491  0.2096  0.2191  0.4065
 9283TIP3    H149264   2.626   1.009   1.575 -0.2776 -0.5088  0.8576
 9283TIP3    H249265   2.560   1.014   1.438  1.2267  1.1919  0.1490
 9284TIP3   OH249266   6.409   0.058   0.661  0.0837 -0.5758  0.4642
 9284TIP3    H149267   6.409   0.066   0.565 -2.0147  0.4761  0.5001
 9284TIP3    H249268   6.321   0.029   0.682  0.7762 -1.6158  2.0557
 9285TIP3   OH249269   2.580   2.346  16.940  0.2446  0.4538 -0.1925
 9285TIP3    H149270   2.505   2.309  16.987  0.2949 -0.0840 -0.5204
 9285TIP3    H249271   2.554   2.342  16.848  0.5409  0.5862 -0.2850
 9286TIP3   OH249272   3.741   2.727   3.270  0.0124 -0.3203 -0.1852
 9286TIP3    H149273   3.759   2.667   3.198  2.2950  0.0567 -0.0021
 9286TIP3    H249274   3.782   2.686   3.346  1.2381  1.2166  0.0291
 9287TIP3   OH249275   0.325   2.904  12.998  0.4359 -0.0857  0.3749
 9287TIP3    H149276   0.394   2.967  12.978  0.0554  0.1691 -0.1537
 9287TIP3    H249277   0.283   2.887  12.914  1.2862 -1.9375  0.2845
 9288TIP3   OH249278   2.573   1.961  11.551  0.7212 -0.5154  0.2211
 9288TIP3    H149279   2.515   2.031  11.519  2.6105  0.7570 -0.6099
 9288TIP3    H249280   2.649   1.965  11.493  0.9861 -3.1716  0.2927
 9289TIP3   OH249281   4.491   4.300   4.191  0.0769  0.1423 -0.2534
 9289TIP3    H149282   4.426   4.360   4.154 -0.7712 -0.7651 -0.2864
 9289TIP3    H249283   4.570   4.352   4.200 -0.8256  1.4614  0.3634
 9290TIP3   OH249284   6.159   0.824   5.198 -0.0111 -0.8244  0.1766
 9290TIP3    H149285   6.207   0.781   5.127 -0.3485 -2.5697  0.9535
 9290TIP3    H249286   6.224   0.832   5.269 -0.3377 -1.4525  0.5584
 9291TIP3   OH249287   0.531   1.031  13.631  0.3273  0.9736 -0.3154
 9291TIP3    H149288   0.467   0.981  13.682  0.8653  0.4527 -0.1419
 9291TIP3    H249289   0.540   1.114  13.677 -2.0545  2.0854 -1.6744
 9292TIP3   OH249290   3.639   1.701   5.111 -0.5312  0.2191 -0.1146
 9292TIP3    H149291   3.579   1.660   5.172 -1.3305  1.2087 -0.2083
 9292TIP3    H249292   3.583   1.752   5.052  0.4513  2.8935  1.0813
 9293TIP3   OH249293   1.014   1.518  16.640  0.3996  0.0033 -0.2181
 9293TIP3    H149294   1.026   1.424  16.632 -1.3313 -0.3584  0.9660
 9293TIP3    H249295   0.989   1.547  16.552  0.7253 -0.6715 -0.5405
 9294TIP3   OH249296   2.576   1.292   1.581  0.0715  0.4337 -0.4473
 9294TIP3    H149297   2.634   1.364   1.603  0.2274  0.4052 -0.7640
 9294TIP3    H249298   2.581   1.285   1.486  1.0650 -0.8213 -0.3378
 9295TIP3   OH249299   0.715   2.087   1.033 -0.1617 -0.0069  0.0349
 9295TIP3    H149300   0.661   2.114   0.958 -0.6544  0.4523  0.5404
 9295TIP3    H249301   0.692   1.996   1.047 -0.2577 -0.0244 -0.2181
 9296TIP3   OH249302   1.218   4.240   4.101  0.8009 -0.1524  0.3441
 9296TIP3    H149303   1.137   4.290   4.112  0.9086  0.0748  0.1054
 9296TIP3    H249304   1.189   4.148   4.100  0.3052 -0.0168 -1.8095
 9297TIP3   OH249305   6.577   6.234   1.199  0.2100 -0.5741  0.4913
 9297TIP3    H149306   6.587   6.235   1.294 -1.7573  0.6525  0.7487
 9297TIP3    H249307   6.484   6.252   1.185  0.8771  1.7298 -1.6996
 9298TIP3   OH249308   2.873   3.204  16.935  0.2077 -0.1147  0.7511
 9298TIP3    H149309   2.945   3.206  16.873 -0.2165  0.2794  0.2615
 9298TIP3    H249310   2.846   3.112  16.937  1.0404 -0.3523  1.3181
 9299TIP3   OH249311   0.208   2.330   0.628 -0.4357  0.0594  0.7716
 9299TIP3    H149312   0.298   2.339   0.659  0.6479 -2.7857 -1.1238
 9299TIP3    H249313   0.201   2.394   0.557  0.1619  0.1954  0.8258
 9300TIP3   OH249314   2.393   5.381  13.243 -0.0650 -0.0995 -0.4828
 9300TIP3    H149315   2.371   5.305  13.298 -0.0824  1.0641  1.1913
 9300TIP3    H249316   2.489   5.385  13.246 -0.1276  0.8793  0.7972
 9301TIP3   OH249317   0.547   5.579   2.716 -0.1105 -0.2091  0.1565
 9301TIP3    H149318   0.581   5.503   2.670 -1.8147 -0.7951 -0.2049
 9301TIP3    H249319   0.491   5.623   2.651 -0.6980  0.2466  0.9498
 9302TIP3   OH249320   3.252   2.113  14.126 -1.1231 -0.2545 -0.2182
 9302TIP3    H149321   3.279   2.116  14.218  0.3108  0.1994 -0.6332
 9302TIP3    H249322   3.219   2.024  14.113 -0.2604 -0.6875  0.4573
 9303TIP3   OH249323   3.783   0.427   4.893 -0.3356  0.6473 -0.3478
 9303TIP3    H149324   3.716   0.489   4.865 -0.4747  0.6785  0.0477
 9303TIP3    H249325   3.786   0.436   4.988  1.5663  2.0315 -0.4829
 9304TIP3   OH249326   1.206   3.280  12.755  0.7261 -0.1533  0.6087
 9304TIP3    H149327   1.228   3.347  12.690  1.2092  0.5494  1.4664
 9304TIP3    H249328   1.282   3.221  12.755  1.0663  0.2726  1.0534
 9305TIP3   OH249329   5.256   2.287  12.283 -0.0867 -0.2680  0.1182
 9305TIP3    H149330   5.306   2.208  12.263 -0.1284  0.1217 -1.7256
 9305TIP3    H249331   5.251   2.289  12.378 -1.7759 -3.5205  0.2136
 9306TIP3   OH249332   0.044   5.431  15.426  0.4086 -0.0001  0.3409
 9306TIP3    H149333   0.129   5.449  15.464 -0.1475 -0.2497  1.7573
 9306TIP3    H249334   0.011   5.517  15.398  1.1003  0.0959 -0.2059
 9307TIP3   OH249335   0.153   5.478  13.960  0.3777 -0.0702 -0.0532
 9307TIP3    H149336   0.159   5.544  13.890  2.0843  0.1357  0.2402
 9307TIP3    H249337   0.123   5.527  14.036  0.1003  0.0411 -0.2314
 9308TIP3   OH249338   5.875   0.938   3.204  0.0656 -0.0405  0.2601
 9308TIP3    H149339   5.866   0.869   3.138  1.3942  1.2484 -1.3514
 9308TIP3    H249340   5.790   0.980   3.206 -0.0469 -0.2103 -0.5227
 9309TIP3   OH249341   4.581   1.401   1.372  1.0682 -0.3632  0.0082
 9309TIP3    H149342   4.507   1.343   1.354  0.8950  0.2885 -1.5997
 9309TIP3    H249343   4.596   1.393   1.466  2.3886 -4.5919 -0.3687
 9310TIP3   OH249344   3.608   1.080   1.068  0.0913  0.8785  0.3025
 9310TIP3    H149345   3.596   0.989   1.094 -0.4300  1.4278  2.0975
 9310TIP3    H249346   3.520   1.115   1.060  0.2097  0.8406 -2.1012
 9311TIP3   OH249347   5.275   5.443   2.683 -0.4642 -0.2115  0.1272
 9311TIP3    H149348   5.192   5.486   2.700 -0.2099 -0.0356  1.0120
 9311TIP3    H249349   5.307   5.482   2.602 -0.1511  1.4236  0.9908
 9312TIP3   OH249350   6.263   3.214   2.863  0.5569 -0.5913 -0.2583
 9312TIP3    H149351   6.222   3.272   2.799 -1.0572 -1.3462  0.0655
 9312TIP3    H249352   6.191   3.171   2.908  1.5610  0.5733  2.7581
 9313TIP3   OH249353   6.554   1.452  13.201 -0.7499 -0.4093  0.5304
 9313TIP3    H149354   6.601   1.471  13.282 -0.9338 -1.4002  0.8817
 9313TIP3    H249355   6.603   1.499  13.133 -1.0763  1.1218  1.3069
 9314TIP3   OH249356   3.170   2.619  17.147  1.1104 -0.0745 -0.1712
 9314TIP3    H149357   3.187   2.689  17.085  0.7691  0.4675  0.3363
 9314TIP3    H249358   3.244   2.621  17.207  0.6221  0.5247  0.4381
 9315TIP3   OH249359   2.317   1.247  11.457  0.3061  0.7554 -0.2147
 9315TIP3    H149360   2.407   1.281  11.460  0.5385  0.0554  1.8703
 9315TIP3    H249361   2.290   1.240  11.548 -1.1464 -0.9622 -0.7183
 9316TIP3   OH249362   2.125   3.778  11.467  0.0056  0.3495  0.2913
 9316TIP3    H149363   2.110   3.854  11.524 -0.2138  0.0526  0.6346
 9316TIP3    H249364   2.037   3.752  11.438 -0.3053 -1.6938  2.6912
 9317TIP3   OH249365   4.839   2.805  16.867 -0.0815  0.5212 -0.1641
 9317TIP3    H149366   4.861   2.841  16.952  1.1428 -1.6085  0.4757
 9317TIP3    H249367   4.912   2.831  16.810 -1.1251  2.3565 -0.7759
 9318TIP3   OH249368   1.817   4.889   6.000 -0.2566  0.3952  0.0483
 9318TIP3    H149369   1.895   4.836   6.011 -1.0241 -0.8163 -0.1493
 9318TIP3    H249370   1.848   4.970   5.960  0.7452 -0.5060 -1.0683
 9319TIP3   OH249371   6.240   4.624   2.790  0.0591  0.1972  0.4538
 9319TIP3    H149372   6.293   4.703   2.806  1.4166 -0.3216 -1.2414
 9319TIP3    H249373   6.165   4.635   2.848  0.9562  2.0049  1.3913
 9320TIP3   OH249374   1.870   5.123  12.637 -0.3928  0.8368  0.1654
 9320TIP3    H149375   1.807   5.160  12.574  1.5323  0.7302 -1.9745
 9320TIP3    H249376   1.821   5.117  12.719 -3.1538  0.7641 -1.3416
 9321TIP3   OH249377   6.479   5.096  11.740 -0.0488  0.4166 -0.0294
 9321TIP3    H149378   6.546   5.034  11.769 -1.6652 -1.8424 -0.8411
 9321TIP3    H249379   6.454   5.143  11.819  0.1274 -1.1100  0.9861
 9322TIP3   OH249380   2.803   5.255  14.888  0.5248  0.4573 -0.2697
 9322TIP3    H149381   2.873   5.305  14.929  0.4682  2.2609 -2.2317
 9322TIP3    H249382   2.732   5.318  14.876  0.1717 -0.2390 -2.1807
 9323TIP3   OH249383   5.240   1.215   5.738 -0.1485 -0.4364  0.3478
 9323TIP3    H149384   5.184   1.270   5.683  0.1068 -0.2737  0.2505
 9323TIP3    H249385   5.240   1.130   5.695  1.6915  0.2166 -1.0601
 9324TIP3   OH249386   1.591   6.530  16.988  0.4059  0.0820 -0.3609
 9324TIP3    H149387   1.539   6.453  17.009  0.3803 -0.0568 -0.9297
 9324TIP3    H249388   1.666   6.496  16.940  0.2493  0.4411 -0.8672
 9325TIP3   OH249389   4.137   2.967   6.561 -0.3933  0.1703 -0.6937
 9325TIP3    H149390   4.224   2.927   6.554 -0.7467 -0.4424 -1.9088
 9325TIP3    H249391   4.085   2.901   6.607 -0.6666 -0.2704 -1.6108
 9326TIP3   OH249392   0.114   4.521  12.278 -0.0007 -0.6025 -0.2333
 9326TIP3    H149393   0.093   4.491  12.189  1.8994  0.2787 -1.0414
 9326TIP3    H249394   0.044   4.583  12.299 -0.7700 -1.2216 -0.8850
 9327TIP3   OH249395   1.226   0.135   1.495 -0.0735 -0.4227  1.0833
 9327TIP3    H149396   1.240   0.098   1.408  0.0453  1.2221  0.3732
 9327TIP3    H249397   1.313   0.139   1.534 -0.0363 -0.4842  1.0065
 9328TIP3   OH249398   0.472   2.213  12.954 -0.1227  0.1645 -0.1587
 9328TIP3    H149399   0.485   2.206  13.049  0.9067  0.8021 -0.2330
 9328TIP3    H249400   0.407   2.282  12.943  0.2438  0.5552  0.0710
 9329TIP3   OH249401   2.837   3.970   1.370 -0.3688  0.7141  0.7478
 9329TIP3    H149402   2.790   3.887   1.366  1.2154 -0.1959  0.2272
 9329TIP3    H249403   2.778   4.029   1.417 -0.9824 -1.0796  2.3445
 9330TIP3   OH249404   3.856   4.352   2.598  0.1203  0.0038  0.3495
 9330TIP3    H149405   3.781   4.403   2.628 -0.6602 -1.0116  0.1657
 9330TIP3    H249406   3.821   4.264   2.581  1.3193 -0.4588  0.1383
 9331TIP3   OH249407   1.516   0.969   0.181  0.0256  0.0654  0.6240
 9331TIP3    H149408   1.478   0.913   0.249 -0.1759 -0.9169 -0.2673
 9331TIP3    H249409   1.467   0.948   0.102 -0.3461  1.8462  0.3332
 9332TIP3   OH249410   6.233   1.214   3.159 -0.0213 -0.8945  0.0336
 9332TIP3    H149411   6.288   1.291   3.146 -1.5498  0.0353 -1.2773
 9332TIP3    H249412   6.205   1.189   3.071 -0.7106 -2.0825  0.5631
 9333TIP3   OH249413   5.321   4.368   3.661  0.5160 -0.3336 -0.6649
 9333TIP3    H149414   5.331   4.357   3.567 -1.5072 -3.6138 -0.6691
 9333TIP3    H249415   5.395   4.320   3.699  1.3795  1.0579 -0.5083
 9334TIP3   OH249416   5.193   2.130   0.360  0.1410 -0.6118 -0.6122
 9334TIP3    H149417   5.244   2.094   0.287  0.1705 -1.8778  0.0250
 9334TIP3    H249418   5.104   2.138   0.325  0.5993  1.0188 -1.5236
 9335TIP3   OH249419   0.065   2.372  16.327  0.0365 -0.0230  0.2678
 9335TIP3    H149420   0.006   2.355  16.400  0.4335  1.7009  1.0500
 9335TIP3    H249421   0.133   2.306  16.335 -0.8649 -0.9673  0.3714
 9336TIP3   OH249422   3.163   5.790  15.475 -0.2347 -0.2595  0.0152
 9336TIP3    H149423   3.117   5.831  15.402  0.3209  0.9414  0.3121
 9336TIP3    H249424   3.201   5.710  15.438 -0.4952  0.0113 -0.8436
 9337TIP3   OH249425   0.308   1.992   6.152  0.1230  0.3870 -0.0990
 9337TIP3    H149426   0.253   1.983   6.230  0.7277 -0.2360  0.2649
 9337TIP3    H249427   0.254   2.040   6.090  0.3196  2.7394  1.4078
 9338TIP3   OH249428   0.231   6.156   3.153 -0.2543 -0.1492 -0.1801
 9338TIP3    H149429   0.143   6.187   3.176  0.0105 -0.3588  1.2023
 9338TIP3    H249430   0.216   6.073   3.108 -0.7928  0.1397 -0.5411
 9339TIP3   OH249431   0.950   6.483   1.934  0.0269  0.4707 -0.7952
 9339TIP3    H149432   0.871   6.436   1.906 -0.0948  1.1809 -1.7101
 9339TIP3    H249433   1.022   6.436   1.893 -0.0021  0.4315 -0.8014
 9340TIP3   OH249434   3.459   4.766   1.030  0.4077  0.3217  0.0777
 9340TIP3    H149435   3.533   4.769   1.091  0.5635  0.3421 -0.1153
 9340TIP3    H249436   3.397   4.704   1.071  0.0402  1.1356  0.7976
 9341TIP3   OH249437   6.082   6.201   3.834 -0.6820  0.0497 -0.0380
 9341TIP3    H149438   6.001   6.242   3.864 -0.9165  0.1540 -0.7824
 9341TIP3    H249439   6.060   6.109   3.824 -0.7378  0.0924 -0.3229
 9342TIP3   OH249440   2.054   2.027  11.730 -0.0718  0.5820 -0.1969
 9342TIP3    H149441   2.027   1.972  11.804  1.0702  2.0489  1.3782
 9342TIP3    H249442   1.975   2.034  11.676 -0.7867 -0.9462  0.5687
 9343TIP3   OH249443   3.700   3.869  11.176 -0.1717  0.0572  0.2110
 9343TIP3    H149444   3.655   3.941  11.133 -0.4098  0.0532  0.4533
 9343TIP3    H249445   3.737   3.817  11.104 -0.9206 -0.1797 -0.0054
 9344TIP3   OH249446   5.456   2.091  12.129  0.9832 -0.0614  0.3137
 9344TIP3    H149447   5.499   2.176  12.124  0.0132  0.4998  1.0392
 9344TIP3    H249448   5.514   2.038  12.182  1.6213  0.1273 -0.1832
 9345TIP3   OH249449   3.606   6.316  13.620  0.0701 -0.3427 -0.1035
 9345TIP3    H149450   3.668   6.281  13.556  0.1163  0.1724 -0.3439
 9345TIP3    H249451   3.523   6.271  13.601  0.2424 -0.6598 -0.1078
 9346TIP3   OH249452   5.868   2.294  13.873 -0.3314  0.5102  0.1043
 9346TIP3    H149453   5.822   2.292  13.957  0.4005  1.6362  0.5561
 9346TIP3    H249454   5.868   2.387  13.847 -1.0584  0.1208 -1.4405
 9347TIP3   OH249455   4.099   4.927   0.623 -0.0136  0.1151 -0.3428
 9347TIP3    H149456   4.139   4.859   0.677  0.6812 -1.3239 -2.5693
 9347TIP3    H249457   4.031   4.965   0.679  0.5808 -1.3643  1.4789
 9348TIP3   OH249458   5.341   1.620  11.889 -0.2547  0.1385 -0.3331
 9348TIP3    H149459   5.284   1.658  11.955  0.6628  1.4253 -0.2476
 9348TIP3    H249460   5.364   1.533  11.924 -0.0703  0.6608  0.8788
 9349TIP3   OH249461   3.042   4.060   1.799 -0.6746  0.1079 -0.5792
 9349TIP3    H149462   2.957   4.032   1.834 -0.4241 -0.0169 -0.0658
 9349TIP3    H249463   3.080   4.114   1.868 -0.1461 -0.1971 -0.6251
 9350TIP3   OH249464   0.212   2.622   0.178  0.1588  0.0061 -0.4734
 9350TIP3    H149465   0.166   2.706   0.170 -1.7634 -0.9780 -0.2669
 9350TIP3    H249466   0.207   2.584   0.090 -0.4176 -0.5967 -0.1856
 9351TIP3   OH249467   2.088   3.337  13.165  0.0058 -0.1480  0.0828
 9351TIP3    H149468   2.072   3.360  13.257  1.1909 -2.0780  0.8284
 9351TIP3    H249469   2.060   3.245  13.158  0.5042 -0.2201 -1.3196
 9352TIP3   OH249470   6.443   4.332  17.274 -0.1788 -0.1330 -0.2092
 9352TIP3    H149471   6.514   4.351  17.213 -0.1387 -0.2748 -0.2086
 9352TIP3    H249472   6.480   4.352  17.360 -0.1716 -0.1185 -0.2162
 9353TIP3   OH249473   0.675   2.739  16.098  0.4469  0.0916  0.3205
 9353TIP3    H149474   0.613   2.726  16.170  0.9570 -2.4584  0.3746
 9353TIP3    H249475   0.683   2.834  16.091 -0.8703  0.4355  2.5279
 9354TIP3   OH249476   4.558   0.881   5.224 -0.4503 -0.0409 -0.4936
 9354TIP3    H149477   4.595   0.824   5.158 -0.2444  0.4317 -0.7927
 9354TIP3    H249478   4.618   0.955   5.229 -0.0906 -0.3842  0.7168
 9355TIP3   OH249479   4.173   5.617  13.452 -0.4346 -0.2136  0.1489
 9355TIP3    H149480   4.111   5.640  13.522 -0.2721 -0.8781  0.5179
 9355TIP3    H249481   4.118   5.583  13.382 -0.4214 -2.4109  1.1109
 9356TIP3   OH249482   1.316   2.318   1.270 -0.3768 -0.0151 -0.3591
 9356TIP3    H149483   1.272   2.339   1.187 -0.3279  0.7965 -0.1902
 9356TIP3    H249484   1.399   2.367   1.266  0.1737 -0.9236 -0.3439
 9357TIP3   OH249485   4.477   1.450  15.894 -0.7070  0.3003  0.0915
 9357TIP3    H149486   4.489   1.433  15.987  0.6036  0.8539  0.0368
 9357TIP3    H249487   4.411   1.519  15.890 -2.2000 -1.0265  0.5055
 9358TIP3   OH249488   6.367   2.869   6.132  0.1799 -0.0718  0.1147
 9358TIP3    H149489   6.331   2.786   6.102 -1.8060  0.8657 -0.2816
 9358TIP3    H249490   6.458   2.850   6.156 -0.6270 -2.6478  1.4259
 9359TIP3   OH249491   3.932   3.980   4.812 -0.2490 -0.3138  0.0279
 9359TIP3    H149492   4.011   3.998   4.864  0.4836 -3.1176  0.0707
 9359TIP3    H249493   3.862   3.974   4.877  0.1086 -0.8602  0.3787
 9360TIP3   OH249494   1.009   1.577   5.672 -0.3778  0.2820 -0.5215
 9360TIP3    H149495   1.047   1.626   5.746 -0.8327 -0.8012  0.4558
 9360TIP3    H249496   0.959   1.643   5.624 -0.7987  0.8470  0.6365
 9361TIP3   OH249497   2.709   2.818   3.814  0.3919  0.1125  0.3741
 9361TIP3    H149498   2.718   2.820   3.718  0.3269  1.8580  0.3784
 9361TIP3    H249499   2.627   2.864   3.831 -0.0555 -0.9669  1.2483
 9362TIP3   OH249500   1.364   6.595  16.489  0.0039 -0.6240  0.1580
 9362TIP3    H149501   1.432   6.598  16.422 -1.4454 -0.8747 -1.3905
 9362TIP3    H249502   1.396   6.654  16.558  2.0393 -1.1971 -0.2322
 9363TIP3   OH249503   0.954   2.838   1.529 -0.3424  0.4196  0.0951
 9363TIP3    H149504   0.991   2.896   1.462  0.4621  0.8327  0.8788
 9363TIP3    H249505   0.972   2.749   1.496  1.3033  0.6075  0.4067
 9364TIP3   OH249506   3.267   1.383   5.432  0.1912  0.0410 -0.0313
 9364TIP3    H149507   3.194   1.442   5.412  1.3618  1.8649  0.7935
 9364TIP3    H249508   3.319   1.382   5.352  1.8525  2.7972  0.8593
 9365TIP3   OH249509   2.099   4.905   0.941 -0.3990  0.0433 -0.6660
 9365TIP3    H149510   2.014   4.861   0.935 -0.3647 -0.2195  0.5070
 9365TIP3    H249511   2.117   4.936   0.852 -0.0249 -3.0867 -1.8108
 9366TIP3   OH249512   1.304   1.041  17.059 -0.3960 -0.4398 -0.3686
 9366TIP3    H149513   1.231   1.015  17.116 -1.3509  1.3630 -0.6935
 9366TIP3    H249514   1.327   0.960  17.013 -1.8304 -1.1973  0.1486
 9367TIP3   OH249515   5.573   2.164  14.868 -0.0718 -0.2438 -0.1058
 9367TIP3    H149516   5.583   2.074  14.836 -0.2285 -0.7875  1.3298
 9367TIP3    H249517   5.551   2.214  14.789  1.4715 -1.1824 -1.1926
 9368TIP3   OH249518   4.253   3.566   3.360  0.0402 -0.6380  0.3956
 9368TIP3    H149519   4.229   3.493   3.417  2.8430  0.4743  3.3068
 9368TIP3    H249520   4.309   3.527   3.294 -0.3997 -1.4557  0.4862
 9369TIP3   OH249521   0.682   0.692   3.578 -0.6432  0.4502 -0.2451
 9369TIP3    H149522   0.675   0.774   3.529 -1.3485 -1.0333 -2.7610
 9369TIP3    H249523   0.591   0.666   3.594 -0.4217  0.3180  0.8646
 9370TIP3   OH249524   2.385   3.007  13.124 -0.1836 -0.6925  0.3431
 9370TIP3    H149525   2.375   3.069  13.052  0.3408 -0.4060  0.5097
 9370TIP3    H249526   2.350   2.925  13.091  0.2293 -0.6096 -0.3021
 9371TIP3   OH249527   4.375   0.951  13.831 -0.0102 -0.4544 -0.2451
 9371TIP3    H149528   4.420   1.001  13.763  0.8511 -1.1346 -0.1894
 9371TIP3    H249529   4.439   0.887  13.861 -0.1832  0.2006  1.6191
 9372TIP3   OH249530   0.125   2.350   3.027  0.3379  0.6301  0.3907
 9372TIP3    H149531   0.100   2.412   3.095  2.2851  1.1554  0.6776
 9372TIP3    H249532   0.217   2.331   3.044  0.2680 -0.9404 -0.7931
 9373TIP3   OH249533   1.956   3.847  15.713  0.1095  0.1469 -0.3568
 9373TIP3    H149534   2.031   3.805  15.755 -0.1755  0.3753  0.3945
 9373TIP3    H249535   1.983   3.937  15.697  0.4592 -0.1147 -1.2993
 9374TIP3   OH249536   1.084   3.990   0.147  0.2641  0.3649 -0.0684
 9374TIP3    H149537   1.035   4.041   0.211  0.9614 -0.0417  0.8100
 9374TIP3    H249538   1.169   3.975   0.188  0.0632 -1.5605 -0.2559
 9375TIP3   OH249539   4.841   3.449  14.751  0.0279 -0.0970  0.4118
 9375TIP3    H149540   4.898   3.402  14.690  0.0644 -1.7820  1.6903
 9375TIP3    H249541   4.762   3.396  14.755 -1.1958  1.5781 -0.4116
 9376TIP3   OH249542   6.051   0.850  15.467 -0.7104  0.4422  0.4130
 9376TIP3    H149543   5.990   0.803  15.524 -0.8231  1.2059  0.9230
 9376TIP3    H249544   6.007   0.850  15.381 -1.4828  1.0703  0.7975
 9377TIP3   OH249545   5.172   0.290  14.436  0.1019  0.2929  0.0998
 9377TIP3    H149546   5.117   0.231  14.383  1.6023 -1.3311  0.2538
 9377TIP3    H249547   5.150   0.378  14.405 -3.1248 -0.1917  0.7095
 9378TIP3   OH249548   1.543   4.229  17.200  0.1944  0.3290  0.0361
 9378TIP3    H149549   1.566   4.237  17.107  0.6869 -3.2950 -0.2676
 9378TIP3    H249550   1.448   4.221  17.200  0.1836  0.4262 -0.1230
 9379TIP3   OH249551   1.344   6.706  13.693  0.3305  0.1531 -0.2215
 9379TIP3    H149552   1.292   6.705  13.612 -1.2090  0.1283  0.7335
 9379TIP3    H249553   1.419   6.762  13.672  0.0523  0.0099 -1.7184
 9380TIP3   OH249554   2.954   3.951  15.119 -0.0858  0.1099  0.3242
 9380TIP3    H149555   2.900   3.945  15.041 -1.2856  0.4365  1.0965
 9380TIP3    H249556   2.911   4.017  15.173  0.9236  0.1576  1.0993
 9381TIP3   OH249557   0.338   2.211  15.125 -0.4461 -0.2204  0.0119
 9381TIP3    H149558   0.248   2.180  15.119  0.0356 -1.7847  0.6504
 9381TIP3    H249559   0.374   2.170  15.203  1.0672 -0.2459 -0.6591
 9382TIP3   OH249560   6.571   0.734   2.276  0.3398  0.6426  0.4132
 9382TIP3    H149561   6.615   0.819   2.274  0.7393  0.4728 -2.0114
 9382TIP3    H249562   6.480   0.753   2.253  0.3303  0.4862  0.3141
 9383TIP3   OH249563   1.773   5.354   2.369  0.5571  0.2562 -0.3345
 9383TIP3    H149564   1.857   5.401   2.371  0.3183  0.6718  0.4147
 9383TIP3    H249565   1.737   5.367   2.457 -0.4303  0.3240 -0.7405
 9384TIP3   OH249566   0.202   4.767   4.519  0.0507  0.2337 -0.2336
 9384TIP3    H149567   0.282   4.805   4.555 -1.7419  0.5777  4.0241
 9384TIP3    H249568   0.227   4.677   4.495  1.8186  0.4575  0.6165
 9385TIP3   OH249569   3.240   6.528   1.281 -0.0376 -0.0294  0.0875
 9385TIP3    H149570   3.324   6.486   1.300  0.0345  0.8712  2.0098
 9385TIP3    H249571   3.183   6.503   1.354 -0.8669  0.8872 -0.2194
 9386TIP3   OH249572   1.840   5.427  16.698 -0.9352 -0.1650  0.4870
 9386TIP3    H149573   1.925   5.398  16.665 -0.9499 -1.3552  1.3998
 9386TIP3    H249574   1.776   5.384  16.641 -0.9509  0.9073 -0.3393
 9387TIP3   OH249575   4.736   5.672  16.363 -0.0629  0.2782  0.0981
 9387TIP3    H149576   4.828   5.655  16.346 -0.4586 -0.4715 -1.4711
 9387TIP3    H249577   4.708   5.731  16.293 -0.5975  1.1877  1.0383
 9388TIP3   OH249578   1.838   1.736   3.755  0.2460 -0.5430 -0.3585
 9388TIP3    H149579   1.774   1.670   3.783  0.2270 -0.2897  0.1991
 9388TIP3    H249580   1.921   1.688   3.749  0.3706 -0.4879  0.7026
 9389TIP3   OH249581   1.034   4.585  14.040 -0.0452  1.1535 -0.4033
 9389TIP3    H149582   1.045   4.667  13.992  1.3139 -0.0024 -2.2397
 9389TIP3    H249583   1.093   4.524  13.996  1.1376 -0.1094  2.6632
 9390TIP3   OH249584   4.901   2.470  16.155 -0.0180 -0.2454  0.4070
 9390TIP3    H149585   4.947   2.545  16.117 -0.2726 -0.0760  0.4288
 9390TIP3    H249586   4.809   2.484  16.131 -0.5352  0.9498  2.7415
 9391TIP3   OH249587   3.420   3.221  17.284  0.1054  0.4486  0.2316
 9391TIP3    H149588   3.343   3.249  17.235  1.0070  1.5287 -0.6343
 9391TIP3    H249589   3.406   3.128  17.301 -0.2262  0.0054 -2.1206
 9392TIP3   OH249590   0.549   5.585  15.423  0.3720  0.1033 -0.2640
 9392TIP3    H149591   0.575   5.670  15.457  2.5501 -0.1262 -1.1762
 9392TIP3    H249592   0.552   5.596  15.328  0.3716 -0.8921 -0.3883
 9393TIP3   OH249593   2.233   5.758  12.332  0.3587 -0.4611  0.7070
 9393TIP3    H149594   2.297   5.711  12.279 -0.6740 -0.4563 -0.6037
 9393TIP3    H249595   2.202   5.829  12.275 -0.5283 -0.2316  1.4399
 9394TIP3   OH249596   3.406   1.520  14.889  0.2559 -0.4557  0.1326
 9394TIP3    H149597   3.324   1.567  14.873  0.8303  0.3357 -0.5509
 9394TIP3    H249598   3.461   1.582  14.936  1.3516 -0.0771 -1.5471
 9395TIP3   OH249599   0.427   5.808  11.305 -0.1754  0.1531 -0.3775
 9395TIP3    H149600   0.468   5.864  11.240  0.9546  0.4538  0.5450
 9395TIP3    H249601   0.412   5.865  11.381 -1.7683 -0.1072 -0.4667
 9396TIP3   OH249602   3.165   4.583  12.436 -0.0602  0.3766 -0.5798
 9396TIP3    H149603   3.171   4.489  12.454  0.0711  0.1433 -1.7523
 9396TIP3    H249604   3.190   4.591  12.344  0.6434  1.6474 -0.3024
 9397TIP3   OH249605   1.538   5.816  12.200  0.0513 -0.4544 -0.4919
 9397TIP3    H149606   1.466   5.770  12.242 -3.8629  3.0288 -2.7338
 9397TIP3    H249607   1.559   5.888  12.260  0.9191 -0.7811 -0.3881
 9398TIP3   OH249608   2.981   0.935  13.676 -0.4136  0.3073  0.1569
 9398TIP3    H149609   2.889   0.945  13.699 -0.1702  1.4538  0.7260
 9398TIP3    H249610   3.029   0.958  13.756  0.3674 -0.0053 -0.2049
 9399TIP3   OH249611   5.889   2.974  12.228  0.1608  0.0922 -0.2442
 9399TIP3    H149612   5.949   3.044  12.203  1.5888 -0.9288  0.1525
 9399TIP3    H249613   5.809   3.019  12.255  0.7079  1.5015 -0.8679
 9400TIP3   OH249614   6.064   2.818  16.147 -0.4326 -0.2144 -0.2104
 9400TIP3    H149615   6.005   2.853  16.214  0.4463  0.1358  0.3942
 9400TIP3    H249616   6.005   2.780  16.081 -1.3694  0.9794 -0.1003
 9401TIP3   OH249617   6.507   4.664   0.675  0.7848 -0.1881  0.0940
 9401TIP3    H149618   6.431   4.718   0.696  0.5419 -0.2143 -0.6772
 9401TIP3    H249619   6.505   4.594   0.740 -1.6807 -1.9691 -1.6995
 9402TIP3   OH249620   2.000   5.408  12.434  0.0694  0.5924  0.6444
 9402TIP3    H149621   1.981   5.390  12.342 -0.2060  1.4908  0.5134
 9402TIP3    H249622   2.073   5.470  12.431  0.6923 -0.1087  1.0631
 9403TIP3   OH249623   6.414   5.811   1.700  0.5153 -0.0890 -0.5452
 9403TIP3    H149624   6.402   5.825   1.794  1.1397 -1.9330 -0.1541
 9403TIP3    H249625   6.493   5.861   1.679  1.5227 -1.2304  0.3586
 9404TIP3   OH249626   1.497   6.235   0.312  0.0493 -0.4222 -0.1193
 9404TIP3    H149627   1.506   6.179   0.234  0.2291 -0.1327 -0.3070
 9404TIP3    H249628   1.520   6.323   0.281  0.1102 -0.3040  0.2582
 9405TIP3   OH249629   2.926   1.296   4.560 -0.1636  0.8820  0.2887
 9405TIP3    H149630   2.994   1.229   4.556 -2.5451 -1.7693  1.2644
 9405TIP3    H249631   2.902   1.311   4.469 -0.8100 -0.9972  0.1085
 9406TIP3   OH249632   3.458   6.506   3.745 -0.4546  0.8748  0.3870
 9406TIP3    H149633   3.447   6.543   3.832  0.2934 -0.2028  0.9549
 9406TIP3    H249634   3.496   6.420   3.759 -1.5235  0.1499 -0.9430
 9407TIP3   OH249635   2.617   3.690  17.369 -0.2015  0.6687  0.3723
 9407TIP3    H149636   2.632   3.723  17.458 -0.0987  0.4357  0.4411
 9407TIP3    H249637   2.561   3.613  17.381  0.4922  0.1388  0.3097
 9408TIP3   OH249638   4.198   0.471   4.311  0.2679 -0.7430 -0.2743
 9408TIP3    H149639   4.260   0.406   4.278  1.6793  0.0240  0.7697
 9408TIP3    H249640   4.184   0.446   4.402  0.7076  0.2922  0.0954
 9409TIP3   OH249641   3.490   4.265  14.137 -0.0222 -0.4707 -0.1552
 9409TIP3    H149642   3.423   4.307  14.083  1.1200  1.0903 -0.4271
 9409TIP3    H249643   3.490   4.315  14.219  2.4542  1.2223 -1.0775
 9410TIP3   OH249644   3.158   1.073  13.172  0.4257  0.2641  0.1936
 9410TIP3    H149645   3.090   1.022  13.126  1.8189 -0.1470 -1.5128
 9410TIP3    H249646   3.136   1.064  13.264 -0.9253 -1.1956 -0.2225
 9411TIP3   OH249647   5.742   0.772  14.695 -0.1931  0.3217 -0.6997
 9411TIP3    H149648   5.794   0.721  14.633 -0.1503 -0.2901 -0.1752
 9411TIP3    H249649   5.767   0.863  14.680  2.7488 -0.0740  1.0856
 9412TIP3   OH249650   2.648   1.518  16.608 -0.2540 -0.4735  0.3195
 9412TIP3    H149651   2.615   1.607  16.624 -1.0542 -0.7602  0.3380
 9412TIP3    H249652   2.645   1.508  16.513  2.9648  0.6562 -0.0058
 9413TIP3   OH249653   4.787   0.812  12.968 -0.3904  0.6229  0.3552
 9413TIP3    H149654   4.793   0.907  12.970  1.1467  0.5472  0.9202
 9413TIP3    H249655   4.754   0.792  12.881  0.8978  1.6352 -0.4045
 9414TIP3   OH249656   6.188   5.294  17.422  0.7049  0.7900 -0.6855
 9414TIP3    H149657   6.198   5.205  17.389  1.4987  1.0887 -1.2858
 9414TIP3    H249658   6.259   5.303  17.486  2.2875  1.8085 -2.4844
 9415TIP3   OH249659   3.093   2.680   1.942 -0.1961 -0.0534 -0.2854
 9415TIP3    H149660   3.095   2.697   2.036 -1.6068 -0.9852 -0.0557
 9415TIP3    H249661   3.134   2.594   1.932 -0.1017  0.0174 -0.5206
 9416TIP3   OH249662   6.310   5.630   3.548  0.3793 -0.1073 -0.1268
 9416TIP3    H149663   6.339   5.687   3.620 -0.8639 -1.0105  1.1330
 9416TIP3    H249664   6.333   5.679   3.469  1.2001  1.2175  0.8753
 9417TIP3   OH249665   2.988   4.325   6.680 -0.0303  0.1211 -0.4522
 9417TIP3    H149666   2.937   4.403   6.657 -0.9481 -0.4341 -0.3418
 9417TIP3    H249667   2.925   4.266   6.720  1.1977  0.4634  2.1971
 9418TIP3   OH249668   4.069   1.411   5.494  0.9719  0.6520  0.5692
 9418TIP3    H149669   4.072   1.456   5.410  0.4579 -0.7421 -0.2287
 9418TIP3    H249670   4.161   1.398   5.517  1.1480 -0.2432 -0.5238
 9419TIP3   OH249671   0.318   5.826  11.707  0.0392 -0.1974 -0.1209
 9419TIP3    H149672   0.357   5.904  11.665 -0.8071  1.7470  2.4437
 9419TIP3    H249673   0.228   5.824  11.673 -0.1400  0.3680  0.3020
 9420TIP3   OH249674   3.143   5.032   1.160 -0.0121 -0.1623 -0.5715
 9420TIP3    H149675   3.058   5.074   1.151  0.3600  0.9048  0.5734
 9420TIP3    H249676   3.124   4.939   1.171 -1.1392  0.2405  1.2396
 9421TIP3   OH249677   4.631   1.474   4.173  0.3211 -0.1979  0.1161
 9421TIP3    H149678   4.586   1.541   4.224 -0.0839  0.2131 -0.7625
 9421TIP3    H249679   4.652   1.405   4.236  0.2569  0.5104  0.9197
 9422TIP3   OH249680   1.561   1.043  16.492 -0.5255  0.3324 -0.2071
 9422TIP3    H149681   1.646   1.048  16.448 -0.8365  0.6216 -0.7893
 9422TIP3    H249682   1.514   0.973  16.445 -0.5534  0.0702  0.2088
 9423TIP3   OH249683   2.763   2.193  17.367 -0.2809  0.0524  0.1199
 9423TIP3    H149684   2.680   2.146  17.374  0.5705 -1.7518 -1.0920
 9423TIP3    H249685   2.771   2.214  17.274  0.8898 -0.3703  0.1053
 9424TIP3   OH249686   4.990   2.768   1.269  0.4074  0.2491  0.2031
 9424TIP3    H149687   5.063   2.782   1.329  1.1109  1.8204 -0.9617
 9424TIP3    H249688   4.960   2.855   1.246 -1.9419 -0.3625  0.7218
 9425TIP3   OH249689   0.512   1.933  12.458 -0.4591 -0.4880  0.0864
 9425TIP3    H149690   0.458   1.971  12.528 -0.6384  0.3131 -0.4755
 9425TIP3    H249691   0.455   1.931  12.382 -0.0325 -0.6625 -0.2294
 9426TIP3   OH249692   1.708   0.470   4.327  0.7503 -0.1326 -0.2887
 9426TIP3    H149693   1.781   0.516   4.370 -0.6139  0.7961  1.1393
 9426TIP3    H249694   1.676   0.533   4.263 -0.3566  0.5103  0.8414
 9427TIP3   OH249695   6.241   5.080   3.480 -0.1390  0.6410 -0.5936
 9427TIP3    H149696   6.163   5.076   3.537  0.0943 -1.0791 -0.3425
 9427TIP3    H249697   6.247   5.172   3.455  0.3759  1.7571  3.0604
 9428TIP3   OH249698   0.387   6.265  15.689 -0.0559 -0.3034  0.3167
 9428TIP3    H149699   0.374   6.359  15.699 -0.4420 -0.4785  1.5885
 9428TIP3    H249700   0.339   6.243  15.609 -0.3641  0.4943  0.2693
 9429TIP3   OH249701   4.974   0.399   4.400  0.0411 -0.2947  0.0144
 9429TIP3    H149702   4.996   0.306   4.394 -0.5036 -0.4817  0.8723
 9429TIP3    H249703   4.916   0.406   4.475  0.2325  0.7726  0.0836
 9430TIP3   OH249704   2.080   4.654  11.818  0.2078 -0.1979 -0.5728
 9430TIP3    H149705   1.999   4.613  11.846 -0.4012  1.0244 -0.4789
 9430TIP3    H249706   2.073   4.745  11.848  1.5583 -0.0324 -0.6552
 9431TIP3   OH249707   0.112   1.023  14.419 -0.5172  0.2570 -0.4832
 9431TIP3    H149708   0.017   1.010  14.430 -0.6916  2.1889  0.7879
 9431TIP3    H249709   0.119   1.073  14.337 -0.5179 -0.5445 -0.9806
 9432TIP3   OH249710   4.364   6.705   2.252 -0.2133 -0.1314 -0.2044
 9432TIP3    H149711   4.270   6.722   2.242 -0.3324 -0.2006  0.6511
 9432TIP3    H249712   4.380   6.719   2.346  1.1941  2.6110 -0.7647
 9433TIP3   OH249713   3.050   5.497   3.942  0.5067  0.4867  0.0199
 9433TIP3    H149714   3.101   5.421   3.968  0.4492  0.6203  0.5455
 9433TIP3    H249715   3.060   5.503   3.847  0.6562 -0.0680  0.0025
 9434TIP3   OH249716   2.183   1.276  10.711  0.6510  0.1603 -0.4369
 9434TIP3    H149717   2.214   1.343  10.650 -0.6828  0.1910 -1.1167
 9434TIP3    H249718   2.259   1.222  10.728  1.6482  1.5721 -0.2387
 9435TIP3   OH249719   5.943   6.529   6.212  0.3453 -0.3002 -0.1898
 9435TIP3    H149720   5.897   6.510   6.294  1.9146  0.2748  0.8751
 9435TIP3    H249721   5.874   6.529   6.145 -1.0436 -0.3714  1.1853
 9436TIP3   OH249722   5.062   5.948   1.237  0.1124  0.6257 -0.0919
 9436TIP3    H149723   4.968   5.965   1.251 -0.2717 -1.6359  0.5131
 9436TIP3    H249724   5.101   6.035   1.227 -2.2455  1.6000 -1.7911
 9437TIP3   OH249725   0.942   5.491   5.496 -0.0517 -0.1124  0.2233
 9437TIP3    H149726   0.850   5.482   5.521  0.6508  0.3088  3.3862
 9437TIP3    H249727   0.990   5.489   5.578  2.8654 -0.7647 -1.3341
 9438TIP3   OH249728   4.676   4.240   5.268  0.0131 -0.0120 -0.3037
 9438TIP3    H149729   4.671   4.292   5.188 -0.6472  0.1606 -0.1614
 9438TIP3    H249730   4.663   4.304   5.339 -1.0488 -0.3938 -0.1356
 9439TIP3   OH249731   3.894   1.798  12.484  0.4604 -0.2619  0.4024
 9439TIP3    H149732   3.904   1.873  12.426  0.6911 -1.6543 -1.4589
 9439TIP3    H249733   3.984   1.777  12.511  0.5801 -0.7857 -0.3554
 9440TIP3   OH249734   1.584   6.099  12.045  0.2004  0.3696  0.0234
 9440TIP3    H149735   1.503   6.067  12.005  0.2157 -0.3934  0.5879
 9440TIP3    H249736   1.607   6.032  12.109  1.0271  0.8141  0.1988
 9441TIP3   OH249737   1.856   6.306  15.898  0.3190  0.0166 -0.3432
 9441TIP3    H149738   1.862   6.261  15.982 -0.2495  1.2057  0.3628
 9441TIP3    H249739   1.821   6.241  15.838 -0.6331 -0.4551  0.6866
 9442TIP3   OH249740   6.475   5.963  13.350  0.4467 -0.2409  0.1298
 9442TIP3    H149741   6.443   5.876  13.327 -0.5985  0.2688 -0.3965
 9442TIP3    H249742   6.570   5.956  13.343  0.3670 -1.3090 -0.0119
 9443TIP3   OH249743   1.358   2.050   0.376  0.4052 -0.8752  0.3554
 9443TIP3    H149744   1.437   2.004   0.349  0.9718 -0.5217  1.3857
 9443TIP3    H249745   1.326   2.001   0.451  0.2750 -0.3575  0.6393
 9444TIP3   OH249746   6.447   2.360  16.728  0.2704  0.3591 -0.1676
 9444TIP3    H149747   6.436   2.447  16.767  0.4305  0.0519  0.5845
 9444TIP3    H249748   6.512   2.317  16.784  0.6130 -0.0517 -0.8617
 9445TIP3   OH249749   4.936   0.116  13.370 -0.1332 -0.6581 -0.2611
 9445TIP3    H149750   5.010   0.056  13.366  1.3970  1.1484 -0.7027
 9445TIP3    H249751   4.908   0.126  13.279  1.5953  1.4709 -0.6800
 9446TIP3   OH249752   2.682   5.120  15.654  0.3683 -0.0118 -0.3352
 9446TIP3    H149753   2.695   5.215  15.656 -1.0501  0.2100 -0.4479
 9446TIP3    H249754   2.700   5.095  15.563  0.7408  0.1525 -0.3064
 9447TIP3   OH249755   6.596   2.355   2.437 -0.8407  0.5624 -0.6248
 9447TIP3    H149756   6.626   2.425   2.496  2.1508 -0.9512 -0.1761
 9447TIP3    H249757   6.510   2.332   2.471 -0.3782  1.6123  1.4668
 9448TIP3   OH249758   2.368   5.543   1.542 -0.0339  0.0262 -0.1083
 9448TIP3    H149759   2.375   5.466   1.598  0.7474  1.2723  1.6097
 9448TIP3    H249760   2.279   5.539   1.506 -1.0940 -0.1338  2.3274
 9449TIP3   OH249761   5.209   4.291  17.262 -0.0740  0.1337 -0.5942
 9449TIP3    H149762   5.149   4.221  17.235  0.7153  0.0856 -2.4089
 9449TIP3    H249763   5.202   4.356  17.192  2.5697 -0.2688 -1.3763
 9450TIP3   OH249764   2.779   4.860   4.501 -0.0918  0.1301 -0.2427
 9450TIP3    H149765   2.758   4.949   4.472  2.9420  1.1620  0.3325
 9450TIP3    H249766   2.780   4.866   4.597 -0.3602 -0.6771 -0.1852
 9451TIP3   OH249767   6.480   2.659   2.217  0.1556  0.2210 -0.5446
 9451TIP3    H149768   6.480   2.690   2.126 -0.3881  0.3013 -0.5205
 9451TIP3    H249769   6.432   2.726   2.265  0.0479 -0.0496 -0.2730
 9452TIP3   OH249770   6.543   6.179  13.945  0.2917 -0.2454 -0.8626
 9452TIP3    H149771   6.481   6.252  13.944 -2.1561 -2.1746 -0.3705
 9452TIP3    H249772   6.611   6.206  14.008 -0.7938  1.3877 -0.3130
 9453TIP3   OH249773   0.798   2.247   2.119  0.3613 -0.6845 -0.1433
 9453TIP3    H149774   0.802   2.197   2.038  0.7096 -0.6861 -0.1296
 9453TIP3    H249775   0.874   2.306   2.114  1.2380 -1.6783  0.8199
 9454TIP3   OH249776   3.791   3.243   0.640  0.0552 -0.8062 -0.1487
 9454TIP3    H149777   3.722   3.218   0.702  1.0100 -1.3597  0.7214
 9454TIP3    H249778   3.767   3.198   0.559 -1.0826 -0.2689 -0.1299
 9455TIP3   OH249779   0.182   1.561   5.084 -0.2566 -0.0455 -0.3375
 9455TIP3    H149780   0.238   1.581   5.010 -0.5245  0.3648 -0.4351
 9455TIP3    H249781   0.240   1.523   5.150  0.1485  0.4474 -0.4067
 9456TIP3   OH249782   4.551   0.266  12.194 -0.1145  0.6687  0.4268
 9456TIP3    H149783   4.496   0.211  12.138 -0.2517  0.8858  0.3463
 9456TIP3    H249784   4.619   0.300  12.135  1.0244 -0.7988  0.8268
 9457TIP3   OH249785   5.461   0.352  12.603  0.1952 -0.0825 -0.5713
 9457TIP3    H149786   5.431   0.410  12.673 -2.0236 -0.5134 -1.1046
 9457TIP3    H249787   5.477   0.411  12.529 -0.2466  0.0589 -0.5573
 9458TIP3   OH249788   3.680   3.951  14.545  0.1179  0.0721  0.4732
 9458TIP3    H149789   3.774   3.937  14.553 -0.0486 -1.1616  0.4523
 9458TIP3    H249790   3.671   4.010  14.470  0.8787  0.3257  0.5767
 9459TIP3   OH249791   3.901   5.287  10.663 -0.0090  0.5212 -0.5514
 9459TIP3    H149792   3.964   5.359  10.669 -0.3873  0.7860  0.3992
 9459TIP3    H249793   3.816   5.330  10.664 -0.2205  0.1818 -2.0830
 9460TIP3   OH249794   0.785   4.435   6.496 -0.2628  0.0424  0.3623
 9460TIP3    H149795   0.730   4.497   6.545  1.4928 -0.6721  3.4736
 9460TIP3    H249796   0.746   4.350   6.515  0.0189 -0.2029 -0.1525
 9461TIP3   OH249797   6.247   2.879  14.558  0.3369  0.4665 -0.0437
 9461TIP3    H149798   6.323   2.937  14.554  0.7818 -0.0420  0.7478
 9461TIP3    H249799   6.224   2.876  14.651  0.7950 -1.2107  0.0395
 9462TIP3   OH249800   1.749   6.330  17.277  0.8554 -0.2295  0.2908
 9462TIP3    H149801   1.829   6.330  17.224 -0.8174  0.1960 -2.4396
 9462TIP3    H249802   1.684   6.285  17.222 -1.2223  0.9540  1.6331
 9463TIP3   OH249803   2.827   3.775   0.771  0.2939 -0.3774  0.1119
 9463TIP3    H149804   2.839   3.697   0.826 -2.0627 -0.6998  0.2958
 9463TIP3    H249805   2.758   3.750   0.709  0.1510  1.2524 -0.4418
 9464TIP3   OH249806   0.697   1.588   1.503 -0.5287  0.4460  0.2759
 9464TIP3    H149807   0.749   1.663   1.476  0.1771 -0.8621 -2.2418
 9464TIP3    H249808   0.613   1.600   1.459 -1.5268  1.2027  2.2449
 9465TIP3   OH249809   5.234   0.058  12.785  0.4228 -0.6305 -0.2598
 9465TIP3    H149810   5.168   0.017  12.840  0.3609  1.1513  1.0945
 9465TIP3    H249811   5.310   0.069  12.842  0.1731  1.7586 -0.2787
 9466TIP3   OH249812   5.585   4.233  13.406  0.2313 -0.4585  0.3361
 9466TIP3    H149813   5.552   4.302  13.349 -1.4512  1.2413  3.0829
 9466TIP3    H249814   5.507   4.200  13.451  1.3439 -2.2950  1.0416
 9467TIP3   OH249815   0.585   1.523   4.246  0.0016 -0.5665 -0.0416
 9467TIP3    H149816   0.655   1.478   4.199  1.0898  1.3086 -0.2901
 9467TIP3    H249817   0.509   1.515   4.189  0.5549 -0.7964 -0.7637
 9468TIP3   OH249818   4.820   6.232   4.434  0.1376  0.1029 -0.1026
 9468TIP3    H149819   4.787   6.251   4.522  0.7928 -0.9188  0.3958
 9468TIP3    H249820   4.915   6.222   4.446  0.5393  2.0163 -1.3223
 9469TIP3   OH249821   4.222   1.420  15.665  0.8389 -0.1469 -0.0689
 9469TIP3    H149822   4.270   1.500  15.645  1.7865 -0.6413  0.1958
 9469TIP3    H249823   4.141   1.428  15.614  1.3722  0.5046 -0.8415
 9470TIP3   OH249824   5.262   1.326   3.006  0.1973  0.1747 -0.3561
 9470TIP3    H149825   5.244   1.245   3.054 -0.9410  1.5118  1.6114
 9470TIP3    H249826   5.206   1.320   2.929 -2.9409  0.6880  1.6992
 9471TIP3   OH249827   4.593   5.544   2.144 -0.2188 -0.1217 -0.2944
 9471TIP3    H149828   4.522   5.485   2.118 -0.8312 -0.5773  2.2140
 9471TIP3    H249829   4.608   5.526   2.237 -0.2622  3.5020  0.5684
 9472TIP3   OH249830   2.262   3.713   2.547  0.1736  0.3794  0.4151
 9472TIP3    H149831   2.353   3.692   2.571  0.5741  0.7581 -0.7012
 9472TIP3    H249832   2.262   3.808   2.536 -0.2320  0.3175 -0.1213
 9473TIP3   OH249833   1.080   1.891  16.101  0.0380 -0.1037 -0.1674
 9473TIP3    H149834   1.072   1.955  16.030 -1.2714 -1.8971 -1.7495
 9473TIP3    H249835   1.172   1.864  16.099 -0.1735 -0.8178 -1.8812
 9474TIP3   OH249836   3.299   3.622  14.453  0.0022 -0.5008  0.0155
 9474TIP3    H149837   3.241   3.697  14.439 -0.0152 -0.8636 -2.2205
 9474TIP3    H249838   3.320   3.625  14.547  1.3713  3.2651 -0.2546
 9475TIP3   OH249839   2.420   0.132   5.154  0.3470 -0.0950 -0.0534
 9475TIP3    H149840   2.404   0.168   5.067  1.0588  1.1396  0.3015
 9475TIP3    H249841   2.501   0.174   5.183  1.2425 -2.0381  0.3934
 9476TIP3   OH249842   6.661   1.880  13.942  0.1116 -0.5896  0.0090
 9476TIP3    H149843   6.725   1.829  13.994  1.1913  0.5305 -0.1805
 9476TIP3    H249844   6.598   1.815  13.912  0.3048 -1.5076  1.4756
 9477TIP3   OH249845   3.035   6.236  16.961  0.4309  0.2219  0.3675
 9477TIP3    H149846   2.960   6.276  16.916  0.4545 -0.3788 -0.2218
 9477TIP3    H249847   3.094   6.309  16.978 -0.3369  0.7286  0.9487
 9478TIP3   OH249848   3.540   2.235   5.688 -0.0637  0.2215  0.4156
 9478TIP3    H149849   3.512   2.244   5.597  1.6910  0.6192 -0.1236
 9478TIP3    H249850   3.475   2.285   5.738  0.2389  2.0320 -0.8766
 9479TIP3   OH249851   4.872   6.140  14.340 -0.4552  0.3528  0.6478
 9479TIP3    H149852   4.779   6.158  14.354  0.0816  1.4027  3.5353
 9479TIP3    H249853   4.914   6.168  14.421  2.2060 -1.6515  0.0929
 9480TIP3   OH249854   3.646   3.830   0.987 -0.6567 -0.2482 -0.6460
 9480TIP3    H149855   3.564   3.783   0.976  1.1320 -4.2292  1.0289
 9480TIP3    H249856   3.693   3.819   0.904 -0.8667  0.0120 -0.8012
 9481TIP3   OH249857   4.430   1.076  14.145  0.4782  1.0417 -0.1871
 9481TIP3    H149858   4.441   1.003  14.207  3.0273  1.7453  0.2762
 9481TIP3    H249859   4.452   1.039  14.060  0.3145  0.9214 -0.1790
 9482TIP3   OH249860   0.271   2.241  11.450  0.1679 -0.2347  0.8206
 9482TIP3    H149861   0.351   2.189  11.452  2.3034  2.8021  0.5127
 9482TIP3    H249862   0.231   2.221  11.365  1.3560 -0.7171  0.3632
 9483TIP3   OH249863   5.004   4.206   2.198 -0.8721 -0.3571 -0.4998
 9483TIP3    H149864   4.962   4.148   2.262  0.0016  1.1999  1.5752
 9483TIP3    H249865   5.095   4.176   2.195 -0.7849 -0.0833 -0.5999
 9484TIP3   OH249866   2.499   1.278   3.732  0.0611  0.1101  0.3838
 9484TIP3    H149867   2.580   1.304   3.777 -0.4379 -0.1759  1.4827
 9484TIP3    H249868   2.529   1.223   3.659  0.9103  0.8822  0.1240
 9485TIP3   OH249869   3.087   3.826   0.956 -0.2367 -0.2208 -0.4645
 9485TIP3    H149870   3.013   3.785   0.999 -1.3662  0.8603 -1.3027
 9485TIP3    H249871   3.114   3.897   1.014  0.4295 -0.8841  0.0439
 9486TIP3   OH249872   4.043   4.385  11.544  0.3791  0.3337 -0.4697
 9486TIP3    H149873   4.130   4.421  11.530 -0.1699  1.6887 -0.4971
 9486TIP3    H249874   3.983   4.457  11.524 -0.7351 -0.4546 -0.0741
 9487TIP3   OH249875   2.639   6.241  14.548 -0.2334 -0.4595 -0.4690
 9487TIP3    H149876   2.681   6.170  14.597  0.2942  0.1437 -0.0364
 9487TIP3    H249877   2.701   6.314  14.553 -0.6613 -0.0398 -1.1150
 9488TIP3   OH249878   0.596   3.154   2.161 -0.7062 -0.0950  0.7142
 9488TIP3    H149879   0.531   3.175   2.228 -2.2392  0.3359 -0.8498
 9488TIP3    H249880   0.550   3.163   2.078  1.0383 -0.9547 -0.4219
 9489TIP3   OH249881   3.696   4.118   4.573 -0.1709  0.6426 -0.8356
 9489TIP3    H149882   3.754   4.160   4.637 -0.7395  0.7606 -0.3972
 9489TIP3    H249883   3.653   4.190   4.528 -1.1440  0.5416 -0.0873
 9490TIP3   OH249884   6.263   2.017  11.662  0.4755  0.4182  0.2130
 9490TIP3    H149885   6.310   2.038  11.743 -0.3888  0.4622  0.7119
 9490TIP3    H249886   6.282   2.090  11.603  1.0747  0.4074  0.3876
 9491TIP3   OH249887   5.562   0.305  15.395 -0.1997  0.0397 -0.1604
 9491TIP3    H149888   5.514   0.231  15.434 -0.3738 -1.1204 -2.4352
 9491TIP3    H249889   5.529   0.382  15.442 -1.6200 -1.0954  0.7988
 9492TIP3   OH249890   4.081   4.181   0.857  0.1041 -0.7285  0.2541
 9492TIP3    H149891   4.074   4.121   0.782  1.9697  1.3016 -1.7127
 9492TIP3    H249892   3.998   4.228   0.858 -0.0985 -1.0596 -0.3235
 9493TIP3   OH249893   1.495   2.376  12.304  0.5467 -0.0791  0.0299
 9493TIP3    H149894   1.413   2.329  12.318  0.5169  0.0334  0.2404
 9493TIP3    H249895   1.471   2.469  12.310  0.2258  0.0565 -2.3831
 9494TIP3   OH249896   5.210   5.927  11.824  0.0184  0.1015 -0.3307
 9494TIP3    H149897   5.284   5.874  11.855 -1.4281 -1.2410  1.0460
 9494TIP3    H249898   5.249   6.011  11.802  1.9996 -0.6359  0.0808
 9495TIP3   OH249899   6.665   6.491  12.921  0.1536 -0.4057 -0.4669
 9495TIP3    H149900   6.702   6.521  12.838  1.1673  0.7524  0.3760
 9495TIP3    H249901   6.741   6.462  12.971 -0.3174 -0.0130  0.4916
 9496TIP3   OH249902   4.125   3.153  15.656 -0.9261  0.2708 -0.5864
 9496TIP3    H149903   4.123   3.093  15.582  2.2079 -2.0615  0.9588
 9496TIP3    H249904   4.053   3.126  15.712  0.7745 -2.7498  0.3781
 9497TIP3   OH249905   3.892   2.211  13.015 -0.1423 -0.1765  0.3913
 9497TIP3    H149906   3.874   2.279  12.950  0.2982  0.8070  1.2585
 9497TIP3    H249907   3.817   2.214  13.075  0.3348  0.2390  0.9836
 9498TIP3   OH249908   4.086   2.647   3.748  0.4556  0.1449  0.0561
 9498TIP3    H149909   3.993   2.654   3.727  0.2157 -0.6535  0.8117
 9498TIP3    H249910   4.091   2.581   3.818  1.7906 -1.3362 -1.3413
 9499TIP3   OH249911   0.017   0.783  14.710  0.1608 -0.3568  0.2201
 9499TIP3    H149912   0.099   0.795  14.756  0.8568  0.7383 -1.2068
 9499TIP3    H249913  -0.049   0.826  14.765  1.0322  1.2890  0.0408
 9500TIP3   OH249914   2.441   1.169   1.788 -0.4463  0.4441  0.3816
 9500TIP3    H149915   2.494   1.222   1.729  0.1270 -2.2920 -1.8117
 9500TIP3    H249916   2.351   1.185   1.759 -0.4209  1.2697  0.7267
 9501TIP3   OH249917   3.934   3.442  13.628  0.4414 -0.1839 -0.2938
 9501TIP3    H149918   3.970   3.416  13.543 -0.4256  0.2334 -0.7997
 9501TIP3    H249919   3.856   3.492  13.607  0.4182  0.2462  0.7496
 9502TIP3   OH249920   2.596   5.711   4.345 -0.1008 -0.0042 -0.6813
 9502TIP3    H149921   2.508   5.689   4.377  0.5325 -1.4061  0.1798
 9502TIP3    H249922   2.620   5.637   4.289  1.3029 -0.6150  0.6836
 9503TIP3   OH249923   6.448   6.704  14.977 -0.4224  0.4537 -0.5233
 9503TIP3    H149924   6.361   6.682  15.012  0.2532 -1.2942  0.1771
 9503TIP3    H249925   6.509   6.680  15.047  0.6110  2.7950 -0.5128
 9504TIP3   OH249926   2.673   5.946  13.500 -0.1611 -0.2377 -0.6166
 9504TIP3    H149927   2.741   6.008  13.474  0.7297 -1.1490 -0.5025
 9504TIP3    H249928   2.721   5.869  13.531 -1.1792  0.0177  1.8639
 9505TIP3   OH249929   5.496   2.672  15.793 -0.0703 -0.0026  0.3797
 9505TIP3    H149930   5.543   2.645  15.714 -1.1771  2.1433 -1.1242
 9505TIP3    H249931   5.404   2.651  15.775 -0.4622  1.3604  0.6338
 9506TIP3   OH249932   1.949   2.382  16.275 -0.3628 -0.2605  1.1807
 9506TIP3    H149933   1.977   2.451  16.336 -0.7553 -0.4527  1.5838
 9506TIP3    H249934   2.013   2.386  16.204  0.6324 -0.6179  2.0390
 9507TIP3   OH249935   3.682   2.477  16.422  0.4504 -0.0625  0.1883
 9507TIP3    H149936   3.645   2.389  16.432  0.0801  0.1717  0.9801
 9507TIP3    H249937   3.705   2.483  16.330  1.2680 -1.3062  0.2796
 9508TIP3   OH249938   3.029   0.628  12.838 -0.5255 -0.0298 -0.1699
 9508TIP3    H149939   3.104   0.685  12.822 -0.4103 -0.7500 -2.8275
 9508TIP3    H249940   2.989   0.618  12.751 -2.1466 -1.7504  0.7155
 9509TIP3   OH249941   1.162   0.737   1.949  0.1712 -0.2689 -0.0186
 9509TIP3    H149942   1.218   0.665   1.979 -0.2287 -0.8155 -0.5458
 9509TIP3    H249943   1.215   0.782   1.883  0.1521 -0.5255 -0.2109
 9510TIP3   OH249944   1.352   6.553  12.084 -0.0125 -0.2527  0.6993
 9510TIP3    H149945   1.287   6.501  12.132 -1.0931  0.1296 -0.3121
 9510TIP3    H249946   1.428   6.496  12.079 -1.2941 -1.9521 -0.7177
 9511TIP3   OH249947   4.127   3.838  11.527  0.6273 -0.3554  0.1812
 9511TIP3    H149948   4.164   3.849  11.440  1.0250  1.2753  0.5226
 9511TIP3    H249949   4.039   3.803  11.512  0.6524  0.0096 -0.8766
 9512TIP3   OH249950   4.481   3.939  13.229  0.1777 -0.0600 -0.0294
 9512TIP3    H149951   4.484   4.002  13.301 -0.9069  1.2757 -1.1032
 9512TIP3    H249952   4.573   3.924  13.206  0.4838  0.3627  0.8634
 9513TIP3   OH249953   4.986   2.884   3.594 -0.1429 -0.8797 -0.7138
 9513TIP3    H149954   4.976   2.808   3.538 -1.4329 -1.2988  0.0565
 9513TIP3    H249955   4.926   2.950   3.558 -1.2398 -1.2709  0.3330
 9514TIP3   OH249956   0.751   4.018  16.050  0.2081  0.8219 -0.6260
 9514TIP3    H149957   0.684   4.000  16.116  0.1799 -1.6479 -1.2403
 9514TIP3    H249958   0.707   4.004  15.966  1.6431 -1.7590 -1.0395
 9515TIP3   OH249959   1.505   3.861  13.213 -0.0892 -0.3028  0.2905
 9515TIP3    H149960   1.433   3.923  13.206 -0.0659 -0.2359  0.6490
 9515TIP3    H249961   1.506   3.816  13.128 -0.2695  0.0040  0.1242
 9516TIP3   OH249962   5.572   1.104  14.782  0.3639 -0.4072 -0.5217
 9516TIP3    H149963   5.532   1.120  14.696 -0.7604 -2.7319 -0.5362
 9516TIP3    H249964   5.498   1.080  14.838  0.9433  1.9971  1.4342
 9517TIP3   OH249965   5.714   4.723   2.598 -0.2406  0.0322  0.0124
 9517TIP3    H149966   5.618   4.721   2.602 -0.2037 -1.5756  0.6584
 9517TIP3    H249967   5.735   4.680   2.515 -0.0766  0.7228 -0.3084
 9518TIP3   OH249968   2.267   1.540  16.285  0.3035 -0.2091  0.1016
 9518TIP3    H149969   2.246   1.483  16.211 -1.3630  0.6234 -0.0978
 9518TIP3    H249970   2.257   1.484  16.362  0.5926 -0.6867 -0.2044
 9519TIP3   OH249971   2.298   3.738   5.929  0.3377  0.0848  0.0338
 9519TIP3    H149972   2.253   3.671   5.981 -1.2543 -0.2437 -1.6645
 9519TIP3    H249973   2.229   3.781   5.880  1.6691  0.9814 -1.1415
 9520TIP3   OH249974   5.408   0.569  12.790  0.2445 -0.2971  0.2662
 9520TIP3    H149975   5.325   0.547  12.748  0.0657  0.6499  0.1008
 9520TIP3    H249976   5.384   0.625  12.863  0.4923 -2.4584  2.1159
 9521TIP3   OH249977   0.883   2.748  11.202  0.0862 -0.0293 -0.5723
 9521TIP3    H149978   0.968   2.735  11.160  1.2198  0.3982  1.4534
 9521TIP3    H249979   0.842   2.818  11.152  1.0437 -0.0606 -1.4368
 9522TIP3   OH249980   1.564   5.489   2.243 -0.3912  0.2973  0.0182
 9522TIP3    H149981   1.538   5.407   2.200  0.0522 -0.8978  1.9089
 9522TIP3    H249982   1.640   5.465   2.297 -0.0694  2.0346  0.4093
 9523TIP3   OH249983   0.699   3.635   0.398 -0.4483  0.5091 -0.4074
 9523TIP3    H149984   0.639   3.595   0.460  0.6966  0.3150  0.6171
 9523TIP3    H249985   0.712   3.569   0.330 -0.0114 -0.1502  0.3027
 9524TIP3   OH249986   2.332   4.577  15.996  0.9339  0.0323  0.4971
 9524TIP3    H149987   2.364   4.524  16.069  0.0912 -0.2104  0.7028
 9524TIP3    H249988   2.253   4.619  16.030 -0.6922 -1.7210 -0.9025
 9525TIP3   OH249989   0.998   5.890   0.346  1.0210  0.3653  0.0490
 9525TIP3    H149990   1.028   5.888   0.437  0.3461 -1.2640  0.2764
 9525TIP3    H249991   1.073   5.922   0.297  1.3655  1.3740  1.1754
 9526TIP3   OH249992   1.925   4.267   3.055  0.5948  0.8429 -0.5904
 9526TIP3    H149993   1.901   4.358   3.073  0.0158  0.3264  1.6097
 9526TIP3    H249994   1.936   4.263   2.960 -1.9372  2.6152 -1.0766
 9527TIP3   OH249995   0.249   0.548  10.603 -0.0233 -0.2712  0.1628
 9527TIP3    H149996   0.257   0.579  10.693  4.0531 -0.5868  0.0889
 9527TIP3    H249997   0.270   0.455  10.607  2.0444  0.0632 -1.2202
 9528TIP3   OH249998   6.146   5.829  16.685  0.3732 -0.2864 -0.2260
 9528TIP3    H149999   6.146   5.846  16.779  0.2217 -3.6572  0.5135
 9528TIP3    H250000   6.237   5.839  16.658  0.4732  0.3738  0.3351
 9529TIP3   OH250001   6.709   3.830  13.414  0.1918  0.6035  0.0853
 9529TIP3    H150002   6.693   3.905  13.357  0.3234  2.0565  1.8443
 9529TIP3    H250003   6.766   3.864  13.483  0.8519 -1.3174  0.5645
 9530TIP3   OH250004   2.753   5.267   6.423  0.2179  1.0948 -0.5062
 9530TIP3    H150005   2.719   5.210   6.353  0.3510  0.6052 -0.1764
 9530TIP3    H250006   2.848   5.255   6.420  0.0990 -1.8288  2.1216
 9531TIP3   OH250007   5.908   3.692   2.890 -0.0857 -0.4108 -0.1330
 9531TIP3    H150008   5.877   3.638   2.818  1.1722 -0.4343 -0.6729
 9531TIP3    H250009   5.998   3.663   2.905  0.4605  1.2050 -0.1175
 9532TIP3   OH250010   2.132   0.481   5.941 -0.2276 -0.1246  0.2664
 9532TIP3    H150011   2.198   0.412   5.949 -0.9890 -0.9106 -0.0447
 9532TIP3    H250012   2.181   0.562   5.954  1.1144 -0.5734 -1.4997
 9533TIP3   OH250013   2.411   5.954   3.007 -0.7790  0.1627 -0.3762
 9533TIP3    H150014   2.315   5.953   3.003 -0.7618  0.0881 -0.8690
 9533TIP3    H250015   2.437   6.016   2.938 -0.4695  0.0350 -0.3751
 9534TIP3   OH250016   5.433   4.414   0.690 -0.0991 -0.0154  0.7083
 9534TIP3    H150017   5.471   4.494   0.727  0.1780 -0.0639  0.5339
 9534TIP3    H250018   5.442   4.425   0.595 -2.1083  0.7549  0.5804
 9535TIP3   OH250019   5.400   0.152  15.593  0.0613  0.0667  0.3928
 9535TIP3    H150020   5.410   0.061  15.621 -1.2283  0.4491  2.2053
 9535TIP3    H250021   5.308   0.172  15.607 -0.1789  1.0482 -2.0299
 9536TIP3   OH250022   5.893   3.878   4.460  0.4171  0.0420 -0.0457
 9536TIP3    H150023   5.948   3.954   4.442  1.1543  0.0949  2.1205
 9536TIP3    H250024   5.943   3.827   4.525 -1.5762 -0.4782  1.1850
 9537TIP3   OH250025   2.102   6.022   0.496  0.3560  0.4903 -0.3468
 9537TIP3    H150026   2.135   6.038   0.408 -0.4591  0.2988 -0.6914
 9537TIP3    H250027   2.034   6.088   0.509  1.8052  1.8303  0.9082
 9538TIP3   OH250028   3.417   2.249   4.114  0.1210 -0.9886  0.1177
 9538TIP3    H150029   3.497   2.259   4.164 -1.8022 -0.8155  3.4715
 9538TIP3    H250030   3.372   2.334   4.124 -0.6450 -1.1890 -1.3791
 9539TIP3   OH250031   0.623   4.113   5.747  0.0968  0.7475 -0.2666
 9539TIP3    H150032   0.581   4.106   5.662  1.9280  1.4282 -1.2881
 9539TIP3    H250033   0.551   4.108   5.810 -1.1755 -1.2220 -1.7618
 9540TIP3   OH250034   4.150   6.148  12.749  0.0227 -0.6066  0.0857
 9540TIP3    H150035   4.125   6.194  12.670  0.6837 -1.4229 -0.6209
 9540TIP3    H250036   4.161   6.057  12.722  1.7408 -0.6544  0.7553
 9541TIP3   OH250037   6.528   2.573   0.186  0.8805 -0.5727 -0.2995
 9541TIP3    H150038   6.500   2.515   0.256 -1.5696  0.0875 -0.6439
 9541TIP3    H250039   6.589   2.634   0.228  0.5553 -1.0672  0.9247
 9542TIP3   OH250040   2.394   1.702   1.825 -0.9682  0.1712 -0.1678
 9542TIP3    H150041   2.328   1.772   1.819  1.1561  2.2397 -0.9755
 9542TIP3    H250042   2.380   1.649   1.746 -2.9768 -0.7475  0.7420
 9543TIP3   OH250043   3.570   2.367   3.692 -0.1193 -0.4611 -0.2601
 9543TIP3    H150044   3.507   2.317   3.743  0.9423 -0.1029  1.4975
 9543TIP3    H250045   3.652   2.360   3.742  0.5885  1.2043 -1.1106
 9544TIP3   OH250046   0.177   0.998  13.810  0.2747 -0.0787 -0.1892
 9544TIP3    H150047   0.245   0.937  13.838 -0.6158 -1.2611 -0.4874
 9544TIP3    H250048   0.179   0.994  13.714  0.0361  0.1579 -0.2064
 9545TIP3   OH250049   2.505   5.797  16.030 -0.8204 -0.1971 -0.7537
 9545TIP3    H150050   2.516   5.811  16.124  0.4297 -0.3954 -0.8549
 9545TIP3    H250051   2.540   5.876  15.990  0.9781 -1.1299 -1.1209
 9546TIP3   OH250052   0.499   1.647   2.287 -0.1042 -0.4999  0.0730
 9546TIP3    H150053   0.530   1.556   2.288 -0.2692 -0.5560  1.0328
 9546TIP3    H250054   0.531   1.684   2.370  0.8031  0.6148 -0.7438
 9547TIP3   OH250055   5.789   3.159  11.347 -0.3794  0.3746  0.3899
 9547TIP3    H150056   5.751   3.230  11.296 -0.1965  0.5965  0.5569
 9547TIP3    H250057   5.877   3.148  11.310 -1.2656 -1.4698 -1.3204
 9548TIP3   OH250058   3.274   3.022   2.979 -0.1560  0.4417 -0.1809
 9548TIP3    H150059   3.332   3.087   2.940 -0.4314  0.1384 -1.1305
 9548TIP3    H250060   3.234   2.977   2.904 -2.3722  1.2961  0.3985
 9549TIP3   OH250061   5.060   5.872   4.076 -0.2119  0.0224 -0.5500
 9549TIP3    H150062   5.086   5.864   4.168 -2.0727 -0.7971 -0.0447
 9549TIP3    H250063   4.998   5.800   4.063 -0.5782  0.6126 -2.2317
 9550TIP3   OH250064   4.305   5.832  13.343 -0.0064 -0.9970  0.2509
 9550TIP3    H150065   4.392   5.798  13.321  0.3509  0.3287 -0.5187
 9550TIP3    H250066   4.263   5.761  13.391  1.9876 -1.1947  1.8292
 9551TIP3   OH250067   5.587   2.486   1.839  0.4821  0.1268  0.0693
 9551TIP3    H150068   5.596   2.503   1.745 -0.9238  1.5847  0.1666
 9551TIP3    H250069   5.669   2.518   1.877  0.5516  0.6770 -0.5318
 9552TIP3   OH250070   3.313   4.055  15.750  0.4435  0.5780 -0.2654
 9552TIP3    H150071   3.400   4.074  15.785  0.4885 -2.0448  1.4024
 9552TIP3    H250072   3.271   4.002  15.818 -2.6508  2.0324 -0.8348
 9553TIP3   OH250073   6.055   0.034  15.800 -0.2620  0.1683 -0.0567
 9553TIP3    H150074   6.147   0.044  15.824 -0.7689 -0.1021  2.1354
 9553TIP3    H250075   6.054  -0.037  15.736  0.8508 -1.2909  1.4741
 9554TIP3   OH250076   2.244   4.699  10.815 -0.2847  0.4205  0.5374
 9554TIP3    H150077   2.312   4.765  10.809 -0.8682  1.0625  0.9348
 9554TIP3    H250078   2.287   4.618  10.787  0.6678  0.7908  0.8999
 9555TIP3   OH250079   1.850   6.007   1.428  0.7386 -0.5605  0.3726
 9555TIP3    H150080   1.895   5.923   1.435  2.8383  0.4994  0.4768
 9555TIP3    H250081   1.809   6.020   1.513  2.1602 -0.5782  1.0905
 9556TIP3   OH250082   5.812   0.879   1.991  0.6267 -0.2618  0.1069
 9556TIP3    H150083   5.859   0.861   1.910  0.0606 -0.6858 -0.1371
 9556TIP3    H250084   5.721   0.891   1.963  0.1322 -2.0054  0.8398
 9557TIP3   OH250085   1.966   5.779  11.718  0.1846 -0.4242 -0.0587
 9557TIP3    H150086   2.023   5.832  11.662  2.7538 -1.2098  1.6496
 9557TIP3    H250087   1.906   5.736  11.656  1.4354  0.4343 -1.9774
 9558TIP3   OH250088   1.096   5.886  16.368 -0.3729 -0.2325  0.0826
 9558TIP3    H150089   1.162   5.955  16.363 -0.3141 -0.2909  0.0491
 9558TIP3    H250090   1.039   5.912  16.440 -1.8781  1.2136 -1.5119
 9559TIP3   OH250091   3.817   2.543   3.047 -0.1920 -0.1267 -0.0306
 9559TIP3    H150092   3.900   2.498   3.063  0.0536  0.2914 -0.0989
 9559TIP3    H250093   3.828   2.586   2.963 -0.2831  0.3616  0.2011
 9560TIP3   OH250094   2.853   4.137  15.316  0.1680  0.1955  0.7819
 9560TIP3    H150095   2.787   4.194  15.278  0.0190 -0.2392  0.3725
 9560TIP3    H250096   2.910   4.195  15.366  0.3841  0.7943 -0.1320
 9561TIP3   OH250097   2.796   6.574   2.766 -0.0928  0.2620 -0.1287
 9561TIP3    H150098   2.826   6.655   2.725  1.6059 -1.0151 -1.5714
 9561TIP3    H250099   2.850   6.565   2.844 -1.6368  1.4448  1.1483
 9562TIP3   OH250100   4.002   4.406   3.409  0.2132  0.1819  0.5907
 9562TIP3    H150101   4.017   4.317   3.440  0.6417  0.2691  0.6452
 9562TIP3    H250102   4.076   4.423   3.350  0.7292  0.8810  1.4152
 9563TIP3   OH250103   1.723   5.610  13.850 -0.0583  0.1949  0.4010
 9563TIP3    H150104   1.739   5.704  13.856 -0.9196  0.4424 -0.8499
 9563TIP3    H250105   1.789   5.579  13.787 -0.3433  0.1069  0.1478
 9564TIP3   OH250106   6.395   4.947   5.679 -0.4142  0.0782  0.8578
 9564TIP3    H150107   6.452   4.991   5.616  0.0139 -1.6815 -0.0699
 9564TIP3    H250108   6.455   4.899   5.736 -0.9067 -1.1407  0.3782
 9565TIP3   OH250109   0.937   3.640   6.052  0.4541 -0.0453 -0.1168
 9565TIP3    H150110   0.888   3.567   6.089 -0.0922  0.1575 -0.4259
 9565TIP3    H250111   0.984   3.678   6.126  2.5946 -2.1099 -0.3095
 9566TIP3   OH250112   5.307   5.717  15.423 -0.6964  0.7195 -0.2236
 9566TIP3    H150113   5.256   5.790  15.457  0.2782  0.3601  2.2229
 9566TIP3    H250114   5.392   5.724  15.466 -0.0729 -1.0227 -1.0589
 9567TIP3   OH250115   4.803   3.264  14.544 -0.1299 -0.5586  0.0315
 9567TIP3    H150116   4.889   3.240  14.509  0.1402  1.7419 -1.0820
 9567TIP3    H250117   4.744   3.195  14.512  1.2689 -2.2455  0.9300
 9568TIP3   OH250118   3.657   2.894   4.188  0.0107 -0.0071 -0.6393
 9568TIP3    H150119   3.691   2.971   4.234 -2.2404 -0.2115  1.5948
 9568TIP3    H250120   3.675   2.911   4.096 -0.5945  3.3400 -0.2528
 9569TIP3   OH250121   2.137   5.408  15.510  0.6325 -0.3730  0.2970
 9569TIP3    H150122   2.139   5.443  15.599 -1.1973  0.0761  0.2005
 9569TIP3    H250123   2.208   5.344  15.508  2.2696  1.2802  1.3317
 9570TIP3   OH250124   2.782   2.630  13.294  0.0713 -0.2749 -0.6233
 9570TIP3    H150125   2.833   2.554  13.267  0.4657  0.2594 -1.4075
 9570TIP3    H250126   2.727   2.650  13.218  0.9185  1.0203 -0.9140
 9571TIP3   OH250127   6.108   6.392   5.976  0.0146  0.0265 -0.5770
 9571TIP3    H150128   6.081   6.439   6.055  0.3734 -2.0039  0.8504
 9571TIP3    H250129   6.203   6.387   5.983 -0.0220 -0.9428 -0.6386
 9572TIP3   OH250130   6.395   0.145   4.270  0.1732  0.3371  0.1592
 9572TIP3    H150131   6.424   0.179   4.355  1.3009 -0.9218  0.3246
 9572TIP3    H250132   6.401   0.219   4.210 -2.8577  1.9138  1.5684
 9573TIP3   OH250133   0.862   3.293   4.537  0.2368  0.3345  0.5755
 9573TIP3    H150134   0.947   3.330   4.512  0.0233  1.1517  1.0557
 9573TIP3    H250135   0.818   3.363   4.584 -1.1271  0.2662 -0.5393
 9574TIP3   OH250136   2.233   5.702   0.265  0.7841 -0.8668 -0.9963
 9574TIP3    H150137   2.256   5.631   0.205  1.0014 -1.4788 -0.2060
 9574TIP3    H250138   2.157   5.743   0.225 -0.0402 -2.2552 -0.9276
 9575TIP3   OH250139   0.681   3.658   2.754  0.0313 -0.1448 -0.4425
 9575TIP3    H150140   0.753   3.643   2.693  0.8385 -1.6000  0.7778
 9575TIP3    H250141   0.704   3.739   2.800  0.6665 -0.3533 -0.3852
 9576TIP3   OH250142   5.030   5.674  10.778  0.3917  0.3687 -0.1118
 9576TIP3    H150143   5.102   5.648  10.721  0.5237  1.1949 -0.3415
 9576TIP3    H250144   5.046   5.628  10.860 -0.1302 -1.3200 -0.9091
 9577TIP3   OH250145   4.850   2.309  16.418  0.1761 -0.0677  0.6034
 9577TIP3    H150146   4.846   2.335  16.326  0.9059 -0.0714  0.5678
 9577TIP3    H250147   4.915   2.367  16.457  0.7848 -0.8958  0.8400
 9578TIP3   OH250148   5.453   3.398   1.911  0.1849  0.3521  0.2403
 9578TIP3    H150149   5.512   3.410   1.986  0.7149 -0.8044  0.0398
 9578TIP3    H250150   5.503   3.428   1.836  0.1463  0.3108  0.1978
 9579TIP3   OH250151   6.561   1.789  14.690 -0.0926 -0.5686  0.0597
 9579TIP3    H150152   6.562   1.774  14.784  2.7624 -1.3638 -0.0013
 9579TIP3    H250153   6.610   1.871  14.679 -0.0067 -0.7224 -0.7500
 9580TIP3   OH250154   5.690   2.180   2.543 -0.1228 -0.0508 -0.2360
 9580TIP3    H150155   5.749   2.150   2.613 -0.3571  0.5087  0.2055
 9580TIP3    H250156   5.659   2.099   2.502  1.0239 -0.3553 -0.5392
 9581TIP3   OH250157   1.859   3.828   1.868 -0.5460  0.2185 -0.3431
 9581TIP3    H150158   1.929   3.888   1.892  0.4250 -1.1847  0.4689
 9581TIP3    H250159   1.806   3.820   1.948  0.2769 -1.2195  0.1031
 9582TIP3   OH250160   0.437   0.501   5.252  0.1674 -0.2989  0.0581
 9582TIP3    H150161   0.411   0.424   5.202 -0.2882 -0.1063 -0.0150
 9582TIP3    H250162   0.514   0.535   5.208  1.1156 -1.4060  0.8071
 9583TIP3   OH250163   1.946   0.894   1.895 -0.6278 -0.0550  0.3029
 9583TIP3    H150164   2.023   0.850   1.859 -0.4737  0.1085  0.4321
 9583TIP3    H250165   1.876   0.875   1.832 -0.0705  1.3021 -0.7759
 9584TIP3   OH250166   2.172   1.510   1.979 -0.6160  0.5809  0.1282
 9584TIP3    H150167   2.126   1.558   1.911  0.6483  1.6022 -0.0353
 9584TIP3    H250168   2.257   1.553   1.986  0.2127 -1.0524  0.6344
 9585TIP3   OH250169   5.247   5.870   4.598 -0.2977 -0.1898 -0.7312
 9585TIP3    H150170   5.211   5.929   4.664 -1.3401 -2.5500  0.9584
 9585TIP3    H250171   5.311   5.817   4.645  0.4319 -0.6175 -2.1240
 9586TIP3   OH250172   5.548   0.998   2.871  0.3046 -0.0742  0.6006
 9586TIP3    H150173   5.610   1.071   2.867  1.4273 -0.9082  1.6957
 9586TIP3    H250174   5.531   0.987   2.964 -1.8457  0.3720  0.3007
 9587TIP3   OH250175   4.342   0.911   3.969 -0.7279 -0.1995 -0.0308
 9587TIP3    H150176   4.251   0.895   3.992 -0.6806  2.1506  2.2467
 9587TIP3    H250177   4.339   0.982   3.905 -0.4945 -0.4189 -0.2884
 9588TIP3   OH250178   1.615   1.166  11.813  0.0986 -0.6510  0.1316
 9588TIP3    H150179   1.653   1.094  11.863 -1.6480 -1.3130  0.5771
 9588TIP3    H250180   1.628   1.244  11.867 -1.7121 -1.3437  1.6795
 9589TIP3   OH250181   4.307   1.066  16.132  0.2647 -0.1538 -0.5101
 9589TIP3    H150182   4.340   1.056  16.221  1.1952  2.3686 -0.4719
 9589TIP3    H250183   4.371   1.020  16.077  0.7488 -0.0883 -0.0071
 9590TIP3   OH250184   3.706   5.909  15.888 -0.3747  0.5852  0.0119
 9590TIP3    H150185   3.674   5.853  15.959 -0.2882 -0.1051 -0.4904
 9590TIP3    H250186   3.637   5.907  15.822 -1.3332  2.7626  0.8484
 9591TIP3   OH250187   1.982   5.553  14.078 -0.3344 -0.1902 -0.2782
 9591TIP3    H150188   2.040   5.593  14.014  0.5309 -0.8944  0.0522
 9591TIP3    H250189   1.912   5.618  14.090  0.9245  1.1452  0.1115
 9592TIP3   OH250190   5.931   5.418  15.621 -0.1115 -0.3726 -0.0723
 9592TIP3    H150191   5.980   5.362  15.561  1.6545 -0.8659  1.7262
 9592TIP3    H250192   5.998   5.463  15.673 -1.5342 -0.7586  2.2368
 9593TIP3   OH250193   3.004   6.174   1.074 -0.2592 -0.0594 -0.4131
 9593TIP3    H150194   3.084   6.124   1.060 -0.3425 -0.0288 -1.0567
 9593TIP3    H250195   3.011   6.247   1.011  0.1480  1.0984  0.9214
 9594TIP3   OH250196   4.972   0.438   3.399 -0.3774  0.6525  0.6818
 9594TIP3    H150197   4.910   0.478   3.460 -1.3201  0.3030 -0.0195
 9594TIP3    H250198   4.969   0.344   3.421 -0.2289  0.6121  0.5245
 9595TIP3   OH250199   2.767   2.435   0.963  0.2386 -0.2778  0.3210
 9595TIP3    H150200   2.859   2.433   0.936  0.1431  1.9956 -0.3807
 9595TIP3    H250201   2.740   2.343   0.962  1.8497 -0.8174 -1.7998
 9596TIP3   OH250202   2.220   2.221  14.560  0.0585 -0.0172  0.6956
 9596TIP3    H150203   2.136   2.232  14.604  0.4692  0.4279  1.3724
 9596TIP3    H250204   2.211   2.269  14.477 -1.9167 -3.5687 -1.4161
 9597TIP3   OH250205   5.175   6.195   5.379  0.1388  0.3057 -0.1442
 9597TIP3    H150206   5.221   6.242   5.448  0.7654  1.5079 -1.3405
 9597TIP3    H250207   5.085   6.229   5.383  0.8461  2.5865 -1.7460
 9598TIP3   OH250208   1.460   0.769   5.534 -0.1240 -0.6505 -0.1796
 9598TIP3    H150209   1.550   0.743   5.516 -0.5514 -1.2346 -1.6279
 9598TIP3    H250210   1.461   0.799   5.624  1.5600 -0.4736 -0.2294
 9599TIP3   OH250211   1.323   1.339   1.739 -0.4033  0.5329 -0.2163
 9599TIP3    H150212   1.270   1.410   1.774 -2.3634 -0.8112 -0.2734
 9599TIP3    H250213   1.326   1.274   1.809 -1.1982 -0.5755 -1.1707
 9600TIP3   OH250214   0.775   0.275  16.769 -0.3722 -0.2975  0.1080
 9600TIP3    H150215   0.864   0.309  16.753 -1.1183  1.5775 -0.3448
 9600TIP3    H250216   0.781   0.181  16.750  1.5172 -0.2165  0.1199
 9601TIP3   OH250217   5.399   4.760  14.977 -0.0278  0.2876 -0.2124
 9601TIP3    H150218   5.374   4.703  14.904 -0.7256  0.0168  0.2365
 9601TIP3    H250219   5.468   4.712  15.022  0.9000  0.7582 -1.0817
 9602TIP3   OH250220   5.235   4.812   0.792  0.8060  0.3350 -0.1990
 9602TIP3    H150221   5.267   4.837   0.879  0.0424  0.1594  0.1406
 9602TIP3    H250222   5.276   4.875   0.733  0.8525  0.8415  0.3619
 9603TIP3   OH250223   2.635   4.159  13.267 -0.3054 -0.6653 -0.3091
 9603TIP3    H150224   2.652   4.117  13.183 -2.4822 -2.1402 -0.0978
 9603TIP3    H250225   2.541   4.147  13.282 -0.2862  0.8965  1.6376
 9604TIP3   OH250226   5.921   1.994   3.187 -0.0785 -0.0379  0.1856
 9604TIP3    H150227   5.827   1.977   3.195 -0.1474  0.3474  0.1884
 9604TIP3    H250228   5.962   1.919   3.229 -0.3856 -0.1450  0.2983
 9605TIP3   OH250229   1.792   2.752  16.280  0.4109  0.3869 -0.2721
 9605TIP3    H150230   1.877   2.791  16.299 -0.5883  2.2025  0.8129
 9605TIP3    H250231   1.732   2.795  16.341 -1.2651 -0.9369 -0.9065
 9606TIP3   OH250232   0.260   1.931   4.571  0.3554 -0.5141 -0.6468
 9606TIP3    H150233   0.321   1.927   4.645  1.0494  0.5815 -1.1323
 9606TIP3    H250234   0.223   1.843   4.566  0.0834 -0.5511  1.1668
 9607TIP3   OH250235   3.301   1.647   0.037 -0.9919  0.1777 -0.4686
 9607TIP3    H150236   3.370   1.595   0.076 -0.4595  0.0404 -1.5389
 9607TIP3    H250237   3.227   1.641   0.098 -0.5003 -0.7461  0.0451
 9608TIP3   OH250238   3.442   2.965  16.317  0.1061 -0.4112 -0.3566
 9608TIP3    H150239   3.491   3.039  16.354  0.5296 -0.4296 -0.8694
 9608TIP3    H250240   3.350   2.989  16.328  0.1757 -0.9612  1.8464
 9609TIP3   OH250241   3.210   4.643   2.480  0.1338 -0.0068  0.6682
 9609TIP3    H150242   3.219   4.676   2.569  3.1206 -0.3011  0.5776
 9609TIP3    H250243   3.215   4.548   2.488  0.4703 -0.0363  0.1826
 9610TIP3   OH250244   2.631   4.717  14.821 -0.5540  0.7707  0.2283
 9610TIP3    H150245   2.566   4.728  14.891 -1.7062 -0.8450 -0.5158
 9610TIP3    H250246   2.668   4.804  14.809 -1.7582  1.5026  1.4881
 9611TIP3   OH250247   4.420   6.314   5.683 -0.0159 -0.5725 -0.0768
 9611TIP3    H150248   4.398   6.229   5.720 -2.0865  0.1007  0.3943
 9611TIP3    H250249   4.408   6.303   5.589 -0.9168 -0.6400  0.0403
 9612TIP3   OH250250   6.475   6.389  13.654  0.0839  0.4451 -0.2020
 9612TIP3    H150251   6.569   6.399  13.673 -0.0855 -1.8449  2.4873
 9612TIP3    H250252   6.431   6.418  13.734 -1.1993 -2.4509  0.2654
 9613TIP3   OH250253   5.641   2.206   5.550  0.1160  0.1238  0.0677
 9613TIP3    H150254   5.696   2.140   5.593  0.6646  0.7411  0.3310
 9613TIP3    H250255   5.552   2.181   5.574  0.2336 -1.1625 -0.7482
 9614TIP3   OH250256   2.315   3.523   5.476 -0.3524 -0.2651 -0.0822
 9614TIP3    H150257   2.337   3.615   5.487 -2.0609  0.2234 -0.3866
 9614TIP3    H250258   2.245   3.523   5.410  0.0493 -1.8361 -0.5481
 9615TIP3   OH250259   3.782   4.317  16.634  0.9061  0.3012  0.2727
 9615TIP3    H150260   3.789   4.363  16.550 -2.7094 -0.5369 -0.6585
 9615TIP3    H250261   3.750   4.383  16.695  2.1163  0.5504  0.6635
 9616TIP3   OH250262   3.913   3.640   6.030 -0.1985  0.6333 -0.2515
 9616TIP3    H150263   3.960   3.575   5.978  1.8551  1.3512  0.5998
 9616TIP3    H250264   3.978   3.708   6.049 -0.8564  0.5327  3.0405
 9617TIP3   OH250265   2.333   4.195   2.282 -0.5297 -0.7166  0.1606
 9617TIP3    H150266   2.328   4.235   2.195  0.0058  0.7022  0.7519
 9617TIP3    H250267   2.362   4.105   2.265 -3.4770 -1.5178 -1.3462
 9618TIP3   OH250268   5.406   0.518   2.215 -0.0817  0.1457  0.1392
 9618TIP3    H150269   5.393   0.480   2.128 -0.3480  0.9528 -0.1839
 9618TIP3    H250270   5.417   0.611   2.199 -2.3179  0.6560  1.1239
 9619TIP3   OH250271   5.929   0.388   1.568 -0.4401 -0.1050 -0.4470
 9619TIP3    H150272   5.969   0.423   1.488  0.8838  1.2882  0.7604
 9619TIP3    H250273   5.839   0.418   1.565 -0.3343  0.1612 -1.2840
 9620TIP3   OH250274   1.237   4.501   4.227 -0.4788  0.2310 -0.0959
 9620TIP3    H150275   1.279   4.496   4.313  2.0678  0.8097 -1.2211
 9620TIP3    H250276   1.247   4.413   4.190 -0.9334  0.1751 -0.0912
 9621TIP3   OH250277   1.937   1.541  16.070  0.1873  0.4346 -0.1166
 9621TIP3    H150278   1.988   1.622  16.074 -0.1573  0.6200  0.8360
 9621TIP3    H250279   1.952   1.507  15.982  2.1877  0.3283  0.2286
 9622TIP3   OH250280   4.540   1.932   3.869  0.1822  0.3265  0.3144
 9622TIP3    H150281   4.602   1.978   3.925 -0.7507  1.9884  0.0382
 9622TIP3    H250282   4.483   2.001   3.834 -0.6664 -0.9311 -0.8910
 9623TIP3   OH250283   0.589   6.495   5.682 -0.0002  0.1735  0.5600
 9623TIP3    H150284   0.497   6.470   5.684 -0.1657  0.7443  0.1818
 9623TIP3    H250285   0.599   6.556   5.755 -0.0462  0.5266  0.2733
 9624TIP3   OH250286   2.393   0.952   3.013 -0.1317 -0.5662  0.1186
 9624TIP3    H150287   2.322   0.994   2.965 -0.0692 -0.3619  0.2058
 9624TIP3    H250288   2.465   1.015   3.010  0.0243 -0.7442  0.0881
 9625TIP3   OH250289   5.650   0.203   2.520 -0.3337  0.0472 -0.3658
 9625TIP3    H150290   5.697   0.150   2.584 -0.2755  0.3142 -0.1837
 9625TIP3    H250291   5.679   0.293   2.538 -1.6355  0.3335  0.3730
 9626TIP3   OH250292   5.743   5.852  14.403 -0.0515 -0.1647 -0.2631
 9626TIP3    H150293   5.725   5.940  14.369 -2.3507 -0.3546  0.3368
 9626TIP3    H250294   5.688   5.794  14.351  0.3298 -1.0938  0.3322
 9627TIP3   OH250295   0.147   1.786  15.162 -0.6092  0.4295 -0.7161
 9627TIP3    H150296   0.166   1.711  15.218 -1.6031 -0.9351 -2.1491
 9627TIP3    H250297   0.068   1.825  15.200 -0.8145 -0.0036 -0.6980
 9628TIP3   OH250298   6.708   5.771   2.719  0.2261  0.2005 -0.6015
 9628TIP3    H150299   6.784   5.828   2.715  1.0590 -0.8458 -0.0401
 9628TIP3    H250300   6.741   5.688   2.752 -1.1608 -0.2751 -0.3209
 9629TIP3   OH250301   2.614   3.684   0.605  0.6787  1.1196 -0.0465
 9629TIP3    H150302   2.548   3.657   0.670 -1.0755  0.6090 -1.9351
 9629TIP3    H250303   2.569   3.750   0.552  0.6486 -1.1204 -3.0585
 9630TIP3   OH250304   1.666   0.305  17.082 -0.1108  0.5532 -0.0184
 9630TIP3    H150305   1.643   0.258  17.002 -0.1722  0.4245  0.0739
 9630TIP3    H250306   1.701   0.237  17.140  1.7044  0.9154 -0.6039
 9631TIP3   OH250307   6.606   3.432   5.494  0.3783 -0.0561  0.3555
 9631TIP3    H150308   6.573   3.390   5.574 -1.5395  1.1933  0.2968
 9631TIP3    H250309   6.644   3.360   5.444  1.9694 -0.8136  2.5049
 9632TIP3   OH250310   1.233   0.244  12.434 -0.5392  0.2589 -0.0661
 9632TIP3    H150311   1.260   0.161  12.397 -2.3337  0.6738 -2.5281
 9632TIP3    H250312   1.314   0.292  12.448  0.4932 -1.6777  1.0286
 9633TIP3   OH250313   4.843   3.020   0.689  0.5752  0.5930 -0.2819
 9633TIP3    H150314   4.876   2.983   0.770 -1.0570 -0.0754  0.1003
 9633TIP3    H250315   4.920   3.023   0.631  1.2726 -1.0827  0.4956
 9634TIP3   OH250316   1.617   3.669   2.022 -0.2306 -0.7470  0.0978
 9634TIP3    H150317   1.522   3.658   2.014 -0.3053 -0.3003  0.3259
 9634TIP3    H250318   1.628   3.756   2.061  0.3297  0.1767 -1.9572
 9635TIP3   OH250319   5.368   0.563   4.148 -0.1971 -0.4364 -0.1818
 9635TIP3    H150320   5.406   0.572   4.236  0.0698  0.7385 -0.3958
 9635TIP3    H250321   5.441   0.535   4.093 -0.2004 -0.4843 -0.1620
 9636TIP3   OH250322   4.008   1.568   5.255 -0.2942  0.0105 -0.3438
 9636TIP3    H150323   3.913   1.555   5.254 -0.0748 -1.9144 -2.1210
 9636TIP3    H250324   4.036   1.552   5.165  1.9308 -1.3802  0.4951
 9637TIP3   OH250325   6.284   2.511  10.850 -0.4630 -0.6096 -0.2322
 9637TIP3    H150326   6.217   2.447  10.874  0.9910 -1.9970  0.3616
 9637TIP3    H250327   6.329   2.472  10.775  0.2867 -0.1763 -0.0271
 9638TIP3   OH250328   2.023   5.471  16.895 -0.0812 -0.5036 -0.0224
 9638TIP3    H150329   1.990   5.519  16.971  1.9490  0.4224  0.3644
 9638TIP3    H250330   1.946   5.455  16.841 -1.1412  1.5622  0.7526
 9639TIP3   OH250331   2.973   6.393   5.045 -0.2555  0.4875 -0.2807
 9639TIP3    H150332   3.019   6.309   5.049  0.1755  0.6635 -1.2757
 9639TIP3    H250333   3.026   6.453   5.097 -1.4805 -0.2326  1.9385
 9640TIP3   OH250334   0.650   2.157   3.459  0.3251  0.2332 -0.2216
 9640TIP3    H150335   0.631   2.102   3.535 -0.7496  0.8204 -0.0455
 9640TIP3    H250336   0.569   2.206   3.444 -0.0958 -1.0547 -2.7627
 9641TIP3   OH250337   1.748   4.175   1.153  0.1709  0.0595  0.1239
 9641TIP3    H150338   1.804   4.102   1.179 -0.6174 -1.2677 -1.6696
 9641TIP3    H250339   1.810   4.244   1.128  0.9486 -0.3248  0.9281
 9642TIP3   OH250340   4.428   5.283  15.994  0.3029 -0.3155  0.9490
 9642TIP3    H150341   4.372   5.360  16.007 -0.7918 -0.7660 -0.6469
 9642TIP3    H250342   4.367   5.209  15.996  0.6632 -0.7688 -1.5445
 9643TIP3   OH250343   6.297   3.273   5.071  0.3217 -0.2362  0.2189
 9643TIP3    H150344   6.209   3.284   5.107 -1.1165 -1.2461 -2.6451
 9643TIP3    H250345   6.319   3.359   5.034  1.1104  0.3480  1.9540
 9644TIP3   OH250346   0.886   1.019  12.906  0.6068 -0.0605 -0.1505
 9644TIP3    H150347   0.835   1.025  12.987 -0.1668  1.9729 -0.7023
 9644TIP3    H250348   0.977   1.023  12.935  0.3302  1.8658  0.6168
 9645TIP3   OH250349   2.618   2.810   5.491 -0.1414  0.5285  0.5106
 9645TIP3    H150350   2.642   2.783   5.403  0.3555 -0.3313  0.8978
 9645TIP3    H250351   2.666   2.750   5.548 -1.2649  0.4000  1.3467
 9646TIP3   OH250352   4.117   6.704   2.150 -0.1316 -0.4764  0.4676
 9646TIP3    H150353   4.111   6.647   2.073  0.4424 -0.2496  0.2549
 9646TIP3    H250354   4.045   6.766   2.140  1.2879  1.0211 -1.0956
 9647TIP3   OH250355   3.232   1.873   4.788  0.0147  0.0012 -0.7952
 9647TIP3    H150356   3.146   1.834   4.802  0.1312 -0.0271 -0.1375
 9647TIP3    H250357   3.214   1.959   4.749 -0.3525  0.3849  0.2091
 9648TIP3   OH250358   1.096   4.041   2.866  0.5872  0.0015  0.4322
 9648TIP3    H150359   1.192   4.039   2.866  0.5883 -2.0269  0.2637
 9648TIP3    H250360   1.071   4.002   2.950 -0.0852  0.3502  0.3990
 9649TIP3   OH250361   0.356   3.330  15.430 -0.1813 -0.1701  0.3046
 9649TIP3    H150362   0.324   3.241  15.445 -0.2324 -0.1405  0.3718
 9649TIP3    H250363   0.442   3.332  15.472  0.1878 -0.4418 -0.4253
 9650TIP3   OH250364   3.984   1.813  15.972  0.3330  0.0596  0.7896
 9650TIP3    H150365   4.060   1.758  15.992 -0.2413 -1.1502 -0.2314
 9650TIP3    H250366   3.917   1.752  15.942 -0.5303  1.2575  0.1949
 9651TIP3   OH250367   5.083   6.651   0.117  1.1196  0.1165 -0.3659
 9651TIP3    H150368   5.176   6.640   0.135  1.3732  0.9832 -1.0699
 9651TIP3    H250369   5.080   6.687   0.029  0.1876  1.4821  0.1935
 9652TIP3   OH250370   5.112   1.214   5.203  0.0243  0.4180 -0.0962
 9652TIP3    H150371   5.199   1.217   5.164  0.3256 -3.3650 -0.1085
 9652TIP3    H250372   5.123   1.162   5.282 -2.3372 -1.1058 -0.6563
 9653TIP3   OH250373   4.297   4.216   1.430 -0.7465  0.5130  0.1396
 9653TIP3    H150374   4.261   4.285   1.374  1.1379  1.4586  0.0290
 9653TIP3    H250375   4.280   4.246   1.519 -0.5073  0.8167  0.0851
 9654TIP3   OH250376   4.653   4.439   5.456 -0.3650 -0.3443 -0.1010
 9654TIP3    H150377   4.598   4.413   5.530 -0.5143 -1.0787 -0.4616
 9654TIP3    H250378   4.623   4.527   5.434  0.1045  0.1480  1.0989
 9655TIP3   OH250379   6.341   0.503  15.486  0.3406 -0.1379 -0.2251
 9655TIP3    H150380   6.294   0.518  15.403 -1.2981 -1.3502  0.4314
 9655TIP3    H250381   6.415   0.447  15.462 -0.2681 -0.6942 -0.8586
 9656TIP3   OH250382   0.671   4.265   6.866  0.4610  0.3305 -0.2643
 9656TIP3    H150383   0.687   4.247   6.774 -3.8056  2.3991 -1.6788
 9656TIP3    H250384   0.642   4.182   6.903  1.2883 -0.2957 -1.0095
 9657TIP3   OH250385   0.480   3.754  13.118  0.2104 -0.2579 -0.1959
 9657TIP3    H150386   0.557   3.745  13.060  0.3341  0.5872 -0.1686
 9657TIP3    H250387   0.467   3.848  13.126 -0.6520 -0.3941  0.0526
 9658TIP3   OH250388   6.444   3.747  17.266  0.4283  0.2222  0.4546
 9658TIP3    H150389   6.476   3.748  17.176 -1.6836  2.4056 -0.3481
 9658TIP3    H250390   6.504   3.804  17.314  0.3443  0.7288 -0.0407
 9659TIP3   OH250391   3.511   3.844  16.484  0.1835 -0.2390  0.6882
 9659TIP3    H150392   3.582   3.872  16.541 -0.0866 -1.2637  1.5614
 9659TIP3    H250393   3.504   3.749  16.498 -0.6216 -0.3336 -0.2154
 9660TIP3   OH250394   5.945   1.107   6.797  0.0918  0.3167  0.4696
 9660TIP3    H150395   5.857   1.139   6.818 -1.3280 -0.7736 -3.1498
 9660TIP3    H250396   5.933   1.015   6.776  2.4618 -0.2852  1.4077
 9661TIP3   OH250397   1.234   3.190  13.349  0.7623  0.5542 -0.1302
 9661TIP3    H150398   1.236   3.137  13.270  0.3215 -0.1753  0.3440
 9661TIP3    H250399   1.265   3.131  13.418  0.3423  0.9362  0.3869
 9662TIP3   OH250400   6.502   6.121   0.899 -0.1940 -0.0898 -0.5541
 9662TIP3    H150401   6.528   6.082   0.982 -1.9312  0.1539  0.1392
 9662TIP3    H250402   6.407   6.132   0.906 -0.0774  2.1153 -1.6314
 9663TIP3   OH250403   3.491   2.114  12.124 -0.4137  0.3581 -0.0038
 9663TIP3    H150404   3.518   2.064  12.201  0.1292  1.4980  0.5704
 9663TIP3    H250405   3.567   2.112  12.066 -1.0369 -1.0422 -0.8392
 9664TIP3   OH250406   3.847   1.326  14.646  0.0155  0.3042  0.1431
 9664TIP3    H150407   3.821   1.417  14.633  0.5527  0.3847 -0.4249
 9664TIP3    H250408   3.914   1.310  14.579 -0.1237 -0.5272  0.1823
 9665TIP3   OH250409   4.156   3.056   5.775 -0.9133 -0.3012  0.2174
 9665TIP3    H150410   4.221   2.991   5.802 -0.9032 -1.3618 -2.1011
 9665TIP3    H250411   4.121   3.090   5.857  0.1167 -2.1963  1.5269
 9666TIP3   OH250412   1.177   0.595   5.738  0.8878 -0.0680 -0.3020
 9666TIP3    H150413   1.127   0.673   5.711  0.6735 -0.6633 -1.7353
 9666TIP3    H250414   1.160   0.531   5.669 -0.9004 -2.2743  2.0096
 9667TIP3   OH250415   6.216   2.787  17.378  0.3728 -0.6028  0.1296
 9667TIP3    H150416   6.310   2.799  17.390  0.2934 -0.6747  0.8190
 9667TIP3    H250417   6.181   2.876  17.370  0.7791 -0.5750 -2.5067
 9668TIP3   OH250418   2.460   0.274   1.697  0.4214  0.3558  0.4335
 9668TIP3    H150419   2.411   0.339   1.748  0.5874 -0.1151  1.2241
 9668TIP3    H250420   2.510   0.325   1.634 -2.0162  0.8003 -1.2892
 9669TIP3   OH250421   1.407   5.958  14.180 -0.2813  0.3454  0.7055
 9669TIP3    H150422   1.422   5.984  14.089 -1.8995  0.2227  0.3866
 9669TIP3    H250423   1.415   5.862  14.178 -1.8325  0.2051  0.3678
 9670TIP3   OH250424   6.222   2.925  16.542  0.2223  0.2837  0.5732
 9670TIP3    H150425   6.156   2.856  16.537 -0.2234  0.6344  1.4957
 9670TIP3    H250426   6.292   2.895  16.483  0.3294 -1.2751  1.4395
 9671TIP3   OH250427   2.673   1.936   2.761 -0.0979  0.4348  0.0803
 9671TIP3    H150428   2.608   1.904   2.698 -3.0195  4.0692  0.9009
 9671TIP3    H250429   2.729   1.995   2.710  0.3934 -0.0053  0.0923
 9672TIP3   OH250430   4.357   1.999  17.101  0.1747  0.4554  0.2639
 9672TIP3    H150431   4.440   1.981  17.145 -0.2800 -0.3577  0.8086
 9672TIP3    H250432   4.367   2.087  17.065  1.7919 -0.1439 -0.8674
 9673TIP3   OH250433   4.463   3.684  16.672  0.1312 -0.2249 -0.2476
 9673TIP3    H150434   4.460   3.654  16.763 -0.0643  0.7014  0.0625
 9673TIP3    H250435   4.501   3.772  16.677 -1.3706  0.4997 -0.8723
 9674TIP3   OH250436   5.378   2.569  13.522  0.9470 -0.4248  0.1637
 9674TIP3    H150437   5.334   2.494  13.563 -0.2185  0.5523  0.7726
 9674TIP3    H250438   5.311   2.638  13.521  2.0322  0.6543 -0.2629
 9675TIP3   OH250439   2.745   1.834  13.736 -0.5005 -0.2041 -0.2190
 9675TIP3    H150440   2.669   1.868  13.688 -1.2021 -2.4070 -0.8234
 9675TIP3    H250441   2.815   1.896  13.717 -2.0022  1.6536 -0.0268
 9676TIP3   OH250442   5.693   0.526  12.745 -0.4661 -0.3912 -0.6149
 9676TIP3    H150443   5.599   0.515  12.764 -0.3863 -0.2818 -0.1626
 9676TIP3    H250444   5.706   0.475  12.665 -0.9087 -0.4287 -0.6698
 9677TIP3   OH250445   4.636   0.529  11.747  0.0061 -0.0619 -0.0330
 9677TIP3    H150446   4.663   0.478  11.671  2.5324  0.2852  0.5426
 9677TIP3    H250447   4.623   0.463  11.816 -0.1570 -0.2138 -0.2095
 9678TIP3   OH250448   2.802   5.452  11.021  0.0915  0.3033  0.2712
 9678TIP3    H150449   2.761   5.366  11.012 -2.8575  1.3128  2.1955
 9678TIP3    H250450   2.782   5.497  10.939 -0.5886 -0.0492  0.2319
 9679TIP3   OH250451   6.168   3.553   0.119 -0.3214  0.4382  0.2701
 9679TIP3    H150452   6.178   3.584   0.208  2.2721 -1.1421  0.6619
 9679TIP3    H250453   6.258   3.546   0.086 -0.9517 -2.2783 -1.2251
 9680TIP3   OH250454   6.562   6.629   2.440  0.3743 -0.4349 -0.3795
 9680TIP3    H150455   6.533   6.711   2.480 -1.6209 -1.8892  1.4141
 9680TIP3    H250456   6.649   6.649   2.404  0.5911  2.0467  1.2673
 9681TIP3   OH250457   6.344   6.482  17.162 -0.4818 -0.7887 -0.4216
 9681TIP3    H150458   6.308   6.533  17.235  0.3595 -1.0357  0.1755
 9681TIP3    H250459   6.413   6.538  17.127  0.6454 -1.6135  0.4226
 9682TIP3   OH250460   4.693   4.330  15.668 -0.9303 -0.2252  0.1701
 9682TIP3    H150461   4.600   4.312  15.680 -1.5060 -0.1146 -3.1454
 9682TIP3    H250462   4.696   4.420  15.637  0.1927 -0.4640 -0.4669
 9683TIP3   OH250463   3.065   1.880  15.906 -0.0571 -0.0463 -0.1182
 9683TIP3    H150464   3.155   1.911  15.904 -0.8546  2.5229  0.5628
 9683TIP3    H250465   3.049   1.858  15.998 -0.1941 -0.3800 -0.2174
 9684TIP3   OH250466   5.333   0.418   6.023 -0.1253  0.2448  0.3257
 9684TIP3    H150467   5.374   0.388   6.105 -1.2451  1.0960  1.2153
 9684TIP3    H250468   5.267   0.481   6.050 -1.8589 -0.8811 -1.0959
 9685TIP3   OH250469   0.468   6.564   2.438  0.3038  0.4681 -0.4022
 9685TIP3    H150470   0.411   6.581   2.513 -0.1777  1.5912 -1.0063
 9685TIP3    H250471   0.409   6.531   2.370  0.3006  1.9097 -1.1261
 9686TIP3   OH250472   2.756   3.193  12.686 -0.0596 -0.2692 -0.3218
 9686TIP3    H150473   2.728   3.186  12.777 -0.6515 -0.0355 -0.4831
 9686TIP3    H250474   2.850   3.214  12.691  0.1269 -1.2129  0.2180
 9687TIP3   OH250475   6.686   3.086   5.030  0.5335  0.2770  0.5760
 9687TIP3    H150476   6.688   3.130   5.115  0.1580 -0.6817  1.1061
 9687TIP3    H250477   6.593   3.072   5.013  0.6314  0.0191  0.2488
 9688TIP3   OH250478   6.248   6.236  17.374  0.3403  0.2619  0.5311
 9688TIP3    H150479   6.171   6.181  17.358  0.0062  0.6651  0.7089
 9688TIP3    H250480   6.212   6.325  17.381  1.0852  0.8571 -2.0403
 9689TIP3   OH250481   0.851   3.427  13.853  0.0166 -0.4391 -0.3313
 9689TIP3    H150482   0.781   3.379  13.896  0.5051 -0.5256  0.3885
 9689TIP3    H250483   0.807   3.496  13.804 -0.5368 -0.1015  0.6144
 9690TIP3   OH250484   1.047   0.138   4.463  0.1313 -0.2778  0.3502
 9690TIP3    H150485   1.022   0.062   4.516 -1.1525 -0.6827 -0.7766
 9690TIP3    H250486   1.143   0.137   4.464  0.1425 -1.6417  0.7384
 9691TIP3   OH250487   1.877   6.449  16.902  0.5053  0.0460  0.5334
 9691TIP3    H150488   1.902   6.542  16.904  0.6555  0.0422 -0.4606
 9691TIP3    H250489   1.943   6.408  16.847 -0.2550 -0.4249 -0.0543
 9692TIP3   OH250490   3.503   3.180  12.174  0.1587 -0.6842  0.0752
 9692TIP3    H150491   3.466   3.249  12.119 -0.3307 -0.1616  1.0363
 9692TIP3    H250492   3.427   3.135  12.211  0.4187  0.5824  2.2928
 9693TIP3   OH250493   4.741   1.504   2.408  0.2733 -0.1973  0.1042
 9693TIP3    H150494   4.652   1.468   2.408  1.4895 -3.5679  0.3000
 9693TIP3    H250495   4.762   1.514   2.315 -0.3167  0.7278  0.0581
 9694TIP3   OH250496   0.035   4.639  16.583 -0.0699 -0.0397 -0.1090
 9694TIP3    H150497   0.008   4.661  16.494  0.9609 -1.4068 -0.7821
 9694TIP3    H250498   0.124   4.672  16.590 -1.1375  2.8887  1.5334
 9695TIP3   OH250499   2.880   3.735  16.245 -0.4691  0.6654  0.1023
 9695TIP3    H150500   2.911   3.732  16.154 -1.6208  0.8060 -0.3130
 9695TIP3    H250501   2.790   3.701  16.241  0.4050 -2.1702  1.6495
 9696TIP3   OH250502   0.442   5.453  11.418  0.5389 -0.3895 -0.0463
 9696TIP3    H150503   0.413   5.472  11.330  1.3447 -1.1961 -0.5139
 9696TIP3    H250504   0.480   5.535  11.450  0.7725 -0.2521 -0.6713
 9697TIP3   OH250505   4.370   6.484   0.540 -0.1556 -0.0729  0.2774
 9697TIP3    H150506   4.422   6.425   0.595  0.1670  0.4027  0.4881
 9697TIP3    H250507   4.333   6.548   0.602 -0.1542  0.1992 -0.0033
 9698TIP3   OH250508   4.016   6.200  13.293 -0.0487 -0.5099  0.0344
 9698TIP3    H150509   3.973   6.182  13.210 -0.1212  3.4786 -0.9805
 9698TIP3    H250510   3.943   6.217  13.354  0.0198 -2.8838  0.8694
 9699TIP3   OH250511   6.116   3.296  17.286 -0.0314  0.2829  0.3754
 9699TIP3    H150512   6.125   3.377  17.235  1.2299 -0.2166 -0.2359
 9699TIP3    H250513   6.086   3.232  17.222 -1.9374  0.4215  1.0422
 9700TIP3   OH250514   3.966   3.292  16.278  0.4594 -0.3735  0.1569
 9700TIP3    H150515   4.053   3.325  16.301  0.0780  0.6349  0.2413
 9700TIP3    H250516   3.978   3.198  16.267  1.3239 -0.4299  1.3264
 9701TIP3   OH250517   4.776   4.161   4.019 -0.2035 -0.2878 -1.1447
 9701TIP3    H150518   4.690   4.121   4.031 -0.9618  1.1894 -1.4124
 9701TIP3    H250519   4.790   4.212   4.099  1.1790 -1.7744 -0.3740
 9702TIP3   OH250520   5.431   5.704   4.362 -0.8845 -0.5102 -1.0813
 9702TIP3    H150521   5.420   5.766   4.289  0.4349  1.7411  0.4882
 9702TIP3    H250522   5.520   5.720   4.392 -0.1690 -3.8735 -1.0781
 9703TIP3   OH250523   0.806   4.626  14.544  0.2608 -0.6570  0.2295
 9703TIP3    H150524   0.820   4.684  14.619  1.6552  1.5313 -1.5836
 9703TIP3    H250525   0.894   4.604  14.513 -0.2825 -1.6702 -0.6603
 9704TIP3   OH250526   5.143   5.365   1.703 -0.1961  0.0533 -0.6553
 9704TIP3    H150527   5.215   5.418   1.670  0.7900 -1.6758 -1.4116
 9704TIP3    H250528   5.075   5.428   1.726  1.6849  1.7873  0.4694
 9705TIP3   OH250529   5.319   2.903  11.491 -0.3312 -0.1701  0.2049
 9705TIP3    H150530   5.296   2.817  11.455  0.2455 -0.4091  0.3989
 9705TIP3    H250531   5.389   2.934  11.434  0.1117 -0.2463  0.7019
 9706TIP3   OH250532   6.548   4.131   0.376  0.1368 -0.4593 -0.0499
 9706TIP3    H150533   6.500   4.129   0.458 -0.6334 -1.0530 -0.5015
 9706TIP3    H250534   6.639   4.114   0.400  0.0214  0.0075  0.7376
 9707TIP3   OH250535   3.438   6.457   4.631 -0.0866 -0.5562  0.2622
 9707TIP3    H150536   3.489   6.522   4.680  0.6287 -2.1434  1.7088
 9707TIP3    H250537   3.352   6.457   4.673 -0.8483  0.9880 -1.1718
 9708TIP3   OH250538   6.428   2.375  15.547 -0.1905 -0.0259  0.7625
 9708TIP3    H150539   6.401   2.447  15.490 -0.4084 -0.6914  0.0036
 9708TIP3    H250540   6.347   2.347  15.590  0.0333  0.7159  1.7092
 9709TIP3   OH250541   1.591   2.960  11.880  0.0529 -0.0827 -0.5234
 9709TIP3    H150542   1.644   3.040  11.890  0.3291 -0.2875 -0.3495
 9709TIP3    H250543   1.642   2.904  11.821  0.0189 -0.2743 -0.3699
 9710TIP3   OH250544   2.468   6.124   0.653 -0.2406 -0.0420  0.2139
 9710TIP3    H150545   2.442   6.139   0.744  0.2691 -0.8545  0.5068
 9710TIP3    H250546   2.538   6.186   0.637 -1.5598  1.3870 -0.2228
 9711TIP3   OH250547   4.634   1.709  13.049 -0.1876  0.1357 -0.0709
 9711TIP3    H150548   4.688   1.718  13.127 -1.0205 -0.1696  0.5529
 9711TIP3    H250549   4.622   1.799  13.017  0.3232  0.2418  0.0300
 9712TIP3   OH250550   2.732   1.551   6.082 -0.8533  0.2174 -0.2096
 9712TIP3    H150551   2.824   1.561   6.105 -0.9963 -0.7418  0.9048
 9712TIP3    H250552   2.725   1.582   5.992  0.5155  0.4826 -0.2326
 9713TIP3   OH250553   0.912   3.421   3.020  0.4808  0.0784  0.2864
 9713TIP3    H150554   0.920   3.488   2.953  2.3528 -1.0821 -0.7671
 9713TIP3    H250555   0.970   3.450   3.090 -0.9882  0.9773  1.1674
 9714TIP3   OH250556   0.508   6.161  13.218 -0.5849 -0.1037  0.3822
 9714TIP3    H150557   0.561   6.190  13.292  0.7632  2.9762 -1.5648
 9714TIP3    H250558   0.562   6.094  13.175 -1.0194 -1.3157  1.6655
 9715TIP3   OH250559   5.500   1.882   4.980 -0.3947 -0.2093 -0.1442
 9715TIP3    H150560   5.547   1.923   4.908  0.0691 -0.3862  0.0540
 9715TIP3    H250561   5.419   1.933   4.988 -0.0816  0.3171 -0.2618
 9716TIP3   OH250562   0.162   3.196   2.376  0.0520  0.2178 -0.1920
 9716TIP3    H150563   0.137   3.268   2.433  1.5526 -0.3172  1.2224
 9716TIP3    H250564   0.103   3.124   2.401  0.3936  0.1301  0.3928
 9717TIP3   OH250565   4.761   6.230   0.613  0.0351 -0.5190 -0.1790
 9717TIP3    H150566   4.794   6.268   0.695  0.2246 -1.0131 -0.0176
 9717TIP3    H250567   4.690   6.172   0.641 -0.0509 -0.5139 -0.3892
 9718TIP3   OH250568   4.842   3.376   5.244  0.1088 -0.3224  0.2575
 9718TIP3    H150569   4.761   3.412   5.279 -0.6179 -2.3626  0.8168
 9718TIP3    H250570   4.876   3.444   5.186 -1.2688  1.1246  1.0725
 9719TIP3   OH250571   2.959   2.648   5.515  0.1378  0.6101 -0.8694
 9719TIP3    H150572   2.947   2.738   5.544  0.5961  0.3930  0.0253
 9719TIP3    H250573   2.978   2.599   5.595 -3.9575 -1.0194 -0.6495
 9720TIP3   OH250574   4.551   2.508   0.997  0.3450  0.2588  0.2127
 9720TIP3    H150575   4.486   2.567   1.036 -1.3686 -1.2161 -0.2426
 9720TIP3    H250576   4.627   2.563   0.980  0.1997  1.5623  3.0851
 9721TIP3   OH250577   6.601   5.878   4.953 -0.3417  0.3318 -0.0189
 9721TIP3    H150578   6.653   5.958   4.948  0.2351 -0.0142  0.4118
 9721TIP3    H250579   6.585   5.865   5.046 -1.5209  0.6367 -0.1647
 9722TIP3   OH250580   5.037   5.479  12.511 -0.1017 -0.0269  0.3315
 9722TIP3    H150581   4.997   5.563  12.488  2.6941  1.3136 -0.0311
 9722TIP3    H250582   4.992   5.415  12.456 -0.6141  1.6189 -1.2747
 9723TIP3   OH250583   2.572   0.353   5.772  0.4550 -0.4599  0.7658
 9723TIP3    H150584   2.554   0.260   5.759  1.2490 -0.2011 -3.9773
 9723TIP3    H250585   2.640   0.374   5.709 -0.0269  3.4833  1.2701
 9724TIP3   OH250586   2.570   0.619   3.647 -0.0018  0.2218 -0.3056
 9724TIP3    H150587   2.545   0.711   3.656 -2.4291 -0.5449  2.2551
 9724TIP3    H250588   2.630   0.603   3.720 -0.0354 -0.3758 -0.4065
 9725TIP3   OH250589   0.643   2.286   0.638 -0.0867 -0.2361  0.1484
 9725TIP3    H150590   0.624   2.226   0.566  2.4699  0.0973 -0.9129
 9725TIP3    H250591   0.726   2.256   0.673  1.9120  3.2031 -1.1663
 9726TIP3   OH250592   2.224   4.240   5.448  0.6687  1.0754  0.3548
 9726TIP3    H150593   2.147   4.257   5.395 -1.0234 -1.3676  1.8361
 9726TIP3    H250594   2.196   4.255   5.538  0.7940 -2.8383  1.2308
 9727TIP3   OH250595   6.683   3.075   2.477 -0.2205  0.0220 -0.9897
 9727TIP3    H150596   6.637   3.011   2.422 -1.3204 -0.2763  0.2306
 9727TIP3    H250597   6.613   3.130   2.513  0.4252 -0.1249  0.5316
 9728TIP3   OH250598   1.599   5.118  13.384  0.0404 -0.3054  0.3918
 9728TIP3    H150599   1.634   5.197  13.425 -1.6758  1.2864 -1.0574
 9728TIP3    H250600   1.658   5.100  13.311  1.3025 -1.3315  1.5927
 9729TIP3   OH250601   4.934   6.463  11.483  0.9749 -0.0888  0.3970
 9729TIP3    H150602   4.953   6.385  11.535 -0.4829 -0.7802 -0.0795
 9729TIP3    H250603   5.017   6.512  11.483  1.5194 -0.9499  1.8358
 9730TIP3   OH250604   1.861   4.925   2.408  0.1044  0.3534 -0.6076
 9730TIP3    H150605   1.911   4.848   2.382 -0.6499 -0.8972  1.3852
 9730TIP3    H250606   1.927   4.985   2.443  0.9925  1.6466 -4.1235
 9731TIP3   OH250607   6.480   4.739  16.226  0.4147 -0.0285 -0.2666
 9731TIP3    H150608   6.423   4.771  16.155 -0.3710  0.6988  0.6734
 9731TIP3    H250609   6.425   4.677  16.273  0.6200  0.1795  0.2474
 9732TIP3   OH250610   4.936   0.096   1.636 -0.1947 -0.5627 -0.1418
 9732TIP3    H150611   4.976   0.019   1.677  0.0087 -0.0505  0.6236
 9732TIP3    H250612   4.843   0.088   1.657  0.1206  0.5960  1.9526
 9733TIP3   OH250613   6.475   3.686  15.833  0.1449  1.0162  0.4277
 9733TIP3    H150614   6.557   3.734  15.817  0.3712  1.1704  1.9203
 9733TIP3    H250615   6.445   3.718  15.918 -0.3387 -0.6219  0.8973
 9734TIP3   OH250616   5.669   1.861   3.261  0.0218  0.2503 -0.5979
 9734TIP3    H150617   5.696   1.812   3.339  0.1695 -0.2225 -0.9374
 9734TIP3    H250618   5.622   1.797   3.208 -1.3041  0.9282 -0.2649
 9735TIP3   OH250619   2.703   0.374  15.888  0.6026  0.9830 -0.2288
 9735TIP3    H150620   2.653   0.407  15.813  0.3113  2.3807  0.5548
 9735TIP3    H250621   2.718   0.282  15.867 -0.9064  0.9239 -1.2332
 9736TIP3   OH250622   2.241   3.832  17.060 -0.4381  0.5163  0.1629
 9736TIP3    H150623   2.323   3.857  17.104 -0.3142 -0.3377  0.4328
 9736TIP3    H250624   2.214   3.911  17.013  1.3256  0.4046 -1.1461
 9737TIP3   OH250625   2.440   3.063   4.626  0.2320 -0.9750  0.0094
 9737TIP3    H150626   2.410   3.111   4.703  0.2618 -0.5760 -0.2266
 9737TIP3    H250627   2.502   2.999   4.661 -0.9603 -1.9000  0.5139
 9738TIP3   OH250628   1.168   5.453   0.828  0.1328  0.3624 -0.5605
 9738TIP3    H150629   1.173   5.363   0.796  0.3036  0.1898 -0.0628
 9738TIP3    H250630   1.239   5.459   0.891 -0.7804  0.4034  0.4909
 9739TIP3   OH250631   4.001   2.848   0.753  0.3712  0.2279  0.0235
 9739TIP3    H150632   3.989   2.904   0.676 -1.2882  1.2160  0.9477
 9739TIP3    H250633   3.916   2.804   0.764  1.3355 -1.7732 -0.1020
 9740TIP3   OH250634   5.731   6.462  13.314  0.3472 -0.0408 -0.0539
 9740TIP3    H150635   5.783   6.466  13.394  0.4354  0.5741 -0.1324
 9740TIP3    H250636   5.780   6.517  13.252 -0.3704  0.5154 -0.1388
 9741TIP3   OH250637   0.107   1.067   3.831  0.1624 -0.2004 -0.1330
 9741TIP3    H150638   0.025   1.034   3.794  0.9507  0.0434 -2.2122
 9741TIP3    H250639   0.173   1.002   3.806  1.1277  1.1722 -1.3233
 9742TIP3   OH250640   3.462   6.319  12.578 -0.8197  0.4038  0.2635
 9742TIP3    H150641   3.400   6.355  12.515 -0.0886 -0.2646 -0.8847
 9742TIP3    H250642   3.437   6.357  12.662  0.3489  4.2285 -0.9180
 9743TIP3   OH250643   0.364   1.866  11.171  0.1754  0.5639 -0.3677
 9743TIP3    H150644   0.419   1.891  11.097  0.8188 -0.0783 -0.1235
 9743TIP3    H250645   0.296   1.811  11.133  0.6577  0.0177 -0.4593
 9744TIP3   OH250646   0.418   4.285  14.221 -0.2543 -0.0079  0.0357
 9744TIP3    H150647   0.337   4.235  14.215 -0.0127 -0.3678 -0.3529
 9744TIP3    H250648   0.438   4.289  14.314 -0.7758  0.1764  0.1379
 9745TIP3   OH250649   1.803   2.317  14.118  0.3304 -0.4116 -0.0848
 9745TIP3    H150650   1.792   2.356  14.204 -0.5291  0.7830 -0.7224
 9745TIP3    H250651   1.887   2.351  14.087 -0.0831  0.3907 -0.3452
 9746TIP3   OH250652   2.904   2.656  12.941 -0.0114  0.0410  0.2547
 9746TIP3    H150653   2.949   2.696  13.015 -0.2136  0.8166 -0.0357
 9746TIP3    H250654   2.937   2.703  12.865 -2.4968  1.7810  0.1539
 9747TIP3   OH250655   4.007   1.730   5.900  0.0929 -0.1475 -0.0918
 9747TIP3    H150656   4.083   1.732   5.842  0.4232  0.2024  0.3386
 9747TIP3    H250657   3.960   1.650   5.877  2.1065 -1.9417  1.5174
 9748TIP3   OH250658   6.736   3.817  13.973 -0.3257 -0.3661  0.0534
 9748TIP3    H150659   6.780   3.791  13.891 -1.6609 -0.0144 -0.8014
 9748TIP3    H250660   6.808   3.835  14.033  0.7974  1.4280 -1.6844
 9749TIP3   OH250661   1.217   1.234   0.430  0.4031 -0.2877 -0.5096
 9749TIP3    H150662   1.242   1.144   0.448 -1.0701 -1.0029 -1.8189
 9749TIP3    H250663   1.129   1.243   0.468  0.9860  0.9610  0.6052
 9750TIP3   OH250664   2.265   6.367  16.139 -0.6785 -0.5299 -0.4535
 9750TIP3    H150665   2.214   6.430  16.188 -1.0559  0.7968 -2.4429
 9750TIP3    H250666   2.253   6.391  16.047 -0.6055 -3.3190 -1.3098
 9751TIP3   OH250667   5.584   4.466   2.166 -0.3758 -0.2414  0.0586
 9751TIP3    H150668   5.498   4.428   2.152 -1.1076  0.5985  1.9000
 9751TIP3    H250669   5.639   4.392   2.191 -0.4344 -0.8365 -1.4608
 9752TIP3   OH250670   2.530   5.276  11.549  0.0064 -0.2010  0.0233
 9752TIP3    H150671   2.555   5.340  11.616 -0.6973 -1.0604  1.1456
 9752TIP3    H250672   2.569   5.309  11.468  1.8038  0.3126  1.0438
 9753TIP3   OH250673   4.906   1.979  16.569  0.3262 -0.1979  0.1463
 9753TIP3    H150674   4.988   2.007  16.612 -0.5072 -1.2281  2.6105
 9753TIP3    H250675   4.855   2.059  16.560  1.3245  0.3623 -0.8762
 9754TIP3   OH250676   4.132   4.705   5.981  0.1486  0.0736  0.5618
 9754TIP3    H150677   4.129   4.792   6.021  0.5222  0.1232  0.4875
 9754TIP3    H250678   4.077   4.712   5.903 -2.1338 -0.5396  2.0429
 9755TIP3   OH250679   5.721   1.898  14.861 -0.6449 -0.2907  0.0123
 9755TIP3    H150680   5.656   1.866  14.924 -2.0222 -0.4888 -1.4353
 9755TIP3    H250681   5.798   1.844  14.877 -1.1963 -0.8153  1.0323
 9756TIP3   OH250682   1.031   0.302  15.248 -0.5591  0.3063  0.3974
 9756TIP3    H150683   1.075   0.267  15.325  0.0428  2.4317  1.0875
 9756TIP3    H250684   1.102   0.340  15.196 -0.8418 -1.7394 -1.6490
 9757TIP3   OH250685   1.774   3.822   1.531  0.4288  0.0339  0.0124
 9757TIP3    H150686   1.714   3.786   1.596 -0.1724  0.6562 -0.1845
 9757TIP3    H250687   1.861   3.806   1.567  0.1038  1.4721  1.5815
 9758TIP3   OH250688   5.466   0.594  13.413  0.8242  0.8944 -0.0635
 9758TIP3    H150689   5.512   0.656  13.357 -0.1389  1.5277 -0.1806
 9758TIP3    H250690   5.518   0.591  13.494  0.7049  2.1207  0.0755
 9759TIP3   OH250691   4.683   4.068   1.571  0.8250  0.3580  0.7314
 9759TIP3    H150692   4.617   4.103   1.631 -1.0110 -2.2354  0.3676
 9759TIP3    H250693   4.662   4.108   1.487 -0.1961 -0.2596  0.6718
 9760TIP3   OH250694   4.232   0.584   1.038  0.4317  0.0837 -0.2945
 9760TIP3    H150695   4.295   0.655   1.024  1.9012 -1.4077 -1.6761
 9760TIP3    H250696   4.285   0.510   1.066 -0.8779 -0.8963 -0.3059
 9761TIP3   OH250697   5.620   1.263  14.521  0.2501 -0.1139  0.7235
 9761TIP3    H150698   5.654   1.180  14.488  1.0745  0.1303  0.9135
 9761TIP3    H250699   5.648   1.328  14.457  0.4866  0.1460  1.0822
 9762TIP3   OH250700   5.874   5.175  14.500  0.0880 -0.0267 -0.8528
 9762TIP3    H150701   5.966   5.164  14.525  0.1345  0.1586 -0.9410
 9762TIP3    H250702   5.840   5.086  14.497  0.5306 -0.1756 -1.8343
 9763TIP3   OH250703   6.287   0.861   4.261  0.0720 -0.2566  0.5246
 9763TIP3    H150704   6.326   0.788   4.214 -0.1550 -0.1882  0.2268
 9763TIP3    H250705   6.318   0.939   4.215  0.6774 -0.1377  1.1117
 9764TIP3   OH250706   0.584   3.034   5.966 -0.2430 -0.4114  0.0114
 9764TIP3    H150707   0.668   3.071   5.993  0.8809 -2.1631 -0.8590
 9764TIP3    H250708   0.578   3.054   5.872 -1.7469  1.3493  0.4329
 9765TIP3   OH250709   5.304   4.384  12.716 -0.2318  0.1244  0.6389
 9765TIP3    H150710   5.251   4.400  12.794 -1.3283 -1.6588  0.3197
 9765TIP3    H250711   5.245   4.405  12.643  0.0882 -0.2315  0.2769
 9766TIP3   OH250712   0.798   0.505   0.702 -0.9325 -0.2693  0.6495
 9766TIP3    H150713   0.875   0.559   0.720 -0.8551 -0.2750  0.3344
 9766TIP3    H250714   0.831   0.430   0.653 -1.0771 -0.4809  0.8768
 9767TIP3   OH250715   6.691   6.472   1.195  0.0750  0.0009  0.6449
 9767TIP3    H150716   6.779   6.478   1.233  0.6111 -1.1988 -0.3315
 9767TIP3    H250717   6.670   6.379   1.198 -0.2497 -0.0191 -1.0776
 9768TIP3   OH250718   3.625   4.997  15.325  0.2844  0.0538 -0.1401
 9768TIP3    H150719   3.545   5.034  15.362  0.3417  0.2224 -0.1836
 9768TIP3    H250720   3.663   5.068  15.274  0.1440 -0.2184 -0.6281
 9769TIP3   OH250721   2.654   5.895   2.132 -0.5572 -0.0480  0.2701
 9769TIP3    H150722   2.672   5.924   2.043 -0.7319  1.4031  0.6786
 9769TIP3    H250723   2.727   5.929   2.184 -0.8295 -0.2406  0.7872
 9770TIP3   OH250724   5.667   1.754   5.587  0.3169  0.3851 -0.0785
 9770TIP3    H150725   5.583   1.797   5.600 -0.0439  0.5058 -2.3292
 9770TIP3    H250726   5.731   1.826   5.589  0.1909  0.4948  0.0994
 9771TIP3   OH250727   0.980   2.628  13.049 -0.2207  0.0146 -0.4849
 9771TIP3    H150728   0.949   2.632  12.959 -0.8262 -1.0607 -0.3435
 9771TIP3    H250729   0.960   2.714  13.085 -3.7454 -0.7614 -0.2174
 9772TIP3   OH250730   3.259   3.833   5.834  0.3137 -0.2886  0.0591
 9772TIP3    H150731   3.201   3.769   5.792  0.5199  0.9735 -2.2957
 9772TIP3    H250732   3.224   3.918   5.808  0.3764  0.6068  2.6636
 9773TIP3   OH250733   5.626   2.657  16.410 -0.2258  0.1250 -0.8215
 9773TIP3    H150734   5.675   2.724  16.456 -2.5198  2.3984 -1.4450
 9773TIP3    H250735   5.557   2.631  16.471 -2.4682  2.2004 -2.2401
 9774TIP3   OH250736   1.356   3.899  12.800  0.2128  0.1128  0.1037
 9774TIP3    H150737   1.348   3.845  12.879 -1.6748  1.9237  1.2412
 9774TIP3    H250738   1.288   3.866  12.741  0.0090  0.3179  0.2224
 9775TIP3   OH250739   6.553   1.511   5.213 -0.4532 -0.3818 -0.5415
 9775TIP3    H150740   6.587   1.449   5.148  0.1268 -0.3045 -0.3125
 9775TIP3    H250741   6.466   1.534   5.180 -1.2450 -2.3406  0.0515
 9776TIP3   OH250742   4.142   0.979  10.801 -0.0718 -0.5255  0.3678
 9776TIP3    H150743   4.216   0.985  10.740  0.0885 -0.5715  0.5583
 9776TIP3    H250744   4.173   0.922  10.871 -0.6459 -1.3973 -0.0625
 9777TIP3   OH250745   1.814   4.267  12.865  0.2776  0.3033 -0.0025
 9777TIP3    H150746   1.735   4.213  12.858 -0.5247  1.5268 -0.7598
 9777TIP3    H250747   1.884   4.204  12.882 -0.7324 -0.8984 -0.1223
 9778TIP3   OH250748   2.913   5.380  15.818  0.2174  0.3427 -0.5878
 9778TIP3    H150749   2.945   5.290  15.829 -0.3781  0.3842  1.8657
 9778TIP3    H250750   2.835   5.370  15.762  0.1858 -0.6549 -0.3939
 9779TIP3   OH250751   1.443   5.716  11.978 -0.0595 -0.1343  0.5283
 9779TIP3    H150752   1.491   5.724  11.895  2.3412 -3.3580  1.3801
 9779TIP3    H250753   1.499   5.758  12.042 -1.5160  1.6183  0.7133
 9780TIP3   OH250754   4.916   0.557  17.150 -0.5472  0.5978 -0.0620
 9780TIP3    H150755   4.854   0.612  17.197  0.8413  2.8609 -0.7231
 9780TIP3    H250756   4.869   0.530  17.071 -1.7523 -0.4738  0.9780
 9781TIP3   OH250757   2.849   0.429  17.306 -0.0607  0.1361 -0.1475
 9781TIP3    H150758   2.945   0.430  17.310 -0.0377  2.3927  0.0949
 9781TIP3    H250759   2.824   0.344  17.340  1.8605 -0.5292 -0.3005
 9782TIP3   OH250760   1.756   2.096   2.106  0.3575  0.2151 -0.0196
 9782TIP3    H150761   1.674   2.056   2.134  1.1810 -1.7045 -0.1851
 9782TIP3    H250762   1.808   2.104   2.186  0.2309  0.9067 -0.0011
 9783TIP3   OH250763   2.000   4.304  14.416 -0.1065  0.6780  0.0870
 9783TIP3    H150764   1.911   4.339  14.421 -1.0838 -1.7198  3.0167
 9783TIP3    H250765   1.999   4.228  14.475  4.0115  0.8032  0.6319
 9784TIP3   OH250766   0.000   5.934   5.986 -0.0829 -0.2600  0.2034
 9784TIP3    H150767  -0.011   5.898   6.074 -0.9081 -0.4919  0.0144
 9784TIP3    H250768   0.037   5.862   5.936 -0.3338 -0.3741  0.1805
 9785TIP3   OH250769   0.444   5.055   2.824  0.3351  0.3638  0.3124
 9785TIP3    H150770   0.399   5.115   2.766 -0.1347 -0.4700 -0.2113
 9785TIP3    H250771   0.471   5.108   2.899 -2.3936  0.7438  1.1404
 9786TIP3   OH250772   5.320   2.042  17.398 -0.4266  0.5660  0.0904
 9786TIP3    H150773   5.264   1.964  17.388  1.0244 -0.3061 -2.1810
 9786TIP3    H250774   5.259   2.116  17.392 -1.7881 -0.3296  1.8394
 9787TIP3   OH250775   3.209   0.305  12.130  0.2884 -0.1289  0.0202
 9787TIP3    H150776   3.132   0.334  12.179  0.6764 -0.3737  0.7803
 9787TIP3    H250777   3.243   0.385  12.090  0.9658  0.3985  1.5655
 9788TIP3   OH250778   2.632   1.296  15.025  0.2606 -0.3730  0.7901
 9788TIP3    H150779   2.538   1.298  15.039  0.0156 -2.6344 -0.1749
 9788TIP3    H250780   2.645   1.231  14.956  2.6097 -0.9862  1.7117
 9789TIP3   OH250781   2.916   4.620  13.207 -0.2772 -0.2390 -0.1867
 9789TIP3    H150782   2.857   4.560  13.162 -1.1138  0.2350  0.2412
 9789TIP3    H250783   2.857   4.683  13.249  0.4302 -1.0329  2.1200
 9790TIP3   OH250784   1.786   6.320   3.394  0.2610 -0.4031 -0.5426
 9790TIP3    H150785   1.871   6.293   3.358  0.6844 -0.4990  0.4953
 9790TIP3    H250786   1.765   6.401   3.347  2.1665  1.0398  0.9295
 9791TIP3   OH250787   6.649   1.906  15.257 -0.1984 -0.3498 -0.3019
 9791TIP3    H150788   6.591   1.837  15.290 -0.8137  0.4940  0.4202
 9791TIP3    H250789   6.668   1.959  15.334  2.1950 -1.0448 -0.3547
 9792TIP3   OH250790   6.367   0.435   4.932 -0.2266  0.0303  0.8390
 9792TIP3    H150791   6.432   0.412   4.865  0.1045  0.6640  0.9401
 9792TIP3    H250792   6.339   0.350   4.967 -0.5349 -0.3169 -0.2145
 9793TIP3   OH250793   0.002   2.163   0.686  0.1703  0.1534 -0.0768
 9793TIP3    H150794   0.023   2.181   0.778 -1.5507  0.7399  0.2486
 9793TIP3    H250795   0.079   2.191   0.638  0.9152  0.3032  1.1594
 9794TIP3   OH250796   2.250   0.449   0.613 -0.4452 -0.0612 -0.0933
 9794TIP3    H150797   2.220   0.533   0.578 -0.5923 -0.5194 -1.0921
 9794TIP3    H250798   2.170   0.405   0.641 -0.2431  0.8002  2.0479
 9795TIP3   OH250799   1.340   5.765  12.433 -0.7607  0.0580  0.0850
 9795TIP3    H150800   1.376   5.805  12.513 -2.2799 -0.9091  1.3045
 9795TIP3    H250801   1.302   5.683  12.463  1.3846 -1.9112 -2.1730
 9796TIP3   OH250802   5.000   3.008   1.997  0.1235 -0.2966  0.2052
 9796TIP3    H150803   4.977   2.918   2.019  0.4551 -0.8488 -1.5233
 9796TIP3    H250804   5.026   3.047   2.080 -0.0516 -1.7891  0.9997
 9797TIP3   OH250805   4.744   3.207   4.472 -0.7346 -0.0217  0.0558
 9797TIP3    H150806   4.833   3.182   4.446 -1.7165 -2.5826 -1.2622
 9797TIP3    H250807   4.702   3.235   4.391 -0.9065  2.2103  0.8445
 9798TIP3   OH250808   3.926   5.164   3.982  0.4320  0.0063 -0.0186
 9798TIP3    H150809   3.841   5.140   4.018  0.7594 -0.3157  0.5485
 9798TIP3    H250810   3.932   5.258   3.997 -0.1697  0.1844 -0.8063
 9799TIP3   OH250811   4.843   3.857   1.462  0.0355 -0.1041  0.0758
 9799TIP3    H150812   4.802   3.812   1.389 -0.9166 -1.2009  1.2466
 9799TIP3    H250813   4.774   3.913   1.498  0.4380  0.2880  0.2544
 9800TIP3   OH250814   0.867   3.904  12.703  0.3969  0.0007  0.2458
 9800TIP3    H150815   0.890   3.995  12.688 -0.7668  0.6057  1.8284
 9800TIP3    H250816   0.930   3.873  12.767 -0.6129  0.4268  1.4796
 9801TIP3   OH250817   0.560   4.355   3.187  0.1309  0.2773 -0.3331
 9801TIP3    H150818   0.600   4.442   3.182  0.4617  0.0848 -1.1154
 9801TIP3    H250819   0.532   4.348   3.279  0.1947  1.1599 -0.2326
 9802TIP3   OH250820   4.491   5.913   5.006  0.0662 -0.7355  0.1057
 9802TIP3    H150821   4.546   5.950   4.937 -1.2487 -0.9016 -1.0683
 9802TIP3    H250822   4.441   5.844   4.962 -0.6855 -0.9514  1.2675
 9803TIP3   OH250823   0.116   5.014  16.257  0.4162 -0.6674  0.1095
 9803TIP3    H150824   0.077   5.100  16.275  1.1710 -0.1200 -0.7986
 9803TIP3    H250825   0.137   4.978  16.343 -1.1091 -0.5196  0.5711
 9804TIP3   OH250826   5.847   0.403   5.129  0.0503  0.1078  0.2345
 9804TIP3    H150827   5.770   0.347   5.141  0.5456 -0.1445  2.5676
 9804TIP3    H250828   5.917   0.342   5.105 -0.0515  0.1259 -0.1269
 9805TIP3   OH250829   6.725   3.327  11.740  0.0956 -0.2534  0.7947
 9805TIP3    H150830   6.691   3.416  11.753 -2.6807 -1.1654  0.5305
 9805TIP3    H250831   6.744   3.297  11.829  0.6643  0.4559  0.9237
 9806TIP3   OH250832   2.990   1.707  17.457 -0.1664  0.2821 -0.4916
 9806TIP3    H150833   2.994   1.802  17.470  3.1296  0.3597 -1.2123
 9806TIP3    H250834   3.030   1.693  17.371 -0.2062 -1.8000 -0.2073
 9807TIP3   OH250835   6.629   1.384  12.296 -0.1147 -0.5820 -0.0091
 9807TIP3    H150836   6.598   1.399  12.207 -0.0981 -0.2843  0.0332
 9807TIP3    H250837   6.687   1.459  12.314 -1.0110 -0.0286  0.6561
 9808TIP3   OH250838   3.562   5.279  11.629 -0.1136 -0.1514  0.7596
 9808TIP3    H150839   3.482   5.293  11.680  0.8789  0.0482  2.3236
 9808TIP3    H250840   3.605   5.365  11.627 -0.1894 -0.1263 -0.5493
 9809TIP3   OH250841   4.605   5.763   4.594  0.6401  0.0948 -0.6422
 9809TIP3    H150842   4.560   5.812   4.525 -0.7900  1.8132  1.3858
 9809TIP3    H250843   4.627   5.830   4.659  0.1773 -1.7242  1.4670
 9810TIP3   OH250844   5.399   3.766  16.613  0.0980  0.3081 -0.3014
 9810TIP3    H150845   5.404   3.859  16.593  1.1078  0.0504 -1.3489
 9810TIP3    H250846   5.482   3.746  16.657 -0.1285 -0.0904 -0.0511
 9811TIP3   OH250847   3.343   6.078  16.700  0.7729  0.3191 -0.0802
 9811TIP3    H150848   3.331   6.091  16.606  0.9461  1.3323  0.0320
 9811TIP3    H250849   3.275   6.014  16.723  1.0726 -0.3524 -0.9807
 9812TIP3   OH250850   3.494   6.176  15.838 -0.4869  0.7079  0.1047
 9812TIP3    H150851   3.527   6.095  15.799  0.2823  0.2744  1.6046
 9812TIP3    H250852   3.482   6.235  15.764  0.7509 -0.1483 -0.8140
 9813TIP3   OH250853   6.295   5.775  15.614 -0.4949 -0.4870 -0.2317
 9813TIP3    H150854   6.260   5.728  15.689 -0.6244  0.5225  0.3578
 9813TIP3    H250855   6.290   5.868  15.639  1.3066 -0.2318 -0.6793
 9814TIP3   OH250856   0.195   1.916   5.631 -0.3310 -0.7106 -0.3139
 9814TIP3    H150857   0.211   2.004   5.598  0.2134 -1.7988 -3.2825
 9814TIP3    H250858   0.124   1.882   5.576 -1.1466 -1.8678  1.3450
 9815TIP3   OH250859   5.259   6.413   2.078  0.1825 -0.2825 -0.4961
 9815TIP3    H150860   5.317   6.488   2.064  0.6711 -0.7627 -1.1218
 9815TIP3    H250861   5.315   6.337   2.062 -0.2488 -0.7893  0.3384
 9816TIP3   OH250862   3.617   5.569   0.492 -0.9716 -0.6954 -0.3143
 9816TIP3    H150863   3.602   5.648   0.440 -0.0864 -0.5429 -0.3544
 9816TIP3    H250864   3.706   5.579   0.525 -0.7108 -1.8610 -0.6355
 9817TIP3   OH250865   4.795   4.168   4.722 -0.2846 -0.1104 -0.0131
 9817TIP3    H150866   4.856   4.159   4.794  2.4434 -0.2299 -2.1791
 9817TIP3    H250867   4.800   4.260   4.697 -1.2579 -0.0488 -0.0269
 9818TIP3   OH250868   5.111   2.173  16.589 -0.1975 -0.1661 -0.3467
 9818TIP3    H150869   5.121   2.254  16.540  0.7839 -0.8105 -1.2596
 9818TIP3    H250870   5.116   2.199  16.681  1.6698  0.6479 -0.6266
 9819TIP3   OH250871   4.519   2.832  13.841 -0.6218  0.0972  0.4090
 9819TIP3    H150872   4.504   2.919  13.804 -1.8027  0.0389  0.6825
 9819TIP3    H250873   4.455   2.776  13.796 -0.5587 -0.4224  0.9530
 9820TIP3   OH250874   0.707   6.704  11.739  0.4524 -0.8273  0.3713
 9820TIP3    H150875   0.626   6.658  11.757 -1.1397  1.9788  0.9248
 9820TIP3    H250876   0.771   6.666  11.800 -1.4948 -0.4179  2.7991
 9821TIP3   OH250877   3.358   1.614  11.225 -0.1754  0.0259 -0.0889
 9821TIP3    H150878   3.284   1.603  11.165 -0.0663  0.6050 -0.3384
 9821TIP3    H250879   3.393   1.526  11.236 -0.6057 -0.1821 -0.3542
 9822TIP3   OH250880   6.134   2.790  14.321  0.1144  0.1132  0.1302
 9822TIP3    H150881   6.212   2.789  14.266 -0.2898 -2.4077 -0.5158
 9822TIP3    H250882   6.164   2.825  14.405  1.7486 -0.0886 -0.3391
 9823TIP3   OH250883   4.821   0.229  13.126 -0.1762  0.0384 -0.3299
 9823TIP3    H150884   4.781   0.179  13.055  0.5773  0.2501 -0.9153
 9823TIP3    H250885   4.752   0.236  13.192 -1.1191  0.4358 -1.3236
 9824TIP3   OH250886   1.345   1.828   5.615 -0.5397 -0.2345  0.0454
 9824TIP3    H150887   1.290   1.823   5.537 -0.4442  1.9709 -0.2248
 9824TIP3    H250888   1.288   1.864   5.683 -0.2083 -0.6785  0.5684
 9825TIP3   OH250889   3.481   4.776  12.488  0.3601  0.3695 -0.7037
 9825TIP3    H150890   3.404   4.787  12.544  0.5836 -2.5869  0.3164
 9825TIP3    H250891   3.451   4.719  12.417  1.1693  0.6869 -1.3168
 9826TIP3   OH250892   4.955   6.156  14.643 -0.5421  0.0530  0.1633
 9826TIP3    H150893   4.989   6.195  14.724 -0.5088  0.3951 -0.0131
 9826TIP3    H250894   4.868   6.194  14.632 -1.4902 -1.6848  1.2221
 9827TIP3   OH250895   5.096   0.456  16.938 -0.1732  0.0053 -0.0793
 9827TIP3    H150896   5.077   0.439  17.031  1.5871 -0.2362  0.2836
 9827TIP3    H250897   5.026   0.515  16.909 -0.8386 -0.0338  1.3677
 9828TIP3   OH250898   4.215   2.006   5.445  0.0239  0.0245 -0.2506
 9828TIP3    H150899   4.148   2.074   5.446  0.9469  0.9692 -0.8031
 9828TIP3    H250900   4.191   1.951   5.370 -1.0450 -0.6196  0.5364
 9829TIP3   OH250901   0.044   2.343  13.914  0.4487  0.3224 -0.0353
 9829TIP3    H150902   0.025   2.250  13.903  0.5800  0.4135 -1.1297
 9829TIP3    H250903   0.127   2.345  13.962  0.2822 -0.1119  0.2837
 9830TIP3   OH250904   3.622   1.510  16.344  0.4922 -0.5983  0.5715
 9830TIP3    H150905   3.599   1.466  16.263  0.9952 -0.4053  0.3205
 9830TIP3    H250906   3.545   1.497  16.401  0.7266 -1.9989  0.6016
 9831TIP3   OH250907   4.605   3.311   4.266 -0.3553 -0.7750 -0.4162
 9831TIP3    H150908   4.628   3.400   4.238  0.7288 -0.9393 -0.1160
 9831TIP3    H250909   4.510   3.311   4.274 -0.2864  0.7390  0.8276
 9832TIP3   OH250910   3.237   4.403   4.140  0.1425 -0.5011  0.6075
 9832TIP3    H150911   3.171   4.362   4.196 -0.0919 -1.4659 -0.3263
 9832TIP3    H250912   3.246   4.342   4.066 -0.4181  1.2815 -0.9943
 9833TIP3   OH250913   0.771   1.650   5.522  0.7153  0.3266  0.0335
 9833TIP3    H150914   0.694   1.638   5.468  1.3299 -1.1797 -0.5708
 9833TIP3    H250915   0.748   1.610   5.606  0.0347  1.9911  0.6944
 9834TIP3   OH250916   3.284   4.814   2.726  0.0281  0.7666 -0.4181
 9834TIP3    H150917   3.360   4.842   2.676 -0.3942  1.5246 -0.6552
 9834TIP3    H250918   3.313   4.815   2.817  0.9662 -1.1356 -0.6479
 9835TIP3   OH250919   6.177   4.429   5.820  0.0863 -0.1767 -0.1083
 9835TIP3    H150920   6.146   4.390   5.739  0.7910  1.4777 -1.2151
 9835TIP3    H250921   6.098   4.446   5.871 -0.2537 -3.1977  0.5721
 9836TIP3   OH250922   0.452   1.750   5.643 -0.3828 -0.3307 -0.3980
 9836TIP3    H150923   0.361   1.766   5.619 -0.2557  0.8495 -0.1414
 9836TIP3    H250924   0.469   1.808   5.717 -0.6575 -3.6670  2.5124
 9837TIP3   OH250925   2.066   1.199  11.903 -0.2046 -0.1099  0.1080
 9837TIP3    H150926   2.157   1.172  11.913 -0.2418 -0.4842 -0.4943
 9837TIP3    H250927   2.016   1.130  11.947 -0.2135 -0.0588  0.1788
 9838TIP3   OH250928   1.765   6.604  16.011  0.7438  0.2164 -0.1052
 9838TIP3    H150929   1.801   6.570  16.093  1.0055 -1.7992 -0.9901
 9838TIP3    H250930   1.841   6.613  15.953  0.3157 -0.5764 -0.8213
 9839TIP3   OH250931   0.590   6.237   2.652  0.2464 -0.4316 -0.1203
 9839TIP3    H150932   0.681   6.253   2.627  0.6223 -2.0160  0.1225
 9839TIP3    H250933   0.566   6.313   2.706  0.5794  1.2395 -2.1681
 9840TIP3   OH250934   6.387   4.409  16.699  0.1722 -0.2952  0.1517
 9840TIP3    H150935   6.469   4.367  16.674 -0.4736 -0.5668 -1.6874
 9840TIP3    H250936   6.386   4.405  16.794  1.4595 -1.8610  0.1443
 9841TIP3   OH250937   6.028   5.715  15.242  0.3759  0.6834 -0.0775
 9841TIP3    H150938   5.956   5.693  15.301  0.0664 -1.4671 -1.1412
 9841TIP3    H250939   6.028   5.644  15.177  1.5905  2.2002 -1.8340
 9842TIP3   OH250940   2.330   1.517   3.619 -0.5080 -0.3653  0.3629
 9842TIP3    H150941   2.345   1.427   3.648  2.1142  0.3446  1.5708
 9842TIP3    H250942   2.350   1.516   3.525  1.0492 -0.7835  0.6744
 9843TIP3   OH250943   3.330   6.730   0.462  0.6498  0.7141  0.1663
 9843TIP3    H150944   3.368   6.667   0.401  2.2331 -0.3260  2.1116
 9843TIP3    H250945   3.288   6.676   0.529  0.6401  1.7779  1.0397
 9844TIP3   OH250946   2.560   1.648   2.971 -0.0376  0.3572 -0.3897
 9844TIP3    H150947   2.527   1.614   2.888  0.4249  2.2471 -1.3925
 9844TIP3    H250948   2.646   1.605   2.982  0.0639  0.3791 -1.0804
 9845TIP3   OH250949   5.671   6.740   3.392  0.1953 -0.2618 -0.6253
 9845TIP3    H150950   5.701   6.734   3.301 -1.2831 -1.4765 -1.0705
 9845TIP3    H250951   5.748   6.717   3.444  0.2583 -2.7785 -1.7080
 9846TIP3   OH250952   3.719   5.738   1.568 -0.2468  0.3322  0.2773
 9846TIP3    H150953   3.757   5.824   1.581 -1.5036  0.6960  1.8426
 9846TIP3    H250954   3.625   5.754   1.560 -0.4287 -0.8315 -0.1280
 9847TIP3   OH250955   5.763   0.474   2.620  0.1384 -0.2466 -0.3600
 9847TIP3    H150956   5.850   0.516   2.618 -0.1359  0.6068  2.0333
 9847TIP3    H250957   5.716   0.512   2.546  1.6869 -0.5594 -1.5757
 9848TIP3   OH250958   3.869   4.117   4.306  0.2554  0.1324  0.0977
 9848TIP3    H150959   3.929   4.112   4.380 -0.2405 -0.6746  0.4563
 9848TIP3    H250960   3.840   4.209   4.306 -0.8717 -0.1661  1.8543
 9849TIP3   OH250961   1.696   4.181   3.395 -0.2625  0.1959 -0.3878
 9849TIP3    H150962   1.634   4.108   3.387 -0.3853  0.3918 -1.3578
 9849TIP3    H250963   1.648   4.257   3.363  0.4448  0.3647 -1.0924
 9850TIP3   OH250964   3.636   1.104  14.100  0.3358 -0.4607  0.0449
 9850TIP3    H150965   3.678   1.157  14.167  0.0400  0.9518 -0.8295
 9850TIP3    H250966   3.706   1.080  14.039  0.1617  0.6913 -0.6473
 9851TIP3   OH250967   4.145   4.713  14.657 -0.4580 -0.3988  0.3060
 9851TIP3    H150968   4.227   4.735  14.614 -1.6376  2.8750 -0.5882
 9851TIP3    H250969   4.107   4.643  14.603  0.2984  0.2845 -1.1555
 9852TIP3   OH250970   5.512   3.969   0.900 -0.6659 -0.5015  0.1337
 9852TIP3    H150971   5.470   4.055   0.890  1.8258  0.8944  0.8604
 9852TIP3    H250972   5.545   3.948   0.812 -0.8303 -0.4675  0.0635
 9853TIP3   OH250973   0.849   3.829   4.661 -0.8753 -0.0993  0.3564
 9853TIP3    H150974   0.809   3.764   4.603 -1.6728  1.6799 -1.1798
 9853TIP3    H250975   0.940   3.835   4.630 -0.8939 -0.2443  0.2714
 9854TIP3   OH250976   1.159   4.258   2.033 -0.1739  0.3845 -0.5284
 9854TIP3    H150977   1.254   4.261   2.044 -0.3666  1.4197  1.2056
 9854TIP3    H250978   1.132   4.183   2.087 -0.2486 -0.8040 -2.1475
 9855TIP3   OH250979   5.576   0.358  15.132 -0.2715  0.6744 -0.0242
 9855TIP3    H150980   5.553   0.339  15.223  0.1159  0.4993  0.0403
 9855TIP3    H250981   5.508   0.315  15.080 -0.7538  1.1594  0.1935
 9856TIP3   OH250982   6.116   6.396   6.645 -0.0326 -0.8460 -0.0815
 9856TIP3    H150983   6.140   6.324   6.587  0.6830 -1.1513  0.5778
 9856TIP3    H250984   6.078   6.462   6.587  0.1700 -1.3683 -0.8183
 9857TIP3   OH250985   1.466   4.967   6.331 -0.2416 -0.0735  0.2974
 9857TIP3    H150986   1.381   4.982   6.288 -0.3575 -1.7658 -0.1405
 9857TIP3    H250987   1.443   4.930   6.416  0.0511 -0.6108  0.1457
 9858TIP3   OH250988   0.441   6.010  15.800  0.3631  0.2912 -0.0631
 9858TIP3    H150989   0.471   6.041  15.886 -0.2440  0.8660 -0.0506
 9858TIP3    H250990   0.400   6.087  15.760  1.0474  0.1606 -1.0611
 9859TIP3   OH250991   2.352   1.940   5.080  0.4130 -0.0061  0.8035
 9859TIP3    H150992   2.298   2.017   5.093  1.1211  0.2584  2.4948
 9859TIP3    H250993   2.315   1.875   5.140  1.3951 -0.1149  1.3058
 9860TIP3   OH250994   1.838   4.567  11.936 -0.6974 -0.2375  0.2311
 9860TIP3    H150995   1.907   4.575  12.002 -1.0282 -1.9719  0.8586
 9860TIP3    H250996   1.835   4.473  11.917  0.2254  0.3038 -3.2093
 9861TIP3   OH250997   2.381   1.357  14.047 -0.4084 -0.2762 -0.5266
 9861TIP3    H150998   2.323   1.374  13.972  0.9027 -0.5043 -1.6266
 9861TIP3    H250999   2.464   1.330  14.008  1.1842  2.1119  0.8950
 9862TIP3   OH251000   4.861   5.121  17.324 -0.0027 -0.7138 -0.7319
 9862TIP3    H151001   4.771   5.093  17.341  0.0341 -0.7464 -0.5885
 9862TIP3    H251002   4.874   5.107  17.230 -0.6450  0.7164 -1.0534
 9863TIP3   OH251003   3.514   1.272   3.524 -0.2016  0.6573  0.1069
 9863TIP3    H151004   3.594   1.244   3.567 -0.4171  0.2329  0.2305
 9863TIP3    H251005   3.444   1.240   3.580 -0.4898 -0.0790 -0.6569
 9864TIP3   OH251006   0.858   6.714   2.088  0.2727 -0.0927  0.1375
 9864TIP3    H151007   0.772   6.709   2.131 -0.1666  1.6987 -0.4307
 9864TIP3    H251008   0.859   6.638   2.029 -1.0264 -0.0401  0.0020
 9865TIP3   OH251009   1.252   2.140  17.054 -0.6645 -0.1011  0.6100
 9865TIP3    H151010   1.185   2.115  16.990 -0.4732 -0.9106  0.7163
 9865TIP3    H251011   1.252   2.068  17.118  1.6872 -1.1477 -0.4622
 9866TIP3   OH251012   3.290   1.797   3.925 -0.3005 -0.6925 -0.3542
 9866TIP3    H151013   3.367   1.773   3.874 -1.1600  0.5151 -2.3761
 9866TIP3    H251014   3.307   1.887   3.954 -1.5249  0.2244 -2.2362
 9867TIP3   OH251015   0.888   0.210   0.103 -0.6572 -0.3182  0.3670
 9867TIP3    H151016   0.823   0.182   0.167 -1.2949 -0.3012 -0.2470
 9867TIP3    H251017   0.836   0.233   0.025 -0.0221  0.8466  0.2514
 9868TIP3   OH251018   0.947   4.907   1.195  0.1872 -0.0007  0.1855
 9868TIP3    H151019   1.028   4.894   1.146  0.4436  0.6117  0.4301
 9868TIP3    H251020   0.890   4.955   1.135  0.0940 -0.2208  0.0980
 9869TIP3   OH251021   0.985   4.477  16.342 -0.1726  0.3113 -0.2688
 9869TIP3    H151022   1.037   4.473  16.261 -0.9224 -1.1660 -0.7114
 9869TIP3    H251023   1.001   4.393  16.385  0.3088  1.1250  1.2148
 9870TIP3   OH251024   4.828   2.043   3.706  0.5440  0.1540  0.2205
 9870TIP3    H151025   4.816   1.972   3.642 -0.2867 -0.5898  1.1675
 9870TIP3    H251026   4.847   1.997   3.788 -1.2695  0.9575  1.1333
 9871TIP3   OH251027   1.968   0.450  17.086 -0.4464  0.6059 -0.2747
 9871TIP3    H151028   1.902   0.500  17.038 -2.7161 -0.8169  1.2043
 9871TIP3    H251029   1.936   0.360  17.084  1.0779 -0.0176  1.1219
 9872TIP3   OH251030   1.487   4.574  11.590 -0.1824 -0.3201 -0.3335
 9872TIP3    H151031   1.477   4.639  11.660 -0.1917 -1.4164  0.7012
 9872TIP3    H251032   1.577   4.584  11.560 -0.5977  1.1542 -1.2094
 9873TIP3   OH251033   0.136   0.520  17.056 -0.1708  0.0975  0.0118
 9873TIP3    H151034   0.196   0.566  17.115 -0.9216  0.0071  0.8830
 9873TIP3    H251035   0.186   0.508  16.975  0.0563  2.4619 -0.2864
 9874TIP3   OH251036   1.690   1.693  17.267  0.2340  0.0458  0.3264
 9874TIP3    H151037   1.760   1.733  17.215 -0.5003  2.4403  1.0753
 9874TIP3    H251038   1.723   1.694  17.357 -0.4554  0.5057  0.5805
 9875TIP3   OH251039   0.555   6.608   4.058  0.1400  0.2467  0.3576
 9875TIP3    H151040   0.601   6.668   4.117 -1.2321  1.3114  0.3890
 9875TIP3    H251041   0.465   6.641   4.054 -0.2420 -0.8280 -0.9652
 9876TIP3   OH251042   1.017   5.476   0.471  0.9111  0.8032  0.0225
 9876TIP3    H151043   1.076   5.512   0.405 -0.1739  2.5134 -0.0739
 9876TIP3    H251044   0.964   5.411   0.424  1.4535  0.5954 -0.3132
 9877TIP3   OH251045   1.415   0.415   2.467  0.3298  0.0729 -0.6344
 9877TIP3    H151046   1.503   0.377   2.463  0.4533  0.2815  0.0131
 9877TIP3    H251047   1.429   0.509   2.457 -0.0238 -0.0580 -2.8262
 9878TIP3   OH251048   3.659   0.815  13.203  0.3653  0.1070  0.2020
 9878TIP3    H151049   3.733   0.756  13.199 -0.4830 -0.9670 -0.0944
 9878TIP3    H251050   3.671   0.875  13.129  0.9738  0.0018  0.2162
 9879TIP3   OH251051   0.302   3.172  12.532  0.4890 -0.3791 -0.3913
 9879TIP3    H151052   0.217   3.130  12.517 -1.1387  2.5237 -0.2353
 9879TIP3    H251053   0.317   3.161  12.626 -0.3435  0.0426 -0.1921
 9880TIP3   OH251054   0.765   1.051  14.054 -0.5381 -0.4645  1.0832
 9880TIP3    H151055   0.849   1.080  14.018 -0.6842 -0.4835  0.7141
 9880TIP3    H251056   0.776   0.957  14.066 -1.3268 -0.9481 -1.3855
 9881TIP3   OH251057   4.613   1.451  11.971  0.2893  0.1423  0.0044
 9881TIP3    H151058   4.598   1.542  11.999 -0.6272 -0.1126  0.3859
 9881TIP3    H251059   4.549   1.437  11.901 -0.0364 -0.4165  0.4097
 9882TIP3   OH251060   6.230   6.418   4.509 -0.3567  0.4028 -0.4566
 9882TIP3    H151061   6.250   6.492   4.453 -0.6958  0.0576 -1.0418
 9882TIP3    H251062   6.141   6.393   4.486 -0.6485  0.5002  0.5160
 9883TIP3   OH251063   2.347   1.084  14.381 -0.8875  0.1777  0.5126
 9883TIP3    H151064   2.412   1.014  14.371 -3.5147 -2.1993 -1.6901
 9883TIP3    H251065   2.324   1.082  14.474  1.4933  0.5248  1.1683
 9884TIP3   OH251066   2.880   5.072   1.088  0.3842  0.1375  0.2269
 9884TIP3    H151067   2.823   5.126   1.142  0.0005 -2.2851  2.4247
 9884TIP3    H251068   2.852   4.982   1.105  1.9482 -0.8980 -2.0991
 9885TIP3   OH251069   0.245   1.053   4.482  0.1556 -0.1258 -0.2083
 9885TIP3    H151070   0.194   0.994   4.427  1.7410 -0.0549 -1.8528
 9885TIP3    H251071   0.250   1.008   4.567 -2.6782 -0.0566  0.0919
 9886TIP3   OH251072   3.535   0.359   2.763  0.1358 -0.0635 -0.2136
 9886TIP3    H151073   3.583   0.442   2.755  1.4567 -0.2967  3.2862
 9886TIP3    H251074   3.576   0.315   2.837 -3.6611 -1.6227  1.2310
 9887TIP3   OH251075   4.526   3.870   5.260 -0.2352 -0.0229 -0.4328
 9887TIP3    H151076   4.593   3.881   5.193 -1.8089  0.2669 -2.0247
 9887TIP3    H251077   4.445   3.857   5.211 -1.0142 -2.9040  1.3836
 9888TIP3   OH251078   2.782   3.899   3.297 -0.0191 -0.1769 -0.5631
 9888TIP3    H151079   2.726   3.957   3.245 -0.0843  0.1123 -0.1811
 9888TIP3    H251080   2.844   3.862   3.234 -0.3439 -0.1354 -0.9097
 9889TIP3   OH251081   0.905   3.361  15.360 -0.6608  0.2095  0.0678
 9889TIP3    H151082   0.885   3.449  15.329  0.8302  0.7141  0.4325
 9889TIP3    H251083   0.964   3.325  15.293  1.2776  0.7030  1.4426
 9890TIP3   OH251084   2.027   3.652  11.903  0.0750 -0.0749  0.3215
 9890TIP3    H151085   2.121   3.652  11.884  0.0399 -1.8420 -0.0469
 9890TIP3    H251086   1.996   3.568  11.869 -1.7924  0.7988 -0.2473
 9891TIP3   OH251087   0.916   3.709   3.361  0.1999  0.5462 -0.0716
 9891TIP3    H151088   0.877   3.769   3.298  0.6163  1.0079  0.1095
 9891TIP3    H251089   0.858   3.632   3.359  0.5314  0.3050 -1.4454
 9892TIP3   OH251090   1.931   2.797  16.016  0.7938 -0.8184 -0.2502
 9892TIP3    H151091   2.026   2.782  16.025  1.1025  0.6107 -0.8250
 9892TIP3    H251092   1.913   2.867  16.079  0.8942  1.5723 -2.6705
 9893TIP3   OH251093   6.124   4.052   4.634 -0.1087 -0.0075 -0.5622
 9893TIP3    H151094   6.045   4.085   4.677  0.3113 -1.7198  1.7111
 9893TIP3    H251095   6.105   3.960   4.617  1.6369 -0.7020  0.8673
 9894TIP3   OH251096   5.456   1.035  11.714  0.1869  0.3935  0.4056
 9894TIP3    H151097   5.502   0.970  11.660 -2.0333 -0.5969 -0.4100
 9894TIP3    H251098   5.410   1.090  11.651 -0.4495  0.8067  1.2197
 9895TIP3   OH251099   5.296   2.988  13.877  0.2917  0.0296 -0.5445
 9895TIP3    H151100   5.389   2.990  13.898  0.0294 -0.5090  0.7417
 9895TIP3    H251101   5.263   2.909  13.920 -0.6686 -0.0886 -1.4299
 9896TIP3   OH251102   5.112   4.381   0.113 -0.2775 -0.2943 -0.3118
 9896TIP3    H151103   5.039   4.345   0.062 -0.4941  0.4198 -0.5178
 9896TIP3    H251104   5.187   4.327   0.088 -0.5133 -0.3534 -0.9279
 9897TIP3   OH251105   1.366   6.033  11.874  0.5430  0.0402 -0.1787
 9897TIP3    H151106   1.370   5.979  11.795 -1.3845 -0.7238  0.1912
 9897TIP3    H251107   1.320   6.112  11.847 -1.2397 -0.7501  0.3994
 9898TIP3   OH251108   3.248   5.604   2.594  0.1252  0.1171 -0.5416
 9898TIP3    H151109   3.285   5.611   2.506 -0.7593 -0.4217 -0.9729
 9898TIP3    H251110   3.275   5.518   2.625 -0.4750 -0.1523 -0.7376
 9899TIP3   OH251111   1.770   5.890  13.915 -0.3837  0.1043 -0.5419
 9899TIP3    H151112   1.853   5.915  13.874 -0.6569  0.0025 -1.1670
 9899TIP3    H251113   1.705   5.950  13.878 -0.4644  0.7156  0.5553
 9900TIP3   OH251114   4.510   1.682   2.988 -0.0911  0.2861  0.1308
 9900TIP3    H151115   4.596   1.713   2.960  1.0873 -1.1297  1.9163
 9900TIP3    H251116   4.513   1.587   2.974 -1.5879  0.2773 -0.2903
 9901TIP3   OH251117   6.721   5.864  11.008  0.0460 -0.2559  0.1939
 9901TIP3    H151118   6.760   5.777  11.001 -0.1779 -0.2794 -1.0475
 9901TIP3    H251119   6.759   5.902  11.087  1.0014 -1.0619  0.1345
 9902TIP3   OH251120   3.158   4.220   2.752 -0.5730  0.5639  0.2022
 9902TIP3    H151121   3.186   4.304   2.791  0.7838  0.6777 -0.9132
 9902TIP3    H251122   3.177   4.230   2.659  0.0547 -1.1587  0.1158
 9903TIP3   OH251123   6.292   4.157  12.032 -0.4544  0.1681  0.1527
 9903TIP3    H151124   6.342   4.082  12.065 -0.4397 -0.1020 -0.4763
 9903TIP3    H251125   6.202   4.141  12.062 -0.8025 -0.9648 -1.3651
 9904TIP3   OH251126   1.223   2.187  15.308 -0.0149  0.2732  0.3149
 9904TIP3    H151127   1.196   2.192  15.400 -2.1939 -2.9081 -0.0111
 9904TIP3    H251128   1.169   2.253  15.264 -2.5777 -1.4216  0.7041
 9905TIP3   OH251129   0.258   6.163  17.043  0.9131  0.4838 -0.3038
 9905TIP3    H151130   0.191   6.100  17.017  1.4584 -0.9157  1.4528
 9905TIP3    H251131   0.335   6.138  16.991  1.6752 -1.5905  1.6507
 9906TIP3   OH251132   2.913   5.432   4.608  0.3245 -0.1432 -0.0058
 9906TIP3    H151133   3.007   5.443   4.621  0.1607  1.0600  0.2437
 9906TIP3    H251134   2.895   5.475   4.525  0.1040 -1.0316 -0.4280
 9907TIP3   OH251135   4.165   1.899  16.926  0.3194  0.4787 -0.5878
 9907TIP3    H151136   4.189   1.980  16.881  1.2435  0.6889  0.2669
 9907TIP3    H251137   4.227   1.891  16.997  0.8330 -1.4739 -1.1903
 9908TIP3   OH251138   4.820   2.534  13.535  0.6885 -0.4323 -0.0960
 9908TIP3    H151139   4.828   2.444  13.566 -0.0093 -0.9801 -1.3924
 9908TIP3    H251140   4.844   2.530  13.442 -0.2454  0.5306 -0.4085
 9909TIP3   OH251141   2.943   5.905  15.304 -0.1877 -0.8393  0.3136
 9909TIP3    H151142   2.911   5.980  15.253  1.8339 -0.6369 -0.7733
 9909TIP3    H251143   2.898   5.830  15.266  0.0052 -0.4926 -0.6396
 9910TIP3   OH251144   6.172   6.487  13.837  0.0308  0.1853  0.1847
 9910TIP3    H151145   6.170   6.503  13.742  0.0110  0.1000  0.1708
 9910TIP3    H251146   6.083   6.504  13.866  0.0576  0.2961  0.2027
 9911TIP3   OH251147   5.021   0.133  15.907  0.2125 -0.0721 -0.4267
 9911TIP3    H151148   5.091   0.196  15.891 -0.0696 -0.5772 -4.6511
 9911TIP3    H251149   4.945   0.169  15.863 -1.4148 -1.0632  1.3971
 9912TIP3   OH251150   5.965   4.761  12.471 -0.4055  0.0358 -0.1140
 9912TIP3    H151151   5.995   4.682  12.516 -0.6613  0.2409  0.4286
 9912TIP3    H251152   6.031   4.777  12.403  1.9050  1.6408  2.2978
 9913TIP3   OH251153   5.322   4.855   1.049 -0.1660 -0.4245 -0.1561
 9913TIP3    H151154   5.241   4.844   1.100 -0.3576 -2.4162 -0.8356
 9913TIP3    H251155   5.386   4.799   1.092  0.8325  0.9258  0.2103
 9914TIP3   OH251156   0.941   6.542   1.203  0.3208 -0.2830  0.4165
 9914TIP3    H151157   1.026   6.510   1.234  0.1623 -0.1978  0.9505
 9914TIP3    H251158   0.934   6.630   1.241  0.1278 -0.1729  0.1227
 9915TIP3   OH251159   2.355   5.516  10.599 -0.2705  0.1374  0.3328
 9915TIP3    H151160   2.320   5.442  10.549  0.2163  0.5007 -0.5555
 9915TIP3    H251161   2.278   5.565  10.627 -0.5370  0.0030 -0.1698
 9916TIP3   OH251162   1.675   6.062   1.201  0.6434 -0.1165 -0.7734
 9916TIP3    H151163   1.760   6.061   1.156  1.1029  0.6767  0.0284
 9916TIP3    H251164   1.684   5.997   1.270  1.3584  1.3481  0.5789
 9917TIP3   OH251165   0.797   2.466  16.987  0.6534  0.3659  0.5167
 9917TIP3    H151166   0.732   2.520  17.032  0.3270 -0.4851  1.1031
 9917TIP3    H251167   0.746   2.410  16.929  1.1826  2.7686 -2.4771
 9918TIP3   OH251168   0.623   0.579   4.439 -0.2528 -0.1760 -0.1842
 9918TIP3    H151169   0.602   0.489   4.414  1.6224 -0.1848 -1.9903
 9918TIP3    H251170   0.543   0.611   4.480 -0.5322 -3.0643  1.8518
 9919TIP3   OH251171   5.904   4.960  12.704  0.8921  0.2332  0.6101
 9919TIP3    H151172   5.835   4.958  12.638  1.8835  1.3172 -0.5114
 9919TIP3    H251173   5.976   4.911  12.665  0.0635 -2.9133  2.6955
 9920TIP3   OH251174   5.540   2.161  14.571 -0.2360 -0.5995  0.0371
 9920TIP3    H151175   5.458   2.119  14.596 -0.7104  0.1953 -0.1400
 9920TIP3    H251176   5.516   2.223  14.502  0.3927  0.1002  0.4214
 9921TIP3   OH251177   5.549   5.720  15.913  0.1405 -0.1297  0.2914
 9921TIP3    H151178   5.517   5.779  15.845 -0.2601  1.0040  1.4112
 9921TIP3    H251179   5.506   5.750  15.993 -2.8189 -4.1048  0.4741
 9922TIP3   OH251180   4.331   2.519   5.942 -0.1686 -0.2161  0.0179
 9922TIP3    H151181   4.330   2.469   6.023 -0.4914 -0.8737 -0.3876
 9922TIP3    H251182   4.311   2.455   5.874 -4.6448  1.0943 -0.1908
 9923TIP3   OH251183   4.346   2.949  15.523 -0.4283 -0.2486 -0.5547
 9923TIP3    H151184   4.273   2.968  15.464  0.0033 -0.5220 -1.1867
 9923TIP3    H251185   4.304   2.909  15.600 -0.9411 -0.4098 -0.9097
 9924TIP3   OH251186   2.458   2.991   2.175 -0.4152 -0.6990  0.7725
 9924TIP3    H151187   2.373   3.027   2.152 -0.7250 -1.6609  0.3257
 9924TIP3    H251188   2.521   3.038   2.120 -0.7043 -0.2366  0.8412
 9925TIP3   OH251189   2.144   4.446   6.158 -0.0973  0.5439 -0.0440
 9925TIP3    H151190   2.232   4.410   6.173 -0.9588 -1.9757 -0.5864
 9925TIP3    H251191   2.100   4.436   6.243 -0.1989  0.7802 -0.0694
 9926TIP3   OH251192   1.325   1.063   6.008 -0.3328  0.0297  0.1543
 9926TIP3    H151193   1.409   1.095   6.041  0.0105  0.2258 -0.8727
 9926TIP3    H251194   1.272   1.050   6.087  1.0961 -1.4034  0.9307
 9927TIP3   OH251195   2.558   5.416  17.195 -0.3719 -0.0762  0.1255
 9927TIP3    H151196   2.487   5.478  17.211 -0.4597  0.0655 -0.7612
 9927TIP3    H251197   2.564   5.365  17.275 -1.1451  0.2410  0.3925
 9928TIP3   OH251198   0.966   3.460  12.230  0.5041 -0.2308  0.1698
 9928TIP3    H151199   0.927   3.436  12.315 -1.7648 -1.5089 -1.1429
 9928TIP3    H251200   0.913   3.533  12.198  0.7142 -0.4013 -0.5903
 9929TIP3   OH251201   4.940   2.202   0.303  0.0594  0.4263 -0.0566
 9929TIP3    H151202   4.943   2.289   0.344  0.1789  0.9481 -1.1457
 9929TIP3    H251203   4.868   2.157   0.348 -0.1376  1.1521  0.3750
 9930TIP3   OH251204   1.116   5.909   0.606 -0.0442 -0.5197 -0.0125
 9930TIP3    H151205   1.199   5.956   0.599 -0.5272  1.0065  2.8095
 9930TIP3    H251206   1.137   5.828   0.651  0.1122 -0.9133 -0.7716
 9931TIP3   OH251207   2.775   4.142  15.985 -0.4465  0.8515 -0.1226
 9931TIP3    H151208   2.775   4.120  15.892  1.6947 -0.7948  0.2116
 9931TIP3    H251209   2.701   4.094  16.022 -1.9343  2.2958 -1.0616
 9932TIP3   OH251210   6.007   0.458   5.598  0.4132  0.4283  0.3956
 9932TIP3    H151211   5.918   0.453   5.561 -0.2162  1.1202  1.7562
 9932TIP3    H251212   6.055   0.388   5.553 -0.7813  0.1196 -0.4577
 9933TIP3   OH251213   2.794   4.860  16.552  0.4695 -0.2100  0.0934
 9933TIP3    H151214   2.885   4.861  16.584  0.0844 -0.8440  1.2909
 9933TIP3    H251215   2.767   4.769  16.563 -0.2915 -0.0338 -0.3174
 9934TIP3   OH251216   4.363   6.206  17.091 -0.4022  0.2190  0.5698
 9934TIP3    H151217   4.317   6.263  17.152 -3.2634 -2.3653  1.0640
 9934TIP3    H251218   4.296   6.149  17.055  1.6042 -0.1216 -3.1225
 9935TIP3   OH251219   6.723   0.758  13.162  0.4186  0.2259  0.5011
 9935TIP3    H151220   6.758   0.781  13.248 -0.0037 -1.9292  1.3112
 9935TIP3    H251221   6.759   0.824  13.103  0.1263  2.2222  2.4114
 9936TIP3   OH251222   6.442   0.229  16.350 -0.2258  0.8114 -0.8149
 9936TIP3    H151223   6.450   0.301  16.287 -1.2125  3.2932  1.7187
 9936TIP3    H251224   6.365   0.250  16.401  0.3024 -1.3105  1.0090
 9937TIP3   OH251225   6.003   6.375   2.018  0.4003  0.0003 -0.1677
 9937TIP3    H151226   5.938   6.396   2.085  0.4105 -0.2790 -0.0677
 9937TIP3    H251227   6.021   6.282   2.031  0.2743 -0.0963 -0.6745
 9938TIP3   OH251228   1.197   0.713   0.246  0.0961  0.2484 -0.2151
 9938TIP3    H151229   1.211   0.633   0.195 -1.8368 -0.1217 -0.2665
 9938TIP3    H251230   1.270   0.716   0.307  0.2506 -1.5390 -0.2448
 9939TIP3   OH251231   2.075   2.814   4.333  0.1798 -0.3203  0.0964
 9939TIP3    H151232   2.062   2.856   4.248  0.2994 -0.4729  0.0021
 9939TIP3    H251233   2.142   2.747   4.317  1.1372  0.4884  0.5874
 9940TIP3   OH251234   5.835   2.081  11.571  0.5850  0.6556 -0.6500
 9940TIP3    H151235   5.843   2.168  11.532  1.5444  1.4359  1.1502
 9940TIP3    H251236   5.742   2.073  11.594  0.4939  1.2087 -0.8234
 9941TIP3   OH251237   5.478   2.116  16.656 -0.0416  0.4030 -0.0186
 9941TIP3    H151238   5.424   2.193  16.635 -0.8613 -0.2855 -0.5128
 9941TIP3    H251239   5.498   2.125  16.749 -0.5026  0.9882  0.0307
 9942TIP3   OH251240   1.930   3.891   3.975 -0.1569  0.1319 -0.6950
 9942TIP3    H151241   1.871   3.923   4.044  0.5306 -0.3480  0.1369
 9942TIP3    H251242   2.007   3.859   4.022 -0.6912 -2.5002 -1.4472
 9943TIP3   OH251243   6.712   6.477  14.267 -0.6430 -0.2784 -0.1200
 9943TIP3    H151244   6.655   6.415  14.313 -1.6392 -0.4870 -1.5641
 9943TIP3    H251245   6.743   6.429  14.191  0.9325  0.0763  0.2636
 9944TIP3   OH251246   4.552   0.873  13.129 -0.1042 -0.2394 -0.3545
 9944TIP3    H151247   4.635   0.845  13.092 -0.3379  0.4689 -1.4701
 9944TIP3    H251248   4.528   0.803  13.190  0.2845 -1.4897 -1.5821
 9945TIP3   OH251249   1.948   1.107   3.579 -0.3493  0.0220 -0.0857
 9945TIP3    H151250   2.038   1.131   3.558 -0.2796  1.7828  1.8532
 9945TIP3    H251251   1.954   1.016   3.610  0.3888 -0.5758 -1.8534
 9946TIP3   OH251252   4.245   2.140  12.622  0.4052 -0.2026  0.3949
 9946TIP3    H151253   4.327   2.146  12.574 -0.4613  2.9157 -0.9442
 9946TIP3    H251254   4.257   2.196  12.698 -1.2559  2.6420 -1.2803
 9947TIP3   OH251255   1.091   2.559  11.953 -0.4266  0.2576  0.1846
 9947TIP3    H151256   1.032   2.620  11.908 -0.2485  2.3791  2.5736
 9947TIP3    H251257   1.042   2.531  12.030  0.9367  0.5418  1.1911
 9948TIP3   OH251258   5.477   4.250   1.580  0.2308 -0.3003  0.1929
 9948TIP3    H151259   5.452   4.195   1.506 -2.8517  1.3727 -0.1948
 9948TIP3    H251260   5.563   4.284   1.557  0.0713 -1.1220 -1.8312
 9949TIP3   OH251261   5.870   6.309  14.587 -0.2959 -0.1499  0.1051
 9949TIP3    H151262   5.803   6.345  14.646 -0.8139 -3.1151  1.5024
 9949TIP3    H251263   5.820   6.252  14.527  0.5160  1.0033 -1.7500
 9950TIP3   OH251264   3.090   4.844  15.577  0.3637 -0.7639 -0.0507
 9950TIP3    H151265   3.165   4.840  15.636 -0.6523 -1.5440  1.2420
 9950TIP3    H251266   3.033   4.772  15.605 -0.5134 -0.6848 -1.5003
 9951TIP3   OH251267   4.949   5.294  14.991  0.4113  0.2735 -0.2272
 9951TIP3    H151268   4.928   5.380  15.027 -0.1576 -0.5684  1.5598
 9951TIP3    H251269   5.043   5.284  15.009 -0.0531 -0.5215  1.9736
 9952TIP3   OH251270   0.161   3.651   3.217  0.4364 -0.2932 -0.0506
 9952TIP3    H151271   0.220   3.701   3.160  1.3068 -0.6312  0.5429
 9952TIP3    H251272   0.182   3.680   3.305 -0.7094  0.0139  0.1426
 9953TIP3   OH251273   3.979   2.561  15.718 -0.6577 -0.9431  0.3048
 9953TIP3    H151274   3.888   2.533  15.707 -1.4075  0.8566  1.5725
 9953TIP3    H251275   3.975   2.656  15.723  1.3335 -0.8159  0.2232
 9954TIP3   OH251276   5.778   1.045  16.439  0.2796 -0.4009  0.8395
 9954TIP3    H151277   5.743   1.106  16.374  0.9165 -0.5073  0.3844
 9954TIP3    H251278   5.720   0.969  16.435  0.5559 -0.5735  0.1061
 9955TIP3   OH251279   1.972   6.611  12.568 -0.2488 -0.2013  0.2324
 9955TIP3    H151280   1.995   6.595  12.476 -1.6277 -0.4560 -0.0840
 9955TIP3    H251281   2.055   6.603  12.615  0.6532  0.8828 -1.1010
 9956TIP3   OH251282   0.656   0.694  15.055 -0.0357 -0.7449  0.1642
 9956TIP3    H151283   0.672   0.670  14.964 -0.7207 -0.5723 -0.0103
 9956TIP3    H251284   0.715   0.638  15.105 -0.5130 -1.7142 -0.3147
 9957TIP3   OH251285   5.567   4.432  16.667  0.3639  0.7341  0.3475
 9957TIP3    H151286   5.479   4.393  16.665  0.5601  0.3250 -0.5442
 9957TIP3    H251287   5.562   4.496  16.738 -0.8768  1.2344 -0.1602
 9958TIP3   OH251288   6.210   3.891   6.057  0.2924  0.0944  0.5484
 9958TIP3    H151289   6.234   3.954   6.125 -0.1772 -0.1904  0.9813
 9958TIP3    H251290   6.226   3.938   5.975 -0.1723  0.8301  0.8616
 9959TIP3   OH251291   0.384   0.090   2.159 -0.3070 -0.0924  0.2590
 9959TIP3    H151292   0.364   0.063   2.070  0.1195  1.0153 -0.1859
 9959TIP3    H251293   0.306   0.139   2.188 -1.6976 -2.8389  1.5785
 9960TIP3   OH251294   5.256   5.402   6.264 -0.3323  0.1251  0.0068
 9960TIP3    H151295   5.240   5.349   6.186  0.2289  0.5546 -0.4135
 9960TIP3    H251296   5.351   5.395   6.277 -0.2784  0.8824  0.0423
 9961TIP3   OH251297   4.684   6.472  11.421 -0.3602 -0.3143  0.0722
 9961TIP3    H151298   4.683   6.568  11.411 -1.1438 -0.1695  1.3321
 9961TIP3    H251299   4.776   6.452  11.441 -0.0530  0.0816 -0.8699
 9962TIP3   OH251300   5.322   4.348  16.955 -0.3473  0.1537  0.0662
 9962TIP3    H151301   5.318   4.302  16.872 -0.7123 -0.6067  0.4977
 9962TIP3    H251302   5.398   4.406  16.947  0.8485 -1.3686 -0.0598
 9963TIP3   OH251303   2.838   4.089   2.187  0.0689  0.1584 -0.3937
 9963TIP3    H151304   2.899   4.050   2.250 -1.0253 -1.3096 -0.2099
 9963TIP3    H251305   2.847   4.184   2.201  1.9585 -0.0248 -0.0679
 9964TIP3   OH251306   2.031   0.682  15.538 -0.4112 -0.6885  0.1589
 9964TIP3    H151307   2.022   0.776  15.553 -0.9604 -0.7563  0.2622
 9964TIP3    H251308   2.032   0.673  15.443 -0.4359 -0.5830  0.1490
 9965TIP3   OH251309   2.095   5.133   1.104  1.0590 -0.0913 -0.0219
 9965TIP3    H151310   2.067   5.047   1.070  2.2721 -0.3918 -0.3208
 9965TIP3    H251311   2.025   5.159   1.163 -0.8792  0.1717 -2.2878
 9966TIP3   OH251312   3.824   0.093  13.023  0.0961 -0.2500  0.2838
 9966TIP3    H151313   3.798   0.001  13.012  1.6946 -0.6456 -0.4194
 9966TIP3    H251314   3.741   0.140  13.033 -0.7017 -2.0866  3.6445
 9967TIP3   OH251315   4.806   1.486  12.669 -0.2333 -0.7406 -0.4541
 9967TIP3    H151316   4.901   1.475  12.666 -0.0053  0.9106 -0.6508
 9967TIP3    H251317   4.786   1.494  12.762  0.3870  2.5015 -0.4772
 9968TIP3   OH251318   2.596   1.592  12.757 -0.2244  0.1394 -0.7640
 9968TIP3    H151319   2.597   1.647  12.835 -1.8718  1.2379 -1.4483
 9968TIP3    H251320   2.585   1.503  12.789 -0.3717  0.5249  0.2778
 9969TIP3   OH251321   2.287   6.302   5.083  0.2378 -0.2754 -0.6163
 9969TIP3    H151322   2.344   6.242   5.131  0.2541  0.0600 -0.2152
 9969TIP3    H251323   2.263   6.369   5.146 -0.0480 -0.0346 -0.9725
 9970TIP3   OH251324   3.842   5.559  16.499  0.9620 -0.0681  0.2447
 9970TIP3    H151325   3.881   5.624  16.441  0.0868 -0.8838 -1.3108
 9970TIP3    H251326   3.911   5.494  16.514  0.6153 -0.8963 -1.5461
 9971TIP3   OH251327   4.196   2.719   1.979  0.1599  0.1365 -0.8773
 9971TIP3    H151328   4.192   2.678   2.066  2.2891  2.2922  0.3625
 9971TIP3    H251329   4.129   2.674   1.928  0.4287 -2.8613  1.1543
 9972TIP3   OH251330   1.070   3.237  11.911 -0.7487  0.2245 -0.0710
 9972TIP3    H151331   0.978   3.246  11.936 -0.0477  0.8874  2.5525
 9972TIP3    H251332   1.113   3.312  11.952  1.2164 -0.9393  0.1038
 9973TIP3   OH251333   2.491   5.017   5.881 -0.1223  0.1974  0.9168
 9973TIP3    H151334   2.466   4.941   5.828  1.0369 -0.9423  1.9414
 9973TIP3    H251335   2.482   4.987   5.971 -0.9332  1.7310  1.3813
 9974TIP3   OH251336   3.365   1.898  11.209 -0.4182  0.5172  0.1959
 9974TIP3    H151337   3.362   1.803  11.194 -1.6711  0.1692  2.2608
 9974TIP3    H251338   3.436   1.929  11.152  0.2641 -1.6965 -0.2627
 9975TIP3   OH251339   5.062   1.837  15.754 -0.1171 -0.9269 -0.2482
 9975TIP3    H151340   5.062   1.780  15.677 -1.0203  2.0692 -2.6603
 9975TIP3    H251341   4.970   1.858  15.769  0.2525  0.9045 -0.3013
 9976TIP3   OH251342   0.428   1.789  14.316  0.1726 -0.3242  0.2894
 9976TIP3    H151343   0.487   1.857  14.349 -0.7125  0.5269  0.1670
 9976TIP3    H251344   0.484   1.732  14.264  0.9204  0.3663  0.3150
 9977TIP3   OH251345   3.795   2.256  15.953  0.2152 -0.2463  0.3593
 9977TIP3    H151346   3.744   2.174  15.950  0.6721 -0.5541  0.7875
 9977TIP3    H251347   3.857   2.248  15.881  0.3997 -0.3707  0.5324
 9978TIP3   OH251348   2.781   3.684   1.930  0.1251  0.1780  0.0417
 9978TIP3    H151349   2.868   3.647   1.918  0.3871  1.4545 -2.7198
 9978TIP3    H251350   2.723   3.627   1.878 -0.5401 -0.0549  1.0090
 9979TIP3   OH251351   4.363   3.713   2.409  0.4954 -0.2491 -0.0354
 9979TIP3    H151352   4.282   3.667   2.389  0.3608  0.2762 -0.7296
 9979TIP3    H251353   4.340   3.773   2.480  0.3884 -0.4252  0.0782
 9980TIP3   OH251354   0.424   3.476   1.199 -0.4489  0.3999 -0.7195
 9980TIP3    H151355   0.362   3.460   1.270  0.4191  1.2478  0.2527
 9980TIP3    H251356   0.495   3.414   1.215  0.5840  1.7600  0.2136
 9981TIP3   OH251357   5.080   3.042  16.682 -0.4659  0.1106  0.1814
 9981TIP3    H151358   5.069   3.098  16.605  1.1768  0.2075 -0.0205
 9981TIP3    H251359   5.002   3.057  16.735 -2.1899 -0.7585 -1.9523
 9982TIP3   OH251360   1.966   1.187   4.934 -0.4313  1.1397  0.0372
 9982TIP3    H151361   1.974   1.100   4.895 -2.3641  1.3356 -0.9496
 9982TIP3    H251362   1.955   1.171   5.028  2.1124  0.5329  0.2957
 9983TIP3   OH251363   0.174   6.553   3.453 -0.0982 -0.3715 -0.1086
 9983TIP3    H151364   0.132   6.523   3.534 -1.6552 -1.3160 -1.2053
 9983TIP3    H251365   0.248   6.605   3.482 -1.3942  0.4546  1.9378
 9984TIP3   OH251366   5.376   5.903  13.231 -0.1005  0.0119 -0.7686
 9984TIP3    H151367   5.392   5.986  13.186 -0.9144 -0.3094 -1.6894
 9984TIP3    H251368   5.381   5.837  13.161  2.3991 -0.9597  0.2199
 9985TIP3   OH251369   1.882   3.148   3.820 -0.1618 -0.3632 -0.0665
 9985TIP3    H151370   1.790   3.124   3.821 -0.5750  1.1098  0.4203
 9985TIP3    H251371   1.900   3.175   3.911 -0.3280  3.0332 -0.9182
 9986TIP3   OH251372   2.999   0.153  11.553  0.1856  0.2771  0.1620
 9986TIP3    H151373   3.033   0.164  11.642  0.2632 -1.3307  0.3716
 9986TIP3    H251374   2.931   0.220  11.545  1.2679  1.5077  0.8355
 9987TIP3   OH251375   2.895   1.108   0.643  0.0131 -0.2926  0.5231
 9987TIP3    H151376   2.917   1.176   0.579  0.1443 -0.9104 -0.1088
 9987TIP3    H251377   2.805   1.083   0.621  0.1976 -0.7919  0.3015
 9988TIP3   OH251378   2.852   5.712  16.233 -0.2037 -0.8399  0.1423
 9988TIP3    H151379   2.886   5.790  16.189 -3.7098  0.4301 -0.6928
 9988TIP3    H251380   2.890   5.714  16.321  1.8803  0.2399 -0.7260
 9989TIP3   OH251381   1.061   3.038   1.320 -0.6525  0.0606 -0.3455
 9989TIP3    H151382   1.028   3.048   1.230  0.5870  0.2159 -0.8002
 9989TIP3    H251383   1.078   3.128   1.349 -0.3208 -0.0362 -0.2394
 9990TIP3   OH251384   3.793   3.434   2.478  0.3841 -0.3803 -0.4678
 9990TIP3    H151385   3.867   3.472   2.429  0.2278  0.5180 -0.0372
 9990TIP3    H251386   3.784   3.491   2.554 -1.0616 -0.1942 -0.7559
 9991TIP3   OH251387   6.341   1.461  16.242 -0.8215 -0.1072 -0.1481
 9991TIP3    H151388   6.368   1.537  16.190  0.1020 -1.2599 -1.4089
 9991TIP3    H251389   6.396   1.389  16.211  1.8152 -0.3567  4.2438
 9992TIP3   OH251390   1.251   3.353   5.727  0.0090  0.1993 -0.2329
 9992TIP3    H151391   1.228   3.440   5.759  2.2490  0.8928 -0.3211
 9992TIP3    H251392   1.227   3.354   5.635  1.7051  1.4420 -0.7038
 9993TIP3   OH251393   1.821   5.311   0.518 -0.8734  0.2218 -0.5315
 9993TIP3    H151394   1.867   5.394   0.509 -0.6378  0.4341  1.8287
 9993TIP3    H251395   1.736   5.335   0.555  0.0290 -0.6203  2.4093
 9994TIP3   OH251396   5.353   4.369   4.065  0.0572 -0.4180 -0.2608
 9994TIP3    H151397   5.327   4.294   4.119 -2.4057  1.5641  1.5908
 9994TIP3    H251398   5.274   4.391   4.016  1.0279  0.3861 -1.5121
 9995TIP3   OH251399   3.344   4.227  17.205 -0.3348 -0.2214 -0.0254
 9995TIP3    H151400   3.353   4.290  17.133  1.6384  0.5691  0.8445
 9995TIP3    H251401   3.252   4.200  17.201 -0.8268  1.4340 -1.4821
 9996TIP3   OH251402   5.113   0.879  11.896  0.5070  0.3099  0.8189
 9996TIP3    H151403   5.195   0.832  11.881  0.7319  1.0383 -0.3362
 9996TIP3    H251404   5.137   0.972  11.891 -0.0094  0.5795  2.6272
 9997TIP3   OH251405   2.933   6.051   3.384 -0.2545  0.5302 -0.7844
 9997TIP3    H151406   2.934   6.081   3.475 -0.8612  0.1392 -0.6401
 9997TIP3    H251407   2.841   6.060   3.357 -0.4048 -0.8960 -0.8349
 9998TIP3   OH251408   1.326   2.444   5.392 -0.1430 -0.1209 -0.1068
 9998TIP3    H151409   1.241   2.485   5.408 -0.5415 -0.6838 -0.7447
 9998TIP3    H251410   1.368   2.442   5.478 -0.1967  1.4134 -0.0175
 9999TIP3   OH251411   6.466   4.113   2.671  0.1160  0.2337  0.5373
 9999TIP3    H151412   6.379   4.073   2.678  0.4179 -0.2977  1.5032
 9999TIP3    H251413   6.451   4.205   2.691 -0.7407  0.8794 -2.6535
10000TIP3   OH251414   0.958   3.731   6.871  0.0381 -0.0303  0.0992
10000TIP3    H151415   1.003   3.782   6.938  1.7548 -0.6084 -0.5671
10000TIP3    H251416   0.964   3.785   6.792  0.6712 -0.6613 -0.2894
10001TIP3   OH251417   4.400   1.403   0.682  0.6050 -0.6218  0.3173
10001TIP3    H151418   4.364   1.412   0.593  2.1345  0.2150 -0.2723
10001TIP3    H251419   4.367   1.319   0.713 -2.4129  0.3779  0.1498
10002TIP3   OH251420   1.366   5.246   2.387 -0.0177 -0.0678 -0.4025
10002TIP3    H151421   1.369   5.328   2.338  1.4145 -0.1072 -0.4384
10002TIP3    H251422   1.443   5.197   2.357  0.0968 -0.6932  0.8336
10003TIP3   OH251423   2.639   0.368   2.509  0.5959 -0.1823 -0.1272
10003TIP3    H151424   2.698   0.374   2.435  0.0958 -0.0028 -0.5157
10003TIP3    H251425   2.654   0.448   2.559  0.5567 -0.0560 -0.3187
10004TIP3   OH251426   3.928   5.361   4.316 -0.3300  0.0341 -0.2509
10004TIP3    H151427   3.984   5.362   4.239 -1.9174  0.8512 -1.4555
10004TIP3    H251428   3.880   5.444   4.311 -1.3335 -0.4505  0.9630
10005TIP3   OH251429   0.023   1.210  14.676  0.0732 -0.2666  0.4649
10005TIP3    H151430   0.060   1.258  14.750 -0.0729  1.4676 -0.5229
10005TIP3    H251431   0.031   1.118  14.700 -1.1763  0.2288  3.2431
10006TIP3   OH251432   5.960   4.771  11.321  0.0663 -0.1350  0.0417
10006TIP3    H151433   5.984   4.774  11.229  0.8346 -0.9494  0.1963
10006TIP3    H251434   5.865   4.782  11.322  0.1780  0.9913 -0.7555
10007TIP3   OH251435   3.772   0.798  15.555  0.1936 -1.0193 -0.0490
10007TIP3    H151436   3.766   0.887  15.588  1.7564 -0.7983 -0.3003
10007TIP3    H251437   3.720   0.746  15.617  0.5885 -0.1676  1.0216
10008TIP3   OH251438   3.717   5.618  12.403  0.1682 -0.8872 -0.0525
10008TIP3    H151439   3.675   5.660  12.328 -0.7176 -1.0196  0.3563
10008TIP3    H251440   3.678   5.530  12.406  2.3188 -1.9365 -1.1707
10009TIP3   OH251441   4.369   2.546   0.397 -0.1993 -0.0034 -0.7836
10009TIP3    H151442   4.305   2.593   0.451 -0.1226  0.2495 -0.9169
10009TIP3    H251443   4.424   2.614   0.359 -0.6270 -0.1348 -1.6653
10010TIP3   OH251444   1.142   5.270   1.793 -0.2999 -0.5175 -0.2962
10010TIP3    H151445   1.194   5.350   1.792  0.9543 -1.2776  0.9922
10010TIP3    H251446   1.134   5.245   1.701  1.0608 -0.0120 -0.5711
10011TIP3   OH251447   5.147   4.645  16.668  0.1849 -0.0725  0.0029
10011TIP3    H151448   5.143   4.741  16.662  1.3274  0.0436  0.7198
10011TIP3    H251449   5.153   4.627  16.761  1.4181 -0.7504 -0.1862
10012TIP3   OH251450   0.298   2.746   4.701 -0.8391 -0.1796  0.1568
10012TIP3    H151451   0.302   2.686   4.775  0.9454  0.2994  0.4886
10012TIP3    H251452   0.263   2.694   4.629  1.0322 -1.7697  0.3293
10013TIP3   OH251453   4.079   3.919   2.844  0.1900 -0.4293  0.2130
10013TIP3    H151454   4.051   3.886   2.759 -1.4671  0.3812  0.4116
10013TIP3    H251455   4.132   3.848   2.880  0.2312 -1.1205 -1.1317
10014TIP3   OH251456   0.775   4.943   2.587 -0.0754  0.1685  0.0894
10014TIP3    H151457   0.869   4.934   2.598 -0.2025 -1.8138 -0.0902
10014TIP3    H251458   0.765   5.010   2.519  1.1171  1.6209  1.2746
10015TIP3   OH251459   4.827   3.282   3.944  0.4407 -0.2524  0.3050
10015TIP3    H151460   4.805   3.373   3.963  2.8782  0.7063 -1.0044
10015TIP3    H251461   4.759   3.253   3.883 -1.0473  0.2539  1.6562
10016TIP3   OH251462   0.338   0.274   5.106  0.2857 -0.6888 -0.2313
10016TIP3    H151463   0.345   0.256   5.012  0.0658 -0.5926 -0.2666
10016TIP3    H251464   0.382   0.200   5.148  0.0074 -0.9471 -0.3966
10017TIP3   OH251465   2.621   5.020   4.958  0.3173 -0.0715 -0.1150
10017TIP3    H151466   2.673   5.069   5.022  1.5185  1.2713 -2.0381
10017TIP3    H251467   2.671   4.940   4.942 -0.3660 -0.7841  1.1167
10018TIP3   OH251468   3.951   0.990  13.348 -0.1369 -0.0254  0.2745
10018TIP3    H151469   3.967   1.035  13.265  2.7012  0.9774  1.2174
10018TIP3    H251470   3.945   1.060  13.413  0.7649 -0.8599  1.3047
10019TIP3   OH251471   1.958   2.070  10.795  0.6099  0.0516  0.1122
10019TIP3    H151472   1.905   1.991  10.778  0.6675 -0.0923  0.5798
10019TIP3    H251473   2.040   2.054  10.749  0.6405 -0.1825  0.2480
10020TIP3   OH251474   5.731   3.202  16.766 -0.7938 -0.2912 -0.3727
10020TIP3    H151475   5.691   3.189  16.852 -2.6935  0.1285 -1.1375
10020TIP3    H251476   5.667   3.167  16.704  0.6176 -0.7559 -1.6248
10021TIP3   OH251477   6.298   0.634   3.542 -0.1162  0.2231 -0.3055
10021TIP3    H151478   6.323   0.607   3.630 -1.5837  2.5286  0.9447
10021TIP3    H251479   6.231   0.571   3.516 -0.8667  0.4467  0.9791
10022TIP3   OH251480   1.812   0.209   5.388 -0.3492  0.0800  0.0748
10022TIP3    H151481   1.803   0.259   5.306 -1.7616 -2.1349 -1.1997
10022TIP3    H251482   1.904   0.220   5.412 -0.3050  2.1976 -0.8168
10023TIP3   OH251483   4.986   0.830   1.815 -0.4413  0.1019 -0.1620
10023TIP3    H151484   4.947   0.901   1.764 -1.9109  0.0355  0.7961
10023TIP3    H251485   4.968   0.751   1.765  2.4112  0.4439 -1.9407
10024TIP3   OH251486   4.027   6.516   1.188 -0.3914  0.3058 -0.0265
10024TIP3    H151487   4.121   6.523   1.204 -0.5051 -1.3871  1.5532
10024TIP3    H251488   3.987   6.546   1.269 -1.2195  0.3706 -0.4534
10025TIP3   OH251489   3.520   3.762   0.065  0.1968 -0.3556  0.1294
10025TIP3    H151490   3.615   3.764   0.077  0.4834  1.0256 -1.9318
10025TIP3    H251491   3.506   3.796  -0.023 -2.1492 -1.7477 -0.1200
10026TIP3   OH251492   4.312   0.304   0.201 -0.0579  0.1932 -0.0501
10026TIP3    H151493   4.293   0.256   0.281  2.1567  0.0486  0.4338
10026TIP3    H251494   4.399   0.341   0.214 -0.4734  1.9105 -1.5802
10027TIP3   OH251495   2.706   1.332   2.722 -0.1007 -0.0962  0.1150
10027TIP3    H151496   2.740   1.274   2.791 -0.8741 -0.7273 -0.0243
10027TIP3    H251497   2.784   1.371   2.683  0.4480 -1.1768  0.0993
10028TIP3   OH251498   4.184   3.523   5.198 -0.1125  0.0296 -0.0389
10028TIP3    H151499   4.192   3.479   5.283 -1.5264 -0.4932 -0.1432
10028TIP3    H251500   4.249   3.481   5.142  0.8531  0.3940  0.7679
10029TIP3   OH251501   0.098   2.568  12.709  0.8865  0.4095 -0.1407
10029TIP3    H151502   0.012   2.611  12.707  0.6257  0.2477  2.7863
10029TIP3    H251503   0.093   2.502  12.640 -2.1826 -0.9542  1.2079
10030TIP3   OH251504   6.140   6.196   4.253 -0.0328 -0.0027  0.1923
10030TIP3    H151505   6.167   6.134   4.185  2.1985 -1.7226  2.4689
10030TIP3    H251506   6.047   6.177   4.266 -0.1432 -0.6588 -1.3171
10031TIP3   OH251507   3.131   0.470   5.975 -0.3644 -0.3080 -0.0561
10031TIP3    H151508   3.187   0.545   5.994 -1.0437  0.3205 -0.4982
10031TIP3    H251509   3.191   0.395   5.973  0.2786  0.1797  0.6499
10032TIP3   OH251510   0.603   5.331  16.980 -0.1387  0.2247 -0.2785
10032TIP3    H151511   0.655   5.288  17.048  1.3341 -0.1991 -1.5918
10032TIP3    H251512   0.653   5.410  16.958 -1.0330  0.8030 -0.2971
10033TIP3   OH251513   5.301   2.507  16.279 -0.0408  0.1559 -0.0920
10033TIP3    H151514   5.355   2.493  16.357  0.8150 -1.9125 -0.9713
10033TIP3    H251515   5.237   2.436  16.282 -1.6210  1.5282 -0.0081
10034TIP3   OH251516   5.798   1.358  11.183  0.0488 -0.3220  0.0055
10034TIP3    H151517   5.714   1.340  11.141 -1.5117  2.3496  1.7265
10034TIP3    H251518   5.786   1.333  11.274  0.4546  1.6928  0.6643
10035TIP3   OH251519   1.443   2.113  12.794  0.1060  0.0244  0.0436
10035TIP3    H151520   1.498   2.038  12.818  0.0765  0.0358  0.1479
10035TIP3    H251521   1.478   2.143  12.710  0.5390  0.3030  0.3201
10036TIP3   OH251522   0.188   1.213  12.732  0.2019  0.3595  0.1143
10036TIP3    H151523   0.142   1.231  12.650 -0.2625 -0.4974  0.1734
10036TIP3    H251524   0.141   1.263  12.797  1.2060  1.8853 -0.2784
10037TIP3   OH251525   6.198   3.516   5.687  0.3372  0.5692  0.6546
10037TIP3    H151526   6.217   3.608   5.671 -0.6620  0.5928 -0.5634
10037TIP3    H251527   6.149   3.488   5.610 -0.4151 -0.6681  1.5468
10038TIP3   OH251528   1.566   4.788   5.941 -0.3718 -0.0446 -0.2441
10038TIP3    H151529   1.506   4.740   5.998 -0.1952 -1.1264 -0.9339
10038TIP3    H251530   1.630   4.826   6.000  0.2206 -1.7431  0.2667
10039TIP3   OH251531   0.442   2.586  12.149 -0.2701  0.0626  0.1635
10039TIP3    H151532   0.429   2.527  12.223  2.6523  1.4542  1.9613
10039TIP3    H251533   0.512   2.545  12.097 -0.5547  0.3249 -0.4412
10040TIP3   OH251534   4.804   1.254  15.013 -0.0482  0.3879 -0.1614
10040TIP3    H151535   4.749   1.176  15.013 -0.8938  0.9720 -0.2087
10040TIP3    H251536   4.804   1.285  14.923  1.3437 -0.2711 -0.4128
10041TIP3   OH251537   2.006   5.612   3.414  0.4441 -0.5701 -0.1568
10041TIP3    H151538   2.093   5.651   3.404  0.5691 -0.2107  1.9524
10041TIP3    H251539   1.979   5.635   3.503 -2.4340  0.5272 -1.1904
10042TIP3   OH251540   4.843   2.557   3.983 -0.4735 -0.2337 -0.6774
10042TIP3    H151541   4.937   2.540   3.974 -0.4250  0.0753 -0.7411
10042TIP3    H251542   4.833   2.650   3.965 -0.6811 -0.0805  0.1834
10043TIP3   OH251543   0.234   6.528  11.293 -0.1015 -0.5836  0.0555
10043TIP3    H151544   0.238   6.558  11.202  0.1827 -2.0354 -0.4455
10043TIP3    H251545   0.190   6.598  11.340  0.0881  0.3642 -1.1335
10044TIP3   OH251546   0.931   2.888   2.394 -0.3038 -0.0361  0.3294
10044TIP3    H151547   0.957   2.959   2.454 -0.4235  0.2913 -0.0056
10044TIP3    H251548   0.858   2.925   2.344 -1.6361 -1.0438  1.4583
10045TIP3   OH251549   0.475   4.585   0.834  0.0538 -0.1329 -0.2299
10045TIP3    H151550   0.478   4.542   0.920  0.8271 -1.4420 -0.8643
10045TIP3    H251551   0.399   4.643   0.838  0.2505  0.0593  1.4314
10046TIP3   OH251552   1.565   1.138  12.626  0.4450 -0.5654  0.0448
10046TIP3    H151553   1.587   1.118  12.717 -1.7092 -1.5361  0.4161
10046TIP3    H251554   1.544   1.053  12.587 -1.2918  0.0810 -0.5609
10047TIP3   OH251555   0.322   5.472   4.934  0.1628  0.2606 -0.0129
10047TIP3    H151556   0.350   5.485   4.843 -0.1673 -0.1929 -0.1786
10047TIP3    H251557   0.333   5.379   4.949  2.4457  0.6425  1.1559
10048TIP3   OH251558   2.841   2.764  15.558  0.2273 -0.0214  0.0750
10048TIP3    H151559   2.919   2.813  15.529  0.7100 -0.2353  0.9840
10048TIP3    H251560   2.776   2.782  15.491  0.3534  1.9715  0.4329
10049TIP3   OH251561   1.358   2.804  16.314  0.0574  0.5697  0.7907
10049TIP3    H151562   1.328   2.854  16.238  0.6379 -0.3087 -0.0412
10049TIP3    H251563   1.393   2.870  16.374  1.5170  1.1329 -0.6142
10050TIP3   OH251564   1.298   6.475  11.285  0.1033 -0.2344 -0.1221
10050TIP3    H151565   1.383   6.477  11.240 -0.9566  2.0838 -2.2303
10050TIP3    H251566   1.243   6.421  11.229 -0.4074  0.1440  0.0088
10051TIP3   OH251567   2.074   0.884   5.112  0.1617 -0.1861  0.0489
10051TIP3    H151568   2.106   0.796   5.089 -0.9629 -0.6292  0.0939
10051TIP3    H251569   2.054   0.924   5.027 -0.5115 -0.4520  0.0747
10052TIP3   OH251570   2.042   3.414   4.632 -0.4227 -0.0665  0.1152
10052TIP3    H151571   2.088   3.333   4.609  0.0903  0.0362  0.7702
10052TIP3    H251572   2.080   3.480   4.574  0.3229  0.0325  0.7009
10053TIP3   OH251573   0.922   2.068   2.678  0.3825  0.0313  0.0069
10053TIP3    H151574   0.828   2.087   2.676  1.0083  3.7145 -0.4770
10053TIP3    H251575   0.936   2.008   2.605 -1.5445 -0.4944  0.0145
10054TIP3   OH251576   4.604   5.504  17.436  0.1123 -0.0312 -0.2390
10054TIP3    H151577   4.687   5.457  17.441  0.4562 -0.1270 -4.0621
10054TIP3    H251578   4.627   5.590  17.399 -1.0934  1.5155  2.3406
10055TIP3   OH251579   4.532   6.346   2.965  0.6447 -0.4821 -0.3061
10055TIP3    H151580   4.575   6.280   2.911 -0.2613 -0.3539 -1.2114
10055TIP3    H251581   4.554   6.429   2.923 -0.7904 -0.4397 -1.0380
10056TIP3   OH251582   5.978   1.015   5.555  0.0748  0.0618 -0.2148
10056TIP3    H151583   6.003   0.936   5.603  1.6340  0.4831 -0.2822
10056TIP3    H251584   6.061   1.060   5.538 -0.5195  0.4683 -2.3690
10057TIP3   OH251585   5.467   0.147   6.042 -0.3950 -0.3726  0.3870
10057TIP3    H151586   5.374   0.160   6.059 -0.2348  0.0403  0.9908
10057TIP3    H251587   5.487   0.061   6.081 -1.2619 -2.2071 -2.8319
10058TIP3   OH251588   5.738   0.849   3.980  0.7698 -0.1027 -0.1494
10058TIP3    H151589   5.736   0.901   3.900  1.3814 -0.2706 -0.2833
10058TIP3    H251590   5.703   0.764   3.954 -1.4174  0.5642  0.3512
10059TIP3   OH251591   2.125   2.191  13.963  0.1373  0.3258  0.0124
10059TIP3    H151592   2.206   2.182  14.014 -1.0509 -0.7798  1.8085
10059TIP3    H251593   2.097   2.101  13.947 -1.1985  0.6872  0.1993
10060TIP3   OH251594   3.085   1.286  12.957 -0.8610  0.1056  0.2419
10060TIP3    H151595   3.095   1.208  13.011 -2.8231 -0.5194 -0.2088
10060TIP3    H251596   3.130   1.355  13.006  0.1289 -1.0970  1.0980
10061TIP3   OH251597   4.401   3.701  16.141 -0.6236  1.2791  0.3152
10061TIP3    H151598   4.425   3.716  16.232 -0.0363  0.1377  0.3588
10061TIP3    H251599   4.367   3.611  16.139  2.2216  0.0969 -1.0981
10062TIP3   OH251600   5.490   1.411  11.333  0.4854  0.6791  0.2892
10062TIP3    H151601   5.547   1.372  11.400 -0.9473 -0.2992  0.9979
10062TIP3    H251602   5.491   1.349  11.261  0.3118  0.6436  0.3161
10063TIP3   OH251603   5.973   4.250   4.995 -0.0145 -0.0536 -0.3879
10063TIP3    H151604   5.896   4.235   5.050  0.9415  0.3009  1.1148
10063TIP3    H251605   5.993   4.165   4.957 -0.7275 -0.2972 -0.2323
10064TIP3   OH251606   5.265   1.644   2.924  0.0795 -0.1917  0.2860
10064TIP3    H151607   5.197   1.621   2.987 -1.1022  0.7307 -0.6079
10064TIP3    H251608   5.237   1.603   2.842  0.9284 -0.2999  0.0346
10065TIP3   OH251609   6.596   0.126   4.872  0.4396 -0.0301 -0.0284
10065TIP3    H151610   6.556   0.058   4.925 -0.3911  0.5136  0.0661
10065TIP3    H251611   6.678   0.147   4.916  0.5167 -0.7010  0.1463
10066TIP3   OH251612   4.559   2.052   1.142  0.6194  0.2585  0.2814
10066TIP3    H151613   4.524   2.094   1.064 -1.4022 -1.2664  0.2819
10066TIP3    H251614   4.588   2.124   1.197 -1.0336  1.5692 -0.4732
10067TIP3   OH251615   2.817   2.140   4.231 -0.3635  0.2417  0.2769
10067TIP3    H151616   2.812   2.046   4.248 -0.1524  0.2647  0.4804
10067TIP3    H251617   2.782   2.151   4.142  1.1136 -0.2348 -0.3993
10068TIP3   OH251618   3.593   2.340   1.359 -0.1532  0.1476 -0.9688
10068TIP3    H151619   3.513   2.308   1.317  1.0000  0.1212 -3.3032
10068TIP3    H251620   3.656   2.348   1.288  1.1924  2.6470  0.3745
10069TIP3   OH251621   4.283   1.630   6.108 -0.3805 -0.3776  0.4725
10069TIP3    H151622   4.213   1.648   6.170 -1.0009  0.1518 -0.3549
10069TIP3    H251623   4.240   1.579   6.038  0.5621 -2.0508  1.0451
10070TIP3   OH251624   3.987   4.697   4.216 -0.1591 -0.3508  0.3129
10070TIP3    H151625   3.977   4.606   4.244 -2.5858 -0.2051  0.1007
10070TIP3    H251626   4.032   4.740   4.289  2.6015 -1.9942 -0.2658
10071TIP3   OH251627   4.521   4.128  12.502  0.1141 -0.0094 -0.0650
10071TIP3    H151628   4.546   4.209  12.547 -1.7234  0.3912  0.3031
10071TIP3    H251629   4.605   4.087  12.479  1.1235  2.1780 -0.6385
10072TIP3   OH251630   2.465   5.563   2.771 -0.2156 -0.1557 -0.1174
10072TIP3    H151631   2.478   5.593   2.861 -0.8661 -1.4742  0.4540
10072TIP3    H251632   2.498   5.473   2.771 -0.6462 -0.3280 -1.0732
10073TIP3   OH251633   4.828   3.572   0.435 -0.1476  0.3603 -0.1631
10073TIP3    H151634   4.790   3.648   0.390  0.6468  1.9381  1.6825
10073TIP3    H251635   4.920   3.572   0.407  0.4842  1.6686  1.7192
10074TIP3   OH251636   6.528   0.253   1.638 -0.2685  0.2428  0.1920
10074TIP3    H151637   6.579   0.192   1.585 -0.0383  1.4754 -1.0745
10074TIP3    H251638   6.471   0.298   1.575 -0.1509  1.5913  1.0137
10075TIP3   OH251639   1.790   2.616  11.380 -0.1847  0.1513 -0.1616
10075TIP3    H151640   1.817   2.529  11.350 -2.3787 -0.6147 -0.0977
10075TIP3    H251641   1.728   2.598  11.451 -0.6733  1.7753 -0.1476
10076TIP3   OH251642   0.161   0.932  17.357 -0.3141 -0.9732  0.3452
10076TIP3    H151643   0.152   0.842  17.388 -1.0385 -0.8140  0.5974
10076TIP3    H251644   0.256   0.949  17.362 -0.0725 -2.0056 -0.5341
10077TIP3   OH251645   1.663   3.261   1.962  0.6993 -0.2700 -0.7566
10077TIP3    H151646   1.701   3.182   2.000  0.6761 -0.8754 -1.9365
10077TIP3    H251647   1.609   3.229   1.889 -3.3704  0.3511  1.6944
10078TIP3   OH251648   4.016   3.902  16.583 -0.5498 -0.1687  0.3913
10078TIP3    H151649   3.966   3.912  16.664  0.2086 -1.4646  1.0642
10078TIP3    H251650   3.960   3.848  16.526 -0.9809  0.5381  0.1394
10079TIP3   OH251651   2.089   2.242  12.709  0.3612 -0.2859  0.0871
10079TIP3    H151652   2.060   2.260  12.799  0.3281  0.8054 -0.1301
10079TIP3    H251653   2.068   2.150  12.696  0.4148 -0.4778  1.2217
10080TIP3   OH251654   1.895   2.467  11.631  0.3407  0.3890 -0.3091
10080TIP3    H151655   1.950   2.390  11.617  2.0065  1.4711  0.0661
10080TIP3    H251656   1.828   2.462  11.562  0.5565 -1.2363 -0.4383
10081TIP3   OH251657   4.071   3.822   0.992 -0.2202  0.0607  0.0439
10081TIP3    H151658   4.029   3.760   1.051  0.7429 -0.1796  0.5005
10081TIP3    H251659   4.022   3.903   1.003 -0.2735 -0.0809  0.9259
10082TIP3   OH251660   3.282   4.590   4.676  0.7457  0.1123 -0.2598
10082TIP3    H151661   3.278   4.667   4.620 -0.3944  1.0478  1.0502
10082TIP3    H251662   3.227   4.611   4.751 -0.7623 -2.5029 -0.4885
10083TIP3   OH251663   2.198   4.658   0.249 -0.2993 -0.1083  0.1677
10083TIP3    H151664   2.106   4.633   0.262  0.0890 -1.1627  0.9209
10083TIP3    H251665   2.208   4.661   0.154 -0.3301 -3.0288  0.0030
10084TIP3   OH251666   0.067   3.109   5.751  0.1892 -0.5625 -0.4532
10084TIP3    H151667   0.138   3.143   5.805  0.0054 -0.2494 -0.4066
10084TIP3    H251668  -0.011   3.119   5.805  0.2231 -1.7149 -0.1551
10085TIP3   OH251669   6.723   6.314  12.032  0.1432 -0.2687 -0.2973
10085TIP3    H151670   6.636   6.349  12.017  0.5730  1.7498  1.4981
10085TIP3    H251671   6.780   6.363  11.973  0.3347 -0.0964  0.0262
10086TIP3   OH251672   6.694   3.065   0.637 -0.2780  0.1164  0.0912
10086TIP3    H151673   6.619   3.012   0.611  0.2035  0.2652 -1.7002
10086TIP3    H251674   6.656   3.136   0.690 -1.2151 -0.5694  0.3594
10087TIP3   OH251675   6.535   2.648   1.093 -0.3226  0.4910 -0.1543
10087TIP3    H151676   6.569   2.616   1.010  1.0297  0.6001  0.3275
10087TIP3    H251677   6.540   2.743   1.087  1.4413  0.4891  0.6677
10088TIP3   OH251678   4.177   4.122   5.840 -0.5138  0.3195  0.3616
10088TIP3    H151679   4.203   4.101   5.750 -1.0663 -2.9846  0.8156
10088TIP3    H251680   4.252   4.093   5.893 -0.6874  1.1013  1.0504
10089TIP3   OH251681   3.825   4.963   5.942  0.2087  0.4486  0.4110
10089TIP3    H151682   3.848   4.955   5.850 -0.9275  2.3947 -0.0959
10089TIP3    H251683   3.731   4.950   5.944  0.2890 -0.0488  1.3823
10090TIP3   OH251684   5.638   4.487  15.380 -0.0122 -0.5815 -0.3437
10090TIP3    H151685   5.594   4.408  15.414  0.6760 -0.1230  1.7881
10090TIP3    H251686   5.731   4.462  15.376  0.2698  0.2113  0.7625
10091TIP3   OH251687   3.001   5.618  15.966 -0.4272 -0.1713 -0.2755
10091TIP3    H151688   2.968   5.600  16.054 -1.7373 -0.2529 -0.7521
10091TIP3    H251689   2.960   5.551  15.911 -1.5298  1.2630 -1.2981
10092TIP3   OH251690   3.089   0.220  15.851 -0.2317 -0.6552 -0.3078
10092TIP3    H151691   3.071   0.146  15.908 -0.1272 -0.0014  0.5822
10092TIP3    H251692   3.047   0.295  15.893 -1.3931 -0.4060 -1.8224
10093TIP3   OH251693   3.686   5.942  13.600 -0.1647 -0.0123  0.3119
10093TIP3    H151694   3.600   5.921  13.564 -1.8974  0.5361  3.6756
10093TIP3    H251695   3.689   5.893  13.683  2.0708  1.2538  1.0718
10094TIP3   OH251696   5.407   4.682  17.122 -0.0689  0.5698  0.1252
10094TIP3    H151697   5.459   4.645  17.193  0.2837  1.2993  0.2620
10094TIP3    H251698   5.331   4.625  17.115  2.4390 -2.8786 -2.6186
10095TIP3   OH251699   4.511   4.458   0.066  0.6351 -0.3577  0.0232
10095TIP3    H151700   4.565   4.533   0.043 -0.1912 -0.0630 -1.0091
10095TIP3    H251701   4.477   4.426  -0.018 -0.8783 -0.4649  0.6490
10096TIP3   OH251702   4.401   5.254  12.174  0.1265 -0.1447  0.1752
10096TIP3    H151703   4.366   5.257  12.085  2.4292 -2.3063 -0.9324
10096TIP3    H251704   4.324   5.252  12.231 -1.4263 -0.3221 -1.8470
10097TIP3   OH251705   1.590   2.520   2.137 -0.4651 -0.0961 -0.1374
10097TIP3    H151706   1.623   2.608   2.118 -0.5617  0.2416  1.1808
10097TIP3    H251707   1.654   2.483   2.199 -2.2357  0.3908  2.0967
10098TIP3   OH251708   0.521   4.424   1.350 -0.1309 -0.1919  0.1355
10098TIP3    H151709   0.575   4.501   1.370 -1.6527  1.2584 -1.0201
10098TIP3    H251710   0.577   4.369   1.295  1.5733 -0.8036  2.3389
10099TIP3   OH251711   3.883   5.026  14.716 -0.0701 -0.5742  0.3335
10099TIP3    H151712   3.946   4.969  14.671 -0.6349 -0.2684 -0.8795
10099TIP3    H251713   3.916   5.032  14.806  1.2523 -0.9719 -0.1030
10100TIP3   OH251714   2.237   6.025   3.545 -0.2000 -0.2293  0.5237
10100TIP3    H151715   2.301   6.087   3.513 -0.3947 -0.3675 -0.1441
10100TIP3    H251716   2.177   6.010   3.471 -2.5791  1.8735  1.8647
10101TIP3   OH251717   6.499   3.319  10.744  0.3901 -0.4395  0.2039
10101TIP3    H151718   6.487   3.410  10.771  3.3480  0.1057 -0.0592
10101TIP3    H251719   6.468   3.268  10.820  2.1575  0.8945  1.9210
10102TIP3   OH251720   2.693   0.912  12.844  0.5018 -0.1016  0.1228
10102TIP3    H151721   2.737   0.833  12.812 -0.1220 -0.0105 -1.0343
10102TIP3    H251722   2.750   0.984  12.817  0.8681 -0.1213  0.8216
10103TIP3   OH251723   0.238   3.444  13.474  0.1999  0.2697  0.0902
10103TIP3    H151724   0.224   3.533  13.440 -2.7683  0.5167  1.5998
10103TIP3    H251725   0.205   3.387  13.405 -1.2955  0.5561  0.5335
10104TIP3   OH251726   3.070   4.833   1.638 -0.0630  0.0094 -0.1700
10104TIP3    H151727   3.106   4.855   1.724  0.1658  1.8127 -0.7030
10104TIP3    H251728   3.048   4.740   1.646 -1.7094  0.5101  2.4076
10105TIP3   OH251729   3.499   5.415  11.327  0.6763  0.5386  0.1918
10105TIP3    H151730   3.476   5.502  11.360 -0.2194 -0.1213  1.3699
10105TIP3    H251731   3.449   5.354  11.382 -0.5353 -0.6606 -2.1060
10106TIP3   OH251732   2.723   4.867  11.595  0.0805  0.5775  0.5670
10106TIP3    H151733   2.675   4.834  11.520 -1.1200  1.2903  1.0080
10106TIP3    H251734   2.660   4.918  11.645  1.4076  2.0234  0.8764
10107TIP3   OH251735   2.103   2.407   6.560  0.0511  0.7442 -0.0279
10107TIP3    H151736   2.081   2.333   6.617 -0.4900 -0.4654 -1.7380
10107TIP3    H251737   2.178   2.376   6.509  0.0385  1.5098 -0.5208
10108TIP3   OH251738   3.894   4.080  13.878  0.0472 -0.0418  0.5927
10108TIP3    H151739   3.923   3.989  13.882  0.7547  0.1259 -0.4425
10108TIP3    H251740   3.914   4.108  13.788  0.5012  1.3417  1.0949
10109TIP3   OH251741   1.281   3.486  14.684 -0.5604  0.8352 -0.0092
10109TIP3    H151742   1.251   3.446  14.603  1.6570  1.1811 -1.0990
10109TIP3    H251743   1.313   3.413  14.737  1.1939  0.8280 -0.9696
10110TIP3   OH251744   6.667   5.189  17.337 -0.1617  0.2277  0.4640
10110TIP3    H151745   6.632   5.220  17.253  3.2826  0.2231 -1.1494
10110TIP3    H251746   6.600   5.128  17.369 -1.8838  0.6692 -1.9665
10111TIP3   OH251747   6.341   6.043   5.233  0.3342  0.1458  0.4210
10111TIP3    H151748   6.424   6.000   5.215  0.6760  0.4678  1.1867
10111TIP3    H251749   6.297   5.985   5.294 -0.9697 -1.1168 -1.5817
10112TIP3   OH251750   2.870   4.036   4.862  0.1661  0.3666  0.2860
10112TIP3    H151751   2.851   4.126   4.834 -1.4814  0.4851  1.5947
10112TIP3    H251752   2.789   3.988   4.843  0.6902 -0.6073  0.4858
10113TIP3   OH251753   5.670   2.767  17.305  0.1231  0.1281  0.4738
10113TIP3    H151754   5.602   2.834  17.299 -0.2618 -0.2953  0.0078
10113TIP3    H251755   5.624   2.685  17.290  0.7996 -0.1288 -0.2644
10114TIP3   OH251756   6.461   2.162  15.066  0.4634  0.4045  0.1550
10114TIP3    H151757   6.541   2.145  15.016  0.7271  1.7070  0.1015
10114TIP3    H251758   6.491   2.210  15.143 -0.2543  0.7769  0.2097
10115TIP3   OH251759   4.142   1.468  16.191  0.8293  0.0058  0.5861
10115TIP3    H151760   4.053   1.481  16.224  1.3087  1.4856  1.3810
10115TIP3    H251761   4.133   1.476  16.096  0.1285  0.2791  0.6702
10116TIP3   OH251762   5.502   5.383  13.663 -0.1074 -0.3283 -0.1495
10116TIP3    H151763   5.454   5.455  13.703  0.5526  0.4636 -0.7346
10116TIP3    H251764   5.569   5.426  13.609  0.2797 -1.3784 -0.5368
10117TIP3   OH251765   3.022   6.413   3.930  0.7776  0.1173 -0.4207
10117TIP3    H151766   2.929   6.392   3.915  0.6667  0.3662 -0.1012
10117TIP3    H251767   3.042   6.479   3.864  0.6941  0.1561 -0.4074
10118TIP3   OH251768   2.899   2.153  15.866 -0.1519  0.1043 -0.3294
10118TIP3    H151769   2.841   2.132  15.939 -0.4828 -0.5481 -0.7701
10118TIP3    H251770   2.958   2.077  15.861  3.1256  2.1470  2.3435
10119TIP3   OH251771   0.637   1.642  11.409 -0.2292 -0.0124  0.0150
10119TIP3    H151772   0.658   1.699  11.335 -0.1459  0.6920  0.5697
10119TIP3    H251773   0.552   1.604  11.387  0.3078 -0.7037 -0.9605
10120TIP3   OH251774   4.997   0.331  12.855  0.5283  0.5307 -0.0731
10120TIP3    H151775   4.928   0.395  12.868  1.0012  0.7572  1.5585
10120TIP3    H251776   5.070   0.363  12.908  0.7826 -1.3100  0.7809
10121TIP3   OH251777   2.841   3.074  13.108  0.1852  0.2286  0.0488
10121TIP3    H151778   2.906   3.004  13.108  0.3955  0.4148 -0.5429
10121TIP3    H251779   2.890   3.152  13.080 -0.3263  0.3258 -0.6158
10122TIP3   OH251780   4.535   2.203  14.686  0.0681 -0.4877  0.5378
10122TIP3    H151781   4.627   2.212  14.661 -0.2254 -0.2527 -0.5073
10122TIP3    H251782   4.501   2.292  14.686 -0.2846 -0.6202  0.3963
10123TIP3   OH251783   2.719   5.667  14.309  0.3693 -0.1697  0.4897
10123TIP3    H151784   2.722   5.603  14.380 -0.9157 -1.3457 -0.4561
10123TIP3    H251785   2.641   5.720  14.328  0.5081  0.0699  0.4007
10124TIP3   OH251786   0.112   5.605   1.440  0.0798 -0.5581  0.1131
10124TIP3    H151787   0.131   5.518   1.474  1.1257 -0.4328 -0.1053
10124TIP3    H251788   0.105   5.592   1.345  2.4186 -0.0922 -0.1792
10125TIP3   OH251789   1.022   5.146  13.290  0.3743 -0.2151 -0.2260
10125TIP3    H151790   1.102   5.176  13.334 -0.2055  0.4440  0.4154
10125TIP3    H251791   1.039   5.055  13.267  0.8755 -0.4396  0.9682
10126TIP3   OH251792   4.793   4.349  16.796 -0.6515  0.1735 -0.0088
10126TIP3    H151793   4.750   4.434  16.810  1.2775  1.3590 -0.8152
10126TIP3    H251794   4.789   4.335  16.702  0.7232  0.3682 -0.1243
10127TIP3   OH251795   6.670   4.314  13.337 -0.1337 -0.1236 -0.4430
10127TIP3    H151796   6.597   4.309  13.275  0.4975 -0.6660 -1.1571
10127TIP3    H251797   6.747   4.329  13.282  0.6741 -2.1646  0.0313
10128TIP3   OH251798   5.805   3.574   0.017 -0.5260  0.8623  0.0912
10128TIP3    H151799   5.793   3.545  -0.074 -2.0743 -0.3119  0.6304
10128TIP3    H251800   5.878   3.522   0.049 -2.2526 -1.3968  0.5578
10129TIP3   OH251801   0.585   1.147  14.817 -0.1772  0.4435 -0.1808
10129TIP3    H151802   0.544   1.127  14.733  0.8845 -0.5153 -0.5017
10129TIP3    H251803   0.652   1.079  14.828 -0.8290  0.0623  1.8329
10130TIP3   OH251804   4.739   3.598  11.296  0.5109  0.0071 -0.1265
10130TIP3    H151805   4.762   3.669  11.356 -0.8957  0.1641  0.2638
10130TIP3    H251806   4.811   3.595  11.233  0.3242  2.1813 -0.5133
10131TIP3   OH251807   1.075   6.726   4.094  0.0541  0.3447  0.0971
10131TIP3    H151808   1.168   6.751   4.090  0.0162  0.3716 -1.2786
10131TIP3    H251809   1.062   6.696   4.184  1.5369 -0.1766  0.1695
10132TIP3   OH251810   2.851   6.019  14.051 -0.0549  0.0427  0.2260
10132TIP3    H151811   2.766   6.020  14.094 -0.5719 -2.8882 -0.5146
10132TIP3    H251812   2.839   5.963  13.974  2.4723 -0.2788 -0.0367
10133TIP3   OH251813   2.791   4.640  16.291 -0.2792 -0.2757  0.2836
10133TIP3    H151814   2.757   4.562  16.247  0.2091 -1.4360  1.8624
10133TIP3    H251815   2.727   4.657  16.361 -0.0484  0.3688  0.3408
10134TIP3   OH251816   5.720   2.969   3.053 -0.4087 -0.1211 -0.2664
10134TIP3    H151817   5.731   3.040   3.116 -2.7069  0.3174 -0.2829
10134TIP3    H251818   5.701   2.892   3.107  0.8760 -0.4928 -0.3095
10135TIP3   OH251819   4.853   0.891  11.411  0.2284 -0.1160  0.6359
10135TIP3    H151820   4.800   0.956  11.365 -0.6813 -1.2897 -0.0077
10135TIP3    H251821   4.798   0.813  11.415  1.8336 -1.3251  0.1041
10136TIP3   OH251822   5.091   5.593   5.378 -0.0829 -0.0866 -0.3531
10136TIP3    H151823   5.074   5.660   5.444 -1.4611 -1.1725  0.4604
10136TIP3    H251824   5.140   5.638   5.310  1.3542  1.0851  1.3776
10137TIP3   OH251825   1.006   5.725  15.798 -0.0893 -0.1817  0.0573
10137TIP3    H151826   0.988   5.689  15.712  1.2312 -3.9730  1.1520
10137TIP3    H251827   0.922   5.718  15.845 -0.1843 -0.5418 -0.1665
10138TIP3   OH251828   4.780   2.790  10.666 -0.6436 -0.3778  0.2943
10138TIP3    H151829   4.709   2.834  10.619 -0.3815 -0.8649 -0.5811
10138TIP3    H251830   4.794   2.709  10.617  1.0249  0.0476  0.0226
10139TIP3   OH251831   1.746   0.417  11.827 -0.0474  0.1880  0.1863
10139TIP3    H151832   1.693   0.441  11.751  1.8436 -0.6263 -1.4781
10139TIP3    H251833   1.763   0.500  11.872 -0.5699  0.7877 -0.6950
10140TIP3   OH251834   3.012   1.300   2.117  0.4889 -0.2043  0.6243
10140TIP3    H151835   2.970   1.215   2.131 -0.4459  0.0385 -0.4967
10140TIP3    H251836   3.070   1.286   2.042 -1.6226  0.6981 -1.3215
10141TIP3   OH251837   0.240   6.446   1.885  0.5439 -0.6696 -0.2608
10141TIP3    H151838   0.192   6.393   1.822 -0.3010 -1.0096  0.6504
10141TIP3    H251839   0.250   6.390   1.962  0.7504  0.0496  0.2510
10142TIP3   OH251840   5.705   6.234  15.253  0.6278  0.8806  0.2944
10142TIP3    H151841   5.726   6.327  15.241  0.5947  0.8129 -0.3082
10142TIP3    H251842   5.662   6.208  15.171 -1.5176  0.9269  1.3383
10143TIP3   OH251843   6.310   5.966  12.660 -0.5015  0.7368 -0.1351
10143TIP3    H151844   6.292   6.000  12.572  0.3964  0.0232 -0.6106
10143TIP3    H251845   6.223   5.949  12.697 -0.8842 -0.6305 -1.5642
10144TIP3   OH251846   5.260   4.872   0.198 -0.4120  0.2270  0.2520
10144TIP3    H151847   5.246   4.952   0.249 -2.3801  0.4867 -0.5823
10144TIP3    H251848   5.236   4.897   0.108  1.9981 -0.4823 -0.6528
10145TIP3   OH251849   0.923   2.986  11.510  0.1985  0.1286  0.1503
10145TIP3    H151850   0.915   3.076  11.541 -0.3245  1.2580 -2.9340
10145TIP3    H251851   0.989   2.990  11.441 -0.6283 -1.6004 -0.8015
10146TIP3   OH251852   2.234   4.198   3.493 -0.3165 -0.1809  0.3265
10146TIP3    H151853   2.201   4.266   3.435  3.1826 -0.1254 -1.9255
10146TIP3    H251854   2.221   4.117   3.444 -0.3574 -0.5751  0.9834
10147TIP3   OH251855   2.846   5.660  15.202 -0.1510  0.1491 -0.3560
10147TIP3    H151856   2.798   5.611  15.135  0.7662 -0.0254 -0.8992
10147TIP3    H251857   2.919   5.603  15.226 -0.3338  0.3118  0.6296
10148TIP3   OH251858   3.837   3.515  15.311 -0.1598  0.1156  0.1075
10148TIP3    H151859   3.842   3.565  15.230  0.0251 -0.1954 -0.0743
10148TIP3    H251860   3.910   3.453  15.306 -1.0267 -0.9265 -0.1789
10149TIP3   OH251861   3.234   3.945  13.289 -0.1952  0.4425 -0.0830
10149TIP3    H151862   3.143   3.953  13.319 -0.6078  2.6654 -1.6371
10149TIP3    H251863   3.228   3.892  13.210 -0.1902  0.7125 -0.2680
10150TIP3   OH251864   4.027   6.445  14.483 -0.0016  0.4128  0.1200
10150TIP3    H151865   3.985   6.517  14.436  0.8328  0.5298 -0.4603
10150TIP3    H251866   3.967   6.426  14.555 -0.3941  1.4811  0.1031
10151TIP3   OH251867   5.311   5.777  11.011  0.0331  0.1009 -0.1448
10151TIP3    H151868   5.263   5.699  10.984 -1.6109  0.2897  2.0184
10151TIP3    H251869   5.326   5.766  11.105  0.5516  1.9811  0.0379
10152TIP3   OH251870   2.098   2.211  12.430  0.4202 -0.0165 -0.1172
10152TIP3    H151871   2.071   2.120  12.416 -0.2148  0.2407 -0.6147
10152TIP3    H251872   2.079   2.228  12.522 -1.6196  0.3002 -0.5431
10153TIP3   OH251873   6.164   4.366  16.210 -0.2278  0.6911 -0.3834
10153TIP3    H151874   6.085   4.389  16.260 -1.1752 -0.4670 -1.2832
10153TIP3    H251875   6.180   4.274  16.232  0.0527  0.5242 -1.2691
10154TIP3   OH251876   2.800   1.263  12.993 -0.4084  0.1226 -0.2000
10154TIP3    H151877   2.833   1.184  13.036 -0.0831 -1.0852 -2.5013
10154TIP3    H251878   2.879   1.315  12.976 -0.3915  0.0369 -0.3867
10155TIP3   OH251879   6.319   3.756   3.580 -0.3407 -0.0454 -0.0003
10155TIP3    H151880   6.406   3.733   3.547  0.2960  1.0350  0.8683
10155TIP3    H251881   6.270   3.784   3.502 -0.1051 -1.1699 -0.5730
10156TIP3   OH251882   3.964   3.073  13.028 -0.3928 -0.1634 -0.1884
10156TIP3    H151883   3.964   3.144  12.964 -1.1727 -1.1422 -1.3366
10156TIP3    H251884   4.048   3.028  13.015 -0.4045 -0.1567 -0.2859
10157TIP3   OH251885   1.932   6.114  13.997  0.4136  0.4421 -0.0514
10157TIP3    H151886   1.974   6.028  14.000  0.2634  0.3052 -1.2217
10157TIP3    H251887   1.881   6.112  13.916 -1.6749  0.6741  1.1567
10158TIP3   OH251888   2.872   3.002   6.034 -0.4757  0.0918 -0.4553
10158TIP3    H151889   2.823   3.013   5.952  0.9302 -1.2560 -1.5299
10158TIP3    H251890   2.936   3.074   6.033  0.0124 -0.3411 -0.9144
10159TIP3   OH251891   0.010   0.405   3.001 -0.5085  0.5772  0.6402
10159TIP3    H151892   0.018   0.312   3.024 -2.1163  0.4940  1.0225
10159TIP3    H251893  -0.084   0.420   2.998 -0.3049  1.7479 -1.3420
10160TIP3   OH251894   0.787   0.747  14.626 -0.1502  0.9204  0.0648
10160TIP3    H151895   0.811   0.727  14.717  1.4136 -0.8613 -0.6961
10160TIP3    H251896   0.696   0.777  14.632  0.1927  1.7030  2.3045
10161TIP3   OH251897   4.342   2.724  13.684  0.6773 -0.2251  0.0433
10161TIP3    H151898   4.314   2.641  13.721  2.6697 -1.4280 -0.9948
10161TIP3    H251899   4.261   2.772  13.669 -0.7069 -2.7507 -1.1449
10162TIP3   OH251900   0.241   2.531  16.120  0.0189  0.0152 -0.2300
10162TIP3    H151901   0.308   2.574  16.067 -0.8194  0.6703 -0.7982
10162TIP3    H251902   0.285   2.455  16.158  0.8034 -0.1502 -1.4200
10163TIP3   OH251903   0.015   6.593  15.812  0.3074  0.3420  0.0986
10163TIP3    H151904   0.094   6.558  15.852  0.4100  1.9380  1.3956
10163TIP3    H251905   0.034   6.686  15.798 -1.6684  1.0176  1.4302
10164TIP3   OH251906   4.546   2.588   3.853  0.0081  0.0256 -0.1887
10164TIP3    H151907   4.613   2.657   3.845 -0.6775  0.8421  0.9049
10164TIP3    H251908   4.464   2.632   3.830 -0.2630 -0.7832 -0.7900
10165TIP3   OH251909   5.545   5.541   4.979  0.0897 -0.2671 -0.0396
10165TIP3    H151910   5.529   5.448   4.964 -1.7843  0.3748 -2.5880
10165TIP3    H251911   5.635   5.555   4.947  0.1011 -1.0378 -0.3562
10166TIP3   OH251912   0.449   6.702  12.036  0.2148  0.0584  0.3552
10166TIP3    H151913   0.506   6.633  12.001 -0.4430 -0.1661 -0.3006
10166TIP3    H251914   0.453   6.690  12.131 -0.9041 -1.7399  0.2260
10167TIP3   OH251915   6.265   6.573  15.290 -0.1772  0.0395 -0.4500
10167TIP3    H151916   6.215   6.615  15.360 -1.2807 -1.0974 -0.5284
10167TIP3    H251917   6.307   6.498  15.331  0.0602 -0.0027 -0.7670
10168TIP3   OH251918   3.355   0.311  15.404  0.2766 -0.0587 -0.4703
10168TIP3    H151919   3.298   0.360  15.344 -1.7533 -2.1400 -0.4203
10168TIP3    H251920   3.335   0.346  15.490  0.2890  0.3323 -0.6250
10169TIP3   OH251921   1.979   4.764   3.566 -0.1556  0.0404 -0.1329
10169TIP3    H151922   1.924   4.836   3.596  0.9290  0.5536  0.7080
10169TIP3    H251923   1.917   4.697   3.537 -1.2584  0.2724  1.5362
10170TIP3   OH251924   5.396   6.183  16.142 -0.5707  0.1152 -0.3811
10170TIP3    H151925   5.372   6.239  16.068 -1.2952  0.2008 -0.0834
10170TIP3    H251926   5.456   6.236  16.194  1.1837 -0.4739 -1.6868
10171TIP3   OH251927   0.510   6.029   4.704  0.1993 -0.0437  0.1615
10171TIP3    H151928   0.527   5.944   4.743 -1.1940 -0.1138  0.6698
10171TIP3    H251929   0.579   6.040   4.639  0.2028 -1.7056 -0.1549
10172TIP3   OH251930   2.683   3.035  12.472 -0.3897 -0.6221 -0.9241
10172TIP3    H151931   2.632   2.963  12.509  0.8282 -0.1327  2.0521
10172TIP3    H251932   2.696   3.096  12.546  2.3920  0.4331 -2.1154
10173TIP3   OH251933   0.931   6.560   3.928 -0.0913 -0.2349  0.3018
10173TIP3    H151934   0.986   6.607   3.991 -1.2782 -0.6800  1.7017
10173TIP3    H251935   0.873   6.627   3.892  0.8115  0.0859 -0.6135
10174TIP3   OH251936   5.715   1.802  16.623 -0.4109 -0.1247 -0.1692
10174TIP3    H151937   5.643   1.739  16.615 -1.2794  0.8279 -0.0098
10174TIP3    H251938   5.785   1.753  16.667 -0.1587 -1.7081 -2.1461
10175TIP3   OH251939   6.122   1.644   4.059  0.1913 -0.0452  0.1526
10175TIP3    H151940   6.116   1.688   3.974  0.8518 -0.3946 -0.0854
10175TIP3    H251941   6.213   1.658   4.086  0.0245 -0.0546  0.7455
10176TIP3   OH251942   0.562   4.052  13.866  0.1578 -0.1153  0.3104
10176TIP3    H151943   0.479   4.019  13.902 -1.1767  1.3391 -1.2137
10176TIP3    H251944   0.577   4.134  13.914 -0.7884  1.0074 -1.1891
10177TIP3   OH251945   5.640   1.925   2.749  0.7456 -0.2560  0.3242
10177TIP3    H151946   5.567   1.918   2.811  0.8735 -0.2226  0.4784
10177TIP3    H251947   5.599   1.917   2.663  0.6062 -0.6230  0.4211
10178TIP3   OH251948   6.735   0.410  15.678  0.0612 -0.0029  0.0823
10178TIP3    H151949   6.705   0.487  15.629  0.3494  0.6165  0.8739
10178TIP3    H251950   6.829   0.407  15.664  0.5908  1.7452  2.7307
10179TIP3   OH251951   2.373   2.199  16.229  0.1732 -0.0531 -0.1290
10179TIP3    H151952   2.374   2.149  16.311 -0.7292  1.4612  0.8442
10179TIP3    H251953   2.371   2.132  16.161 -1.2712 -1.3593  1.1226
10180TIP3   OH251954   1.425   0.920   5.766 -0.3771  0.4878  0.1307
10180TIP3    H151955   1.406   0.998   5.714 -0.6621  0.5298  0.2957
10180TIP3    H251956   1.403   0.946   5.856 -0.5598  0.1901  0.1727
10181TIP3   OH251957   2.053   5.931  13.369  0.6206 -0.5716 -0.2069
10181TIP3    H151958   1.961   5.908  13.354  0.3031 -1.1603  2.2790
10181TIP3    H251959   2.102   5.861  13.326 -0.2427 -2.7519  2.1161
10182TIP3   OH251960   1.573   4.335   5.787  0.2518  0.0590 -0.1105
10182TIP3    H151961   1.507   4.380   5.839  0.4613  0.6479 -0.3522
10182TIP3    H251962   1.592   4.256   5.838 -1.3559 -0.6414 -0.5314
10183TIP3   OH251963   2.656   5.606  15.889 -0.2808  0.1756 -0.0637
10183TIP3    H151964   2.631   5.538  15.827  0.2187 -0.9711  0.9475
10183TIP3    H251965   2.605   5.683  15.863  1.5562  0.4518 -3.2651
10184TIP3   OH251966   0.547   5.546  16.170  0.4606 -0.5639 -0.1297
10184TIP3    H151967   0.537   5.609  16.241 -0.9870 -0.6433 -0.2338
10184TIP3    H251968   0.460   5.507  16.160  0.8604 -1.1982 -1.3479
10185TIP3   OH251969   3.734   3.951   5.698  0.0154  0.2126 -0.0757
10185TIP3    H151970   3.830   3.945   5.704 -0.0502 -0.3394  0.5370
10185TIP3    H251971   3.709   4.012   5.767  0.0143  1.3639 -1.0602
10186TIP3   OH251972   5.349   2.940   1.560 -0.9631  0.4077 -0.4674
10186TIP3    H151973   5.275   2.908   1.611 -0.8825  1.0157  0.0422
10186TIP3    H251974   5.344   2.892   1.477 -2.0445  0.5867 -0.5172
10187TIP3   OH251975   5.873   1.898  13.503 -0.4982  0.5608 -0.2079
10187TIP3    H151976   5.820   1.822  13.481  0.9090 -0.4372 -0.2871
10187TIP3    H251977   5.944   1.863  13.557  1.3697  1.4362 -1.9637
10188TIP3   OH251978   1.460   0.245   6.034 -0.0275 -0.2738  0.0012
10188TIP3    H151979   1.408   0.167   6.015  1.0391 -1.3446  1.2807
10188TIP3    H251980   1.476   0.284   5.948 -0.3247 -1.6389 -0.7040
10189TIP3   OH251981   0.602   2.110   5.919 -0.1154 -0.3029 -0.0235
10189TIP3    H151982   0.657   2.121   5.997  1.9378 -3.2853 -0.8887
10189TIP3    H251983   0.644   2.164   5.852 -0.8471  0.8565  0.4280
10190TIP3   OH251984   2.818   2.874   2.160 -0.2687 -0.4227  0.1870
10190TIP3    H151985   2.781   2.951   2.117  0.6801  1.2336  2.1509
10190TIP3    H251986   2.787   2.880   2.251  2.6441 -0.3298  1.2773
10191TIP3   OH251987   3.216   1.375   4.239 -0.0935  0.0530 -0.3182
10191TIP3    H151988   3.308   1.361   4.258  0.9747  0.9271 -3.9797
10191TIP3    H251989   3.184   1.290   4.208 -0.2134  0.0482 -0.1869
10192TIP3   OH251990   5.247   0.977   5.635 -0.2614  0.0866 -0.0629
10192TIP3    H151991   5.166   0.926   5.641  0.2715 -0.9502 -1.2535
10192TIP3    H251992   5.316   0.916   5.659  0.2889  0.6155 -0.2702
10193TIP3   OH251993   2.149   2.928  13.785  0.3630  0.1456 -0.0690
10193TIP3    H151994   2.205   2.880  13.724  0.9461 -2.0665  2.0655
10193TIP3    H251995   2.188   3.016  13.789  1.2113 -0.1165 -1.6454
10194TIP3   OH251996   6.673   3.861   0.066  0.0332  0.1648 -0.2657
10194TIP3    H151997   6.738   3.886   0.132  0.6259  0.0569 -0.8032
10194TIP3    H251998   6.589   3.887   0.105  0.1667 -1.6909  1.4127
10195TIP3   OH251999   6.344   3.284   1.803 -0.0173  0.1346  0.1674
10195TIP3    H152000   6.360   3.270   1.710 -1.0327 -1.4685  0.2002
10195TIP3    H252001   6.432   3.297   1.840  0.4267  0.4508 -0.9293
10196TIP3   OH252002   3.195   5.599  15.031 -0.0196 -1.2310 -0.0049
10196TIP3    H152003   3.222   5.690  15.015 -0.9247 -0.9213  0.1818
10196TIP3    H252004   3.270   5.559  15.074 -0.0620 -0.2228  1.0633
10197TIP3   OH252005   2.978   2.403   1.191 -0.7742 -0.0634 -0.1826
10197TIP3    H152006   2.917   2.403   1.117 -0.3929  1.6243 -0.5418
10197TIP3    H252007   3.062   2.376   1.153 -0.8038 -0.2005 -0.1511
10198TIP3   OH252008   5.016   2.098  15.450 -0.5079  0.0638 -0.0266
10198TIP3    H152009   4.965   2.110  15.530 -0.3369  0.8518 -0.0240
10198TIP3    H252010   4.999   2.008  15.423 -1.7444  0.2535  0.0783
10199TIP3   OH252011   4.303   0.695   4.453  0.0006  0.1008 -0.2619
10199TIP3    H152012   4.269   0.637   4.385  1.4312  0.8547 -1.6834
10199TIP3    H252013   4.293   0.783   4.417 -0.7741  0.6725  1.2465
10200TIP3   OH252014   1.707   3.254  14.512 -0.1255 -0.4468 -0.0916
10200TIP3    H152015   1.726   3.259  14.418 -1.3569  2.7027 -0.2641
10200TIP3    H252016   1.640   3.186  14.518 -0.3843 -0.3702 -1.5690
10201TIP3   OH252017   2.193   0.146  16.264 -0.8963 -0.2051  0.2400
10201TIP3    H152018   2.143   0.129  16.184 -0.2970  0.0061 -0.1921
10201TIP3    H252019   2.282   0.161  16.233  0.6067 -5.1827  1.2356
10202TIP3   OH252020   1.088   0.918  15.916  0.3201 -0.1586  0.0904
10202TIP3    H152021   1.131   0.995  15.953  1.4033 -1.1559  0.9715
10202TIP3    H252022   1.046   0.875  15.990 -0.7368 -0.1505 -0.4815
10203TIP3   OH252023   5.648   2.806   3.703 -0.4833 -0.2441  0.0835
10203TIP3    H152024   5.585   2.735   3.696 -0.1185 -0.4854 -1.0933
10203TIP3    H252025   5.647   2.848   3.616  1.9486 -1.1560 -0.4825
10204TIP3   OH252026   5.476   2.232  11.814  0.0305 -0.5235  0.2736
10204TIP3    H152027   5.503   2.179  11.739 -0.2025  0.9103 -0.8627
10204TIP3    H252028   5.554   2.281  11.839 -0.9903  2.6729 -2.2146
10205TIP3   OH252029   0.788   4.474   4.259  0.6008 -0.9989 -0.7642
10205TIP3    H152030   0.728   4.523   4.314  1.0029 -1.0374 -0.2803
10205TIP3    H252031   0.859   4.448   4.318  2.9041  2.0053 -1.9588
10206TIP3   OH252032   1.819   1.737  12.709 -0.6576  0.1697 -0.2843
10206TIP3    H152033   1.811   1.676  12.636  0.9857  0.3972 -0.6926
10206TIP3    H252034   1.860   1.686  12.779 -0.3217  0.4954 -0.2375
10207TIP3   OH252035   4.197   2.673  17.404  0.2658 -0.2354  0.4360
10207TIP3    H152036   4.236   2.687  17.491  1.0827 -0.3689  0.1057
10207TIP3    H252037   4.181   2.762  17.371 -1.2843 -0.1899  1.2442
10208TIP3   OH252038   1.892   6.537  11.060 -0.2277  0.1971 -0.3488
10208TIP3    H152039   1.961   6.587  11.104  0.2491 -1.1199  0.4524
10208TIP3    H252040   1.940   6.474  11.005 -0.6208 -2.6624  2.3278
10209TIP3   OH252041   3.848   2.794  14.099 -0.3149  0.0446  0.7588
10209TIP3    H152042   3.895   2.753  14.171  1.2676 -0.6901 -0.6277
10209TIP3    H252043   3.778   2.732  14.078  0.0690 -0.4078  0.7880
10210TIP3   OH252044   2.460   1.850   2.097 -0.1631  0.0596 -0.1061
10210TIP3    H152045   2.417   1.837   2.013 -1.3116 -0.0292  0.4723
10210TIP3    H252046   2.549   1.877   2.075 -0.4880  0.1698 -1.3393
10211TIP3   OH252047   3.466   0.534  12.568  0.3778 -0.5499 -0.3259
10211TIP3    H152048   3.517   0.610  12.540  0.8303 -1.0607 -0.9178
10211TIP3    H252049   3.509   0.459  12.527 -0.1358 -1.1181  0.1450
10212TIP3   OH252050   4.308   3.486  10.818 -0.4766  0.2890  0.2008
10212TIP3    H152051   4.215   3.474  10.837 -0.1370  0.5401  2.2979
10212TIP3    H252052   4.319   3.580  10.809 -0.9231  0.1373 -3.4289
10213TIP3   OH252053   6.618   2.830   5.934  0.0493  0.2637 -0.0516
10213TIP3    H152054   6.653   2.825   6.023  1.2380 -0.1352 -0.5185
10213TIP3    H252055   6.573   2.914   5.931  0.4426  0.5162  0.7769
10214TIP3   OH252056   4.844   2.578  16.686 -0.1069 -0.4012  0.1344
10214TIP3    H152057   4.925   2.532  16.665  0.0051 -0.1678  0.0403
10214TIP3    H252058   4.863   2.624  16.768 -0.0610 -0.1518 -0.0130
10215TIP3   OH252059   4.995   5.575   3.620 -0.0052 -0.5477 -0.0565
10215TIP3    H152060   5.060   5.510   3.647 -0.3809 -0.3493  1.4124
10215TIP3    H252061   5.027   5.658   3.657 -0.6501 -0.3012 -0.0390
10216TIP3   OH252062   3.116   5.518  13.579  0.3807  0.1025  0.3934
10216TIP3    H152063   3.025   5.509  13.553 -0.0403 -0.0489  1.8209
10216TIP3    H252064   3.114   5.516  13.675  2.1105 -2.4410  0.4788
10217TIP3   OH252065   0.156   0.247   2.209 -0.4992  0.2916  0.2811
10217TIP3    H152066   0.175   0.328   2.162  0.8700 -0.8329 -1.2378
10217TIP3    H252067   0.070   0.220   2.179 -1.7575  2.0043  2.1101
10218TIP3   OH252068   4.200   6.164   3.472  0.1672 -0.0277 -0.6210
10218TIP3    H152069   4.148   6.134   3.398  0.4257 -4.0862  0.6116
10218TIP3    H252070   4.225   6.254   3.449 -1.8488 -0.2056 -4.2070
10219TIP3   OH252071   4.188   0.451   2.847 -0.1942 -0.4279  0.0651
10219TIP3    H152072   4.192   0.469   2.941  0.2303 -0.6939  0.1015
10219TIP3    H252073   4.128   0.517   2.812  1.2693  1.0582  0.1979
10220TIP3   OH252074   5.465   5.803   3.720 -0.5304  0.3227 -0.5479
10220TIP3    H152075   5.386   5.757   3.693  0.2288 -0.4590 -1.5605
10220TIP3    H252076   5.438   5.894   3.731 -1.6766 -0.0367 -0.3316
10221TIP3   OH252077   2.559   1.432  11.534  0.4044 -0.2290  0.0675
10221TIP3    H152078   2.548   1.506  11.594 -0.3796  0.0211 -0.3822
10221TIP3    H252079   2.579   1.358  11.592  0.0623  0.0941  0.6068
10222TIP3   OH252080   1.849   1.318  15.090 -0.0632 -0.1960  0.0847
10222TIP3    H152081   1.880   1.232  15.062  2.0610  0.7148 -0.5815
10222TIP3    H252082   1.914   1.379  15.056 -1.1918  1.6386  1.0505
10223TIP3   OH252083   4.343   4.413   2.418 -0.0700  0.2595 -0.1589
10223TIP3    H152084   4.394   4.368   2.350 -1.1041  1.1417 -1.5618
10223TIP3    H252085   4.406   4.426   2.490  0.3862 -3.0315  0.1952
10224TIP3   OH252086   0.784   1.297   3.235  0.2021 -0.2997  0.0881
10224TIP3    H152087   0.796   1.202   3.242  1.2521 -0.2074 -0.2946
10224TIP3    H252088   0.689   1.310   3.237  0.0593 -1.3286  0.4614
10225TIP3   OH252089   1.912   3.891  12.599 -0.1441 -0.4775  0.3135
10225TIP3    H152090   1.822   3.922  12.589  0.3244  1.0484  0.5310
10225TIP3    H252091   1.957   3.922  12.520  0.3553 -0.5624  0.5586
10226TIP3   OH252092   2.031   0.418  14.405  0.2255 -0.4771  0.2902
10226TIP3    H152093   1.950   0.457  14.372  0.9318  0.4731 -0.3864
10226TIP3    H252094   2.049   0.345  14.346 -0.2440 -0.8323  0.5776
10227TIP3   OH252095   3.151   6.071   3.235  0.3507 -0.2789  0.4236
10227TIP3    H152096   3.064   6.078   3.274  0.7392  1.0271  1.1193
10227TIP3    H252097   3.210   6.107   3.301  1.6155 -2.3945  0.5201
10228TIP3   OH252098   6.297   1.795   2.993 -0.0200  0.3102  0.5652
10228TIP3    H152099   6.250   1.777   2.911 -0.4608 -1.1443  1.1132
10228TIP3    H252100   6.386   1.763   2.977 -0.8554 -2.8303  1.6110
10229TIP3   OH252101   0.204   0.158   0.254 -0.8344 -0.4358 -0.2580
10229TIP3    H152102   0.281   0.211   0.274 -0.3192 -1.1890 -0.1645
10229TIP3    H252103   0.152   0.160   0.335 -2.4654  2.5203 -1.2370
10230TIP3   OH252104   5.202   5.366   2.369 -0.2372  0.4076  0.9029
10230TIP3    H152105   5.297   5.376   2.361 -0.0014 -1.6347  0.7254
10230TIP3    H252106   5.182   5.285   2.322 -2.5548  2.4403 -2.0454
10231TIP3   OH252107   2.589   3.958   0.266  0.0168  0.5503  0.9700
10231TIP3    H152108   2.669   3.991   0.306  0.6113 -0.0088  0.2521
10231TIP3    H252109   2.519   4.010   0.307  0.7626  1.2977  1.3242
10232TIP3   OH252110   1.127   4.571   4.900 -0.1208  0.5929  0.7017
10232TIP3    H152111   1.129   4.536   4.811  2.1045 -0.3941  1.0662
10232TIP3    H252112   1.155   4.662   4.890  1.6734  0.0507  0.5130
10233TIP3   OH252113   2.102   3.795  14.000  0.4882 -0.5289 -0.1882
10233TIP3    H152114   2.097   3.885  14.032  0.4112 -0.8021  0.5909
10233TIP3    H252115   2.190   3.767  14.023 -0.0354 -1.1984  1.0980
10234TIP3   OH252116   1.218   0.109  12.771  0.0045  0.1047 -0.2807
10234TIP3    H152117   1.217   0.197  12.734 -0.1308  0.0360 -0.4409
10234TIP3    H252118   1.265   0.056  12.707 -2.5547 -0.6004 -1.7193
10235TIP3   OH252119   4.261   2.526   0.735  0.1996  0.5741  0.4169
10235TIP3    H152120   4.255   2.611   0.691  1.1675  0.3376 -0.1848
10235TIP3    H252121   4.354   2.505   0.735  0.2580  0.5732  2.6291
10236TIP3   OH252122   4.818   6.151  16.281 -0.4688  0.6864  0.2759
10236TIP3    H152123   4.821   6.096  16.359 -1.8934 -0.3855 -0.3872
10236TIP3    H252124   4.820   6.241  16.316  0.2859  0.2369  1.4521
10237TIP3   OH252125   0.685   1.016   4.062  0.5888 -0.0635  0.3038
10237TIP3    H152126   0.618   0.948   4.071  1.1361 -0.5891  0.4726
10237TIP3    H252127   0.767   0.967   4.051  1.1144  0.5556  1.3188
10238TIP3   OH252128   5.731   5.208  17.006 -0.1222 -0.0227 -0.0902
10238TIP3    H152129   5.778   5.289  17.024  0.6860 -0.7912  1.4249
10238TIP3    H252130   5.672   5.197  17.081 -2.1398  0.4517 -1.5117
10239TIP3   OH252131   5.809   0.133  14.842  0.1187 -0.2357  0.0525
10239TIP3    H152132   5.850   0.218  14.857 -0.4746 -0.1623  1.4490
10239TIP3    H252133   5.731   0.152  14.790  1.0676 -0.2040 -1.4101
10240TIP3   OH252134   0.125   2.384   3.720  0.1036 -0.0166  0.0978
10240TIP3    H152135   0.066   2.425   3.783  1.9111 -1.4800  2.9143
10240TIP3    H252136   0.100   2.292   3.719  1.5569 -0.4391  0.4608
10241TIP3   OH252137   4.023   4.782   2.222  0.5103  0.3642 -0.6005
10241TIP3    H152138   4.040   4.693   2.191 -0.2470 -0.0981  0.2583
10241TIP3    H252139   3.945   4.810   2.174  1.2483  0.9152 -1.5120
10242TIP3   OH252140   5.642   1.909  12.278 -0.3347 -0.8125  0.2498
10242TIP3    H152141   5.706   1.842  12.256  1.8379  1.1297  0.3730
10242TIP3    H252142   5.693   1.984  12.308 -2.5226  1.5057 -1.2927
10243TIP3   OH252143   5.363   0.127   3.815  1.3598 -0.1860  0.6730
10243TIP3    H152144   5.316   0.160   3.738  2.2479  0.3868  0.3556
10243TIP3    H252145   5.421   0.059   3.780  2.4367  0.7055  0.6557
10244TIP3   OH252146   2.348   5.132   0.099  0.2276  0.1744  0.5502
10244TIP3    H152147   2.256   5.156   0.082 -0.0615 -1.4758 -0.4359
10244TIP3    H252148   2.351   5.117   0.194 -1.3484 -2.6767  0.2741
10245TIP3   OH252149   6.455   2.169  11.546  0.3754  0.3383 -0.4237
10245TIP3    H152150   6.547   2.153  11.565  0.3228 -0.8384 -1.0603
10245TIP3    H252151   6.455   2.242  11.485  0.6150  3.2850  2.8028
10246TIP3   OH252152   6.336   4.417   2.369 -0.0962 -0.1590 -0.3345
10246TIP3    H152153   6.269   4.484   2.369  1.3252  1.3295  0.9041
10246TIP3    H252154   6.357   4.402   2.461  0.6525 -1.2371 -0.6493
10247TIP3   OH252155   3.764   2.710   1.039 -0.1793 -0.3276 -0.2767
10247TIP3    H152156   3.700   2.698   1.109 -2.9398  3.7256 -1.7134
10247TIP3    H252157   3.820   2.781   1.070 -1.2014  1.2494 -1.8300
10248TIP3   OH252158   0.498   3.940   4.628  0.0660 -0.1012 -0.4642
10248TIP3    H152159   0.466   4.003   4.563 -1.4885  0.2516  0.5737
10248TIP3    H252160   0.484   3.983   4.712 -3.6183 -2.7338  0.5224
10249TIP3   OH252161   1.193   0.433  13.863  0.8753 -0.0876  0.7140
10249TIP3    H152162   1.263   0.400  13.919  1.1506  0.0673  0.4588
10249TIP3    H252163   1.136   0.481  13.923  1.6752  0.8938  0.7176
10250TIP3   OH252164   3.927   3.868  10.960 -0.2393  0.5386 -0.2543
10250TIP3    H152165   3.912   3.935  10.893  1.9296  1.7194  0.3399
10250TIP3    H252166   3.984   3.910  11.024 -0.4138 -1.2786  1.1962
10251TIP3   OH252167   6.026   6.014   6.955 -0.2429  0.4110  0.4406
10251TIP3    H152168   6.022   6.104   6.986 -0.5110  0.1777  1.0971
10251TIP3    H252169   6.112   6.007   6.914  0.4069  0.5292  1.7613
10252TIP3   OH252170   1.351   6.039  15.870  0.0183  0.0283 -0.2781
10252TIP3    H152171   1.402   5.965  15.838 -1.1336 -1.0263  0.2643
10252TIP3    H252172   1.268   6.033  15.823  0.3587  1.7649 -1.2012
10253TIP3   OH252173   1.678   3.492  14.119  0.3974  0.3944 -0.0853
10253TIP3    H152174   1.694   3.553  14.048 -2.1784  0.8258 -0.4104
10253TIP3    H252175   1.603   3.529  14.166  1.0706 -0.6590  1.9632
10254TIP3   OH252176   4.338   3.811   3.448  0.1118  0.6804 -0.2314
10254TIP3    H152177   4.295   3.727   3.432  1.0214  0.1437  0.0277
10254TIP3    H252178   4.405   3.816   3.379  1.7980 -0.0599  1.2515
10255TIP3   OH252179   1.127   3.020  16.663  0.0759 -0.2024  0.1660
10255TIP3    H152180   1.175   3.023  16.580  1.3666  0.2845  0.9046
10255TIP3    H252181   1.187   3.057  16.727 -0.1213 -2.3632  1.7080
10256TIP3   OH252182   4.745   5.134   3.990  0.3722  0.3447 -0.5408
10256TIP3    H152183   4.757   5.143   3.896  0.5536  2.2255 -0.3816
10256TIP3    H252184   4.802   5.061   4.015 -1.7777 -2.1222 -2.2201
10257TIP3   OH252185   1.914   1.307   3.825  0.2543  0.1666 -0.2610
10257TIP3    H152186   1.952   1.391   3.800 -0.5544  0.3809 -0.8060
10257TIP3    H252187   1.927   1.251   3.749 -0.0960  0.1027 -0.2753
10258TIP3   OH252188   1.215   4.740  16.919  0.0152 -0.1445 -0.4987
10258TIP3    H152189   1.222   4.656  16.964  0.5549 -0.3777 -1.0086
10258TIP3    H252190   1.137   4.731  16.864 -0.9383  0.3144  0.7126
10259TIP3   OH252191   6.546   2.077   4.455 -0.1376  0.5389  0.3007
10259TIP3    H152192   6.612   2.136   4.419 -2.4170  2.2999 -1.2174
10259TIP3    H252193   6.536   2.008   4.389  0.4698  0.0147  0.7437
10260TIP3   OH252194   6.468   4.645  13.001 -0.1367  0.3721  0.6073
10260TIP3    H152195   6.539   4.701  13.032  0.8005  0.9017 -2.2216
10260TIP3    H252196   6.388   4.695  13.021  0.3596  0.5724  2.2286
10261TIP3   OH252197   5.642   6.413  13.915  0.2629 -0.2028 -0.7027
10261TIP3    H152198   5.649   6.365  13.832  0.1837 -1.4627 -0.0001
10261TIP3    H252199   5.564   6.377  13.957 -0.0738  0.8892 -0.3570
10262TIP3   OH252200   2.219   1.307  17.459  0.5579  0.1832 -0.3248
10262TIP3    H152201   2.253   1.261  17.382  0.5942 -0.4560  0.0657
10262TIP3    H252202   2.279   1.283  17.530  0.4056  0.6028 -0.0480
10263TIP3   OH252203   3.792   3.223   3.213 -0.1433 -0.4322  0.0708
10263TIP3    H152204   3.720   3.159   3.212  0.3834 -1.1233 -2.4071
10263TIP3    H252205   3.866   3.175   3.176  1.4462  0.4736  1.9572
10264TIP3   OH252206   5.151   1.151   3.368  0.9179 -0.0446 -0.4535
10264TIP3    H152207   5.168   1.113   3.282 -2.3597 -1.1441 -0.7746
10264TIP3    H252208   5.125   1.242   3.349 -1.0520 -0.6384 -0.8776
10265TIP3   OH252209   0.926   4.284   4.795 -0.1387 -0.5626 -0.3458
10265TIP3    H152210   0.992   4.227   4.755  0.7560 -0.8833  1.4955
10265TIP3    H252211   0.955   4.373   4.775 -0.8685 -0.6822 -2.1671
10266TIP3   OH252212   2.590   1.476   3.279 -0.2985  0.2760  0.2363
10266TIP3    H152213   2.579   1.504   3.188  1.7268  0.6842  0.0730
10266TIP3    H252214   2.508   1.500   3.321 -0.9587  0.8385 -1.2970
10267TIP3   OH252215   4.418   1.638  13.850  0.0483  0.3233 -0.2903
10267TIP3    H152216   4.440   1.651  13.758 -0.2760  0.8054 -0.3093
10267TIP3    H252217   4.322   1.638  13.852 -0.0508 -3.2387 -0.4155
10268TIP3   OH252218   0.851   5.782   0.138  0.6382  0.1685  0.1487
10268TIP3    H152219   0.900   5.791   0.220 -0.5439  2.1916  0.7314
10268TIP3    H252220   0.842   5.872   0.107  1.9934 -0.6169 -2.8461
10269TIP3   OH252221   0.485   4.718  15.259  0.5503  0.3879  0.1737
10269TIP3    H152222   0.521   4.703  15.172  0.6905 -0.9415  0.4490
10269TIP3    H252223   0.560   4.743  15.313  0.6805 -0.0561  0.2027
10270TIP3   OH252224   2.075   3.991  11.685  0.0237  0.6005 -0.1666
10270TIP3    H152225   1.993   4.039  11.671 -0.3295  0.1336  0.2557
10270TIP3    H252226   2.063   3.947  11.770 -0.7534 -2.3991 -1.6866
10271TIP3   OH252227   0.309   4.278   1.223 -0.0021 -0.0173  0.2209
10271TIP3    H152228   0.219   4.305   1.203 -0.0208  1.1637  1.6967
10271TIP3    H252229   0.352   4.359   1.253  1.4024 -0.6737  0.0355
10272TIP3   OH252230   5.812   2.050   6.608 -0.4187 -0.5104  0.3728
10272TIP3    H152231   5.792   2.057   6.701 -0.9728  2.0707  0.1414
10272TIP3    H252232   5.736   2.087   6.564  0.6719  0.2139 -0.9923
10273TIP3   OH252233   1.131   5.147   1.556 -0.1462 -0.5240 -0.2124
10273TIP3    H152234   1.187   5.140   1.480 -0.3190 -1.4436 -0.2751
10273TIP3    H252235   1.042   5.131   1.522 -0.3094 -0.2007  0.0578
10274TIP3   OH252236   0.845   0.599   4.108  0.1248  0.0682  0.1719
10274TIP3    H152237   0.890   0.662   4.052 -0.4232 -0.4888 -0.9429
10274TIP3    H252238   0.762   0.642   4.131 -1.2195 -0.9314 -2.3042
10275TIP3   OH252239   3.960   5.436   1.460 -0.0523  0.2775 -0.1785
10275TIP3    H152240   3.890   5.381   1.426 -0.3934  0.6127 -0.0289
10275TIP3    H252241   3.936   5.525   1.434  0.0048  0.4647  0.3862
10276TIP3   OH252242   1.862   4.536   3.915  0.2921 -0.1926  0.0446
10276TIP3    H152243   1.889   4.445   3.926  1.3656  0.2968  1.8433
10276TIP3    H252244   1.837   4.542   3.823  1.7552 -1.9103 -0.5278
10277TIP3   OH252245   1.703   4.558  13.451 -0.5683  0.4030  0.2526
10277TIP3    H152246   1.777   4.500  13.436  0.4366  1.7175 -0.0507
10277TIP3    H252247   1.735   4.621  13.516 -2.2990 -0.5666  2.1663
10278TIP3   OH252248   3.511   3.289  12.894 -0.0570 -0.0485  0.0371
10278TIP3    H152249   3.455   3.334  12.957  0.5069  0.2823  0.3097
10278TIP3    H252250   3.514   3.348  12.818 -1.5252 -0.8890 -0.7142
10279TIP3   OH252251   6.226   3.319  12.103 -0.2892  0.0609  0.2595
10279TIP3    H152252   6.266   3.237  12.074 -1.4030  0.1241 -1.5475
10279TIP3    H252253   6.298   3.382  12.101  0.2013 -0.4957  0.0619
10280TIP3   OH252254   1.659   1.235   3.920  0.6140 -0.7896  0.3022
10280TIP3    H152255   1.667   1.166   3.986  1.3185  0.2424  1.3516
10280TIP3    H252256   1.748   1.250   3.890  0.0261 -3.8654 -3.8422
10281TIP3   OH252257   5.764   6.236   5.791 -0.1414 -0.0308 -0.7560
10281TIP3    H152258   5.837   6.271   5.740  0.2903 -0.2860 -0.3164
10281TIP3    H252259   5.693   6.226   5.727 -0.2958  1.6572 -0.8969
10282TIP3   OH252260   6.008   0.615   2.854 -0.6958 -0.2141  0.0581
10282TIP3    H152261   6.026   0.709   2.847  2.0335 -0.5511  1.1866
10282TIP3    H252262   6.017   0.582   2.764  1.3275  0.2330  0.0381
10283TIP3   OH252263   1.713   5.585  15.176 -0.1507 -0.3939 -0.1600
10283TIP3    H152264   1.653   5.570  15.249 -0.5465 -0.3870 -0.4820
10283TIP3    H252265   1.684   5.668  15.138 -0.1585 -0.5656 -0.5333
10284TIP3   OH252266   1.810   6.158  12.656  0.3299 -0.0011  0.3721
10284TIP3    H152267   1.826   6.065  12.644 -1.9752 -0.1734 -2.4748
10284TIP3    H252268   1.895   6.200  12.640  1.0680 -1.4964  0.2204
10285TIP3   OH252269   6.561   0.378  17.419  0.6821  0.1300 -0.0785
10285TIP3    H152270   6.636   0.394  17.477  1.2445  0.9663 -1.0131
10285TIP3    H252271   6.599   0.358  17.334 -0.1399 -1.0768 -0.2051
10286TIP3   OH252272   6.129   5.398  13.050  0.2257  0.6811  0.1111
10286TIP3    H152273   6.177   5.365  13.126  1.2356  0.7521 -0.4757
10286TIP3    H252274   6.090   5.480  13.080  0.2180  0.4737  0.6903
10287TIP3   OH252275   0.456   5.182  14.781 -0.9975 -0.0637  0.0861
10287TIP3    H152276   0.494   5.094  14.780 -1.2404 -0.2155  1.6231
10287TIP3    H252277   0.373   5.173  14.734 -1.0607 -0.6847  0.3057
10288TIP3   OH252278   4.644   1.068  14.788  0.0506 -0.0036 -0.4225
10288TIP3    H152279   4.555   1.094  14.813  0.7722  0.4575  1.9381
10288TIP3    H252280   4.686   1.149  14.760 -0.0224 -0.0706 -0.7282
10289TIP3   OH252281   6.334   1.036  14.396 -0.1883 -0.7179  0.7680
10289TIP3    H152282   6.285   1.077  14.467  1.0525  1.0862  0.6440
10289TIP3    H252283   6.289   1.063  14.316  0.0806 -0.3445  0.7376
10290TIP3   OH252284   4.259   0.210  14.105 -0.6060  0.3967  0.3506
10290TIP3    H152285   4.212   0.181  14.183 -1.8517 -0.3400 -0.6431
10290TIP3    H252286   4.199   0.270  14.061  0.1588  0.9531  0.0390
10291TIP3   OH252287   2.141   3.352   0.552  0.4735 -0.1329 -0.3289
10291TIP3    H152288   2.212   3.348   0.616  1.4999 -1.8556 -1.4968
10291TIP3    H252289   2.170   3.417   0.488 -0.0078  0.7015  0.2671
10292TIP3   OH252290   6.065   2.534  13.671 -0.1533 -0.0269 -0.4461
10292TIP3    H152291   6.130   2.603  13.655  0.3093  0.1422  1.8098
10292TIP3    H252292   6.106   2.455  13.635  0.3243  0.4674 -1.0170
10293TIP3   OH252293   0.820   5.934  17.187  0.2779  0.1368 -0.3421
10293TIP3    H152294   0.805   6.001  17.254 -0.8204  0.5134 -0.9327
10293TIP3    H252295   0.732   5.912  17.155  0.7101 -0.7473 -0.9753
10294TIP3   OH252296   1.664   2.418   3.732 -0.5701 -0.1161 -0.0493
10294TIP3    H152297   1.598   2.488   3.727  0.1021  0.5395  0.1132
10294TIP3    H252298   1.665   2.393   3.824  1.5648  2.0271  0.6068
10295TIP3   OH252299   6.649   3.125  12.174 -0.5189  0.3510 -0.2064
10295TIP3    H152300   6.742   3.135  12.155  0.0821 -1.3823  1.4926
10295TIP3    H252301   6.621   3.051  12.120 -0.4482 -0.2696  0.5868
10296TIP3   OH252302   5.806   2.848  15.659  0.2734  0.2624 -0.0774
10296TIP3    H152303   5.787   2.754  15.665  1.3460  0.1006  1.4065
10296TIP3    H252304   5.725   2.886  15.624 -0.3811 -1.1472 -0.1827
10297TIP3   OH252305   0.142   5.778   1.664  0.3999 -0.0724  0.3387
10297TIP3    H152306   0.130   5.710   1.598 -0.0645  0.0309  0.3152
10297TIP3    H252307   0.237   5.780   1.679  0.4618 -0.4095  0.0091
10298TIP3   OH252308   6.360   3.330  12.859 -0.5885 -0.6339 -0.0715
10298TIP3    H152309   6.434   3.354  12.802 -0.0928  0.0570  0.8245
10298TIP3    H252310   6.303   3.407  12.859 -0.4042 -0.4814  0.6200
10299TIP3   OH252311   0.410   2.740  16.663  0.0859 -0.2774  0.7477
10299TIP3    H152312   0.366   2.712  16.582  0.8761  0.5599  0.0046
10299TIP3    H252313   0.501   2.755  16.636 -0.2116  2.8045  1.0968
10300TIP3   OH252314   5.995   2.286   3.565  0.1524  0.4746  0.1406
10300TIP3    H152315   5.965   2.243   3.645 -0.6069 -2.2691 -1.4979
10300TIP3    H252316   5.915   2.300   3.514  0.8001  0.4661 -0.9066
10301TIP3   OH252317   4.391   2.527  13.321  0.3454 -0.0031  0.2013
10301TIP3    H152318   4.477   2.493  13.295  0.2418 -0.5020  0.4901
10301TIP3    H252319   4.368   2.477  13.399 -0.4162 -0.2150 -0.1458
10302TIP3   OH252320   0.113   4.865  14.732  0.4296  0.2296  0.0176
10302TIP3    H152321   0.188   4.852  14.674 -0.3854 -1.2977 -0.7462
10302TIP3    H252322   0.043   4.896  14.673 -0.4338 -1.4192  0.1106
10303TIP3   OH252323   2.243   2.434  10.999 -0.4469 -0.2477  0.6437
10303TIP3    H152324   2.325   2.479  11.021 -0.4979  0.6885 -0.9250
10303TIP3    H252325   2.187   2.448  11.076  0.0019  1.2979  0.7249
10304TIP3   OH252326   0.070   1.243   7.138 -0.1433 -0.1996 -0.9136
10304TIP3    H152327   0.047   1.290   7.218 -1.5605 -1.3712 -0.6044
10304TIP3    H252328  -0.009   1.246   7.085 -0.1713 -1.9403 -1.0216
10305TIP3   OH252329   6.482   6.206   0.009  0.0433  0.1476 -0.2130
10305TIP3    H152330   6.411   6.207  -0.055 -0.5744 -0.4258  0.4403
10305TIP3    H252331   6.477   6.118   0.048 -0.4039  0.8776  1.4884
10306TIP3   OH252332   3.411   4.466   1.467 -0.7882  0.4555 -0.5539
10306TIP3    H152333   3.436   4.407   1.537 -1.9480  0.3935 -0.1753
10306TIP3    H252334   3.350   4.416   1.413 -0.3800  0.7069 -1.2724
10307TIP3   OH252335   5.833   2.973  13.869 -0.4639 -0.0518 -0.5385
10307TIP3    H152336   5.817   3.049  13.813  0.5675  0.0286 -0.7440
10307TIP3    H252337   5.897   2.921  13.821 -0.2055 -0.4041  0.1746
10308TIP3   OH252338   3.792   6.722  14.872 -0.0297 -0.6380 -0.2683
10308TIP3    H152339   3.803   6.790  14.938  1.4781 -0.5585 -0.5701
10308TIP3    H252340   3.778   6.642  14.922 -1.0116 -0.2601  0.0957
10309TIP3   OH252341   1.849   3.492   1.929 -0.2204  0.9045  0.6762
10309TIP3    H152342   1.779   3.557   1.939 -1.0510  0.1447  0.0388
10309TIP3    H252343   1.804   3.408   1.938  0.1772  0.3298 -1.8682
10310TIP3   OH252344   2.251   5.262  16.734 -0.0111 -0.5220  0.7290
10310TIP3    H152345   2.259   5.312  16.815  0.3839 -1.0643  1.0296
10310TIP3    H252346   2.191   5.314  16.680 -1.9714 -1.1592  2.1507
10311TIP3   OH252347   1.280   0.625   1.420  0.6445 -0.3146 -0.6278
10311TIP3    H152348   1.198   0.675   1.421  1.6364  1.4484 -1.0940
10311TIP3    H252349   1.275   0.572   1.340 -0.2406 -0.5972 -0.3888
10312TIP3   OH252350   2.815   0.052   3.112 -0.8887 -0.7874 -0.0005
10312TIP3    H152351   2.863   0.120   3.158 -2.4152 -0.9103  1.9264
10312TIP3    H252352   2.882  -0.006   3.076  0.4008  0.1242  0.8625
10313TIP3   OH252353   3.821   3.519  15.815  0.0928  0.5796 -0.2770
10313TIP3    H152354   3.770   3.598  15.800 -0.6648  0.3458  0.8460
10313TIP3    H252355   3.826   3.512  15.911  0.9115 -0.2487 -0.3653
10314TIP3   OH252356   2.467   2.625  17.386 -0.0319  0.1697  0.6295
10314TIP3    H152357   2.477   2.534  17.412  0.4211 -0.0837 -0.3955
10314TIP3    H252358   2.537   2.671  17.433  1.4346 -0.4466 -0.8538
10315TIP3   OH252359   1.071   4.433   0.584  0.3296  0.2738  0.2232
10315TIP3    H152360   1.022   4.497   0.532 -0.0097  1.0560  1.4850
10315TIP3    H252361   1.109   4.483   0.656  2.2327 -0.4791 -0.1885
10316TIP3   OH252362   2.302   1.945  15.481  0.2884 -0.0927 -0.1695
10316TIP3    H152363   2.215   1.977  15.505  0.0772 -0.5368 -0.3325
10316TIP3    H252364   2.319   1.983  15.395  0.4479  0.3577  0.0592
10317TIP3   OH252365   0.258   4.860  11.826  0.3128  0.0378  0.4364
10317TIP3    H152366   0.296   4.912  11.897 -0.2557 -0.3308  1.0105
10317TIP3    H252367   0.304   4.891  11.747  0.0454  1.3445  0.7728
10318TIP3   OH252368   1.628   5.540  15.923  0.0661 -0.0233 -0.0962
10318TIP3    H152369   1.608   5.484  15.848  0.0773  1.0728 -0.9389
10318TIP3    H252370   1.723   5.545  15.925  0.0626  0.0293 -0.0654
10319TIP3   OH252371   2.639   1.073  17.355  0.4075  0.2941  1.1003
10319TIP3    H152372   2.698   0.998  17.365  0.1154  0.2238  2.5769
10319TIP3    H252373   2.695   1.143  17.324  0.6360 -0.5788 -0.5637
10320TIP3   OH252374   2.941   2.424   0.549  0.3822 -0.2526  0.3950
10320TIP3    H152375   3.027   2.462   0.568  1.3163 -1.7118 -0.6916
10320TIP3    H252376   2.930   2.356   0.614  1.9171 -2.7467 -1.7596
10321TIP3   OH252377   5.581   6.446  14.700 -0.5113 -0.6511  0.1458
10321TIP3    H152378   5.519   6.510  14.735 -0.2628  0.7615 -1.8721
10321TIP3    H252379   5.542   6.416  14.618  1.3353  0.1160 -1.0671
10322TIP3   OH252380   0.960   3.339  14.603 -0.4251 -0.1302 -0.3097
10322TIP3    H152381   0.919   3.421  14.631 -0.3660 -0.0766 -0.3812
10322TIP3    H252382   0.956   3.283  14.681  0.1253  0.1671 -0.0596
10323TIP3   OH252383   5.070   3.333  13.071  0.2810  0.1933 -0.3910
10323TIP3    H152384   5.104   3.243  13.067 -0.8776 -0.3309  0.9135
10323TIP3    H252385   5.012   3.340  12.995  0.4082 -0.1403 -0.5224
10324TIP3   OH252386   1.383   3.952  17.036  0.2242  0.3092 -0.0582
10324TIP3    H152387   1.341   4.038  17.041  0.5443  0.5569 -1.2238
10324TIP3    H252388   1.439   3.948  17.113 -0.2912  0.8716  0.3559
10325TIP3   OH252389   4.603   0.503  17.447  0.1896 -0.1638 -0.5729
10325TIP3    H152390   4.660   0.545  17.382  0.0641 -1.2437 -1.4094
10325TIP3    H252391   4.633   0.413  17.451  1.2462  0.2214  2.1176
10326TIP3   OH252392   0.874   1.862  12.848 -0.4172  0.1428  0.2919
10326TIP3    H152393   0.845   1.944  12.887 -1.4250 -0.1267  0.1244
10326TIP3    H252394   0.894   1.805  12.922  3.6561  1.5860  0.5570
10327TIP3   OH252395   4.474   0.687   3.007 -0.7788 -0.4688  0.0647
10327TIP3    H152396   4.535   0.614   3.000 -0.4296 -0.2785  0.9545
10327TIP3    H252397   4.427   0.687   2.924 -1.0182 -1.9050  0.1732
10328TIP3   OH252398   0.210   0.590   2.957  0.0958 -0.9516  0.2548
10328TIP3    H152399   0.125   0.546   2.951 -0.6711  0.1578  2.1553
10328TIP3    H252400   0.248   0.557   3.038  0.5059  0.1492  0.5318
10329TIP3   OH252401   2.807   0.823  11.263  0.9717  0.5076 -0.1652
10329TIP3    H152402   2.767   0.743  11.227 -2.1679  2.5052 -1.5150
10329TIP3    H252403   2.863   0.855  11.193 -0.8159  1.4558 -1.2299
10330TIP3   OH252404   2.184   6.438  11.343 -0.2558  0.2279 -0.6522
10330TIP3    H152405   2.193   6.429  11.248  0.0570  1.8605 -0.7910
10330TIP3    H252406   2.108   6.495  11.355 -2.1560 -2.2696  0.1919
10331TIP3   OH252407   3.676   3.484  16.789 -0.5441 -0.3490  0.3105
10331TIP3    H152408   3.621   3.466  16.866 -0.9561  3.3951  1.0922
10331TIP3    H252409   3.763   3.502  16.825 -0.1533 -0.8600 -0.3564
10332TIP3   OH252410   3.784   1.908   5.530 -0.2208 -0.5446 -0.0961
10332TIP3    H152411   3.757   1.949   5.612  2.0677 -1.7335  1.3647
10332TIP3    H252412   3.854   1.966   5.497 -0.1136 -0.8589 -0.4254
10333TIP3   OH252413   4.434   5.537  13.590  0.4260  0.3524  0.3700
10333TIP3    H152414   4.384   5.565  13.513  0.2673 -0.9077 -0.0144
10333TIP3    H252415   4.371   5.535  13.661  0.7027  2.1184  0.7055
10334TIP3   OH252416   2.914   4.933  14.125 -0.0020  0.5037  0.1473
10334TIP3    H152417   2.881   4.845  14.143 -0.6255  0.9092  1.0839
10334TIP3    H252418   3.000   4.919  14.085 -0.2958 -0.5352 -0.1564
10335TIP3   OH252419   2.051   0.798  16.524 -0.5289 -0.4455  0.6267
10335TIP3    H152420   2.106   0.802  16.602 -0.0985 -0.3419  0.3223
10335TIP3    H252421   2.107   0.759  16.456 -0.2010  1.3294 -0.1914
10336TIP3   OH252422   2.739   6.022  12.393 -1.0075  0.1591  0.0464
10336TIP3    H152423   2.743   6.047  12.486 -0.0149 -1.9486  0.6297
10336TIP3    H252424   2.654   5.979  12.384 -1.0902  0.3351 -0.0080
10337TIP3   OH252425   2.689   0.591  13.352  0.3963  0.1953 -0.1679
10337TIP3    H152426   2.625   0.597  13.281  1.4037  0.7405 -1.0580
10337TIP3    H252427   2.651   0.642  13.423 -0.7091 -0.4983 -0.2378
10338TIP3   OH252428   0.752   1.377   4.081 -1.2063  0.1185 -0.4662
10338TIP3    H152429   0.784   1.414   3.999  0.0790 -0.2862 -0.1729
10338TIP3    H252430   0.801   1.295   4.091 -2.2374 -0.4535  0.1042
10339TIP3   OH252431   5.870   5.005   5.048 -0.1175 -0.0313 -0.0638
10339TIP3    H152432   5.793   5.059   5.031  0.6086  1.4969  1.1670
10339TIP3    H252433   5.872   4.941   4.977 -1.2682  1.2982 -1.3447
10340TIP3   OH252434   5.163   4.148  16.546  0.1600  0.4421 -0.0258
10340TIP3    H152435   5.181   4.212  16.477 -0.6171  0.2849 -0.3873
10340TIP3    H252436   5.145   4.066  16.499 -2.9315  0.9031  0.1617
10341TIP3   OH252437   6.380   2.333   2.591  0.5081  0.2760  0.0502
10341TIP3    H152438   6.397   2.240   2.599 -0.1030 -0.1046 -2.2498
10341TIP3    H252439   6.334   2.357   2.671 -0.6588 -1.7378  0.0339
10342TIP3   OH252440   5.955   5.347  17.298 -0.3593  0.2320  0.3666
10342TIP3    H152441   5.888   5.320  17.361  0.8208 -3.0906  0.3729
10342TIP3    H252442   6.035   5.356  17.350  0.5259 -2.1148 -0.4627
10343TIP3   OH252443   6.421   4.691  16.968 -0.1644 -0.2516 -0.2668
10343TIP3    H152444   6.379   4.704  16.883  0.5814  1.2475 -0.4364
10343TIP3    H252445   6.499   4.640  16.948  1.5231  2.4287 -0.9783
10344TIP3   OH252446   4.534   0.671  16.894  0.6881  0.2407 -0.2908
10344TIP3    H152447   4.620   0.713  16.888  0.7415  0.2316  0.3152
10344TIP3    H252448   4.495   0.708  16.973 -0.4169  1.2349 -1.2515
10345TIP3   OH252449   1.593   4.710   0.809 -0.3920 -0.3626 -0.8004
10345TIP3    H152450   1.520   4.771   0.795 -1.1906 -1.1572 -0.2341
10345TIP3    H252451   1.551   4.624   0.810  0.5022 -0.7991  0.0311
10346TIP3   OH252452   5.272   1.599   6.057  0.2618 -0.2924  0.3192
10346TIP3    H152453   5.270   1.557   6.143 -0.5989  0.9098  0.9260
10346TIP3    H252454   5.203   1.555   6.007  1.5960 -1.8463 -0.2087
10347TIP3   OH252455   4.382   1.814  17.303  0.8685  0.1191 -0.3822
10347TIP3    H152456   4.349   1.755  17.235 -0.7691 -1.0769  1.3193
10347TIP3    H252457   4.337   1.896  17.288 -1.8966 -1.0246  0.9339
10348TIP3   OH252458   2.672   6.266  16.112 -0.7041  0.0876  0.5943
10348TIP3    H152459   2.729   6.194  16.138 -2.3650 -0.2098  4.0018
10348TIP3    H252460   2.728   6.323  16.060  0.8498 -3.2583 -1.7781
10349TIP3   OH252461   5.127   3.360   6.549  0.3106  0.3785 -0.0448
10349TIP3    H152462   5.086   3.281   6.512  0.5470  0.6862 -0.9876
10349TIP3    H252463   5.161   3.331   6.634  0.4159 -0.5419 -0.3858
10350TIP3   OH252464   5.468   1.508   0.926  0.5799  0.3671 -0.9798
10350TIP3    H152465   5.506   1.426   0.896  0.0031 -0.1426 -0.3361
10350TIP3    H252466   5.448   1.556   0.846  0.4243 -0.3473 -1.3723
10351TIP3   OH252467   4.229   6.314  16.817  0.3148  0.8358 -0.0430
10351TIP3    H152468   4.268   6.375  16.755  1.7451 -0.5948 -0.6363
10351TIP3    H252469   4.237   6.356  16.902  1.1596  1.5295 -0.4531
10352TIP3   OH252470   0.521   2.366  16.605 -0.0582 -0.4353  0.3341
10352TIP3    H152471   0.556   2.326  16.684 -0.5363  0.8257  1.2039
10352TIP3    H252472   0.435   2.325  16.593 -0.1159 -0.3992  0.6356
10353TIP3   OH252473   0.599   3.482  11.328  0.5830 -0.3979  0.1050
10353TIP3    H152474   0.679   3.458  11.375  0.6903 -0.4053 -0.0804
10353TIP3    H252475   0.627   3.549  11.266  0.3070  0.1165  0.5331
10354TIP3   OH252476   4.664   1.473  16.161  0.1066  0.1347  0.7154
10354TIP3    H152477   4.627   1.387  16.180  0.1498  0.2756  1.4699
10354TIP3    H252478   4.622   1.532  16.224  0.0209  0.6859  0.1601
10355TIP3   OH252479   3.315   5.747   0.261 -0.0691  0.0157 -0.0678
10355TIP3    H152480   3.255   5.799   0.315 -0.1392 -0.6221  0.4698
10355TIP3    H252481   3.401   5.765   0.297 -0.0477  0.0887 -0.1547
10356TIP3   OH252482   1.241   3.262   3.040  0.3720 -0.2109  0.4262
10356TIP3    H152483   1.255   3.171   3.065 -0.4447 -0.5975 -0.4292
10356TIP3    H252484   1.176   3.257   2.970  0.5750  1.0076  0.1305
10357TIP3   OH252485   4.970   0.009   6.310  0.6041  0.9878  0.8080
10357TIP3    H152486   4.897  -0.053   6.303  1.3418  0.1811 -0.3378
10357TIP3    H252487   4.929   0.094   6.322 -0.5375  0.5652  0.0868
10358TIP3   OH252488   2.621   5.662   1.862  0.5054  0.0820 -0.5450
10358TIP3    H152489   2.577   5.737   1.822  2.0472  2.1042  1.2589
10358TIP3    H252490   2.591   5.586   1.812 -3.9730  1.3633 -0.2705
10359TIP3   OH252491   0.360   4.408   4.110  0.5943  0.0346 -0.4548
10359TIP3    H152492   0.392   4.485   4.158  0.3114 -0.0354 -0.1494
10359TIP3    H252493   0.392   4.420   4.021  0.5449  0.5098 -0.4102
10360TIP3   OH252494   6.339   1.733   5.491 -0.6853 -0.0296  0.3728
10360TIP3    H152495   6.298   1.730   5.578 -1.0142  1.3064  0.2895
10360TIP3    H252496   6.281   1.680   5.436 -1.0773  0.0042  0.7416
10361TIP3   OH252497   1.397   1.633  14.562 -0.2452  0.1197  0.3168
10361TIP3    H152498   1.442   1.552  14.587  0.4798  0.4126  0.0024
10361TIP3    H252499   1.358   1.613  14.477 -0.1585  0.0621  0.2895
10362TIP3   OH252500   0.433   0.186   4.622 -0.0331 -0.3184  0.3329
10362TIP3    H152501   0.516   0.138   4.622 -0.9292 -2.2968 -3.5717
10362TIP3    H252502   0.383   0.146   4.694  0.4042 -3.2507 -0.8475
10363TIP3   OH252503   3.921   2.719   6.582 -0.1802 -0.4287  1.1469
10363TIP3    H152504   3.834   2.744   6.552  0.2568  0.2513  0.4093
10363TIP3    H252505   3.911   2.630   6.615 -0.3987 -1.8966 -2.4986
10364TIP3   OH252506   5.020   0.663   2.474  0.6514 -0.0064  0.1478
10364TIP3    H152507   4.993   0.649   2.564  0.4168 -0.6385 -0.0116
10364TIP3    H252508   5.116   0.665   2.478  0.6573 -0.4622  0.3614
10365TIP3   OH252509   2.842   1.516   4.674 -0.1256  0.8103  0.0422
10365TIP3    H152510   2.863   1.435   4.628 -0.8363 -0.1720  1.3712
10365TIP3    H252511   2.815   1.577   4.605 -0.0298 -0.2297 -0.9359
10366TIP3   OH252512   0.294   4.307   2.506  0.5497  0.1018 -0.0462
10366TIP3    H152513   0.208   4.346   2.520 -0.2282 -0.7041 -2.1500
10366TIP3    H252514   0.298   4.233   2.567 -0.4329 -0.1003 -0.2147
10367TIP3   OH252515   6.717   2.682  14.375  0.0321 -0.0365 -0.1806
10367TIP3    H152516   6.800   2.710  14.414 -0.1450 -0.5658  0.6125
10367TIP3    H252517   6.712   2.729  14.292  1.2519 -0.1882 -0.3647
10368TIP3   OH252518   2.488   0.887   4.656  0.2293 -0.1008 -0.2052
10368TIP3    H152519   2.547   0.893   4.581 -0.2050  0.3970 -0.5207
10368TIP3    H252520   2.469   0.978   4.679 -0.6745 -0.2449 -0.3251
10369TIP3   OH252521   0.510   4.868   4.107  0.2503  0.0954 -0.2896
10369TIP3    H152522   0.590   4.886   4.158  0.3581  0.8465 -0.7099
10369TIP3    H252523   0.446   4.930   4.141 -0.3621 -0.9292  0.4834
10370TIP3   OH252524   1.577   5.702  13.235 -0.0661  0.2611  0.4571
10370TIP3    H152525   1.543   5.762  13.169 -0.6483 -0.2144  0.3159
10370TIP3    H252526   1.505   5.689  13.296  0.3354  0.3674  0.9610
10371TIP3   OH252527   5.115   4.260   0.454 -0.0996 -0.4061 -0.1307
10371TIP3    H152528   5.027   4.270   0.417  0.8530  0.0312 -2.4225
10371TIP3    H252529   5.143   4.350   0.473  0.7877 -0.3111 -1.7822
10372TIP3   OH252530   0.067   0.910   1.453 -0.3565 -0.4835 -0.0403
10372TIP3    H152531   0.100   0.899   1.542  1.6342 -0.5057 -0.7386
10372TIP3    H252532   0.043   1.003   1.447  1.2266 -0.0448  0.0057
10373TIP3   OH252533   1.918   2.500   1.600  0.4154  0.0506 -0.3163
10373TIP3    H152534   1.904   2.485   1.506 -2.8030  0.4860 -0.0322
10373TIP3    H252535   1.901   2.593   1.612 -0.1262 -0.1798  0.8253
10374TIP3   OH252536   4.339   2.325   5.263  0.2362  0.3042 -0.1733
10374TIP3    H152537   4.310   2.263   5.197  1.2878  0.2067 -0.5598
10374TIP3    H252538   4.435   2.324   5.257  0.4247 -0.3368  1.9073
10375TIP3   OH252539   1.877   2.046  13.194 -0.8098  0.1548 -0.2389
10375TIP3    H152540   1.845   2.121  13.244  0.1340  1.2408 -1.1916
10375TIP3    H252541   1.919   1.989  13.258  1.4914  2.1057  0.1134
10376TIP3   OH252542   3.674   0.714  12.425  0.2888  0.2132  0.0932
10376TIP3    H152543   3.759   0.745  12.393  0.7128 -0.2521  0.7462
10376TIP3    H252544   3.628   0.686  12.346  0.9828 -0.1052 -0.2110
10377TIP3   OH252545   5.501   0.499  13.887  0.0771  0.0855  0.4524
10377TIP3    H152546   5.422   0.550  13.905  0.8895  1.1119  1.2378
10377TIP3    H252547   5.531   0.469  13.973  0.1435 -0.9230  0.0889
10378TIP3   OH252548   6.166   6.305  17.009  1.0229  0.3581 -0.4975
10378TIP3    H152549   6.243   6.343  17.052  0.6434  1.0030 -0.3655
10378TIP3    H252550   6.104   6.378  17.003 -0.2865 -0.5519  1.0545
10379TIP3   OH252551   1.516   2.971   5.976  0.1377  0.2079  0.0257
10379TIP3    H152552   1.434   3.000   5.937 -0.8604 -1.2205  0.9655
10379TIP3    H252553   1.493   2.891   6.025  1.6929  0.8050  1.8747
10380TIP3   OH252554   0.082   0.221  11.268  0.6249  0.2820  0.1829
10380TIP3    H152555   0.018   0.226  11.198  0.3660  2.5878  0.5158
10380TIP3    H252556   0.151   0.282  11.242  1.7219 -0.6465  0.7996
10381TIP3   OH252557   1.061   3.954  14.654 -0.5097 -0.2620 -0.4972
10381TIP3    H152558   1.079   3.862  14.638 -2.7374 -0.6919 -0.9155
10381TIP3    H252559   1.132   4.001  14.609  0.2489 -1.7448 -0.9102
10382TIP3   OH252560   5.954   0.645  15.644 -0.1458  0.2904 -0.6436
10382TIP3    H152561   5.894   0.577  15.675 -0.2894  0.6468 -0.1282
10382TIP3    H252562   5.966   0.703  15.720  2.3226 -0.7830 -0.1121
10383TIP3   OH252563   2.735   2.279   3.152  0.2297  0.3542 -0.2604
10383TIP3    H152564   2.775   2.261   3.237 -1.1525  0.6623  0.4796
10383TIP3    H252565   2.666   2.214   3.143  0.6461  0.0326 -1.3779
10384TIP3   OH252566   0.463   0.848   2.336  0.1818  0.1640 -0.1623
10384TIP3    H152567   0.416   0.924   2.301 -0.1427 -0.4646 -1.1249
10384TIP3    H252568   0.458   0.782   2.266 -0.0415 -0.9545  0.8802
10385TIP3   OH252569   0.310   6.521  15.678 -0.2505  0.2535 -0.2321
10385TIP3    H152570   0.275   6.493  15.763  1.2225 -0.4943  0.1729
10385TIP3    H252571   0.240   6.571  15.638 -1.7787 -1.1908  0.5090
10386TIP3   OH252572   2.777   4.673  14.127 -0.2365 -0.1407  0.2087
10386TIP3    H152573   2.697   4.696  14.173  1.5667  1.2154  2.9783
10386TIP3    H252574   2.774   4.578  14.119 -1.7191 -0.1926  1.0861
10387TIP3   OH252575   5.567   1.539   2.393 -0.3340  0.3256 -0.0188
10387TIP3    H152576   5.662   1.544   2.396 -0.3263 -0.0301  2.4874
10387TIP3    H252577   5.537   1.609   2.451 -1.5929  0.2901 -0.5913
10388TIP3   OH252578   3.163   3.857  14.886 -0.0466 -0.4999 -0.1907
10388TIP3    H152579   3.069   3.860  14.903 -0.1935 -2.1361 -0.5483
10388TIP3    H252580   3.184   3.943  14.851 -1.0120  0.5811  1.7481
10389TIP3   OH252581   1.942   2.073  14.660  0.4177 -0.6596 -0.6186
10389TIP3    H152582   1.961   2.008  14.727 -0.9674  0.8106  1.2889
10389TIP3    H252583   1.934   2.156  14.707  1.4471  0.8208 -2.8735
10390TIP3   OH252584   3.247   0.841   0.604 -0.5645 -0.2647 -0.0208
10390TIP3    H152585   3.154   0.862   0.603 -0.3828  0.8381  1.4304
10390TIP3    H252586   3.256   0.774   0.672 -0.4364 -1.2747 -1.0049
10391TIP3   OH252587   5.207   5.446   3.791 -0.6609 -0.6007  0.5950
10391TIP3    H152588   5.175   5.356   3.794 -1.3115 -0.4701 -1.3054
10391TIP3    H252589   5.293   5.441   3.834  0.2628 -2.5845 -1.2380
10392TIP3   OH252590   2.122   4.637  13.657 -0.4046 -0.2017  0.1829
10392TIP3    H152591   2.203   4.591  13.678 -0.9847 -1.3129  0.0885
10392TIP3    H252592   2.125   4.717  13.709  0.9706  0.0133 -0.1981
10393TIP3   OH252593   5.939   1.604  12.822 -0.5644  0.2364 -0.0587
10393TIP3    H152594   5.869   1.620  12.885  0.2032 -0.7154  1.0790
10393TIP3    H252595   5.927   1.512  12.797 -0.2674  0.3337 -0.5692
10394TIP3   OH252596   4.857   5.151   3.664  1.0502 -0.1748 -0.2733
10394TIP3    H152597   4.824   5.097   3.592 -0.8403 -0.6180  0.8487
10394TIP3    H252598   4.823   5.239   3.646  2.3860  0.2181 -1.0088
10395TIP3   OH252599   5.174   2.452  14.266  0.3165 -0.6775 -0.1395
10395TIP3    H152600   5.170   2.409  14.351 -0.2880 -0.2986  0.0319
10395TIP3    H252601   5.146   2.542  14.283 -0.4830 -0.7772 -0.8476
10396TIP3   OH252602   1.763   6.642   2.724  0.1804 -0.5533 -0.5274
10396TIP3    H152603   1.855   6.666   2.709  0.1162  0.5499  0.6934
10396TIP3    H252604   1.726   6.637   2.636  0.8138  1.5556 -0.9739
10397TIP3   OH252605   6.698   6.462   2.779 -0.2594 -0.3172 -0.4656
10397TIP3    H152606   6.706   6.401   2.706  0.4831 -1.1276  0.2689
10397TIP3    H252607   6.612   6.503   2.766 -0.0279 -0.2276 -1.9371
10398TIP3   OH252608   0.365   6.283   4.123 -0.4473 -0.3086 -0.2727
10398TIP3    H152609   0.389   6.373   4.143 -3.4583  0.7886 -1.0110
10398TIP3    H252610   0.383   6.235   4.203  0.8954  0.9901  0.2505
10399TIP3   OH252611   3.511   6.031  12.403 -0.0186  0.5096 -0.0400
10399TIP3    H152612   3.586   6.088  12.413  0.4635 -0.2951  1.2485
10399TIP3    H252613   3.451   6.057  12.474  0.4984 -0.9522  0.9890
10400TIP3   OH252614   0.611   5.647  14.588  0.8932 -0.3630  0.3417
10400TIP3    H152615   0.596   5.557  14.617 -0.7150  0.1673  1.2383
10400TIP3    H252616   0.685   5.677  14.640  0.4100 -0.6503  1.2134
10401TIP3   OH252617   2.367   2.616  17.069 -0.0341 -0.1131  0.2651
10401TIP3    H152618   2.422   2.563  17.127 -0.8716 -0.0834  1.1263
10401TIP3    H252619   2.279   2.581  17.082 -0.4573  0.8855  0.1437
10402TIP3   OH252620   4.613   3.144   3.636  0.3757  0.0286 -0.1248
10402TIP3    H152621   4.666   3.224   3.647 -1.0029  1.0134 -0.4727
10402TIP3    H252622   4.611   3.105   3.724  2.1314 -0.3541 -0.2107
10403TIP3   OH252623   2.260   3.357   2.771  0.4721 -0.1051  0.1920
10403TIP3    H152624   2.178   3.372   2.724  0.3926  0.5829  0.5256
10403TIP3    H252625   2.279   3.442   2.812 -0.1061 -0.9769  2.3968
10404TIP3   OH252626   5.654   3.428  11.524 -0.8346  0.0065  0.1853
10404TIP3    H152627   5.614   3.359  11.576 -2.5982  0.7465 -0.0877
10404TIP3    H252628   5.664   3.390  11.437 -0.7631 -0.2638  0.3110
10405TIP3   OH252629   1.254   0.961   0.397 -0.0443  0.0218 -0.5015
10405TIP3    H152630   1.227   0.938   0.486  0.9147 -0.6192 -0.3664
10405TIP3    H252631   1.290   0.880   0.361 -0.0562  0.3775 -1.3399
10406TIP3   OH252632   3.709   1.514  16.925 -0.0046  0.2187  0.5640
10406TIP3    H152633   3.703   1.452  16.853  0.7232 -0.1452  0.8062
10406TIP3    H252634   3.672   1.467  17.000  0.0196  0.2875  0.6198
10407TIP3   OH252635   0.728   3.136  16.897  0.8393  0.0093  0.1215
10407TIP3    H152636   0.732   3.198  16.823  1.3822 -0.4527 -0.2443
10407TIP3    H252637   0.689   3.187  16.968 -0.0605  0.3551 -0.5921
10408TIP3   OH252638   6.163   3.584  11.427 -0.1122  0.4001 -0.4057
10408TIP3    H152639   6.165   3.491  11.401 -0.2544  0.6876 -1.4806
10408TIP3    H252640   6.074   3.612  11.409 -0.0034  0.8137 -0.3093
10409TIP3   OH252641   3.728   3.841   6.012 -0.6442  0.2696  0.4209
10409TIP3    H152642   3.680   3.816   5.933 -4.4478 -1.5369  3.0583
10409TIP3    H252643   3.794   3.773   6.022  0.3506  0.8708 -1.4008
10410TIP3   OH252644   2.324   6.669   4.283  0.1720  0.1688 -0.7183
10410TIP3    H152645   2.330   6.595   4.343 -1.4634  2.2222  2.2701
10410TIP3    H252646   2.411   6.708   4.283  0.6432 -0.8469 -1.1427
10411TIP3   OH252647   4.474   0.107   4.370  0.7010  0.3989  0.1508
10411TIP3    H152648   4.437   0.019   4.372 -1.8285  1.3934  1.3015
10411TIP3    H252649   4.428   0.151   4.298 -0.7501  1.7657  1.8211
10412TIP3   OH252650   4.247   2.363   0.200  0.1367 -0.4413 -0.1113
10412TIP3    H152651   4.306   2.369   0.124 -1.2832 -0.9149 -1.3109
10412TIP3    H252652   4.260   2.446   0.246 -0.0177  0.5308 -1.7161
10413TIP3   OH252653   5.531   1.939   5.370  0.5620  0.0970  0.9145
10413TIP3    H152654   5.579   2.022   5.369  1.5799 -0.4821 -0.3003
10413TIP3    H252655   5.469   1.946   5.298  0.2924 -0.0148  1.1324
10414TIP3   OH252656   1.948   2.526   4.934  0.1627  0.1275 -0.5672
10414TIP3    H152657   1.987   2.611   4.951 -0.2678  0.1848  0.1317
10414TIP3    H252658   1.927   2.528   4.840  1.5217  0.2151 -0.8972
10415TIP3   OH252659   5.144   2.073   4.037  0.1785  0.0727 -0.4223
10415TIP3    H152660   5.225   2.036   4.072 -0.4852 -2.6593 -1.4766
10415TIP3    H252661   5.148   2.055   3.943 -1.3534  0.4660 -0.5952
10416TIP3   OH252662   3.080   4.971  11.042 -0.5396  0.0948  0.2591
10416TIP3    H152663   3.100   4.902  10.980 -0.9166  0.7440 -0.6078
10416TIP3    H252664   3.055   4.926  11.122 -1.2365 -0.7777 -0.4340
10417TIP3   OH252665   4.440   1.978  12.234  0.2138 -0.4369  0.8721
10417TIP3    H152666   4.420   1.925  12.157  1.7642 -0.7252  0.6396
10417TIP3    H252667   4.371   1.957  12.296 -0.6960 -0.6883 -0.1891
10418TIP3   OH252668   0.262   0.382   1.854  0.2371  0.0343 -0.4902
10418TIP3    H152669   0.167   0.366   1.857  0.4610 -1.4484 -0.5400
10418TIP3    H252670   0.271   0.474   1.877 -1.1907  0.1130 -0.1162
10419TIP3   OH252671   0.057   6.359   0.140 -0.3534 -0.2876 -0.0413
10419TIP3    H152672   0.014   6.344   0.055  0.4102  0.4289 -0.5623
10419TIP3    H252673   0.016   6.439   0.173  1.7603  1.4777 -1.3853
10420TIP3   OH252674   4.621   5.272   4.199 -0.6443  0.7553 -0.3846
10420TIP3    H152675   4.638   5.232   4.113 -2.9572  0.6589 -0.8494
10420TIP3    H252676   4.675   5.351   4.199  0.4570  0.0456 -1.3281
10421TIP3   OH252677   3.609   2.480  13.877  0.2921  0.2442 -0.0311
10421TIP3    H152678   3.563   2.535  13.814  1.1643  1.5808  0.4460
10421TIP3    H252679   3.680   2.440  13.826  0.4120  0.5509 -0.1036
10422TIP3   OH252680   3.682   0.662   4.064  0.6356 -0.0010 -0.5499
10422TIP3    H152681   3.721   0.577   4.084  1.8518  0.6180 -0.1472
10422TIP3    H252682   3.620   0.678   4.135  0.7214 -0.3652 -0.3934
10423TIP3   OH252683   4.769   2.906  15.122 -0.1441  0.5989  0.3140
10423TIP3    H152684   4.831   2.884  15.191  0.2069 -1.7392 -0.6591
10423TIP3    H252685   4.817   2.889  15.041 -1.5397  0.2402 -0.4704
10424TIP3   OH252686   1.211   4.707  13.716 -0.3686  0.3820  0.3646
10424TIP3    H152687   1.212   4.631  13.774 -0.1716  0.0489 -0.0750
10424TIP3    H252688   1.165   4.677  13.637 -3.2718  1.6466  1.4250
10425TIP3   OH252689   6.279   2.017   6.498 -0.3859 -0.1850 -0.3491
10425TIP3    H152690   6.262   2.098   6.546  0.9560  0.9200 -1.6415
10425TIP3    H252691   6.198   1.966   6.508 -1.1907  1.2189  0.6612
10426TIP3   OH252692   3.813   2.049   1.923  0.2003  0.0912 -0.4496
10426TIP3    H152693   3.827   1.955   1.940 -1.3558 -0.2061 -0.6968
10426TIP3    H252694   3.841   2.060   1.832 -1.1668 -0.5197 -0.9766
10427TIP3   OH252695   1.000   0.016  16.349  0.0746 -0.7123 -0.4742
10427TIP3    H152696   1.039  -0.009  16.433 -0.7887 -2.1495 -0.4649
10427TIP3    H252697   0.923   0.068  16.373 -0.5056 -1.6181 -0.3420
10428TIP3   OH252698   2.152   2.453  15.235 -0.4934 -0.5800  0.3949
10428TIP3    H152699   2.086   2.522  15.244  2.0894  2.1826 -0.2712
10428TIP3    H252700   2.184   2.439  15.324 -0.8995 -0.7985  0.5086
10429TIP3   OH252701   1.184   3.366  16.519 -0.0113 -0.2385  0.0309
10429TIP3    H152702   1.198   3.313  16.598 -0.0253 -1.5915 -0.8301
10429TIP3    H252703   1.270   3.370  16.477 -0.2137 -0.4246 -0.4105
10430TIP3   OH252704   1.507   4.201   0.971  1.0829 -0.2157  0.0080
10430TIP3    H152705   1.598   4.228   0.976  0.6303  1.3825  0.1368
10430TIP3    H252706   1.459   4.265   1.024 -0.2558 -0.2552 -1.0854
10431TIP3   OH252707   1.950   5.474   6.751 -0.8466  0.3129  0.2696
10431TIP3    H152708   1.899   5.416   6.807 -0.9501  1.9409  1.9830
10431TIP3    H252709   2.025   5.422   6.723 -1.0791 -0.7283  1.5085
10432TIP3   OH252710   4.972   3.403   6.179 -0.3454  0.0580 -0.5836
10432TIP3    H152711   4.907   3.344   6.216  0.1131 -0.2950 -0.3358
10432TIP3    H252712   5.038   3.345   6.141  1.6893  0.2905  2.3100
10433TIP3   OH252713   3.089   2.094  17.266  0.6586  0.9873  0.2417
10433TIP3    H152714   3.060   2.185  17.254  0.9283  0.9320 -0.9887
10433TIP3    H252715   3.183   2.096  17.246  0.5125  0.3140 -0.5807
10434TIP3   OH252716   1.383   0.668   3.166  0.4404 -0.6432 -0.5939
10434TIP3    H152717   1.456   0.718   3.131  0.2346  1.2047  1.4198
10434TIP3    H252718   1.323   0.658   3.092  1.5145  0.1324 -1.6012
10435TIP3   OH252719   1.643   2.472   4.535 -0.0186  0.0443  0.3225
10435TIP3    H152720   1.630   2.549   4.478  0.4460  0.6378  1.0017
10435TIP3    H252721   1.558   2.428   4.535 -0.7624  1.4034  1.1205
10436TIP3   OH252722   1.806   3.693   0.886  0.1614  0.5817 -0.9908
10436TIP3    H152723   1.869   3.704   0.958 -0.8516 -1.3104  0.2777
10436TIP3    H252724   1.721   3.714   0.926 -0.7343 -2.8371 -0.8312
10437TIP3   OH252725   2.253   6.723   2.287 -0.1478 -0.0847 -0.7029
10437TIP3    H152726   2.269   6.799   2.230  0.9317  0.1549 -0.1018
10437TIP3    H252727   2.254   6.648   2.227  0.8672  0.1752 -1.0418
10438TIP3   OH252728   0.222   1.068   0.228 -0.0321 -0.4596  0.0746
10438TIP3    H152729   0.150   1.037   0.174  0.2402 -0.9249 -0.0254
10438TIP3    H252730   0.183   1.135   0.285 -0.6014 -0.9147  0.2226
10439TIP3   OH252731   4.353   2.509   2.275  0.1915 -0.0445 -0.3474
10439TIP3    H152732   4.262   2.481   2.265  0.3842 -0.5746 -0.6611
10439TIP3    H252733   4.348   2.592   2.323 -0.4630 -0.0057 -0.4781
10440TIP3   OH252734   5.862   2.578  13.858  0.0116 -0.5550  0.0004
10440TIP3    H152735   5.899   2.647  13.913 -0.7668 -0.1087 -0.0370
10440TIP3    H252736   5.917   2.578  13.780  2.1119 -2.2087  1.3478
10441TIP3   OH252737   3.247   5.704  13.840 -0.0319 -0.2125  0.0904
10441TIP3    H152738   3.326   5.675  13.795 -0.1191  0.9111 -0.8074
10441TIP3    H252739   3.210   5.623  13.877 -0.5257 -1.3699 -2.7182
10442TIP3   OH252740   6.727   1.876   6.774  0.2624 -0.6381  0.0963
10442TIP3    H152741   6.652   1.893   6.831 -1.0252 -1.5194 -1.2482
10442TIP3    H252742   6.752   1.962   6.741 -0.7984 -0.4350 -0.2082
10443TIP3   OH252743   2.266   1.349  12.684 -0.2944 -0.2577  0.2739
10443TIP3    H152744   2.289   1.366  12.775  0.6592 -1.3964  0.2667
10443TIP3    H252745   2.171   1.340  12.684 -0.4326  1.0001  0.9272
10444TIP3   OH252746   4.823   1.272   3.991 -0.2952  0.1394 -0.1920
10444TIP3    H152747   4.746   1.220   3.971 -0.7436  0.9694 -0.6790
10444TIP3    H252748   4.894   1.230   3.943 -0.0073 -1.7857  1.7852
10445TIP3   OH252749   2.018   4.188   2.809  0.2743 -0.0024 -0.1912
10445TIP3    H152750   1.999   4.106   2.765 -0.1936  0.4573 -0.8690
10445TIP3    H252751   2.104   4.213   2.777  2.5860 -2.4121  3.3673
10446TIP3   OH252752   6.455   1.554  17.399  0.1343  0.5055  0.0415
10446TIP3    H152753   6.460   1.482  17.337  0.6126  0.1370  0.4992
10446TIP3    H252754   6.396   1.523  17.468  1.7159 -0.1775  1.1498
10447TIP3   OH252755   0.148   4.241  12.618  0.0329  0.2164 -0.2592
10447TIP3    H152756   0.157   4.146  12.625 -0.3203  0.1579 -0.5736
10447TIP3    H252757   0.227   4.269  12.572  0.1338  0.0727 -0.1744
10448TIP3   OH252758   2.589   5.725   2.956  0.3492 -0.0652 -0.2138
10448TIP3    H152759   2.651   5.761   2.892  1.8991 -2.4408 -0.1752
10448TIP3    H252760   2.547   5.802   2.995  0.5958  1.5099 -2.8431
10449TIP3   OH252761   0.690   5.782  14.814  0.2547  0.0749 -0.1143
10449TIP3    H152762   0.716   5.798  14.904 -1.2681  0.5393  0.2785
10449TIP3    H252763   0.594   5.783  14.816  0.1170  2.5165 -2.0902
10450TIP3   OH252764   3.988   4.470  14.558  0.0019 -0.1753 -0.4702
10450TIP3    H152765   3.918   4.501  14.615  0.7554  0.1106  0.3325
10450TIP3    H252766   3.986   4.530  14.483 -0.3512  0.0794 -0.2610
10451TIP3   OH252767   1.687   1.236  13.232 -0.3820 -0.0444 -0.1875
10451TIP3    H152768   1.771   1.235  13.186 -0.2567 -2.0450 -0.0218
10451TIP3    H252769   1.644   1.316  13.203  1.4495  0.8551 -0.5139
10452TIP3   OH252770   2.685   4.475   1.107 -0.4671  0.5346 -0.0392
10452TIP3    H152771   2.621   4.460   1.037  0.2398  1.1327 -0.8258
10452TIP3    H252772   2.649   4.549   1.156 -0.4455  0.7882 -0.4019
10453TIP3   OH252773   1.099   4.794   4.154  0.2135  0.4200  0.1317
10453TIP3    H152774   1.096   4.851   4.076 -0.6682  0.3701  0.1136
10453TIP3    H252775   1.192   4.779   4.169  0.4212  0.9517 -0.5394
10454TIP3   OH252776   2.341   1.165  13.059 -0.1107 -0.2272  0.0324
10454TIP3    H152777   2.316   1.239  13.005 -0.3330 -0.5560 -0.3225
10454TIP3    H252778   2.305   1.185  13.146 -0.5433 -0.1181 -0.1683
10455TIP3   OH252779   3.430   6.306  13.120 -0.5315 -0.0188  0.3920
10455TIP3    H152780   3.366   6.242  13.091 -0.0689  0.1605 -1.1280
10455TIP3    H252781   3.381   6.366  13.176 -0.9530 -1.7192  1.9286
10456TIP3   OH252782   0.403   4.914   5.881 -0.0307 -0.6240 -0.3611
10456TIP3    H152783   0.447   4.965   5.813 -1.0327  1.3753  0.4219
10456TIP3    H252784   0.474   4.883   5.937  0.6701 -0.8814 -1.3739
10457TIP3   OH252785   0.181   0.613   3.261  0.2692  0.8567 -0.5135
10457TIP3    H152786   0.139   0.611   3.347  1.2387  1.3551 -0.0141
10457TIP3    H252787   0.134   0.681   3.213 -0.2380  0.6190 -0.3624
10458TIP3   OH252788   2.596   0.585   5.981 -0.7674 -0.2318 -0.1159
10458TIP3    H152789   2.692   0.583   5.980 -0.6702  1.8848  0.2284
10458TIP3    H252790   2.570   0.511   5.926  1.0263 -1.4659  0.5934
10459TIP3   OH252791   5.060   3.908   1.275 -0.5289 -0.0416 -0.6476
10459TIP3    H152792   4.982   3.894   1.330  0.7401 -0.7936  1.0507
10459TIP3    H252793   5.125   3.944   1.335  0.4450  0.6127 -2.0449
10460TIP3   OH252794   0.932   5.659  14.711  0.0253  0.3721 -0.0511
10460TIP3    H152795   0.984   5.582  14.735  0.2084  0.6781  0.5429
10460TIP3    H252796   0.896   5.691  14.794 -1.9580 -0.4170 -0.5466
10461TIP3   OH252797   2.477   2.079  17.257  0.0209  0.4623 -0.6228
10461TIP3    H152798   2.502   1.987  17.256 -0.9684  0.1689 -2.0186
10461TIP3    H252799   2.397   2.082  17.310  1.0451  0.8509  0.9752
10462TIP3   OH252800   6.446   0.011  13.928  0.0186 -0.2633  0.3739
10462TIP3    H152801   6.431  -0.026  13.842  0.3710  0.9582 -0.2363
10462TIP3    H252802   6.449   0.106  13.914  2.2931 -0.1044  1.3485
10463TIP3   OH252803   0.448   0.055   1.500 -0.0548 -0.3877  0.8109
10463TIP3    H152804   0.505   0.066   1.424  1.3670 -0.7283  1.7707
10463TIP3    H252805   0.401  -0.027   1.485  0.0965 -0.3679  0.2366
10464TIP3   OH252806   2.708   0.752  16.310  0.1405 -0.1972 -0.2381
10464TIP3    H152807   2.691   0.697  16.386  1.4278 -2.1636 -1.2991
10464TIP3    H252808   2.780   0.709  16.264  2.0973  3.0328 -0.5236
10465TIP3   OH252809   6.102   5.951   3.366  0.2495 -0.2152  0.0959
10465TIP3    H152810   6.054   5.885   3.416  0.6002  0.3834  1.2624
10465TIP3    H252811   6.065   5.947   3.278 -1.2233 -0.4750  0.7096
10466TIP3   OH252812   1.289   2.463   0.410  0.5488 -0.2442  0.3276
10466TIP3    H152813   1.312   2.538   0.466  1.1390 -1.0190  1.1467
10466TIP3    H252814   1.253   2.503   0.331 -0.9029  0.8980  1.4958
10467TIP3   OH252815   2.998   0.731  12.148 -0.2354 -0.1224  0.2612
10467TIP3    H152816   3.086   0.754  12.177  0.0624 -0.0446 -0.6740
10467TIP3    H252817   2.962   0.814  12.115 -1.0603  0.0866  1.5937
10468TIP3   OH252818   1.407   5.509   0.990  0.4121  0.3484 -0.0392
10468TIP3    H152819   1.439   5.504   1.080  0.5469  0.9607 -0.0485
10468TIP3    H252820   1.482   5.540   0.940  0.1069  0.7661 -0.2347
10469TIP3   OH252821   6.362   6.165  15.262  0.2400 -0.0563 -0.0233
10469TIP3    H152822   6.335   6.202  15.347 -1.6912  2.1996 -1.4784
10469TIP3    H252823   6.293   6.101  15.242  0.2900 -0.0525 -0.2026
10470TIP3   OH252824   0.647   4.592  13.038  0.2024 -0.1936 -0.3769
10470TIP3    H152825   0.613   4.574  12.950 -1.1998  0.6488 -0.0437
10470TIP3    H252826   0.654   4.687  13.042  0.6665 -0.2485  0.2872
10471TIP3   OH252827   4.705   3.530   2.185 -0.2515 -0.0797  0.9598
10471TIP3    H152828   4.662   3.531   2.270 -0.1102  0.2711  1.0280
10471TIP3    H252829   4.633   3.522   2.122 -0.4432  0.7421  1.0630
10472TIP3   OH252830   4.213   1.884  15.289 -0.0252  1.2769  0.2020
10472TIP3    H152831   4.147   1.953  15.299 -0.3164  0.7720  1.9839
10472TIP3    H252832   4.205   1.831  15.368  1.0575 -0.0749 -0.5583
10473TIP3   OH252833   3.477   0.044  10.737 -1.0176  0.0813 -0.5596
10473TIP3    H152834   3.384   0.023  10.738 -1.2584  1.0901 -0.7943
10473TIP3    H252835   3.518  -0.025  10.789 -1.7540 -0.9796 -1.3416
10474TIP3   OH252836   0.244   3.900   0.926 -0.4976  0.5894  0.1900
10474TIP3    H152837   0.192   3.824   0.949 -1.4607  1.0051 -0.5326
10474TIP3    H252838   0.223   3.966   0.992 -0.3410  0.5231  0.3067
10475TIP3   OH252839   0.211   0.405  13.496  0.1436 -0.5267 -0.0594
10475TIP3    H152840   0.205   0.310  13.491 -0.8553 -0.4254 -1.0575
10475TIP3    H252841   0.277   0.428  13.430 -0.8951 -0.4223 -1.0994
10476TIP3   OH252842   4.523   5.317   3.731 -0.4184  0.2462  0.5875
10476TIP3    H152843   4.617   5.339   3.734 -1.0526  3.5855  0.0381
10476TIP3    H252844   4.502   5.317   3.638 -0.8016 -1.8043  0.6132
10477TIP3   OH252845   5.408   0.608   4.421 -0.0167 -0.0686  0.3571
10477TIP3    H152846   5.390   0.696   4.455  0.2870  0.5205 -0.9547
10477TIP3    H252847   5.498   0.612   4.390 -0.5049 -0.3593 -1.1707
10478TIP3   OH252848   3.295   4.637  15.092 -0.0031  0.5829  0.0105
10478TIP3    H152849   3.221   4.639  15.153  0.8324 -1.4029  1.1930
10478TIP3    H252850   3.373   4.639  15.148  0.7931 -0.8716 -0.9795
10479TIP3   OH252851   0.703   3.977  15.390 -0.1928 -0.0471 -0.1353
10479TIP3    H152852   0.739   4.065  15.378 -1.2290  0.5918  1.1840
10479TIP3    H252853   0.775   3.925  15.425  0.7084 -0.0088 -1.8584
10480TIP3   OH252854   2.811   5.583  15.491 -0.4068  0.1051  0.2570
10480TIP3    H152855   2.872   5.628  15.549 -1.5692 -0.2806  1.8522
10480TIP3    H252856   2.822   5.625  15.406  1.5560  0.5020  0.6753
10481TIP3   OH252857   1.498   3.380  10.914 -0.0686  0.2386 -0.3521
10481TIP3    H152858   1.441   3.377  10.837  0.5586 -1.5258 -0.7992
10481TIP3    H252859   1.584   3.353  10.881  0.1683 -0.7598  0.9816
10482TIP3   OH252860   3.489   2.004  13.839  0.4063  0.2713  0.2779
10482TIP3    H152861   3.464   2.020  13.748 -0.2417  0.1366  0.4283
10482TIP3    H252862   3.417   1.953  13.875  0.4388  0.7256  0.9962
10483TIP3   OH252863   3.160   2.858  12.102 -0.0713 -0.5088  0.0379
10483TIP3    H152864   3.218   2.783  12.091  0.9761  0.3556 -0.4189
10483TIP3    H252865   3.085   2.838  12.045  0.4724 -0.9274 -0.5456
10484TIP3   OH252866   3.584   3.846  13.092 -0.3318 -1.0342 -0.1069
10484TIP3    H152867   3.592   3.873  13.183  0.1284  0.6083 -0.6086
10484TIP3    H252868   3.576   3.927  13.043  1.6486 -1.7221 -1.7455
10485TIP3   OH252869   3.117   3.669   0.685 -0.6106 -0.3552  0.8332
10485TIP3    H152870   3.089   3.599   0.626  3.2771 -0.5537 -1.0405
10485TIP3    H252871   3.154   3.623   0.760 -2.1772 -0.1222  1.8113
10486TIP3   OH252872   3.184   0.598   0.178  0.8618  0.5658 -0.8205
10486TIP3    H152873   3.228   0.679   0.203  1.7544 -0.0009 -0.4992
10486TIP3    H252874   3.255   0.536   0.164  0.1397 -0.6704  0.6927
10487TIP3   OH252875   4.085   0.053   0.699  0.1112 -0.2519  0.4866
10487TIP3    H152876   4.011   0.031   0.756  0.1479 -1.7966 -0.0331
10487TIP3    H252877   4.047   0.058   0.611 -0.1198  2.9967  0.6414
10488TIP3   OH252878   4.871   6.641  16.806 -0.0613  0.1020 -0.3026
10488TIP3    H152879   4.923   6.561  16.800  0.2951  0.3822 -1.0299
10488TIP3    H252880   4.934   6.712  16.790 -0.8968  0.3906 -2.6882
10489TIP3   OH252881   0.586   2.673  13.190  0.6587  0.4291  0.8975
10489TIP3    H152882   0.512   2.636  13.142 -0.6826  1.1471  2.3233
10489TIP3    H252883   0.612   2.603  13.251  0.4289  0.5700  1.1582
10490TIP3   OH252884   1.464   1.471   4.068 -0.1589 -0.7402  0.5947
10490TIP3    H152885   1.462   1.378   4.090 -1.0879 -0.7916  0.3079
10490TIP3    H252886   1.372   1.497   4.061  0.0816  0.2956  1.0677
10491TIP3   OH252887   5.137   4.034  17.048 -0.2520  0.1622 -0.1218
10491TIP3    H152888   5.203   3.972  17.016  0.0227  0.4746 -0.1568
10491TIP3    H252889   5.092   4.065  16.969 -0.3581  0.0463 -0.1069
10492TIP3   OH252890   0.919   2.413   4.555  0.1540  0.2465 -0.1938
10492TIP3    H152891   0.859   2.371   4.492 -0.2214 -0.0434  0.3536
10492TIP3    H252892   0.994   2.439   4.502 -0.8596  1.4778 -1.0930
10493TIP3   OH252893   6.392   3.211  13.120  0.3715 -0.2975  0.2099
10493TIP3    H152894   6.373   3.248  13.034  0.2149  0.2059  0.4544
10493TIP3    H252895   6.371   3.282  13.182 -0.8599 -1.1159  0.7596
10494TIP3   OH252896   5.340   1.448   3.626  0.3655  0.1707 -0.4175
10494TIP3    H152897   5.377   1.366   3.659  1.7850  1.1803  0.6296
10494TIP3    H252898   5.389   1.465   3.545 -1.2395 -0.9172 -1.6947
10495TIP3   OH252899   1.717   4.919   1.190  0.1886 -0.2713 -0.1605
10495TIP3    H152900   1.700   4.933   1.097  0.0309 -0.6401 -0.1889
10495TIP3    H252901   1.733   5.007   1.226  0.6680 -0.1661 -0.6167
10496TIP3   OH252902   5.605   2.399  15.188  0.7392  0.3589 -0.0035
10496TIP3    H152903   5.532   2.372  15.244 -0.1407  0.2464 -1.1732
10496TIP3    H252904   5.577   2.483  15.152  1.9870  1.2148  0.9337
10497TIP3   OH252905   0.595   6.533   3.626 -0.1187  0.5441  0.2295
10497TIP3    H152906   0.669   6.588   3.601  0.0684 -0.4177 -1.5096
10497TIP3    H252907   0.518   6.579   3.592 -0.0311  0.1368 -0.5461
10498TIP3   OH252908   2.800   1.460   1.685 -0.4625  0.0036 -0.1098
10498TIP3    H152909   2.751   1.409   1.749 -0.7281  0.3402 -0.0380
10498TIP3    H252910   2.786   1.551   1.712 -0.4623  0.1405 -0.5618
10499TIP3   OH252911   2.771   6.117  11.548  0.0888 -0.0201 -0.2236
10499TIP3    H152912   2.686   6.083  11.519  0.1213  0.1104 -0.4650
10499TIP3    H252913   2.749   6.176  11.621 -0.0612  0.3585 -0.5754
10500TIP3   OH252914   2.190   4.483   2.068 -0.1361  0.0243 -0.5978
10500TIP3    H152915   2.113   4.493   2.124 -0.0596 -0.1224 -0.4672
10500TIP3    H252916   2.259   4.533   2.113 -0.4324  1.0584 -1.2569
10501TIP3   OH252917   5.585   3.369  14.044 -0.1002 -0.0773  0.0197
10501TIP3    H152918   5.675   3.387  14.069  0.0138  0.5268 -0.7590
10501TIP3    H252919   5.588   3.361  13.948 -0.4836 -2.4317  0.1544
10502TIP3   OH252920   6.453   3.758  14.531 -0.2994  0.2900  0.2670
10502TIP3    H152921   6.469   3.674  14.488 -0.0449  1.6494 -2.4777
10502TIP3    H252922   6.398   3.736  14.607 -1.1772 -2.2266 -1.0020
10503TIP3   OH252923   6.285   5.763   2.590 -0.3155 -0.2563  0.2022
10503TIP3    H152924   6.272   5.849   2.631  0.2863  0.0633 -0.2587
10503TIP3    H252925   6.224   5.763   2.516  1.5663  0.9208 -1.4751
10504TIP3   OH252926   5.155   5.679   3.221  0.0248  0.3332 -0.4505
10504TIP3    H152927   5.112   5.759   3.189  0.2213  0.3264 -0.7385
10504TIP3    H252928   5.184   5.634   3.141 -0.5456 -0.2840 -0.3192
10505TIP3   OH252929   0.280   5.862  12.196 -0.3574 -0.2383  0.6312
10505TIP3    H152930   0.231   5.783  12.221 -0.7659  0.0976  0.9054
10505TIP3    H252931   0.230   5.900  12.125  0.6105 -0.9904 -0.5032
10506TIP3   OH252932   3.656   1.436   2.746  0.1155 -0.7697  0.0038
10506TIP3    H152933   3.667   1.444   2.651  2.1472  2.3120  0.3692
10506TIP3    H252934   3.579   1.491   2.766 -0.1166 -1.1559  0.1809
10507TIP3   OH252935   1.201   1.271  13.609 -0.0568 -0.0593  0.4919
10507TIP3    H152936   1.269   1.259  13.676 -0.7210  1.9147  1.6194
10507TIP3    H252937   1.238   1.338  13.551 -0.2625 -0.3916 -0.0266
10508TIP3   OH252938   6.359   3.229  14.309  0.3349  0.3201 -0.0454
10508TIP3    H152939   6.299   3.236  14.235  1.1444  0.0373 -0.7406
10508TIP3    H252940   6.302   3.215  14.385 -0.4713 -0.0572 -0.7042
10509TIP3   OH252941   5.426   4.743  12.550  0.2637  0.6627 -0.4666
10509TIP3    H152942   5.410   4.667  12.493 -0.6995  1.1767 -0.9011
10509TIP3    H252943   5.360   4.735  12.619 -0.5763  1.6779 -1.1197
10510TIP3   OH252944   2.474   2.954  16.134  0.9015 -0.0094 -0.0736
10510TIP3    H152945   2.450   2.932  16.224 -2.0536  2.3021 -0.1642
10510TIP3    H252946   2.511   3.042  16.139 -2.5134  1.6897 -1.3140
10511TIP3   OH252947   0.249   3.533  11.855 -0.3342  0.3562  0.5430
10511TIP3    H152948   0.169   3.520  11.805  0.0489  0.9275 -0.2441
10511TIP3    H252949   0.313   3.474  11.814  0.1295  1.2276 -0.0043
10512TIP3   OH252950   2.410   5.432   5.486  0.4041 -0.1935 -0.0273
10512TIP3    H152951   2.490   5.475   5.458  0.0301 -0.9438 -2.5035
10512TIP3    H252952   2.347   5.450   5.415 -0.8933 -1.5835  0.7137
10513TIP3   OH252953   4.607   0.871   3.700  0.2761  0.0336  0.7776
10513TIP3    H152954   4.518   0.860   3.666  0.5920 -1.0642  0.2445
10513TIP3    H252955   4.630   0.785   3.734  1.1842  0.2776  0.8056
10514TIP3   OH252956   0.024   4.480   2.474  0.2186  0.1771  0.4066
10514TIP3    H152957   0.001   4.506   2.385 -0.2202  0.8696  0.7195
10514TIP3    H252958  -0.012   4.391   2.483  1.0057 -0.2424 -0.3801
10515TIP3   OH252959   6.280   4.598  13.377 -0.2354  0.5807  0.2041
10515TIP3    H152960   6.222   4.592  13.301  0.2196 -1.5150 -0.0316
10515TIP3    H252961   6.222   4.597  13.453 -0.5876  0.3294 -0.0697
10516TIP3   OH252962   0.736   1.283  16.769  0.1630 -0.3781  0.0033
10516TIP3    H152963   0.821   1.249  16.798  0.6719  1.3094  0.6312
10516TIP3    H252964   0.757   1.364  16.723 -0.9249 -1.3004 -2.2353
10517TIP3   OH252965   6.069   3.754   4.635  0.4343 -0.6819  0.5173
10517TIP3    H152966   6.164   3.742   4.630  0.5173 -1.5180  3.0464
10517TIP3    H252967   6.034   3.665   4.645 -0.4760 -0.2450  1.3445
10518TIP3   OH252968   0.366   0.449   3.592 -0.5876  0.7287 -0.0352
10518TIP3    H152969   0.276   0.451   3.626 -0.4297  2.0595  0.3979
10518TIP3    H252970   0.420   0.450   3.671 -0.2103  1.8227 -0.2924
10519TIP3   OH252971   6.149   5.320   5.761 -0.5049  0.0252  0.1041
10519TIP3    H152972   6.152   5.266   5.683 -1.0453  1.9836 -1.3476
10519TIP3    H252973   6.163   5.259   5.834 -2.0255 -2.1773 -1.3394
10520TIP3   OH252974   1.184   0.806  13.744  0.1936  0.4877 -0.6456
10520TIP3    H152975   1.217   0.895  13.735  1.1798  0.2719  0.5583
10520TIP3    H252976   1.211   0.762  13.664  0.5770  1.0162 -0.8127
10521TIP3   OH252977   3.874   1.465   3.146 -0.0889 -0.4032  0.0167
10521TIP3    H152978   3.950   1.483   3.201 -0.4126  0.8454  0.0698
10521TIP3    H252979   3.833   1.388   3.187  0.2942 -0.1605  0.8833
10522TIP3   OH252980   3.187   3.101   4.814  0.3337  0.3100 -0.0905
10522TIP3    H152981   3.205   3.101   4.720  0.6609  0.6593 -0.0284
10522TIP3    H252982   3.267   3.134   4.854  0.2472  0.0245  0.3246
10523TIP3   OH252983   6.160   6.591  10.618 -0.1382 -0.1210  0.2633
10523TIP3    H152984   6.068   6.612  10.602 -0.4065 -1.6404 -0.3103
10523TIP3    H252985   6.183   6.642  10.696 -1.9295 -0.9506  1.3923
10524TIP3   OH252986   6.231   2.220   0.392 -0.3656 -0.1034  0.1188
10524TIP3    H152987   6.235   2.126   0.407  0.3530  0.1058  1.4146
10524TIP3    H252988   6.181   2.230   0.311  1.2900 -1.7041 -1.1832
10525TIP3   OH252989   0.468   4.262  14.785  0.0861  0.2726 -0.1406
10525TIP3    H152990   0.496   4.196  14.722  0.4737 -1.1069  1.4227
10525TIP3    H252991   0.375   4.243  14.800 -0.1096  0.8498 -0.5570
10526TIP3   OH252992   4.766   4.756   5.937  0.3878 -0.0285 -0.5754
10526TIP3    H152993   4.689   4.716   5.896  1.0568 -0.4052 -1.4973
10526TIP3    H252994   4.731   4.808   6.009 -0.4628 -3.0447  1.3364
10527TIP3   OH252995   5.215   4.100   1.934  0.0100 -0.2447  0.2853
10527TIP3    H152996   5.301   4.112   1.894 -0.2140 -0.5662 -0.2983
10527TIP3    H252997   5.168   4.181   1.914  0.2018 -0.0264  0.6915
10528TIP3   OH252998   6.438   5.354  16.807  0.0278 -0.4365  0.0024
10528TIP3    H152999   6.458   5.443  16.779 -2.8558  0.3450  0.1545
10528TIP3    H253000   6.359   5.362  16.861  1.2185 -2.7753  2.3587
10529TIP3   OH253001   2.464   2.516   4.407 -0.8060 -0.2945  0.5308
10529TIP3    H153002   2.379   2.479   4.382 -0.6369 -0.4192  0.1290
10529TIP3    H253003   2.526   2.480   4.343 -0.3745 -0.5500  1.0796
10530TIP3   OH253004   1.721   3.985   4.623 -0.2777  0.7193  0.3018
10530TIP3    H153005   1.680   4.071   4.620 -2.3584 -0.1023  1.9034
10530TIP3    H253006   1.670   3.932   4.562 -0.3375  0.1426  0.8431
10531TIP3   OH253007   5.039   2.013  11.976 -0.4886  0.1343  0.0118
10531TIP3    H153008   5.097   1.959  12.029 -2.3581 -0.2797  1.7452
10531TIP3    H253009   5.083   2.098  11.972  1.2195 -0.7306 -0.5355
10532TIP3   OH253010   6.469   4.182   4.330  0.6202 -0.0589  0.1964
10532TIP3    H153011   6.460   4.252   4.395  0.1250 -0.6482  0.7687
10532TIP3    H253012   6.561   4.157   4.335  0.1423 -1.6800  2.3658
10533TIP3   OH253013   1.061   2.703   4.018  0.2807  0.2402  0.7705
10533TIP3    H153014   1.018   2.697   3.933 -0.6169  2.7075  0.9789
10533TIP3    H253015   1.072   2.612   4.046  1.5642 -0.7046 -2.3933
10534TIP3   OH253016   0.904   5.390  14.625  0.3486 -0.4086  0.0722
10534TIP3    H153017   0.948   5.360  14.704 -1.3439 -1.9224  0.5034
10534TIP3    H253018   0.814   5.409  14.653 -1.2159 -3.8469 -1.9005
10535TIP3   OH253019   5.207   3.995  10.557  0.2981  0.8009  0.3965
10535TIP3    H153020   5.203   3.990  10.653 -0.1283  0.3958  0.3597
10535TIP3    H253021   5.179   4.084  10.537  2.3440  1.5607  0.7487
10536TIP3   OH253022   2.093   1.717  16.634 -0.2083  0.3084 -0.3336
10536TIP3    H153023   2.128   1.628  16.636 -3.1667 -1.0235 -1.4352
10536TIP3    H253024   2.105   1.745  16.543  0.7959  1.1037  0.0312
10537TIP3   OH253025   2.360   4.934  12.514 -0.2868  0.0018  0.1497
10537TIP3    H153026   2.332   5.014  12.469 -0.6157  0.2045  0.6996
10537TIP3    H253027   2.331   4.863  12.456  1.7785  0.2973 -1.3323
10538TIP3   OH253028   4.877   4.813   0.694 -0.4716  0.4582 -0.1670
10538TIP3    H153029   4.949   4.821   0.631 -0.4126  1.6806  0.0240
10538TIP3    H253030   4.905   4.744   0.753  0.2948  0.5193 -0.4379
10539TIP3   OH253031   3.858   4.813  17.435 -0.2202  0.3207 -0.4553
10539TIP3    H153032   3.847   4.903  17.404  1.4906  1.0848  0.9741
10539TIP3    H253033   3.951   4.806  17.456 -0.3436 -1.7541 -0.3770
10540TIP3   OH253034   6.598   4.364   6.489 -0.2301  0.0464  0.6057
10540TIP3    H153035   6.570   4.274   6.471  3.9240 -0.9880 -2.4893
10540TIP3    H253036   6.660   4.356   6.562  2.2691 -0.3366 -1.3871
10541TIP3   OH253037   5.425   6.446  12.623  0.2406  0.6769 -0.3323
10541TIP3    H153038   5.468   6.504  12.687 -1.5386  0.3980  1.2022
10541TIP3    H253039   5.431   6.494  12.540  1.2582  1.7650  0.3220
10542TIP3   OH253040   4.869   1.398   3.441 -0.0343  0.7203 -0.0854
10542TIP3    H153041   4.957   1.429   3.416  0.9818 -0.5247  1.7095
10542TIP3    H253042   4.829   1.474   3.484  1.7958  0.2767  2.7625
10543TIP3   OH253043   1.243   0.052  13.057 -0.4735  0.4604 -0.4107
10543TIP3    H153044   1.269   0.073  12.968  0.8023 -0.2067 -0.2127
10543TIP3    H253045   1.312   0.090  13.112 -1.4794  1.2793  0.3436
10544TIP3   OH253046   3.283   0.162   1.740  0.0259 -0.5376  0.0339
10544TIP3    H153047   3.357   0.142   1.682 -0.7137  1.0237 -1.5602
10544TIP3    H253048   3.271   0.256   1.730 -3.0714 -0.9351 -0.9055
10545TIP3   OH253049   1.850   2.472  13.587  0.1846 -0.2182 -0.0518
10545TIP3    H153050   1.917   2.519  13.637  1.0141 -0.3596 -1.0189
10545TIP3    H253051   1.851   2.513  13.501 -2.7783  1.5487  0.5992
10546TIP3   OH253052   3.845   3.544  10.701 -0.7760 -0.1498  0.0500
10546TIP3    H153053   3.912   3.608  10.678 -0.5993 -0.4316 -0.2373
10546TIP3    H253054   3.764   3.579  10.663 -1.4529  1.7452  2.9810
10547TIP3   OH253055   0.868   2.696  11.474  0.9114  0.0407 -0.4054
10547TIP3    H153056   0.868   2.788  11.502  2.4229 -0.4163  1.3105
10547TIP3    H253057   0.872   2.701  11.378  0.1681  1.7489 -0.3891
10548TIP3   OH253058   4.982   1.036   4.666  0.1815 -0.2372  0.4317
10548TIP3    H153059   4.969   0.942   4.680  0.8399 -0.4358 -0.2445
10548TIP3    H253060   5.072   1.052   4.694  0.1314  0.1630  0.3703
10549TIP3   OH253061   1.859   3.586  16.673  0.2296  0.0976  0.2440
10549TIP3    H153062   1.858   3.653  16.605  1.1366 -0.9949 -0.8902
10549TIP3    H253063   1.809   3.513  16.636  0.4360 -0.3850  0.8966
10550TIP3   OH253064   3.073   4.957  14.490 -0.0955  0.6639  0.2492
10550TIP3    H153065   2.985   4.920  14.492  0.7890 -1.6331 -0.3246
10550TIP3    H253066   3.106   4.945  14.579 -0.2881  1.3767  0.4221
10551TIP3   OH253067   5.422   0.636   3.681  0.1309 -0.9911 -0.6226
10551TIP3    H153068   5.512   0.624   3.710  0.2403  1.5081  0.3407
10551TIP3    H253069   5.371   0.580   3.740  0.8827 -0.6602  0.3814
10552TIP3   OH253070   1.524   2.440  13.991 -0.0069 -0.4395 -0.3393
10552TIP3    H153071   1.592   2.490  13.945 -0.2153 -1.0985 -1.4052
10552TIP3    H253072   1.549   2.445  14.083  0.0887  1.4255 -0.4451
10553TIP3   OH253073   3.663   4.779   0.448 -0.0745 -0.1278  0.2056
10553TIP3    H153074   3.603   4.787   0.522  1.0487 -0.5528  1.2051
10553TIP3    H253075   3.707   4.695   0.462  0.1696 -0.2021 -0.9409
10554TIP3   OH253076   6.726   2.641   0.377  0.1056  0.0819  0.2824
10554TIP3    H153077   6.718   2.609   0.467 -0.7291 -0.3423  0.0696
10554TIP3    H253078   6.750   2.564   0.326  0.2799  0.2585  0.0981
10555TIP3   OH253079   2.484   4.974  13.153  0.3681 -1.0414  0.0780
10555TIP3    H153080   2.491   4.968  13.058 -1.3609 -1.4887 -0.0511
10555TIP3    H253081   2.437   4.896  13.179 -1.7184  0.4191  0.9705
10556TIP3   OH253082   2.950   0.252  11.830 -0.1635  0.8688  0.4041
10556TIP3    H153083   2.875   0.245  11.889  0.0184 -0.4489  0.5222
10556TIP3    H253084   2.973   0.345  11.831 -1.0526  1.1027  1.2862
10557TIP3   OH253085   1.588   0.749  11.307  0.2482  0.0520 -0.3146
10557TIP3    H153086   1.526   0.677  11.315  0.6436 -0.2306  0.2766
10557TIP3    H253087   1.644   0.725  11.234 -0.4022  0.3694 -0.9376
10558TIP3   OH253088   3.220   3.174  17.485  0.3578 -0.1284  0.2366
10558TIP3    H153089   3.239   3.207  17.573  0.1273  1.2040 -0.1850
10558TIP3    H253090   3.250   3.243  17.426 -0.1810 -0.6679 -0.6995
10559TIP3   OH253091   0.784   0.133   4.742  0.0999 -0.1778  0.2411
10559TIP3    H153092   0.771   0.211   4.795  2.5686  0.9291 -0.6448
10559TIP3    H253093   0.851   0.157   4.678  1.6322 -3.2548  0.4645
10560TIP3   OH253094   5.815   3.794  15.130  0.4448 -0.3359  0.4711
10560TIP3    H153095   5.721   3.809  15.140  0.6004  0.7349  0.4675
10560TIP3    H253096   5.841   3.850  15.058  1.4364  0.9521  1.7707
10561TIP3   OH253097   3.706   6.204   3.129 -0.1064  0.1705  0.5109
10561TIP3    H153098   3.684   6.290   3.165 -0.0372  0.0328  0.8906
10561TIP3    H253099   3.799   6.192   3.149 -0.0109  0.1841  0.0875
10562TIP3   OH253100   5.516   4.224   3.852 -0.3919 -0.4476  0.0558
10562TIP3    H153101   5.547   4.303   3.896 -0.4334 -0.1503 -0.4346
10562TIP3    H253102   5.480   4.170   3.921 -0.8244  0.1843  0.3288
10563TIP3   OH253103   0.726   1.872  13.815 -0.0656 -0.4973  0.0274
10563TIP3    H153104   0.815   1.906  13.820 -0.0390 -0.4217 -0.8135
10563TIP3    H253105   0.715   1.822  13.896 -0.6571  2.7155  2.1033
10564TIP3   OH253106   1.400   3.385  13.385  0.0434 -0.5716 -0.0265
10564TIP3    H153107   1.395   3.409  13.477 -0.3832  1.2490 -0.4913
10564TIP3    H253108   1.324   3.328  13.371 -1.5629  1.4313  0.1507
10565TIP3   OH253109   4.422   3.388  15.442  0.4081 -0.3952 -0.1651
10565TIP3    H153110   4.353   3.400  15.507  0.2624 -0.9731 -0.2012
10565TIP3    H253111   4.449   3.476  15.418  0.1300 -0.1705  0.3269
10566TIP3   OH253112   5.954   3.254  12.115 -0.2454 -0.1585 -0.7133
10566TIP3    H153113   5.945   3.243  12.020  0.7681 -1.4819 -0.6941
10566TIP3    H253114   6.049   3.264  12.128 -0.5695  2.9945 -0.0772
10567TIP3   OH253115   3.259   5.128   2.012  0.0155  0.1750  0.2413
10567TIP3    H153116   3.293   5.039   2.011  1.2666  0.6249  0.4888
10567TIP3    H253117   3.185   5.127   1.952  0.1943 -0.9553  0.0282
10568TIP3   OH253118   6.263   6.037   4.498  0.1392 -0.5364  0.2497
10568TIP3    H153119   6.256   6.103   4.429  0.0631 -2.1954 -1.3816
10568TIP3    H253120   6.356   6.017   4.504 -0.0323 -1.6409 -0.6047
10569TIP3   OH253121   5.809   1.337   1.443 -0.2409 -0.1612 -0.1642
10569TIP3    H153122   5.849   1.418   1.476  1.8662 -1.5201  0.8334
10569TIP3    H253123   5.720   1.339   1.477 -0.0539  1.4703  0.3202
10570TIP3   OH253124   0.885   6.396   5.827  0.4300 -0.5354  0.3646
10570TIP3    H153125   0.980   6.388   5.819  0.7475  2.5516 -0.2733
10570TIP3    H253126   0.870   6.407   5.921  0.8446 -0.0005  0.3750
10571TIP3   OH253127   5.256   4.892  15.803  0.7862  0.2673  0.2998
10571TIP3    H153128   5.306   4.813  15.824  1.8514  0.6485 -0.7150
10571TIP3    H253129   5.321   4.962  15.799 -0.1252  1.1844  1.0472
10572TIP3   OH253130   4.071   0.573   2.326 -0.4241 -0.6026 -0.1696
10572TIP3    H153131   4.080   0.490   2.279 -1.0326 -0.0551 -1.3097
10572TIP3    H253132   3.977   0.590   2.328 -0.4212 -0.6456  1.3610
10573TIP3   OH253133   4.144   1.509  13.682 -0.1388  0.2826  0.4312
10573TIP3    H153134   4.113   1.447  13.617 -1.0240  0.4004  0.7191
10573TIP3    H253135   4.203   1.567  13.635 -2.0548  1.4201 -0.7050
10574TIP3   OH253136   0.199   3.992  15.135 -0.0508 -0.0103 -0.1136
10574TIP3    H153137   0.115   3.951  15.154 -0.3685  0.9062  0.5527
10574TIP3    H253138   0.177   4.084  15.118  0.7323  0.0722 -0.7316
10575TIP3   OH253139   3.887   1.849  16.431 -0.0494  0.2004 -0.4487
10575TIP3    H153140   3.978   1.880  16.427 -0.2312  0.9386  0.6402
10575TIP3    H253141   3.835   1.920  16.395 -0.3499  0.6588  0.8101
10576TIP3   OH253142   2.712   5.576  12.013 -0.3389  0.0192  0.8155
10576TIP3    H153143   2.733   5.555  11.922 -0.3008 -0.6733  0.9839
10576TIP3    H253144   2.701   5.491  12.056  0.2245  0.3225  1.5942
10577TIP3   OH253145   3.951   5.936  12.440 -0.0505  0.8172 -0.0961
10577TIP3    H153146   3.952   5.900  12.352  3.3840  1.9404 -0.6662
10577TIP3    H253147   3.877   5.894  12.483 -1.2846 -0.4421 -3.2098
10578TIP3   OH253148   6.529   5.217  11.044  0.0774 -0.2707 -0.0437
10578TIP3    H153149   6.572   5.169  10.973 -1.1965 -0.1742 -0.9023
10578TIP3    H253150   6.445   5.174  11.055  0.6697 -0.9821  2.1940
10579TIP3   OH253151   0.412   2.418   5.572 -0.2913  0.3127 -0.3855
10579TIP3    H153152   0.453   2.480   5.633 -1.6496  0.2276  0.6574
10579TIP3    H253153   0.337   2.465   5.537 -0.4728 -0.2359 -0.7368
10580TIP3   OH253154   2.184   5.577   1.777  0.5590 -0.0395  0.4965
10580TIP3    H153155   2.102   5.528   1.768  0.6183 -0.4541  2.0200
10580TIP3    H253156   2.161   5.667   1.751 -0.1400 -0.3431  0.0282
10581TIP3   OH253157   1.228   5.993   1.197 -0.2154 -0.1475 -0.0191
10581TIP3    H153158   1.301   6.042   1.160  0.0312 -0.2049  0.3977
10581TIP3    H253159   1.161   5.996   1.128  0.0533  0.1820 -0.2711
10582TIP3   OH253160   0.028   5.928   3.388  0.1136  0.5815 -0.1711
10582TIP3    H153161   0.111   5.898   3.425  0.0664  1.7666  0.9750
10582TIP3    H253162  -0.012   5.980   3.458 -1.4863  0.2480 -0.7873
10583TIP3   OH253163   5.245   5.926   5.308 -0.4277  0.1198  0.4189
10583TIP3    H153164   5.199   6.004   5.339 -0.9384 -0.9844  2.5930
10583TIP3    H253165   5.331   5.931   5.350 -1.0260 -1.2519  1.8950
10584TIP3   OH253166   6.667   5.896  12.166  0.2027  0.1890 -0.3433
10584TIP3    H153167   6.656   5.969  12.227 -1.0680 -0.3865  0.1494
10584TIP3    H253168   6.636   5.819  12.215  0.6213 -0.5342 -1.1878
10585TIP3   OH253169   0.182   1.712   0.069  0.0342 -0.3766 -0.0421
10585TIP3    H153170   0.129   1.641   0.034  2.1457 -1.7641 -0.6064
10585TIP3    H253171   0.165   1.710   0.163 -2.1275  0.3390 -0.3594
10586TIP3   OH253172   4.484   1.893  15.536  0.2889 -0.6236  0.0903
10586TIP3    H153173   4.456   1.981  15.512  1.6029  0.3448  1.9238
10586TIP3    H253174   4.526   1.859  15.457  1.1145  0.9745 -0.1864
10587TIP3   OH253175   3.841   5.664  16.794 -0.7061 -0.2707  0.1818
10587TIP3    H153176   3.841   5.576  16.832  0.9250 -0.2871  0.1894
10587TIP3    H253177   3.876   5.720  16.862  0.3796  0.0087 -0.5766
10588TIP3   OH253178   5.201   5.340   5.931  0.0386  0.2960 -0.2465
10588TIP3    H153179   5.193   5.256   5.977  1.1703  0.4161  0.2165
10588TIP3    H253180   5.267   5.325   5.863  0.7674  0.9580  0.2782
10589TIP3   OH253181   0.123   0.685  17.468 -0.4138 -0.2361 -0.3077
10589TIP3    H153182   0.141   0.651  17.556  0.3612 -1.7821 -1.0061
10589TIP3    H253183   0.082   0.611  17.422  2.2995 -0.7075 -2.2187
10590TIP3   OH253184   4.923   6.264   3.164 -0.2302  0.2195 -0.2045
10590TIP3    H153185   4.982   6.335   3.191 -0.0038 -0.1952  0.4193
10590TIP3    H253186   4.869   6.303   3.096  0.1782  0.8703 -0.1718
10591TIP3   OH253187   2.882   1.124  15.491  0.4364 -0.0562  0.0927
10591TIP3    H153188   2.798   1.160  15.464 -0.2404 -0.7023  1.2756
10591TIP3    H253189   2.894   1.156  15.581  0.6916 -1.2454  0.4934
10592TIP3   OH253190   4.654   5.952  10.867 -0.0486  0.2267 -0.2597
10592TIP3    H153191   4.609   6.036  10.859  0.2932  0.3336 -1.1736
10592TIP3    H253192   4.584   5.888  10.883 -0.6084  0.3109 -2.1716
10593TIP3   OH253193   1.919   5.549   0.489  0.1448 -0.2290 -0.4993
10593TIP3    H153194   1.912   5.619   0.554 -0.4997 -0.1249 -0.6808
10593TIP3    H253195   1.902   5.592   0.405  0.2017 -0.5160 -0.6588
10594TIP3   OH253196   0.409   3.711  12.788  0.1156 -0.1293 -0.5823
10594TIP3    H153197   0.487   3.723  12.842  0.1622 -0.2899 -0.6114
10594TIP3    H253198   0.341   3.764  12.830 -0.6161 -2.3259  1.2112
10595TIP3   OH253199   5.037   1.951   1.937  0.4126  0.4134 -0.3495
10595TIP3    H153200   4.999   1.873   1.978 -0.1518 -0.1594 -1.8702
10595TIP3    H253201   5.121   1.963   1.982 -0.2171 -0.0868  1.0236
10596TIP3   OH253202   3.166   0.533  13.808 -0.0570  0.3591 -0.1298
10596TIP3    H153203   3.146   0.558  13.899 -1.8808  0.4053 -0.4993
10596TIP3    H253204   3.088   0.560  13.759  0.5030 -0.5293 -1.5508
10597TIP3   OH253205   4.237   0.502  12.683  0.6203  0.0295  0.2980
10597TIP3    H153206   4.310   0.556  12.651 -0.1208 -1.0559 -3.8815
10597TIP3    H253207   4.161   0.533  12.633 -1.0115 -1.3160  1.8115
10598TIP3   OH253208   3.073   4.900   4.784 -0.3052  0.1688 -0.0903
10598TIP3    H153209   3.032   4.987   4.778 -0.1067  0.3417  0.8952
10598TIP3    H253210   3.163   4.914   4.754  0.5970  0.9619  2.6995
10599TIP3   OH253211   3.612   5.049  14.681  0.0246 -0.6550  0.9220
10599TIP3    H153212   3.706   5.050  14.696  0.0052 -1.1272  1.0804
10599TIP3    H253213   3.593   4.960  14.651 -0.6598 -1.2047  2.8190
10600TIP3   OH253214   1.152   0.543   0.495 -0.0068  0.1569 -0.5962
10600TIP3    H153215   1.223   0.593   0.454 -0.2008  0.4797 -0.5461
10600TIP3    H253216   1.107   0.500   0.423  0.1004  0.1367 -0.6506
10601TIP3   OH253217   5.882   1.486  11.581 -0.2264  0.0953 -0.5250
10601TIP3    H153218   5.896   1.458  11.671  0.0914 -0.4223 -0.7299
10601TIP3    H253219   5.795   1.453  11.558 -0.5572  0.7500 -0.2122
10602TIP3   OH253220   0.696   5.759  15.615 -0.6082 -0.2505 -0.1872
10602TIP3    H153221   0.739   5.830  15.663  2.0694 -1.5686 -0.4551
10602TIP3    H253222   0.607   5.756  15.651  0.1083  1.2983  1.9028
10603TIP3   OH253223   6.209   2.175  13.348 -0.5718  0.1954  0.0663
10603TIP3    H153224   6.146   2.105  13.332 -1.6732  0.8003  1.5165
10603TIP3    H253225   6.242   2.199  13.261 -2.8898  0.3468 -0.8294
10604TIP3   OH253226   5.148   5.302   0.032 -0.6253 -0.4797  0.0077
10604TIP3    H153227   5.222   5.348   0.072  1.0638 -1.2135 -2.0398
10604TIP3    H253228   5.173   5.293  -0.060 -4.3915  1.3767 -1.3721
10605TIP3   OH253229   3.057   4.830  13.095  0.0107  0.2188 -0.0398
10605TIP3    H153230   3.087   4.883  13.169  0.6380 -0.9190  0.5628
10605TIP3    H253231   3.034   4.745  13.134 -0.5686 -0.0913 -1.0213
10606TIP3   OH253232   0.247   4.801   5.580 -0.4478 -0.2259 -0.4383
10606TIP3    H153233   0.230   4.844   5.664 -0.2410  0.7105 -0.8577
10606TIP3    H253234   0.324   4.747   5.595 -1.1695 -1.0798  0.3070
10607TIP3   OH253235   0.226   3.560  15.348  0.2695  0.0805  0.0447
10607TIP3    H153236   0.273   3.481  15.376 -0.9318  0.2372  2.8923
10607TIP3    H253237   0.175   3.585  15.425  1.0529  4.0094 -0.5413
10608TIP3   OH253238   4.578   0.260  11.840 -0.0616 -0.2899  0.0359
10608TIP3    H153239   4.643   0.221  11.898  0.8518 -1.1652 -1.4944
10608TIP3    H253240   4.511   0.296  11.899  0.0277 -2.4741  1.5948
10609TIP3   OH253241   1.026   6.633  12.230  0.4985 -0.1729 -0.7279
10609TIP3    H153242   1.063   6.555  12.190  1.3081  0.7915 -1.9344
10609TIP3    H253243   1.093   6.663  12.291 -0.1708 -0.8727  0.3944
10610TIP3   OH253244   5.301   0.753  12.478 -0.5307  0.1727  0.2895
10610TIP3    H153245   5.249   0.788  12.406 -2.0893  1.2183  1.8428
10610TIP3    H253246   5.239   0.703  12.531  0.9054 -1.8885  0.1482
10611TIP3   OH253247   2.626   6.618  13.818  0.3445 -0.6052  0.0095
10611TIP3    H153248   2.701   6.616  13.878  0.8942  1.3185 -0.5506
10611TIP3    H253249   2.647   6.553  13.751  1.3559 -0.3551  0.0635
10612TIP3   OH253250   2.267   1.041  15.894  0.2909  0.1382 -0.2570
10612TIP3    H153251   2.256   0.984  15.818  0.8126  0.0938 -0.3063
10612TIP3    H253252   2.180   1.049  15.932 -0.1535  0.9230 -1.4048
10613TIP3   OH253253   4.790   0.562   1.105  0.1521 -0.1244 -0.2051
10613TIP3    H153254   4.827   0.535   1.189  0.0040 -1.2735 -0.4974
10613TIP3    H253255   4.730   0.633   1.127 -0.3990 -0.8589  0.7623
10614TIP3   OH253256   0.070   6.741   6.804  0.3074 -0.0497 -0.3784
10614TIP3    H153257   0.111   6.819   6.841 -0.4691 -0.0403  0.4750
10614TIP3    H253258   0.132   6.671   6.823  0.6643  0.2270 -0.4980
10615TIP3   OH253259   6.579   4.007   3.675  0.2549  0.4575  0.1092
10615TIP3    H153260   6.587   4.016   3.580 -0.7045  1.0451  0.0757
10615TIP3    H253261   6.496   3.961   3.688 -0.8129  2.4797  0.7329
10616TIP3   OH253262   2.957   6.134  11.184 -0.6252 -0.4802 -0.6598
10616TIP3    H153263   3.020   6.120  11.114  1.3832 -1.1221  1.1624
10616TIP3    H253264   2.982   6.219  11.221 -0.3995 -1.0134  0.4594
10617TIP3   OH253265   6.367   3.221  15.813  0.1580  0.2195  0.4320
10617TIP3    H153266   6.387   3.291  15.751 -0.3356  0.1895  0.2276
10617TIP3    H253267   6.353   3.266  15.896  1.8386  0.1617  0.7715
10618TIP3   OH253268   3.318   0.529  12.887  0.1886  0.2844 -0.3580
10618TIP3    H153269   3.298   0.586  12.813 -0.3002  0.0894 -0.3789
10618TIP3    H253270   3.236   0.483  12.905  0.0553  0.9260  0.8268
10619TIP3   OH253271   3.277   6.033   4.782 -0.0293 -0.0445 -0.3840
10619TIP3    H153272   3.343   6.091   4.743 -1.1709  1.7789  0.2768
10619TIP3    H253273   3.313   6.011   4.868  0.4573 -0.4314 -0.6783
10620TIP3   OH253274   4.341   4.233  11.672  0.2753  0.2788  0.3947
10620TIP3    H153275   4.325   4.217  11.765 -1.4038  1.0651  0.2789
10620TIP3    H253276   4.254   4.230  11.631  1.1922 -3.3272 -1.7599
10621TIP3   OH253277   6.253   5.471  16.032 -0.1721 -0.4333  0.0293
10621TIP3    H153278   6.162   5.454  16.056 -0.4030  0.1309 -0.4295
10621TIP3    H253279   6.268   5.417  15.954  0.1028 -1.0487  0.4916
10622TIP3   OH253280   5.812   3.890  15.460  0.3760 -0.3603  0.0546
10622TIP3    H153281   5.725   3.865  15.429 -0.6408  1.6484  1.1006
10622TIP3    H253282   5.860   3.912  15.380 -0.2374 -0.9367 -0.4959
10623TIP3   OH253283   6.421   6.009   3.764  0.1409  0.0428 -0.2786
10623TIP3    H153284   6.511   6.035   3.742 -0.0033 -0.3897 -1.5080
10623TIP3    H253285   6.370   6.033   3.687 -0.3764 -1.8094 -0.5764
10624TIP3   OH253286   4.992   0.667  13.119 -0.2375  0.4038  0.0651
10624TIP3    H153287   4.917   0.722  13.096  0.0846  0.5145 -0.7344
10624TIP3    H253288   5.068   0.712  13.083  0.1519 -0.0243  0.3314
10625TIP3   OH253289   2.506   0.065   0.361 -0.0261  0.0538  0.2810
10625TIP3    H153290   2.587   0.035   0.401 -0.6051 -0.8598  0.8206
10625TIP3    H253291   2.501   0.158   0.381  0.4444 -0.0792  1.0282
10626TIP3   OH253292   6.731   4.030  12.032  0.3302 -0.1437  0.0109
10626TIP3    H153293   6.691   3.966  11.973 -1.8168  2.3698 -1.4921
10626TIP3    H253294   6.706   4.001  12.120 -1.8564 -0.6540 -0.7030
10627TIP3   OH253295   4.045   6.116  16.610  0.3528  0.3285 -0.0551
10627TIP3    H153296   4.124   6.115  16.556  0.4341 -3.5362 -0.1653
10627TIP3    H253297   4.077   6.106  16.700  0.0575 -1.2946 -0.1036
10628TIP3   OH253298   4.164   4.876   4.329  0.4869  0.9491 -0.1605
10628TIP3    H153299   4.165   4.919   4.244  0.1771 -0.8163 -1.0873
10628TIP3    H253300   4.086   4.912   4.373 -1.0094 -0.1967 -1.7638
10629TIP3   OH253301   1.337   5.383   3.618 -0.1069 -0.7035 -0.2103
10629TIP3    H153302   1.387   5.314   3.574 -0.6633  0.5844 -3.1478
10629TIP3    H253303   1.331   5.453   3.552 -1.1159  1.4092  1.9808
10630TIP3   OH253304   1.251   4.530  12.741  0.1978 -0.0220  0.2118
10630TIP3    H153305   1.319   4.466  12.720 -0.6140 -0.6399 -0.6064
10630TIP3    H253306   1.237   4.578  12.659  0.1152  0.5648  0.5589
10631TIP3   OH253307   1.501   0.654  11.964 -0.5885  0.5291 -0.5864
10631TIP3    H153308   1.516   0.715  12.036  0.5597 -1.7557  1.2374
10631TIP3    H253309   1.568   0.676  11.899  1.8186 -0.5890  1.3689
10632TIP3   OH253310   1.043   4.760   4.465 -0.6726 -0.0320 -0.1007
10632TIP3    H153311   1.055   4.758   4.370 -1.3432 -0.5220 -0.1894
10632TIP3    H253312   0.960   4.807   4.478 -1.9839 -2.2269  0.0404
10633TIP3   OH253313   3.616   2.015   2.354 -0.0322  0.5874  0.6871
10633TIP3    H153314   3.610   2.084   2.289  0.0470  1.1607  1.2761
10633TIP3    H253315   3.677   1.951   2.317  0.9095  1.4597  0.6846
10634TIP3   OH253316   6.602   6.191  11.439 -0.1788  0.8579  0.1055
10634TIP3    H153317   6.560   6.193  11.525 -0.3119  1.4376  0.0303
10634TIP3    H253318   6.678   6.248  11.448  1.5744 -1.4141  0.7167
10635TIP3   OH253319   0.351   3.530  12.279  0.0091 -0.1962 -0.1191
10635TIP3    H153320   0.317   3.566  12.361 -3.1872 -2.9722 -0.0023
10635TIP3    H253321   0.388   3.446  12.302 -0.1768 -0.6595 -1.3920
10636TIP3   OH253322   0.727   2.263   5.701 -0.2719 -0.2278  0.3646
10636TIP3    H153323   0.754   2.279   5.610 -0.9992  1.2623  0.3841
10636TIP3    H253324   0.725   2.349   5.741  0.4485 -0.9084  1.9498
10637TIP3   OH253325   4.153   4.920  13.316 -0.6478  0.4422  0.1246
10637TIP3    H153326   4.129   4.899  13.406  0.8166 -0.2566  0.3793
10637TIP3    H253327   4.115   4.850  13.264 -1.1843  0.6498  0.2282
10638TIP3   OH253328   3.031   1.107   4.344  0.0419 -0.3156  0.6011
10638TIP3    H153329   3.086   1.105   4.422  0.4492  0.7262  0.3565
10638TIP3    H253330   3.090   1.132   4.273 -1.1263  3.5625  0.7742
10639TIP3   OH253331   4.784   5.956  14.830 -0.0398 -0.3571  0.0789
10639TIP3    H153332   4.750   6.044  14.844 -2.5988 -1.4042  1.2279
10639TIP3    H253333   4.831   5.960  14.747  0.8049  2.2980  0.6303
10640TIP3   OH253334   6.229   3.609   0.738  0.1305 -0.0175 -0.0634
10640TIP3    H153335   6.211   3.545   0.669 -1.8503 -1.2889  1.5112
10640TIP3    H253336   6.227   3.558   0.819  1.8465  1.5106  1.0288
10641TIP3   OH253337   5.515   2.678  15.194  0.7342  0.1159  0.3725
10641TIP3    H153338   5.592   2.699  15.141  0.0490 -0.2287 -0.7984
10641TIP3    H253339   5.451   2.746  15.172  0.7512  0.4830  1.4444
10642TIP3   OH253340   6.569   1.524   0.901 -0.1189 -0.2239  0.3794
10642TIP3    H153341   6.494   1.578   0.925 -0.3464 -0.2379 -0.2717
10642TIP3    H253342   6.638   1.586   0.881 -0.6029 -0.1151 -1.1113
10643TIP3   OH253343   6.535   4.705  13.844  0.1145 -0.3584 -0.2066
10643TIP3    H153344   6.445   4.698  13.877 -0.4547  0.8348 -1.3977
10643TIP3    H253345   6.577   4.624  13.872 -0.9929 -0.4237  1.3798
10644TIP3   OH253346   3.321   1.908  15.950 -0.0228  0.0678  0.4126
10644TIP3    H153347   3.389   1.966  15.915 -0.3576 -0.5315 -1.3061
10644TIP3    H253348   3.304   1.942  16.038  0.8006  1.6905 -0.0157
10645TIP3   OH253349   4.879   6.120   6.017 -0.3428  0.5857 -0.3159
10645TIP3    H153350   4.921   6.062   6.080  0.3215 -0.6467 -1.8272
10645TIP3    H253351   4.790   6.086   6.009 -0.9303  1.7030  1.0691
10646TIP3   OH253352   6.505   1.715  11.505 -0.4616 -0.1027 -0.2106
10646TIP3    H153353   6.594   1.751  11.500 -0.6821  0.5619  0.5086
10646TIP3    H253354   6.457   1.763  11.437 -0.5468  0.3610  0.1734
10647TIP3   OH253355   6.545   1.654   3.609  0.6707  0.0891  0.0927
10647TIP3    H153356   6.627   1.699   3.629  0.6007  0.1279  0.2890
10647TIP3    H253357   6.532   1.594   3.683  0.7805 -0.2765 -0.1819
10648TIP3   OH253358   4.946   4.780  13.483 -0.1982  0.1257  0.5109
10648TIP3    H153359   5.013   4.786  13.551  0.3631 -0.6098  0.0446
10648TIP3    H253360   4.935   4.686  13.467 -0.0660  0.2783 -0.6256
10649TIP3   OH253361   3.315   3.105  15.030 -0.6853 -0.0062 -0.1104
10649TIP3    H153362   3.313   3.193  14.992  0.2035 -0.0569 -0.2855
10649TIP3    H253363   3.257   3.054  14.974 -0.6748  0.3121 -0.4165
10650TIP3   OH253364   3.623   3.333   6.625  0.5539 -0.0385  0.0323
10650TIP3    H153365   3.562   3.267   6.592 -0.3684  0.8801 -0.1467
10650TIP3    H253366   3.707   3.286   6.633  0.6480 -0.5509 -2.8164
10651TIP3   OH253367   4.070   0.811   1.672  0.3439 -0.1063  0.1037
10651TIP3    H153368   4.110   0.736   1.629 -0.1251 -0.4975  0.3359
10651TIP3    H253369   4.084   0.884   1.611  1.7476 -0.1356  0.3589
10652TIP3   OH253370   6.449   4.382   6.907 -0.2241 -0.4288  0.8696
10652TIP3    H153371   6.381   4.424   6.958  0.8455  0.7330  1.3849
10652TIP3    H253372   6.496   4.454   6.864 -0.7528 -1.3163 -1.3694
10653TIP3   OH253373   4.132   4.533   2.215 -0.8603 -0.1763 -0.6071
10653TIP3    H153374   4.194   4.532   2.288 -0.2733  2.2989 -0.9707
10653TIP3    H253375   4.142   4.448   2.173 -1.6091 -1.9484  2.4440
10654TIP3   OH253376   5.788   3.990  17.106  0.3293 -0.4030  0.1777
10654TIP3    H153377   5.880   3.982  17.130  0.9379 -1.2668 -2.2148
10654TIP3    H253378   5.754   3.901  17.107  0.0543 -0.3261 -0.8201
10655TIP3   OH253379   4.755   3.469  17.336 -0.0916 -0.3456 -0.3523
10655TIP3    H153380   4.771   3.392  17.391 -0.8751  0.7409  1.5121
10655TIP3    H253381   4.839   3.487  17.295  0.3424 -1.6311 -0.1010
10656TIP3   OH253382   2.626   4.877   3.789 -0.3379 -0.2685 -0.4139
10656TIP3    H153383   2.617   4.938   3.716  0.9343  3.2756  2.1319
10656TIP3    H253384   2.555   4.900   3.849  1.0671 -0.1977  1.2906
10657TIP3   OH253385   0.392   2.327   3.111 -0.1029 -0.2542 -0.3251
10657TIP3    H153386   0.468   2.372   3.072  2.9526 -2.0802  2.9153
10657TIP3    H253387   0.395   2.239   3.073 -2.0525  0.2097 -1.7302
10658TIP3   OH253388   1.152   2.471   1.055 -0.0779 -0.3728  0.2756
10658TIP3    H153389   1.092   2.403   1.025 -0.3189  0.3897 -1.0684
10658TIP3    H253390   1.098   2.528   1.110 -0.6344  0.3137 -0.9320
10659TIP3   OH253391   2.620   6.010   2.826  0.0824  0.0595  0.8813
10659TIP3    H153392   2.673   5.933   2.805 -0.0485  0.0446  0.6084
10659TIP3    H253393   2.543   6.003   2.770  1.1973  1.6617 -0.9567
10660TIP3   OH253394   3.401   1.384  16.473  0.3045  0.0130 -0.0994
10660TIP3    H153395   3.368   1.322  16.408 -0.0965 -1.1097  1.1337
10660TIP3    H253396   3.412   1.332  16.552  1.0918  1.2816  0.6509
10661TIP3   OH253397   3.572   0.368   1.281  0.0377  0.2369  0.2718
10661TIP3    H153398   3.512   0.294   1.272  0.2489 -0.0414  1.0733
10661TIP3    H253399   3.515   0.442   1.303 -0.1598  0.3027 -0.4167
10662TIP3   OH253400   5.747   1.125   4.332 -0.5464  0.1280  0.3662
10662TIP3    H153401   5.674   1.147   4.274 -1.2259  0.4437  1.3171
10662TIP3    H253402   5.791   1.052   4.288  1.0532  2.4831 -2.2847
10663TIP3   OH253403   3.150   6.353   0.239 -0.3291  0.0605  0.5521
10663TIP3    H153404   3.065   6.334   0.199 -0.5992 -0.4624  1.3593
10663TIP3    H253405   3.158   6.289   0.309  0.7438  0.0936  0.4732
10664TIP3   OH253406   1.336   2.520  15.737 -0.4612  0.1609  0.1510
10664TIP3    H153407   1.373   2.546  15.821  0.6601 -0.1981 -0.2146
10664TIP3    H253408   1.241   2.527  15.749 -0.2775  1.4223  1.0048
10665TIP3   OH253409   3.794   3.249   2.898  0.9282  0.0699 -0.5187
10665TIP3    H153410   3.855   3.272   2.968  0.8156  0.2038 -0.4643
10665TIP3    H253411   3.727   3.196   2.942 -0.2038  1.7657 -0.1241
10666TIP3   OH253412   5.795   4.587  13.592 -0.3227 -0.4293  0.2068
10666TIP3    H153413   5.847   4.510  13.613  0.0172 -0.0378  0.8391
10666TIP3    H253414   5.718   4.553  13.548 -0.2651 -1.1505  0.6469
10667TIP3   OH253415   4.202   1.276   2.527  0.5614 -0.3358 -0.4344
10667TIP3    H153416   4.219   1.313   2.440 -2.0322  1.1041 -0.4202
10667TIP3    H253417   4.125   1.322   2.558 -0.9076 -3.5062  1.0652
10668TIP3   OH253418   4.475   1.089   4.448  0.7572 -0.3408  0.1431
10668TIP3    H153419   4.505   0.998   4.452  3.1961  0.2896 -1.3984
10668TIP3    H253420   4.494   1.116   4.358  0.0429  1.7027  0.5617
10669TIP3   OH253421   2.229   4.496   5.019 -0.9317 -0.0558  0.0409
10669TIP3    H153422   2.177   4.446   5.082  0.2717 -0.1073  1.0464
10669TIP3    H253423   2.191   4.584   5.021 -0.4859  0.1340  1.3997
10670TIP3   OH253424   1.131   4.266   2.309 -0.1001 -0.1767  0.1321
10670TIP3    H153425   1.075   4.202   2.354 -2.0434  0.5719 -1.0974
10670TIP3    H253426   1.120   4.347   2.358 -1.7740  0.4939 -1.2612
10671TIP3   OH253427   1.043   6.327  16.321 -0.4222  0.4008 -0.1998
10671TIP3    H153428   1.065   6.271  16.246 -0.0257 -0.4975  0.5769
10671TIP3    H253429   1.076   6.414  16.296  2.8069 -0.5388  0.2787
10672TIP3   OH253430   5.200   6.518   5.324  0.4834 -0.3742 -0.3439
10672TIP3    H153431   5.272   6.488   5.378  1.0304  0.0232 -0.8442
10672TIP3    H253432   5.181   6.444   5.265 -0.8475 -1.2323  1.0939
10673TIP3   OH253433   3.174   3.656   3.641  0.7320 -0.4527 -0.3054
10673TIP3    H153434   3.248   3.615   3.687  1.0931 -0.9911 -1.3414
10673TIP3    H253435   3.201   3.657   3.549 -1.2443 -2.2171 -0.9719
10674TIP3   OH253436   0.827   1.519  12.291 -0.3932  0.6167  0.0228
10674TIP3    H153437   0.850   1.515  12.384  0.6203 -1.0849 -0.2750
10674TIP3    H253438   0.782   1.603  12.282  0.7501  1.4887  1.7646
10675TIP3   OH253439   6.065   6.061   0.471 -0.0858  0.1759 -0.6702
10675TIP3    H153440   6.012   6.130   0.511  1.1367  1.7909 -1.7420
10675TIP3    H253441   6.140   6.050   0.529  1.1121  1.7271 -1.8485
10676TIP3   OH253442   2.232   4.614   5.952  0.6890 -0.0777 -0.0981
10676TIP3    H153443   2.187   4.541   5.996 -0.8684  0.4519 -0.7335
10676TIP3    H253444   2.236   4.683   6.018 -1.7096  0.7423 -0.6972
10677TIP3   OH253445   2.334   5.615   0.751 -0.6979 -0.6358 -0.2668
10677TIP3    H153446   2.298   5.541   0.702 -3.1625  0.6853 -0.6116
10677TIP3    H253447   2.339   5.686   0.687 -0.9299  0.2460  0.6642
10678TIP3   OH253448   4.935   0.073  14.920 -0.3729  0.5917 -0.3600
10678TIP3    H153449   4.909   0.094  14.830 -1.2232  2.0769  0.2030
10678TIP3    H253450   4.921   0.154  14.968 -0.5050 -0.3533  1.2516
10679TIP3   OH253451   1.058   3.666   0.958 -0.1332 -0.0324 -0.3815
10679TIP3    H153452   1.035   3.686   1.049  1.8473  0.0604  0.1382
10679TIP3    H253453   1.058   3.751   0.914  1.4774  0.2942  0.1864
10680TIP3   OH253454   1.679   2.461   6.141  0.1352 -0.0384  0.0646
10680TIP3    H153455   1.654   2.516   6.066 -0.9334 -1.0145 -0.3329
10680TIP3    H253456   1.638   2.504   6.216  0.0931  0.2213 -0.1047
10681TIP3   OH253457   2.144   1.526  16.899 -0.2505 -0.4696 -0.3380
10681TIP3    H153458   2.176   1.496  16.815  0.6241  0.9425 -0.5502
10681TIP3    H253459   2.220   1.520  16.958 -0.0972  0.9662 -0.3339
10682TIP3   OH253460   6.465   6.505  16.513  0.7145  0.1945 -0.1942
10682TIP3    H153461   6.509   6.483  16.595  0.4598  0.0090 -0.1064
10682TIP3    H253462   6.485   6.597  16.499  0.0597  0.4578  0.5129
10683TIP3   OH253463   1.441   1.945   2.789  0.0187 -0.1570  0.0465
10683TIP3    H153464   1.513   2.007   2.774  0.0502  0.0422  0.9788
10683TIP3    H253465   1.385   1.954   2.712  1.1694 -0.5706 -0.8738
10684TIP3   OH253466   3.420   0.237  16.832 -0.6435  0.2734 -0.7205
10684TIP3    H153467   3.457   0.300  16.895 -2.3638  0.1585  0.5099
10684TIP3    H253468   3.492   0.215  16.774  1.4541 -0.6088  2.0104
10685TIP3   OH253469   4.595   3.977  15.212 -0.3787  0.4598  0.1153
10685TIP3    H153470   4.572   4.059  15.168 -0.4098  0.1078 -0.5483
10685TIP3    H253471   4.516   3.924  15.205 -0.1960  0.1903  0.0897
10686TIP3   OH253472   5.190   6.058  13.576 -0.1795  0.0709  0.2570
10686TIP3    H153473   5.218   6.021  13.492 -0.6460 -1.2886  0.6847
10686TIP3    H253474   5.102   6.022  13.590 -0.1851  0.4382  1.2397
10687TIP3   OH253475   0.599   4.639  12.558 -0.0468  0.3689  0.6034
10687TIP3    H153476   0.677   4.605  12.515  0.8047  0.5936  1.9312
10687TIP3    H253477   0.526   4.604  12.507  0.9167  0.7523 -1.1034
10688TIP3   OH253478   1.500   4.995   4.693 -0.0870  0.4351 -0.1767
10688TIP3    H153479   1.590   5.028   4.692 -0.1996  0.7289 -1.0010
10688TIP3    H253480   1.453   5.052   4.633 -0.8191  0.2494  0.2193
10689TIP3   OH253481   5.516   1.076   4.619 -0.3639 -0.2106 -0.2106
10689TIP3    H153482   5.499   1.013   4.548 -1.5186  0.7354 -0.8080
10689TIP3    H253483   5.562   1.025   4.686 -0.9201 -1.5937 -0.8438
10690TIP3   OH253484   6.013   5.017   3.599 -0.3948 -0.0989  0.0274
10690TIP3    H153485   6.045   4.937   3.558 -1.3195  0.1991 -1.3469
10690TIP3    H253486   5.925   5.029   3.563 -1.3969  0.0420  2.3409
10691TIP3   OH253487   3.776   0.470  12.447 -0.0283  0.4743  0.4130
10691TIP3    H153488   3.721   0.548  12.454 -1.4598 -0.6257  1.8285
10691TIP3    H253489   3.844   0.483  12.514  0.2031  0.8348  0.1177
10692TIP3   OH253490   4.873   5.748  11.534  0.7532 -0.3827  0.2305
10692TIP3    H153491   4.896   5.840  11.541 -0.4089 -0.0782  0.1521
10692TIP3    H253492   4.909   5.708  11.614  1.2743  0.1194  0.2522
10693TIP3   OH253493   0.252   6.218  13.653  0.5644  0.5145 -0.0908
10693TIP3    H153494   0.247   6.212  13.557  0.7180  0.8130 -0.1174
10693TIP3    H253495   0.284   6.132  13.680  1.3587  0.7156 -0.3723
10694TIP3   OH253496   4.534   6.668   5.485 -0.0210 -0.2638  0.2165
10694TIP3    H153497   4.613   6.668   5.538 -0.3960  0.1547  0.7897
10694TIP3    H253498   4.550   6.602   5.417  1.3951  0.7836 -0.5361
10695TIP3   OH253499   5.605   5.006   5.656  0.4364 -0.2725 -0.1370
10695TIP3    H153500   5.544   5.003   5.582 -1.3189 -0.0753  1.2247
10695TIP3    H253501   5.584   5.087   5.702  1.6212 -0.2917  0.4746
10696TIP3   OH253502   5.341   5.875  17.142  0.3582 -0.3367 -0.4160
10696TIP3    H153503   5.360   5.881  17.048 -0.5961 -0.5180 -0.6327
10696TIP3    H253504   5.292   5.955  17.161 -2.2154 -1.7284 -0.7873
10697TIP3   OH253505   4.502   1.608   3.605  0.1864  0.5150 -0.1382
10697TIP3    H153506   4.438   1.638   3.669  0.0330  0.4545 -0.2623
10697TIP3    H253507   4.545   1.688   3.574  1.5054  0.4211  1.3291
10698TIP3   OH253508   4.567   4.712  11.494 -0.6718 -0.3626 -0.2625
10698TIP3    H153509   4.535   4.648  11.558  1.8474 -0.3870  1.1238
10698TIP3    H253510   4.649   4.674  11.462 -0.0355  1.3523 -0.7730
10699TIP3   OH253511   0.311   5.870   4.561 -0.6098  0.4259 -0.3536
10699TIP3    H153512   0.360   5.907   4.635  0.8287  0.2489 -1.1810
10699TIP3    H253513   0.305   5.777   4.580 -0.8089  0.4805 -0.1471
10700TIP3   OH253514   2.044   1.210   1.506  0.0431 -0.0261  1.0155
10700TIP3    H153515   2.111   1.178   1.567  0.9170  0.2258  0.2139
10700TIP3    H253516   2.080   1.190   1.420 -1.7995 -1.6932  0.5521
10701TIP3   OH253517   0.255   2.758   0.814  0.1744 -0.6574  0.3853
10701TIP3    H153518   0.283   2.670   0.838 -1.0239 -1.0977  0.2229
10701TIP3    H253519   0.165   2.748   0.785 -0.2173  0.7341  1.0309
10702TIP3   OH253520   3.334   2.360  13.639 -0.1673 -0.1289 -0.3187
10702TIP3    H153521   3.332   2.299  13.712 -0.2622  0.6086  0.3094
10702TIP3    H253522   3.369   2.441  13.676 -1.5655  0.7101 -0.7165
10703TIP3   OH253523   3.154   0.135   2.876  0.1895 -0.0493  0.2430
10703TIP3    H153524   3.185   0.073   2.942  2.6708  0.7218 -0.1165
10703TIP3    H253525   3.194   0.218   2.900 -0.1711  0.6141 -1.3200
10704TIP3   OH253526   5.152   4.296   4.696  0.0751  0.4578  0.1372
10704TIP3    H153527   5.130   4.389   4.688 -1.1716  0.2054  0.4778
10704TIP3    H253528   5.105   4.267   4.774 -0.8435 -0.8164 -0.8542
10705TIP3   OH253529   0.086   5.548   5.033 -0.5187 -0.2088  0.3161
10705TIP3    H153530   0.176   5.532   5.005 -1.2460 -2.1970 -1.2410
10705TIP3    H253531   0.093   5.588   5.119  1.8459 -0.3573  0.2460
10706TIP3   OH253532   5.892   3.064   3.771 -0.6973 -0.0010  0.1750
10706TIP3    H153533   5.864   3.010   3.845 -2.4968 -2.3094 -1.9787
10706TIP3    H253534   5.937   3.003   3.712 -1.0201  1.2753 -1.4899
10707TIP3   OH253535   5.089   4.523  14.395 -0.2746 -0.6006 -0.2062
10707TIP3    H153536   5.058   4.469  14.323 -1.8969 -1.7763  1.2804
10707TIP3    H253537   5.137   4.462  14.451 -3.1013 -0.9276  2.0960
10708TIP3   OH253538   6.145   5.037   0.805  0.0395  0.1816 -0.0110
10708TIP3    H153539   6.142   5.076   0.717 -0.1417 -1.9701 -1.0218
10708TIP3    H253540   6.070   5.076   0.851  1.7469  3.5246  0.2636
10709TIP3   OH253541   5.495   1.265  16.492 -0.7891  0.3746 -0.0597
10709TIP3    H153542   5.516   1.189  16.547  0.8575 -0.7772 -2.1681
10709TIP3    H253543   5.446   1.229  16.419 -2.0946  1.7501  0.0855
10710TIP3   OH253544   4.008   5.284   3.591 -0.1961 -0.0197 -0.3720
10710TIP3    H153545   3.916   5.283   3.619  0.3768 -1.6191  1.6777
10710TIP3    H253546   4.042   5.367   3.626 -0.3669 -0.4092  0.7787
10711TIP3   OH253547   5.446   0.454  15.774  0.3443  0.6110  0.5976
10711TIP3    H153548   5.494   0.373  15.791 -0.3548 -1.3982 -4.8196
10711TIP3    H253549   5.355   0.433  15.797  0.1319 -0.3772 -0.9508
10712TIP3   OH253550   2.362   2.257   4.777 -0.1479 -0.2327 -0.2779
10712TIP3    H153551   2.380   2.250   4.871  0.0980 -0.2782 -0.3299
10712TIP3    H253552   2.438   2.219   4.734 -0.5932 -0.9125 -0.4846
10713TIP3   OH253553   0.657   4.278   1.553 -0.0431 -0.1337  0.4402
10713TIP3    H153554   0.600   4.332   1.499 -0.4414  0.1297  1.1094
10713TIP3    H253555   0.671   4.198   1.502 -0.4230  0.1010 -0.0360
10714TIP3   OH253556   2.957   2.426  13.166 -0.3051  0.6844 -0.1692
10714TIP3    H153557   2.939   2.339  13.131  0.8566  0.4319 -0.1640
10714TIP3    H253558   3.019   2.464  13.105  0.7802  0.7201  0.9185
10715TIP3   OH253559   2.944   1.438   2.616 -0.0667 -0.1108  0.0289
10715TIP3    H153560   2.990   1.401   2.541  0.6037 -0.0060  0.3791
10715TIP3    H253561   2.987   1.522   2.632  1.2221 -1.0349  1.8059
10716TIP3   OH253562   2.265   3.996  11.986  0.4393 -0.2365 -0.0472
10716TIP3    H153563   2.176   3.961  11.990  0.6104 -0.5975  0.8743
10716TIP3    H253564   2.309   3.957  12.061  0.8935  1.2815  0.5037
10717TIP3   OH253565   2.436   1.772   6.398  0.2195 -0.1944 -0.3773
10717TIP3    H153566   2.459   1.825   6.321 -0.2878 -0.7417 -0.9094
10717TIP3    H253567   2.429   1.683   6.364  1.7661 -0.7397  0.6418
10718TIP3   OH253568   6.020   0.367   5.925  0.5269  0.5030  0.4165
10718TIP3    H153569   6.017   0.365   5.830 -1.9928 -0.8067  0.4346
10718TIP3    H253570   6.052   0.281   5.950 -0.1925  0.3138  0.7288
10719TIP3   OH253571   4.546   2.761  13.290  0.6632 -0.0656 -0.2681
10719TIP3    H153572   4.453   2.757  13.264 -0.0379 -0.8979  2.1185
10719TIP3    H253573   4.548   2.720  13.376  3.1330  0.7770  0.1381
10720TIP3   OH253574   4.632   2.194   2.971  0.1740 -0.0561 -0.0871
10720TIP3    H153575   4.658   2.194   3.063  0.8670  0.3659 -0.2730
10720TIP3    H253576   4.715   2.204   2.923 -0.0034 -1.6680 -0.8141
10721TIP3   OH253577   4.861   5.553   0.400 -0.0653 -0.6714  0.0246
10721TIP3    H153578   4.923   5.610   0.445 -1.8301  1.1181  0.3331
10721TIP3    H253579   4.860   5.472   0.451  1.8251 -0.6761  0.1099
10722TIP3   OH253580   1.048   5.201  14.147  0.7965 -0.3404 -0.3277
10722TIP3    H153581   1.084   5.222  14.061  1.1989 -0.5593 -0.2155
10722TIP3    H253582   1.111   5.138  14.184 -0.7219 -2.3253 -0.9402
10723TIP3   OH253583   2.717   5.823   0.705  0.3072  0.5040 -0.7970
10723TIP3    H153584   2.771   5.786   0.774  0.9879 -0.4601 -1.8060
10723TIP3    H253585   2.742   5.915   0.702  0.6728  0.4329 -0.1415
10724TIP3   OH253586   5.664   4.668   4.089  0.1992 -0.6771 -0.1821
10724TIP3    H153587   5.645   4.747   4.139  1.8807  1.4868 -2.6381
10724TIP3    H253588   5.760   4.660   4.092  0.1827 -1.6470 -1.3418
10725TIP3   OH253589   3.509   6.576  14.247  0.0596  0.2103  0.4475
10725TIP3    H153590   3.490   6.520  14.322 -0.1807  0.2890  0.4445
10725TIP3    H253591   3.551   6.517  14.184  0.7502  0.2539  0.8479
10726TIP3   OH253592   1.893   3.360   1.681  0.1389 -0.4117  0.6441
10726TIP3    H153593   1.890   3.428   1.748  1.7016 -1.2687  1.6570
10726TIP3    H253594   1.928   3.404   1.603  2.0024 -0.1776  1.5459
10727TIP3   OH253595   6.585   3.262  15.291 -0.4581  0.3542 -0.1081
10727TIP3    H153596   6.518   3.228  15.232 -0.5212  0.0636  0.1295
10727TIP3    H253597   6.597   3.194  15.357  1.7647 -0.6479 -1.4297
10728TIP3   OH253598   4.739   0.491   4.495 -0.4185  0.7159  0.2937
10728TIP3    H153599   4.675   0.426   4.526 -0.1323  0.9082  1.3290
10728TIP3    H253600   4.728   0.492   4.400 -0.9997 -0.2537  0.3346
10729TIP3   OH253601   4.429   2.816   1.894 -0.1433 -0.4738 -0.5192
10729TIP3    H153602   4.392   2.899   1.862  0.6321  0.5990  1.1957
10729TIP3    H253603   4.352   2.762   1.914 -0.6898  0.1934 -0.7761
10730TIP3   OH253604   0.235   1.674   0.385  0.0527  0.1177 -0.1292
10730TIP3    H153605   0.268   1.591   0.420 -0.4271  0.1376  0.3784
10730TIP3    H253606   0.228   1.732   0.461  0.5162  0.6789 -0.5023
10731TIP3   OH253607   4.303   1.196   0.822 -0.1049  0.6831  0.2920
10731TIP3    H153608   4.214   1.188   0.857  0.4496 -1.1739  1.4027
10731TIP3    H253609   4.359   1.173   0.895  1.1638 -2.1624 -1.4282
10732TIP3   OH253610   2.625   4.717   4.308 -0.0130  0.6349  0.4083
10732TIP3    H153611   2.671   4.712   4.224 -1.3694 -0.7887 -0.2969
10732TIP3    H253612   2.679   4.775   4.361  1.4963  0.6461 -1.0512
10733TIP3   OH253613   0.528   3.951  14.971 -0.2655 -0.0216 -0.1045
10733TIP3    H153614   0.587   3.908  14.908  0.8974 -0.2310  1.0922
10733TIP3    H253615   0.547   4.044  14.961  1.1875 -0.1506  1.1045
10734TIP3   OH253616   2.307   0.488   1.325 -0.3633  0.6130  0.0137
10734TIP3    H153617   2.271   0.400   1.323 -0.5344  0.6598  0.7672
10734TIP3    H253618   2.329   0.508   1.234  2.1541 -1.2342  0.1140
10735TIP3   OH253619   3.197   3.427  16.251  0.2881 -0.2455  0.0876
10735TIP3    H153620   3.214   3.336  16.224 -1.7950 -0.3775 -1.0034
10735TIP3    H253621   3.145   3.463  16.180  1.1242  1.8605  0.4890
10736TIP3   OH253622   0.164   2.703   4.223  0.1093 -0.0640 -0.0288
10736TIP3    H153623   0.260   2.708   4.221  0.1744 -0.4078  1.1509
10736TIP3    H253624   0.143   2.616   4.191  0.2010 -0.0232 -0.1984
10737TIP3   OH253625   0.763   6.713   1.638 -0.0045  0.1767  0.1296
10737TIP3    H153626   0.845   6.739   1.680  0.4074 -1.1036  0.1898
10737TIP3    H253627   0.695   6.760   1.685  0.7524  2.2273 -0.7142
10738TIP3   OH253628   2.450   5.296  11.866  0.5043 -0.0044  0.3842
10738TIP3    H153629   2.405   5.372  11.901  0.1584  0.9306 -1.8838
10738TIP3    H253630   2.386   5.255  11.807  1.7364 -0.1248 -0.9332
10739TIP3   OH253631   1.871   4.896  15.895  0.4035  0.7124  0.8914
10739TIP3    H153632   1.793   4.841  15.886  1.1163 -0.0530 -1.1086
10739TIP3    H253633   1.839   4.985  15.883 -0.4770  0.6218  2.3018
10740TIP3   OH253634   2.899   0.620   4.464 -0.0460  0.0034  0.2861
10740TIP3    H153635   2.868   0.676   4.535  1.2538  0.0132  0.8658
10740TIP3    H253636   2.855   0.654   4.386 -2.4665 -0.7721  1.2006
10741TIP3   OH253637   1.091   6.191   4.707 -0.5279  0.2745  0.1629
10741TIP3    H153638   1.107   6.143   4.788 -1.7756  0.6208  0.6310
10741TIP3    H253639   1.173   6.183   4.658 -0.1988 -1.0260  0.8845
10742TIP3   OH253640   6.626   1.588   3.000  0.3035  0.3647 -0.4836
10742TIP3    H153641   6.713   1.549   3.007 -0.5281 -1.3795  0.9353
10742TIP3    H253642   6.642   1.681   2.985  2.4133  0.1219  0.0535
10743TIP3   OH253643   0.723   5.037  16.291  0.5205 -0.6464  0.2993
10743TIP3    H153644   0.691   4.947  16.292  0.8275 -0.7652 -0.3798
10743TIP3    H253645   0.669   5.082  16.357 -1.3541 -0.7201 -1.1056
10744TIP3   OH253646   3.342   1.192  16.292  0.1850  0.2653  0.4507
10744TIP3    H153647   3.263   1.215  16.241  1.2234  1.8820 -0.5243
10744TIP3    H253648   3.340   1.096  16.296 -1.4726  0.2305 -0.1324
10745TIP3   OH253649   6.236   1.161  15.942  0.4713 -0.1467 -0.2050
10745TIP3    H153650   6.197   1.248  15.935  1.4901  0.4364  0.8430
10745TIP3    H253651   6.326   1.178  15.970  1.1689 -1.4820 -1.5166
10746TIP3   OH253652   3.156   1.745  15.260 -0.3345  0.2861 -0.0844
10746TIP3    H153653   3.199   1.666  15.291  0.4732  0.8774  0.3392
10746TIP3    H253654   3.063   1.721  15.252  0.2496 -1.6121 -2.8481
10747TIP3   OH253655   1.381   0.858   0.648  0.9857 -0.0874  0.7093
10747TIP3    H153656   1.424   0.791   0.701 -1.5924 -2.0678  0.5302
10747TIP3    H253657   1.308   0.888   0.702 -0.5758 -0.7874 -0.9026
10748TIP3   OH253658   2.307   2.608   6.592 -0.1368 -0.4880 -0.0597
10748TIP3    H153659   2.378   2.574   6.537  0.4140 -1.4546  1.2095
10748TIP3    H253660   2.234   2.548   6.576 -0.5971  0.3103 -1.1062
10749TIP3   OH253661   0.331   6.584   0.261 -0.1013  0.2359 -0.1297
10749TIP3    H153662   0.274   6.507   0.267  1.5776 -1.0483  0.0093
10749TIP3    H253663   0.288   6.641   0.198 -3.1162  0.7389  2.1404
10750TIP3   OH253664   6.368   2.268  13.141 -0.2752  0.7736  0.5447
10750TIP3    H153665   6.401   2.180  13.158 -0.3561  1.1806  3.1589
10750TIP3    H253666   6.432   2.307  13.082  0.2532 -0.6947  0.1004
10751TIP3   OH253667   2.307   0.719   5.987  0.0356 -0.4292  0.1453
10751TIP3    H153668   2.342   0.763   6.064 -1.0875 -2.4000  1.9003
10751TIP3    H253669   2.381   0.671   5.951  0.6715  0.8563 -0.3103
10752TIP3   OH253670   5.025   5.984  16.694 -0.2699  0.2127  0.0590
10752TIP3    H153671   5.097   5.928  16.720  1.1732  1.8308 -0.2421
10752TIP3    H253672   4.976   5.933  16.629  0.7656 -0.8141  0.0605
10753TIP3   OH253673   6.741   1.512   4.195 -0.1992  0.3138 -0.3678
10753TIP3    H153674   6.829   1.474   4.198 -0.6248 -0.8554 -1.6432
10753TIP3    H253675   6.754   1.604   4.218  0.8453 -0.5507  3.0836
10754TIP3   OH253676   1.989   3.569   6.128 -0.4898 -0.5035 -0.0937
10754TIP3    H153677   2.084   3.564   6.139 -0.3651  0.6133 -0.5207
10754TIP3    H253678   1.976   3.631   6.056 -1.5732  0.3838  0.8205
10755TIP3   OH253679   3.615   5.949   2.509 -0.2358  0.5061  0.0710
10755TIP3    H153680   3.571   6.027   2.476 -0.1474  1.2560  1.6367
10755TIP3    H253681   3.570   5.928   2.591  0.4469 -0.4477  0.2226
10756TIP3   OH253682   3.011   4.039  14.650 -0.2172 -0.7582 -0.0206
10756TIP3    H153683   2.951   4.034  14.724  0.0704 -1.6649  0.1545
10756TIP3    H253684   2.980   4.115  14.600 -0.9074 -0.6265  0.5899
10757TIP3   OH253685   1.170   4.232   5.016 -0.1147  0.5325  0.8538
10757TIP3    H153686   1.110   4.165   5.048  0.2528 -0.2674 -0.0903
10757TIP3    H253687   1.121   4.275   4.945  0.0341  0.5624  0.7690
10758TIP3   OH253688   4.111   6.665   2.920  0.5405  0.5481 -0.3058
10758TIP3    H153689   4.076   6.724   2.854 -2.2552 -0.8160 -0.1765
10758TIP3    H253690   4.043   6.600   2.933  1.6637 -0.1986  2.7408
10759TIP3   OH253691   4.223   2.785   0.174  0.1553 -0.1221 -0.0088
10759TIP3    H153692   4.174   2.751   0.249  0.2184 -0.2628 -0.0304
10759TIP3    H253693   4.283   2.849   0.212  0.5561 -0.5746  0.1321
10760TIP3   OH253694   4.825   2.130   6.090  0.0964 -0.2370 -0.5871
10760TIP3    H153695   4.846   2.081   6.169 -1.4056 -0.6024 -0.3915
10760TIP3    H253696   4.908   2.132   6.041  0.6806 -1.2701  0.2994
10761TIP3   OH253697   1.521   3.077   2.623 -0.0252  0.1001 -0.0290
10761TIP3    H153698   1.615   3.060   2.613  0.3309  0.1288  2.5692
10761TIP3    H253699   1.517   3.151   2.684 -1.7457  1.0241 -1.2048
10762TIP3   OH253700   5.833   4.517   3.241 -0.2637  0.1621 -0.2410
10762TIP3    H153701   5.803   4.442   3.292  0.2887  0.5668  0.6935
10762TIP3    H253702   5.890   4.479   3.174  0.4162 -0.2151  0.5370
10763TIP3   OH253703   0.838   3.162  16.178  0.4610 -0.3952 -0.0985
10763TIP3    H153704   0.859   3.217  16.254 -0.3710 -0.4879  0.2009
10763TIP3    H253705   0.912   3.102  16.171  0.0754 -1.0510  1.2620
10764TIP3   OH253706   1.671   1.565  16.053  0.0865  0.3057  0.7082
10764TIP3    H153707   1.764   1.549  16.066  0.2609 -0.3013 -0.9343
10764TIP3    H253708   1.648   1.631  16.118  1.2248 -0.8832  2.3914
10765TIP3   OH253709   5.682   5.754   2.179  0.0654 -0.2179 -0.0612
10765TIP3    H153710   5.757   5.758   2.239  0.8834  5.0855 -0.9162
10765TIP3    H253711   5.721   5.733   2.094  0.2699  0.4507 -0.1365
10766TIP3   OH253712   5.327   6.523   3.811 -0.3906  0.2784 -0.0113
10766TIP3    H153713   5.340   6.434   3.778  0.7190  0.5283 -0.3005
10766TIP3    H253714   5.402   6.572   3.778 -1.3356  1.5005 -0.4408
10767TIP3   OH253715   0.593   1.349   0.698  0.0703  0.5440  0.0991
10767TIP3    H153716   0.542   1.268   0.693  1.7017 -0.4459 -2.2998
10767TIP3    H253717   0.572   1.385   0.785 -3.1606 -0.7417 -0.0075
10768TIP3   OH253718   1.987   2.642  11.814  0.1018 -0.5818  0.4328
10768TIP3    H153719   1.987   2.575  11.746  2.8863 -0.3937  0.1247
10768TIP3    H253720   1.928   2.710  11.780  1.1982 -0.6039 -1.7473
10769TIP3   OH253721   6.620   0.748  10.947 -0.1236 -0.2947  0.1956
10769TIP3    H153722   6.704   0.758  10.992  0.0261 -0.0951 -0.1277
10769TIP3    H253723   6.643   0.738  10.854 -0.4176 -0.9293  0.1829
10770TIP3   OH253724   4.376   5.190   3.943 -0.0436  0.6661  0.4367
10770TIP3    H153725   4.437   5.244   3.893 -0.8027  1.1427  0.0160
10770TIP3    H253726   4.297   5.188   3.890 -0.5206  0.3488  1.1488
10771TIP3   OH253727   3.936   0.760  12.365 -0.3141 -0.1395 -0.1493
10771TIP3    H153728   4.030   0.765  12.386 -0.2258 -1.9258  0.0278
10771TIP3    H253729   3.932   0.774  12.271 -0.0302  1.2929  0.0278
10772TIP3   OH253730   0.740   4.123   0.262  0.0708  0.3192 -0.2297
10772TIP3    H153731   0.829   4.101   0.289  0.1773  0.9755 -0.0243
10772TIP3    H253732   0.689   4.044   0.279  0.6710 -0.1635 -0.6407
10773TIP3   OH253733   3.117   4.185  13.513  0.7284  0.2445 -0.1642
10773TIP3    H153734   3.179   4.185  13.440 -0.4890  0.2476 -1.2392
10773TIP3    H253735   3.046   4.128  13.484 -0.1001  0.7819  0.7412
10774TIP3   OH253736   5.859   2.653  12.675 -0.3322  0.3560  0.0570
10774TIP3    H153737   5.879   2.739  12.637  0.3788  0.1849  0.0264
10774TIP3    H253738   5.890   2.590  12.610  1.0631  0.0625  0.9575
10775TIP3   OH253739   1.382   1.886   6.624  0.2249 -0.1622  0.1250
10775TIP3    H153740   1.332   1.874   6.544  1.4348 -2.4084 -0.3822
10775TIP3    H253741   1.333   1.838   6.691  0.9204 -1.2063 -0.0776
10776TIP3   OH253742   1.998   1.780   5.913  0.1043  0.5925 -0.3356
10776TIP3    H153743   1.943   1.731   5.851  0.2610  1.2433 -1.0052
10776TIP3    H253744   2.034   1.852   5.861  0.2799  1.1254  0.5087
10777TIP3   OH253745   5.298   2.179  14.667 -0.2641  0.1564 -0.0280
10777TIP3    H153746   5.274   2.157  14.757 -0.0758  1.1775  0.2781
10777TIP3    H253747   5.227   2.141  14.614  0.5401 -2.0548  0.3657
10778TIP3   OH253748   0.410   3.727   5.174  0.3526  0.1280 -0.1037
10778TIP3    H153749   0.472   3.654   5.175  0.0966 -0.1599 -1.8586
10778TIP3    H253750   0.384   3.737   5.266  1.7485 -0.7948  0.4380
10779TIP3   OH253751   5.270   2.799  15.291  0.0320 -0.2386  0.3077
10779TIP3    H153752   5.237   2.809  15.380 -0.6383 -0.2373  0.0633
10779TIP3    H253753   5.289   2.706  15.282  1.6300 -0.0180  0.9701
10780TIP3   OH253754   0.558   1.878   6.118  0.8812 -0.2189  0.0494
10780TIP3    H153755   0.475   1.925   6.131  0.6988 -0.2389 -0.9857
10780TIP3    H253756   0.591   1.864   6.207 -0.8759 -1.3749  0.5929
10781TIP3   OH253757   0.406   3.730   2.842 -0.1479  0.4347 -0.4300
10781TIP3    H153758   0.494   3.703   2.814 -0.1288 -0.3646  0.3734
10781TIP3    H253759   0.382   3.799   2.779  0.7608  0.1814 -1.0881
10782TIP3   OH253760   1.914   6.437   4.527 -0.4483 -0.9787 -0.3036
10782TIP3    H153761   1.850   6.469   4.590 -0.1619  2.1873 -1.4290
10782TIP3    H253762   1.990   6.495   4.538 -0.4238 -0.1581 -3.5245
10783TIP3   OH253763   2.376   3.960  11.728 -0.8148  0.2602  0.0709
10783TIP3    H153764   2.373   3.939  11.821  0.4313 -1.4991 -0.2400
10783TIP3    H253765   2.284   3.969  11.702 -1.2790 -1.3543  1.0488
10784TIP3   OH253766   5.042   1.412  15.951  0.0892 -0.0746  0.1429
10784TIP3    H153767   5.065   1.331  15.996 -4.2428 -1.7716 -0.1813
10784TIP3    H253768   5.021   1.385  15.862 -2.4624  1.0819  0.2945
10785TIP3   OH253769   2.613   0.113  14.875  0.4885 -0.1161 -0.5027
10785TIP3    H153770   2.534   0.137  14.922  0.3796 -1.3933 -0.0014
10785TIP3    H253771   2.676   0.089  14.943  2.0036  2.7007 -0.7668
10786TIP3   OH253772   2.371   4.815   6.790 -0.3537 -0.1254 -0.3087
10786TIP3    H153773   2.433   4.777   6.853  0.8676 -1.7310 -2.3283
10786TIP3    H253774   2.297   4.844   6.844 -0.3593 -3.3529  1.7066
10787TIP3   OH253775   1.683   1.411   5.713 -0.0501  0.1705  0.4521
10787TIP3    H153776   1.593   1.432   5.739 -0.6983 -2.2961  0.4742
10787TIP3    H253777   1.702   1.329   5.759  1.5920 -0.2548 -0.9125
10788TIP3   OH253778   3.164   3.290  15.919 -0.0437 -0.7493 -0.5421
10788TIP3    H153779   3.111   3.366  15.944  2.0758  1.0574 -1.1607
10788TIP3    H253780   3.135   3.268  15.830 -1.1953 -1.1773 -0.0709
10789TIP3   OH253781   0.744   5.055   1.063  0.2708 -0.0207 -0.0269
10789TIP3    H153782   0.755   5.130   1.005  1.8362 -0.1181  0.1100
10789TIP3    H253783   0.708   4.987   1.006 -1.2292  0.8105 -0.1404
10790TIP3   OH253784   3.695   0.785   5.616  0.4008  0.2358 -0.4246
10790TIP3    H153785   3.718   0.718   5.680  0.6470 -0.2841 -1.0471
10790TIP3    H253786   3.771   0.842   5.611 -0.0503  0.9480  0.5769
10791TIP3   OH253787   6.336   3.930   3.816  0.2980  0.2222  0.1643
10791TIP3    H153788   6.274   3.962   3.881  0.8239 -0.5278  1.0658
10791TIP3    H253789   6.282   3.907   3.740 -0.4250  0.3816  0.6220
10792TIP3   OH253790   1.411   4.688   4.028  0.0724 -0.1604 -0.2777
10792TIP3    H153791   1.343   4.642   4.078 -0.3049  0.4846 -0.1794
10792TIP3    H253792   1.493   4.646   4.054 -0.0589  0.4603  1.2641
10793TIP3   OH253793   2.408   0.690   4.936 -0.0532 -0.3901 -0.4813
10793TIP3    H153794   2.330   0.707   4.884 -0.7873  1.9548  1.1982
10793TIP3    H253795   2.441   0.777   4.958  1.8151 -1.3162  0.6580
10794TIP3   OH253796   1.459   2.335   0.848  0.3886  0.1010 -0.3538
10794TIP3    H153797   1.376   2.331   0.801 -1.1214  0.0308  2.1050
10794TIP3    H253798   1.481   2.244   0.866  0.4846  0.1539 -0.1998
10795TIP3   OH253799   1.472   5.267   0.698  0.0076  0.2800  0.5359
10795TIP3    H153800   1.541   5.212   0.736  0.2177  0.7228  0.8088
10795TIP3    H253801   1.512   5.354   0.692  0.3625  0.0185 -1.7567
10796TIP3   OH253802   6.678   6.463  16.736 -0.0803  0.7299  0.2898
10796TIP3    H153803   6.720   6.388  16.693 -0.7875  0.2695  0.3905
10796TIP3    H253804   6.745   6.497  16.795  0.9447  1.4115 -1.1774
10797TIP3   OH253805   1.091   3.266  13.920  0.2523  0.3131 -0.0458
10797TIP3    H153806   0.997   3.255  13.905  0.7951 -1.1913 -3.0384
10797TIP3    H253807   1.102   3.360  13.937 -1.6651  0.7050 -0.7728
10798TIP3   OH253808   5.697   1.922  17.423 -0.6327  0.4036  0.5640
10798TIP3    H153809   5.738   1.878  17.349 -0.4905 -0.3982  1.0953
10798TIP3    H253810   5.764   1.921  17.491 -0.6200  1.4927  0.5820
10799TIP3   OH253811   0.430   2.761   0.272  0.7546 -0.2129  0.1503
10799TIP3    H153812   0.380   2.698   0.220  1.8829 -0.5955 -0.5099
10799TIP3    H253813   0.366   2.829   0.295 -0.4738 -1.5430  0.8156
10800TIP3   OH253814   2.746   0.087   1.778 -0.1823 -0.6869 -0.2056
10800TIP3    H153815   2.697   0.169   1.771  0.3250 -0.3982 -0.3954
10800TIP3    H253816   2.832   0.113   1.811 -0.7218 -1.3926  1.8826
10801TIP3   OH253817   3.259   6.016  12.687 -0.0074 -0.1378 -1.3590
10801TIP3    H153818   3.229   6.090  12.633 -0.1393  2.6511  2.1904
10801TIP3    H253819   3.178   5.976  12.719  0.0344  0.7258 -0.1398
10802TIP3   OH253820   4.403   3.958   0.541 -0.1131  0.3136  0.7449
10802TIP3    H153821   4.366   4.017   0.607 -0.5105  0.2661  0.5686
10802TIP3    H253822   4.417   3.875   0.588 -0.1797  0.3487  0.8271
10803TIP3   OH253823   4.225   0.056  13.193  0.0986  0.3074 -0.3907
10803TIP3    H153824   4.218  -0.033  13.227 -0.8770  0.7543  0.6543
10803TIP3    H253825   4.179   0.053  13.108 -3.7834  0.6477  1.4565
10804TIP3   OH253826   0.879   1.873  17.046  0.0420 -0.8789  0.5050
10804TIP3    H153827   0.893   1.795  16.993  2.5683 -1.4411  1.8508
10804TIP3    H253828   0.817   1.845  17.113 -1.7254 -0.6780 -0.9544
10805TIP3   OH253829   4.718   2.097  14.912  0.5465  0.0421 -0.6623
10805TIP3    H153830   4.642   2.155  14.923  0.1251 -0.4037 -1.1416
10805TIP3    H253831   4.763   2.100  14.996 -0.1046  0.1727 -0.3088
10806TIP3   OH253832   0.597   6.486  13.246 -0.0923 -0.1035  0.4249
10806TIP3    H153833   0.671   6.519  13.296 -0.5490  1.7944 -0.0624
10806TIP3    H253834   0.618   6.395  13.228  1.3524 -0.0464  1.6787
10807TIP3   OH253835   4.471   6.051  15.027 -0.1156  0.3591  0.4710
10807TIP3    H153836   4.562   6.034  15.004  0.0739  2.0962 -0.1914
10807TIP3    H253837   4.474   6.133  15.078 -1.0217 -0.9935  2.8634
10808TIP3   OH253838   2.108   6.485  14.442 -0.2487  0.2088  0.2755
10808TIP3    H153839   2.023   6.529  14.443  0.6133  2.0075  2.8065
10808TIP3    H253840   2.170   6.553  14.414  0.8161  0.0502  2.0810
10809TIP3   OH253841   5.372   6.147  15.529 -0.0665 -0.2462 -0.5676
10809TIP3    H153842   5.425   6.153  15.609 -0.1832 -1.6708 -0.3609
10809TIP3    H253843   5.404   6.219  15.474  0.6964  0.1445  0.3528
10810TIP3   OH253844   1.358   1.136  14.928  0.0743  0.3017 -0.2784
10810TIP3    H153845   1.297   1.066  14.949 -0.3516  0.8690  0.4126
10810TIP3    H253846   1.436   1.091  14.896  0.1844 -0.5408  1.0958
10811TIP3   OH253847   6.475   0.334   0.828  0.3825  0.3574  0.0633
10811TIP3    H153848   6.428   0.255   0.801 -0.6879  0.6625  0.9481
10811TIP3    H253849   6.479   0.327   0.924 -0.7112  1.8805  0.2643
10812TIP3   OH253850   1.924   5.393  15.159  0.2796 -0.2907  0.2637
10812TIP3    H153851   1.862   5.464  15.178  0.2322 -0.3628  0.3757
10812TIP3    H253852   1.870   5.323  15.124  0.6472  0.7732 -2.7092
10813TIP3   OH253853   3.638   1.242   5.289 -0.2329  0.2565 -0.1586
10813TIP3    H153854   3.734   1.243   5.293 -0.1928 -1.7901  0.3300
10813TIP3    H253855   3.616   1.155   5.257 -1.9553  0.6749 -0.2252
10814TIP3   OH253856   6.652   4.546  15.329 -0.2520  0.0326  0.0027
10814TIP3    H153857   6.711   4.606  15.285 -0.0173 -0.5303 -0.4577
10814TIP3    H253858   6.637   4.585  15.415  2.5825 -0.9235  1.0315
10815TIP3   OH253859   4.196   4.308   0.632 -0.1000  0.5310 -0.2686
10815TIP3    H153860   4.150   4.226   0.647  0.1322  0.7221  1.6574
10815TIP3    H253861   4.127   4.371   0.610 -0.5460  0.3488  0.5735
10816TIP3   OH253862   0.608   3.410  15.113 -0.4587  0.0333  0.3507
10816TIP3    H153863   0.668   3.346  15.152  1.0645 -0.3703 -2.4355
10816TIP3    H253864   0.537   3.356  15.077 -0.1872  0.0833 -0.2655
10817TIP3   OH253865   0.958   4.392   1.896  0.3633 -0.9272  0.0372
10817TIP3    H153866   1.019   4.330   1.938 -0.9474 -1.4548  1.2196
10817TIP3    H253867   1.011   4.433   1.828  1.9596 -1.6222  0.7800
10818TIP3   OH253868   4.559   4.663   5.725  0.0704 -0.5612  0.4434
10818TIP3    H153869   4.502   4.674   5.801  1.2716 -1.9432  1.6116
10818TIP3    H253870   4.553   4.570   5.703  0.0046 -0.2451 -0.9565
10819TIP3   OH253871   3.763   0.397  11.769  0.5392 -0.4286  0.4616
10819TIP3    H153872   3.845   0.414  11.722  0.0495  3.8157  0.7640
10819TIP3    H253873   3.702   0.367  11.702  0.7515  2.3275 -1.0934
10820TIP3   OH253874   6.451   2.125   4.753  0.4389  0.1538 -0.0664
10820TIP3    H153875   6.491   2.046   4.717  1.2394  0.0320  1.0238
10820TIP3    H253876   6.357   2.110   4.747  0.5517 -1.6099  1.5795
10821TIP3   OH253877   6.629   0.892  17.373  0.0179  0.1984 -0.3240
10821TIP3    H153878   6.706   0.948  17.360  1.1108 -1.1999 -0.1312
10821TIP3    H253879   6.606   0.863  17.285  0.5804 -0.4935 -0.2448
10822TIP3   OH253880   0.374   1.765  13.520  0.2824 -0.0064  0.1105
10822TIP3    H153881   0.470   1.775  13.519  0.3163 -0.2611  0.5833
10822TIP3    H253882   0.360   1.671  13.521  0.0412  0.0299  0.6205
10823TIP3   OH253883   4.819   4.584  15.979 -0.0009  0.3057  0.2019
10823TIP3    H153884   4.766   4.629  15.913 -0.1175 -0.1872 -0.0463
10823TIP3    H253885   4.827   4.495  15.946  1.0355  0.3818  0.2027
10824TIP3   OH253886   5.456   4.053  16.533 -0.1926 -0.2463 -0.3478
10824TIP3    H153887   5.537   4.078  16.488 -0.6573  0.2883 -0.8968
10824TIP3    H253888   5.388   4.063  16.467 -0.6758 -0.9531  0.0336
10825TIP3   OH253889   1.997   3.948   3.709  0.7871  0.0188  0.3060
10825TIP3    H153890   1.951   3.977   3.788 -3.1205 -2.5485 -0.7171
10825TIP3    H253891   2.027   3.860   3.730  0.6670 -0.2695 -0.6833
10826TIP3   OH253892   2.933   6.576  16.527  0.0797  0.0456  0.2245
10826TIP3    H153893   2.922   6.530  16.443 -0.9583 -0.5269  0.6563
10826TIP3    H253894   2.853   6.627  16.537  0.1556  0.0366  0.9108
10827TIP3   OH253895   2.214   5.811   5.392 -0.0262 -0.0657 -0.0971
10827TIP3    H153896   2.244   5.889   5.345  0.8106  0.3684  1.1205
10827TIP3    H253897   2.174   5.845   5.471 -0.9680 -0.8186 -0.2433
10828TIP3   OH253898   0.404   1.007  11.845  0.1976 -0.4112  0.3775
10828TIP3    H153899   0.451   0.925  11.832  1.2193 -0.1458  2.0050
10828TIP3    H253900   0.421   1.029  11.937 -0.9616  1.0620  0.2723
10829TIP3   OH253901   3.311   6.391   2.493 -0.3699 -0.3963 -0.5178
10829TIP3    H153902   3.301   6.451   2.567 -2.1831 -0.4899 -0.6344
10829TIP3    H253903   3.253   6.318   2.514  0.8923 -1.5467 -0.9483
10830TIP3   OH253904   4.236   5.877  11.379  0.4472  0.1587  0.0592
10830TIP3    H153905   4.261   5.943  11.314 -0.8675  1.3238  0.6812
10830TIP3    H253906   4.151   5.845  11.348  0.5903 -0.4868  0.3325
10831TIP3   OH253907   2.785   2.684  14.064 -0.1321  0.7483  0.4986
10831TIP3    H153908   2.819   2.731  13.989 -1.3721  0.4529 -0.2879
10831TIP3    H253909   2.690   2.693  14.057 -0.3238 -0.3459  1.3168
10832TIP3   OH253910   4.550   5.656   3.091 -0.0542  0.5607  0.0125
10832TIP3    H153911   4.517   5.633   3.004 -1.9180  0.7402  0.6340
10832TIP3    H253912   4.644   5.636   3.087 -0.4511 -1.2972 -1.4170
10833TIP3   OH253913   3.981   3.387  13.022  0.3886  0.2209 -0.1318
10833TIP3    H153914   3.970   3.407  12.929  0.0643  1.0217  0.0685
10833TIP3    H253915   4.024   3.464  13.059  3.1198 -1.1913 -0.1017
10834TIP3   OH253916   2.559   2.548   2.647  0.3728  0.0799 -0.2606
10834TIP3    H153917   2.498   2.526   2.717  0.6028  0.6291  0.1228
10834TIP3    H253918   2.583   2.464   2.608 -1.3042 -0.0844 -1.0137
10835TIP3   OH253919   1.694   4.845   6.257  0.2628  0.2121  0.3410
10835TIP3    H153920   1.736   4.870   6.175 -0.1185 -0.4493 -0.0738
10835TIP3    H253921   1.631   4.915   6.274  0.5856  0.5255  0.2545
10836TIP3   OH253922   3.677   5.510  11.954 -0.2691  0.6924 -0.1317
10836TIP3    H153923   3.701   5.602  11.965 -1.4107  1.0705 -0.6840
10836TIP3    H253924   3.676   5.497  11.859  1.2343 -0.2778 -0.0550
10837TIP3   OH253925   2.318   6.588   3.250 -0.4417 -0.3309 -0.1543
10837TIP3    H153926   2.246   6.585   3.313  1.0904  0.8853  1.7510
10837TIP3    H253927   2.324   6.498   3.217 -0.5363 -1.3449  2.3627
10838TIP3   OH253928   4.296   6.635  15.631 -0.0432 -0.5791  0.0939
10838TIP3    H153929   4.260   6.720  15.654  1.2395 -0.1389  0.5747
10838TIP3    H253930   4.382   6.655  15.592  1.2329 -1.7096  2.1437
10839TIP3   OH253931   0.773   0.913   1.132  0.5517 -0.1494 -0.3587
10839TIP3    H153932   0.764   1.006   1.113 -1.3668 -0.5115 -1.4497
10839TIP3    H253933   0.828   0.879   1.062  1.8951  0.2563  0.4620
10840TIP3   OH253934   2.041   0.834   6.365  0.3236  0.4556  0.3173
10840TIP3    H153935   2.114   0.779   6.336  0.5268  0.6736  0.4112
10840TIP3    H253936   2.076   0.923   6.364 -0.1498  0.6417 -0.2934
10841TIP3   OH253937   1.641   4.261  16.956  0.0099  0.1230  0.0074
10841TIP3    H153938   1.643   4.326  16.886  1.4361  1.0450  0.8525
10841TIP3    H253939   1.652   4.177  16.911  3.8690  0.8609 -0.7983
10842TIP3   OH253940   5.130   3.397   5.017  0.3615  0.5691 -0.0918
10842TIP3    H153941   5.086   3.312   5.025  1.0021  0.3885  2.8160
10842TIP3    H253942   5.059   3.460   5.011 -0.1831 -0.0323 -0.1265
10843TIP3   OH253943   2.732   6.438  11.459  0.3718  0.1088  0.4274
10843TIP3    H153944   2.711   6.395  11.542  1.5211 -1.8507 -0.2156
10843TIP3    H253945   2.770   6.522  11.484  0.4114 -0.3109  1.8616
10844TIP3   OH253946   6.074   5.638   5.179 -0.1328  0.2032 -0.0252
10844TIP3    H153947   6.156   5.611   5.221  0.0208  0.9891  0.1900
10844TIP3    H253948   6.074   5.592   5.095  0.0060 -0.6488  0.4289
10845TIP3   OH253949   6.118   0.135   4.393 -0.0887  0.0289  0.0321
10845TIP3    H153950   6.205   0.127   4.354  1.2322 -0.9911  2.8704
10845TIP3    H253951   6.135   0.143   4.487 -2.9311  3.7371  0.4820
10846TIP3   OH253952   3.037   3.787  17.275  0.1813 -0.3263 -0.2941
10846TIP3    H153953   3.125   3.750  17.274  0.4137  0.2165 -0.7388
10846TIP3    H253954   3.051   3.882  17.284 -0.3776 -0.2834  0.2186
10847TIP3   OH253955   5.145   4.119   4.028 -0.7759  0.0770  0.1616
10847TIP3    H153956   5.178   4.143   3.941  0.8149 -1.6904  0.2196
10847TIP3    H253957   5.091   4.041   4.013  1.4327 -1.7101  0.9558
10848TIP3   OH253958   1.071   6.634  11.444  0.2319 -0.4404 -0.2536
10848TIP3    H153959   1.072   6.555  11.389 -2.3236  0.0480 -1.1383
10848TIP3    H253960   0.981   6.666  11.439  1.0920  2.4069  0.2756
10849TIP3   OH253961   5.704   5.582   1.741  0.1419 -0.2025  0.0990
10849TIP3    H153962   5.756   5.535   1.676 -0.0075  0.2209 -0.3293
10849TIP3    H253963   5.625   5.609   1.695 -0.3152 -0.5490  0.6570
10850TIP3   OH253964   1.441   5.621  13.855  0.0466  0.0254  0.2194
10850TIP3    H153965   1.535   5.633  13.848  0.3003 -1.4936  0.5181
10850TIP3    H253966   1.420   5.559  13.784 -0.1291 -2.2440  2.1152
10851TIP3   OH253967   4.791   2.350  13.783 -0.0389  0.3450  0.3763
10851TIP3    H153968   4.708   2.395  13.801  0.1073  0.2390  1.3314
10851TIP3    H253969   4.766   2.280  13.722 -0.7951 -0.1582  1.2369
10852TIP3   OH253970   3.205   1.446   3.584 -0.0425 -0.1418 -0.0507
10852TIP3    H153971   3.224   1.444   3.678 -0.1108 -0.6717 -0.0417
10852TIP3    H253972   3.231   1.359   3.553  0.8429  0.3386 -0.7008
10853TIP3   OH253973   1.893   1.851  16.316  0.1549 -0.0959  0.3111
10853TIP3    H153974   1.855   1.772  16.354  0.8667  0.0119  1.2899
10853TIP3    H253975   1.961   1.877  16.378  0.7665  0.5894 -0.6151
10854TIP3   OH253976   4.395   2.920   5.866 -0.0802  0.0812 -0.3948
10854TIP3    H153977   4.394   2.829   5.835  0.4786 -0.5142  1.2419
10854TIP3    H253978   4.463   2.963   5.814  0.3906 -0.7261 -0.4603
10855TIP3   OH253979   5.967   5.825  17.071  0.5040 -0.1735 -1.0469
10855TIP3    H153980   6.048   5.806  17.023  0.0696  0.1205 -1.9152
10855TIP3    H253981   5.948   5.744  17.118  2.2351  0.2886  0.5966
10856TIP3   OH253982   5.249   1.979   0.597  0.5317  0.0043  0.8159
10856TIP3    H153983   5.344   1.971   0.593  0.4019 -1.2303 -0.3738
10856TIP3    H253984   5.227   2.037   0.524  0.1538 -2.3697 -1.0736
10857TIP3   OH253985   0.452   0.519   0.819  0.3702  0.0532 -0.2469
10857TIP3    H153986   0.501   0.596   0.846 -0.6441  0.3459  0.8800
10857TIP3    H253987   0.443   0.467   0.899  0.3141 -0.8169 -0.8033
10858TIP3   OH253988   3.803   3.514   0.861  0.5638  0.0703  0.1048
10858TIP3    H153989   3.711   3.516   0.889 -0.0913 -0.7318 -1.8794
10858TIP3    H253990   3.834   3.427   0.885  0.2160 -0.3552 -0.9456
10859TIP3   OH253991   0.162   4.102  13.248 -0.0615 -0.2032 -0.0899
10859TIP3    H153992   0.246   4.057  13.252  0.5962  1.0291  0.5624
10859TIP3    H253993   0.112   4.053  13.183  1.7335 -0.0275 -1.6964
10860TIP3   OH253994   3.843   0.398  12.958  0.0706  0.2947 -0.1386
10860TIP3    H153995   3.870   0.312  12.989 -0.3064  0.2266  0.0049
10860TIP3    H253996   3.747   0.393  12.953 -0.2315  1.5365  2.5094
10861TIP3   OH253997   5.412   6.200   4.800  0.3235  0.0451 -0.3885
10861TIP3    H153998   5.330   6.152   4.793  1.5595 -2.6237  1.5432
10861TIP3    H253999   5.420   6.246   4.716 -3.9323  2.0004  0.0072
10862TIP3   OH254000   5.795   4.206  13.178  0.3292 -0.0158  0.3485
10862TIP3    H154001   5.833   4.291  13.199  0.2621  0.1559 -0.1990
10862TIP3    H254002   5.767   4.170  13.262  0.6609  0.3566  0.6187
10863TIP3   OH254003   4.687   0.367   1.555 -0.3807 -0.0147 -0.3930
10863TIP3    H154004   4.692   0.436   1.621  0.6456  0.9921 -1.4751
10863TIP3    H254005   4.626   0.303   1.592 -0.7924  1.1076  0.9692
10864TIP3   OH254006   6.312   6.179  10.449 -0.3568  0.7398  0.5025
10864TIP3    H154007   6.405   6.157  10.461 -0.6488 -0.6316  0.4796
10864TIP3    H254008   6.277   6.107  10.397 -1.7415  0.4718  1.7245
10865TIP3   OH254009   6.340   5.046  11.455 -0.1623  0.3479 -0.2422
10865TIP3    H154010   6.408   5.025  11.391 -0.4049  0.2784 -0.4793
10865TIP3    H254011   6.388   5.076  11.532  0.1883 -0.9055  0.0437
10866TIP3   OH254012   1.763   1.324  16.589  0.1990 -0.1011 -0.3779
10866TIP3    H154013   1.752   1.281  16.674 -0.4473  1.1300  0.1842
10866TIP3    H254014   1.794   1.255  16.531 -2.1813 -1.7088  0.1271
10867TIP3   OH254015   6.675   0.603   5.826  0.5592  0.2319  0.2070
10867TIP3    H154016   6.656   0.696   5.839 -0.3205 -0.1521  2.2218
10867TIP3    H254017   6.637   0.581   5.741 -0.6767  1.3744  0.4377
10868TIP3   OH254018   5.390   1.417   5.599  0.0114  0.1365 -0.1377
10868TIP3    H154019   5.409   1.323   5.598 -0.8778 -0.0869  0.9598
10868TIP3    H254020   5.371   1.435   5.691  1.0944  1.5961 -0.1775
10869TIP3   OH254021   1.805   2.959  11.172  0.0960 -0.5684 -0.3442
10869TIP3    H154022   1.745   2.987  11.102  0.7699  0.6713 -0.4574
10869TIP3    H254023   1.887   3.004  11.152  1.2195 -2.5890 -0.4349
10870TIP3   OH254024   1.105   3.479   2.478  0.7990  0.2685  0.4942
10870TIP3    H154025   1.143   3.531   2.407  4.5211 -2.4870  0.2384
10870TIP3    H254026   1.068   3.402   2.435 -1.3137  0.7878  1.2247
10871TIP3   OH254027   5.951   5.744   3.481 -0.2475 -0.3262 -0.1432
10871TIP3    H154028   5.880   5.782   3.533  2.3141  2.9631  1.2833
10871TIP3    H254029   5.985   5.673   3.535 -2.1864 -1.8683 -0.7903
10872TIP3   OH254030   3.091   6.390  15.160 -0.1846  0.0353 -0.0728
10872TIP3    H154031   3.167   6.441  15.188  0.0448 -0.1796 -0.3018
10872TIP3    H254032   3.070   6.334  15.234 -1.0693  1.1745  0.5761
10873TIP3   OH254033   5.460   4.919  17.032  0.0335 -0.0904 -0.3588
10873TIP3    H154034   5.447   4.827  17.056  0.5874 -0.5982 -1.8991
10873TIP3    H254035   5.553   4.935  17.047  0.2373 -0.2104 -1.4709
10874TIP3   OH254036   1.801   3.114  15.217 -0.0247 -0.1519  0.2095
10874TIP3    H154037   1.723   3.122  15.272  0.8116 -0.0829  1.4247
10874TIP3    H254038   1.845   3.198  15.226  1.7001 -1.1635  1.9428
10875TIP3   OH254039   5.005   2.001   5.009 -0.4233  0.1380 -0.1955
10875TIP3    H154040   4.974   1.919   5.048  0.7378  0.2218  0.9850
10875TIP3    H254041   4.976   2.069   5.069 -3.0482  0.8612 -2.1396
10876TIP3   OH254042   0.934   2.278   0.167  0.0591 -0.0926  0.4628
10876TIP3    H154043   0.913   2.312   0.080  2.3553 -0.4566 -0.3027
10876TIP3    H254044   0.971   2.192   0.152 -1.7945 -1.2558  2.0623
10877TIP3   OH254045   6.569   1.238  15.600 -0.2186  0.0887  0.1484
10877TIP3    H154046   6.617   1.159  15.578  0.2827  0.6943 -0.9793
10877TIP3    H254047   6.477   1.213  15.590 -0.0857 -0.4833  0.2970
10878TIP3   OH254048   1.775   1.448  13.939  0.4438 -0.1826  0.0687
10878TIP3    H154049   1.733   1.492  14.013 -2.9581 -1.1957 -1.0946
10878TIP3    H254050   1.821   1.374  13.979 -1.1476 -0.5988  1.2639
10879TIP3   OH254051   6.371   6.478  11.136 -0.0832 -0.4546 -0.0585
10879TIP3    H154052   6.380   6.470  11.041 -0.3615 -0.0864 -0.1163
10879TIP3    H254053   6.360   6.571  11.152 -0.7938 -0.5840  0.2655
10880TIP3   OH254054   3.897   6.238  12.802  0.1411  0.0888  0.4046
10880TIP3    H154055   3.827   6.202  12.747  0.0274 -0.1302  0.6938
10880TIP3    H254056   3.978   6.202  12.764  0.0293 -0.4578  0.6824
10881TIP3   OH254057   2.139   0.584   3.115  0.0198  0.5344 -0.4071
10881TIP3    H154058   2.118   0.627   3.198  1.4430  1.4050 -0.4765
10881TIP3    H254059   2.095   0.500   3.120 -0.9112  1.0621  0.7161
10882TIP3   OH254060   1.540   6.587   3.464 -0.3340  0.2980 -0.1277
10882TIP3    H154061   1.612   6.602   3.403  0.6315 -0.4884  0.7723
10882TIP3    H254062   1.516   6.495   3.452 -1.1155  0.5221 -0.3325
10883TIP3   OH254063   1.735   2.808   3.426 -0.3858  0.1491  0.2832
10883TIP3    H154064   1.703   2.722   3.451  2.1443 -0.9767  0.0175
10883TIP3    H254065   1.820   2.815   3.470  0.3709  1.6469 -1.2986
10884TIP3   OH254066   4.292   3.675  12.022  0.0760 -0.0071 -0.1947
10884TIP3    H154067   4.279   3.717  11.937  0.5114 -2.0663 -1.3589
10884TIP3    H254068   4.204   3.665  12.058 -0.1209  0.7751 -0.4523
10885TIP3   OH254069   5.143   3.409  11.343  0.2291 -0.9578  0.0158
10885TIP3    H154070   5.081   3.411  11.417  0.6668 -1.6468  0.4049
10885TIP3    H254071   5.229   3.416  11.383  0.4213  0.2937 -0.5463
10886TIP3   OH254072   0.535   6.279   1.099 -0.0904  0.1424  0.4017
10886TIP3    H154073   0.605   6.218   1.074  0.8297  0.9330  0.9881
10886TIP3    H254074   0.552   6.356   1.045 -0.1197  0.5830  1.0215
10887TIP3   OH254075   6.586   5.637  15.950 -0.0264  0.7240  0.3132
10887TIP3    H154076   6.500   5.678  15.950 -0.4851 -0.0918 -2.1870
10887TIP3    H254077   6.642   5.698  15.998 -2.0604  0.9783  2.5574
10888TIP3   OH254078   3.522   3.723   5.883 -0.5495 -0.5974  0.1201
10888TIP3    H154079   3.506   3.653   5.820 -0.0147 -0.9189  0.3264
10888TIP3    H254080   3.455   3.788   5.866  0.9030  0.3973 -2.3216
10889TIP3   OH254081   5.735   2.390   6.426 -0.6012 -0.5020  0.2791
10889TIP3    H154082   5.673   2.394   6.499 -1.1146  2.5689 -0.1892
10889TIP3    H254083   5.818   2.417   6.465 -0.7183  0.4197 -0.0888
10890TIP3   OH254084   0.834   2.496   1.291  0.1810  0.0718 -0.6711
10890TIP3    H154085   0.873   2.581   1.272  0.7401 -0.2835 -1.1728
10890TIP3    H254086   0.908   2.442   1.319 -0.4307  0.2356  1.4278
10891TIP3   OH254087   6.148   0.211   2.639 -0.2012  0.2859  0.5626
10891TIP3    H154088   6.057   0.198   2.614 -0.3962 -0.1088  1.4484
10891TIP3    H254089   6.146   0.220   2.734  0.9468 -2.2639  0.9213
10892TIP3   OH254090   1.439   5.379   5.611 -0.5328  0.2199 -0.4222
10892TIP3    H154091   1.487   5.429   5.677 -0.6606 -0.4775  0.2061
10892TIP3    H254092   1.423   5.442   5.540 -0.6457  1.0542  0.3361
10893TIP3   OH254093   5.443   2.949  11.732  0.1154 -0.1146  0.1553
10893TIP3    H154094   5.380   2.945  11.803  1.1857  0.4168  1.1639
10893TIP3    H254095   5.396   2.913  11.656 -1.5130  0.6366  0.7670
10894TIP3   OH254096   6.103   6.429  14.198  0.1499  0.2499 -0.3466
10894TIP3    H154097   6.182   6.387  14.163  0.5330  0.4195  0.2936
10894TIP3    H254098   6.105   6.409  14.292 -1.7787 -1.7282 -0.6213
10895TIP3   OH254099   2.218   5.424  13.770  0.2571 -0.2779 -0.9810
10895TIP3    H154100   2.233   5.339  13.811  0.9195  0.1508 -0.3129
10895TIP3    H254101   2.296   5.475  13.791 -1.0722  1.2288  0.5497
10896TIP3   OH254102   6.233   2.881   1.660  0.1850  0.3482  0.0894
10896TIP3    H154103   6.200   2.882   1.749 -1.1291  1.9095 -0.3570
10896TIP3    H254104   6.299   2.812   1.659  1.2663  1.2086  2.6318
10897TIP3   OH254105   6.499   0.678   3.233  0.2147 -0.0725 -0.2234
10897TIP3    H154106   6.459   0.625   3.164  0.6702 -1.3868  0.4948
10897TIP3    H254107   6.517   0.616   3.303  0.3441  1.1309  0.8303
10898TIP3   OH254108   1.667   2.936  17.103  0.1399 -0.1577 -0.3889
10898TIP3    H154109   1.592   2.917  17.159  1.5798  0.8762  2.0479
10898TIP3    H254110   1.704   2.850  17.083 -0.0554 -0.5360  0.7858
10899TIP3   OH254111   4.031   3.230  14.316 -0.7372 -0.0302  0.0386
10899TIP3    H154112   4.034   3.179  14.397  1.0675  0.8560  0.5986
10899TIP3    H254113   4.063   3.317  14.342 -0.0047  0.2418 -1.6388
10900TIP3   OH254114   4.461   6.596  17.102  0.1014  0.0905  0.2152
10900TIP3    H154115   4.531   6.652  17.069 -0.6976  0.9925  0.0143
10900TIP3    H254116   4.410   6.653  17.159 -0.4502 -0.5643  0.3819
10901TIP3   OH254117   4.153   5.158   3.791 -0.1238  0.7873 -0.3548
10901TIP3    H154118   4.079   5.197   3.745 -2.5853 -1.8275  1.0530
10901TIP3    H254119   4.186   5.092   3.731 -0.0106  0.8389 -0.3491
10902TIP3   OH254120   5.051   5.579   2.769  0.5728 -0.1236  0.3298
10902TIP3    H154121   5.034   5.546   2.680  1.0565  0.6619 -0.0677
10902TIP3    H254122   4.973   5.555   2.819 -0.1868  0.3771 -0.5856
10903TIP3   OH254123   1.242   3.144   4.278 -0.4144 -0.1113 -0.0314
10903TIP3    H154124   1.317   3.204   4.288 -0.7616  0.1413  1.2283
10903TIP3    H254125   1.282   3.059   4.259  0.0539  0.7172 -3.4202
10904TIP3   OH254126   6.612   4.902  10.847  0.1846 -0.3675  0.9739
10904TIP3    H154127   6.619   4.994  10.824  0.1382 -0.3786  0.9155
10904TIP3    H254128   6.689   4.884  10.901 -0.0828 -0.1627  1.4305
10905TIP3   OH254129   5.872   4.686  16.032 -0.3233 -0.0688  0.8676
10905TIP3    H154130   5.868   4.775  15.998 -1.8162 -0.0561  0.9858
10905TIP3    H254131   5.860   4.630  15.954 -1.5607 -0.0891  1.0465
10906TIP3   OH254132   3.641   3.812   4.733 -0.5808 -0.0045  0.4108
10906TIP3    H154133   3.598   3.886   4.777 -3.2112 -0.1834 -1.5596
10906TIP3    H254134   3.642   3.742   4.799 -0.7626  0.8915  1.3956
10907TIP3   OH254135   2.036   0.263  13.585 -0.0170 -0.0726  0.2700
10907TIP3    H154136   2.091   0.303  13.518  0.3443 -1.2232 -0.1382
10907TIP3    H254137   1.948   0.298  13.568  0.2586  0.4229 -0.1614
10908TIP3   OH254138   0.080   4.458  11.692 -0.2276  0.2511  0.3079
10908TIP3    H154139  -0.008   4.435  11.663 -0.3858  0.2343  0.7933
10908TIP3    H254140   0.074   4.550  11.718 -0.2741  0.0747  0.9618
10909TIP3   OH254141   4.085   0.387   3.191 -0.0635  0.5803  0.9270
10909TIP3    H154142   4.133   0.470   3.190 -0.0184  0.5483 -0.2570
10909TIP3    H254143   4.145   0.325   3.233 -0.1363  1.1611  1.9037
10910TIP3   OH254144   2.127   3.345   5.799  0.9871 -0.1987 -0.2347
10910TIP3    H154145   2.078   3.274   5.840  0.9443 -0.7421 -1.2033
10910TIP3    H254146   2.176   3.303   5.728  0.0610  0.8878 -1.5724
10911TIP3   OH254147   6.545   2.448  12.423 -0.2285 -0.5168 -0.1497
10911TIP3    H154148   6.629   2.403  12.428  1.5642  2.6781  3.4256
10911TIP3    H254149   6.567   2.540  12.434 -4.1625  0.5791 -0.1289
10912TIP3   OH254150   0.604   2.340   1.804  0.5688  0.0966  0.1912
10912TIP3    H154151   0.592   2.424   1.760 -2.3127  0.6457  1.7648
10912TIP3    H254152   0.686   2.350   1.853  1.3147  1.1903 -1.2163
10913TIP3   OH254153   3.289   4.862  17.469  0.7302  0.5387  0.3787
10913TIP3    H154154   3.375   4.885  17.434  1.2815  0.1129  1.4031
10913TIP3    H254155   3.247   4.947  17.486  0.2888  0.7633 -1.5942
10914TIP3   OH254156   3.213   4.674  11.460  0.1576  0.8969 -0.4808
10914TIP3    H154157   3.157   4.733  11.511 -0.5427  0.5861 -0.8692
10914TIP3    H254158   3.158   4.648  11.386  0.3006 -0.6170 -0.0724
10915TIP3   OH254159   6.197   4.851  12.767 -0.0095  0.5095  0.8173
10915TIP3    H154160   6.215   4.800  12.846  0.1976  0.2229  0.5870
10915TIP3    H254161   6.273   4.836  12.711 -0.4578  0.1779  0.2903
10916TIP3   OH254162   1.975   4.549   0.711 -0.2972 -0.0407 -0.1533
10916TIP3    H154163   2.021   4.490   0.771 -0.5657  0.5424  0.6502
10916TIP3    H254164   1.972   4.502   0.628  0.3541 -0.7412  0.2123
10917TIP3   OH254165   6.508   4.743  14.743 -0.0386  0.4633 -0.1206
10917TIP3    H154166   6.524   4.720  14.834 -0.4088  0.4779 -0.0491
10917TIP3    H254167   6.513   4.839  14.741 -0.7973  0.5158  0.0423
10918TIP3   OH254168   2.602   0.332   3.978 -0.4988  0.0088 -0.0111
10918TIP3    H154169   2.655   0.317   4.056 -0.9424 -0.2728  0.2388
10918TIP3    H254170   2.645   0.406   3.933 -2.0498  2.4125  2.1718
10919TIP3   OH254171   2.536   3.798   4.185 -0.3591 -0.1282 -0.0370
10919TIP3    H154172   2.503   3.716   4.148 -1.3754 -0.3285  1.2489
10919TIP3    H254173   2.602   3.827   4.122  0.6418 -2.3676 -0.1360
10920TIP3   OH254174   5.773   5.597  16.021 -0.4429 -0.1941 -0.1924
10920TIP3    H154175   5.733   5.684  16.022  1.6289  0.8214 -0.2509
10920TIP3    H254176   5.702   5.537  16.044 -2.7582  1.0901 -3.3246
10921TIP3   OH254177   6.015   0.749   2.214  0.0480 -0.0579  0.2028
10921TIP3    H154178   5.924   0.757   2.245 -0.0022 -0.0380  0.0518
10921TIP3    H254179   6.007   0.727   2.122  0.1931 -1.3463  0.4754
10922TIP3   OH254180   0.201   6.201  15.479  0.0261 -0.2254  0.0125
10922TIP3    H154181   0.179   6.122  15.528 -1.5447 -0.1282 -0.4862
10922TIP3    H254182   0.130   6.262  15.499  1.3486  1.1831  0.6050
10923TIP3   OH254183   2.084   2.000  16.791 -0.0299 -0.1506  0.3636
10923TIP3    H154184   2.062   2.000  16.884 -0.8071  0.8929  0.1954
10923TIP3    H254185   2.014   1.949  16.750 -0.1450  0.1007  0.2498
10924TIP3   OH254186   1.170   2.757  12.223 -0.1635 -0.1764 -0.6447
10924TIP3    H154187   1.155   2.798  12.308 -0.0317 -0.8894 -0.2673
10924TIP3    H254188   1.129   2.816  12.160 -2.7358 -0.9569  0.1481
10925TIP3   OH254189   1.066   4.784   6.222  0.5359  0.7461 -0.4254
10925TIP3    H154190   1.018   4.746   6.295 -0.3288  0.8428 -0.9183
10925TIP3    H254191   1.050   4.879   6.230  0.6023  0.7747 -0.6166
10926TIP3   OH254192   0.568   1.470   0.941 -0.2725 -0.9707  0.0758
10926TIP3    H154193   0.473   1.479   0.944 -0.1947  0.1705 -0.2345
10926TIP3    H254194   0.601   1.552   0.979  0.5852 -1.6232  0.7624
10927TIP3   OH254195   6.583   4.575  11.153 -0.4501 -0.6086 -0.5217
10927TIP3    H154196   6.488   4.568  11.141 -0.2137 -0.2572 -3.4363
10927TIP3    H254197   6.620   4.541  11.071  1.9839 -1.1706  0.7122
10928TIP3   OH254198   3.991   6.158   5.360  0.1444 -0.1850 -0.2646
10928TIP3    H154199   4.067   6.114   5.398  0.6278  2.1018  1.6107
10928TIP3    H254200   3.916   6.114   5.401  0.5782 -0.0292  0.7315
10929TIP3   OH254201   3.725   4.018   5.053  0.4924  0.7976  0.0569
10929TIP3    H154202   3.653   4.016   4.990  0.2651 -1.5532  0.3036
10929TIP3    H254203   3.682   4.029   5.138  0.4234 -0.0573  0.1489
10930TIP3   OH254204   4.103   2.591   3.392 -0.3156  0.2190  0.1922
10930TIP3    H154205   4.093   2.686   3.394 -1.2214  0.1769 -1.0354
10930TIP3    H254206   4.015   2.557   3.407 -0.4289 -0.3628 -1.5677
10931TIP3   OH254207   5.217   1.774  17.488 -0.0352 -0.5940 -0.2707
10931TIP3    H154208   5.172   1.710  17.434  0.6246 -1.1293 -0.1947
10931TIP3    H254209   5.168   1.774  17.571  0.6859 -1.9087  0.1755
10932TIP3   OH254210   3.081   5.434  17.480 -0.1806 -0.0536  0.2666
10932TIP3    H154211   3.065   5.419  17.573  0.2661  1.8380  0.6926
10932TIP3    H254212   3.032   5.365  17.435 -0.0584 -1.2546  1.9026
10933TIP3   OH254213   0.939   4.564   2.166  0.3153  0.3842 -0.1591
10933TIP3    H154214   1.033   4.564   2.151  0.1597  0.9614 -1.1956
10933TIP3    H254215   0.917   4.656   2.180 -0.3309  0.4528 -1.5108
10934TIP3   OH254216   6.363   1.213  16.403  0.1231  0.9120 -0.2207
10934TIP3    H154217   6.368   1.126  16.362  0.0696  0.2051  1.2038
10934TIP3    H254218   6.355   1.274  16.329 -2.5151 -0.4737 -1.2145
10935TIP3   OH254219   5.980   4.317  17.487  0.7131 -0.0696  0.1355
10935TIP3    H154220   6.046   4.249  17.480  1.8254  1.1498 -2.5290
10935TIP3    H254221   5.901   4.279  17.449  0.7405 -0.5111  0.5143
10936TIP3   OH254222   4.910   1.948  14.391  0.1048  0.0004 -0.3979
10936TIP3    H154223   4.858   2.005  14.448  0.9524  0.8087 -0.4051
10936TIP3    H254224   4.948   2.007  14.326 -0.7428 -0.8947 -1.7434
10937TIP3   OH254225   4.580   2.723  11.235  0.1960  0.0547 -0.5722
10937TIP3    H154226   4.582   2.818  11.226 -0.5805  0.1179 -0.1483
10937TIP3    H254227   4.574   2.691  11.145  0.4020  0.4085 -0.7143
10938TIP3   OH254228   3.662   3.593  11.990  0.3174 -0.0041 -0.2926
10938TIP3    H154229   3.696   3.638  12.067 -0.1499  0.6056 -0.4259
10938TIP3    H254230   3.633   3.664  11.932 -2.0707 -0.4607  0.2352
10939TIP3   OH254231   2.774   2.605  12.376 -0.0410 -0.1496 -0.2721
10939TIP3    H154232   2.845   2.547  12.403  1.2491  1.5384  0.1359
10939TIP3    H254233   2.704   2.590  12.439 -0.3442 -2.3001 -1.0511
10940TIP3   OH254234   0.141   2.974   4.321 -0.3026 -0.6022 -0.4942
10940TIP3    H154235   0.187   2.896   4.289 -0.1495 -0.6503 -0.1578
10940TIP3    H254236   0.153   2.971   4.416  2.9950  1.8433 -0.6616
10941TIP3   OH254237   6.615   2.692   2.604 -0.3556 -0.2176  0.9069
10941TIP3    H154238   6.593   2.610   2.648 -3.3129 -1.3094 -2.1722
10941TIP3    H254239   6.536   2.745   2.612 -0.2768  0.3074 -1.2700
10942TIP3   OH254240   2.671   4.756   2.025 -0.0992 -0.2832 -0.2345
10942TIP3    H154241   2.709   4.691   2.084 -2.6124 -0.2191  1.6138
10942TIP3    H254242   2.713   4.739   1.941  0.5938 -3.1667  0.5769
10943TIP3   OH254243   2.592   2.442  10.792  0.2623  0.3599  0.3488
10943TIP3    H154244   2.573   2.434  10.885  3.6128  0.1639  1.1417
10943TIP3    H254245   2.607   2.352  10.762 -2.8981  0.1422 -1.0531
10944TIP3   OH254246   0.407   1.306  14.000  0.3006  0.5313  0.7014
10944TIP3    H154247   0.469   1.255  13.949 -0.8477  0.1983 -0.4112
10944TIP3    H254248   0.460   1.371  14.046  1.3110  1.4034 -1.5841
10945TIP3   OH254249   4.361   4.636  12.258 -0.3268 -0.1249 -0.3326
10945TIP3    H154250   4.282   4.583  12.246 -0.3276  0.3046 -2.7003
10945TIP3    H254251   4.354   4.704  12.192  1.6267  0.4299 -0.0245
10946TIP3   OH254252   6.393   2.253   5.332  0.2803 -0.4005  0.2359
10946TIP3    H154253   6.379   2.193   5.258  0.0624 -1.5622  1.1784
10946TIP3    H254254   6.482   2.234   5.361  0.1122 -0.4511  0.7127
10947TIP3   OH254255   2.079   1.546   3.762  0.1544 -0.1127  0.3145
10947TIP3    H154256   2.159   1.504   3.729  0.0206  1.0507 -1.6263
10947TIP3    H254257   2.110   1.603   3.833  0.8479 -0.6846  0.4790
10948TIP3   OH254258   1.808   5.330  14.295  0.0070 -0.4267 -0.2661
10948TIP3    H154259   1.878   5.373  14.345 -0.1435 -0.2951 -0.1663
10948TIP3    H254260   1.733   5.331  14.355 -0.5897  0.9893 -0.9791
10949TIP3   OH254261   1.678   3.056  10.962  0.4357 -0.5207 -0.4652
10949TIP3    H154262   1.632   2.994  10.906  2.5426 -1.4243 -1.3262
10949TIP3    H254263   1.686   3.136  10.910 -0.9808  0.0127  0.0816
10950TIP3   OH254264   2.413   4.343   5.987 -0.3128  0.4169  0.1539
10950TIP3    H154265   2.414   4.373   6.078 -2.1583  0.5734  0.1727
10950TIP3    H254266   2.385   4.420   5.937 -0.1566  0.0908 -0.4451
10951TIP3   OH254267   4.768   2.091   1.912  0.1224  0.4549  0.4109
10951TIP3    H154268   4.857   2.064   1.935  0.1818  0.1842 -0.1280
10951TIP3    H254269   4.716   2.073   1.991  0.8383  2.1275  1.3232
10952TIP3   OH254270   6.252   0.276  13.866 -0.3038  0.2648  0.4081
10952TIP3    H154271   6.237   0.370  13.873  0.1347  0.2780  1.3850
10952TIP3    H254272   6.266   0.247  13.956  0.5811 -0.5612  0.0243
10953TIP3   OH254273   0.323   2.135   0.151 -0.8050 -0.7982  0.7238
10953TIP3    H154274   0.366   2.051   0.141 -0.2199 -0.2806 -1.9463
10953TIP3    H254275   0.381   2.197   0.106 -2.7321  0.4612 -0.1485
10954TIP3   OH254276   5.256   2.900  11.919 -0.0864 -0.4129 -0.4209
10954TIP3    H154277   5.164   2.895  11.894 -0.2022 -3.2386  0.2589
10954TIP3    H254278   5.285   2.809  11.924  2.3409  0.3375  0.9082
10955TIP3   OH254279   4.551   4.573   1.719  0.0264 -0.0788 -0.3223
10955TIP3    H154280   4.573   4.665   1.704  0.4141 -0.5062 -2.8745
10955TIP3    H254281   4.455   4.570   1.715  0.0350  0.1622 -0.8474
10956TIP3   OH254282   2.507   2.971  16.848  0.2889 -0.3274  0.4802
10956TIP3    H154283   2.429   2.929  16.885 -0.1496  0.4726  0.4888
10956TIP3    H254284   2.508   2.944  16.756 -1.0384  1.0985  0.0066
10957TIP3   OH254285   1.726   5.789   3.599  0.0898  0.2300  0.2040
10957TIP3    H154286   1.808   5.761   3.641 -0.0872  0.0144  0.4134
10957TIP3    H254287   1.752   5.823   3.514  0.3435 -0.3272  0.0562
10958TIP3   OH254288   3.672   6.324   1.703  0.1574  0.3647  0.2963
10958TIP3    H154289   3.689   6.344   1.611 -1.0879  0.7738  0.1471
10958TIP3    H254290   3.605   6.257   1.701 -0.9410  1.4112  0.9064
10959TIP3   OH254291   4.843   4.939   3.240 -0.3173 -0.0305  0.0677
10959TIP3    H154292   4.805   4.917   3.326  0.8517  0.1192  0.6465
10959TIP3    H254293   4.791   5.012   3.209 -1.6359 -0.9691  0.0091
10960TIP3   OH254294   1.958   6.219   6.455  0.0949  0.2311 -0.6754
10960TIP3    H154295   1.904   6.297   6.441  3.1642  2.6652 -0.0300
10960TIP3    H254296   1.935   6.190   6.544  1.4178  2.7161  0.5841
10961TIP3   OH254297   0.750   1.628   4.467 -0.8763 -0.2982 -0.2153
10961TIP3    H154298   0.775   1.537   4.487  0.6300  0.5504  2.1418
10961TIP3    H254299   0.724   1.625   4.375  1.7107 -2.6442 -1.0318
10962TIP3   OH254300   4.295   3.843  12.916 -0.5043 -0.2833  0.3775
10962TIP3    H154301   4.354   3.902  12.869  0.9545  1.1359  3.6451
10962TIP3    H254302   4.239   3.806  12.849  1.6635  1.1923 -2.4639
10963TIP3   OH254303   2.770   3.000  10.871  0.4782 -0.0123  0.7517
10963TIP3    H154304   2.730   2.953  10.797 -0.3115 -0.5906  1.5272
10963TIP3    H254305   2.824   2.934  10.914 -0.7001 -0.2721  1.8963
10964TIP3   OH254306   6.411   6.428  13.959  0.2212 -0.2685  0.2053
10964TIP3    H154307   6.335   6.471  13.919  1.6783  1.6262 -0.7351
10964TIP3    H254308   6.418   6.469  14.045  0.4823 -0.0135  0.0665
10965TIP3   OH254309   0.745   6.725  15.688  0.2348  0.3397 -0.2568
10965TIP3    H154310   0.728   6.719  15.782  0.8624  0.9505 -0.1003
10965TIP3    H254311   0.672   6.678  15.648  0.4360 -0.7079  0.5648
10966TIP3   OH254312   4.826   0.104   0.136  0.6878 -0.0829  0.3540
10966TIP3    H154313   4.862   0.174   0.080 -0.6311  0.6358  0.3450
10966TIP3    H254314   4.888   0.032   0.127  1.1979  0.4777 -1.0246
10967TIP3   OH254315   4.875   2.593   0.651 -0.1294 -0.1687 -0.1835
10967TIP3    H154316   4.860   2.555   0.737 -2.2362  0.2324 -0.3183
10967TIP3    H254317   4.806   2.660   0.642 -1.0019 -1.2908 -2.7744
10968TIP3   OH254318   2.011   3.567  12.181 -0.1825 -0.0979  0.0863
10968TIP3    H154319   2.040   3.478  12.165  2.1278  0.7321 -0.7922
10968TIP3    H254320   2.012   3.609  12.095 -0.2330  1.0470  0.6234
10969TIP3   OH254321   2.858   6.382  13.906  0.3062  0.1812 -0.3828
10969TIP3    H154322   2.856   6.363  13.812  1.1825 -0.6061 -0.2619
10969TIP3    H254323   2.952   6.384  13.927  0.1325  0.8997  0.3744
10970TIP3   OH254324   3.820   0.053  16.575  0.1043  0.2501  0.1155
10970TIP3    H154325   3.880  -0.020  16.587 -2.7822 -2.0337  1.9823
10970TIP3    H254326   3.806   0.058  16.480  0.5588 -1.4992 -0.0688
10971TIP3   OH254327   2.924   1.640   3.485 -0.4138  0.1141 -0.3639
10971TIP3    H154328   2.989   1.635   3.415 -1.4065  0.9624 -1.3982
10971TIP3    H254329   2.865   1.566   3.469 -0.4509  0.1099 -0.2116
10972TIP3   OH254330   3.686   5.788   3.679  0.1106 -0.0360  0.3959
10972TIP3    H154331   3.735   5.758   3.755 -0.1698 -1.3576  0.0841
10972TIP3    H254332   3.740   5.763   3.604 -0.9381 -1.4117  0.0572
10973TIP3   OH254333   4.145   4.095   4.983 -0.4704  0.3950 -0.4016
10973TIP3    H154334   4.136   4.189   4.966 -1.3009  0.5927  0.9772
10973TIP3    H254335   4.223   4.069   4.933  0.1500  1.9395 -0.3026
10974TIP3   OH254336   6.312   0.561   5.866  0.1894  0.4412 -0.3260
10974TIP3    H154337   6.363   0.642   5.868  0.0029  0.5547  1.1451
10974TIP3    H254338   6.233   0.581   5.917 -1.5023  0.3488 -2.7693
10975TIP3   OH254339   2.843   2.185   0.183 -0.2714  0.3204  0.2576
10975TIP3    H154340   2.800   2.117   0.236 -4.5157  2.2527 -0.3040
10975TIP3    H254341   2.898   2.135   0.122  0.5618 -2.2494  2.8536
10976TIP3   OH254342   3.481   2.902  13.972  0.6341  0.6199  0.9565
10976TIP3    H154343   3.555   2.873  13.920  0.0629 -0.2389  0.6123
10976TIP3    H254344   3.429   2.956  13.912  0.9635  1.2198  1.1964
10977TIP3   OH254345   5.179   6.381  11.968 -0.1568 -0.0687 -0.2352
10977TIP3    H154346   5.235   6.382  12.046 -1.5144  2.3557  0.8190
10977TIP3    H254347   5.108   6.442  11.988 -2.5128 -2.0047 -2.0275
10978TIP3   OH254348   1.098   1.692   5.930  0.6136 -0.1255  0.0734
10978TIP3    H154349   1.037   1.626   5.961 -2.1715  1.4474 -1.6571
10978TIP3    H254350   1.148   1.717   6.008 -0.4695 -1.9423  1.4230
10979TIP3   OH254351   5.136   6.480  13.093 -0.0630 -0.3171  0.2771
10979TIP3    H154352   5.068   6.545  13.108  0.8510  0.3767  1.5966
10979TIP3    H254353   5.146   6.476  12.998  1.4640  3.2388  0.1323
10980TIP3   OH254354   6.230   4.774  11.486 -0.6058 -0.7083 -0.1052
10980TIP3    H154355   6.146   4.764  11.442 -0.1628 -0.8425 -0.9508
10980TIP3    H254356   6.256   4.864  11.468 -0.5056 -0.7061  0.0469
10981TIP3   OH254357   6.548   2.327  14.491 -0.1851 -0.5346  0.8020
10981TIP3    H154358   6.490   2.267  14.444 -0.0856 -0.5544  0.7036
10981TIP3    H254359   6.586   2.382  14.423 -0.8447  0.1422  0.9684
10982TIP3   OH254360   0.400   6.092  11.840 -0.0294  0.2657  0.0595
10982TIP3    H154361   0.355   6.121  11.761  2.6081  0.0756 -1.6479
10982TIP3    H254362   0.361   6.007  11.861 -1.3651  0.7211 -0.4781
10983TIP3   OH254363   3.642   1.943  12.357  0.1456 -0.3743 -0.1739
10983TIP3    H154364   3.625   1.849  12.356 -0.2563 -0.3068  0.0810
10983TIP3    H254365   3.737   1.950  12.373  0.1570 -0.7338 -0.0763
10984TIP3   OH254366   0.902   5.722  13.415 -0.4174  0.2038  0.3282
10984TIP3    H154367   0.882   5.789  13.481 -0.5904 -0.1316  0.6194
10984TIP3    H254368   0.925   5.645  13.466  1.7444  0.5875 -0.0005
10985TIP3   OH254369   5.211   6.584   0.460  0.4886  0.2703  0.2766
10985TIP3    H154370   5.130   6.570   0.510  0.7189  3.2824  1.7015
10985TIP3    H254371   5.265   6.507   0.480 -1.4329 -1.1290  0.4012
10986TIP3   OH254372   1.226   6.137  13.481 -0.3472 -0.1474  0.2098
10986TIP3    H154373   1.142   6.092  13.488 -0.1160 -0.6142 -0.0205
10986TIP3    H254374   1.280   6.079  13.428  0.8677 -0.9275  2.1996
10987TIP3   OH254375   4.426   4.271  15.679  0.1150 -0.0762 -0.2739
10987TIP3    H154376   4.393   4.196  15.729 -0.4127  0.0516 -0.4220
10987TIP3    H254377   4.355   4.291  15.617  0.3531  0.3938 -0.3948
10988TIP3   OH254378   2.477   0.199   3.343  0.7109  0.4138 -0.1563
10988TIP3    H154379   2.516   0.173   3.259 -3.1389 -0.2724 -1.9795
10988TIP3    H254380   2.383   0.198   3.326 -0.1747  2.5375  3.6025
10989TIP3   OH254381   0.215   2.313  16.696 -0.5647 -0.7682 -0.1829
10989TIP3    H154382   0.154   2.269  16.637 -1.4584  1.3857 -0.9819
10989TIP3    H254383   0.182   2.403  16.702  2.0340  0.2686  0.0692
10990TIP3   OH254384   0.818   5.513   0.191 -0.3070  0.1234  0.2474
10990TIP3    H154385   0.834   5.605   0.171  0.4680 -0.6516 -3.5245
10990TIP3    H254386   0.899   5.481   0.229  0.7953  0.2689 -1.8577
10991TIP3   OH254387   1.301   0.299   3.440  0.4319 -0.1755 -0.1108
10991TIP3    H154388   1.244   0.225   3.418 -0.4598  0.5651 -0.3102
10991TIP3    H254389   1.365   0.262   3.502 -0.5630 -0.9063  0.5117
10992TIP3   OH254390   6.705   1.581  13.404  0.5886  0.9065  0.0304
10992TIP3    H154391   6.687   1.671  13.375  0.6594  1.1461  0.7104
10992TIP3    H254392   6.710   1.588  13.499  0.6575  0.1872  0.0788
10993TIP3   OH254393   5.552   3.752  15.396 -0.2899 -0.0443 -0.0103
10993TIP3    H154394   5.568   3.794  15.312 -2.5851 -0.6281 -0.8053
10993TIP3    H254395   5.463   3.776  15.419 -0.1926 -1.0486  1.5852
10994TIP3   OH254396   6.332   2.429   0.868  0.2578 -0.2377 -0.3966
10994TIP3    H154397   6.293   2.507   0.906 -0.0153 -0.8013  0.5093
10994TIP3    H254398   6.264   2.362   0.876  0.5412 -0.6131 -1.0313
10995TIP3   OH254399   0.153   0.904   1.721 -0.2531  0.4389  1.1640
10995TIP3    H154400   0.214   0.977   1.733 -0.3308  1.0917 -1.6242
10995TIP3    H254401   0.075   0.930   1.771  0.0831  1.8254  1.0215
10996TIP3   OH254402   3.422   1.625  11.618  0.3703 -0.4661  0.4707
10996TIP3    H154403   3.480   1.556  11.651  1.0682 -0.2062 -0.1827
10996TIP3    H254404   3.348   1.578  11.579 -0.0909 -0.7913  1.7002
10997TIP3   OH254405   2.204   2.948  13.351 -0.4008  0.3085 -0.3541
10997TIP3    H154406   2.224   2.996  13.431 -2.8417 -0.9143  1.1037
10997TIP3    H254407   2.251   2.995  13.282  1.7519  1.4294  1.7416
10998TIP3   OH254408   5.966   5.295  11.431  0.1880 -0.6465  0.1383
10998TIP3    H154409   5.961   5.202  11.449 -0.0414 -0.6814 -0.0879
10998TIP3    H254410   6.008   5.301  11.345  0.8459 -0.5071  0.4638
10999TIP3   OH254411   5.146   4.083  14.017  0.4059 -0.4024  0.0202
10999TIP3    H154412   5.213   4.016  14.018 -0.7893 -1.6542  1.4588
10999TIP3    H254413   5.068   4.040  14.053 -0.8239  1.3311 -0.4265
11000TIP3   OH254414   2.907   5.546   5.740  0.3239 -0.4550  0.1230
11000TIP3    H154415   2.841   5.479   5.761 -2.4542  1.5000 -1.6862
11000TIP3    H254416   2.918   5.594   5.822 -1.2036 -0.2729  0.2451
11001TIP3   OH254417   0.463   6.067  13.953 -0.1510  0.1781  0.0362
11001TIP3    H154418   0.433   5.980  13.927  0.4965  0.4714 -1.8423
11001TIP3    H254419   0.508   6.053  14.036  0.6021 -1.4191 -0.6000
11002TIP3   OH254420   5.607   0.520   2.405 -0.2616  0.0981 -0.3216
11002TIP3    H154421   5.515   0.521   2.379  0.3421 -0.1685 -2.7375
11002TIP3    H254422   5.654   0.543   2.325  1.8099 -0.4604  0.6757
11003TIP3   OH254423   1.983   0.010   4.664  0.5739  0.3621 -0.0478
11003TIP3    H154424   2.046   0.041   4.729 -0.4079 -1.2099  1.7575
11003TIP3    H254425   2.037  -0.030   4.595  1.6155 -0.5024  1.2102
11004TIP3   OH254426   4.855   4.228   5.908 -0.1138  0.2292  0.2252
11004TIP3    H154427   4.906   4.207   5.986  0.0003 -0.0308  0.0805
11004TIP3    H254428   4.777   4.272   5.942 -0.5611 -0.7968  0.5602
11005TIP3   OH254429   3.410   2.014  13.571  0.4362 -0.2114 -0.1830
11005TIP3    H154430   3.479   2.020  13.505 -0.6899 -0.0516 -1.3801
11005TIP3    H254431   3.328   2.016  13.521 -0.4405 -1.1811  1.1360
11006TIP3   OH254432   2.487   3.474  11.861  0.3007  0.1288  0.4396
11006TIP3    H154433   2.502   3.543  11.797 -0.4410 -1.1643 -1.2095
11006TIP3    H254434   2.573   3.458  11.900  1.3716 -0.7859 -2.0976
11007TIP3   OH254435   6.231   4.109  16.319  0.0687 -0.6319  0.1420
11007TIP3    H154436   6.212   4.019  16.343  0.5153 -0.8766 -0.4206
11007TIP3    H254437   6.246   4.153  16.403  0.6276 -1.2592  0.3761
11008TIP3   OH254438   0.621   4.816  14.344  0.0555  0.3397  0.4417
11008TIP3    H154439   0.582   4.880  14.404  0.3670  1.3302 -0.3841
11008TIP3    H254440   0.704   4.856  14.317 -0.1437 -0.0157 -0.7441
11009TIP3   OH254441   6.463   3.036  14.604  0.2795 -0.5723  0.4196
11009TIP3    H154442   6.460   3.047  14.699 -0.6354 -1.6571  0.5325
11009TIP3    H254443   6.556   3.025  14.584  0.8351  2.4833  0.8023
11010TIP3   OH254444   3.692   0.399  15.651 -0.5399 -0.4573  0.3571
11010TIP3    H154445   3.711   0.313  15.688 -2.2664 -1.9549 -1.9494
11010TIP3    H254446   3.764   0.415  15.590  0.0458 -0.0052  1.1547
11011TIP3   OH254447   0.872   4.762  15.021 -0.1994 -0.3186  0.2132
11011TIP3    H154448   0.888   4.781  15.114  0.0142 -0.0343  0.1191
11011TIP3    H254449   0.899   4.671  15.010 -2.1159 -1.0191  0.8817
11012TIP3   OH254450   4.309   1.125  12.043  0.3535  0.1843  0.4917
11012TIP3    H154451   4.272   1.099  11.959  1.2971 -0.0088  0.1156
11012TIP3    H254452   4.301   1.220  12.045 -0.1757  0.1412  0.4289
11013TIP3   OH254453   3.714   2.853   0.300 -0.2289 -0.0213 -0.1190
11013TIP3    H154454   3.731   2.825   0.210  1.8434  0.0766  0.1837
11013TIP3    H254455   3.669   2.779   0.340 -0.7000 -0.2705 -1.0778
11014TIP3   OH254456   2.396   2.916   4.207  0.5149 -0.2850 -0.1545
11014TIP3    H154457   2.419   2.952   4.122 -0.6610  1.3602  0.1719
11014TIP3    H254458   2.345   2.837   4.187 -0.3811  0.4935 -1.0118
11015TIP3   OH254459   4.716   2.662   2.006 -0.1331  0.0777 -0.6573
11015TIP3    H154460   4.693   2.718   1.932 -1.2671  0.8053  0.2118
11015TIP3    H254461   4.652   2.592   2.004 -0.0183 -0.0327 -0.4987
11016TIP3   OH254462   0.712   0.981  11.753  0.3305 -0.4770  0.8152
11016TIP3    H154463   0.715   0.897  11.707 -1.3881  0.1510 -0.5422
11016TIP3    H254464   0.685   0.959  11.842  0.2197 -1.3807  0.5692
11017TIP3   OH254465   2.096   4.534  10.967  0.2428  0.1413 -1.0828
11017TIP3    H154466   2.173   4.566  10.919  1.6022  0.6589  1.3098
11017TIP3    H254467   2.129   4.513  11.054 -2.0392 -1.1887 -0.4620
11018TIP3   OH254468   6.711   0.475  16.262 -0.7923  0.2761 -0.0717
11018TIP3    H154469   6.797   0.443  16.239 -0.7958  1.0762 -1.2604
11018TIP3    H254470   6.717   0.495  16.356  0.4009  0.6101 -0.2084
11019TIP3   OH254471   5.697   3.776   4.285  0.4642 -0.4085 -0.1538
11019TIP3    H154472   5.754   3.816   4.351  0.8201 -1.0814 -0.0488
11019TIP3    H254473   5.659   3.851   4.239 -0.6177  0.1130  1.4825
11020TIP3   OH254474   5.437   3.449  12.867 -0.3541 -0.2165 -0.4409
11020TIP3    H154475   5.421   3.495  12.784  0.9576  2.5642  0.7194
11020TIP3    H254476   5.413   3.513  12.934 -1.5634 -2.4568  1.3892
11021TIP3   OH254477   3.785   2.056  17.205 -0.3148  0.2468 -0.0143
11021TIP3    H154478   3.825   2.123  17.260 -0.0617 -0.3262  0.5121
11021TIP3    H254479   3.818   1.973  17.240 -1.5841 -0.2200  0.1246
11022TIP3   OH254480   4.164   4.046   2.477  0.0332  0.4490  0.5733
11022TIP3    H154481   4.118   4.073   2.398 -2.2332 -0.8380  1.3596
11022TIP3    H254482   4.191   4.128   2.519 -0.6339  1.2099 -0.4589
11023TIP3   OH254483   1.436   2.895   1.757  0.4278  0.2280  0.4539
11023TIP3    H154484   1.376   2.889   1.683  0.6362  0.2932  0.2787
11023TIP3    H254485   1.388   2.944   1.823  0.7385  1.3494 -0.1394
11024TIP3   OH254486   6.317   3.504   3.924  0.0444 -0.4305 -0.7784
11024TIP3    H154487   6.371   3.471   3.852  0.1618 -0.1417 -0.8262
11024TIP3    H254488   6.355   3.464   4.002  2.3814  2.1541 -0.4172
11025TIP3   OH254489   6.223   6.548  11.650  0.4784 -0.3192 -0.6079
11025TIP3    H154490   6.138   6.538  11.606  0.1420 -0.4800  0.0688
11025TIP3    H254491   6.284   6.568  11.579  0.2787 -2.2948 -1.3958
11026TIP3   OH254492   5.292   0.091  15.940 -0.1722  0.4185 -0.2799
11026TIP3    H154493   5.282   0.175  15.896 -1.8149 -0.1545 -1.0645
11026TIP3    H254494   5.209   0.046  15.927 -0.2120 -0.3886  2.1595
11027TIP3   OH254495   0.014   4.642   5.409 -0.4696  0.1267 -0.4738
11027TIP3    H154496  -0.017   4.566   5.361 -0.0925 -0.4312  0.1425
11027TIP3    H254497   0.000   4.716   5.350 -1.8140 -0.2718 -0.6879
11028TIP3   OH254498   6.678   5.551   4.094  0.0679 -0.1998  0.0205
11028TIP3    H154499   6.615   5.557   4.023  1.4953 -1.6673 -1.4714
11028TIP3    H254500   6.747   5.494   4.060  1.8497  0.7465  1.8253
11029TIP3   OH254501   3.791   1.578   4.431 -0.0248 -0.1583 -0.3432
11029TIP3    H154502   3.865   1.623   4.391 -1.1729  2.5235  0.3531
11029TIP3    H254503   3.792   1.606   4.522 -2.1899  0.4360 -0.4452
11030TIP3   OH254504   6.147   0.926  13.745 -0.1823  0.1007 -0.0122
11030TIP3    H154505   6.212   0.871  13.701  0.2345  0.6834 -0.1355
11030TIP3    H254506   6.063   0.893  13.715  0.0327 -0.9913  0.5320
11031TIP3   OH254507   0.612   1.364  14.947  0.0916 -0.0167 -0.1923
11031TIP3    H154508   0.575   1.288  14.901 -0.8927  0.3431 -0.0328
11031TIP3    H254509   0.702   1.369  14.916 -0.2944 -0.2996 -1.4276
11032TIP3   OH254510   5.357   2.928   6.487 -0.0401 -0.2229 -0.0022
11032TIP3    H154511   5.424   2.943   6.420 -0.9347 -1.8840 -1.3299
11032TIP3    H254512   5.277   2.964   6.449 -0.2932  0.0565  0.7821
11033TIP3   OH254513   5.003   0.429  13.638 -0.3460 -0.4345  0.5780
11033TIP3    H154514   5.097   0.445  13.645 -0.5832  0.5016  2.3874
11033TIP3    H254515   4.985   0.428  13.544  1.5610 -1.3241  0.1846
11034TIP3   OH254516   0.420   2.172   1.103 -0.1427  0.2972  0.1770
11034TIP3    H154517   0.340   2.195   1.056  0.4416  0.2059 -0.8907
11034TIP3    H254518   0.484   2.156   1.035  1.0109  1.1162  1.0259
11035TIP3   OH254519   3.068   4.782   1.249  0.2542  0.2099 -0.1120
11035TIP3    H154520   3.131   4.788   1.321  3.6050  1.5676 -2.8674
11035TIP3    H254521   3.062   4.688   1.230 -0.9246 -0.2028  1.9880
11036TIP3   OH254522   4.663   1.815   1.072  0.3455 -0.0421  0.0925
11036TIP3    H154523   4.651   1.768   1.155 -0.9980 -0.3139 -0.2262
11036TIP3    H254524   4.602   1.889   1.076 -1.5792 -1.4003 -1.5767
11037TIP3   OH254525   1.643   3.761  13.436  0.3503 -0.0423 -0.3512
11037TIP3    H154526   1.581   3.765  13.509 -0.1307  0.5799 -0.7742
11037TIP3    H254527   1.588   3.773  13.358  0.9494  0.0777 -0.7593
11038TIP3   OH254528   4.186   5.095   0.933 -0.3582  0.5480 -0.0527
11038TIP3    H154529   4.260   5.115   0.992 -0.2552 -1.3604  0.5398
11038TIP3    H254530   4.222   5.108   0.845  1.1567 -1.5677  0.1672
11039TIP3   OH254531   4.737   3.017  10.812  0.4512 -1.0669  0.2971
11039TIP3    H154532   4.655   3.005  10.859  0.1082 -0.5772 -0.1783
11039TIP3    H254533   4.754   2.932  10.770 -1.4934 -0.2818 -2.2952
11040TIP3   OH254534   2.521   0.388  12.468 -0.4674 -0.6471 -0.3411
11040TIP3    H154535   2.540   0.342  12.550  0.4889 -1.5333 -1.0265
11040TIP3    H254536   2.601   0.438  12.449 -0.4688 -0.8732 -0.9922
11041TIP3   OH254537   2.668   4.913  17.366 -0.6635  0.0201 -0.2366
11041TIP3    H154538   2.726   4.844  17.397 -2.5162 -1.8267 -0.6050
11041TIP3    H254539   2.614   4.934  17.442 -0.2412  0.9392 -0.1841
11042TIP3   OH254540   5.780   0.367   5.475 -0.0124  0.7135  0.3827
11042TIP3    H154541   5.709   0.407   5.424 -0.0281 -0.3287 -0.4369
11042TIP3    H254542   5.820   0.304   5.416 -0.6586 -1.2730  1.9660
11043TIP3   OH254543   4.263   6.016  13.668  0.0974 -0.5056  0.2094
11043TIP3    H154544   4.183   6.004  13.616 -0.0121 -0.0224  0.2675
11043TIP3    H254545   4.253   6.101  13.709  0.7198 -0.3707  0.0954
11044TIP3   OH254546   4.153   2.829   5.375 -0.2424 -0.1488  0.5637
11044TIP3    H154547   4.164   2.803   5.467  1.0265 -0.4208  0.3585
11044TIP3    H254548   4.128   2.921   5.380 -1.1401 -0.4155  1.2042
11045TIP3   OH254549   1.791   5.004   4.239  0.0098  0.4252  0.5693
11045TIP3    H154550   1.793   5.090   4.196  2.4539  0.0823 -0.1778
11045TIP3    H254551   1.798   4.942   4.167  0.2844 -0.3206  1.2297
11046TIP3   OH254552   1.016   0.415  10.634  0.3067  0.0378  0.2994
11046TIP3    H154553   0.996   0.379  10.720 -0.7089  1.5984  0.7569
11046TIP3    H254554   0.980   0.504  10.635  1.5014  0.6122 -1.2386
11047TIP3   OH254555   4.202   5.612   0.101  0.2881  0.1888 -0.6220
11047TIP3    H154556   4.154   5.572   0.173  0.2731  1.3016  0.0016
11047TIP3    H254557   4.135   5.626   0.033  0.1866 -0.3145 -0.6341
11048TIP3   OH254558   6.558   5.769  11.919  0.4405  0.4817  0.2785
11048TIP3    H154559   6.582   5.808  12.003  2.4826 -0.2694  0.0888
11048TIP3    H254560   6.576   5.837  11.854 -0.7084  0.9021  0.3742
11049TIP3   OH254561   4.527   1.076   6.684  0.1421 -0.6608 -0.2558
11049TIP3    H154562   4.618   1.104   6.693  0.6561 -0.9634 -3.4431
11049TIP3    H254563   4.507   1.090   6.592 -3.3843  0.2655  0.5012
11050TIP3   OH254564   6.505   5.829   4.688 -0.0958  0.3209  0.3582
11050TIP3    H154565   6.539   5.910   4.649 -0.3976  0.5175  0.4956
11050TIP3    H254566   6.521   5.839   4.782  0.4840 -0.0810  0.3072
11051TIP3   OH254567   6.541   5.425  13.666  0.2083 -0.0154 -0.6112
11051TIP3    H154568   6.637   5.434  13.669  0.1355  0.7171  1.0000
11051TIP3    H254569   6.513   5.491  13.602  0.7453  0.3065 -0.5303
11052TIP3   OH254570   6.577   4.980  16.443 -0.2688  0.2204 -0.3243
11052TIP3    H154571   6.508   4.919  16.419 -1.3026  0.2604  2.3060
11052TIP3    H254572   6.532   5.053  16.486  1.3973 -0.2539  2.4744
11053TIP3   OH254573   2.638   5.395   0.627 -0.6037 -0.6508  0.6256
11053TIP3    H154574   2.705   5.415   0.692  1.4085  0.0754 -1.5390
11053TIP3    H254575   2.617   5.479   0.588 -0.4771 -1.2724 -0.8341
11054TIP3   OH254576   1.521   5.843   1.589  0.2710 -0.3631  0.0484
11054TIP3    H154577   1.617   5.849   1.594  0.2743  1.3130 -1.2840
11054TIP3    H254578   1.503   5.836   1.495 -0.8882 -1.8023  0.3483
11055TIP3   OH254579   0.064   5.214  17.058  0.3138  0.4807  0.0767
11055TIP3    H154580   0.056   5.222  16.962  1.3378  1.7481  0.0700
11055TIP3    H254581   0.015   5.289  17.092  0.7154  0.5499  0.5104
11056TIP3   OH254582   6.137   3.463  15.724 -0.0444 -0.0688 -0.2906
11056TIP3    H154583   6.172   3.459  15.812 -0.4726  0.0178 -0.1133
11056TIP3    H254584   6.206   3.506  15.672  0.4625 -0.6929 -0.1342
11057TIP3   OH254585   6.612   6.147  16.127  0.3506  0.0394 -0.2122
11057TIP3    H154586   6.696   6.133  16.082  0.5297 -1.7344  0.5977
11057TIP3    H254587   6.548   6.102  16.072  0.2974 -0.5866  0.3510
11058TIP3   OH254588   0.009   5.346   5.285 -0.1821 -0.2424  0.0490
11058TIP3    H154589  -0.016   5.388   5.203  0.9940 -0.3864 -0.4086
11058TIP3    H254590  -0.040   5.264   5.285  0.4437 -0.6326 -0.9285
11059TIP3   OH254591   3.919   4.431   5.574  0.2697 -0.2493  0.0649
11059TIP3    H154592   3.990   4.411   5.514  1.1463  1.0495  0.6211
11059TIP3    H254593   3.840   4.430   5.519  0.9592  0.1625 -0.9521
11060TIP3   OH254594   2.236   0.560  14.900  0.0906  0.3329 -0.1182
11060TIP3    H154595   2.215   0.467  14.894  0.6155  0.1831  0.2508
11060TIP3    H254596   2.213   0.595  14.814  3.6213 -0.9344 -1.8125
11061TIP3   OH254597   3.409   1.150   2.434  0.5909 -0.7748  0.4585
11061TIP3    H154598   3.469   1.143   2.508  0.2475  0.4428  0.8727
11061TIP3    H254599   3.447   1.217   2.377 -0.5668  0.3654  0.9582
11062TIP3   OH254600   5.072   2.558  16.830  0.0824 -0.0116 -0.5275
11062TIP3    H154601   5.089   2.625  16.764  0.4994 -0.8778 -1.3238
11062TIP3    H254602   5.157   2.515  16.843 -0.4200 -1.1792 -0.9346
11063TIP3   OH254603   2.791   3.299   4.561 -0.9498 -0.1850 -0.1948
11063TIP3    H154604   2.744   3.277   4.641  0.4179 -1.3586  0.3198
11063TIP3    H254605   2.828   3.386   4.577 -0.3493 -0.5836  0.6177
11064TIP3   OH254606   2.883   4.888   5.721 -0.4755 -0.4093 -0.1416
11064TIP3    H154607   2.809   4.933   5.679  0.5279  0.9612 -0.4971
11064TIP3    H254608   2.941   4.865   5.648 -0.2705 -0.9702  0.1936
11065TIP3   OH254609   6.015   3.140  12.651  0.1709  0.0346  0.0205
11065TIP3    H154610   6.110   3.140  12.636  0.2402  1.0826  0.3802
11065TIP3    H254611   5.989   3.231  12.639 -0.7585 -0.1952  0.1998
11066TIP3   OH254612   5.819   0.515  15.096  0.2772  0.0930  0.0979
11066TIP3    H154613   5.731   0.488  15.069  0.6949  0.9092 -2.2677
11066TIP3    H254614   5.878   0.470  15.036  1.3519  1.1366  0.3354
11067TIP3   OH254615   3.408   1.335  11.230 -0.1170  0.5018  0.3831
11067TIP3    H154616   3.482   1.281  11.202  0.2355  1.6047 -0.9606
11067TIP3    H254617   3.336   1.310  11.171 -0.8643 -0.6149  1.7282
11068TIP3   OH254618   1.122   4.518  14.838  0.1770 -0.2917  0.3272
11068TIP3    H154619   1.205   4.559  14.862  0.1406  0.2212 -0.3803
11068TIP3    H254620   1.123   4.514  14.743 -0.8672  0.2956  0.2683
11069TIP3   OH254621   1.859   1.845  16.692  0.6853 -0.1374  0.4421
11069TIP3    H154622   1.796   1.774  16.682 -2.1495  1.8541  2.4870
11069TIP3    H254623   1.945   1.802  16.694 -0.8350 -3.4004  1.0449
11070TIP3   OH254624   0.771   2.795   1.967  0.4097 -0.1293  0.0864
11070TIP3    H154625   0.854   2.825   1.928  0.6946 -0.8483  0.1259
11070TIP3    H254626   0.719   2.766   1.892 -0.7384  2.4169 -0.2103
11071TIP3   OH254627   0.537   3.872   3.842 -0.7203 -0.5530  0.4642
11071TIP3    H154628   0.494   3.875   3.756 -1.7272  0.1381  0.9757
11071TIP3    H254629   0.509   3.952   3.886 -1.5714 -1.6691  2.0666
11072TIP3   OH254630   0.069   0.297  10.850 -0.7255  0.2524  0.7374
11072TIP3    H154631   0.138   0.350  10.888 -0.9201  0.2543  1.0939
11072TIP3    H254632   0.115   0.228  10.802 -0.4744  1.0198 -0.1288
11073TIP3   OH254633   5.887   0.678  13.128 -0.0313 -0.2680 -0.2794
11073TIP3    H154634   5.816   0.727  13.088 -0.8471 -1.0741  0.1476
11073TIP3    H254635   5.909   0.610  13.064 -1.3252 -1.5463  0.5668
11074TIP3   OH254636   0.150   4.448  15.546 -0.4089 -0.1551 -0.3361
11074TIP3    H154637   0.215   4.380  15.565  0.9501  1.1003 -0.3473
11074TIP3    H254638   0.148   4.453  15.451 -1.2559 -0.8365 -0.3732
11075TIP3   OH254639   4.254   1.936  12.416  1.1377  0.3151  0.2854
11075TIP3    H154640   4.245   1.969  12.506 -0.7536  0.7524 -0.0251
11075TIP3    H254641   4.241   1.841  12.424 -1.1922  0.5922  0.2467
11076TIP3   OH254642   5.873   3.034   4.612  0.5025  0.5957 -0.1073
11076TIP3    H154643   5.963   3.059   4.593  0.4322  1.1571  0.2874
11076TIP3    H254644   5.821   3.080   4.545  0.6030 -0.7829 -1.1887
11077TIP3   OH254645   3.456   1.946   2.090  0.1779  0.0180 -0.3190
11077TIP3    H154646   3.377   1.972   2.043  0.6197 -1.2514 -1.8286
11077TIP3    H254647   3.425   1.884   2.156 -0.0196 -1.1175 -1.4457
11078TIP3   OH254648   6.601   0.239  13.843 -0.4570  0.7380  0.2751
11078TIP3    H154649   6.668   0.175  13.820 -0.8286  0.7938 -0.9972
11078TIP3    H254650   6.610   0.309  13.779 -0.7801  1.4571  0.9869
11079TIP3   OH254651   2.314   3.622   2.023  0.0401 -0.1419 -0.2201
11079TIP3    H154652   2.288   3.701   2.070  3.3173  1.2698 -0.5124
11079TIP3    H254653   2.355   3.566   2.089 -0.8068 -0.9277 -0.3310
11080TIP3   OH254654   1.176   0.485  14.625 -0.2626  0.0049  0.1040
11080TIP3    H154655   1.105   0.534  14.585  0.5064  0.0319 -1.2771
11080TIP3    H254656   1.149   0.393  14.618 -0.7725  0.0898  0.8386
11081TIP3   OH254657   4.506   3.725   0.786 -0.5516 -0.5835  0.3711
11081TIP3    H154658   4.498   3.685   0.872 -2.5201  1.9761  1.5065
11081TIP3    H254659   4.556   3.806   0.801  0.3034 -0.7767 -1.1786
11082TIP3   OH254660   3.564   0.281  14.893 -0.1522 -0.1212 -0.3975
11082TIP3    H154661   3.505   0.223  14.846 -1.8505  0.0480  1.3907
11082TIP3    H254662   3.602   0.226  14.962 -0.8108  0.5469  0.5277
11083TIP3   OH254663   1.097   5.555  15.011 -0.1458 -0.2100 -0.0315
11083TIP3    H154664   1.030   5.524  15.072  1.1003 -0.7459  1.1218
11083TIP3    H254665   1.105   5.484  14.947  0.7750 -1.1181  1.0421
11084TIP3   OH254666   5.922   6.635   4.575  0.3187 -0.2246 -0.0320
11084TIP3    H154667   5.950   6.611   4.487  0.3278  0.4619 -0.2224
11084TIP3    H254668   5.981   6.706   4.602 -1.0774  1.1389 -0.3876
11085TIP3   OH254669   4.403   3.918  14.515 -0.1588  0.4551  0.2182
11085TIP3    H154670   4.488   3.932  14.474 -0.7025  0.6594 -0.8871
11085TIP3    H254671   4.416   3.941  14.607  1.4231 -1.2235  0.4699
11086TIP3   OH254672   1.294   3.979   0.321 -0.2204 -0.6645  0.0899
11086TIP3    H154673   1.251   3.986   0.406 -0.1491 -1.8098  0.2458
11086TIP3    H254674   1.373   4.032   0.330 -0.5029 -0.3204  0.5506
11087TIP3   OH254675   6.627   1.777  16.574 -0.5994 -0.1443 -0.4296
11087TIP3    H154676   6.664   1.840  16.635 -1.7237  0.1251 -0.0079
11087TIP3    H254677   6.536   1.805  16.561 -0.4363 -0.2595 -2.1322
11088TIP3   OH254678   3.514   3.059  16.928  0.2798  0.3843 -0.1380
11088TIP3    H154679   3.588   3.102  16.971 -0.1994  0.7534  0.3218
11088TIP3    H254680   3.507   2.975  16.973  1.7841 -0.6106 -1.6281
11089TIP3   OH254681   6.457   2.333   4.937  0.4420  0.7844 -0.3487
11089TIP3    H154682   6.462   2.251   4.888  0.8772  0.8559 -0.4223
11089TIP3    H254683   6.395   2.387   4.887  0.7679  0.8020 -0.7393
11090TIP3   OH254684   6.330   0.025  16.195 -0.1398  0.4525 -0.1764
11090TIP3    H154685   6.264   0.044  16.262  0.6276 -2.7360  1.6874
11090TIP3    H254686   6.409   0.069  16.228  0.0010 -0.3215  0.5405
11091TIP3   OH254687   4.390   1.415  17.415 -0.1756  0.3989  0.0065
11091TIP3    H154688   4.412   1.497  17.459 -0.8764  0.0658  1.0099
11091TIP3    H254689   4.444   1.415  17.336  0.7108  1.2686  0.5896
11092TIP3   OH254690   1.265   3.807  14.277 -0.0836  0.0116 -0.6354
11092TIP3    H154691   1.216   3.885  14.302 -1.6080 -1.4145  1.0760
11092TIP3    H254692   1.212   3.734  14.308  1.2033 -1.7408 -2.3343
11093TIP3   OH254693   0.014   6.246  16.586  0.2084  0.1646 -0.3319
11093TIP3    H154694  -0.026   6.250  16.499 -0.9526 -0.8715  0.1279
11093TIP3    H254695   0.036   6.153  16.598  1.9063  0.5426 -0.1696
11094TIP3   OH254696   4.722   6.100   1.347  0.0373 -0.4058 -0.2792
11094TIP3    H154697   4.723   6.033   1.278 -0.9778  0.9413 -1.6554
11094TIP3    H254698   4.786   6.165   1.318 -0.5095  0.2462 -0.0422
11095TIP3   OH254699   4.116   4.650  12.046 -0.4081 -0.3070  1.1703
11095TIP3    H154700   4.110   4.577  11.984  0.9356 -0.8817  1.6816
11095TIP3    H254701   4.198   4.694  12.023 -1.6478  1.6816  0.2391
11096TIP3   OH254702   3.601   4.869  15.811 -0.0870 -0.1501  0.1992
11096TIP3    H154703   3.586   4.784  15.853 -2.1491  0.2876  0.4860
11096TIP3    H254704   3.688   4.862  15.772  0.7201 -1.5791  2.1135
11097TIP3   OH254705   5.909   6.512  13.969 -0.1457 -0.3261  0.3103
11097TIP3    H154706   5.968   6.452  14.015  0.3038  0.8015  1.2652
11097TIP3    H254707   5.828   6.462  13.958  0.8439 -1.7847 -0.7266
11098TIP3   OH254708   5.864   0.943   5.004  0.2483 -0.0349  0.3207
11098TIP3    H154709   5.866   1.013   5.069 -0.2212  0.5769 -0.3053
11098TIP3    H254710   5.917   0.976   4.931  0.2813 -0.4680  0.1424
11099TIP3   OH254711   4.048   3.201   0.450 -0.6654  0.3559  0.1220
11099TIP3    H154712   4.034   3.209   0.356  0.2934  0.5334 -0.0143
11099TIP3    H254713   4.066   3.290   0.480 -0.0563  0.1734  0.3141
11100TIP3   OH254714   6.182   2.794   5.604 -0.1904  0.1222 -0.4655
11100TIP3    H154715   6.272   2.806   5.635 -0.8498 -0.0100  1.6001
11100TIP3    H254716   6.128   2.800   5.682 -1.8118 -2.2104 -1.2977
11101TIP3   OH254717   4.834   5.981  16.483  0.2477  0.1185  0.4181
11101TIP3    H154718   4.884   5.903  16.458 -0.5806 -0.7248  1.2592
11101TIP3    H254719   4.775   5.949  16.552 -0.9376  1.2288 -0.0539
11102TIP3   OH254720   2.268   6.735   1.758 -0.4222  0.1543  0.1333
11102TIP3    H154721   2.273   6.643   1.784 -1.5199  0.5939  2.1085
11102TIP3    H254722   2.345   6.775   1.797  0.3972  0.0018 -1.2558
11103TIP3   OH254723   1.830   2.957  12.440  0.0327  0.2722  0.1754
11103TIP3    H154724   1.914   2.932  12.401 -0.0335  0.4275 -0.0727
11103TIP3    H254725   1.776   2.878  12.433  0.6236 -0.2872  1.6677
11104TIP3   OH254726   5.595   6.020   4.264 -0.0398 -0.1355 -0.3871
11104TIP3    H154727   5.585   6.008   4.358  0.8652  0.3183 -0.2199
11104TIP3    H254728   5.529   5.963   4.225 -0.7794  0.0705  0.5312
11105TIP3   OH254729   5.961   6.362   4.474 -0.0101  0.1937 -0.6821
11105TIP3    H154730   5.939   6.327   4.560  0.1107  0.8098 -0.3933
11105TIP3    H254731   5.894   6.327   4.415  0.7096 -1.3764 -0.6090
11106TIP3   OH254732   0.220   5.448  13.458 -0.6787 -0.4160  0.4737
11106TIP3    H154733   0.191   5.538  13.472 -0.1722 -0.2071  0.1951
11106TIP3    H254734   0.198   5.430  13.366  1.4976  0.3011 -0.2445
11107TIP3   OH254735   6.531   0.800  16.627 -0.0873 -0.2444  0.0498
11107TIP3    H154736   6.542   0.891  16.602 -1.6186 -0.1528 -0.3860
11107TIP3    H254737   6.437   0.783  16.616 -0.2258 -1.2488  2.2055
11108TIP3   OH254738   5.150   0.195  15.515 -0.4533 -0.5485  0.0365
11108TIP3    H154739   5.068   0.241  15.533  0.9068  1.4912  1.4331
11108TIP3    H254740   5.175   0.226  15.428 -0.1872  0.4091  0.4403
11109TIP3   OH254741   1.063   2.311   6.336  0.4963  0.4527 -0.4921
11109TIP3    H154742   0.983   2.352   6.303 -0.4238  1.0010  2.1682
11109TIP3    H254743   1.099   2.375   6.397  1.6053 -0.8169  0.2366
11110TIP3   OH254744   4.214   3.953  14.881  0.1389 -0.6474 -0.1822
11110TIP3    H154745   4.177   3.978  14.796  1.0557  2.1333  0.1267
11110TIP3    H254746   4.309   3.957  14.868  0.2934 -0.2395  0.9480
11111TIP3   OH254747   1.961   5.456   1.747  0.3700  0.8630 -0.2881
11111TIP3    H154748   1.923   5.411   1.671 -0.1070  0.7655  0.0044
11111TIP3    H254749   1.891   5.456   1.812  1.4214 -0.9326  0.9293
11112TIP3   OH254750   4.534   1.068  12.331  0.2958 -0.0436 -0.3137
11112TIP3    H154751   4.620   1.069  12.289 -0.2989  0.0981 -1.5773
11112TIP3    H254752   4.533   1.146  12.386  0.8584  0.1346 -0.5497
11113TIP3   OH254753   0.829   2.615  17.468  0.1356  0.4984 -0.4026
11113TIP3    H154754   0.821   2.684  17.534  0.9137 -0.6640  0.9673
11113TIP3    H254755   0.915   2.630  17.429  1.0507 -0.6348  1.0740
11114TIP3   OH254756   3.969   2.757  16.533 -0.4505 -0.1534  0.3299
11114TIP3    H154757   3.981   2.668  16.499  0.9492  0.5770 -1.2195
11114TIP3    H254758   3.951   2.810  16.456 -0.0492  1.1112  1.0769
11115TIP3   OH254759   1.860   4.382   4.236  0.3023  0.2720  0.6896
11115TIP3    H154760   1.843   4.421   4.322  1.6111 -0.7878  1.4681
11115TIP3    H254761   1.944   4.420   4.209  0.0702  0.3274  0.0248
11116TIP3   OH254762   0.717   6.124  17.379  0.2633  0.0230  0.0374
11116TIP3    H154763   0.789   6.127  17.443  0.4084  1.8043 -0.1600
11116TIP3    H254764   0.650   6.071  17.422  1.7148 -1.8430  0.1531
11117TIP3   OH254765   5.697   6.535   2.546 -0.2711 -0.2986  0.1588
11117TIP3    H154766   5.748   6.538   2.627  0.8206  1.0960 -0.5152
11117TIP3    H254767   5.761   6.557   2.477 -1.5044  0.2068 -0.8687
11118TIP3   OH254768   2.679   5.127   1.275  0.2144 -0.2588 -0.4017
11118TIP3    H154769   2.643   5.040   1.292  0.2662 -0.1841  0.1020
11118TIP3    H254770   2.602   5.183   1.262  0.1796 -0.3535 -0.6105
11119TIP3   OH254771   6.676   5.299   1.475  0.2424 -0.4083 -0.3174
11119TIP3    H154772   6.767   5.295   1.505  0.9653  0.7555 -2.1576
11119TIP3    H254773   6.634   5.362   1.533  1.1153  0.4108 -0.5365
11120TIP3   OH254774   4.004   4.491   0.560 -0.4727  0.1191  0.6068
11120TIP3    H154775   3.980   4.583   0.574 -0.6839  0.0138  0.9394
11120TIP3    H254776   3.961   4.467   0.479 -2.2709 -0.3309  1.6454
11121TIP3   OH254777   3.410   2.377   3.225  0.0680  0.6047 -0.6241
11121TIP3    H154778   3.464   2.380   3.146 -0.0175  1.2104 -0.6659
11121TIP3    H254779   3.351   2.453   3.216 -0.0519  0.5820 -0.0600
11122TIP3   OH254780   5.994   3.315  13.958  0.4131 -0.2441 -0.6087
11122TIP3    H154781   5.931   3.304  13.886 -1.1937 -0.5698  0.7984
11122TIP3    H254782   6.001   3.228  13.996 -2.2068  0.6742  2.3558
11123TIP3   OH254783   5.341   3.044   4.033 -0.1738  0.7396 -0.0077
11123TIP3    H154784   5.358   2.962   3.986  1.5798  0.7018  0.6101
11123TIP3    H254785   5.280   3.091   3.978  1.8575  0.7457 -2.4212
11124TIP3   OH254786   5.112   6.563   5.754 -0.0631 -0.2265  0.5626
11124TIP3    H154787   5.030   6.535   5.794  0.9689 -1.8800  1.6334
11124TIP3    H254788   5.095   6.652   5.724 -2.8992 -1.2449 -1.1806
11125TIP3   OH254789   3.073   6.348   1.453 -0.5744  0.4086  0.3207
11125TIP3    H154790   3.140   6.318   1.515 -0.5439 -0.5472 -0.1605
11125TIP3    H254791   2.990   6.333   1.498 -0.5622 -0.4720  0.0677
11126TIP3   OH254792   1.059   5.006   2.143  0.2885 -0.2732 -0.9140
11126TIP3    H154793   1.144   5.004   2.098  0.7924 -3.3829 -0.0678
11126TIP3    H254794   1.002   4.951   2.089 -1.3049  1.8596 -1.5205
11127TIP3   OH254795   3.935   2.420  13.694 -0.6006  0.2630 -0.3814
11127TIP3    H154796   3.894   2.336  13.671  0.6572 -0.2437 -0.8845
11127TIP3    H254797   3.994   2.438  13.621  0.7110  0.5177  0.6977
11128TIP3   OH254798   2.114   0.961  13.291 -0.2118  0.7049  0.2794
11128TIP3    H154799   2.035   0.951  13.345  1.0074  0.4898  2.0822
11128TIP3    H254800   2.136   1.054  13.298  0.3683  0.5372  0.7980
11129TIP3   OH254801   0.223   4.671   1.043 -0.1471  0.6110 -0.5379
11129TIP3    H154802   0.128   4.659   1.051  0.0344 -0.4989  0.1241
11129TIP3    H254803   0.233   4.743   0.980 -1.4004  0.1361 -1.3050
11130TIP3   OH254804   4.902   1.748   6.589  0.4778 -0.9455  0.1984
11130TIP3    H154805   4.989   1.761   6.549  0.3118 -2.3515 -0.7123
11130TIP3    H254806   4.912   1.779   6.678  2.2466 -2.0198  0.4344
11131TIP3   OH254807   3.645   2.506   1.584  0.0732 -0.4994  0.0546
11131TIP3    H154808   3.604   2.468   1.507  0.0472 -0.7560  0.1949
11131TIP3    H254809   3.698   2.435   1.620  0.9554 -0.0612 -0.3500
11132TIP3   OH254810   5.855   4.625   2.081  0.2701  0.4425  0.3479
11132TIP3    H154811   5.768   4.644   2.047 -0.1013 -0.6172  0.6491
11132TIP3    H254812   5.916   4.663   2.017 -0.4115 -0.3112 -0.7879
11133TIP3   OH254813   1.321   2.741  13.952  0.1290 -0.2305  0.3297
11133TIP3    H154814   1.379   2.759  13.877 -0.2352  1.0968  0.3325
11133TIP3    H254815   1.372   2.685  14.009  0.6257 -0.8159 -0.6615
11134TIP3   OH254816   0.027   3.067   5.478 -0.6927  0.3915  0.2780
11134TIP3    H154817   0.026   3.078   5.573 -2.0396 -0.0303  0.3338
11134TIP3    H254818   0.016   2.973   5.465  0.2953  0.3421 -0.2984
11135TIP3   OH254819   0.833   1.094   4.361 -0.4387 -0.2353  0.1754
11135TIP3    H154820   0.790   1.008   4.357 -1.7889  0.4754 -1.9074
11135TIP3    H254821   0.760   1.156   4.366  0.5020  0.8644  0.5749
11136TIP3   OH254822   0.186   6.549  14.376 -0.3412 -0.1360  0.5335
11136TIP3    H154823   0.243   6.527  14.302  0.1694 -0.4027  0.9967
11136TIP3    H254824   0.097   6.544  14.340 -0.3579 -3.6427  0.6853
11137TIP3   OH254825   5.768   6.720   1.252 -0.6484  0.0594  0.5360
11137TIP3    H154826   5.797   6.808   1.273 -1.3020  0.2911  0.4823
11137TIP3    H254827   5.789   6.668   1.330 -0.3931  0.2880  0.6215
11138TIP3   OH254828   0.266   4.631   1.678 -0.5936  0.5014  0.4253
11138TIP3    H154829   0.289   4.556   1.623 -3.7041 -0.9644  0.8871
11138TIP3    H254830   0.235   4.697   1.616  0.6685  0.8404  0.1276
11139TIP3   OH254831   6.046   3.062   0.924 -0.1980  0.3288  0.8557
11139TIP3    H154832   5.999   3.057   1.007 -0.4751  0.0371  0.6809
11139TIP3    H254833   6.029   2.979   0.881  0.5289  0.1990  0.8131
11140TIP3   OH254834   2.117   5.388  11.293 -0.5358 -0.4146  0.4670
11140TIP3    H154835   2.099   5.355  11.205  3.0048  1.1329 -1.0056
11140TIP3    H254836   2.189   5.334  11.325 -1.7424 -0.9316  2.5073
11141TIP3   OH254837   3.113   5.823  13.615 -0.5251  0.0475  0.2412
11141TIP3    H154838   3.095   5.775  13.534 -1.7003  0.3149  0.3226
11141TIP3    H254839   3.174   5.767  13.663 -0.7651 -0.6884 -0.2953
11142TIP3   OH254840   4.362   3.734   4.730 -0.1616  0.1358 -0.0056
11142TIP3    H154841   4.306   3.662   4.757 -0.9520  1.2379  1.4359
11142TIP3    H254842   4.306   3.788   4.674  0.1440  0.1261 -0.3265
11143TIP3   OH254843   3.132   6.674  15.027 -0.2831 -0.1279 -0.1464
11143TIP3    H154844   3.208   6.640  15.073  0.1047 -0.8111 -1.2517
11143TIP3    H254845   3.058   6.625  15.065  0.1637 -1.5778 -1.0506
11144TIP3   OH254846   1.675   1.018  11.282  0.5043 -0.1447  0.6610
11144TIP3    H154847   1.622   0.938  11.282 -1.8027  1.2903  0.2059
11144TIP3    H254848   1.673   1.047  11.374  0.2049  0.0755  0.5869
11145TIP3   OH254849   2.184   3.024  16.056 -0.7533  0.2035  0.1020
11145TIP3    H154850   2.255   2.974  16.096  0.1534  2.2031  1.1315
11145TIP3    H254851   2.220   3.054  15.972 -1.2997 -0.8266 -0.5193
11146TIP3   OH254852   3.751   2.635  13.584  0.0911  0.2571 -0.4152
11146TIP3    H154853   3.811   2.683  13.528 -0.1489 -1.2683 -2.0483
11146TIP3    H254854   3.805   2.568  13.627 -0.0555  0.2581 -0.2255
11147TIP3   OH254855   0.115   3.559  12.103 -0.3640 -0.0500 -0.1800
11147TIP3    H154856   0.159   3.537  12.021 -0.2023 -2.7168  0.5076
11147TIP3    H254857   0.170   3.520  12.171 -1.6802  0.0648  1.0102
11148TIP3   OH254858   1.130   2.454   3.513 -0.1344 -0.3254 -0.5335
11148TIP3    H154859   1.064   2.397   3.553  0.1429 -0.3308 -0.0801
11148TIP3    H254860   1.213   2.412   3.534  0.0808  0.2968 -0.1104
11149TIP3   OH254861   4.997   2.782  13.269  0.3380  0.1920  0.5630
11149TIP3    H154862   4.969   2.699  13.307  0.4350  0.4619  1.2258
11149TIP3    H254863   4.919   2.837  13.271 -0.0341 -0.2261 -0.8932
11150TIP3   OH254864   5.800   2.466   3.221 -0.0988 -0.6126 -0.4498
11150TIP3    H154865   5.853   2.387   3.208  0.4655 -0.4163  0.5621
11150TIP3    H254866   5.863   2.538   3.213  0.1363 -0.4242  2.1482
11151TIP3   OH254867   5.120   3.920   3.484 -0.7169 -0.3161 -0.0136
11151TIP3    H154868   5.078   3.863   3.420 -1.6449 -0.7752  0.9955
11151TIP3    H254869   5.050   3.976   3.517  0.1428  1.3879 -0.8962
11152TIP3   OH254870   2.657   0.576  11.232 -0.3230  0.3887  0.3753
11152TIP3    H154871   2.680   0.551  11.142 -0.1960 -2.7963  1.1598
11152TIP3    H254872   2.564   0.600  11.227 -0.6365 -0.8483 -0.4853
11153TIP3   OH254873   6.620   2.304   1.576  0.6352  0.3727 -0.1066
11153TIP3    H154874   6.560   2.376   1.560  0.9283  0.7050  0.2611
11153TIP3    H254875   6.585   2.260   1.654 -0.6303 -1.0701 -1.3994
11154TIP3   OH254876   3.686   5.552   3.328 -0.1278 -0.1236  0.2257
11154TIP3    H154877   3.630   5.600   3.267 -0.3783 -0.6315  0.0504
11154TIP3    H254878   3.760   5.611   3.344 -0.4579  0.3422  0.0605
11155TIP3   OH254879   1.376   3.589   1.479 -0.0262 -0.2229  0.2434
11155TIP3    H154880   1.447   3.624   1.425  0.2852 -0.8136  0.2645
11155TIP3    H254881   1.412   3.584   1.567  0.6167 -2.4122 -0.0805
11156TIP3   OH254882   3.481   2.969   2.142  0.0719  0.1793  0.0040
11156TIP3    H154883   3.426   2.910   2.192 -0.2104 -0.7881 -1.3783
11156TIP3    H254884   3.434   2.981   2.059  1.2908  0.3940 -0.6811
11157TIP3   OH254885   6.140   5.130  12.386  0.0766  0.5719  0.6371
11157TIP3    H154886   6.135   5.224  12.370  1.7910  0.9808  2.0722
11157TIP3    H254887   6.073   5.113  12.452 -2.2881  0.1585 -1.7360
11158TIP3   OH254888   4.381   2.138   3.720 -0.2407 -0.0691 -0.3905
11158TIP3    H154889   4.296   2.096   3.731  0.2781 -0.8805  0.7451
11158TIP3    H254890   4.378   2.176   3.632 -2.6298  1.9666  0.4540
11159TIP3   OH254891   6.444   5.395  11.580  0.0681 -0.1000  0.0407
11159TIP3    H154892   6.363   5.345  11.581 -0.0127  0.0365  0.2776
11159TIP3    H254893   6.465   5.403  11.487 -0.8442  0.9139 -0.1026
11160TIP3   OH254894   6.643   2.121   1.995  0.2526  0.1044  0.1923
11160TIP3    H154895   6.671   2.083   2.078  0.8101 -0.1261 -0.0928
11160TIP3    H254896   6.724   2.129   1.944 -0.0711  0.3095 -0.2989
11161TIP3   OH254897   0.543   3.701   2.115 -0.4492  0.3759 -0.8201
11161TIP3    H154898   0.547   3.796   2.107  1.2469  0.2840 -1.3881
11161TIP3    H254899   0.630   3.675   2.144 -0.1988 -1.1581 -2.6883
11162TIP3   OH254900   1.144   5.679  11.881  0.2545  0.5110  0.1722
11162TIP3    H154901   1.090   5.755  11.902  0.5083  0.4506  1.1067
11162TIP3    H254902   1.233   5.705  11.906  0.2887 -0.2115  0.8548
11163TIP3   OH254903   4.431   6.227  10.750 -0.5471 -0.2504  0.1972
11163TIP3    H154904   4.413   6.193  10.662 -0.7590 -2.6450  1.1022
11163TIP3    H254905   4.407   6.319  10.745 -0.0589 -0.1750 -2.3940
11164TIP3   OH254906   2.201   6.054   4.831 -0.0400 -0.0023  0.3986
11164TIP3    H154907   2.137   6.085   4.767  0.3028 -1.8733 -0.9408
11164TIP3    H254908   2.218   6.130   4.887 -2.1370  1.0147 -0.2495
11165TIP3   OH254909   0.511   1.563   0.313 -0.1547 -0.2288  0.1464
11165TIP3    H154910   0.546   1.491   0.367  2.7696  1.9426  1.4383
11165TIP3    H254911   0.432   1.591   0.359  0.3498 -0.6955  1.3549
11166TIP3   OH254912   4.554   4.247  14.787  0.1455 -0.2954 -0.0203
11166TIP3    H154913   4.473   4.295  14.768 -0.9628 -1.8980  0.4004
11166TIP3    H254914   4.595   4.297  14.858 -0.2225  0.7948 -0.5548
11167TIP3   OH254915   2.499   1.147   3.968  0.0956  0.2446 -0.6321
11167TIP3    H154916   2.595   1.139   3.968  0.0991  0.2591 -0.3517
11167TIP3    H254917   2.478   1.193   3.887  0.4681  1.8375  0.1457
11168TIP3   OH254918   5.721   5.683  11.875  0.1663  0.5195 -0.2826
11168TIP3    H154919   5.773   5.615  11.834 -1.2601 -0.6253 -0.2746
11168TIP3    H254920   5.641   5.687  11.823 -0.8155  0.4394  1.1599
11169TIP3   OH254921   4.753   3.731   5.917  0.0773  0.2982 -0.2201
11169TIP3    H154922   4.818   3.712   5.984  0.8876  0.3941 -0.9649
11169TIP3    H254923   4.788   3.692   5.837 -0.7839  0.3463 -0.6396
11170TIP3   OH254924   3.285   4.200  15.138 -0.4063  0.1065 -0.1619
11170TIP3    H154925   3.327   4.272  15.184 -1.9010  0.5308  0.6129
11170TIP3    H254926   3.253   4.143  15.207 -0.4919 -0.5500 -0.7380
11171TIP3   OH254927   2.320   3.638  16.445 -0.5071 -0.9865 -0.4949
11171TIP3    H154928   2.361   3.561  16.486 -0.8392 -0.2732  1.2759
11171TIP3    H254929   2.367   3.713  16.483 -1.8027 -0.2333 -0.3312
11172TIP3   OH254930   4.911   2.198  14.200  0.5117  0.4569 -0.5053
11172TIP3    H154931   4.861   2.278  14.217 -0.4542 -0.3670  0.7755
11172TIP3    H254932   4.922   2.197  14.105 -1.0605  1.1996 -0.7450
11173TIP3   OH254933   0.633   4.183  13.648  0.0831 -0.4698 -0.5386
11173TIP3    H154934   0.713   4.230  13.671  0.1517 -0.0428 -1.5947
11173TIP3    H254935   0.612   4.131  13.726  0.9394  0.0249  0.0329
11174TIP3   OH254936   4.542   4.020  14.127 -0.2156 -0.1024 -0.6291
11174TIP3    H154937   4.595   4.046  14.202  0.3627 -0.0739 -1.0461
11174TIP3    H254938   4.453   4.012  14.163  0.0466 -0.0637  0.0522
11175TIP3   OH254939   5.157   3.014  13.142 -0.4301  0.5147 -0.1076
11175TIP3    H154940   5.091   3.005  13.072 -0.5371  0.6386 -0.0236
11175TIP3    H254941   5.116   2.974  13.219 -0.4899  0.7725 -0.0030
11176TIP3   OH254942   1.348   4.950  13.200  0.7488  0.1918  0.1271
11176TIP3    H154943   1.296   4.944  13.119 -0.1191 -0.8017  0.7322
11176TIP3    H254944   1.313   5.028  13.244 -1.1595 -1.1240  1.1013
11177TIP3   OH254945   0.323   3.662   2.468  0.6188  0.4694 -0.3896
11177TIP3    H154946   0.298   3.669   2.376 -1.3592 -0.2587  0.0434
11177TIP3    H254947   0.336   3.753   2.496  0.7265  0.7291 -1.2541
11178TIP3   OH254948   0.845   1.971  14.554  0.2194 -0.2618 -0.0191
11178TIP3    H154949   0.918   2.022  14.521  0.0447  0.7773  1.1650
11178TIP3    H254950   0.800   2.028  14.616  0.4206 -2.0571  1.9033
11179TIP3   OH254951   3.835   5.243  14.576 -0.1850  0.0136 -0.4539
11179TIP3    H154952   3.882   5.168  14.614  1.0413  0.5609 -0.8351
11179TIP3    H254953   3.761   5.203  14.529 -0.8915 -0.7739  1.2400
11180TIP3   OH254954   0.964   5.410   1.371 -0.2923  0.3559  0.3891
11180TIP3    H154955   1.048   5.454   1.355 -0.1681  0.1737  0.5313
11180TIP3    H254956   0.940   5.373   1.286  1.5955 -2.7724  1.0408
11181TIP3   OH254957   2.472   0.819  14.857  0.0861  0.2028 -0.3740
11181TIP3    H154958   2.521   0.763  14.918 -1.5760  0.7116  1.5207
11181TIP3    H254959   2.448   0.760  14.785 -1.5669 -1.5907  1.5230
11182TIP3   OH254960   2.131   0.999   3.212 -0.0804  0.3206 -0.2399
11182TIP3    H154961   2.130   1.068   3.145  1.0901 -1.2012 -1.9232
11182TIP3    H254962   2.060   0.940   3.187  0.6469 -0.4921 -0.4162
11183TIP3   OH254963   0.172   4.717  13.040 -0.7176  0.0160  0.1451
11183TIP3    H154964   0.243   4.750  12.984 -0.1664  0.8869  1.3048
11183TIP3    H254965   0.217   4.663  13.105 -1.2215 -0.1010  0.4008
11184TIP3   OH254966   3.864   6.084  17.484  0.1462  0.5657 -0.2104
11184TIP3    H154967   3.851   6.086  17.579 -1.5473  2.0389 -0.4293
11184TIP3    H254968   3.809   6.155  17.450  1.2689  0.5565 -2.2403
11185TIP3   OH254969   1.236   6.398  15.838  0.0274 -0.4941 -0.0053
11185TIP3    H154970   1.180   6.341  15.891  1.1944 -0.6238  1.1412
11185TIP3    H254971   1.247   6.477  15.892  1.1511 -0.5818 -0.0928
11186TIP3   OH254972   3.739   2.463   4.373 -0.2780 -0.2654 -0.4679
11186TIP3    H154973   3.797   2.463   4.297  1.2550 -0.6333  0.6680
11186TIP3    H254974   3.753   2.549   4.414 -0.1150 -0.5640  0.1143
11187TIP3   OH254975   6.407   3.309   1.513  0.1807  0.1435 -0.1327
11187TIP3    H154976   6.339   3.242   1.498  0.1365  0.1335  0.1183
11187TIP3    H254977   6.489   3.261   1.505  0.1555  0.1264 -0.2937
11188TIP3   OH254978   5.327   3.640  15.199 -0.0253 -0.3346  0.1063
11188TIP3    H154979   5.320   3.672  15.289 -2.3240 -0.0263 -0.1369
11188TIP3    H254980   5.312   3.718  15.145 -2.0227 -1.0978 -0.5027
11189TIP3   OH254981   2.647   2.470  14.290 -0.1386 -0.3886 -0.5648
11189TIP3    H154982   2.708   2.476  14.364 -0.3200  2.8380 -0.5570
11189TIP3    H254983   2.703   2.451  14.214  0.4829 -0.3922 -0.1152
11190TIP3   OH254984   2.562   1.712   0.284 -0.1801  0.1518  0.1084
11190TIP3    H154985   2.513   1.637   0.250 -0.3855 -0.1296  0.9850
11190TIP3    H254986   2.651   1.700   0.250 -0.4616  0.0804 -0.6075
11191TIP3   OH254987   1.214   0.244  13.328  0.1402  0.4668 -0.0197
11191TIP3    H154988   1.137   0.236  13.272  0.4009 -1.4586 -0.1619
11191TIP3    H254989   1.268   0.311  13.286 -0.7887  0.7902 -0.7096
11192TIP3   OH254990   4.771   2.962  14.416  0.0663 -0.0101  0.4759
11192TIP3    H154991   4.793   2.940  14.325  0.9477 -0.5598  0.8120
11192TIP3    H254992   4.684   3.002  14.410 -0.2590 -0.8134 -0.5143
11193TIP3   OH254993   1.783   4.554  15.324  0.1482 -0.3638 -1.0748
11193TIP3    H154994   1.750   4.595  15.404 -1.6035 -1.4310 -1.1930
11193TIP3    H254995   1.771   4.621  15.256 -0.0066 -0.0740 -0.7678
11194TIP3   OH254996   6.582   4.172   6.226  0.6822  0.0348  0.0221
11194TIP3    H154997   6.534   4.144   6.304 -1.5482 -0.1708 -1.3204
11194TIP3    H254998   6.593   4.091   6.175  0.5404  0.4349 -0.6540
11195TIP3   OH254999   6.225   6.721  10.870  0.2435  0.5739 -0.4807
11195TIP3    H155000   6.167   6.654  10.908  0.6644  0.8034  0.6223
11195TIP3    H255001   6.313   6.688  10.887  0.5627 -1.0569 -4.4268
11196TIP3   OH255002   6.458   6.325  10.681 -0.6421 -0.6296  0.1056
11196TIP3    H155003   6.439   6.233  10.697  1.2464 -1.2410 -0.8790
11196TIP3    H255004   6.554   6.329  10.676 -0.6276  1.5487  1.0317
11197TIP3   OH255005   0.177   2.850  15.245  0.3325  0.3112 -0.0566
11197TIP3    H155006   0.203   2.758  15.252 -1.5870 -0.4314 -1.4785
11197TIP3    H255007   0.239   2.887  15.182  0.0916 -0.4993 -0.8035
11198TIP3   OH255008   1.591   3.599   4.855  0.1799 -0.0333 -0.0870
11198TIP3    H155009   1.562   3.687   4.832  0.6791  0.3654  0.7621
11198TIP3    H255010   1.570   3.590   4.948 -0.3984 -1.0358 -0.3005
11199TIP3   OH255011   5.659   3.255  11.799 -0.3423 -0.4589  0.2191
11199TIP3    H155012   5.579   3.273  11.849 -0.0993  1.3487  0.0464
11199TIP3    H255013   5.724   3.312  11.839  0.0333  0.5512 -1.7111
11200TIP3   OH255014   3.313   5.887   1.952 -0.2187 -0.3201 -0.2020
11200TIP3    H155015   3.351   5.849   1.873 -3.7831 -2.0115 -1.3209
11200TIP3    H255016   3.276   5.813   1.999 -1.2916  1.0314  1.2135
11201TIP3   OH255017   6.194   0.831   6.463  0.4810 -0.0920 -0.2365
11201TIP3    H155018   6.229   0.838   6.551 -0.5570 -0.4844  0.2272
11201TIP3    H255019   6.185   0.737   6.448 -0.4342 -0.0053 -0.3033
11202TIP3   OH255020   3.757   1.258   5.762  0.0169  0.4756 -0.1174
11202TIP3    H155021   3.702   1.222   5.831  1.3308 -1.8093 -0.1735
11202TIP3    H255022   3.695   1.287   5.695 -1.1880 -0.2137  0.6662
11203TIP3   OH255023   1.637   1.888  15.239  0.0322 -0.5310 -0.0833
11203TIP3    H155024   1.635   1.845  15.324 -0.2029  1.3478  0.8968
11203TIP3    H255025   1.556   1.858  15.196  0.6313 -2.2581 -0.0930
11204TIP3   OH255026   0.075   1.666   6.202 -0.5669 -0.1561 -0.3655
11204TIP3    H155027   0.077   1.672   6.298 -1.1204  1.3614 -0.4215
11204TIP3    H255028   0.026   1.743   6.174  2.9886  1.7715 -2.0524
11205TIP3   OH255029   5.814   0.124  12.287  0.0987 -0.8764 -0.4881
11205TIP3    H155030   5.837   0.176  12.210  1.3444  0.2909  0.5924
11205TIP3    H255031   5.876   0.154  12.354 -1.7180 -0.9362  1.3188
11206TIP3   OH255032   3.145   1.308  13.551 -0.5650  0.5427 -0.0758
11206TIP3    H155033   3.222   1.337  13.503  0.1412 -1.0785  0.0215
11206TIP3    H255034   3.171   1.225  13.591 -2.7794 -0.7896 -1.2012
11207TIP3   OH255035   4.472   0.756  17.184 -0.0121  0.1328  0.0699
11207TIP3    H155036   4.422   0.816  17.239 -0.4065 -0.6048  0.5342
11207TIP3    H255037   4.434   0.670  17.202  1.1464 -0.3905  0.1211
11208TIP3   OH255038   2.951   2.821   0.354  0.3427  0.0122  0.4543
11208TIP3    H155039   2.870   2.783   0.318 -0.1251  0.4434  1.0288
11208TIP3    H255040   2.962   2.902   0.306 -0.3898  0.6865  1.3715
11209TIP3   OH255041   5.084   0.656   1.372 -0.2715 -0.6954 -0.1899
11209TIP3    H155042   5.164   0.612   1.342 -0.2992 -1.5312  0.8908
11209TIP3    H255043   5.051   0.701   1.295  1.8005  0.5304 -0.4337
11210TIP3   OH255044   0.929   6.653   3.098  0.0042 -0.5527 -0.1455
11210TIP3    H155045   0.981   6.595   3.042 -1.0001  0.2460 -1.9813
11210TIP3    H255046   0.842   6.652   3.059 -0.3793  1.1332  0.5903
11211TIP3   OH255047   1.554   0.278   2.830  0.7147  0.5496 -0.0235
11211TIP3    H155048   1.506   0.354   2.797  0.0517 -0.7896 -2.3724
11211TIP3    H255049   1.600   0.311   2.907 -0.1811  3.1164 -0.4733
11212TIP3   OH255050   1.980   0.539  17.355  0.3559  0.1405 -0.5561
11212TIP3    H155051   1.973   0.506  17.266 -1.5921 -1.1686  0.0332
11212TIP3    H255052   2.075   0.549  17.369  0.9582 -3.2437 -1.4960
11213TIP3   OH255053   1.829   3.626   3.920  0.1152  0.0978  0.2974
11213TIP3    H155054   1.735   3.628   3.901  0.7372 -0.2275 -3.6667
11213TIP3    H255055   1.854   3.717   3.930 -0.4350  0.2410  0.4262
11214TIP3   OH255056   2.896   2.189   5.752  0.9287  0.1995 -0.3273
11214TIP3    H155057   2.949   2.269   5.748  0.3318  0.6589  0.6693
11214TIP3    H255058   2.859   2.182   5.664  0.1035  1.6535 -0.1359
11215TIP3   OH255059   3.335   6.361   4.301 -0.5238 -0.1150 -0.3104
11215TIP3    H155060   3.245   6.374   4.332 -0.5820 -1.5889  0.1896
11215TIP3    H255061   3.330   6.380   4.207 -1.4443 -0.5728 -0.3675
11216TIP3   OH255062   4.424   3.252  15.886 -0.2120  0.1394 -0.7109
11216TIP3    H155063   4.471   3.282  15.808  0.8578 -1.6692 -0.8350
11216TIP3    H255064   4.466   3.299  15.958  0.1584  0.3288 -1.0427
11217TIP3   OH255065   6.369   6.572   1.542  0.1886  0.4449  0.2398
11217TIP3    H155066   6.335   6.542   1.458 -0.7481  0.7621  0.4911
11217TIP3    H255067   6.443   6.628   1.520  0.5756 -0.2711 -0.3252
11218TIP3   OH255068   0.083   1.656  15.630 -0.5338  0.5487  0.3435
11218TIP3    H155069   0.008   1.613  15.589  0.5160  0.0989 -1.1641
11218TIP3    H255070   0.158   1.629  15.578  0.4815  2.2767  0.8319
11219TIP3   OH255071   3.313   4.132   6.369 -0.0982  0.1347  0.0384
11219TIP3    H155072   3.272   4.204   6.417 -0.9049 -0.1713 -0.1708
11219TIP3    H255073   3.400   4.164   6.347 -0.6088  1.2284 -0.4552
11220TIP3   OH255074   0.980   2.773  16.605 -0.2371 -0.2687  0.6569
11220TIP3    H155075   1.017   2.690  16.632  2.0292 -0.0687 -1.4891
11220TIP3    H255076   1.044   2.839  16.632  0.5044  0.2277 -2.0623
11221TIP3   OH255077   2.587   0.686   5.670 -0.0989  0.0222 -0.2116
11221TIP3    H155078   2.510   0.738   5.649 -0.4560 -1.1634 -2.1332
11221TIP3    H255079   2.569   0.650   5.757 -2.2819 -1.1115 -1.0611
11222TIP3   OH255080   1.661   4.583   1.119 -0.4337  0.0555  0.5526
11222TIP3    H155081   1.699   4.642   1.054  1.2277 -0.3265  1.1382
11222TIP3    H255082   1.661   4.634   1.200  2.1465 -1.0871  1.3399
11223TIP3   OH255083   4.669   1.203   3.326  0.2889  0.1757 -0.1825
11223TIP3    H155084   4.600   1.268   3.310  0.0570  0.0034  0.1093
11223TIP3    H255085   4.707   1.228   3.410  0.3742  0.0832 -0.1922
11224TIP3   OH255086   2.323   3.179  16.298 -0.3974 -0.0538  0.6706
11224TIP3    H155087   2.334   3.089  16.268 -0.2148  0.4190 -0.7298
11224TIP3    H255088   2.233   3.202  16.273 -0.7352 -0.1175  1.7856
11225TIP3   OH255089   5.055   6.370  16.055 -0.3337 -0.1462  0.6075
11225TIP3    H155090   5.115   6.383  15.981 -1.2016  3.4078  0.3308
11225TIP3    H255091   5.034   6.277  16.053  2.5573 -0.8926 -1.2920
11226TIP3   OH255092   0.393   3.057  15.684 -0.0491  1.3818  0.4801
11226TIP3    H155093   0.384   3.002  15.606  1.9848  0.7931  0.6270
11226TIP3    H255094   0.302   3.077  15.709 -0.8766 -1.6386  0.2469
11227TIP3   OH255095   6.628   2.085  17.079  0.3034  0.3931 -0.0409
11227TIP3    H155096   6.607   2.032  17.003 -0.0837  0.0026  0.3310
11227TIP3    H255097   6.554   2.072  17.138  0.9908  0.0374  0.7536
11228TIP3   OH255098   1.838   5.593  11.090 -0.2194  0.5182  0.2329
11228TIP3    H155099   1.904   5.556  11.031 -0.6207  1.1552 -0.6356
11228TIP3    H255100   1.870   5.681  11.110 -1.0116  1.0152 -0.5831
11229TIP3   OH255101   2.466   3.773  13.149 -0.6891 -0.4864 -0.6550
11229TIP3    H155102   2.423   3.767  13.064  0.2605  0.0725 -1.1915
11229TIP3    H255103   2.444   3.860  13.181 -1.2112 -0.7698 -0.2243
11230TIP3   OH255104   1.742   2.068   1.407 -0.0454  0.0801  0.1336
11230TIP3    H155105   1.672   2.024   1.360 -0.0416  1.3807 -1.1801
11230TIP3    H255106   1.737   2.159   1.377  1.7938  0.3326  0.4788
11231TIP3   OH255107   2.135   3.982  16.631  0.1427 -0.3730 -0.0521
11231TIP3    H155108   2.196   3.949  16.697 -1.0253 -1.5587  0.4855
11231TIP3    H255109   2.053   3.993  16.679 -0.7300 -1.2345 -1.3012
11232TIP3   OH255110   0.911   1.935   0.340  0.5425 -0.2749  0.5131
11232TIP3    H155111   0.932   1.988   0.416  0.2377 -0.3436  0.6495
11232TIP3    H255112   0.876   1.853   0.376  0.3566 -0.2914  0.3024
11233TIP3   OH255113   3.487   1.652  13.998 -0.2320  0.1174 -0.1299
11233TIP3    H155114   3.441   1.731  13.969  1.3650  0.8456 -0.7669
11233TIP3    H255115   3.465   1.586  13.931  0.8624  0.8926 -1.2831
11234TIP3   OH255116   5.866   5.434  14.419 -0.1950 -0.1322 -0.5775
11234TIP3    H155117   5.784   5.454  14.375 -1.0907 -1.2628  0.4949
11234TIP3    H255118   5.865   5.338  14.429  0.4193 -0.0085  0.9894
11235TIP3   OH255119   2.112   2.576   6.076 -0.4478  0.3487  0.7431
11235TIP3    H155120   2.106   2.667   6.046 -0.2119  0.2048  0.2467
11235TIP3    H255121   2.169   2.533   6.012 -0.2001 -0.0477  1.2196
11236TIP3   OH255122   0.467   2.847  16.352  0.2217 -0.0451 -0.0958
11236TIP3    H155123   0.417   2.909  16.405 -0.5845 -0.4946 -0.3128
11236TIP3    H255124   0.422   2.763  16.364  0.3138 -0.2542 -1.1012
11237TIP3   OH255125   4.439   4.006  16.305 -0.1686 -0.3490 -0.5178
11237TIP3    H155126   4.344   4.009  16.308 -0.1239  0.4095  0.7146
11237TIP3    H255127   4.466   3.998  16.397  0.9810  1.0978 -0.6972
11238TIP3   OH255128   0.120   6.431  16.950  0.4400  0.3530  0.5537
11238TIP3    H155129   0.185   6.392  16.892  1.7209  1.6815  1.0415
11238TIP3    H255130   0.161   6.428  17.037 -0.2355  1.0145  0.9048
11239TIP3   OH255131   1.641   3.327  11.761  0.0783 -0.0450 -0.3479
11239TIP3    H155132   1.563   3.275  11.743  1.4415 -2.2315 -0.2470
11239TIP3    H255133   1.640   3.396  11.695 -0.7209 -1.4168 -1.8123
11240TIP3   OH255134   0.316   1.075   6.020 -0.1544  0.4240 -0.0037
11240TIP3    H155135   0.409   1.090   6.035 -0.2994  0.8355  0.5147
11240TIP3    H255136   0.285   1.035   6.102 -0.7323  1.6481  0.3897
11241TIP3   OH255137   0.516   2.513   0.720 -0.1303  0.6119 -0.1466
11241TIP3    H155138   0.549   2.426   0.699 -0.7494  0.6252 -1.2616
11241TIP3    H255139   0.529   2.564   0.639 -0.2712  1.3927  0.3142
11242TIP3   OH255140   3.465   2.414  14.866 -0.1331 -0.1055 -0.4900
11242TIP3    H155141   3.529   2.484  14.849  0.9228 -0.8744  0.1701
11242TIP3    H255142   3.384   2.446  14.828  0.6617  0.8782 -1.4223
11243TIP3   OH255143   3.411   2.929  12.462 -0.6239  0.0490 -0.7546
11243TIP3    H155144   3.329   2.891  12.495 -0.4441  0.7009  0.5128
11243TIP3    H255145   3.385   2.977  12.383 -1.6276  0.8913  0.0537
11244TIP3   OH255146   5.844   6.148   2.555 -0.0440 -0.0951  0.2521
11244TIP3    H155147   5.851   6.081   2.623  2.0667 -0.2428 -0.0327
11244TIP3    H255148   5.774   6.205   2.585 -0.3425 -1.1342  1.6622
11245TIP3   OH255149   2.730   5.345   5.507 -0.1366 -0.0826 -0.6268
11245TIP3    H155150   2.762   5.432   5.486 -2.2456  0.4629 -1.9442
11245TIP3    H255151   2.681   5.318   5.429 -0.7564 -1.8266  0.3052
11246TIP3   OH255152   4.526   6.552   4.850  0.2787 -0.5053 -0.4620
11246TIP3    H155153   4.610   6.566   4.807 -0.8991  2.9515 -2.0132
11246TIP3    H255154   4.469   6.517   4.781 -0.0526 -1.1366  0.1107
11247TIP3   OH255155   0.847   3.522  17.406 -0.5292  0.3792  0.6259
11247TIP3    H155156   0.913   3.538  17.472  0.7406  1.6088 -0.8593
11247TIP3    H255157   0.832   3.427  17.409  2.0396 -0.1048  0.3617
11248TIP3   OH255158   0.031   4.631   5.684 -0.6255 -0.0112  0.4523
11248TIP3    H155159   0.008   4.637   5.591  0.8788  0.7851  0.1072
11248TIP3    H255160   0.080   4.711   5.702  1.0949 -1.2136  1.3520
11249TIP3   OH255161   0.092   6.029  11.414  0.3365 -0.0689  0.0079
11249TIP3    H155162   0.136   6.103  11.372  0.0064  1.1541  1.7498
11249TIP3    H255163   0.001   6.034  11.383  0.3280  0.2023  0.0805
11250TIP3   OH255164   5.694   3.562  12.680  0.1595 -0.4288 -0.1289
11250TIP3    H155165   5.713   3.649  12.644 -0.1881  0.4634  1.7393
11250TIP3    H255166   5.627   3.526  12.622  0.1742  0.6097 -0.8163
11251TIP3   OH255167   6.368   1.522   2.732 -0.7804 -0.3669  0.0470
11251TIP3    H155168   6.325   1.478   2.658 -0.4619 -0.0975 -0.2968
11251TIP3    H255169   6.420   1.592   2.693 -1.6500  0.6345  0.6212
11252TIP3   OH255170   1.255   5.476   2.262 -0.1322  0.3927 -0.3574
11252TIP3    H155171   1.199   5.502   2.190 -0.4742  1.5459  0.3053
11252TIP3    H255172   1.247   5.547   2.326  0.7850 -0.2177  0.4650
11253TIP3   OH255173   4.453   2.601  16.400  0.3252  0.2116  0.5583
11253TIP3    H155174   4.518   2.594  16.470 -0.1344 -0.2024  0.9493
11253TIP3    H255175   4.504   2.588  16.320  0.9397  1.2119  0.7753
11254TIP3   OH255176   0.799   1.709  15.568  0.2901  0.4598 -0.0587
11254TIP3    H155177   0.732   1.765  15.606 -0.6346  0.2196 -1.2607
11254TIP3    H255178   0.829   1.756  15.490  1.7721  0.7137  0.6435
11255TIP3   OH255179   3.171   5.387   5.982  0.8444  0.0313 -0.3386
11255TIP3    H155180   3.193   5.320   6.047 -0.2219  0.1054  0.1264
11255TIP3    H255181   3.078   5.405   5.998 -0.0179 -1.3724 -3.1339
11256TIP3   OH255182   2.657   0.218  10.795  0.6337  0.2959 -0.0744
11256TIP3    H155183   2.606   0.152  10.748  0.0478 -0.4442  1.5422
11256TIP3    H255184   2.597   0.292  10.806  1.4739  1.4369 -2.4234
11257TIP3   OH255185   4.749   3.094   5.012  0.0569 -0.0358 -0.0425
11257TIP3    H155186   4.697   3.096   4.931 -0.6496  1.2399  0.4102
11257TIP3    H255187   4.688   3.062   5.078  0.4252 -0.4027  0.1177
11258TIP3   OH255188   5.267   0.032   2.261 -0.4199 -0.0352 -0.2746
11258TIP3    H155189   5.196  -0.004   2.314  0.9814  0.0380  1.7230
11258TIP3    H255190   5.313   0.092   2.319  1.7911 -0.7177 -1.2366
11259TIP3   OH255191   4.886   0.765  15.443 -0.1102  1.0615 -0.4166
11259TIP3    H155192   4.887   0.691  15.383  0.6894  0.2674  0.5331
11259TIP3    H255193   4.881   0.842  15.387 -0.9399  0.2964 -1.4209
11260TIP3   OH255194   6.422   4.910   2.041 -0.0046  0.1496  0.4712
11260TIP3    H155195   6.444   4.937   1.952 -3.0713 -2.4566 -1.2746
11260TIP3    H255196   6.459   4.822   2.049 -0.6769 -0.0615  1.3751
11261TIP3   OH255197   0.325   6.486   5.861 -0.2827  0.2204  0.0831
11261TIP3    H155198   0.307   6.509   5.952 -0.6332  0.5719 -0.0717
11261TIP3    H255199   0.255   6.424   5.838 -0.9411  1.1004 -0.3267
11262TIP3   OH255200   0.586   3.973   2.116  0.5473 -0.5629  0.4824
11262TIP3    H155201   0.582   4.049   2.174  1.7016 -1.3772  1.6964
11262TIP3    H255202   0.667   3.984   2.067 -1.1382  0.8960 -2.2063
11263TIP3   OH255203   6.364   6.628   1.906  0.7218  0.5448 -0.1295
11263TIP3    H155204   6.291   6.626   1.845  2.1239  0.3058 -1.9068
11263TIP3    H255205   6.355   6.711   1.952  0.1193  1.2002 -1.3620
11264TIP3   OH255206   1.883   1.727   6.668 -0.2480 -0.3151  0.3871
11264TIP3    H155207   1.912   1.655   6.724  0.7312  0.0256  0.3358
11264TIP3    H255208   1.896   1.695   6.579  0.3372 -0.0338  0.3636
11265TIP3   OH255209   0.887   1.910   4.929  0.7064  0.0975  0.1041
11265TIP3    H155210   0.892   1.966   4.851 -0.5838 -0.2846 -0.2757
11265TIP3    H255211   0.823   1.843   4.906  0.8273 -0.4266  1.2506
11266TIP3   OH255212   4.213   3.632  16.591  0.6688  0.5206 -0.3014
11266TIP3    H155213   4.306   3.617  16.604  0.9848  1.7139 -1.0347
11266TIP3    H255214   4.202   3.727  16.600  0.0509  0.8076 -3.1408
11267TIP3   OH255215   5.327   6.183   3.484  0.1493 -0.0838 -0.5386
11267TIP3    H155216   5.249   6.232   3.461  0.2711  0.3343 -0.0680
11267TIP3    H255217   5.314   6.097   3.445 -0.4728  0.0352 -0.5947
11268TIP3   OH255218   4.383   3.624  13.773  0.0894 -0.2967 -0.0240
11268TIP3    H155219   4.432   3.583  13.844  0.1678 -0.3209 -0.0911
11268TIP3    H255220   4.342   3.551  13.727  1.2232 -0.4199 -0.8900
11269TIP3   OH255221   1.701   2.649  17.034  0.3104 -0.4994  0.1658
11269TIP3    H155222   1.646   2.593  16.979 -0.7667  0.4269  0.2323
11269TIP3    H255223   1.787   2.609  17.033  0.2074 -0.7353 -1.8712
11270TIP3   OH255224   2.331   4.448   4.690  0.1055  0.2197  0.6925
11270TIP3    H155225   2.417   4.452   4.649 -0.0882 -0.6604  0.1747
11270TIP3    H255226   2.340   4.382   4.759 -0.3506 -0.4929  0.0989
11271TIP3   OH255227   2.164   5.043  14.654 -0.0626 -0.3079 -0.3707
11271TIP3    H155228   2.094   5.060  14.591 -0.0979 -0.7427 -0.4474
11271TIP3    H255229   2.121   5.041  14.739  0.2320  2.1897 -0.0817
11272TIP3   OH255230   1.034   3.899  12.933 -0.3230 -0.1153  0.1674
11272TIP3    H155231   1.095   3.889  13.006 -1.6738 -0.4439  1.2923
11272TIP3    H255232   1.045   3.990  12.906  0.5057 -0.1081  0.4773
11273TIP3   OH255233   5.949   0.537  14.021  0.2664  0.4247  0.0605
11273TIP3    H155234   5.867   0.582  14.045  0.6783  0.5859  1.2190
11273TIP3    H255235   6.018   0.600  14.042  0.7569 -0.1387  0.1587
11274TIP3   OH255236   5.836   6.538  15.598  0.2973 -0.1693  0.2000
11274TIP3    H155237   5.878   6.598  15.537  0.4453  0.7222  1.1392
11274TIP3    H255238   5.909   6.491  15.640  0.2652  0.0225  0.4770
11275TIP3   OH255239   4.814   6.304   2.053 -0.3479  0.1486  0.2438
11275TIP3    H155240   4.886   6.361   2.027  0.3889  0.2515  2.3200
11275TIP3    H255241   4.857   6.231   2.098 -1.5313  1.0260  3.0170
11276TIP3   OH255242   4.705   3.661   6.389  0.6707 -0.7041 -0.1362
11276TIP3    H155243   4.656   3.580   6.373  0.3588 -0.8944  1.5929
11276TIP3    H255244   4.678   3.719   6.318 -0.5835 -1.4606 -0.3266
11277TIP3   OH255245   0.152   1.387   5.920 -0.4791 -0.1082  0.2246
11277TIP3    H155246   0.132   1.479   5.901  0.1757 -0.0451 -0.2057
11277TIP3    H255247   0.085   1.360   5.982  0.4473  1.2322  1.9338
11278TIP3   OH255248   3.655   6.425  16.641 -0.1861 -0.0881  0.4540
11278TIP3    H155249   3.708   6.367  16.586  0.2586  2.5544 -2.1288
11278TIP3    H255250   3.580   6.371  16.668  1.6715 -2.7035  0.8289
11279TIP3   OH255251   5.522   0.389   0.066 -0.1752  0.4766 -0.2115
11279TIP3    H155252   5.477   0.421  -0.013 -0.9699  0.1645  0.1038
11279TIP3    H255253   5.452   0.354   0.121  0.5703 -1.0282 -0.1714
11280TIP3   OH255254   4.607   1.825  14.547  0.3410  0.1815 -0.3303
11280TIP3    H155255   4.670   1.761  14.579  0.9710 -0.0300 -1.9202
11280TIP3    H255256   4.649   1.910  14.564  1.9710  0.0135 -3.0132
11281TIP3   OH255257   5.287   0.363  16.317 -0.0174  0.1810 -0.0959
11281TIP3    H155258   5.303   0.274  16.284  0.4719 -0.1171  0.9242
11281TIP3    H255259   5.372   0.393  16.348 -0.1045  1.1581 -0.7661
11282TIP3   OH255260   2.375   3.233  11.715  0.6160 -0.1620 -0.9040
11282TIP3    H155261   2.308   3.266  11.655 -0.4432 -0.1359  0.2574
11282TIP3    H255262   2.392   3.306  11.775 -0.0683 -0.9210  0.2613
11283TIP3   OH255263   1.626   2.779   3.814 -0.0720  0.7022 -0.4141
11283TIP3    H155264   1.603   2.748   3.727 -1.9864 -0.1936  0.3552
11283TIP3    H255265   1.620   2.874   3.808 -0.4051  0.6379 -1.1964
11284TIP3   OH255266   6.363   1.722  16.926 -0.0596  0.0221  0.2041
11284TIP3    H155267   6.345   1.664  16.852 -1.6701  0.9544 -0.1849
11284TIP3    H255268   6.292   1.703  16.988 -0.3030  1.1910  0.2983
11285TIP3   OH255269   5.579   2.258  13.152  0.7739  0.2493 -0.8216
11285TIP3    H155270   5.612   2.251  13.062  1.6553  2.2776 -0.7103
11285TIP3    H255271   5.642   2.314  13.196 -0.4620  0.5304  0.6596
11286TIP3   OH255272   6.547   1.685  12.332  0.1020 -0.3270  0.0800
11286TIP3    H155273   6.480   1.626  12.298 -0.4687  0.2723  0.1329
11286TIP3    H255274   6.547   1.759  12.271  1.9204 -1.0732 -0.8863
11287TIP3   OH255275   3.893   4.250   5.079 -0.2838 -0.6448  0.0963
11287TIP3    H155276   3.818   4.226   5.025 -0.1016  0.0274 -0.4749
11287TIP3    H255277   3.961   4.276   5.016 -0.7864  2.2963  0.6184
11288TIP3   OH255278   2.614   2.417   1.264  0.4074 -0.6241  0.1486
11288TIP3    H155279   2.557   2.349   1.228  0.7455 -0.5810 -0.4898
11288TIP3    H255280   2.699   2.373   1.276  0.6100 -0.3370 -0.2030
11289TIP3   OH255281   0.367   0.351  14.327  0.3929  0.2640  0.6695
11289TIP3    H155282   0.292   0.309  14.285  1.9323 -1.9293 -0.0900
11289TIP3    H255283   0.428   0.279  14.345  2.7205  2.0160  0.3801
11290TIP3   OH255284   2.143   4.778  15.840  0.3466 -0.1639 -0.2912
11290TIP3    H155285   2.169   4.864  15.807  1.3814 -0.4702 -0.3047
11290TIP3    H255286   2.047   4.777  15.830  0.3682  0.7869 -0.7560
11291TIP3   OH255287   2.699   6.254  16.660 -0.0462  0.4923 -0.5403
11291TIP3    H155288   2.631   6.293  16.605 -1.8719  0.9272  1.8507
11291TIP3    H255289   2.666   6.167  16.681  0.6773  0.2793 -0.2549
11292TIP3   OH255290   2.771   3.840  13.195  0.3987  0.3004  0.2903
11292TIP3    H155291   2.785   3.893  13.115 -0.4445 -1.9299 -1.4374
11292TIP3    H255292   2.680   3.813  13.190  0.5098 -0.4233  1.7196
11293TIP3   OH255293   2.824   0.375   2.309 -0.4964  0.3325  0.2778
11293TIP3    H155294   2.830   0.371   2.214 -0.1992  0.8736  0.2724
11293TIP3    H255295   2.862   0.292   2.339  0.9954  0.8872 -0.0136
11294TIP3   OH255296   3.624   0.625   3.292  0.2930  0.2050 -0.1684
11294TIP3    H155297   3.537   0.593   3.316 -0.0202  1.6168  0.6575
11294TIP3    H255298   3.669   0.547   3.258 -0.5220 -1.0425  1.4632
11295TIP3   OH255299   6.656   2.676  16.483 -0.1839  0.0897  0.2261
11295TIP3    H155300   6.613   2.715  16.559  1.6828 -0.9425  1.9207
11295TIP3    H255301   6.609   2.594  16.469 -0.0044 -0.1174  0.8184
11296TIP3   OH255302   2.638   3.827  12.840  0.6141 -0.1389 -0.2969
11296TIP3    H155303   2.705   3.759  12.840  0.2428 -0.5116 -0.4929
11296TIP3    H255304   2.559   3.783  12.873  0.3560  0.1744 -0.4875
11297TIP3   OH255305   2.320   6.337   4.615  0.7937  0.3212 -0.4307
11297TIP3    H155306   2.339   6.359   4.524  1.5045 -1.3459 -0.7310
11297TIP3    H255307   2.264   6.259   4.610  1.2649 -0.1102  0.5399
11298TIP3   OH255308   6.200   3.558  17.229 -0.3337  0.1471  0.0849
11298TIP3    H155309   6.150   3.605  17.162  1.8422  1.2519 -0.8511
11298TIP3    H255310   6.240   3.627  17.282 -0.2716 -0.7204  1.1990
11299TIP3   OH255311   5.460   6.243   1.562  0.1531 -0.2576 -0.6098
11299TIP3    H155312   5.390   6.222   1.500 -0.1238 -1.3332  0.0338
11299TIP3    H255313   5.422   6.227   1.648  0.4670  1.4295 -0.1354
11300TIP3   OH255314   6.538   5.180   0.975  0.2303 -0.2966 -0.2654
11300TIP3    H155315   6.496   5.236   0.909 -1.9892  0.7613  1.8734
11300TIP3    H255316   6.582   5.241   1.034  2.0811 -1.2197 -0.6054
11301TIP3   OH255317   0.887   1.397   1.546 -0.1491  0.1253 -0.3081
11301TIP3    H155318   0.842   1.329   1.497 -0.9465 -0.3556  1.0231
11301TIP3    H255319   0.826   1.471   1.547  1.1453  1.3207 -2.6642
11302TIP3   OH255320   3.165   5.699   1.057  0.2753  0.4847  0.2364
11302TIP3    H155321   3.172   5.624   1.117 -0.6258 -0.6282 -0.9730
11302TIP3    H255322   3.248   5.699   1.010 -0.3488 -0.9189 -0.9802
11303TIP3   OH255323   6.658   0.366  12.519 -0.3371  0.3412 -0.0716
11303TIP3    H155324   6.622   0.412  12.443 -0.5478 -1.2128 -0.9529
11303TIP3    H255325   6.582   0.339  12.570 -0.2001  1.2732  0.6602
11304TIP3   OH255326   5.278   3.503   5.911 -0.4070  0.7742 -0.7864
11304TIP3    H155327   5.266   3.408   5.920  2.1896  0.3972 -0.3554
11304TIP3    H255328   5.192   3.540   5.928 -1.1022 -1.4170  0.9996
11305TIP3   OH255329   2.765   3.265  16.153  0.2640 -0.0252 -0.1333
11305TIP3    H155330   2.709   3.211  16.098  0.2116 -2.0876  1.8170
11305TIP3    H255331   2.735   3.355  16.136 -1.6396 -0.8128 -1.3157
11306TIP3   OH255332   0.696   0.376  13.258 -0.0587  0.1868  0.0863
11306TIP3    H155333   0.720   0.437  13.187 -0.1141  0.3737  0.2263
11306TIP3    H255334   0.643   0.309  13.215 -0.3010  0.4357 -0.0073
11307TIP3   OH255335   1.934   1.090   1.209 -0.1794 -0.0003  0.6268
11307TIP3    H155336   1.848   1.126   1.185  0.3085 -0.1982 -1.5726
11307TIP3    H255337   1.939   1.007   1.162  0.9717 -0.3007  1.2463
11308TIP3   OH255338   1.787   5.663   1.614  0.0091 -0.2935 -0.5303
11308TIP3    H155339   1.784   5.567   1.624  1.6580 -0.5108 -1.7007
11308TIP3    H255340   1.839   5.677   1.535 -0.7929  1.5751 -0.7591
11309TIP3   OH255341   2.064   4.083  11.358 -0.1563 -0.3513 -0.1259
11309TIP3    H155342   2.046   4.005  11.410  1.2065 -1.0949 -0.7049
11309TIP3    H255343   2.094   4.050  11.274  2.7906  0.6678  0.3832
11310TIP3   OH255344   4.902   5.896  10.912 -0.9036 -0.7089 -0.4310
11310TIP3    H155345   4.810   5.915  10.892 -0.4993 -0.7987 -2.5431
11310TIP3    H255346   4.922   5.818  10.861  0.7148  0.0622 -1.0425
11311TIP3   OH255347   5.361   4.637   0.314  0.2358 -0.1552 -0.5871
11311TIP3    H155348   5.311   4.711   0.280 -0.3081 -0.5229 -0.5987
11311TIP3    H255349   5.402   4.599   0.237 -1.6256 -1.4646 -1.0035
11312TIP3   OH255350   6.553   1.515  12.684 -0.5337  0.5289  0.3300
11312TIP3    H155351   6.545   1.463  12.604  1.2572 -0.2455  0.5913
11312TIP3    H255352   6.530   1.454  12.755  0.0813  0.5293  0.5363
11313TIP3   OH255353   1.065   2.690   5.274  0.2282  0.4342  0.2673
11313TIP3    H155354   1.126   2.676   5.202 -0.2472 -1.2666  0.1401
11313TIP3    H255355   0.981   2.705   5.231  0.3125  1.5521  0.4608
11314TIP3   OH255356   4.141   2.467   2.585  0.2336 -0.3443  0.1644
11314TIP3    H155357   4.099   2.473   2.670  2.6759  0.2796  1.4164
11314TIP3    H255358   4.215   2.529   2.590  2.3165 -2.5367 -1.2283
11315TIP3   OH255359   5.483   4.674   0.554 -0.0346 -0.5077 -0.1790
11315TIP3    H155360   5.412   4.666   0.491  0.0188  0.8537 -0.4273
11315TIP3    H255361   5.557   4.630   0.511 -0.5089 -1.2928 -0.2222
11316TIP3   OH255362   0.393   5.696  17.025 -0.5191  0.1507 -0.0343
11316TIP3    H155363   0.427   5.707  16.936  2.3163  1.7962  1.1070
11316TIP3    H255364   0.378   5.602  17.034 -0.2456 -0.1149 -2.0388
11317TIP3   OH255365   4.247   3.098   5.516 -0.7228 -0.3205 -0.2934
11317TIP3    H155366   4.220   3.094   5.608 -1.6531  1.2278 -0.4654
11317TIP3    H255367   4.314   3.030   5.508  0.4681  0.4795  1.9020
11318TIP3   OH255368   0.380   0.760   3.496 -0.2553 -0.1288  0.3533
11318TIP3    H155369   0.367   0.681   3.548  1.3563 -1.2673 -0.8907
11318TIP3    H255370   0.321   0.749   3.421  1.2425 -1.0822 -0.7496
11319TIP3   OH255371   5.979   1.375  12.650  0.5315  0.3760 -0.5654
11319TIP3    H155372   6.075   1.376  12.644  0.5226  2.6529 -1.8747
11319TIP3    H255373   5.957   1.286  12.675  3.1019  0.4184  2.5301
11320TIP3   OH255374   1.916   1.049  15.024  0.3060  0.3802 -0.2073
11320TIP3    H155375   1.974   1.012  14.958 -1.5316 -1.1332 -1.0923
11320TIP3    H255376   1.877   0.973  15.067 -0.2722  1.3456  1.0418
11321TIP3   OH255377   3.793   6.275   5.192  0.4375 -0.2848 -0.0093
11321TIP3    H155378   3.796   6.307   5.102  0.9259 -3.1294 -1.1272
11321TIP3    H255379   3.882   6.245   5.210 -0.3881 -3.1212 -0.0591
11322TIP3   OH255380   2.934   1.809   5.521 -0.1031 -0.5100 -0.2098
11322TIP3    H155381   2.970   1.839   5.605 -2.5019 -2.7034  1.7571
11322TIP3    H255382   2.854   1.861   5.510 -0.6465 -1.3570 -0.2909
11323TIP3   OH255383   1.860   0.509   1.715 -0.0699 -0.5530 -0.2815
11323TIP3    H155384   1.801   0.545   1.650  0.7358  0.5280 -0.4513
11323TIP3    H255385   1.943   0.498   1.669 -0.1720 -2.2534 -0.1094
11324TIP3   OH255386   6.291   2.607   3.610 -0.2080  0.3089 -0.3936
11324TIP3    H155387   6.337   2.656   3.542  0.4248 -1.0422 -0.9930
11324TIP3    H255388   6.321   2.645   3.692  1.0909  0.2354 -0.8129
11325TIP3   OH255389   5.859   4.644   5.921  0.6728 -0.1261 -0.3077
11325TIP3    H155390   5.818   4.622   6.005  0.8120  0.1045 -0.1785
11325TIP3    H255391   5.828   4.732   5.901  0.7980 -0.1016 -0.3999
11326TIP3   OH255392   5.650   2.983  16.299 -0.3780 -0.7059 -0.0472
11326TIP3    H155393   5.661   3.034  16.219  0.2003 -0.4856  0.1713
11326TIP3    H255394   5.724   2.922  16.299 -0.6998 -1.1077  0.0291
11327TIP3   OH255395   5.922   3.291   2.089 -0.1598  0.6618 -0.2742
11327TIP3    H155396   5.868   3.226   2.044  1.7905 -0.9881 -0.3893
11327TIP3    H255397   5.943   3.250   2.173 -0.3449  1.9416  0.4285
11328TIP3   OH255398   3.705   2.441  16.155  0.4109 -0.1651  0.0842
11328TIP3    H155399   3.773   2.500  16.122  0.7663 -0.3333  0.5050
11328TIP3    H255400   3.722   2.358  16.110 -0.3063  0.1324 -0.7800
11329TIP3   OH255401   0.397   5.114   4.463 -0.5020 -0.0892  0.0048
11329TIP3    H155402   0.406   5.026   4.501  1.2784  0.1887  0.3341
11329TIP3    H255403   0.306   5.137   4.477 -0.9083 -1.7344  0.2628
11330TIP3   OH255404   3.928   0.592   4.639 -0.2472  0.2397 -0.5273
11330TIP3    H155405   3.983   0.559   4.711 -1.5932 -1.5543 -0.2432
11330TIP3    H255406   3.958   0.681   4.626  1.1830  0.0786  1.1448
11331TIP3   OH255407   4.595   1.431   1.022  0.6209 -0.1646 -0.0654
11331TIP3    H155408   4.641   1.431   1.106  2.1632  2.8609 -0.7838
11331TIP3    H255409   4.653   1.479   0.962 -1.9375  0.7783 -1.9700
11332TIP3   OH255410   6.697   2.252   4.294 -0.0071  0.3921 -0.6169
11332TIP3    H155411   6.656   2.332   4.326 -0.9043  0.1660 -1.1642
11332TIP3    H255412   6.791   2.264   4.311 -0.4543 -0.0019  2.6530
11333TIP3   OH255413   2.290   0.800  13.890 -0.3862  0.1610 -0.1287
11333TIP3    H155414   2.253   0.751  13.963 -0.6665  0.7169  0.1120
11333TIP3    H255415   2.376   0.761  13.875 -1.3326 -1.6783 -1.2006
11334TIP3   OH255416   2.301   4.035  12.826  0.2723  0.1325  0.2753
11334TIP3    H155417   2.207   4.051  12.817 -0.6989 -3.7466  1.5853
11334TIP3    H255418   2.332   4.024  12.737 -1.2695 -1.6948 -0.0920
11335TIP3   OH255419   5.330   1.510   1.634 -0.0833  0.0688 -0.2428
11335TIP3    H155420   5.266   1.579   1.613  0.2561  0.2341 -0.7669
11335TIP3    H255421   5.334   1.509   1.729 -0.3011  0.5891 -0.2235
11336TIP3   OH255422   5.109   0.449   4.749 -0.4998  0.0325 -0.5397
11336TIP3    H155423   5.159   0.402   4.816  0.8813  1.2445 -0.6516
11336TIP3    H255424   5.024   0.464   4.789 -0.1822 -0.5192  0.3819
11337TIP3   OH255425   6.108   0.056   1.021 -0.3098 -0.1195  0.4527
11337TIP3    H155426   6.055  -0.009   1.066  0.4707  0.1999  1.9062
11337TIP3    H255427   6.183   0.071   1.079  0.3658  0.8749 -0.6080
11338TIP3   OH255428   1.243   3.552  11.756 -0.7707 -0.1581  0.4452
11338TIP3    H155429   1.190   3.597  11.690 -0.3955  0.3464  0.4833
11338TIP3    H255430   1.206   3.580  11.839 -1.2121 -0.7561  0.4646
11339TIP3   OH255431   1.668   1.687  12.409 -0.1497  0.2025 -0.0607
11339TIP3    H155432   1.712   1.716  12.329  2.1759 -0.3870  0.9380
11339TIP3    H255433   1.635   1.769  12.448 -1.8286  0.4455 -1.8232
11340TIP3   OH255434   2.390   0.840   1.597  0.1780  0.6761 -0.2528
11340TIP3    H155435   2.427   0.753   1.582  0.4816  1.0693 -1.9816
11340TIP3    H255436   2.460   0.900   1.571 -0.3838  1.4451 -0.0183
11341TIP3   OH255437   1.264   2.491   0.108 -0.1363 -0.0970  0.0324
11341TIP3    H155438   1.358   2.507   0.096  0.1315 -0.2112  1.7999
11341TIP3    H255439   1.255   2.396   0.100 -0.4769  0.0756 -2.3065
11342TIP3   OH255440   4.303   2.474   4.748  0.6216 -0.0079 -0.3814
11342TIP3    H155441   4.390   2.466   4.787  0.9259  0.8810 -0.8533
11342TIP3    H255442   4.246   2.500   4.821  0.9458  0.4212 -0.2809
11343TIP3   OH255443   4.792   0.013   3.971  0.2336  1.1041  0.4080
11343TIP3    H155444   4.828  -0.018   3.888  0.2481  1.0696  0.4272
11343TIP3    H255445   4.830   0.100   3.983  0.7730  0.8233  0.7232
11344TIP3   OH255446   6.457   0.231   2.786 -0.5762 -0.1776  0.3879
11344TIP3    H155447   6.498   0.247   2.701  0.7828 -0.6868  0.9246
11344TIP3    H255448   6.512   0.165   2.828 -2.4674 -1.6245  0.7732
11345TIP3   OH255449   2.400   1.301  10.958  0.5151 -0.1257  0.0377
11345TIP3    H155450   2.448   1.238  11.012  2.5999  1.0383 -0.3333
11345TIP3    H255451   2.391   1.258  10.873  0.5531 -0.5279  0.2360
11346TIP3   OH255452   6.143   6.004  14.518  0.9777 -0.1501 -0.2133
11346TIP3    H155453   6.097   6.031  14.438  0.6858  0.4907  0.1581
11346TIP3    H255454   6.074   5.976  14.577  1.1559 -0.2202 -0.0381
11347TIP3   OH255455   3.599   4.517  13.964 -0.4298 -0.6380  0.5770
11347TIP3    H155456   3.530   4.461  13.930 -0.4727 -0.2011 -0.0863
11347TIP3    H255457   3.681   4.474  13.939 -0.4616 -0.3403 -0.0669
11348TIP3   OH255458   1.144   3.692  13.102 -0.5101  0.4475  0.1741
11348TIP3    H155459   1.237   3.694  13.081 -0.2508  1.4877  1.2743
11348TIP3    H255460   1.139   3.726  13.192 -1.8623 -0.5185  0.5024
11349TIP3   OH255461   2.678   2.331  13.961 -0.0977  0.5416 -0.2247
11349TIP3    H155462   2.730   2.375  14.029  0.0949 -0.5851  0.3969
11349TIP3    H255463   2.744   2.287  13.907 -0.3140  0.4546 -0.4148
11350TIP3   OH255464   5.025   1.072   3.578  0.3499 -1.0567  0.3934
11350TIP3    H155465   5.012   0.979   3.556 -0.1142 -1.0153  0.4854
11350TIP3    H255466   5.085   1.104   3.511 -0.0285 -1.2558 -0.0466
11351TIP3   OH255467   0.811   0.839   5.591 -0.1575  0.5944  0.5379
11351TIP3    H155468   0.724   0.799   5.591  0.2750 -0.3916  1.2770
11351TIP3    H255469   0.832   0.852   5.499 -1.7164  2.3003  0.3706
11352TIP3   OH255470   1.508   2.585   0.115  0.0501 -0.1928  0.3579
11352TIP3    H155471   1.587   2.569   0.166 -0.2384  1.0791  1.2561
11352TIP3    H255472   1.507   2.680   0.103 -1.1600 -0.2302  0.0513
11353TIP3   OH255473   3.289   1.979   5.718 -0.1319 -0.1399  0.3220
11353TIP3    H155474   3.362   1.921   5.740 -0.4902 -0.0192  1.9416
11353TIP3    H255475   3.211   1.930   5.742 -0.4171  1.3055  2.6454
11354TIP3   OH255476   0.205   4.878   4.965 -0.2530 -0.2517 -0.1210
11354TIP3    H155477   0.296   4.858   4.987  0.3486 -0.0954 -2.2545
11354TIP3    H255478   0.183   4.815   4.896 -1.1738  0.8370 -0.8547
11355TIP3   OH255479   3.686   2.656  15.618  0.1886  0.2447 -0.2528
11355TIP3    H155480   3.600   2.697  15.609  0.9139  2.1626  1.0219
11355TIP3    H255481   3.727   2.700  15.693  2.3490 -0.5091 -0.8980
11356TIP3   OH255482   2.048   5.791   1.435 -0.7615 -0.4677  0.8094
11356TIP3    H155483   2.064   5.697   1.426  1.0035 -0.2852  1.6163
11356TIP3    H255484   2.096   5.830   1.362  0.2574 -0.0696  1.6734
11357TIP3   OH255485   1.606   1.014  10.632  0.4768 -0.4096  0.4340
11357TIP3    H155486   1.633   1.062  10.553  0.2746 -0.2515  0.4594
11357TIP3    H255487   1.630   0.923  10.614 -0.5159 -0.5519 -0.2409
11358TIP3   OH255488   3.554   2.514   6.424 -0.1150 -0.3881 -0.1602
11358TIP3    H155489   3.462   2.525   6.402 -0.4446  0.0101  1.2875
11358TIP3    H255490   3.589   2.603   6.428 -0.1496 -0.4156  1.1248
11359TIP3   OH255491   3.947   5.913   1.956 -0.0141 -0.1732 -0.2893
11359TIP3    H155492   3.945   5.881   2.046 -0.3732  1.9517  0.5144
11359TIP3    H255493   4.039   5.914   1.932  0.1813  0.2031  0.4451
11360TIP3   OH255494   6.297   6.585   3.168 -0.2607  0.1122  0.4684
11360TIP3    H155495   6.267   6.515   3.226  0.2542 -0.8832 -0.4597
11360TIP3    H255496   6.390   6.595   3.187 -0.4814  1.0742  1.1255
11361TIP3   OH255497   4.965   0.225  13.875 -0.1492  0.2125 -0.0327
11361TIP3    H155498   5.053   0.263  13.866 -0.6542  1.1355 -1.3638
11361TIP3    H255499   4.981   0.131  13.884  1.0200  0.4760  1.0765
11362TIP3   OH255500   2.957   4.443   1.030  0.2311  0.5273 -0.2220
11362TIP3    H155501   2.863   4.460   1.038 -0.1048 -1.3788  0.2893
11362TIP3    H255502   2.992   4.462   1.117  0.0051 -0.5238  0.1031
11363TIP3   OH255503   3.631   2.035   5.325  0.3455 -0.2921  0.1561
11363TIP3    H155504   3.669   2.122   5.340 -0.6695  0.0530  0.8552
11363TIP3    H255505   3.644   1.989   5.408  0.7384 -0.7578 -0.1602
11364TIP3   OH255506   3.758   4.804   2.780 -0.3376  0.0552  0.1956
11364TIP3    H155507   3.824   4.861   2.821  0.1956 -1.7887  2.1079
11364TIP3    H255508   3.795   4.782   2.695  1.3094 -0.4743  1.0019
11365TIP3   OH255509   0.711   4.623   2.675 -0.2744  0.2716  0.0232
11365TIP3    H155510   0.720   4.568   2.597 -1.5272 -0.7279  0.5403
11365TIP3    H255511   0.662   4.700   2.645  0.7723  0.7418 -0.5269
11366TIP3   OH255512   6.045   2.066   5.866 -0.0606 -0.0951  0.4643
11366TIP3    H155513   6.014   2.156   5.873 -2.7167 -0.8630 -0.1665
11366TIP3    H255514   6.108   2.068   5.794  1.1468  1.4992  1.5065
11367TIP3   OH255515   3.110   5.684   0.668 -0.3655 -0.1830 -0.1652
11367TIP3    H155516   3.073   5.596   0.661 -0.2432 -0.1653 -1.2138
11367TIP3    H255517   3.092   5.710   0.758 -0.3162 -1.3176  0.1941
11368TIP3   OH255518   0.684   3.161   5.033  0.0887  0.5486 -0.2893
11368TIP3    H155519   0.623   3.088   5.044 -1.4289  1.6358 -1.1347
11368TIP3    H255520   0.630   3.239   5.043  1.4534  1.5665 -0.5771
11369TIP3   OH255521   5.057   3.533  14.320  0.6407  0.0364  0.3500
11369TIP3    H155522   5.083   3.623  14.301  0.3460  0.1945  0.6851
11369TIP3    H255523   5.091   3.482  14.246 -0.5947  0.6516 -0.6866
11370TIP3   OH255524   3.208   4.403   0.153 -0.0108 -0.1866  0.2874
11370TIP3    H155525   3.204   4.450   0.069  1.5316  1.9211  1.3002
11370TIP3    H255526   3.248   4.466   0.213 -1.1116 -1.6216  2.6407
11371TIP3   OH255527   1.228   0.510   1.155  0.1396 -0.4789 -0.2537
11371TIP3    H155528   1.263   0.546   1.074  0.9956 -0.6180  0.0363
11371TIP3    H255529   1.152   0.459   1.128  0.1925 -0.2098 -0.9219
11372TIP3   OH255530   2.702   2.573   0.546 -0.4105  0.0372 -0.2326
11372TIP3    H155531   2.687   2.620   0.628  1.0814  0.4003 -0.1350
11372TIP3    H255532   2.785   2.526   0.560 -0.8318 -1.0010 -1.0533
11373TIP3   OH255533   4.319   0.105  12.400 -0.3271  0.4486  0.0887
11373TIP3    H155534   4.237   0.137  12.363 -0.3917 -0.1379 -0.2909
11373TIP3    H255535   4.345   0.033  12.343  0.1491  0.2459  0.5476
11374TIP3   OH255536   6.736   6.419  16.328 -0.3445 -0.5029  0.0721
11374TIP3    H155537   6.780   6.415  16.413 -0.4413 -2.2553  0.0733
11374TIP3    H255538   6.770   6.499  16.288  0.8965 -0.4653  1.1166
11375TIP3   OH255539   6.288   6.375   1.139 -0.3320 -0.0665  0.8573
11375TIP3    H155540   6.264   6.413   1.224 -0.6456  0.4800  0.5266
11375TIP3    H255541   6.285   6.448   1.078 -0.7951 -0.5928  0.2418
11376TIP3   OH255542   6.248   0.891   5.473 -0.1582  0.0681  0.6926
11376TIP3    H155543   6.226   0.909   5.564 -1.8295 -0.2065  0.3857
11376TIP3    H255544   6.262   0.796   5.470 -1.7607 -0.1899  0.3918
11377TIP3   OH255545   0.117   4.338  16.008  0.3090 -0.3394 -0.5540
11377TIP3    H155546   0.031   4.309  16.038 -0.7500  2.0974 -1.0123
11377TIP3    H255547   0.104   4.429  15.981  2.6825 -0.3893 -2.1775
11378TIP3   OH255548   6.015   6.144   4.908 -0.0964  0.7216  0.0290
11378TIP3    H155549   5.987   6.173   4.821  2.6171  3.1015 -0.1851
11378TIP3    H255550   6.092   6.089   4.891  0.3309  1.0348  0.9100
11379TIP3   OH255551   1.447   4.312  11.651 -0.5518  0.1381 -0.1474
11379TIP3    H155552   1.432   4.405  11.635 -2.6668  0.7102  3.9299
11379TIP3    H255553   1.370   4.282  11.699  1.2899 -3.0167  1.1899
11380TIP3   OH255554   6.323   1.781  15.470 -0.3301 -0.1316 -0.8883
11380TIP3    H155555   6.298   1.787  15.562 -2.4329  0.3524 -1.4295
11380TIP3    H255556   6.407   1.735  15.470  1.0202  2.1073  1.4243
11381TIP3   OH255557   3.018   0.003  14.130  0.2946  0.3451  0.2543
11381TIP3    H155558   2.998   0.061  14.056 -1.6653 -2.2695 -1.4614
11381TIP3    H255559   3.106  -0.031  14.110  1.1689  2.0914  0.9229
11382TIP3   OH255560   0.753   4.950   4.259  0.4379 -0.4010 -0.1898
11382TIP3    H155561   0.779   4.965   4.168 -0.5715 -1.1163 -0.6013
11382TIP3    H255562   0.691   5.021   4.278  1.1370  0.1334  0.1665
11383TIP3   OH255563   1.484   0.023  14.182 -0.3660 -0.2906 -0.1791
11383TIP3    H155564   1.506   0.006  14.273 -2.7286  0.0258  0.5246
11383TIP3    H255565   1.506  -0.058  14.136  1.9749 -0.0403  0.3858
11384TIP3   OH255566   5.012   3.456   1.328 -0.3410 -0.1044  0.1368
11384TIP3    H155567   5.090   3.412   1.362 -0.2833  1.6114  2.5435
11384TIP3    H255568   5.008   3.538   1.378 -2.2176  1.0959 -1.8138
11385TIP3   OH255569   3.876   0.015   2.445  0.3110 -0.0320 -0.2180
11385TIP3    H155570   3.798   0.002   2.499  0.1060 -2.1937 -0.9299
11385TIP3    H255571   3.857   0.093   2.393 -0.7704  0.2787  0.6039
11386TIP3   OH255572   5.969   1.872  12.300 -0.0555  0.1909  0.2791
11386TIP3    H155573   5.981   1.823  12.382 -0.3493  0.2741  0.3716
11386TIP3    H255574   5.975   1.964  12.326 -1.2038  0.2504  0.3818
11387TIP3   OH255575   1.370   2.775  16.758 -0.7524 -0.2790  1.1452
11387TIP3    H155576   1.393   2.866  16.739  2.8412 -0.8475  2.0924
11387TIP3    H255577   1.361   2.734  16.672 -1.5893  0.7720  0.7176
11388TIP3   OH255578   6.745   1.146  11.756 -0.1295 -0.3257  0.1304
11388TIP3    H155579   6.660   1.126  11.795 -0.0801 -0.5099  0.1436
11388TIP3    H255580   6.772   1.064  11.715 -0.7275  0.1615 -1.3037
11389TIP3   OH255581   5.451   4.094   1.806 -0.1374  0.3526  0.1581
11389TIP3    H155582   5.470   4.143   1.726 -1.7247 -0.2037 -0.5822
11389TIP3    H255583   5.445   4.003   1.778 -0.6210  0.1436  0.9225
11390TIP3   OH255584   1.737   2.535   4.012  0.2234 -0.6161 -0.0080
11390TIP3    H155585   1.668   2.584   4.057  0.6726 -0.0595  0.0771
11390TIP3    H255586   1.817   2.584   4.029  0.1050  1.1047 -3.4783
11391TIP3   OH255587   4.754   1.575   3.938  0.0958  0.0908  0.3481
11391TIP3    H155588   4.701   1.560   4.016  3.0012 -2.0898  2.0676
11391TIP3    H255589   4.809   1.498   3.931  2.2418  1.6835 -1.9894
11392TIP3   OH255590   5.707   4.592   2.914 -0.1402  0.4092  0.3063
11392TIP3    H155591   5.796   4.601   2.950  1.1337 -1.7035 -2.0061
11392TIP3    H255592   5.666   4.677   2.932  2.8954  2.0900  0.0408
11393TIP3   OH255593   4.536   2.278   3.942  0.0192  0.0504 -0.3246
11393TIP3    H155594   4.492   2.223   3.877  0.2082 -0.1077 -0.3211
11393TIP3    H255595   4.592   2.217   3.991  1.0093  0.4053 -0.9902
11394TIP3   OH255596   6.325   4.660  14.070  0.5108  0.1812  0.0461
11394TIP3    H155597   6.258   4.592  14.074 -2.4759  2.9282  1.2951
11394TIP3    H255598   6.406   4.616  14.098 -0.7948 -3.1750 -0.9292
11395TIP3   OH255599   6.231   2.094  15.778 -0.4315 -0.1856 -0.3441
11395TIP3    H155600   6.207   2.155  15.708 -1.4196  2.3377  2.0202
11395TIP3    H255601   6.176   2.120  15.852  1.9868 -1.3552  2.0257
11396TIP3   OH255602   5.133   2.651   4.132  0.0848  0.0287  0.0711
11396TIP3    H155603   5.136   2.673   4.225 -0.8497  0.6257 -0.0319
11396TIP3    H255604   5.118   2.557   4.130  1.1173 -0.1576  0.5182
11397TIP3   OH255605   1.435   2.949  12.505 -0.3374 -0.0610 -0.2726
11397TIP3    H155606   1.413   3.001  12.428 -1.0491  1.1978  0.7551
11397TIP3    H255607   1.496   2.883  12.472  1.4805  2.0666 -1.4322
11398TIP3   OH255608   2.325   5.930  17.033 -0.3992 -0.2837 -0.1330
11398TIP3    H155609   2.386   6.002  17.052  0.8175 -1.2862 -0.0935
11398TIP3    H255610   2.242   5.959  17.069 -0.5397  2.0804 -2.0601
11399TIP3   OH255611   1.332   4.503   4.482  0.0784 -0.0706 -0.2312
11399TIP3    H155612   1.411   4.546   4.450 -0.7417  1.3026 -0.4830
11399TIP3    H255613   1.311   4.550   4.563 -0.5318 -0.3587 -0.2196
11400TIP3   OH255614   1.434   4.437   1.152  0.1020  0.1043  0.0928
11400TIP3    H155615   1.410   4.480   1.234 -0.7523 -1.0710  0.4823
11400TIP3    H255616   1.515   4.480   1.126 -0.2202  1.2919  0.9454
11401TIP3   OH255617   4.207   6.715   1.844  0.0909  0.9198  0.2159
11401TIP3    H155618   4.272   6.677   1.904 -0.8251 -0.7713  0.1940
11401TIP3    H255619   4.206   6.808   1.866  1.7454  0.8121  0.9365
11402TIP3   OH255620   2.702   2.546  15.944  0.1767 -0.3454 -0.2449
11402TIP3    H155621   2.709   2.469  16.001  1.2491 -0.6898 -0.8044
11402TIP3    H255622   2.695   2.509  15.855  2.7217  0.1500 -0.7315
11403TIP3   OH255623   4.010   4.752  13.145 -0.3826  0.0397 -0.3955
11403TIP3    H155624   3.935   4.808  13.126  0.0773  0.4857 -0.9195
11403TIP3    H255625   3.995   4.673  13.093  0.2631  0.7547 -1.6900
11404TIP3   OH255626   5.730   0.530   0.522 -0.4322 -0.1999  0.4047
11404TIP3    H155627   5.725   0.455   0.582  0.9972 -0.3436  0.3847
11404TIP3    H255628   5.818   0.524   0.485 -0.9366  0.4831 -0.9354
11405TIP3   OH255629   1.507   3.862   5.051 -0.5663  0.2205 -0.0217
11405TIP3    H155630   1.591   3.884   5.091 -0.8893  1.1902  0.1500
11405TIP3    H255631   1.527   3.789   4.993 -0.2260 -1.8691  2.5100
11406TIP3   OH255632   0.518   4.679  14.598 -1.1124  0.2794 -0.5936
11406TIP3    H155633   0.510   4.733  14.677  0.3686  0.9807 -0.8965
11406TIP3    H255634   0.538   4.592  14.631  1.1914  0.9005 -0.1828
11407TIP3   OH255635   3.094   4.613  15.736  0.3597  0.0281 -0.1128
11407TIP3    H155636   3.114   4.567  15.655  0.0764  1.4510 -1.0424
11407TIP3    H255637   3.169   4.596  15.793  0.8330 -0.5296 -0.8820
11408TIP3   OH255638   3.122   3.751  15.739  0.3197 -0.0999  0.4165
11408TIP3    H155639   3.027   3.743  15.736  0.3884 -1.6259  1.1744
11408TIP3    H255640   3.141   3.778  15.829  0.6284 -0.1306  0.3624
11409TIP3   OH255641   0.915   0.680  14.868  0.2539 -0.4722 -0.1541
11409TIP3    H155642   0.891   0.587  14.872  0.1647 -0.4223  0.4693
11409TIP3    H255643   0.984   0.690  14.933  0.4791 -0.1570 -0.4349
11410TIP3   OH255644   2.197   0.726   4.785  0.1856  0.5879 -0.7477
11410TIP3    H155645   2.167   0.788   4.717 -0.5265  0.5670 -0.4658
11410TIP3    H255646   2.249   0.662   4.737  1.7876  1.9425 -0.9064
11411TIP3   OH255647   5.258   3.290   0.258  0.1638 -0.4311 -0.5546
11411TIP3    H155648   5.344   3.316   0.226  0.3200  0.1234  0.2761
11411TIP3    H255649   5.270   3.199   0.288  0.9242  0.1785  1.1126
11412TIP3   OH255650   1.752   4.276   5.286  0.5381 -0.3405 -0.2248
11412TIP3    H155651   1.697   4.313   5.217  0.4418 -0.2041 -0.0761
11412TIP3    H255652   1.731   4.328   5.364 -0.7433 -1.6646  0.3655
11413TIP3   OH255653   6.321   1.928  11.973  0.1274 -0.0181  0.5029
11413TIP3    H155654   6.317   1.930  11.877  2.7711 -3.1086  0.1514
11413TIP3    H255655   6.231   1.913  12.000 -0.5961  0.2885 -1.5208
11414TIP3   OH255656   2.318   3.720  17.434 -0.3315  0.5109  0.1832
11414TIP3    H155657   2.261   3.766  17.497  0.5262  0.9103  0.6808
11414TIP3    H255658   2.400   3.708  17.481 -1.0891 -3.4061  0.9096
11415TIP3   OH255659   2.609   1.992   5.149  0.4315  0.0031 -0.1740
11415TIP3    H155660   2.514   1.987   5.140  0.4612 -0.6692 -0.1996
11415TIP3    H255661   2.643   1.933   5.081  0.8361 -0.4085  0.3662
11416TIP3   OH255662   5.855   1.468   4.672  0.6543 -0.3144 -0.2343
11416TIP3    H155663   5.838   1.441   4.762  1.2263  1.1291  0.3303
11416TIP3    H255664   5.769   1.469   4.630  0.2722 -0.1319  0.5469
11417TIP3   OH255665   0.535   6.010   0.102 -0.1222 -0.7032  0.4635
11417TIP3    H155666   0.514   5.941   0.040 -2.1462 -1.2354  1.6319
11417TIP3    H255667   0.451   6.054   0.117  0.5683  0.1977  1.8560
11418TIP3   OH255668   0.739   4.249   1.809  0.1871 -0.2202 -0.0210
11418TIP3    H155669   0.777   4.332   1.839 -1.6875  0.3855  0.8880
11418TIP3    H255670   0.697   4.271   1.726 -2.1583  0.3824  1.2217
11419TIP3   OH255671   3.334   4.298  15.627  0.7267 -0.6590 -0.2127
11419TIP3    H155672   3.294   4.214  15.646  0.4384 -0.2831  0.9113
11419TIP3    H255673   3.339   4.343  15.712 -0.7037  1.1320 -0.9936
11420TIP3   OH255674   1.512   0.333   0.487  0.0434 -0.0781  0.4311
11420TIP3    H155675   1.594   0.302   0.447 -1.5694 -1.5068 -2.0286
11420TIP3    H255676   1.467   0.377   0.416 -0.8734  1.7548  2.0615
11421TIP3   OH255677   5.761   4.819   0.180 -0.3534  0.2281 -0.2430
11421TIP3    H155678   5.683   4.830   0.235  0.3256 -0.4666  0.9045
11421TIP3    H255679   5.799   4.906   0.174 -0.9209  0.4707 -0.3588
11422TIP3   OH255680   5.611   6.678   5.789 -0.3884  0.4930  0.0157
11422TIP3    H155681   5.536   6.720   5.745 -0.6772 -0.6594 -0.6201
11422TIP3    H255682   5.661   6.639   5.717  0.1221  0.1510  0.5596
11423TIP3   OH255683   5.879   3.251  15.056  0.5438  0.3118 -0.2167
11423TIP3    H155684   5.953   3.193  15.043  0.2333 -0.0475 -0.3980
11423TIP3    H255685   5.802   3.195  15.045  0.2255  0.9681 -1.5158
11424TIP3   OH255686   2.628   3.727  15.800  0.2257  0.8303  0.0524
11424TIP3    H155687   2.534   3.721  15.781 -0.4490 -0.3235  3.2044
11424TIP3    H255688   2.670   3.675  15.731 -1.5052  0.6101 -0.8861
11425TIP3   OH255689   5.114   0.009  15.235  0.0176  0.0564 -0.4829
11425TIP3    H155690   5.061   0.082  15.205  1.7428  1.3207 -0.5702
11425TIP3    H255691   5.202   0.044  15.243  0.8202 -1.8997 -0.0722
11426TIP3   OH255692   5.996   1.541  17.255  0.3913  0.1568 -0.1039
11426TIP3    H155693   6.027   1.450  17.247  2.1389  0.7670 -0.8624
11426TIP3    H255694   6.007   1.562  17.347  2.0243  0.2405 -0.2925
11427TIP3   OH255695   6.278   6.032   2.675 -0.9635  0.5277  0.2300
11427TIP3    H155696   6.335   6.070   2.742 -0.2686 -1.6934  0.9841
11427TIP3    H255697   6.296   6.083   2.596  4.3767 -1.7421 -0.4325
11428TIP3   OH255698   2.887   5.366   5.251  0.0615 -0.2669 -1.0152
11428TIP3    H155699   2.954   5.316   5.298 -1.0956 -1.2786 -0.3535
11428TIP3    H255700   2.891   5.453   5.289  0.7203 -0.4366 -0.6864
11429TIP3   OH255701   5.465   6.051  13.019  0.3769  0.3545 -0.3219
11429TIP3    H155702   5.379   6.025  12.987  1.1434 -1.3088 -1.1203
11429TIP3    H255703   5.482   6.135  12.975 -0.2660  0.0341 -1.2110
11430TIP3   OH255704   0.893   1.464   2.751  0.2709  0.2284 -0.1302
11430TIP3    H155705   0.981   1.426   2.749  0.2865  0.2902 -1.1525
11430TIP3    H255706   0.840   1.399   2.798  0.6270 -0.3427 -0.5036
11431TIP3   OH255707   2.464   5.861  16.789 -0.3203 -0.0282  0.1737
11431TIP3    H155708   2.413   5.905  16.857  0.4827 -0.3407  0.9929
11431TIP3    H255709   2.445   5.768  16.801 -1.2300 -0.0020 -0.9130
11432TIP3   OH255710   2.008   1.608   1.768  0.2794  0.1209  0.6192
11432TIP3    H155711   1.985   1.523   1.732  0.8456 -0.2627  1.1374
11432TIP3    H255712   2.001   1.668   1.694 -0.4102 -0.3211  0.3171
11433TIP3   OH255713   5.690   3.543  15.489 -0.5041 -0.1376  0.1355
11433TIP3    H155714   5.642   3.622  15.464  1.2890  1.3350  1.0158
11433TIP3    H255715   5.700   3.494  15.408 -3.7090 -0.7186 -0.0148
11434TIP3   OH255716   2.412   1.891   0.632  0.5312 -0.0358 -0.1495
11434TIP3    H155717   2.353   1.846   0.693  0.0914 -0.2476 -0.7289
11434TIP3    H255718   2.373   1.877   0.546  1.3024  0.0260 -0.5114
11435TIP3   OH255719   0.439   5.989  15.373 -0.4085  0.0662  0.4732
11435TIP3    H155720   0.480   5.962  15.291 -1.4703 -0.7036  0.1775
11435TIP3    H255721   0.423   6.083  15.363 -0.3902  0.0056 -0.1355
11436TIP3   OH255722   5.547   1.753   1.410  0.0127 -0.2454  0.0671
11436TIP3    H155723   5.494   1.806   1.351  0.9050 -0.0996 -0.6232
11436TIP3    H255724   5.556   1.807   1.488 -0.6484 -0.1728  0.1030
11437TIP3   OH255725   3.901   5.510  17.135  0.1635 -0.3497 -0.0415
11437TIP3    H155726   3.855   5.509  17.219  0.2291  2.3676  0.1224
11437TIP3    H255727   3.838   5.473  17.073 -1.3054  0.8667  0.6361
11438TIP3   OH255728   3.820   0.881  13.624  0.8233 -0.4446  0.0214
11438TIP3    H155729   3.897   0.824  13.627  3.8519  2.9550 -2.8428
11438TIP3    H255730   3.814   0.908  13.532 -2.1868  1.5426  0.6611
11439TIP3   OH255731   0.636   1.420  13.207 -0.6290  0.2161  0.3873
11439TIP3    H155732   0.592   1.336  13.224 -1.4323  0.3220 -1.0164
11439TIP3    H255733   0.680   1.441  13.289 -0.2083 -1.7082  0.7007
11440TIP3   OH255734   4.287   6.033   6.488 -0.7550 -0.2934 -0.4071
11440TIP3    H155735   4.192   6.030   6.478 -0.6305 -0.7091 -1.6842
11440TIP3    H255736   4.313   5.941   6.493 -0.2239 -0.3207 -2.5702
11441TIP3   OH255737   4.536   6.290  11.582  0.5572  0.5618 -0.1574
11441TIP3    H155738   4.457   6.331  11.618  0.6558  1.7430 -1.2143
11441TIP3    H255739   4.569   6.353  11.518  1.9605 -0.2317 -0.2674
11442TIP3   OH255740   4.474   4.899   1.691 -0.2115 -0.3541 -0.3307
11442TIP3    H155741   4.515   4.937   1.769 -0.8519 -1.3775  0.5337
11442TIP3    H255742   4.415   4.967   1.659  1.0318  0.5690 -0.7115
11443TIP3   OH255743   0.764   0.553   0.095 -0.1422 -0.0464  0.4626
11443TIP3    H155744   0.724   0.483   0.043  1.2442 -0.6700  0.2129
11443TIP3    H255745   0.855   0.555   0.068 -0.0828  1.6552  0.7192
11444TIP3   OH255746   3.301   6.323  13.560 -0.1195 -0.6321  0.1336
11444TIP3    H155747   3.305   6.234  13.597  2.3208 -1.6132 -2.2365
11444TIP3    H255748   3.260   6.311  13.474 -0.0174  0.6112 -0.0991
11445TIP3   OH255749   5.129   4.354   2.761  0.6970 -0.0206 -0.1587
11445TIP3    H155750   5.046   4.308   2.766  0.2221  0.9204  2.1284
11445TIP3    H255751   5.195   4.285   2.759 -0.0997 -0.7864 -0.2241
11446TIP3   OH255752   3.616   1.108  15.289  0.0517  0.7435 -0.1603
11446TIP3    H155753   3.544   1.048  15.311 -1.8678  2.5236 -1.1412
11446TIP3    H255754   3.682   1.052  15.248 -1.0807 -0.8922  0.1441
11447TIP3   OH255755   5.887   3.209   5.093 -0.0984 -0.4136  0.6306
11447TIP3    H155756   5.791   3.210   5.094 -0.1480 -1.7249  0.1720
11447TIP3    H255757   5.909   3.170   5.008  0.8579  0.3167  0.5303
11448TIP3   OH255758   3.609   5.772   5.993 -0.4877  0.5294  0.6027
11448TIP3    H155759   3.632   5.753   6.083  0.5091  1.3700  0.5513
11448TIP3    H255760   3.621   5.867   5.985  2.6924  0.1435 -1.2209
11449TIP3   OH255761   1.276   4.250   5.713  0.1213 -0.5674  0.0748
11449TIP3    H155762   1.239   4.280   5.796  0.9850  0.0176  0.2598
11449TIP3    H255763   1.300   4.330   5.667 -0.9067 -0.8529 -1.0264
11450TIP3   OH255764   0.275   4.043  11.914  0.2431  0.1616 -0.3018
11450TIP3    H155765   0.297   4.072  12.003  0.8940 -0.6947 -0.1680
11450TIP3    H255766   0.186   4.008  11.922  0.4748 -0.3458  0.1208
11451TIP3   OH255767   6.194   4.784   5.574  0.4695  0.2270 -0.1082
11451TIP3    H155768   6.255   4.852   5.602 -0.7037  1.4801 -0.5075
11451TIP3    H255769   6.108   4.823   5.586 -0.1925 -0.8072 -1.3496
11452TIP3   OH255770   1.850   4.515   3.147  0.5579 -0.1635 -0.4046
11452TIP3    H155771   1.927   4.572   3.146 -1.3614  2.8455  2.5513
11452TIP3    H255772   1.778   4.572   3.121 -1.3220 -1.5085  1.5009
11453TIP3   OH255773   1.236   1.984   4.103 -0.2579 -0.0866  0.3065
11453TIP3    H155774   1.293   1.973   4.179 -2.0093 -0.3397  1.6317
11453TIP3    H255775   1.283   1.941   4.031  0.6432 -1.3663  1.6229
11454TIP3   OH255776   2.253   4.507   0.942  0.1278 -0.4574  0.0976
11454TIP3    H155777   2.201   4.433   0.910 -1.2564 -1.6114  4.3513
11454TIP3    H255778   2.191   4.559   0.993  1.9732  1.3516  0.5964
11455TIP3   OH255779   0.823   5.650   1.187  0.0881 -0.0599 -0.0050
11455TIP3    H155780   0.911   5.688   1.198 -0.5218  1.7135 -0.8915
11455TIP3    H255781   0.837   5.570   1.137  1.1670  0.4649 -0.5743
11456TIP3   OH255782   4.099   3.998  15.920 -0.8136 -0.2303 -0.1877
11456TIP3    H155783   4.070   3.964  16.005  0.7730 -1.6609 -0.1742
11456TIP3    H255784   4.188   3.967  15.911 -0.9958 -0.2414 -2.4832
11457TIP3   OH255785   4.504   3.111  11.314  0.6908 -0.2402  0.3086
11457TIP3    H155786   4.436   3.045  11.329 -0.4558  0.6000 -0.9510
11457TIP3    H255787   4.471   3.163  11.241  2.5640  0.3984 -0.1393
11458TIP3   OH255788   2.090   4.428  14.774  0.1694  0.4325 -0.1434
11458TIP3    H155789   2.076   4.487  14.700  2.2674 -0.5586 -1.4145
11458TIP3    H255790   2.092   4.341  14.735 -0.6470 -0.3038  1.3934
11459TIP3   OH255791   4.204   4.307  16.941 -0.0812 -0.6187  0.2064
11459TIP3    H155792   4.128   4.360  16.915 -0.2802 -0.8139  0.3911
11459TIP3    H255793   4.216   4.245  16.869  0.9490  0.5047 -0.6347
11460TIP3   OH255794   4.022   4.826  16.284  0.5523  0.2631 -0.2534
11460TIP3    H155795   4.093   4.885  16.309  1.6233 -0.7735 -0.7818
11460TIP3    H255796   4.001   4.778  16.364  1.2691 -0.2634 -0.3733
11461TIP3   OH255797   6.674   5.822  15.717  0.0207 -0.4481  0.7226
11461TIP3    H155798   6.609   5.773  15.668  0.4895 -0.5409  0.1805
11461TIP3    H255799   6.714   5.758  15.776  0.5671 -0.7054  0.0821
11462TIP3   OH255800   5.692   3.461   0.492 -0.4911  0.1299 -0.3699
11462TIP3    H155801   5.639   3.534   0.461  1.8588  1.4108 -1.6211
11462TIP3    H255802   5.687   3.396   0.422 -1.0112 -0.0881 -0.1346
11463TIP3   OH255803   5.618   5.440   0.329 -0.5646 -0.1229  0.1704
11463TIP3    H155804   5.625   5.531   0.299 -1.1167 -0.0886  0.1393
11463TIP3    H255805   5.705   5.403   0.314 -0.7241 -0.0166 -1.1690
11464TIP3   OH255806   3.616   0.664  12.160 -0.0119  0.4014  0.2579
11464TIP3    H155807   3.539   0.608  12.171  0.4918 -0.1507  1.0997
11464TIP3    H255808   3.655   0.636  12.077 -0.3227  0.1946  0.1817
11465TIP3   OH255809   4.231   3.125  13.125 -0.6317 -0.1121  0.1200
11465TIP3    H155810   4.257   3.217  13.138 -0.6377 -0.3220  1.8473
11465TIP3    H255811   4.312   3.080  13.101 -0.6325  0.3327 -0.7573
11466TIP3   OH255812   0.751   1.104   6.459 -0.1932 -0.3585 -0.0860
11466TIP3    H155813   0.833   1.055   6.461 -0.0475 -0.1129  0.1087
11466TIP3    H255814   0.731   1.121   6.551 -0.4055 -0.3228 -0.1374
11467TIP3   OH255815   3.732   5.668   2.211  0.4579 -0.1922 -0.2008
11467TIP3    H155816   3.761   5.650   2.121  0.2904 -0.5077 -0.1913
11467TIP3    H255817   3.727   5.582   2.253 -0.8011 -0.1833 -0.2973
11468TIP3   OH255818   4.533   6.262   3.336 -0.1532 -0.0102 -0.6318
11468TIP3    H155819   4.591   6.332   3.307 -0.3792  0.2846 -0.3714
11468TIP3    H255820   4.489   6.297   3.413 -0.4448 -0.3501 -0.6414
11469TIP3   OH255821   2.265   0.883  16.730 -0.2354 -0.8518  0.3890
11469TIP3    H155822   2.264   0.955  16.793 -0.4342 -0.4717 -0.0387
11469TIP3    H255823   2.351   0.888  16.689 -0.1994 -0.9425  0.4537
11470TIP3   OH255824   5.184   5.107   2.239  0.1334 -0.0009 -0.6424
11470TIP3    H155825   5.164   5.098   2.146 -0.9542 -1.0782 -0.3383
11470TIP3    H255826   5.271   5.069   2.249  0.4965  0.6441 -1.2994
11471TIP3   OH255827   2.346   4.804  14.683  0.0326 -0.4657  0.2680
11471TIP3    H155828   2.356   4.819  14.589  2.4715  0.3870  0.5867
11471TIP3    H255829   2.281   4.868  14.710 -0.0549 -0.1185 -0.6961
11472TIP3   OH255830   1.192   5.719  14.005 -0.6636 -0.3125 -0.2738
11472TIP3    H155831   1.240   5.755  13.930 -0.0775 -0.2445  0.1318
11472TIP3    H255832   1.259   5.685  14.063 -1.1138 -0.3199  0.2522
11473TIP3   OH255833   6.067   5.689  17.483  0.1646 -0.8981  0.3432
11473TIP3    H155834   6.081   5.671  17.576  0.3580 -3.7828 -0.1395
11473TIP3    H255835   5.976   5.661  17.468 -0.0210 -0.0035 -0.2723
11474TIP3   OH255836   4.099   5.209   2.675 -0.2778 -0.0870 -0.3762
11474TIP3    H155837   4.153   5.233   2.750  0.1120  1.1730 -1.0460
11474TIP3    H255838   4.019   5.260   2.685 -0.2859 -0.0246 -0.7476
11475TIP3   OH255839   5.650   5.802  13.844  0.3624 -0.5757 -0.3912
11475TIP3    H155840   5.682   5.771  13.929  0.6089  0.7812  0.0293
11475TIP3    H255841   5.578   5.862  13.866  0.0916 -0.6031 -1.1678
11476TIP3   OH255842   0.811   2.188   3.853  0.4580  0.3942  0.1092
11476TIP3    H155843   0.802   2.093   3.861  0.6083  0.4982  2.0357
11476TIP3    H255844   0.722   2.219   3.838  0.1094  0.0604  1.3369
11477TIP3   OH255845   1.738   3.795  14.635  0.0188 -0.4473  0.3286
11477TIP3    H155846   1.650   3.757  14.629  0.7581 -2.0129 -1.6912
11477TIP3    H255847   1.751   3.839  14.550  1.2210 -0.3097  0.5707
11478TIP3   OH255848   5.136   0.792  15.587 -0.2503  0.0853  0.2169
11478TIP3    H155849   5.145   0.709  15.634 -0.4274  1.2224  2.3720
11478TIP3    H255850   5.051   0.786  15.543  0.3092 -1.3490 -0.7503
11479TIP3   OH255851   4.226   4.688  16.035 -0.1470 -0.7215 -0.5038
11479TIP3    H155852   4.135   4.681  16.007 -0.0605  0.1587 -1.0321
11479TIP3    H255853   4.221   4.687  16.131 -0.6395 -1.4516 -0.5287
11480TIP3   OH255854   2.543   4.390   2.751 -0.0232 -0.8954 -0.2610
11480TIP3    H155855   2.496   4.472   2.738  0.5780 -0.7889 -2.1041
11480TIP3    H255856   2.538   4.346   2.666  1.9791 -1.4962 -0.1285
11481TIP3   OH255857   0.545   4.343  15.077  0.4141  0.1948 -0.3757
11481TIP3    H155858   0.515   4.343  14.987 -0.5816  0.1189 -0.0541
11481TIP3    H255859   0.468   4.365  15.129  0.6068 -1.1560  0.5602
11482TIP3   OH255860   3.356   5.404   0.885 -1.0423  0.4559  0.1854
11482TIP3    H155861   3.421   5.404   0.814 -2.0053  0.5600 -0.7194
11482TIP3    H255862   3.406   5.429   0.963  0.6237 -2.4099  0.1475
11483TIP3   OH255863   2.279   3.568  14.634 -0.1760  0.5689 -0.3476
11483TIP3    H155864   2.292   3.658  14.664 -1.1651  0.7364 -0.3993
11483TIP3    H255865   2.187   3.564  14.606 -0.9987 -1.1704  2.2115
11484TIP3   OH255866   2.353   2.831   4.480  0.2149  0.1761 -0.4667
11484TIP3    H155867   2.338   2.841   4.386  0.0266  3.1041 -0.1992
11484TIP3    H255868   2.355   2.920   4.514 -2.2711 -0.8025  2.7441
11485TIP3   OH255869   5.954   2.815   0.754 -0.7139  0.8266 -0.1889
11485TIP3    H155870   5.938   2.894   0.702 -1.9422  1.1376  0.6251
11485TIP3    H255871   5.890   2.752   0.722 -0.8582  0.7176  0.3075
11486TIP3   OH255872   3.906   4.112  11.871  0.0870 -0.2498 -0.5391
11486TIP3    H155873   3.818   4.089  11.841  0.5701 -0.9806 -1.4353
11486TIP3    H255874   3.907   4.208  11.871  0.0880 -0.1904 -3.0294
11487TIP3   OH255875   4.944   4.644   1.999 -0.5925  0.0342  0.0505
11487TIP3    H155876   4.905   4.569   1.954  0.9875 -0.8368  0.0692
11487TIP3    H255877   4.954   4.615   2.090  1.0400 -0.1813 -0.1671
11488TIP3   OH255878   3.339   1.132  17.043 -0.4263  0.3071 -0.0703
11488TIP3    H155879   3.367   1.103  17.131  0.6791  0.8658 -0.2123
11488TIP3    H255880   3.255   1.089  17.029 -1.1781  1.1032  1.7398
11489TIP3   OH255881   5.953   3.978  13.321 -0.1070 -0.1537  0.3623
11489TIP3    H155882   5.994   4.027  13.249  0.9255  0.3274  1.2431
11489TIP3    H255883   5.868   3.951  13.287 -1.4486  3.5611  0.3180
11490TIP3   OH255884   3.261   3.963   0.734 -0.0718 -0.0336  0.2165
11490TIP3    H155885   3.305   4.006   0.807  1.0551 -1.2733  0.3068
11490TIP3    H255886   3.322   3.973   0.661  0.0895 -1.2190  0.1771
11491TIP3   OH255887   0.932   1.704   5.276  0.1651 -0.4910  0.1256
11491TIP3    H155888   0.902   1.712   5.366 -0.4266  0.7767 -0.1614
11491TIP3    H255889   0.858   1.665   5.229 -0.2756  0.6252 -0.1568
11492TIP3   OH255890   6.032   1.582  15.324  0.5449  0.1464 -0.7521
11492TIP3    H155891   6.100   1.648  15.309  1.5114 -0.6351  0.0567
11492TIP3    H255892   6.038   1.524  15.247 -0.7936  1.3572 -1.8286
11493TIP3   OH255893   6.132   1.068   4.365 -0.0235  0.1703 -0.4895
11493TIP3    H155894   6.160   0.978   4.348  1.6214  0.5342  0.1362
11493TIP3    H255895   6.112   1.104   4.278 -0.7752 -0.8029 -0.7379
11494TIP3   OH255896   4.305   2.855   3.437  0.0771  0.4165  0.1528
11494TIP3    H155897   4.322   2.770   3.396  0.7444  0.4522  0.3517
11494TIP3    H255898   4.379   2.909   3.411 -1.0286  1.3757 -1.1401
11495TIP3   OH255899   4.063   1.471  16.547 -0.1199 -0.1617 -0.8498
11495TIP3    H155900   4.041   1.395  16.493  0.4665 -2.1298  1.4976
11495TIP3    H255901   4.158   1.476  16.543 -0.0062 -0.7606  0.4323
11496TIP3   OH255902   2.646   1.224  11.717  0.2468  0.3121  0.1288
11496TIP3    H155903   2.570   1.168  11.733 -1.5623  2.9245  1.3788
11496TIP3    H255904   2.677   1.248  11.804  2.0103 -0.0143 -0.3744
11497TIP3   OH255905   5.680   1.641  11.293  0.4831 -0.2817 -0.1811
11497TIP3    H155906   5.691   1.711  11.357 -0.6790 -0.2880  0.0452
11497TIP3    H255907   5.760   1.589  11.301  0.4407 -0.1793  1.1307
11498TIP3   OH255908   1.155   3.742   1.916  0.4763  0.3478 -0.3638
11498TIP3    H155909   1.096   3.675   1.881 -0.9295  1.0535  0.5571
11498TIP3    H255910   1.216   3.761   1.845  0.9801 -1.9560 -0.6185
11499TIP3   OH255911   2.683   2.493  15.666  0.0024  0.3745 -0.2968
11499TIP3    H155912   2.631   2.570  15.644 -1.5611 -0.3348  0.7202
11499TIP3    H255913   2.680   2.438  15.588 -2.0487 -0.2853  0.1632
11500TIP3   OH255914   2.512   6.295  13.049  0.3011  0.0623 -0.2563
11500TIP3    H155915   2.468   6.293  12.964 -1.0846  1.2189  0.3952
11500TIP3    H255916   2.447   6.331  13.109  1.6246  0.3421  1.0698
11501TIP3   OH255917   2.866   5.085  11.199 -0.3369 -0.1111  0.6305
11501TIP3    H155918   2.929   5.048  11.138  2.4021  0.5679  2.8518
11501TIP3    H255919   2.807   5.137  11.144  1.1369 -0.5887 -1.5240
11502TIP3   OH255920   6.585   6.257   4.809 -0.6279 -0.1475  0.4658
11502TIP3    H155921   6.564   6.350   4.821 -0.9875 -0.3207  1.1779
11502TIP3    H255922   6.525   6.228   4.740  0.0367  0.3382 -0.3362
11503TIP3   OH255923   4.933   0.993  13.998  0.6859  0.1101 -0.6583
11503TIP3    H155924   4.919   1.084  14.022  1.8264  0.2993 -0.6652
11503TIP3    H255925   4.914   0.944  14.078  1.0539  0.4397 -0.3654
11504TIP3   OH255926   0.976   1.946  16.607  0.1779  0.4851  0.2323
11504TIP3    H155927   0.990   2.039  16.590  0.7001  0.2877 -0.4814
11504TIP3    H255928   1.056   1.903  16.576 -1.3772 -0.5540 -2.7835
11505TIP3   OH255929   1.791   3.158   5.804  1.0716 -0.1187  0.0503
11505TIP3    H155930   1.699   3.179   5.788  1.1924  0.0250 -0.5102
11505TIP3    H255931   1.828   3.145   5.716  2.0512  1.8557  0.0970
11506TIP3   OH255932   5.475   1.371  15.957  0.0494  0.0411  0.3336
11506TIP3    H155933   5.395   1.424  15.951  0.9074  1.3895  0.5089
11506TIP3    H255934   5.544   1.433  15.981  1.6768 -0.5759 -2.3656
11507TIP3   OH255935   6.567   1.308  15.884  0.1244  0.3956 -0.5656
11507TIP3    H155936   6.586   1.279  15.795 -2.9323 -0.1101 -1.1672
11507TIP3    H255937   6.507   1.382  15.873  0.1050  0.6623  1.0763
11508TIP3   OH255938   1.725   3.469   2.416 -0.4391 -0.6999  0.1168
11508TIP3    H155939   1.634   3.475   2.387 -0.0813  2.0014 -0.6813
11508TIP3    H255940   1.723   3.494   2.508 -0.7028 -2.7279  0.7209
11509TIP3   OH255941   1.749   0.168   0.641 -0.3874  0.2871 -0.0595
11509TIP3    H155942   1.780   0.118   0.717 -0.0876  0.1522 -0.2665
11509TIP3    H255943   1.724   0.102   0.578  0.8719  0.3736 -0.6867
11510TIP3   OH255944   6.000   3.554  16.633  0.1153  0.3074 -0.1683
11510TIP3    H155945   5.935   3.609  16.590  0.3163  0.6824 -0.0057
11510TIP3    H255946   6.035   3.610  16.703 -0.0782 -0.2220  0.3645
11511TIP3   OH255947   1.391   4.574   6.826  0.1786 -0.1431  0.1393
11511TIP3    H155948   1.468   4.630   6.830 -0.2589  0.4180  0.9953
11511TIP3    H255949   1.391   4.527   6.910 -0.1568 -0.4845 -0.0475
11512TIP3   OH255950   5.939   1.438   2.595 -0.0311  0.0325 -0.5380
11512TIP3    H155951   5.920   1.346   2.611  0.3562  0.0422 -0.0159
11512TIP3    H255952   6.009   1.460   2.656 -0.8635  0.9515  0.1430
11513TIP3   OH255953   4.677   5.570   1.084  0.0663 -0.6474 -0.0600
11513TIP3    H155954   4.606   5.604   1.030 -0.9300  0.5084  1.8720
11513TIP3    H255955   4.695   5.639   1.147  1.7124 -1.6309  0.6383
11514TIP3   OH255956   6.596   6.473   6.422 -0.0492 -0.4703 -0.2222
11514TIP3    H155957   6.662   6.411   6.394 -0.0492 -0.6354  0.1514
11514TIP3    H255958   6.532   6.421   6.471  0.4939 -0.0149  1.0149
11515TIP3   OH255959   3.903   1.435   1.690 -0.2109 -0.1406 -0.2974
11515TIP3    H155960   3.898   1.505   1.625  1.1545 -0.5548 -0.8758
11515TIP3    H255961   3.955   1.472   1.761  1.7879 -0.9742 -1.2323
11516TIP3   OH255962   2.018   0.890  17.102 -0.0631  0.4970 -0.1403
11516TIP3    H155963   1.969   0.891  17.184  0.4572  2.1533  0.1829
11516TIP3    H255964   2.088   0.826  17.117 -0.9568 -0.4605  0.0745
11517TIP3   OH255965   3.198   6.308  14.914 -0.1519 -0.1386  0.1536
11517TIP3    H155966   3.281   6.288  14.959  0.9810  1.4772 -1.0822
11517TIP3    H255967   3.144   6.349  14.981  0.0387 -1.1895  0.9752
11518TIP3   OH255968   3.655   4.909   1.322 -0.6635  0.0602 -0.9153
11518TIP3    H155969   3.643   4.830   1.375  0.6931  0.7940  0.5456
11518TIP3    H255970   3.572   4.955   1.328 -1.3437 -1.0364 -1.4723
11519TIP3   OH255971   3.602   1.400   6.404 -0.0791  0.5457 -0.4329
11519TIP3    H155972   3.579   1.489   6.378 -2.3214 -0.7433 -3.4192
11519TIP3    H255973   3.673   1.376   6.344 -0.8007 -0.2633 -0.9909
11520TIP3   OH255974   5.074   4.788   1.508 -0.2057 -0.1561 -0.8233
11520TIP3    H155975   5.016   4.846   1.556  0.6154  1.1313 -1.3391
11520TIP3    H255976   5.062   4.702   1.549  0.1567  0.7975  1.3777
11521TIP3   OH255977   4.102   0.703  11.454  0.2749 -0.5618 -0.6668
11521TIP3    H155978   4.119   0.625  11.508 -0.4368 -3.1743 -3.9093
11521TIP3    H255979   4.175   0.706  11.393 -0.0148  1.0497 -0.9690
11522TIP3   OH255980   2.215   1.702   3.957  0.0481 -0.4340  0.0563
11522TIP3    H155981   2.279   1.643   3.996 -0.0712 -1.0165 -0.6004
11522TIP3    H255982   2.264   1.749   3.889  0.0631 -0.0065  0.3581
11523TIP3   OH255983   4.920   2.116   1.124  0.4586  0.0252  0.2022
11523TIP3    H155984   4.948   2.204   1.150 -0.6336  0.1505  1.0453
11523TIP3    H255985   4.898   2.073   1.207  1.0113 -1.0660 -0.2010
11524TIP3   OH255986   4.244   4.086  12.514  0.0306  0.2482  0.3501
11524TIP3    H155987   4.222   4.177  12.495  0.7258  0.3064 -0.2147
11524TIP3    H255988   4.339   4.081  12.502 -0.0777 -0.6791 -0.1987
11525TIP3   OH255989   6.441   5.175  16.565  0.3511 -0.0976  0.0244
11525TIP3    H155990   6.434   5.163  16.660  2.8874  1.0355  0.4291
11525TIP3    H255991   6.365   5.228  16.542 -0.5253 -0.7112  1.3368
11526TIP3   OH255992   6.257   0.321  17.402  0.2621  0.4396  0.3104
11526TIP3    H155993   6.347   0.353  17.399  0.3588  0.6755  2.8887
11526TIP3    H255994   6.248   0.263  17.327  2.1743  1.3242 -0.6598
11527TIP3   OH255995   5.488   1.026  16.611 -0.3962 -0.3268  0.8943
11527TIP3    H155996   5.513   0.970  16.686  0.2437 -0.3037  0.7083
11527TIP3    H255997   5.498   0.969  16.535 -0.5637 -0.2055  0.7815
11528TIP3   OH255998   0.528   6.402   3.866 -1.0444 -0.4674  0.5899
11528TIP3    H155999   0.524   6.463   3.792 -0.9829 -1.5523 -0.3351
11528TIP3    H256000   0.529   6.459   3.943  2.6341  0.9481 -0.2389
11529TIP3   OH256001   3.056   1.317   5.193 -0.4259  0.0368  0.6141
11529TIP3    H156002   3.115   1.283   5.125 -2.8560 -1.8761 -0.7076
11529TIP3    H256003   3.072   1.259   5.268 -0.3787 -0.2564  0.3824
11530TIP3   OH256004   4.131   3.693  12.751  0.1674  0.3149 -0.1076
11530TIP3    H156005   4.068   3.629  12.782  0.1731 -0.2321 -1.2010
11530TIP3    H256006   4.078   3.764  12.715  0.1425  1.3263  1.7989
11531TIP3   OH256007   0.653   5.133   3.070 -0.0312 -0.5493  0.4251
11531TIP3    H156008   0.645   5.043   3.100  1.8943 -0.5503  1.0472
11531TIP3    H256009   0.701   5.127   2.988 -0.8771 -0.1572 -0.1133
11532TIP3   OH256010   3.821   1.069   5.032 -0.0238 -0.3375  0.1529
11532TIP3    H156011   3.884   1.129   4.993 -0.5979  0.3988  0.3364
11532TIP3    H256012   3.799   1.009   4.961 -1.7757  1.5647 -1.0200
11533TIP3   OH256013   4.729   5.390   1.391 -0.7169 -0.2360 -0.4421
11533TIP3    H156014   4.778   5.341   1.457 -0.5568 -1.2845 -1.3088
11533TIP3    H256015   4.775   5.474   1.384  0.1950 -0.7138 -0.3305
11534TIP3   OH256016   6.204   3.553  12.878 -0.1015  0.0111 -1.0259
11534TIP3    H156017   6.200   3.613  12.953  0.8459 -1.3341  0.1651
11534TIP3    H256018   6.146   3.593  12.813  0.0926  1.9411 -0.1152
11535TIP3   OH256019   4.200   5.832   1.871  0.0175 -0.3449  0.6407
11535TIP3    H156020   4.257   5.909   1.877  0.1107 -0.4990  1.8164
11535TIP3    H256021   4.192   5.800   1.960 -1.3289 -0.7580  0.4000
11536TIP3   OH256022   3.882   0.114  11.931  0.0187  0.5358 -0.2207
11536TIP3    H156023   3.858   0.178  11.998  2.8220 -0.5835  2.0617
11536TIP3    H256024   3.965   0.146  11.896  0.6551 -1.0071 -0.1716
11537TIP3   OH256025   6.313   2.020  12.448  0.0333 -0.0672  0.3842
11537TIP3    H156026   6.312   2.106  12.492  0.5489  0.1611 -0.0394
11537TIP3    H256027   6.352   2.038  12.363 -2.7017 -0.1391 -0.9729
11538TIP3   OH256028   1.586   4.182   2.824 -0.0312 -0.2258 -0.4371
11538TIP3    H156029   1.613   4.147   2.909  1.4033 -0.1472 -0.8270
11538TIP3    H256030   1.516   4.243   2.844  0.6109  0.1511  0.7555
11539TIP3   OH256031   3.065   2.864  14.471 -0.2497  0.3550 -0.1798
11539TIP3    H156032   3.038   2.944  14.518  2.5612  1.7840 -0.7546
11539TIP3    H256033   3.015   2.866  14.389 -0.5513  1.2989  0.0134
11540TIP3   OH256034   3.345   1.983  16.530 -0.2342  0.3064  0.1522
11540TIP3    H156035   3.318   1.924  16.600 -1.9732 -0.1799 -0.8712
11540TIP3    H256036   3.434   1.955  16.507  1.0008  1.3978  3.0567
11541TIP3   OH256037   1.740   4.176  11.287  0.9006 -0.0003 -0.0988
11541TIP3    H156038   1.781   4.093  11.308 -1.0164 -0.7947  0.7387
11541TIP3    H256039   1.732   4.221  11.372 -1.2055 -0.5030  0.0169
11542TIP3   OH256040   4.212   5.309  12.988  0.4407  0.0004 -0.3741
11542TIP3    H156041   4.190   5.239  13.050  0.4943  0.5874  0.3273
11542TIP3    H256042   4.291   5.350  13.025 -0.6700  1.6655  0.3085
11543TIP3   OH256043   3.069   3.001  15.821  0.0434 -0.1118 -0.0018
11543TIP3    H156044   3.147   3.053  15.805 -1.2273  1.7391 -0.5682
11543TIP3    H256045   3.085   2.957  15.904  1.9177 -0.2880 -0.4261
11544TIP3   OH256046   2.085   3.350  15.866  0.3252 -0.1624  0.3866
11544TIP3    H156047   2.101   3.429  15.917  0.9978  0.1064 -0.2400
11544TIP3    H256048   2.092   3.377  15.775  0.0023 -0.8253  0.1570
11545TIP3   OH256049   4.583   1.407   5.174 -0.2931  0.3094 -0.4558
11545TIP3    H156050   4.630   1.355   5.239  0.7524  2.1277  0.3401
11545TIP3    H256051   4.634   1.398   5.094  0.0755  0.3640 -0.2300
11546TIP3   OH256052   5.818   3.952  14.634  0.5679  0.6672  0.4911
11546TIP3    H156053   5.856   3.869  14.604 -1.6762 -0.5292  0.7313
11546TIP3    H256054   5.857   3.966  14.720  0.2152 -0.7352  0.9056
11547TIP3   OH256055   2.521   0.722  15.470  0.2609 -0.0246  0.4128
11547TIP3    H156056   2.604   0.768  15.455  0.1066  0.2071  0.2429
11547TIP3    H256057   2.459   0.767  15.412 -0.2745  0.6341  1.4744
11548TIP3   OH256058   1.672   3.029   2.142 -0.2735 -0.2791 -0.1972
11548TIP3    H156059   1.679   2.935   2.154  1.3702 -0.1821 -0.1618
11548TIP3    H256060   1.608   3.057   2.207  1.3232 -1.0372  1.8077
11549TIP3   OH256061   1.130   2.971  17.472  0.1423 -0.3835  0.5723
11549TIP3    H156062   1.210   2.922  17.452  1.5493  2.1756 -0.4761
11549TIP3    H256063   1.092   2.925  17.547  2.4374 -1.8483  0.9257
11550TIP3   OH256064   0.381   5.582  12.321  0.0794  0.2811 -0.4399
11550TIP3    H156065   0.433   5.567  12.242  0.4734  0.3825 -0.2030
11550TIP3    H256066   0.334   5.500  12.335  0.5445  0.0167 -0.3872
11551TIP3   OH256067   6.356   1.490   3.074  0.0846  0.4403  0.4732
11551TIP3    H156068   6.360   1.471   2.980  0.4050  0.3807  0.4980
11551TIP3    H256069   6.441   1.529   3.095 -0.6758  2.2122  0.3753
11552TIP3   OH256070   0.970   5.327  15.953  0.4636 -0.4342 -0.5551
11552TIP3    H156071   0.924   5.267  15.894  1.4943 -1.4674 -0.3316
11552TIP3    H256072   0.908   5.342  16.024 -0.7613  0.7439 -1.7888
11553TIP3   OH256073   5.854   6.173  13.007 -0.0664 -0.1317 -0.0383
11553TIP3    H156074   5.863   6.267  12.989  1.0853 -0.4765 -1.4280
11553TIP3    H256075   5.942   6.146  13.034 -0.0370 -1.0653 -1.0191
11554TIP3   OH256076   6.236   6.288   0.732 -0.2897 -0.0918 -0.0307
11554TIP3    H156077   6.144   6.262   0.743 -0.4339 -0.1449 -1.2011
11554TIP3    H256078   6.243   6.371   0.778 -1.9447  1.8715 -3.0291
11555TIP3   OH256079   5.237   4.049   0.601  0.0253 -0.4931  0.5842
11555TIP3    H156080   5.323   4.092   0.608 -0.1717 -0.1847  1.1143
11555TIP3    H256081   5.183   4.112   0.554  0.4701 -1.2692 -1.0354
11556TIP3   OH256082   0.852   2.353   3.082  0.2356 -0.4942  0.4429
11556TIP3    H156083   0.875   2.311   2.999 -2.5535 -1.6921  0.1562
11556TIP3    H256084   0.776   2.408   3.060  0.5141  0.5202  1.9009
11557TIP3   OH256085   0.140   6.491   2.995  0.5328  0.1607 -0.4538
11557TIP3    H156086   0.065   6.527   2.948  1.5745  2.1378 -0.7388
11557TIP3    H256087   0.179   6.428   2.934 -1.5882 -1.9311  0.2231
11558TIP3   OH256088   1.469   1.507  16.552 -0.0046  0.1436  0.2115
11558TIP3    H156089   1.529   1.551  16.612  0.2407  1.0197 -0.6577
11558TIP3    H256090   1.443   1.428  16.598  2.7873 -0.9257  0.1371
11559TIP3   OH256091   2.006   6.718   3.319 -0.3827  0.1060  0.1071
11559TIP3    H156092   2.077   6.755   3.372 -0.2318  0.3144 -0.2384
11559TIP3    H256093   1.985   6.787   3.256  0.0183 -0.4518 -0.6510
11560TIP3   OH256094   4.028   1.012  17.362 -0.1711  0.4350 -0.1884
11560TIP3    H156095   4.052   1.097  17.327 -0.6268  0.2420 -1.0054
11560TIP3    H256096   4.058   0.949  17.296  0.7701 -0.0929  0.7204
11561TIP3   OH256097   5.369   3.080  14.558  0.1143  0.1949 -0.0447
11561TIP3    H156098   5.333   3.098  14.471 -0.4403  1.3217  0.3966
11561TIP3    H256099   5.445   3.138  14.565  0.5926 -0.4139 -0.0344
11562TIP3   OH256100   3.778   2.045   3.239 -0.2842 -0.8114  0.2685
11562TIP3    H156101   3.784   2.019   3.147 -3.2774 -2.6012  0.4656
11562TIP3    H256102   3.860   2.014   3.278  0.7110 -0.6683 -1.5824
11563TIP3   OH256103   1.325   5.340  12.666  0.3398  0.0584 -0.0143
11563TIP3    H156104   1.274   5.383  12.734  0.9337  0.8864 -0.0807
11563TIP3    H256105   1.272   5.349  12.587 -0.5792 -1.3320  0.4099
11564TIP3   OH256106   1.895   6.045   1.038 -0.1729  0.9117  0.1171
11564TIP3    H156107   1.926   6.135   1.039  1.9647  0.2325 -0.4594
11564TIP3    H256108   1.968   5.994   1.003 -1.2011 -1.1036  0.7138
11565TIP3   OH256109   1.973   3.094  13.212 -0.0014 -1.0390 -0.3456
11565TIP3    H156110   2.034   3.035  13.256 -0.7883 -2.1318 -0.6811
11565TIP3    H256111   1.970   3.062  13.122 -0.5930 -0.6075 -0.4812
11566TIP3   OH256112   2.245   6.229  15.401  0.1345  0.1953 -0.3576
11566TIP3    H156113   2.160   6.258  15.434  0.4576 -0.4148  1.0783
11566TIP3    H256114   2.237   6.134  15.392 -0.1449  0.3729 -2.7455
11567TIP3   OH256115   2.360   2.288  17.073 -0.0652 -0.4855 -0.1305
11567TIP3    H156116   2.296   2.357  17.090  2.1794  1.2440  1.8898
11567TIP3    H256117   2.339   2.219  17.136 -0.8951 -0.6690 -0.5916
11568TIP3   OH256118   0.402   5.770   1.734  0.1290 -0.7912  0.1292
11568TIP3    H156119   0.438   5.684   1.752 -0.5344 -1.2707 -0.7417
11568TIP3    H256120   0.457   5.805   1.663  0.2247 -0.6138  0.2899
11569TIP3   OH256121   6.575   0.598   0.144 -0.0770  0.4176  0.2440
11569TIP3    H156122   6.662   0.605   0.183 -0.4160 -0.7230  1.2475
11569TIP3    H256123   6.529   0.677   0.174  0.0414  0.1317  1.1859
11570TIP3   OH256124   6.121   3.830  14.605  0.6251 -0.3440 -0.1169
11570TIP3    H156125   6.035   3.800  14.575  0.1507  1.4286 -0.6992
11570TIP3    H256126   6.138   3.780  14.685 -1.1898 -0.3900  0.2818
11571TIP3   OH256127   1.291   3.828   0.601 -0.0255  0.1665  0.0240
11571TIP3    H156128   1.386   3.836   0.610  0.2015 -1.3014 -0.6290
11571TIP3    H256129   1.275   3.734   0.603 -1.5724  0.4186  0.9214
11572TIP3   OH256130   6.553   0.428  14.595 -0.9661  1.1168  0.1239
11572TIP3    H156131   6.477   0.371  14.600  0.5680 -0.9819  0.9188
11572TIP3    H256132   6.599   0.400  14.515  0.3966  0.3890  1.1261
11573TIP3   OH256133   3.272   5.874  11.651  0.2667 -0.0229 -0.1007
11573TIP3    H156134   3.323   5.955  11.643 -0.2926  0.3700  0.2458
11573TIP3    H256135   3.325   5.817  11.706 -0.1276  0.7788  1.1408
11574TIP3   OH256136   2.911   0.070  12.417 -0.6366  0.2747  0.1205
11574TIP3    H156137   2.915   0.019  12.497 -3.7438  0.6596  0.6743
11574TIP3    H256138   2.953   0.016  12.351 -0.1985 -1.1478  1.5187
11575TIP3   OH256139   4.894   3.211   5.619  0.4040 -0.5240 -0.4643
11575TIP3    H156140   4.933   3.137   5.665  2.1184 -0.9113 -2.4022
11575TIP3    H256141   4.874   3.274   5.688  0.7669 -1.9592  1.0240
11576TIP3   OH256142   4.396   0.403  11.970  0.2591  0.5422  0.2276
11576TIP3    H156143   4.325   0.354  11.928 -0.6376  0.5298  1.6748
11576TIP3    H256144   4.351   0.469  12.022  1.2756  0.2315  1.5614
11577TIP3   OH256145   5.985   0.299  16.962  0.2855 -0.3388  0.0116
11577TIP3    H156146   5.936   0.217  16.965  1.2850 -0.9380  0.4762
11577TIP3    H256147   5.973   0.337  17.049 -0.7349  0.3517 -0.4217
11578TIP3   OH256148   3.879   6.408   0.553  0.0182  0.6384  0.0651
11578TIP3    H156149   3.848   6.390   0.642 -1.2414  1.4205 -0.1903
11578TIP3    H256150   3.811   6.464   0.515 -0.8126 -1.7826 -2.2834
11579TIP3   OH256151   1.446   4.922   1.530  0.3363  0.4732  0.3332
11579TIP3    H156152   1.405   4.878   1.455  0.1588  0.6169  0.3442
11579TIP3    H256153   1.382   4.913   1.601 -0.7213  2.6612 -0.2447
11580TIP3   OH256154   3.666   1.531  10.860 -0.0404 -0.0319 -0.2742
11580TIP3    H156155   3.638   1.607  10.912  0.1707 -1.0616  1.4105
11580TIP3    H256156   3.761   1.536  10.860 -0.0357  0.7893 -1.9144
11581TIP3   OH256157   2.785   0.919   2.116 -0.5724  0.0695  0.2948
11581TIP3    H156158   2.718   0.959   2.061 -0.8066  0.1569  0.6356
11581TIP3    H256159   2.741   0.905   2.200 -0.5885 -1.1710  0.0984
11582TIP3   OH256160   0.600   2.613  17.305 -0.4083 -0.6187  0.4863
11582TIP3    H156161   0.692   2.605  17.333 -0.6082 -0.6116  1.1477
11582TIP3    H256162   0.549   2.581  17.379 -1.1029  2.6593  1.6156
11583TIP3   OH256163   4.682   5.785   1.249  0.7647  0.2313  0.1152
11583TIP3    H156164   4.730   5.770   1.330  0.7922  0.1986  0.0930
11583TIP3    H256165   4.602   5.830   1.276  0.9916  0.6436  0.1085
11584TIP3   OH256166   1.283   6.605   0.104 -0.3718  0.1622 -0.1162
11584TIP3    H156167   1.224   6.679   0.115 -1.2088 -0.4870 -0.1241
11584TIP3    H256168   1.323   6.619   0.018 -0.9405  0.3182 -0.3584
11585TIP3   OH256169   1.696   2.449  12.147  0.3226  0.3382 -0.2563
11585TIP3    H156170   1.634   2.383  12.178  0.7878  0.2207  0.4820
11585TIP3    H256171   1.775   2.433  12.199  0.6354  1.1144 -0.4698
11586TIP3   OH256172   0.275   0.899  11.511 -0.3051  0.1245 -0.2487
11586TIP3    H156173   0.254   0.819  11.463 -2.4706 -0.5039  1.6116
11586TIP3    H256174   0.204   0.910  11.574  1.9658  1.3025  2.3380
11587TIP3   OH256175   4.755   6.515   1.558 -0.2530  0.0292  0.1558
11587TIP3    H156176   4.672   6.508   1.511 -0.0441  0.2398 -0.2530
11587TIP3    H256177   4.806   6.577   1.506  0.2057 -0.1927  0.3433
11588TIP3   OH256178   5.459   1.988  15.417 -0.0825 -0.0433  0.8338
11588TIP3    H156179   5.452   2.078  15.383  2.8958 -0.1375 -0.4037
11588TIP3    H256180   5.377   1.946  15.393 -0.7177  1.7975 -0.4233
11589TIP3   OH256181   1.661   1.860  11.228  0.1647 -0.0962  0.0970
11589TIP3    H156182   1.755   1.852  11.212  0.2370  0.5896  0.1361
11589TIP3    H256183   1.648   1.953  11.247 -0.5791 -0.1125 -0.2955
11590TIP3   OH256184   1.264   5.265  15.308 -0.0159  0.0213 -0.6937
11590TIP3    H156185   1.338   5.289  15.253  0.9701  0.6519  0.8637
11590TIP3    H256186   1.270   5.323  15.384 -1.4004 -0.7472  0.0480
11591TIP3   OH256187   2.701   5.396  15.649  0.0160 -0.1585  0.0897
11591TIP3    H156188   2.610   5.427  15.656 -0.8435 -2.0967 -1.3195
11591TIP3    H256189   2.740   5.453  15.583 -1.5173 -1.7872 -2.4290
11592TIP3   OH256190   1.072   1.412  16.186 -0.0175 -1.0845  0.0929
11592TIP3    H156191   1.043   1.493  16.145  2.4213  0.2433  0.7992
11592TIP3    H256192   1.109   1.439  16.270  1.8555 -2.7602 -0.1206
11593TIP3   OH256193   2.736   1.956   0.372  0.1105  0.1419  0.2096
11593TIP3    H156194   2.781   1.871   0.368  0.7976  0.4911  0.4765
11593TIP3    H256195   2.710   1.965   0.463 -1.1313 -0.3753 -0.0792
11594TIP3   OH256196   1.483   6.135  16.679 -0.3364  0.2829 -0.2648
11594TIP3    H156197   1.577   6.148  16.686 -0.3120  0.3201 -0.6757
11594TIP3    H256198   1.473   6.042  16.658 -0.3822  0.3273 -0.4389
11595TIP3   OH256199   4.986   2.724   5.473  0.7965  0.8373  0.0671
11595TIP3    H156200   4.979   2.645   5.527 -0.3838  1.3165  0.6463
11595TIP3    H256201   5.041   2.697   5.399 -2.0981 -1.5228 -1.4419
11596TIP3   OH256202   1.802   0.664  11.929 -0.3538 -0.3195 -0.7663
11596TIP3    H156203   1.847   0.648  12.012 -0.6655  0.1120 -0.5101
11596TIP3    H256204   1.759   0.749  11.941  1.2616  0.7558 -2.0708
11597TIP3   OH256205   5.245   0.800  11.503  0.1438  0.6049  0.7159
11597TIP3    H156206   5.262   0.891  11.478 -0.9905  0.9159  1.0087
11597TIP3    H256207   5.163   0.804  11.551 -0.8187 -0.8049 -0.7237
11598TIP3   OH256208   4.995   1.944   0.692 -0.2022  0.0187 -0.1395
11598TIP3    H156209   5.086   1.941   0.664  0.2498 -0.0561  1.2999
11598TIP3    H256210   4.984   2.032   0.728 -0.8080  0.1541 -0.6356
11599TIP3   OH256211   2.293   4.112  15.316  0.5930 -0.0620 -0.1383
11599TIP3    H156212   2.388   4.117  15.321  0.4570  2.2774  2.0311
11599TIP3    H256213   2.265   4.203  15.308 -1.5096 -0.4510  1.8078
11600TIP3   OH256214   1.056   0.720  11.180  0.3072  0.3652  0.5128
11600TIP3    H156215   1.009   0.692  11.101 -0.4147  0.9034  0.7370
11600TIP3    H256216   0.989   0.764  11.233  0.5107 -0.9965  1.9533
11601TIP3   OH256217   1.275   2.496   6.457  0.1885  0.7266 -0.2940
11601TIP3    H156218   1.353   2.483   6.511  1.3085  0.0678 -1.9701
11601TIP3    H256219   1.296   2.571   6.402 -0.5547  0.8363 -0.4360
11602TIP3   OH256220   1.102   1.534   3.648 -0.6459  0.0063 -0.0844
11602TIP3    H156221   1.090   1.460   3.589 -0.3235  0.3247 -0.5573
11602TIP3    H256222   1.038   1.599   3.620  0.5645  0.7973 -1.1455
11603TIP3   OH256223   2.365   2.024  16.016 -0.0256 -0.0541 -0.0752
11603TIP3    H156224   2.384   2.021  15.922  0.5390 -1.5350  0.0598
11603TIP3    H256225   2.335   1.936  16.037 -1.2677  0.5840  0.9361
11604TIP3   OH256226   2.744   3.576   1.311 -0.1083  0.4590 -0.3719
11604TIP3    H156227   2.738   3.587   1.406 -0.4564  1.1753 -0.4688
11604TIP3    H256228   2.654   3.588   1.279  0.4002  3.0692 -1.0502
11605TIP3   OH256229   2.295   1.435   4.517  0.1590  0.3103  0.0784
11605TIP3    H156230   2.303   1.480   4.601 -0.4618 -0.2831  0.4691
11605TIP3    H256231   2.384   1.430   4.484  0.4063  0.5823  0.6867
11606TIP3   OH256232   6.493   1.199  11.993 -0.1527  0.1588 -0.4248
11606TIP3    H156233   6.416   1.194  12.050 -0.2976  1.2768 -0.5098
11606TIP3    H256234   6.516   1.291  11.990  2.6400 -0.3719  1.4423
11607TIP3   OH256235   4.096   5.530   4.500  0.7204 -0.1581 -0.7705
11607TIP3    H156236   4.151   5.583   4.442  2.8229  0.3839  1.5577
11607TIP3    H256237   4.149   5.451   4.517 -0.5719 -1.0733 -0.8453
11608TIP3   OH256238   0.498   3.740   1.177 -0.0450  0.5350 -0.1519
11608TIP3    H156239   0.511   3.721   1.084 -1.3694  1.5503 -0.5731
11608TIP3    H256240   0.463   3.659   1.214  2.3258 -0.5461 -0.0628
11609TIP3   OH256241   0.636   6.215  15.601 -0.3462  0.0050  0.5489
11609TIP3    H156242   0.616   6.132  15.557  0.7829  0.2727 -0.5262
11609TIP3    H256243   0.551   6.250  15.626 -0.8503 -1.4496  0.9951
11610TIP3   OH256244   1.121   0.265   2.005  0.1546 -0.0247  0.2591
11610TIP3    H156245   1.105   0.203   2.076 -1.3139 -0.9960 -0.8465
11610TIP3    H256246   1.167   0.214   1.938 -0.9535  0.0589 -0.6086
11611TIP3   OH256247   6.561   4.672   2.568 -0.7462  0.2832 -0.3151
11611TIP3    H156248   6.483   4.703   2.522 -0.7232  0.0798 -0.4929
11611TIP3    H256249   6.621   4.647   2.498 -0.9904 -0.7321 -0.1757
11612TIP3   OH256250   1.332   3.337  12.459 -0.3692 -0.5043 -0.3413
11612TIP3    H156251   1.365   3.310  12.373 -0.7748 -1.9081 -0.0828
11612TIP3    H256252   1.408   3.375  12.503 -0.1794  0.3336 -1.3355
11613TIP3   OH256253   4.654   5.392   5.825 -0.0339  0.2654 -0.4050
11613TIP3    H156254   4.663   5.311   5.776  0.1789  0.1673 -0.2049
11613TIP3    H256255   4.738   5.436   5.815  0.0659  0.1730 -0.0048
11614TIP3   OH256256   2.171   1.021  14.126  0.0346  0.0748 -0.5511
11614TIP3    H156257   2.172   0.976  14.211  1.3804 -0.3012 -0.7480
11614TIP3    H256258   2.214   1.104  14.142 -0.0513  0.1639 -0.7838
11615TIP3   OH256259   1.833   0.096  12.941  1.0793 -0.2765  0.3605
11615TIP3    H156260   1.750   0.139  12.962  1.3668  0.7757 -0.5836
11615TIP3    H256261   1.808   0.008  12.913  0.4018 -0.4302  1.3830
11616TIP3   OH256262   1.284   4.876   3.649  0.2822 -0.4836 -0.1436
11616TIP3    H156263   1.222   4.805   3.633  1.3679 -1.2081 -1.2943
11616TIP3    H256264   1.273   4.935   3.574 -0.6057  0.5930  0.7959
11617TIP3   OH256265   4.579   5.793  11.553 -0.1703  0.0577  0.4049
11617TIP3    H156266   4.665   5.750  11.553 -0.5865 -0.8131  1.1514
11617TIP3    H256267   4.598   5.886  11.540  0.8300 -0.2172 -0.2061
11618TIP3   OH256268   1.238   2.276  12.019  0.0377  0.1350 -0.4897
11618TIP3    H156269   1.192   2.253  11.939 -1.6387 -1.4720  0.8571
11618TIP3    H256270   1.170   2.308  12.078  1.0415  0.1382  0.7092
11619TIP3   OH256271   0.438   4.929  11.586 -0.2512  0.2308 -0.8479
11619TIP3    H156272   0.447   4.920  11.491  0.8124  1.0443 -0.8357
11619TIP3    H256273   0.423   5.022  11.600  2.0075  0.5274 -0.0598
11620TIP3   OH256274   3.570   0.319   5.199  0.6835 -0.2000 -0.0814
11620TIP3    H156275   3.611   0.394   5.157  0.2716  1.1332  1.7526
11620TIP3    H256276   3.562   0.344   5.291 -3.7570 -0.5105 -0.1538
11621TIP3   OH256277   0.800   0.601   2.720 -0.1888  0.2407 -0.6385
11621TIP3    H156278   0.791   0.691   2.688 -0.0448  0.5101  0.0409
11621TIP3    H256279   0.750   0.601   2.802 -0.6183 -0.4463 -0.8956
11622TIP3   OH256280   3.796   0.387  15.042 -0.9400 -0.0557 -0.5977
11622TIP3    H156281   3.770   0.476  15.066  0.9956  0.5260 -0.4341
11622TIP3    H256282   3.773   0.379  14.949 -1.2318  0.5836 -0.5807
11623TIP3   OH256283   4.582   5.781  13.208 -0.0899  0.0557  0.9520
11623TIP3    H156284   4.595   5.704  13.154 -3.1829 -0.3989  0.6996
11623TIP3    H256285   4.605   5.753  13.296  0.9268 -0.4658  0.5311
11624TIP3   OH256286   5.699   5.556  15.098 -0.4159 -0.1767 -0.0808
11624TIP3    H156287   5.794   5.547  15.083 -0.3156 -0.8332  0.8211
11624TIP3    H256288   5.678   5.483  15.157 -1.4360  0.1269 -0.0591
11625TIP3   OH256289   3.232   0.775   1.613  0.0938  0.1805 -0.2451
11625TIP3    H156290   3.248   0.695   1.665  1.7503  0.4616 -0.2472
11625TIP3    H256291   3.197   0.742   1.530 -1.1236 -0.3874  0.4704
11626TIP3   OH256292   0.755   1.513   4.768  0.4736 -0.2444 -0.3181
11626TIP3    H156293   0.809   1.591   4.760  1.1023 -0.6977 -0.5658
11626TIP3    H256294   0.776   1.461   4.690 -2.2554  0.7340 -1.8578
11627TIP3   OH256295   3.183   2.680  13.916 -0.4339 -0.3261  0.1005
11627TIP3    H156296   3.144   2.607  13.869  1.1208 -2.0289  1.3204
11627TIP3    H256297   3.153   2.758  13.868 -2.1080 -1.7183 -1.2681
11628TIP3   OH256298   4.807   5.678   5.281 -0.0142 -0.2103  0.4461
11628TIP3    H156299   4.798   5.768   5.249 -1.7312  0.0769  1.5753
11628TIP3    H256300   4.762   5.625   5.216 -0.2291 -0.0699  0.4759
11629TIP3   OH256301   2.142   5.615  10.740  0.7854  0.0767 -0.6111
11629TIP3    H156302   2.088   5.694  10.734  1.1245  0.3556 -0.1136
11629TIP3    H256303   2.105   5.567  10.814  1.7246  0.6849  0.2887
11630TIP3   OH256304   3.649   2.769   6.425  0.0136  0.1946  0.2630
11630TIP3    H156305   3.670   2.827   6.352  0.3744 -0.8811 -0.5099
11630TIP3    H256306   3.569   2.807   6.463  0.4857  1.4364  0.0682
11631TIP3   OH256307   5.718   1.018   5.716 -0.2421  0.3829 -0.1490
11631TIP3    H156308   5.813   1.023   5.722 -0.1379 -1.3855  0.3533
11631TIP3    H256309   5.691   1.104   5.685  1.3750  1.4444  1.2482
11632TIP3   OH256310   3.873   5.822   5.594  0.0851  0.3855  0.0989
11632TIP3    H156311   3.810   5.751   5.577  0.3896 -0.2061  1.3321
11632TIP3    H256312   3.950   5.777   5.628  1.0660  1.1418 -1.0376
11633TIP3   OH256313   5.733   1.170  12.411  0.9706 -0.1696  0.0039
11633TIP3    H156314   5.706   1.212  12.493  0.2963  0.8560 -0.7090
11633TIP3    H256315   5.658   1.116  12.386  1.0953 -0.3261 -0.0305
11634TIP3   OH256316   6.391   4.029  17.375 -0.0587  0.8682  0.0231
11634TIP3    H156317   6.445   4.103  17.347  1.1012  0.0325  0.0043
11634TIP3    H256318   6.369   3.983  17.295  2.5675 -1.0484  0.2867
11635TIP3   OH256319   1.134   0.773   4.847  0.6161 -0.5046 -0.1469
11635TIP3    H156320   1.206   0.734   4.896 -0.3314 -0.1053  1.6898
11635TIP3    H256321   1.055   0.739   4.890 -0.2596  0.2774 -1.0854
11636TIP3   OH256322   0.934   4.295  11.982  0.3568  0.1901  0.1249
11636TIP3    H156323   0.911   4.376  12.028  1.1211  0.5735 -0.1559
11636TIP3    H256324   0.877   4.229  12.020  1.0575  0.4654  1.7132
11637TIP3   OH256325   0.859   2.196   6.052 -0.0800  0.5053  0.1469
11637TIP3    H156326   0.858   2.274   6.108  0.5450  1.0798 -0.6343
11637TIP3    H256327   0.866   2.123   6.114 -1.0568  1.0311  0.9126
11638TIP3   OH256328   1.102   3.106   0.353  0.1880 -0.0513 -0.4412
11638TIP3    H156329   1.170   3.038   0.356 -0.6639 -0.9246 -0.2371
11638TIP3    H256330   1.149   3.188   0.368  1.0342 -0.7533  0.9755
11639TIP3   OH256331   3.099   3.243   6.116  0.0631  0.2758  0.4180
11639TIP3    H156332   3.135   3.329   6.139 -0.0622 -0.1564  2.3916
11639TIP3    H256333   3.029   3.261   6.053  0.8274  1.4908 -0.1144
11640TIP3   OH256334   0.522   5.148   6.018  0.1871 -0.3024 -0.4661
11640TIP3    H156335   0.436   5.135   5.977 -0.3617 -1.6085  1.0152
11640TIP3    H256336   0.503   5.204   6.094  0.5939 -0.8424  0.0364
11641TIP3   OH256337   1.172   3.301  16.787  0.8009  0.5355 -0.4421
11641TIP3    H156338   1.085   3.326  16.757  1.3850  0.9830 -1.9074
11641TIP3    H256339   1.200   3.373  16.844 -0.1515 -0.0949  0.8660
11642TIP3   OH256340   5.271   0.934   3.926 -0.2637 -0.1177 -0.0483
11642TIP3    H156341   5.221   0.857   3.900 -1.6450  0.9542 -0.6705
11642TIP3    H256342   5.327   0.902   3.997 -3.7681 -0.8604  2.6884
11643TIP3   OH256343   6.103   0.475  17.197 -0.7597  0.1293 -0.0469
11643TIP3    H156344   6.041   0.405  17.218 -0.7679  0.2124  0.2083
11643TIP3    H256345   6.184   0.449  17.242 -0.8095  0.3628  0.1849
11644TIP3   OH256346   6.644   4.409   3.476 -0.3394  0.5179  0.3350
11644TIP3    H156347   6.628   4.470   3.404  1.0288  0.9717  0.3902
11644TIP3    H256348   6.574   4.345   3.469  0.1221  0.1752 -1.8219
11645TIP3   OH256349   4.040   3.743  10.710  0.2091 -0.1378 -0.0816
11645TIP3    H156350   4.035   3.750  10.806 -2.6415 -1.6528 -0.0154
11645TIP3    H256351   4.049   3.833  10.679  1.4610  0.3602  1.5737
11646TIP3   OH256352   1.814   3.181   0.013 -0.0644 -0.0432  0.0402
11646TIP3    H156353   1.731   3.181  -0.035  0.5578 -2.3543 -1.2237
11646TIP3    H256354   1.851   3.268  -0.002 -1.6723  0.6013 -0.3987
11647TIP3   OH256355   3.844   5.499  15.268  0.3524  0.3640 -0.0219
11647TIP3    H156356   3.938   5.511  15.252  0.0545  1.6294 -0.9591
11647TIP3    H256357   3.808   5.475  15.183 -0.0362 -1.1788  0.5569
11648TIP3   OH256358   1.165   4.115  12.788 -0.0147  0.0637 -0.4606
11648TIP3    H156359   1.234   4.049  12.790  0.3788  0.4421 -1.2621
11648TIP3    H256360   1.190   4.175  12.718  1.3067  2.8854  2.1778
11649TIP3   OH256361   1.916   5.554   0.158 -0.0285 -0.1884 -0.0556
11649TIP3    H156362   1.993   5.611   0.159 -0.9892  1.1637  0.3906
11649TIP3    H256363   1.879   5.566   0.071  0.2789 -0.8803 -0.2884
11650TIP3   OH256364   2.790   0.250  16.551  0.3421  0.5794 -0.4137
11650TIP3    H156365   2.868   0.303  16.533 -1.1171  3.8280  1.7167
11650TIP3    H256366   2.761   0.279  16.637 -1.9541 -2.1970 -0.1041
11651TIP3   OH256367   2.455   5.047   3.946  0.1260 -0.0594  0.1214
11651TIP3    H156368   2.447   5.020   4.038  0.0514 -0.7145 -0.0735
11651TIP3    H256369   2.365   5.054   3.915  0.0606  2.2022  0.6627
11652TIP3   OH256370   6.309   0.986  17.426  0.8049  0.0127  0.6285
11652TIP3    H156371   6.334   0.897  17.452  2.3301 -0.0047 -0.7603
11652TIP3    H256372   6.227   0.973  17.376  0.7893 -0.5606  0.7921
11653TIP3   OH256373   2.484   0.658   1.839 -0.3015 -0.0151 -0.3411
11653TIP3    H156374   2.402   0.639   1.883 -0.6718  0.7640 -0.6716
11653TIP3    H256375   2.472   0.628   1.749  0.4300 -1.5449  0.0415
11654TIP3   OH256376   2.338   3.486  15.514  0.1299  0.2990  0.1511
11654TIP3    H156377   2.341   3.462  15.422 -1.2137  1.2063 -0.1653
11654TIP3    H256378   2.407   3.552  15.524 -0.8529  1.4883 -0.6408
11655TIP3   OH256379   3.452   3.035  11.609  0.1902  0.2118 -0.1617
11655TIP3    H156380   3.500   3.003  11.686  0.5000 -0.5319 -0.6454
11655TIP3    H256381   3.491   2.988  11.536 -0.8459  0.0809 -0.6483
11656TIP3   OH256382   5.641   1.070  14.266  0.4712  0.0273  0.0792
11656TIP3    H156383   5.667   1.127  14.195  1.5057  0.3422  0.6967
11656TIP3    H256384   5.715   1.010  14.278 -0.7510 -1.7591 -0.8386
11657TIP3   OH256385   0.124   4.934   5.797  0.7117  0.6648  0.0684
11657TIP3    H156386   0.204   4.957   5.844  0.6474  0.4200  0.3010
11657TIP3    H256387   0.076   4.877   5.858 -0.0982  1.5948  0.3237
11658TIP3   OH256388   5.426   1.555  12.276 -0.0004 -0.1962  0.0105
11658TIP3    H156389   5.367   1.598  12.214  0.2919  1.4158  0.7935
11658TIP3    H256390   5.444   1.622  12.342  1.0686 -1.3172  0.9039
11659TIP3   OH256391   1.209   6.236   2.880 -0.0177  0.0537 -0.1251
11659TIP3    H156392   1.195   6.181   2.803 -1.7938  0.8489 -0.4021
11659TIP3    H256393   1.275   6.300   2.853  1.3191 -1.2737 -0.1146
11660TIP3   OH256394   2.907   2.830   0.620  0.0983  0.1685 -0.2602
11660TIP3    H156395   2.990   2.807   0.662 -0.6483 -0.7232  0.7965
11660TIP3    H256396   2.906   2.779   0.539  0.3183 -0.2989  0.0267
11661TIP3   OH256397   1.895   2.044  14.190 -0.2080  0.1366 -0.0689
11661TIP3    H156398   1.853   2.033  14.276 -0.3924 -0.4825 -0.2323
11661TIP3    H256399   1.844   2.112  14.147  1.5402  2.5050  1.3414
11662TIP3   OH256400   3.739   3.903   0.555 -0.1296 -0.2838  0.0846
11662TIP3    H156401   3.787   3.837   0.606  0.1925 -1.1222 -1.2599
11662TIP3    H256402   3.765   3.887   0.465 -0.9657  0.9467 -0.3974
11663TIP3   OH256403   0.232   1.615  14.243 -0.3160  0.2093 -0.5578
11663TIP3    H156404   0.225   1.541  14.304 -0.3971  0.7091  0.0511
11663TIP3    H256405   0.297   1.673  14.283 -1.8538  1.5361  0.1225
11664TIP3   OH256406   6.634   2.223  10.771 -0.5376  0.6084  0.0090
11664TIP3    H156407   6.633   2.129  10.789 -1.9142  0.7833  0.9921
11664TIP3    H256408   6.727   2.244  10.762 -0.0873 -0.5401  1.5166
11665TIP3   OH256409   0.995   0.176   3.487  0.5177 -0.0781 -0.4583
11665TIP3    H156410   1.015   0.256   3.535 -0.3978  1.1243 -2.0034
11665TIP3    H256411   1.057   0.175   3.414  0.4052 -0.7040 -0.5532
11666TIP3   OH256412   2.127   4.513   6.667 -0.0947 -0.0244  0.2451
11666TIP3    H156413   2.099   4.518   6.759  0.2591 -0.3203  0.3721
11666TIP3    H256414   2.068   4.449   6.627 -1.5431  1.5263 -0.2303
11667TIP3   OH256415   1.809   0.367   6.432  0.3128  0.0781 -0.4169
11667TIP3    H156416   1.798   0.448   6.383  1.8310 -0.0042 -0.9525
11667TIP3    H256417   1.768   0.300   6.378  1.6418  0.0503 -1.4237
11668TIP3   OH256418   3.023   2.126   6.224  0.3011  0.7578  0.0131
11668TIP3    H156419   2.984   2.040   6.211  1.3492  0.3796 -0.7946
11668TIP3    H256420   3.052   2.126   6.315  0.5523  0.1377 -0.0629
11669TIP3   OH256421   0.058   1.264  14.188  0.2907 -0.2548  0.2725
11669TIP3    H156422   0.055   1.307  14.274 -1.9672 -1.0625  0.6634
11669TIP3    H256423   0.140   1.215  14.189  1.1972  1.1985  1.2214
11670TIP3   OH256424   5.022   0.535   5.562  0.0813  0.1472  0.0962
11670TIP3    H156425   5.092   0.530   5.627  0.6113  0.7077 -0.4162
11670TIP3    H256426   5.026   0.625   5.529  0.8637 -0.5547 -1.8438
11671TIP3   OH256427   0.760   0.234  14.445  0.5913  0.2359 -0.5464
11671TIP3    H156428   0.842   0.275  14.420  1.3296 -0.3783  0.8231
11671TIP3    H256429   0.741   0.173  14.373  1.6279 -0.0357 -0.5955
11672TIP3   OH256430   4.001   3.169  11.029 -0.3341  0.2410  0.3757
11672TIP3    H156431   3.914   3.185  10.992 -0.0255  0.7598 -0.1365
11672TIP3    H256432   4.032   3.091  10.983  0.2968  1.2360 -0.9265
11673TIP3   OH256433   5.516   0.831  15.755  0.5480  0.1522  0.1429
11673TIP3    H156434   5.495   0.918  15.721 -0.6987 -0.5781 -1.0550
11673TIP3    H256435   5.575   0.793  15.690 -0.7463 -0.7357 -0.5516
11674TIP3   OH256436   6.117   1.737   2.790 -0.5501 -0.0469  0.3741
11674TIP3    H156437   6.094   1.646   2.809  0.3983 -0.2473  0.5689
11674TIP3    H256438   6.034   1.777   2.763 -1.1035 -0.7968  0.9273
11675TIP3   OH256439   1.601   1.884  12.803 -0.1446  0.4822 -0.0962
11675TIP3    H156440   1.655   1.911  12.878  0.1382 -1.4141  0.4237
11675TIP3    H256441   1.645   1.807  12.768 -1.5984 -0.1035 -0.7133
11676TIP3   OH256442   1.000   5.454   5.752 -0.0236 -0.4946 -0.0342
11676TIP3    H156443   1.061   5.387   5.720  0.6131 -0.1210  0.3703
11676TIP3    H256444   1.054   5.512   5.805 -0.8161 -0.3933  0.6961
11677TIP3   OH256445   1.213   6.282   3.177 -0.4494  0.1240  0.4687
11677TIP3    H156446   1.141   6.224   3.151 -0.3523 -0.0274  0.5421
11677TIP3    H256447   1.292   6.233   3.157 -0.3131  0.9580 -1.2626
11678TIP3   OH256448   6.067   2.492   0.475 -0.2311 -0.2610 -0.5807
11678TIP3    H156449   6.143   2.538   0.512 -0.3525  0.1306 -0.8160
11678TIP3    H256450   6.060   2.412   0.528  0.1782 -0.1682 -0.3790
11679TIP3   OH256451   3.815   1.757  11.706 -0.5142 -0.6191 -0.1652
11679TIP3    H156452   3.808   1.666  11.733 -1.1614  0.0541  2.1579
11679TIP3    H256453   3.815   1.806  11.788  2.1926  1.3567 -1.2052
11680TIP3   OH256454   0.221   1.011   2.926 -0.6981 -0.0212 -0.3134
11680TIP3    H156455   0.156   0.944   2.904 -0.2635 -0.7245  0.5050
11680TIP3    H256456   0.244   0.993   3.017  0.2544  0.5524 -0.4299
11681TIP3   OH256457   4.880   3.802  16.889 -0.3739  0.3036  0.0799
11681TIP3    H156458   4.889   3.876  16.949  0.1825 -0.2823  0.7321
11681TIP3    H256459   4.962   3.800  16.840  0.8243 -1.4858  1.9607
11682TIP3   OH256460   1.805   0.036  13.531 -0.0999 -0.2933  0.0836
11682TIP3    H156461   1.849   0.088  13.598 -0.2264 -2.0518  1.6132
11682TIP3    H256462   1.847   0.062  13.449 -0.5973  2.6335  0.6449
11683TIP3   OH256463   4.431   0.529  11.277 -0.8184 -0.6284 -0.0026
11683TIP3    H156464   4.481   0.449  11.257  1.0399  0.3248  0.5643
11683TIP3    H256465   4.369   0.538  11.204 -0.3593 -2.0335 -0.5977
11684TIP3   OH256466   6.112   4.616  12.639  0.2281 -0.9029  0.6281
11684TIP3    H156467   6.204   4.591  12.634  0.2065 -1.1673  1.3826
11684TIP3    H256468   6.114   4.712  12.646  0.3261 -0.6690 -1.7710
11685TIP3   OH256469   0.256   6.097   5.806 -0.3504  0.0458  0.0307
11685TIP3    H156470   0.296   6.142   5.880 -0.0732 -0.8793  0.4553
11685TIP3    H256471   0.162   6.108   5.818 -0.4307 -1.9426  1.7563
11686TIP3   OH256472   5.398   5.141  11.645  0.2873  0.0773  0.0022
11686TIP3    H156473   5.396   5.129  11.550 -0.1766 -0.1586  0.0404
11686TIP3    H256474   5.484   5.181  11.662  0.0499  0.8768 -0.6000
11687TIP3   OH256475   3.323   2.515  13.397 -0.3833 -0.1353 -0.0098
11687TIP3    H156476   3.319   2.468  13.481 -2.3046  0.1948  0.1227
11687TIP3    H256477   3.250   2.577  13.401  1.7130  2.5126 -0.4365
11688TIP3   OH256478   3.767   0.708  17.049 -0.0548  0.0818  0.4243
11688TIP3    H156479   3.675   0.735  17.041  0.0417  0.8414  1.6092
11688TIP3    H256480   3.812   0.786  17.082  0.7355 -0.7200  1.3073
11689TIP3   OH256481   5.789   6.118   5.102  0.3143 -0.2984 -0.0710
11689TIP3    H156482   5.719   6.154   5.048 -0.0753 -1.1411 -0.1536
11689TIP3    H256483   5.864   6.109   5.043  0.1609 -0.4015 -0.2499
11690TIP3   OH256484   5.587   3.341  13.774  0.4521 -0.6195 -0.7022
11690TIP3    H156485   5.610   3.403  13.705  1.0034 -1.9634 -1.7776
11690TIP3    H256486   5.491   3.342  13.777  0.4594  1.1843  0.1907
11691TIP3   OH256487   4.145   5.126  12.092  0.2263  0.7515 -0.3673
11691TIP3    H156488   4.121   5.127  11.999  1.8607  2.4498 -0.8433
11691TIP3    H256489   4.120   5.213  12.123  1.7672  1.0117  0.1852
11692TIP3   OH256490   4.284   5.721   6.199  0.2370  0.2300  0.2784
11692TIP3    H156491   4.313   5.737   6.289  0.3125  0.1253  0.2741
11692TIP3    H256492   4.212   5.782   6.185  0.2222  0.2432  0.4115
11693TIP3   OH256493   0.700   2.416  11.670 -0.5139  0.8612 -0.4004
11693TIP3    H156494   0.652   2.498  11.677  0.7460  1.5071  1.1626
11693TIP3    H256495   0.659   2.359  11.735  0.0102  0.9956  0.0529
11694TIP3   OH256496   0.142   5.716   5.839  0.7667  0.3654 -0.3894
11694TIP3    H156497   0.184   5.695   5.923  0.7847 -1.8582 -0.8778
11694TIP3    H256498   0.058   5.669   5.841 -0.8686  3.1065 -0.2571
11695TIP3   OH256499   0.228   5.929  11.135 -0.3921 -0.4888 -0.3488
11695TIP3    H156500   0.290   5.868  11.094  0.6560 -0.6050  1.3287
11695TIP3    H256501   0.261   5.941  11.223 -2.5332 -0.1977  0.4781
11696TIP3   OH256502   5.597   5.695  12.492  0.4681 -0.4532 -0.3351
11696TIP3    H156503   5.598   5.778  12.539  0.4537 -0.1789 -0.8140
11696TIP3    H256504   5.510   5.692  12.452 -0.8605 -2.2269  2.3506
11697TIP3   OH256505   4.418   6.344  13.133  0.2073 -0.0206 -0.3356
11697TIP3    H156506   4.343   6.308  13.086  0.3311 -0.4253 -0.2258
11697TIP3    H256507   4.441   6.277  13.197  0.6616  0.1056 -0.3633
11698TIP3   OH256508   0.180   3.236  15.717 -0.4679 -0.2176 -0.7064
11698TIP3    H156509   0.175   3.232  15.622 -1.7637 -1.3531 -0.6195
11698TIP3    H256510   0.176   3.330  15.737  0.8612  0.1018 -1.7766
11699TIP3   OH256511   0.463   3.686  14.298  0.4970  0.2926  0.0045
11699TIP3    H156512   0.438   3.778  14.288  1.4968  0.7289  1.3015
11699TIP3    H256513   0.392   3.647  14.349  0.1215  0.3592 -0.4611
11700TIP3   OH256514   2.369   4.248   3.125  0.4150  0.1897 -0.4290
11700TIP3    H156515   2.287   4.211   3.091  0.9731 -2.3433  0.7412
11700TIP3    H256516   2.343   4.329   3.168 -1.3369 -0.1024 -0.8590
11701TIP3   OH256517   2.937   3.796  16.849  0.9884 -0.5252 -0.5912
11701TIP3    H156518   3.005   3.854  16.883 -0.7442  0.7346  0.9267
11701TIP3    H256519   2.935   3.723  16.911  1.9066 -1.3144 -1.4600
11702TIP3   OH256520   6.730   3.776  15.820  0.0660  0.4890 -0.6167
11702TIP3    H156521   6.789   3.795  15.747  2.6768 -1.3163  0.8646
11702TIP3    H256522   6.747   3.846  15.883 -0.3051  0.6305 -0.6676
11703TIP3   OH256523   5.282   2.792  12.415  0.2504 -0.1801  0.0779
11703TIP3    H156524   5.291   2.726  12.483 -0.3230  0.0065  0.3373
11703TIP3    H256525   5.256   2.743  12.337 -1.3520 -0.1457  0.5557
11704TIP3   OH256526   1.064   4.125   3.446  0.1497  0.0547  0.6985
11704TIP3    H156527   1.139   4.184   3.439  0.8066 -0.5447  2.0161
11704TIP3    H256528   1.019   4.131   3.362  1.6684  0.4659 -0.1222
11705TIP3   OH256529   2.073   5.267   5.200  0.2971 -0.1219 -0.2114
11705TIP3    H156530   2.043   5.231   5.117  2.3441  0.1664 -1.1346
11705TIP3    H256531   2.010   5.337   5.219 -0.5398 -0.5714 -1.2137
11706TIP3   OH256532   5.235   3.498   0.714  0.0802 -0.2700  0.3404
11706TIP3    H156533   5.274   3.483   0.628 -2.5179  0.5430 -1.0588
11706TIP3    H256534   5.176   3.423   0.727 -2.4344  1.4555 -0.4154
11707TIP3   OH256535   3.482   3.834  15.640  0.5309  0.3991 -0.3502
11707TIP3    H156536   3.509   3.834  15.548 -0.2554 -0.4596 -0.5983
11707TIP3    H256537   3.411   3.898  15.644  0.8366  0.7370 -0.2454
11708TIP3   OH256538   0.637   3.251   0.449  0.0921 -0.2317  0.7199
11708TIP3    H156539   0.582   3.308   0.504  0.9342  0.2232  1.1057
11708TIP3    H256540   0.724   3.258   0.487  1.0202  1.2251 -1.4881
11709TIP3   OH256541   2.320   1.341  16.445  0.0834  0.0439 -0.0931
11709TIP3    H156542   2.276   1.257  16.456  1.5980 -0.5202  2.9502
11709TIP3    H256543   2.360   1.336  16.358  0.2045 -2.4489  0.0244
11710TIP3   OH256544   4.200   2.152  14.284 -0.0754 -0.1353  0.5813
11710TIP3    H156545   4.124   2.097  14.264 -1.1800  0.3904  2.9537
11710TIP3    H256546   4.265   2.091  14.320  1.5721 -0.9329 -3.3094
11711TIP3   OH256547   0.553   6.066  14.218 -0.2547 -0.4630  0.4036
11711TIP3    H156548   0.593   6.015  14.288  1.0122  0.7377  0.5985
11711TIP3    H256549   0.491   6.124  14.264  1.7260  1.4696  0.8292
11712TIP3   OH256550   4.131   3.404   2.610 -0.2177  0.3413  0.4549
11712TIP3    H156551   4.098   3.453   2.535 -0.3193  0.2696  0.4529
11712TIP3    H256552   4.176   3.469   2.664 -1.2544  0.6340  0.9791
11713TIP3   OH256553   4.771   6.701   5.609 -0.1207 -0.6404  0.5765
11713TIP3    H156554   4.837   6.697   5.540  0.6572  1.0797  1.1465
11713TIP3    H256555   4.811   6.656   5.683  0.8577  1.1496  1.2020
11714TIP3   OH256556   1.361   1.079   3.042 -0.2665  0.4461  0.3059
11714TIP3    H156557   1.309   1.016   2.992  1.1207 -0.2598 -0.2862
11714TIP3    H256558   1.395   1.140   2.977 -1.0396  1.4395  0.7963
11715TIP3   OH256559   1.008   0.346   4.798 -0.2878 -0.7436  0.0556
11715TIP3    H156560   1.100   0.361   4.819 -0.4525 -1.0623  1.0714
11715TIP3    H256561   0.986   0.416   4.737  0.2470  0.2413  0.9456
11716TIP3   OH256562   5.391   5.338  14.358 -0.1187  0.1931 -0.2883
11716TIP3    H156563   5.471   5.303  14.398  0.1830  0.4152 -0.6943
11716TIP3    H256564   5.421   5.407  14.300 -0.3653 -1.2404 -2.2249
11717TIP3   OH256565   4.152   1.671   1.047 -0.3718 -0.3557  0.2665
11717TIP3    H156566   4.233   1.638   1.009  0.2105 -1.0863  2.0133
11717TIP3    H256567   4.088   1.601   1.034  0.1210 -1.0788  1.5146
11718TIP3   OH256568   0.406   4.312  15.561 -0.1071 -0.0158 -0.3283
11718TIP3    H156569   0.446   4.325  15.647 -0.1037  0.4872 -0.4024
11718TIP3    H256570   0.474   4.339  15.499  0.3283 -1.4783 -0.5399
11719TIP3   OH256571   1.010   2.270   4.762  0.5722 -0.4291 -0.3713
11719TIP3    H156572   0.963   2.324   4.699 -1.5300 -0.0360  1.3934
11719TIP3    H256573   1.011   2.183   4.723 -1.6511 -0.4321 -0.5658
11720TIP3   OH256574   2.109   1.181   3.023  0.6126 -0.0709  0.5940
11720TIP3    H156575   2.135   1.129   2.947  1.9283  1.9818 -0.4445
11720TIP3    H256576   2.026   1.222   2.997  0.2901 -0.5326  0.8751
11721TIP3   OH256577   2.568   6.626  16.764 -0.7674  0.0805  0.9681
11721TIP3    H156578   2.473   6.626  16.773 -0.8565 -0.3044  0.1932
11721TIP3    H256579   2.597   6.552  16.817 -0.9795 -0.2657  0.6126
11722TIP3   OH256580   6.033   1.214   0.642  0.0077  0.3111 -0.1977
11722TIP3    H156581   6.033   1.270   0.564  1.0813  2.3730  1.1769
11722TIP3    H256582   6.120   1.175   0.643  0.2810  0.9075  0.3366
11723TIP3   OH256583   2.528   5.360  14.802 -0.3967 -0.3689  0.3421
11723TIP3    H156584   2.444   5.315  14.791 -0.6819  0.4458 -0.9327
11723TIP3    H256585   2.545   5.402  14.718  0.7888  0.3515  0.9088
11724TIP3   OH256586   1.503   5.829   3.235  0.7460 -0.4785  0.1547
11724TIP3    H156587   1.432   5.780   3.196 -2.6689  1.9318  2.7117
11724TIP3    H256588   1.532   5.889   3.167 -1.2664 -0.0366 -0.3678
11725TIP3   OH256589   2.131   1.100   4.000  0.0763 -0.5856 -0.4790
11725TIP3    H156590   2.136   1.128   3.909 -0.4251 -0.9149 -0.6165
11725TIP3    H256591   2.103   1.008   3.995  0.8829 -0.8633 -0.0212
11726TIP3   OH256592   2.308   0.992   0.352 -0.1725 -0.3365  0.1426
11726TIP3    H156593   2.261   0.936   0.413 -2.1707  2.9084  1.8873
11726TIP3    H256594   2.255   0.992   0.272 -0.1170 -0.9519  0.1053
11727TIP3   OH256595   1.986   0.352   3.100 -0.0792  0.2784 -0.7918
11727TIP3    H156596   2.004   0.341   3.007  0.1413 -1.1836 -0.5994
11727TIP3    H256597   1.935   0.275   3.124  0.8376  0.0546  0.5349
11728TIP3   OH256598   2.113   0.491   1.556 -0.4974  0.2968 -0.3817
11728TIP3    H156599   2.203   0.475   1.584 -0.4052  2.7445  0.9647
11728TIP3    H256600   2.119   0.511   1.463  0.2534 -0.0987 -0.4211
11729TIP3   OH256601   0.859   3.320   3.780 -0.3810 -0.0659 -0.3301
11729TIP3    H156602   0.821   3.234   3.791  0.2532 -0.1924  1.0750
11729TIP3    H256603   0.946   3.304   3.743 -0.0897 -0.0664  0.3472
11730TIP3   OH256604   4.079   2.953  14.796 -0.5437 -0.3827 -0.0007
11730TIP3    H156605   4.048   2.868  14.763 -1.4066  0.4196 -1.3846
11730TIP3    H256606   4.004   2.991  14.841 -0.6703  0.2907 -0.7473
11731TIP3   OH256607   0.010   5.299   1.810 -0.4236  0.2842  0.1025
11731TIP3    H156608   0.063   5.312   1.888 -1.1717 -0.0889  0.6883
11731TIP3    H256609  -0.078   5.325   1.836 -0.5569  0.8182 -0.8261
11732TIP3   OH256610   2.525   1.993  13.185 -0.1912 -0.6128  0.6044
11732TIP3    H156611   2.593   2.050  13.218  1.1615 -0.6861 -1.8240
11732TIP3    H256612   2.547   1.906  13.219  0.1152 -0.3961  0.9601
11733TIP3   OH256613   5.453   5.745   4.754  0.1055 -0.5186 -0.0880
11733TIP3    H156614   5.532   5.748   4.809 -0.2433  0.6044  0.3913
11733TIP3    H256615   5.446   5.653   4.727  0.5048 -1.0294  1.4342
11734TIP3   OH256616   5.614   0.319   4.444 -0.1935  0.4941 -0.4952
11734TIP3    H156617   5.658   0.404   4.437 -0.4225  0.5892 -0.7970
11734TIP3    H256618   5.675   0.258   4.402  1.0883  0.0769  1.7965
11735TIP3   OH256619   2.551   6.203   5.165 -0.1460 -0.8841 -0.2862
11735TIP3    H156620   2.636   6.178   5.201  0.7302  2.4765  0.2946
11735TIP3    H256621   2.568   6.220   5.073 -0.4068 -1.0168 -0.3610
11736TIP3   OH256622   1.219   5.466   2.588 -0.7873  0.0547 -0.0290
11736TIP3    H156623   1.254   5.404   2.524  0.7647  0.8012  0.0519
11736TIP3    H256624   1.160   5.413   2.643 -2.0157 -0.6327 -1.9111
11737TIP3   OH256625   4.425   3.927  13.835  0.0676  0.3339  0.2030
11737TIP3    H156626   4.520   3.935  13.829  0.0837 -0.3177 -0.5695
11737TIP3    H256627   4.408   3.834  13.821 -0.7596  0.6091 -0.7615
11738TIP3   OH256628   1.246   1.965   2.292 -0.3343  0.2896  0.2677
11738TIP3    H156629   1.272   1.942   2.203  0.4412  0.7280  0.3732
11738TIP3    H256630   1.322   1.942   2.345 -0.1741  1.5424  0.5977
11739TIP3   OH256631   1.961   5.052   4.663 -0.3043  0.5345 -0.4157
11739TIP3    H156632   1.936   4.983   4.602 -0.8373 -1.4584  1.9230
11739TIP3    H256633   1.879   5.097   4.684 -0.7927 -1.0559  1.3951
11740TIP3   OH256634   4.512   2.100   5.483  0.1953 -0.1424 -0.2871
11740TIP3    H156635   4.542   2.026   5.536 -1.1977  0.3368  1.2375
11740TIP3    H256636   4.417   2.096   5.488  0.0699  2.5221  1.0039
11741TIP3   OH256637   0.303   2.729  11.586  0.3209  0.1867 -0.1177
11741TIP3    H156638   0.299   2.719  11.491  0.0546 -0.5979 -0.0299
11741TIP3    H256639   0.271   2.818  11.602  1.8866  0.9145 -0.8649
11742TIP3   OH256640   3.883   1.767   1.934  0.1139  0.0506 -0.1521
11742TIP3    H156641   3.952   1.711   1.899  1.8911  1.5188  0.8299
11742TIP3    H256642   3.818   1.772   1.863  0.3843 -2.2939 -0.6679
11743TIP3   OH256643   4.080   0.567   5.969 -0.7631  0.4131  0.0153
11743TIP3    H156644   4.143   0.623   5.923  0.3010 -0.7980 -0.0584
11743TIP3    H256645   4.043   0.623   6.037  2.0078  0.6119  1.4968
11744TIP3   OH256646   0.997   2.627  15.211 -0.3898  0.0073  0.2446
11744TIP3    H156647   1.033   2.610  15.124  1.1592  2.8514  0.2173
11744TIP3    H256648   1.061   2.590  15.271 -0.0113  0.4997  0.1552
11745TIP3   OH256649   3.779   6.069   1.057 -0.3544 -0.4176  0.6364
11745TIP3    H156650   3.794   6.003   1.125 -0.9162 -0.5777  0.6112
11745TIP3    H256651   3.785   6.152   1.104 -0.0962 -0.4998  0.7544
11746TIP3   OH256652   4.663   1.282  16.948  0.1756  0.0424 -0.4778
11746TIP3    H156653   4.729   1.224  16.910  0.2980  0.3466 -0.7270
11746TIP3    H256654   4.711   1.361  16.972  0.1418 -0.2235  0.4956
11747TIP3   OH256655   0.795   6.704   3.510  0.5697  0.2866  0.2439
11747TIP3    H156656   0.871   6.656   3.543  1.0057  1.5594  1.2165
11747TIP3    H256657   0.832   6.773   3.455  0.0258  0.1076 -0.3585
11748TIP3   OH256658   3.202   6.357  11.200 -0.4699 -0.5708 -0.0332
11748TIP3    H156659   3.180   6.341  11.108 -0.8234  0.2082 -0.0922
11748TIP3    H256660   3.292   6.390  11.197 -0.3598 -0.8725 -0.0678
11749TIP3   OH256661   2.481   3.579   1.827  0.0203 -0.1253 -0.0602
11749TIP3    H156662   2.458   3.490   1.801 -0.1903  0.3843 -1.7523
11749TIP3    H256663   2.421   3.599   1.899  0.3690 -1.4786  0.6433
11750TIP3   OH256664   2.878   0.975  14.697 -0.0695  0.1474 -0.2109
11750TIP3    H156665   2.829   0.945  14.774  0.1796  1.5454  0.5255
11750TIP3    H256666   2.814   1.023  14.644 -0.2499 -0.8453 -0.9183
11751TIP3   OH256667   5.357   3.150   2.985 -0.1886 -0.3525  0.0557
11751TIP3    H156668   5.325   3.084   2.923  1.5538  0.4133 -1.7730
11751TIP3    H256669   5.310   3.230   2.962 -0.0751 -0.2392  0.2121
11752TIP3   OH256670   6.541   4.305  14.338 -0.1003  0.2328 -0.1001
11752TIP3    H156671   6.461   4.273  14.295 -0.1955  1.6041 -0.9752
11752TIP3    H256672   6.511   4.339  14.422 -0.1913 -0.7061  0.2585
11753TIP3   OH256673   6.022   3.537   2.128 -0.0486  0.0820 -0.3030
11753TIP3    H156674   5.988   3.452   2.097  1.3002 -0.8111  0.5456
11753TIP3    H256675   5.985   3.601   2.068 -1.4384 -1.0687 -0.7218
11754TIP3   OH256676   1.577   0.413  11.557  0.2520 -0.0385 -0.0005
11754TIP3    H156677   1.529   0.348  11.610 -0.2803  0.8533  0.6474
11754TIP3    H256678   1.510   0.453  11.502  0.1562  1.4316  1.1244
11755TIP3   OH256679   3.207   4.489   2.826  0.3604 -0.2245 -0.1269
11755TIP3    H156680   3.162   4.570   2.849  1.4680  0.5460 -0.5810
11755TIP3    H256681   3.293   4.496   2.869  1.4853  0.0845 -2.2843
11756TIP3   OH256682   2.236   2.252  12.181 -0.1357  0.4154  0.1165
11756TIP3    H156683   2.213   2.330  12.130 -1.5926  0.6927  1.1510
11756TIP3    H256684   2.153   2.223  12.219  0.4854 -1.3167  0.2102
11757TIP3   OH256685   1.024   2.710   3.622  0.2220  0.3264  0.0633
11757TIP3    H156686   1.073   2.644   3.672 -0.3123 -1.7906 -2.0179
11757TIP3    H256687   1.068   2.712   3.537 -0.8879  1.3350 -0.5019
11758TIP3   OH256688   2.385   5.547  13.477 -0.0126  0.2218 -0.1121
11758TIP3    H156689   2.401   5.522  13.386  0.8766  1.0379 -0.2056
11758TIP3    H256690   2.436   5.485  13.528 -2.0298 -1.4561 -0.0359
11759TIP3   OH256691   4.988   4.735   5.629  0.4908  0.4383  0.1138
11759TIP3    H156692   5.044   4.697   5.561 -0.9804 -1.2948 -0.2046
11759TIP3    H256693   4.946   4.810   5.586  0.2760 -0.0952 -0.6413
11760TIP3   OH256694   6.688   2.858  11.625 -0.1932 -0.0289 -0.0258
11760TIP3    H156695   6.699   2.765  11.605 -3.0654 -0.4115 -0.3687
11760TIP3    H256696   6.613   2.861  11.685 -0.6032  2.0816 -0.5544
11761TIP3   OH256697   3.086   5.096  15.477  0.2744  0.0201 -0.0579
11761TIP3    H156698   3.099   5.004  15.499  0.4601  0.4069  1.5735
11761TIP3    H256699   2.995   5.114  15.500 -0.4960 -0.2999 -2.5782
11762TIP3   OH256700   4.678   4.937   2.634  0.5464 -0.3451 -0.2084
11762TIP3    H156701   4.664   4.866   2.571  1.9427 -0.1482 -0.7700
11762TIP3    H256702   4.632   4.908   2.713 -1.2019 -0.6215 -1.2724
11763TIP3   OH256703   0.520   5.458  13.555 -0.1511  0.6170  0.3320
11763TIP3    H156704   0.595   5.415  13.596  1.3947  1.3609 -1.5493
11763TIP3    H256705   0.455   5.389  13.547  1.5243 -0.9350 -0.8331
11764TIP3   OH256706   4.046   6.176  15.297  0.3788 -0.3024  0.1571
11764TIP3    H156707   4.002   6.261  15.297  1.5997  0.3900 -1.1483
11764TIP3    H256708   4.047   6.149  15.388  0.4698  1.3779  0.6881
11765TIP3   OH256709   4.368   0.424   1.548  0.3467 -0.9052  0.0560
11765TIP3    H156710   4.440   0.408   1.487  0.3605 -0.2549 -0.1144
11765TIP3    H256711   4.327   0.504   1.515  1.3372  0.3920  1.7794
11766TIP3   OH256712   0.670   3.111   5.669 -0.6072 -0.4267  0.6338
11766TIP3    H156713   0.765   3.101   5.668 -0.5312  0.2179  0.9004
11766TIP3    H256714   0.638   3.039   5.616 -0.0177 -1.2549  1.3650
11767TIP3   OH256715   3.014   2.765  13.284 -0.3095 -0.0024 -0.0297
11767TIP3    H156716   3.064   2.705  13.339 -0.2921  1.4416  1.6029
11767TIP3    H256717   2.925   2.729  13.285 -0.3559  0.0945  1.1332
11768TIP3   OH256718   4.825   4.592   5.201  0.0991 -0.4800  0.3296
11768TIP3    H156719   4.753   4.645   5.236  0.9455  0.5630  0.5493
11768TIP3    H256720   4.782   4.523   5.150 -1.1152 -1.0510  2.0433
11769TIP3   OH256721   5.217   5.690  16.055 -0.0822 -0.0085  0.1643
11769TIP3    H156722   5.253   5.701  15.967  0.3344  1.6285  0.5182
11769TIP3    H256723   5.257   5.759  16.107 -3.7099  2.0515  0.5780
11770TIP3   OH256724   0.007   4.184   0.559  0.1716 -0.0039 -0.0380
11770TIP3    H156725   0.088   4.167   0.607 -0.0248 -1.8467 -0.2717
11770TIP3    H256726  -0.056   4.211   0.626  0.5465 -0.1662  0.3831
11771TIP3   OH256727   0.374   2.864   6.171 -0.0100 -0.5004  0.1434
11771TIP3    H156728   0.414   2.783   6.139  1.5375 -0.2841  1.3574
11771TIP3    H256729   0.344   2.842   6.259 -0.2960  0.0356  0.1816
11772TIP3   OH256730   2.714   1.493   5.771 -0.0569 -0.7076 -0.0650
11772TIP3    H156731   2.661   1.469   5.695 -0.6742 -0.0312  0.1444
11772TIP3    H256732   2.794   1.531   5.734  0.2566 -1.6423 -0.3776
11773TIP3   OH256733   2.159   1.132   5.227  0.0697  0.6524  0.0963
11773TIP3    H156734   2.121   1.052   5.190  1.3579  0.3640 -0.6663
11773TIP3    H256735   2.084   1.185   5.253 -0.8400 -1.2656  1.6395
11774TIP3   OH256736   5.758   6.262  16.800 -0.4934  0.2884 -0.1731
11774TIP3    H156737   5.801   6.332  16.751  0.1015  0.0748  0.0433
11774TIP3    H256738   5.823   6.232  16.863 -0.7914 -0.3641 -0.1641
11775TIP3   OH256739   5.397   6.645  13.381  0.3781 -0.0733 -0.2852
11775TIP3    H156740   5.369   6.710  13.316 -2.5192 -1.0726 -0.1880
11775TIP3    H256741   5.406   6.695  13.462 -1.4014  0.3449 -0.3032
11776TIP3   OH256742   1.201   5.756   3.690  0.0976  0.3021  0.1399
11776TIP3    H156743   1.170   5.669   3.663  1.4399 -1.4369  3.6200
11776TIP3    H256744   1.267   5.779   3.624 -0.0571 -1.4667 -0.6973
11777TIP3   OH256745   2.725   5.825   5.046 -0.4236  0.2869  0.0386
11777TIP3    H156746   2.815   5.799   5.026 -0.5527 -1.0049  0.9650
11777TIP3    H256747   2.727   5.848   5.139 -1.5073 -2.2187  0.7558
11778TIP3   OH256748   5.619   1.473   3.835 -0.0353 -0.2056 -0.0583
11778TIP3    H156749   5.526   1.464   3.856  0.0670 -1.4819 -0.0891
11778TIP3    H256750   5.653   1.534   3.900 -0.6350 -0.7216  0.7486
11779TIP3   OH256751   3.037   0.167  15.571  0.0583  0.4925 -0.2536
11779TIP3    H156752   3.006   0.255  15.551 -0.1831  0.9251  1.8460
11779TIP3    H256753   3.038   0.163  15.667  1.0781 -1.4352 -0.3076
11780TIP3   OH256754   6.352   4.396  13.602 -0.0123 -0.2868 -0.3494
11780TIP3    H156755   6.289   4.468  13.600 -0.6662 -0.7886  0.9621
11780TIP3    H256756   6.432   4.433  13.565 -0.0330  1.4153  1.1964
11781TIP3   OH256757   6.319   4.970  14.441 -0.9809  0.1378  0.1554
11781TIP3    H156758   6.393   4.915  14.415 -0.6550 -0.1830  1.6418
11781TIP3    H256759   6.292   5.015  14.361  1.8474  1.5013 -0.1582
11782TIP3   OH256760   3.711   5.589  10.486 -0.0125 -0.0228  0.5422
11782TIP3    H156761   3.620   5.570  10.466 -0.4042  2.4089 -0.2439
11782TIP3    H256762   3.718   5.578  10.581 -1.2623  0.2875  0.6793
11783TIP3   OH256763   2.503   3.876  13.488 -0.5444  0.0208  0.3793
11783TIP3    H156764   2.597   3.888  13.502 -0.0013 -0.0235 -2.5255
11783TIP3    H256765   2.469   3.965  13.475 -1.3407  0.2185  3.1348
11784TIP3   OH256766   3.259   2.853  14.125  0.0227  0.2824  0.7005
11784TIP3    H156767   3.344   2.855  14.080  1.0233  1.2479  2.5316
11784TIP3    H256768   3.209   2.785  14.079  1.6462 -0.0625 -0.6458
11785TIP3   OH256769   0.351   6.118   1.771 -0.3265 -0.0190  0.7564
11785TIP3    H156770   0.340   6.102   1.677  1.7115  2.5213 -0.0441
11785TIP3    H256771   0.294   6.193   1.788  0.2391  0.3020  1.2553
11786TIP3   OH256772   0.631   3.480   1.797 -0.0192 -0.6177 -0.2474
11786TIP3    H156773   0.553   3.454   1.748 -0.1894 -0.2850 -0.1567
11786TIP3    H256774   0.600   3.546   1.859  0.4489 -0.0210 -0.6378
11787TIP3   OH256775   0.288   4.743   2.610 -0.1820  0.2310 -0.1030
11787TIP3    H156776   0.366   4.785   2.645 -0.5197 -1.0433  2.4064
11787TIP3    H256777   0.321   4.665   2.564  0.0589 -0.3068  0.9517
11788TIP3   OH256778   4.908   5.099   6.034  0.1519 -0.2193 -0.1595
11788TIP3    H156779   4.963   5.036   6.081 -0.8368 -0.6823  0.4269
11788TIP3    H256780   4.819   5.062   6.041 -0.4063  1.1127 -0.0204
11789TIP3   OH256781   1.665   6.601  15.408 -0.4394  0.2185 -0.7096
11789TIP3    H156782   1.575   6.628  15.428 -0.6016  0.1419 -1.2975
11789TIP3    H256783   1.700   6.673  15.356  0.0189  0.4820 -0.0424
11790TIP3   OH256784   5.697   6.604  11.835  0.4442  0.0153  0.7464
11790TIP3    H156785   5.783   6.627  11.869 -0.4203  1.9604  1.8100
11790TIP3    H256786   5.636   6.651  11.892 -1.3358 -1.2837  0.0107
11791TIP3   OH256787   5.397   2.080   3.755 -0.6099  0.1741  0.1057
11791TIP3    H156788   5.473   2.076   3.696  0.2836 -2.1583  1.2996
11791TIP3    H256789   5.323   2.052   3.701 -0.4401  1.3329 -0.7595
11792TIP3   OH256790   3.648   1.103  16.369  0.5356 -0.9969 -0.0598
11792TIP3    H156791   3.564   1.118  16.327 -0.4008 -1.1084  1.6678
11792TIP3    H256792   3.628   1.103  16.463  2.7111  0.5367  0.4817
11793TIP3   OH256793   0.119   1.317   4.534 -0.1608  0.2435  0.5993
11793TIP3    H156794   0.164   1.241   4.498 -2.0567 -0.7737  0.2261
11793TIP3    H256795   0.087   1.365   4.458 -1.2388 -0.0419  0.8543
11794TIP3   OH256796   3.681   0.528   6.127  0.2826  0.5495  0.2217
11794TIP3    H156797   3.666   0.442   6.088  1.9783 -0.1871  1.1339
11794TIP3    H256798   3.604   0.543   6.181 -1.3043  0.8346 -1.9538
11795TIP3   OH256799   3.536   1.718   2.643  0.4606 -0.3591 -0.1816
11795TIP3    H156800   3.484   1.657   2.696 -0.7649  0.3674 -0.5157
11795TIP3    H256801   3.471   1.769   2.595  1.5323 -0.3865 -1.7107
11796TIP3   OH256802   4.048   0.232   1.363 -0.3966  0.1138 -0.0967
11796TIP3    H156803   4.091   0.210   1.446 -0.5292  0.2279  0.0010
11796TIP3    H256804   3.955   0.239   1.385 -0.3688  0.7010 -0.1403
11797TIP3   OH256805   0.260   4.691  15.716 -0.2852 -0.1755  0.1358
11797TIP3    H156806   0.222   4.609  15.683  0.2924 -0.4330  0.0786
11797TIP3    H256807   0.233   4.757  15.653 -2.0984 -0.0074  1.0384
11798TIP3   OH256808   0.294   0.513  14.928  0.4399  0.3529 -0.1876
11798TIP3    H156809   0.361   0.449  14.902 -0.4087 -0.9015  0.5760
11798TIP3    H256810   0.226   0.506  14.861 -1.7578 -2.8973  2.0672
11799TIP3   OH256811   4.519   3.169  14.480  0.1650  0.0411  0.2011
11799TIP3    H156812   4.531   3.199  14.570 -1.3278  1.0926  0.1019
11799TIP3    H256813   4.475   3.242  14.437  3.4940  0.8214 -2.2531
11800TIP3   OH256814   6.590   3.057  15.835 -0.0254 -0.3575  0.7774
11800TIP3    H156815   6.505   3.097  15.853  0.5563  2.0338 -1.2570
11800TIP3    H256816   6.654   3.120  15.867  0.9400 -0.2192 -1.2833
11801TIP3   OH256817   1.776   2.288  15.496 -0.1650 -0.2016 -0.0489
11801TIP3    H156818   1.852   2.307  15.551  0.9779  3.0116 -2.4600
11801TIP3    H256819   1.700   2.312  15.550  0.7696  0.7535  0.8848
11802TIP3   OH256820   1.075   2.054   0.090 -0.2077 -0.4998  0.1737
11802TIP3    H156821   1.043   2.036   0.001 -1.7247  1.2396  0.3022
11802TIP3    H256822   1.022   1.997   0.146 -0.0030 -0.8185  0.0448
11803TIP3   OH256823   0.528   2.123   4.079 -1.1779 -0.5642  0.2295
11803TIP3    H156824   0.435   2.123   4.059 -1.4967  0.8661  1.5295
11803TIP3    H256825   0.551   2.216   4.088  0.6256 -0.8216 -1.0678
11804TIP3   OH256826   5.610   1.747   0.755 -0.6940 -0.0940 -0.0957
11804TIP3    H156827   5.637   1.838   0.751 -0.5508 -0.1362 -0.0959
11804TIP3    H256828   5.655   1.712   0.832 -0.4140 -0.2718 -0.3372
11805TIP3   OH256829   0.707   5.878  11.698 -0.1285  0.3942 -0.1597
11805TIP3    H156830   0.719   5.877  11.793 -1.8114 -1.0694  0.0766
11805TIP3    H256831   0.665   5.795  11.677 -1.1259  1.2833 -2.0147
11806TIP3   OH256832   6.465   3.595   3.252  0.2334 -0.4147 -1.1845
11806TIP3    H156833   6.434   3.505   3.246  0.6181 -0.6723  0.3631
11806TIP3    H256834   6.543   3.598   3.197  0.9029 -1.3609 -0.3203
11807TIP3   OH256835   2.157   0.008   3.623  0.3700 -0.2630  0.3692
11807TIP3    H156836   2.079   0.060   3.643  0.0732 -0.2675 -0.6955
11807TIP3    H256837   2.123  -0.081   3.612  0.6445 -0.4059  0.6738
11808TIP3   OH256838   5.674   6.316   6.313 -0.2642  0.2531 -0.3177
11808TIP3    H156839   5.736   6.378   6.351  0.9118  0.3524 -2.2569
11808TIP3    H256840   5.637   6.270   6.389  0.3623  1.8662  1.0378
11809TIP3   OH256841   2.741   5.096   2.829 -0.1621  0.3449  0.0816
11809TIP3    H156842   2.729   5.023   2.889 -1.4798  0.9299  0.5853
11809TIP3    H256843   2.790   5.059   2.755  0.5932 -0.6298  1.0397
11810TIP3   OH256844   2.302   3.130  12.907 -0.3357  0.0910 -0.1209
11810TIP3    H156845   2.209   3.134  12.886 -0.0722 -0.6766 -1.6639
11810TIP3    H256846   2.327   3.220  12.927 -0.8756  0.8106 -2.3745
11811TIP3   OH256847   1.829   2.145  16.001 -0.0121  0.4444  0.3198
11811TIP3    H156848   1.915   2.136  15.960  0.2628 -0.2416  1.0202
11811TIP3    H256849   1.805   2.055  16.025 -0.7991  0.6687  0.3884
11812TIP3   OH256850   2.711   4.580  14.580 -0.3533 -0.1059 -0.3999
11812TIP3    H156851   2.774   4.518  14.617  0.6252 -0.6271 -2.7665
11812TIP3    H256852   2.693   4.641  14.652  0.9012 -1.4152  1.1104
11813TIP3   OH256853   3.468   5.180  16.695  0.0909 -0.6848 -0.3721
11813TIP3    H156854   3.471   5.196  16.789 -2.1005  0.5371 -0.4383
11813TIP3    H256855   3.535   5.237  16.658 -0.2838  0.2243  0.3217
11814TIP3   OH256856   5.917   6.115  16.997  0.2555  0.0952 -0.2707
11814TIP3    H156857   6.009   6.142  17.003  0.5108 -0.7820 -0.0465
11814TIP3    H256858   5.909   6.045  17.062 -1.1419  1.6693  1.3885
11815TIP3   OH256859   6.199   5.856   2.099 -0.1976  0.6289 -0.1383
11815TIP3    H156860   6.270   5.793   2.089  0.5645  1.4560 -0.0102
11815TIP3    H256861   6.164   5.839   2.187 -1.0376 -0.6478 -0.6881
11816TIP3   OH256862   5.268   1.888  10.872  0.3245  0.1026 -0.0255
11816TIP3    H156863   5.212   1.882  10.795  1.1331 -0.0639 -0.6128
11816TIP3    H256864   5.334   1.953  10.849  1.5262 -1.0979 -0.1028
11817TIP3   OH256865   4.830   2.801  14.184  0.1187  0.1655  0.0022
11817TIP3    H156866   4.846   2.781  14.092 -0.1227  0.9125 -0.2059
11817TIP3    H256867   4.761   2.740  14.210  0.3106 -0.1667 -0.2551
11818TIP3   OH256868   1.166   4.582   3.250  0.2927 -0.6026 -0.3237
11818TIP3    H156869   1.110   4.654   3.220  3.3865  1.4019 -1.8098
11818TIP3    H256870   1.135   4.505   3.201 -1.6241  0.1827 -0.4447
11819TIP3   OH256871   0.446   3.644   1.474 -0.0106  0.3600  0.1422
11819TIP3    H156872   0.365   3.632   1.424  0.4823  0.4413 -0.6857
11819TIP3    H256873   0.474   3.733   1.454  0.1830  0.3986  0.5795
11820TIP3   OH256874   5.487   4.637   2.410 -0.0557 -0.0129 -0.2683
11820TIP3    H156875   5.509   4.583   2.334  0.5866  1.3575 -1.0878
11820TIP3    H256876   5.401   4.674   2.390  0.3438  0.7654 -0.5811
11821TIP3   OH256877   2.004   1.945  14.928 -0.1635  0.0939  0.1112
11821TIP3    H156878   2.097   1.961  14.913 -0.4083  1.3102 -0.1864
11821TIP3    H256879   1.992   1.958  15.022 -0.3108  1.4787 -0.0879
11822TIP3   OH256880   1.057   3.938   0.616 -0.1257  0.2540 -0.3922
11822TIP3    H156881   1.010   3.863   0.579 -0.4274  0.7030 -0.9280
11822TIP3    H256882   1.149   3.913   0.613 -0.3551 -1.1470  1.7738
11823TIP3   OH256883   4.516   3.591  14.201  0.0247 -0.3161  0.3901
11823TIP3    H156884   4.585   3.626  14.145 -1.0366  0.9241 -0.2054
11823TIP3    H256885   4.557   3.581  14.287  0.5238  2.0247  0.4822
11824TIP3   OH256886   6.113   0.015  16.595  0.1936  0.0691  0.2315
11824TIP3    H156887   6.036   0.052  16.637 -0.4957 -0.9334 -0.1244
11824TIP3    H256888   6.080  -0.029  16.517  1.1036 -0.5281  0.1644
11825TIP3   OH256889   3.823   1.867  11.963  0.9552 -0.3752  0.2411
11825TIP3    H156890   3.763   1.823  12.024  0.0370 -0.7013 -0.8697
11825TIP3    H256891   3.798   1.959  11.968  1.1042 -0.3540  0.6063
11826TIP3   OH256892   2.041   0.038   1.068  0.1155 -0.0173 -0.1979
11826TIP3    H156893   2.124   0.004   1.099  0.2188 -1.1514 -1.5931
11826TIP3    H256894   1.989   0.053   1.147  1.1043 -0.7356  0.6073
11827TIP3   OH256895   5.148   1.082   3.099  0.1759 -0.1028  0.4788
11827TIP3    H156896   5.147   1.035   3.016  1.0539 -2.3678  1.6647
11827TIP3    H256897   5.076   1.145   3.092  1.2145  0.9371 -2.5701
11828TIP3   OH256898   4.210   3.992   6.908 -0.2046 -0.1746  0.2661
11828TIP3    H156899   4.271   4.018   6.839 -0.8902  0.6285 -0.0555
11828TIP3    H256900   4.188   3.901   6.887  0.0704 -0.1379 -0.2126
11829TIP3   OH256901   5.547   1.979   4.018  0.1060 -0.7056 -0.5359
11829TIP3    H156902   5.517   1.990   3.927 -0.9402  0.0307 -0.1283
11829TIP3    H256903   5.642   1.982   4.013  0.1279  3.8390 -1.1607
11830TIP3   OH256904   3.733   0.574   3.635  1.0643 -0.1143 -0.0946
11830TIP3    H156905   3.747   0.667   3.655  0.8764 -0.4274  1.5819
11830TIP3    H256906   3.817   0.544   3.601  1.9133  0.0888  1.7126
11831TIP3   OH256907   3.603   2.460  12.997 -0.1175  0.3793 -0.1581
11831TIP3    H156908   3.546   2.387  13.023 -2.1520  0.7902 -3.0287
11831TIP3    H256909   3.622   2.506  13.079 -1.9863 -1.1637  1.2215
11832TIP3   OH256910   1.409   0.538  11.344 -0.1128 -0.2019 -0.0826
11832TIP3    H156911   1.375   0.450  11.328  0.3011 -0.4884  0.5785
11832TIP3    H256912   1.344   0.579  11.401  0.2742 -0.4925  0.5743
11833TIP3   OH256913   4.678   3.916  14.507  0.2460 -0.2861  0.3702
11833TIP3    H156914   4.711   3.981  14.569 -0.7311 -1.0116  1.7215
11833TIP3    H256915   4.743   3.845  14.510 -0.3410 -0.8160  1.4805
11834TIP3   OH256916   1.201   5.791   4.091 -0.2635  0.2205  0.1407
11834TIP3    H156917   1.250   5.768   4.170 -1.1089 -1.2809  0.2657
11834TIP3    H256918   1.176   5.707   4.053 -2.4864  0.9202 -0.0707
11835TIP3   OH256919   6.434   0.114   5.505  0.1363  0.8688 -0.1789
11835TIP3    H156920   6.362   0.147   5.558  0.9656  1.1637  0.8068
11835TIP3    H256921   6.489   0.191   5.490  0.1498  0.6848 -1.0783
11836TIP3   OH256922   2.889   4.240   0.600  0.8260 -0.1913  0.3770
11836TIP3    H156923   2.815   4.273   0.650 -0.8191 -0.0840 -1.9756
11836TIP3    H256924   2.879   4.279   0.513  2.5268 -1.7257 -0.5744
11837TIP3   OH256925   4.573   3.725   1.514 -0.3136  0.0933 -0.0991
11837TIP3    H156926   4.543   3.791   1.450  0.0718 -0.3105 -0.7053
11837TIP3    H256927   4.495   3.672   1.531 -1.2421  1.9560  2.0381
11838TIP3   OH256928   1.790   2.280   4.125  0.2405 -0.6831  0.0751
11838TIP3    H156929   1.732   2.292   4.201 -0.9864 -0.0725 -0.9184
11838TIP3    H256930   1.784   2.363   4.077  0.6276 -1.2239 -0.9339
11839TIP3   OH256931   3.268   5.398  16.613  0.3422  0.3457  0.3097
11839TIP3    H156932   3.248   5.346  16.535 -0.5024 -1.9125  1.9405
11839TIP3    H256933   3.356   5.371  16.638  0.1059  0.0716  0.8656
11840TIP3   OH256934   2.548   0.707   6.750 -0.1295 -0.2106 -0.6607
11840TIP3    H156935   2.491   0.702   6.674 -1.8381  0.8691  0.4815
11840TIP3    H256936   2.604   0.783   6.733 -1.7654  1.1862 -0.0827
11841TIP3   OH256937   4.985   3.263   3.344  0.0703  0.1255  0.2995
11841TIP3    H156938   4.955   3.185   3.392  3.6728  0.4556  3.5999
11841TIP3    H256939   5.072   3.239   3.311  0.7680  2.3529  0.3555
11842TIP3   OH256940   0.109   4.117   2.698 -0.0583 -0.2549 -0.2843
11842TIP3    H156941   0.120   4.193   2.755  0.8601 -0.6852  0.1266
11842TIP3    H256942   0.049   4.060   2.746  1.7542 -1.2295  0.9242
11843TIP3   OH256943   3.199   2.636  15.978  0.4146 -0.3479 -0.5381
11843TIP3    H156944   3.130   2.695  15.947 -0.1606  0.7105  2.4588
11843TIP3    H256945   3.166   2.548  15.959 -1.9081  0.1159  0.9794
11844TIP3   OH256946   3.139   5.061  11.754 -0.0331  0.5770 -0.0474
11844TIP3    H156947   3.133   4.981  11.701  0.2025  1.1292 -0.9160
11844TIP3    H256948   3.060   5.058  11.808  0.6237 -0.9116  0.9027
11845TIP3   OH256949   2.566   5.048  11.740 -0.5905  0.3096  0.0803
11845TIP3    H156950   2.561   5.107  11.665 -1.2202 -0.5686 -0.5950
11845TIP3    H256951   2.580   5.105  11.815  0.4024  1.1878 -0.7327
11846TIP3   OH256952   1.190   4.993  12.070 -0.0476 -0.2784  0.2211
11846TIP3    H156953   1.111   4.978  12.020  0.2632 -0.1416 -0.3144
11846TIP3    H256954   1.232   5.068  12.027  0.6812 -0.7373  0.1226
11847TIP3   OH256955   0.320   3.059   3.132  0.2731  0.0873 -0.4069
11847TIP3    H156956   0.272   3.135   3.166 -1.6658 -1.8382  1.5306
11847TIP3    H256957   0.278   3.040   3.048 -0.7801 -0.1590  0.1620
11848TIP3   OH256958   3.577   6.630   1.749 -0.5888  0.5160  0.6896
11848TIP3    H156959   3.518   6.640   1.674 -2.4716  1.4631  2.2098
11848TIP3    H256960   3.596   6.536   1.753 -1.0883  0.3479 -0.5058
11849TIP3   OH256961   4.296   1.531   4.099 -0.3639 -0.1291  0.1859
11849TIP3    H156962   4.357   1.585   4.050 -1.4390  0.2325 -0.8090
11849TIP3    H256963   4.276   1.582   4.177 -0.2892  0.2766 -0.0552
11850TIP3   OH256964   2.173   6.174   3.038  0.2305 -0.4487  0.8748
11850TIP3    H156965   2.103   6.187   2.973  0.5277  2.3284  1.0034
11850TIP3    H256966   2.184   6.079   3.042 -1.6393 -0.8391 -1.1614
11851TIP3   OH256967   1.390   3.421  17.292  0.1408 -0.0051 -0.1530
11851TIP3    H156968   1.295   3.421  17.278  0.3383  1.4074 -1.9155
11851TIP3    H256969   1.423   3.356  17.230  0.3912  0.1785 -0.2119
11852TIP3   OH256970   1.263   5.042  12.959 -0.1172 -0.3809  0.0647
11852TIP3    H156971   1.271   4.998  12.875 -2.1867 -0.4566 -0.1421
11852TIP3    H256972   1.339   5.100  12.963  1.3533 -2.1508 -0.7307
11853TIP3   OH256973   3.530   3.250  15.630 -1.1915 -0.1428 -0.5004
11853TIP3    H156974   3.570   3.280  15.712 -1.4507  0.7173 -0.6703
11853TIP3    H256975   3.549   3.320  15.567  0.4604 -1.5331 -1.6473
11854TIP3   OH256976   2.916   5.140  15.177  0.2690  0.5239  0.4275
11854TIP3    H156977   2.992   5.198  15.181  0.7631 -0.1318  0.9721
11854TIP3    H256978   2.941   5.072  15.114 -0.4175  1.0394 -0.4258
11855TIP3   OH256979   2.150   2.724   4.881  0.2618 -0.0006  0.3016
11855TIP3    H156980   2.103   2.808   4.884 -0.1564 -0.2594  1.3169
11855TIP3    H256981   2.189   2.722   4.794  0.2401  1.2349  0.2414
11856TIP3   OH256982   1.647   6.476   5.485 -0.2440 -0.3459  0.3215
11856TIP3    H156983   1.730   6.458   5.528 -0.6653 -0.0197  1.2952
11856TIP3    H256984   1.639   6.571   5.487 -0.4901 -0.3548 -0.0692
11857TIP3   OH256985   0.913   4.425  13.494  0.4104  0.2829 -0.1983
11857TIP3    H156986   0.977   4.396  13.429  0.9856  1.3726 -0.1346
11857TIP3    H256987   0.832   4.437  13.444  0.4252 -0.4407 -0.4054
11858TIP3   OH256988   5.204   6.043   5.041 -0.2382  0.7530 -0.4121
11858TIP3    H156989   5.131   5.981   5.044  0.9594 -0.7304 -0.5216
11858TIP3    H256990   5.278   5.994   5.077  0.7557  2.1552 -0.4759
11859TIP3   OH256991   3.124   6.419  14.016 -0.3687 -0.0846 -0.4885
11859TIP3    H156992   3.148   6.454  13.930  2.6412 -0.8347 -0.0606
11859TIP3    H256993   3.184   6.462  14.077 -1.5762 -0.5466  1.0897
11860TIP3   OH256994   0.074   2.903  12.059 -0.0833 -0.3084  0.3281
11860TIP3    H156995   0.122   2.853  12.125  0.5251 -0.9872 -0.6108
11860TIP3    H256996  -0.018   2.894  12.085  0.0637 -1.4519  0.4933
11861TIP3   OH256997   3.108   1.616   4.373  0.3175  0.0433  0.4129
11861TIP3    H156998   3.113   1.535   4.324 -2.6028 -1.3171  2.1065
11861TIP3    H256999   3.125   1.591   4.464  1.6404  1.7876  0.7213
11862TIP3   OH257000   1.698   1.028   4.944 -0.0326 -0.0182  0.3688
11862TIP3    H157001   1.691   0.946   4.993 -1.5053  0.3936  0.8922
11862TIP3    H257002   1.613   1.070   4.955  1.3457  2.6024  1.9020
11863TIP3   OH257003   6.175   3.309  11.405 -0.9633 -0.1804 -0.2441
11863TIP3    H157004   6.098   3.262  11.372  0.1471 -3.1759  1.0170
11863TIP3    H257005   6.249   3.256  11.375  0.3088 -0.2692  2.7692
11864TIP3   OH257006   5.041   4.620  14.835  0.5132  0.0942 -0.4264
11864TIP3    H157007   5.003   4.693  14.787  0.3999  1.3154  1.4004
11864TIP3    H257008   4.966   4.578  14.878  0.8247  0.4187  0.4648
11865TIP3   OH257009   2.769   1.252   3.900  0.3682  0.0092  0.1213
11865TIP3    H157010   2.796   1.188   3.834 -1.7779 -1.8012  0.8584
11865TIP3    H257011   2.843   1.312   3.907  1.6689 -1.1910 -2.0954
11866TIP3   OH257012   3.449   6.340  16.048  0.0350 -0.6151 -0.2966
11866TIP3    H157013   3.479   6.300  15.966 -0.0767 -2.0881  0.3491
11866TIP3    H257014   3.408   6.422  16.021  0.4542 -0.8241 -1.6586
11867TIP3   OH257015   1.684   4.110   1.519 -0.0395  0.2835 -0.0229
11867TIP3    H157016   1.688   4.017   1.543  0.5421 -0.3763 -2.3995
11867TIP3    H257017   1.775   4.133   1.499 -0.4045  0.8831 -1.0461
11868TIP3   OH257018   2.741   0.693   5.412 -0.2071  0.4875  0.0582
11868TIP3    H157019   2.665   0.720   5.361 -0.6610  2.8091  1.8108
11868TIP3    H257020   2.705   0.663   5.496  0.7427  1.2113  0.7528
11869TIP3   OH257021   1.224   3.752   5.636  0.8481  0.1689  0.4893
11869TIP3    H157022   1.299   3.811   5.645 -0.9523  2.5169  1.0394
11869TIP3    H257023   1.165   3.796   5.576 -0.0625 -1.7149 -0.0893
11870TIP3   OH257024   4.971   0.423   5.023  0.0599 -0.4396  0.0444
11870TIP3    H157025   4.879   0.411   5.048  0.1906 -1.4024  0.1219
11870TIP3    H257026   5.019   0.372   5.088  0.8129  1.7311  1.2830
11871TIP3   OH257027   0.042   2.597   5.234  0.1380  0.2747 -0.9103
11871TIP3    H157028  -0.038   2.594   5.287  0.8812  2.4614  0.4826
11871TIP3    H257029   0.011   2.609   5.144 -1.1012 -0.9106 -0.6809
11872TIP3   OH257030   4.784   2.412   4.235  0.3356 -0.1063 -0.2680
11872TIP3    H157031   4.849   2.342   4.230  2.2973  1.3533  2.2156
11872TIP3    H257032   4.796   2.462   4.155  1.7810 -0.3103 -0.2040
11873TIP3   OH257033   4.336   6.680   4.560  0.2488 -0.3959  0.6846
11873TIP3    H157034   4.257   6.729   4.537  1.6218  0.9274 -1.5789
11873TIP3    H257035   4.307   6.589   4.563 -1.8020  0.2258  2.2388
11874TIP3   OH257036   3.612   2.680  11.208  0.2219 -0.3712 -0.1191
11874TIP3    H157037   3.703   2.657  11.227  0.5506  0.7742 -0.2520
11874TIP3    H257038   3.612   2.701  11.115 -0.4703 -1.6415 -0.4295
11875TIP3   OH257039   5.313   4.986  11.398  0.0619 -0.5895 -0.3061
11875TIP3    H157040   5.304   4.954  11.308 -0.3657  1.6265 -1.1401
11875TIP3    H257041   5.354   5.072  11.388 -1.0505  0.2077  1.5029
11876TIP3   OH257042   3.428   0.214   3.506  0.5226 -0.2523  0.2200
11876TIP3    H157043   3.444   0.145   3.571  0.2111  0.3813  0.9950
11876TIP3    H257044   3.337   0.201   3.480  0.0414  0.6254  1.3425
11877TIP3   OH257045   2.363   5.407  12.360  0.2812 -0.6020 -0.0990
11877TIP3    H157046   2.351   5.450  12.444  0.6493 -0.5276 -0.0845
11877TIP3    H257047   2.431   5.458  12.316 -1.7266  1.0052 -1.5534
11878TIP3   OH257048   3.479   3.946   2.214  0.0220  0.1173 -0.1506
11878TIP3    H157049   3.464   4.014   2.280 -0.8927 -0.6717  0.4722
11878TIP3    H257050   3.398   3.943   2.163  0.6989  0.6781 -1.2983
11879TIP3   OH257051   3.492   6.365  14.423  0.0139  0.5129 -0.2462
11879TIP3    H157052   3.529   6.342  14.508 -0.3118 -0.1940 -0.2908
11879TIP3    H257053   3.493   6.283  14.374 -0.8904  0.6579 -0.5123
11880TIP3   OH257054   5.254   6.076   2.427  0.0508 -0.5137 -0.1155
11880TIP3    H157055   5.350   6.074   2.427  0.1040 -0.6110 -2.2266
11880TIP3    H257056   5.231   6.165   2.401 -0.5005  0.0121  2.0360
11881TIP3   OH257057   4.791   4.753  16.435 -0.1462  0.0432  0.0402
11881TIP3    H157058   4.808   4.842  16.406  0.5952 -0.3159 -0.7026
11881TIP3    H257059   4.824   4.698  16.363  0.2330 -0.8456  0.8691
11882TIP3   OH257060   2.215   0.586  11.943 -0.0328 -0.2455  0.7200
11882TIP3    H157061   2.169   0.568  11.861 -1.6340  0.1686  1.4822
11882TIP3    H257062   2.275   0.513  11.953 -1.3282 -1.4302  0.2090
11883TIP3   OH257063   1.975   0.023  14.065 -0.2248  1.0800  0.4124
11883TIP3    H157064   2.025  -0.059  14.073 -0.6658  0.8083  0.4167
11883TIP3    H257065   2.003   0.060  13.981 -1.1194  0.1726 -0.3155
11884TIP3   OH257066   3.924   4.048   1.073  0.0522  0.0349  0.2157
11884TIP3    H157067   3.838   4.032   1.110 -0.4575 -2.8036 -1.8543
11884TIP3    H257068   3.936   4.143   1.081 -2.7113  0.3694  1.6183
11885TIP3   OH257069   5.490   0.786   2.172 -0.0931 -0.0913 -0.2194
11885TIP3    H157070   5.527   0.836   2.099  4.7375 -1.0409  1.2299
11885TIP3    H257071   5.503   0.841   2.249 -0.4979 -1.0626  0.5702
11886TIP3   OH257072   4.547   4.609  16.244 -0.2328  0.0868 -1.1764
11886TIP3    H157073   4.566   4.563  16.326 -1.1044  0.1330 -0.9316
11886TIP3    H257074   4.552   4.702  16.268  0.8000  0.1217 -1.4945
11887TIP3   OH257075   5.635   3.665  10.505  0.0424  0.7270  0.0809
11887TIP3    H157076   5.720   3.622  10.512 -0.0901  0.1206 -1.5945
11887TIP3    H257077   5.655   3.753  10.475  0.2118  1.4412  2.1270
11888TIP3   OH257078   2.330   3.372   5.982 -0.1565 -0.3538 -0.2303
11888TIP3    H157079   2.355   3.301   6.041 -0.1193  1.1110  1.6027
11888TIP3    H257080   2.252   3.341   5.937 -0.2186 -1.4790  0.6328
11889TIP3   OH257081   0.057   6.682   0.158  0.3388 -0.4100  0.2919
11889TIP3    H157082   0.101   6.766   0.166 -0.1209 -0.2190  0.8262
11889TIP3    H257083  -0.003   6.678   0.232  0.6143 -1.3682  0.4782
11890TIP3   OH257084   3.244   6.521  15.791 -0.2671  0.6403  0.5564
11890TIP3    H157085   3.160   6.480  15.810 -0.7662  1.2915 -0.2034
11890TIP3    H257086   3.261   6.500  15.699  0.9375 -0.4127  0.9972
11891TIP3   OH257087   4.356   3.869   3.973 -0.1618 -0.0242 -0.1099
11891TIP3    H157088   4.350   3.856   3.879 -1.8309  0.5344 -0.1141
11891TIP3    H257089   4.344   3.782   4.010 -1.8527  0.0469 -0.3888
11892TIP3   OH257090   1.448   0.928   4.199  0.4116 -0.4245  0.2253
11892TIP3    H157091   1.376   0.929   4.136  1.0803  3.1703 -0.7193
11892TIP3    H257092   1.406   0.915   4.284 -0.9393 -1.5597 -0.5802
11893TIP3   OH257093   4.931   2.768  14.588 -0.3356  0.0640 -0.6710
11893TIP3    H157094   5.008   2.812  14.623  0.3005 -1.6536  0.2343
11893TIP3    H257095   4.917   2.807  14.502  2.3521 -0.4599 -1.4257
11894TIP3   OH257096   4.012   6.314  13.597  0.1623  0.5363 -0.2296
11894TIP3    H157097   4.095   6.325  13.551  0.5333 -3.0771 -0.7517
11894TIP3    H257098   3.945   6.335  13.531  0.6825  0.4134 -0.8080
11895TIP3   OH257099   6.149   2.143   3.882  0.3176 -0.3386  0.9144
11895TIP3    H157100   6.191   2.203   3.821 -0.0311  0.0518  1.0543
11895TIP3    H257101   6.055   2.157   3.870  0.1141 -2.7092 -0.9109
11896TIP3   OH257102   4.257   4.365  12.580 -0.5552  0.4733  0.3353
11896TIP3    H157103   4.310   4.413  12.644 -0.3563  0.4845  0.1633
11896TIP3    H257104   4.167   4.392  12.599 -0.4740  0.6787  0.4400
11897TIP3   OH257105   4.508   2.722   0.245 -0.9192 -0.3421 -0.0072
11897TIP3    H157106   4.519   2.716   0.150 -0.6941  1.5202 -0.1354
11897TIP3    H257107   4.461   2.805   0.258 -0.6722 -0.4253  1.5171
11898TIP3   OH257108   0.748   2.608  13.646  0.8571 -0.2304  0.5192
11898TIP3    H157109   0.817   2.547  13.618  0.0073 -0.6124 -0.8143
11898TIP3    H257110   0.752   2.605  13.742  1.5228 -1.6103  0.4812
11899TIP3   OH257111   2.727   4.189  14.697 -0.3219 -0.0895  0.0394
11899TIP3    H157112   2.765   4.205  14.783 -0.0966 -0.1008 -0.0576
11899TIP3    H257113   2.636   4.218  14.705 -0.0928  0.6557  0.0521
11900TIP3   OH257114   5.146   0.817  14.737  0.6454 -0.3642 -0.3688
11900TIP3    H157115   5.061   0.839  14.700  1.2029  1.2399 -0.7908
11900TIP3    H257116   5.127   0.766  14.816 -0.8276  2.2943  1.1110
11901TIP3   OH257117   0.647   5.503  15.892 -0.0593  0.8897 -0.2859
11901TIP3    H157118   0.709   5.574  15.910 -0.4050  0.8474  1.1552
11901TIP3    H257119   0.634   5.461  15.977 -2.2248  1.0281 -0.5011
11902TIP3   OH257120   6.216   2.706   0.861 -0.4842 -0.3953  0.2268
11902TIP3    H157121   6.134   2.748   0.836 -0.0951  0.4723  0.3701
11902TIP3    H257122   6.248   2.758   0.934  0.9560  0.2323 -0.8110
11903TIP3   OH257123   0.183   3.158  12.182  0.1506  0.2876 -0.1253
11903TIP3    H157124   0.191   3.064  12.200  0.1802  0.6457  2.0762
11903TIP3    H257125   0.244   3.174  12.111  0.5709 -1.2711 -0.1563
11904TIP3   OH257126   6.703   0.586  16.517  0.2479  0.1344  0.1545
11904TIP3    H157127   6.707   0.665  16.570 -1.2992 -0.3159  1.0029
11904TIP3    H257128   6.743   0.518  16.572  1.0570  0.1917 -0.3442
11905TIP3   OH257129   1.206   0.683   5.457  0.5674  0.0163 -0.1178
11905TIP3    H157130   1.176   0.774   5.446 -0.5893 -0.2204  0.8005
11905TIP3    H257131   1.300   0.690   5.472  0.5733  1.0226 -0.5203
11906TIP3   OH257132   4.077   6.488   0.752  0.1597 -0.0301  0.2271
11906TIP3    H157133   4.080   6.520   0.662  1.1633  1.2135  0.6756
11906TIP3    H257134   4.160   6.516   0.791 -0.7922  0.5955  1.9157
11907TIP3   OH257135   3.148   5.887  17.292  0.3538  0.1928 -0.2613
11907TIP3    H157136   3.116   5.822  17.229  0.7218 -0.1852 -0.0697
11907TIP3    H257137   3.166   5.836  17.371 -0.8688  0.7792  0.4314
11908TIP3   OH257138   4.620   4.844  16.800 -0.1266 -0.4215 -0.1547
11908TIP3    H157139   4.614   4.749  16.813 -1.8709 -0.1148  2.1256
11908TIP3    H257140   4.632   4.879  16.889  0.1316  1.5149 -0.9055
11909TIP3   OH257141   3.156   6.045  12.209  0.3725  0.2515 -0.3058
11909TIP3    H157142   3.145   5.966  12.262 -2.2027  0.7925  0.0861
11909TIP3    H257143   3.153   6.014  12.118  0.5322 -0.2190 -0.1523
11910TIP3   OH257144   1.747   0.676   5.517 -0.4779 -0.0217  0.0245
11910TIP3    H157145   1.823   0.663   5.460 -0.0404  0.4760  0.4858
11910TIP3    H257146   1.775   0.645   5.603 -0.2619  1.5474  0.5520
11911TIP3   OH257147   5.686   6.386   3.591  0.6700 -0.8266  0.2269
11911TIP3    H157148   5.747   6.367   3.520 -0.0013  0.0938 -0.6506
11911TIP3    H257149   5.727   6.457   3.640  1.3616 -1.7953  1.0843
11912TIP3   OH257150   4.120   5.093   2.418 -0.0856 -0.0694  0.2952
11912TIP3    H157151   4.054   5.125   2.479  1.0529  0.0435  1.5204
11912TIP3    H257152   4.176   5.169   2.402  0.3066 -0.4095  0.0300
11913TIP3   OH257153   5.665   5.528   2.516 -0.5558 -0.2644  0.6254
11913TIP3    H157154   5.759   5.523   2.533 -0.7233  2.8097  3.5558
11913TIP3    H257155   5.638   5.437   2.507  2.4632 -1.3614  1.2425
11914TIP3   OH257156   1.373   4.438  14.507 -0.7001 -0.3144 -0.5095
11914TIP3    H157157   1.413   4.520  14.478 -1.1142  1.1000  2.5739
11914TIP3    H257158   1.446   4.388  14.544 -0.9365  0.0815  0.5204
11915TIP3   OH257159   0.239   6.480  16.458  0.3139  0.1791 -0.4094
11915TIP3    H157160   0.310   6.434  16.504  1.1078  0.0826 -1.6800
11915TIP3    H257161   0.202   6.538  16.524 -0.3314 -1.8244  1.0850
11916TIP3   OH257162   0.586   3.789   5.804  0.2558  0.6742 -0.1574
11916TIP3    H157163   0.666   3.810   5.755  0.8518 -1.0399  0.0403
11916TIP3    H257164   0.554   3.708   5.764 -0.8962  0.8491  0.3706
11917TIP3   OH257165   0.224   3.645   1.321  0.1288 -0.1570 -0.2002
11917TIP3    H157166   0.207   3.666   1.229 -0.4137 -0.4829 -0.1848
11917TIP3    H257167   0.181   3.715   1.370 -0.0473 -0.2720 -0.1878
11918TIP3   OH257168   5.346   3.068  13.335  0.5293  0.5169 -0.3696
11918TIP3    H157169   5.296   3.057  13.254  1.1231 -1.2720 -0.5398
11918TIP3    H257170   5.280   3.082  13.403 -0.6851 -4.6258 -0.0727
11919TIP3   OH257171   2.083   3.643   5.730 -0.4568 -0.4682 -0.2805
11919TIP3    H157172   2.129   3.680   5.655  1.7389 -0.0829  1.1461
11919TIP3    H257173   2.099   3.549   5.724 -0.0451 -0.4095 -0.1742
11920TIP3   OH257174   1.419   5.924  13.914  0.1502  0.1769 -0.2769
11920TIP3    H157175   1.388   5.964  13.833  0.1040 -0.7971 -0.7536
11920TIP3    H257176   1.451   5.837  13.888 -0.7171 -0.5198  0.8754
11921TIP3   OH257177   1.524   3.232   5.707  0.2650  0.2495  0.2487
11921TIP3    H157178   1.471   3.309   5.689 -0.3341 -0.1955  0.0959
11921TIP3    H257179   1.514   3.176   5.630  2.1253  0.7840 -0.4484
11922TIP3   OH257180   4.929   2.478  11.583 -0.2783  0.3328  0.2755
11922TIP3    H157181   4.922   2.564  11.542 -0.0944 -0.0872 -0.6667
11922TIP3    H257182   5.023   2.459  11.585 -0.2507  0.5293  1.3039
11923TIP3   OH257183   3.493   3.236   4.381 -0.2754 -0.8184  0.3562
11923TIP3    H157184   3.416   3.208   4.333  1.0204 -0.5243 -2.0343
11923TIP3    H257185   3.468   3.320   4.420 -0.8432 -0.1651 -1.3350
11924TIP3   OH257186   6.351   1.993   5.160  0.0107 -0.3751  0.1476
11924TIP3    H157187   6.334   1.955   5.074  2.7242  0.3955 -0.8381
11924TIP3    H257188   6.441   1.967   5.180 -0.3895 -0.1380  2.5821
11925TIP3   OH257189   2.352   2.457   2.218 -0.0662 -0.2214 -0.1900
11925TIP3    H157190   2.324   2.447   2.127  0.8707 -0.7679 -0.4324
11925TIP3    H257191   2.381   2.549   2.223  1.6377 -0.6699 -0.9828
11926TIP3   OH257192   1.636   0.650   3.451  0.6433  0.1320 -0.0620
11926TIP3    H157193   1.641   0.621   3.360 -2.6636 -0.7771 -0.1068
11926TIP3    H257194   1.579   0.727   3.448 -0.1381 -0.3608  1.2737
11927TIP3   OH257195   3.568   5.150   0.751 -0.2311  0.5536 -0.4017
11927TIP3    H157196   3.538   5.237   0.725  0.3403  1.3849  1.5175
11927TIP3    H257197   3.524   5.134   0.834 -1.6191 -1.7569 -1.4833
11928TIP3   OH257198   6.720   5.968   0.056 -0.0177  0.5748  0.2781
11928TIP3    H157199   6.633   5.927   0.061  0.6840 -0.8207  1.7812
11928TIP3    H257200   6.724   6.004  -0.033 -1.8740  0.0981 -0.0444
11929TIP3   OH257201   6.461   3.529  13.997  0.6127  0.0938  0.3495
11929TIP3    H157202   6.513   3.539  14.076 -0.2159  1.8379  0.7321
11929TIP3    H257203   6.521   3.550  13.925  0.9390  0.1598  0.6406
11930TIP3   OH257204   4.856   4.821  11.100  0.0779 -0.2353  0.2878
11930TIP3    H157205   4.817   4.856  11.020 -0.7477 -2.5047 -0.3876
11930TIP3    H257206   4.945   4.797  11.074 -0.9644 -3.3824 -0.8243
11931TIP3   OH257207   6.318   1.848   3.635  0.0913 -0.0005 -0.1313
11931TIP3    H157208   6.295   1.883   3.548  0.4851  1.1414  0.2088
11931TIP3    H257209   6.368   1.769   3.616  2.0968  1.4124 -1.0317
11932TIP3   OH257210   1.791   2.873  16.810 -0.5247  0.4935 -0.3935
11932TIP3    H157211   1.806   2.920  16.891  2.8929 -0.6788 -0.1958
11932TIP3    H257212   1.824   2.931  16.742 -0.1986  0.1190 -0.5641
11933TIP3   OH257213   6.410   6.590   4.156 -0.0123 -0.7206 -0.9314
11933TIP3    H157214   6.379   6.680   4.163 -1.6746 -1.2886 -0.4821
11933TIP3    H257215   6.505   6.597   4.160 -0.1106  0.9951 -0.7755
11934TIP3   OH257216   5.206   3.539  17.387 -0.0060 -0.0098 -0.0893
11934TIP3    H157217   5.245   3.606  17.331  1.7504  0.1769  1.2573
11934TIP3    H257218   5.203   3.579  17.474 -1.0566 -0.8929  0.3010
11935TIP3   OH257219   1.308   1.692  10.479  0.4033 -0.2837  0.2576
11935TIP3    H157220   1.226   1.740  10.490 -0.5571 -1.3229 -1.7720
11935TIP3    H257221   1.375   1.759  10.471 -0.4680  0.6273  0.4345
11936TIP3   OH257222   2.066   3.181  11.928  0.1283  0.3898 -0.5976
11936TIP3    H157223   2.146   3.199  11.979 -0.8597 -2.1648  2.0923
11936TIP3    H257224   2.092   3.112  11.867 -0.3904 -2.2444  1.9267
11937TIP3   OH257225   1.557   0.680   0.027  0.3916 -0.0318 -0.1737
11937TIP3    H157226   1.563   0.622   0.103 -1.6724 -0.6151 -0.4179
11937TIP3    H257227   1.580   0.625  -0.048 -0.5716 -0.2886 -0.2920
11938TIP3   OH257228   4.027   1.495   1.311  0.2520 -0.0252  0.2515
11938TIP3    H157229   3.996   1.485   1.221 -0.6253  0.5622  0.4822
11938TIP3    H257230   3.962   1.449   1.364  0.7583 -0.3591  0.5983
11939TIP3   OH257231   1.371   4.687   6.134  0.2458 -0.0518  0.3394
11939TIP3    H157232   1.411   4.762   6.177 -2.0846  0.3908  1.9481
11939TIP3    H257233   1.292   4.670   6.185  0.1521 -2.9713 -0.6086
11940TIP3   OH257234   1.806   6.256  12.303 -0.5863 -0.0112 -0.0297
11940TIP3    H157235   1.803   6.295  12.216 -1.4356  0.0412  0.0112
11940TIP3    H257236   1.763   6.321  12.360 -1.3207 -0.6566  0.1698
11941TIP3   OH257237   5.862   3.020  13.457 -0.0888 -0.0802  0.5215
11941TIP3    H157238   5.771   3.050  13.457  0.0732  0.4955 -0.6103
11941TIP3    H257239   5.857   2.926  13.472 -0.6925  0.2885  3.0679
11942TIP3   OH257240   6.490   1.155  17.309  0.3440 -0.0238  0.0468
11942TIP3    H157241   6.498   1.143  17.214 -2.6882  1.8897 -0.5859
11942TIP3    H257242   6.441   1.079  17.339 -3.6436  1.8892 -1.0180
11943TIP3   OH257243   2.641   3.283   3.557  0.1394 -0.4664 -0.0326
11943TIP3    H157244   2.576   3.264   3.489 -0.2805  2.2355 -0.4800
11943TIP3    H257245   2.726   3.269   3.513 -0.1318  0.6002 -0.9492
11944TIP3   OH257246   1.162   5.215   3.962 -0.1835 -0.3605  0.0136
11944TIP3    H157247   1.137   5.296   3.919 -0.0459 -0.9871 -1.3007
11944TIP3    H257248   1.219   5.242   4.034  1.3114  0.6205 -1.4638
11945TIP3   OH257249   2.074   5.144  12.454 -0.1822  0.0454 -0.2245
11945TIP3    H157250   2.047   5.235  12.459 -1.2828 -0.2312 -0.7519
11945TIP3    H257251   2.025   5.100  12.523  0.2130 -0.1772 -0.0809
11946TIP3   OH257252   5.267   4.167  16.265 -0.0875 -0.0572  0.4451
11946TIP3    H157253   5.270   4.074  16.240  0.7144 -0.2748  1.2895
11946TIP3    H257254   5.204   4.205  16.205  0.2925 -0.9554 -0.5811
11947TIP3   OH257255   5.045   0.771   2.811  0.1762  0.2587  0.0534
11947TIP3    H157256   5.047   0.834   2.739  2.1361  1.4042  1.0567
11947TIP3    H257257   4.990   0.812   2.878  0.2904  0.2626  0.1449
11948TIP3   OH257258   2.368   3.707  14.004 -0.2347  0.1772 -0.2765
11948TIP3    H157259   2.436   3.692  14.069 -0.3063  0.3281 -0.1636
11948TIP3    H257260   2.401   3.667  13.924  1.4027  2.8816 -1.0832
11949TIP3   OH257261   6.500   0.730   1.406  0.0401 -0.2847  0.7223
11949TIP3    H157262   6.517   0.779   1.325  0.3872  0.5816  1.3041
11949TIP3    H257263   6.405   0.720   1.408 -0.1637  1.4404  1.1832
11950TIP3   OH257264   0.589   0.964   3.529 -0.2179  0.1588  0.0326
11950TIP3    H157265   0.540   1.029   3.580 -0.6533  0.3763 -0.6599
11950TIP3    H257266   0.523   0.899   3.504 -0.4648  1.1283 -2.0370
11951TIP3   OH257267   4.180   0.218  15.406  0.2873 -0.3310  0.7364
11951TIP3    H157268   4.096   0.216  15.360 -0.0776  1.2586  1.2537
11951TIP3    H257269   4.156   0.226  15.499  0.9709  1.4336  0.7983
11952TIP3   OH257270   4.364   3.817  12.362 -0.1413 -0.0904  0.1065
11952TIP3    H157271   4.459   3.804  12.366 -0.0752  0.1620 -0.5773
11952TIP3    H257272   4.353   3.911  12.355 -0.3699 -0.2106 -1.4191
11953TIP3   OH257273   5.805   2.776  16.605  0.1693  0.3737 -0.0866
11953TIP3    H157274   5.760   2.803  16.684 -0.5192 -2.3225  0.5629
11953TIP3    H257275   5.897   2.769  16.630  0.1045  0.5192  0.1894
11954TIP3   OH257276   1.363   3.729   2.505  0.3518 -0.5591  0.6694
11954TIP3    H157277   1.318   3.690   2.580 -0.5622  1.4498  1.2366
11954TIP3    H257278   1.297   3.784   2.463  1.5504  0.3472 -0.1001
11955TIP3   OH257279   2.807   3.358   1.928  0.3072  0.6661 -0.3765
11955TIP3    H157280   2.772   3.354   1.838  1.9671 -0.8786 -1.0063
11955TIP3    H257281   2.873   3.427   1.924 -1.5521  2.6103  0.4614
11956TIP3   OH257282   1.355   3.947   2.874  0.4744  0.7062 -0.2997
11956TIP3    H157283   1.362   3.963   2.968 -0.4375 -2.8009  0.5439
11956TIP3    H257284   1.444   3.923   2.847  0.5572  0.7460 -0.0680
11957TIP3   OH257285   3.909   5.873  16.511 -0.4320  0.2876  0.3814
11957TIP3    H157286   3.914   5.955  16.561  2.0664  0.1304  0.4743
11957TIP3    H257287   3.959   5.891  16.431 -0.3023 -1.0092  0.1617
11958TIP3   OH257288   2.025   5.040   3.055 -0.2656 -0.4527 -0.1834
11958TIP3    H157289   2.119   5.030   3.068 -0.0309 -1.0513 -2.0343
11958TIP3    H257290   2.007   4.993   2.974 -1.7430  1.6941 -1.2014
11959TIP3   OH257291   0.883   5.541   3.603 -0.1271 -0.6511 -0.1613
11959TIP3    H157292   0.821   5.549   3.676  1.9051  0.4457  1.5469
11959TIP3    H257293   0.852   5.605   3.538 -1.2427 -0.7457  0.2424
11960TIP3   OH257294   3.153   4.598  13.890 -0.7701 -0.3146 -0.1242
11960TIP3    H157295   3.087   4.540  13.926 -0.5443 -0.6396 -0.2282
11960TIP3    H257296   3.104   4.677  13.864 -0.7712  0.3884  1.8907
11961TIP3   OH257297   4.586   4.364  10.829  0.4992 -0.6344  0.4583
11961TIP3    H157298   4.673   4.399  10.852 -0.3309  1.2192  0.9303
11961TIP3    H257299   4.525   4.435  10.851 -1.4224 -2.7619  2.5306
11962TIP3   OH257300   3.934   2.207  16.516 -0.5805  0.6511 -0.0335
11962TIP3    H157301   4.003   2.142  16.500 -2.5405 -1.4340 -0.5833
11962TIP3    H257302   3.857   2.155  16.538 -1.9414  2.8993  0.8488
11963TIP3   OH257303   4.151   6.008  17.248 -0.1929  0.5218 -0.0465
11963TIP3    H157304   4.129   6.094  17.284  2.6659  0.4993  2.0742
11963TIP3    H257305   4.117   5.945  17.312  1.6420  0.3134  0.7616
11964TIP3   OH257306   4.673   6.661   1.764 -0.1567 -0.2727 -0.1105
11964TIP3    H157307   4.733   6.621   1.701 -0.0124 -0.5890  0.2282
11964TIP3    H257308   4.699   6.626   1.849  0.6205  1.3074  0.3332
11965TIP3   OH257309   3.400   6.158   2.405 -0.2637 -0.0603  0.0340
11965TIP3    H157310   3.337   6.126   2.470  0.5431  0.4714  1.0975
11965TIP3    H257311   3.399   6.253   2.416  1.7984 -0.1149  1.1291
11966TIP3   OH257312   1.823   5.638  11.545  0.0646  0.3672 -0.6146
11966TIP3    H157313   1.882   5.642  11.469 -1.8024  0.4225 -2.1321
11966TIP3    H257314   1.768   5.562  11.528  1.3590 -1.2908  2.1053
11967TIP3   OH257315   1.744   0.611  14.429  0.5662 -0.3701  0.1211
11967TIP3    H157316   1.731   0.532  14.376 -0.9757  0.4322 -0.7626
11967TIP3    H257317   1.656   0.638  14.454  0.9682  1.5807 -0.3924
11968TIP3   OH257318   1.767   3.877  14.925  0.0393  0.2194 -0.2371
11968TIP3    H157319   1.790   3.921  14.843  1.7083 -1.0566 -0.5231
11968TIP3    H257320   1.686   3.830  14.905  0.1768  0.2969 -1.0047
11969TIP3   OH257321   1.221   3.173  16.049  0.7870  0.2679  0.3454
11969TIP3    H157322   1.194   3.180  15.957  0.2802  2.0363  0.5791
11969TIP3    H257323   1.157   3.114  16.088  0.9070 -0.3709 -0.3952
11970TIP3   OH257324   5.107   2.280  16.278  0.1356 -0.4468 -0.5565
11970TIP3    H157325   5.064   2.328  16.207 -0.0896 -0.4938 -0.4518
11970TIP3    H257326   5.040   2.272  16.346  1.8286  4.8073  2.2822
11971TIP3   OH257327   6.130   3.603   3.726 -0.7218 -0.1733 -0.1150
11971TIP3    H157328   6.202   3.615   3.663 -0.9971 -1.3251 -0.6762
11971TIP3    H257329   6.168   3.551   3.797 -0.7521  0.0248  0.0465
11972TIP3   OH257330   4.905   1.016   1.618  0.3893 -0.6615  1.0981
11972TIP3    H157331   4.821   1.015   1.663  0.6186 -0.7302  1.5306
11972TIP3    H257332   4.883   1.009   1.525 -0.1916  1.1859  1.0564
11973TIP3   OH257333   5.720   5.782  16.962  0.2323  0.6337 -0.2816
11973TIP3    H157334   5.700   5.703  17.013  0.4326  0.9238  0.2587
11973TIP3    H257335   5.811   5.802  16.984  0.1195  1.1245 -0.2609
11974TIP3   OH257336   1.638   1.049  15.170 -0.1419  0.3933 -0.5498
11974TIP3    H157337   1.696   1.049  15.094 -0.8782  0.7877 -1.1206
11974TIP3    H257338   1.612   1.141  15.181 -0.4374  0.2640 -0.1369
11975TIP3   OH257339   3.228   3.510   0.019 -0.2897  0.3625  0.3834
11975TIP3    H157340   3.274   3.509   0.103 -0.6429  0.8663  0.5823
11975TIP3    H257341   3.148   3.461   0.036  0.2925 -0.8000 -0.0508
11976TIP3   OH257342   4.936   3.473   0.872 -0.0158 -0.5778  0.0124
11976TIP3    H157343   4.886   3.420   0.934 -2.4445 -0.2647 -1.5512
11976TIP3    H257344   4.958   3.412   0.801 -0.0797 -0.2244 -0.3165
11977TIP3   OH257345   2.728   0.643   4.228 -0.9859 -0.1962 -0.4119
11977TIP3    H157346   2.753   0.735   4.218 -0.4327 -0.2829  0.1086
11977TIP3    H257347   2.759   0.601   4.148 -0.2743 -0.1283 -0.1772
11978TIP3   OH257348   2.198   3.174   4.534  0.3234  0.3204  0.2097
11978TIP3    H157349   2.290   3.151   4.545 -0.2508 -2.4739  0.0620
11978TIP3    H257350   2.172   3.127   4.454 -0.8061  2.5785 -0.8297
11979TIP3   OH257351   6.622   5.411  16.099 -0.0051 -0.0936 -0.2602
11979TIP3    H157352   6.535   5.374  16.114 -0.2272  1.0564  1.5886
11979TIP3    H257353   6.605   5.491  16.050 -0.0262  0.2215  0.2514
11980TIP3   OH257354   3.860   4.180  15.250  0.7465 -0.5177 -0.8708
11980TIP3    H157355   3.914   4.207  15.176 -0.4368  0.9578 -1.2498
11980TIP3    H257356   3.871   4.250  15.315 -0.3347 -0.4002 -0.7889
11981TIP3   OH257357   3.147   4.675  14.620  0.0881 -0.2926 -0.8559
11981TIP3    H157358   3.232   4.684  14.576  1.1822 -0.1004  1.1746
11981TIP3    H257359   3.167   4.629  14.701 -1.8212 -0.4993 -0.4591
11982TIP3   OH257360   5.641   4.889  13.143 -0.2911 -0.0143  0.1783
11982TIP3    H157361   5.676   4.954  13.082 -2.0507 -0.5574 -1.4986
11982TIP3    H257362   5.557   4.926  13.172 -0.0281 -0.3100  1.3904
11983TIP3   OH257363   6.295   1.241   5.354 -0.0352 -0.5903 -0.2812
11983TIP3    H157364   6.333   1.290   5.427 -0.8710  0.5687 -0.6088
11983TIP3    H257365   6.357   1.169   5.340  1.8066  0.9604 -0.5024
11984TIP3   OH257366   6.697   2.811   4.654  0.0373 -0.0576 -0.0880
11984TIP3    H157367   6.637   2.752   4.700 -1.3430 -0.1534 -1.9094
11984TIP3    H257368   6.746   2.755   4.595 -0.4084  0.4282 -0.9455
11985TIP3   OH257369   4.220   0.426  13.486  0.0071 -0.1117 -0.2699
11985TIP3    H157370   4.244   0.516  13.467 -0.3151 -0.5282 -3.0760
11985TIP3    H257371   4.166   0.399  13.412 -2.1895 -1.8202  1.7675
11986TIP3   OH257372   6.651   5.756   2.246  0.3426  0.7147 -0.7438
11986TIP3    H157373   6.745   5.776   2.251 -0.1252  3.1520 -0.5427
11986TIP3    H257374   6.613   5.806   2.318 -1.4366  2.1491 -2.5794
11987TIP3   OH257375   0.515   3.535   5.688 -0.3964  0.2105 -0.3245
11987TIP3    H157376   0.569   3.552   5.611  0.5634  0.7166  0.4399
11987TIP3    H257377   0.490   3.443   5.680  0.5291 -0.0133 -0.7216
11988TIP3   OH257378   4.157   1.368  12.447 -0.5421 -0.2418  0.1687
11988TIP3    H157379   4.182   1.299  12.385  0.4283 -0.7939  1.1312
11988TIP3    H257380   4.063   1.380  12.433 -0.5606 -1.1578 -0.6154
11989TIP3   OH257381   5.693   1.406  13.390  0.3888 -0.0163  0.2211
11989TIP3    H157382   5.740   1.344  13.334  0.6430  1.2023 -0.9583
11989TIP3    H257383   5.762   1.454  13.435  0.6691  3.6934 -3.5334
11990TIP3   OH257384   0.835   3.929   1.393  0.8706 -0.0748  0.4080
11990TIP3    H157385   0.743   3.910   1.375  0.3216  1.2897  1.5965
11990TIP3    H257386   0.875   3.936   1.306 -0.2548 -0.1562 -0.1388
11991TIP3   OH257387   5.994   0.764   4.567  0.1925 -0.2431 -0.1456
11991TIP3    H157388   6.019   0.677   4.600  0.9283 -0.5107 -1.3392
11991TIP3    H257389   5.982   0.751   4.473  1.5182  1.1958 -0.5550
11992TIP3   OH257390   6.036   2.264   4.486 -0.1693  0.4777 -0.0225
11992TIP3    H157391   6.028   2.169   4.478 -0.3878  0.3722  1.2221
11992TIP3    H257392   5.952   2.292   4.523  0.5774  0.8985  1.4357
11993TIP3   OH257393   4.301   2.186   2.904 -0.3222 -0.0680  0.2708
11993TIP3    H157394   4.234   2.196   2.836 -0.1132 -0.4163  0.0128
11993TIP3    H257395   4.362   2.122   2.868  1.5943  2.1378 -0.6735
11994TIP3   OH257396   4.986   2.011  13.770 -0.3935  0.6712 -0.1911
11994TIP3    H157397   5.036   1.940  13.810  0.1961  1.4547  0.4897
11994TIP3    H257398   4.998   2.086  13.829 -1.9142  1.0380 -0.3030
11995TIP3   OH257399   2.090   6.016  16.678 -0.0495 -0.3488  0.2623
11995TIP3    H157400   2.120   5.938  16.725 -0.4306  0.0193  1.1474
11995TIP3    H257401   2.091   5.991  16.586  0.3681 -1.2150  0.4961
11996TIP3   OH257402   2.070   1.694   6.148  0.2467  0.0316 -0.4671
11996TIP3    H157403   2.025   1.610   6.158  2.5275 -1.2872 -0.4886
11996TIP3    H257404   2.066   1.712   6.054  1.6614 -1.2747 -0.8294
11997TIP3   OH257405   6.636   3.294   4.523 -0.2283 -0.1991  0.0413
11997TIP3    H157406   6.629   3.372   4.468  0.2344 -0.8863 -1.0237
11997TIP3    H257407   6.691   3.322   4.597 -0.1395  0.4996 -0.2807
11998TIP3   OH257408   2.666   2.725   2.853 -0.0305  0.2185  0.4702
11998TIP3    H157409   2.627   2.668   2.787  0.7728  0.1757  0.0205
11998TIP3    H257410   2.655   2.813   2.817  1.4890  0.1114 -0.3217
11999TIP3   OH257411   2.936   1.286   5.503 -0.2108  0.1483 -0.5091
11999TIP3    H157412   2.895   1.372   5.508 -0.6419 -0.1204  0.8576
11999TIP3    H257413   3.011   1.290   5.563 -0.4868 -0.5528 -0.0997
12000TIP3   OH257414   0.517   4.420   5.090  0.3173  0.5828  0.4663
12000TIP3    H157415   0.470   4.339   5.071 -1.0466  0.9496  2.0995
12000TIP3    H257416   0.609   4.399   5.072  0.0491 -1.4646  1.2510
12001TIP3   OH257417   0.204   1.875  12.376  0.5479 -0.4515  0.5489
12001TIP3    H157418   0.224   1.966  12.398 -0.7844 -0.4691  1.9970
12001TIP3    H257419   0.126   1.854  12.427  0.5878 -2.2973 -0.0587
12002TIP3   OH257420   5.968   5.175   5.252  0.2425  0.0698  0.0434
12002TIP3    H157421   5.915   5.228   5.191  0.4621 -0.7482 -0.8732
12002TIP3    H257422   5.903   5.124   5.301  0.1167 -0.0113 -0.2054
12003TIP3   OH257423   6.733   4.497   4.421 -0.2798 -0.4234  0.1812
12003TIP3    H157424   6.728   4.548   4.340  2.4431  1.3536  1.0016
12003TIP3    H257425   6.779   4.417   4.396 -1.9940 -1.2478 -0.5207
12004TIP3   OH257426   4.294   2.141   3.448 -0.5599 -0.3184 -0.1995
12004TIP3    H157427   4.210   2.177   3.419 -0.9551 -1.2732 -0.2773
12004TIP3    H257428   4.359   2.202   3.413 -1.2298  0.6140  0.1390
12005TIP3   OH257429   1.098   2.817   0.197  0.3821 -0.0435  0.0046
12005TIP3    H157430   1.184   2.790   0.230 -0.3517 -1.8900  0.5177
12005TIP3    H257431   1.036   2.758   0.240 -1.0189  0.3380 -1.3987
12006TIP3   OH257432   6.278   5.519   4.031 -0.4373  0.1523 -0.2806
12006TIP3    H157433   6.332   5.483   4.101 -1.0246  0.0971  0.1473
12006TIP3    H257434   6.340   5.536   3.960  0.5137  2.0319  0.9089
12007TIP3   OH257435   0.261   6.609  13.505  0.2695 -0.8894  0.2347
12007TIP3    H157436   0.176   6.625  13.546  0.8289  0.8833  0.7969
12007TIP3    H257437   0.320   6.592  13.578  1.4891  3.2797  0.4251
12008TIP3   OH257438   1.309   6.126  13.744  0.0951  0.2436  0.2423
12008TIP3    H157439   1.309   6.159  13.655 -0.1293  0.0044  0.1526
12008TIP3    H257440   1.227   6.157  13.782  0.0648  0.1179  0.2807
12009TIP3   OH257441   1.063   0.606   6.493  0.4512 -0.3838 -0.2813
12009TIP3    H157442   0.975   0.629   6.464 -0.2931 -3.3427 -0.6682
12009TIP3    H257443   1.118   0.677   6.460 -1.8331  1.9766  0.6857
12010TIP3   OH257444   6.272   5.677   0.686 -0.3163 -0.6288  0.6065
12010TIP3    H157445   6.243   5.655   0.775 -2.1956 -0.5543  0.0548
12010TIP3    H257446   6.236   5.608   0.631  2.0779 -1.4908  0.0303
12011TIP3   OH257447   0.764   5.169   2.809  0.2688 -0.0420 -0.4412
12011TIP3    H157448   0.841   5.194   2.758  0.0391  0.5096 -0.5271
12011TIP3    H257449   0.733   5.088   2.767 -0.0826  0.5506 -1.3774
12012TIP3   OH257450   4.661   2.177   5.202 -0.6674 -0.0786  0.4881
12012TIP3    H157451   4.669   2.125   5.282 -1.2232 -1.1283 -0.1234
12012TIP3    H257452   4.732   2.241   5.208  0.3210 -1.1848  1.0523
12013TIP3   OH257453   6.743   6.346  13.759  0.2535 -0.0316  0.1161
12013TIP3    H157454   6.682   6.273  13.761  0.1662  0.0538  0.6966
12013TIP3    H257455   6.811   6.319  13.698  0.5451 -0.8602  0.7871
12014TIP3   OH257456   3.879   5.577  13.456 -0.1448  0.4270 -0.8569
12014TIP3    H157457   3.794   5.600  13.418 -0.6596  1.6911  0.9433
12014TIP3    H257458   3.898   5.648  13.518  0.5678 -1.5440  1.3375
12015TIP3   OH257459   2.494   1.225  16.235  0.8058  0.1602  0.3401
12015TIP3    H157460   2.513   1.140  16.274  2.2187  1.1216  1.8647
12015TIP3    H257461   2.557   1.233  16.163  0.7596 -0.0415  0.2789
12016TIP3   OH257462   4.782   6.599  11.978 -0.2364 -0.1510  0.3066
12016TIP3    H157463   4.864   6.602  12.027 -0.8490  1.6071  1.3154
12016TIP3    H257464   4.738   6.520  12.010  1.5319 -1.8374 -1.1593
12017TIP3   OH257465   2.921   2.235  15.609  0.4754 -0.3438 -0.0810
12017TIP3    H157466   2.939   2.216  15.701 -0.7739 -0.9603  0.0570
12017TIP3    H257467   2.832   2.203  15.595 -0.4028  2.1310 -0.8028
12018TIP3   OH257468   4.435   5.639   2.843  0.0540 -0.0425  0.0452
12018TIP3    H157469   4.427   5.693   2.764 -3.0173 -0.8231 -0.3150
12018TIP3    H257470   4.409   5.552   2.814 -2.9403  0.0083  2.1911
12019TIP3   OH257471   5.237   4.538  16.170  0.1770 -0.3919 -0.5779
12019TIP3    H157472   5.276   4.565  16.253 -0.0777 -2.0035  0.1190
12019TIP3    H257473   5.240   4.616  16.115 -1.4836  1.3550  1.5968
12020TIP3   OH257474   1.585   1.995   6.054  0.0005  0.5718  0.0200
12020TIP3    H157475   1.626   2.059   5.996 -0.7462  0.2571 -0.8739
12020TIP3    H257476   1.659   1.949   6.093  0.6303  3.0682  2.0321
12021TIP3   OH257477   5.138   4.392   5.195  0.4505 -0.0342 -0.0766
12021TIP3    H157478   5.198   4.323   5.224  0.0329 -0.2717  0.2162
12021TIP3    H257479   5.068   4.393   5.260 -0.3660 -0.3999 -0.9222
12022TIP3   OH257480   6.137   5.737   3.929 -0.3013  0.1250 -0.8155
12022TIP3    H157481   6.217   5.746   3.876 -0.0094  0.1321 -0.3756
12022TIP3    H257482   6.142   5.649   3.966 -0.2317  0.3219 -0.3540
12023TIP3   OH257483   3.230   2.076   3.198  0.4149  0.6810 -0.5248
12023TIP3    H157484   3.211   2.169   3.189 -0.5926  0.7818  1.8593
12023TIP3    H257485   3.325   2.069   3.191  0.3713  1.5418 -2.8225
12024TIP3   OH257486   2.328   4.653   4.257 -0.1011  0.2790 -0.4809
12024TIP3    H157487   2.363   4.600   4.186  1.0166 -1.2573  1.1208
12024TIP3    H257488   2.402   4.664   4.317 -1.1241  1.1273  0.6863
12025TIP3   OH257489   0.089   3.084  15.088  0.0120 -0.5535  0.5249
12025TIP3    H157490   0.066   3.176  15.074 -0.0468 -0.7467 -0.8142
12025TIP3    H257491   0.019   3.050  15.144 -2.0796 -0.6520 -1.9265
12026TIP3   OH257492   4.722   2.764   2.260  0.3433 -0.1929 -0.1641
12026TIP3    H157493   4.739   2.770   2.166 -0.6713 -0.9224 -0.4225
12026TIP3    H257494   4.630   2.791   2.269  0.7953  1.1085  0.7942
12027TIP3   OH257495   0.782   0.178   1.902 -0.8298  0.0722  0.3603
12027TIP3    H157496   0.790   0.126   1.982 -0.0391  0.7969  0.7778
12027TIP3    H257497   0.691   0.165   1.874 -1.0069 -0.5128  1.1526
12028TIP3   OH257498   3.649   1.534   3.429 -0.2869  0.5135  0.3895
12028TIP3    H157499   3.595   1.461   3.460  2.0758 -1.2334  0.5898
12028TIP3    H257500   3.659   1.518   3.336  1.0858 -0.0271  0.6172
12029TIP3   OH257501   4.243   6.524  11.377  0.4590 -0.4058 -0.2320
12029TIP3    H157502   4.169   6.584  11.365  0.4127  0.1755  2.4223
12029TIP3    H257503   4.286   6.522  11.291 -0.8740  1.6197 -1.0326
12030TIP3   OH257504   3.751   4.187   5.892 -0.0373  0.4643  0.1947
12030TIP3    H157505   3.775   4.138   5.970  1.5373  0.1943 -0.4235
12030TIP3    H257506   3.806   4.266   5.895 -1.0537  1.2001  0.1198
12031TIP3   OH257507   6.338   4.413   4.036 -0.1486 -0.6562 -0.0052
12031TIP3    H157508   6.337   4.330   3.988 -0.8718 -0.7011  0.0840
12031TIP3    H257509   6.278   4.400   4.109 -0.4700  0.0281 -0.1332
12032TIP3   OH257510   3.101   0.369   4.285  0.3873  0.1981 -0.1383
12032TIP3    H157511   3.071   0.278   4.285 -1.7056  0.7883 -1.8018
12032TIP3    H257512   3.089   0.398   4.195  1.7786  1.9085  0.1740
12033TIP3   OH257513   3.059   4.817  16.653  0.4696 -0.3644 -0.0666
12033TIP3    H157514   3.150   4.816  16.681 -0.1111  1.0132  2.0982
12033TIP3    H257515   3.008   4.823  16.734 -1.4465  1.4624 -1.2770
12034TIP3   OH257516   5.788   5.486   4.437  0.2505  0.2914 -0.0927
12034TIP3    H157517   5.877   5.501   4.405  0.2431 -0.5900 -0.5466
12034TIP3    H257518   5.789   5.395   4.467 -0.9965 -0.3369 -1.8167
12035TIP3   OH257519   2.261   5.207  13.418 -1.1490 -0.0135  0.7015
12035TIP3    H157520   2.321   5.162  13.477 -0.0532 -0.6035 -0.8069
12035TIP3    H257521   2.174   5.186  13.453 -0.5830 -1.3105  1.4215
12036TIP3   OH257522   4.060   0.354  17.245  0.2382 -0.1556 -0.0833
12036TIP3    H157523   4.143   0.356  17.293 -0.3917 -1.3670  1.1126
12036TIP3    H257524   4.073   0.289  17.176  0.3570 -0.1399 -0.0774
12037TIP3   OH257525   3.628   4.259   1.636  0.5032 -0.3521 -0.2940
12037TIP3    H157526   3.593   4.190   1.692  2.5912 -0.4554  0.9929
12037TIP3    H257527   3.723   4.250   1.642  0.9810  3.5107  1.1663
12038TIP3   OH257528   4.634   4.852  12.163 -0.5369 -0.1790 -0.0862
12038TIP3    H157529   4.672   4.810  12.241  2.3523  0.9714 -0.7348
12038TIP3    H257530   4.612   4.779  12.106  0.9073 -0.9805  0.3118
12039TIP3   OH257531   4.068   2.277  15.142  0.0776  0.0787 -0.5620
12039TIP3    H157532   4.096   2.215  15.209 -1.0532 -1.6386 -1.6025
12039TIP3    H257533   3.976   2.256  15.127  0.5485 -0.3738 -3.4105
12040TIP3   OH257534   5.315   2.168   0.827 -0.7071  0.1462  0.1181
12040TIP3    H157535   5.408   2.189   0.819 -1.2258  2.0484 -2.2317
12040TIP3    H257536   5.303   2.088   0.776 -0.4941  0.3517 -0.2537
12041TIP3   OH257537   2.147   5.993   0.947 -0.0187 -0.0289  0.0384
12041TIP3    H157538   2.222   6.052   0.958  0.2160 -0.0684 -1.1934
12041TIP3    H257539   2.158   5.957   0.859 -1.5881  0.0994 -0.2344
12042TIP3   OH257540   0.256   3.229   2.696 -0.0087 -0.1387 -0.4299
12042TIP3    H157541   0.286   3.219   2.786  1.3251 -1.5562 -0.9671
12042TIP3    H257542   0.250   3.139   2.663 -0.2660  0.3573 -1.8100
12043TIP3   OH257543   5.396   3.932   4.537 -0.0424 -0.7163  0.2466
12043TIP3    H157544   5.417   3.881   4.616 -0.3168 -1.5660 -0.2205
12043TIP3    H257545   5.477   3.980   4.518  0.7496 -2.1171 -0.1471
12044TIP3   OH257546   1.409   3.289   1.445  0.1014  0.5455 -0.2460
12044TIP3    H157547   1.489   3.272   1.496 -0.0315  0.7508  0.0346
12044TIP3    H257548   1.423   3.376   1.407  0.2992  0.2938 -0.7527
12045TIP3   OH257549   6.737   4.059  15.491 -0.2027 -0.0455 -0.0638
12045TIP3    H157550   6.719   4.106  15.572 -0.9682 -1.4875  0.6457
12045TIP3    H257551   6.829   4.035  15.496  0.2409  1.4396 -0.5058
12046TIP3   OH257552   2.619   6.280   2.226  0.3208 -0.4653 -0.3393
12046TIP3    H157553   2.627   6.237   2.312 -1.2171 -1.3977 -0.6098
12046TIP3    H257554   2.658   6.366   2.239 -2.7724  0.7867  2.3817
12047TIP3   OH257555   3.514   3.967   6.121 -0.0475  0.4062 -0.3352
12047TIP3    H157556   3.582   3.911   6.084 -0.0555 -0.4827  0.9380
12047TIP3    H257557   3.562   4.037   6.165  0.0178  0.2482 -0.1557
12048TIP3   OH257558   2.775   5.823  13.869 -0.1330 -0.1737  0.8657
12048TIP3    H157559   2.741   5.748  13.919 -2.5981 -0.3251 -0.9063
12048TIP3    H257560   2.770   5.795  13.778 -0.1088  1.7970  0.2307
12049TIP3   OH257561   2.499   5.242   6.057 -0.2188 -0.5234  1.2008
12049TIP3    H157562   2.521   5.190   5.980  2.1897  0.2121  1.3097
12049TIP3    H257563   2.542   5.198   6.130 -1.7461 -0.7264  2.0171
12050TIP3   OH257564   6.147   3.973   0.436  0.4429 -0.4114 -0.0039
12050TIP3    H157565   6.138   4.068   0.428  0.5621 -0.1316  2.5108
12050TIP3    H257566   6.135   3.941   0.347 -0.6799  1.8730 -0.7634
12051TIP3   OH257567   2.831   3.336  17.300 -0.1393  0.6701 -0.0646
12051TIP3    H157568   2.758   3.328  17.361 -0.2962 -1.1478 -0.4274
12051TIP3    H257569   2.790   3.366  17.218 -0.4543 -0.0577 -0.1835
12052TIP3   OH257570   3.508   5.310   6.597 -0.1059  0.0828 -0.3587
12052TIP3    H157571   3.596   5.334   6.626 -0.4940 -0.4367  1.3600
12052TIP3    H257572   3.461   5.394   6.592  0.5206  0.3879 -1.5088
12053TIP3   OH257573   6.058   4.251   2.788 -0.1915  0.0868 -0.0429
12053TIP3    H157574   6.063   4.325   2.726 -0.5695 -0.6923 -1.0297
12053TIP3    H257575   5.971   4.259   2.827  0.1648  0.7620  0.6373
12054TIP3   OH257576   0.009   6.258  14.725 -0.2394  0.1704 -0.1209
12054TIP3    H157577  -0.075   6.248  14.680 -0.2660  0.0918 -0.0541
12054TIP3    H257578  -0.005   6.216  14.809  0.4104 -1.4159 -0.7758
12055TIP3   OH257579   0.877   6.284   2.645  0.1517  0.5212 -0.4406
12055TIP3    H157580   0.866   6.379   2.652 -0.4903  0.3989  0.4015
12055TIP3    H257581   0.956   6.273   2.592  1.1383  1.5345  0.7605
12056TIP3   OH257582   3.784   1.662   1.095  0.5052 -0.2826 -0.3800
12056TIP3    H157583   3.738   1.684   1.176 -0.6478  0.8134 -1.3027
12056TIP3    H257584   3.843   1.736   1.080  1.7935 -1.1512  0.1871
12057TIP3   OH257585   0.681   2.936  11.853  0.3679 -0.3752 -0.0962
12057TIP3    H157586   0.660   2.951  11.760 -0.5322 -1.4683 -0.0876
12057TIP3    H257587   0.616   2.872  11.882  0.7297 -0.1474  1.2623
12058TIP3   OH257588   1.923   6.339   1.035  0.3076 -0.0733  0.3421
12058TIP3    H157589   1.984   6.411   1.023  1.8661 -1.1382  1.3614
12058TIP3    H257590   1.844   6.365   0.988  1.5974  1.3026 -1.1731
12059TIP3   OH257591   1.427   0.003  12.612  0.9030 -0.4263  0.4842
12059TIP3    H157592   1.477   0.067  12.561 -0.5983 -1.1428 -2.0587
12059TIP3    H257593   1.468  -0.081  12.592 -0.5746 -0.8874 -0.7857
12060TIP3   OH257594   6.735   2.481  13.084 -0.4732  0.1897  0.1593
12060TIP3    H157595   6.645   2.467  13.113 -0.2122 -1.3598  0.3021
12060TIP3    H257596   6.729   2.557  13.026 -1.9808 -0.2229 -0.2848
12061TIP3   OH257597   2.424   5.733   2.321 -0.0925 -0.3217  0.0283
12061TIP3    H157598   2.332   5.730   2.294 -0.1347  2.0742 -0.2627
12061TIP3    H257599   2.471   5.689   2.250 -1.0769 -3.2253  1.0046
12062TIP3   OH257600   5.384   5.860   4.111 -0.1795  0.3566 -0.2963
12062TIP3    H157601   5.307   5.812   4.080 -1.0906  1.0038  0.9170
12062TIP3    H257602   5.399   5.927   4.045  0.6599 -1.0645 -1.6311
12063TIP3   OH257603   1.957   0.237   4.015  0.0514  0.4935  0.0994
12063TIP3    H157604   1.964   0.243   3.920  1.0664 -0.5439  0.0871
12063TIP3    H257605   2.046   0.251   4.046  0.1542 -1.3582  0.7529
12064TIP3   OH257606   0.386   1.411   1.495  0.1395  0.1397  0.0435
12064TIP3    H157607   0.337   1.475   1.546  1.8744  0.3641  1.5364
12064TIP3    H257608   0.431   1.464   1.429  0.8206  0.3740  0.6768
12065TIP3   OH257609   6.064   3.659   4.064  0.7287  0.3618  0.5679
12065TIP3    H157610   6.081   3.752   4.078  1.3371  0.0298  2.2493
12065TIP3    H257611   6.028   3.628   4.147  1.6095 -1.1462  0.4293
12066TIP3   OH257612   5.165   0.838  16.846  0.0765  0.1942 -0.0468
12066TIP3    H157613   5.184   0.787  16.767  0.7123  1.0523 -0.4646
12066TIP3    H257614   5.224   0.913  16.841 -1.0821  1.1662  0.3688
12067TIP3   OH257615   1.798   5.290  13.587 -0.6682  0.4931 -0.3593
12067TIP3    H157616   1.836   5.346  13.654 -2.1146 -1.7977  2.6108
12067TIP3    H257617   1.714   5.263  13.624 -0.6028 -2.5980 -2.1653
12068TIP3   OH257618   0.036   2.288  16.002  0.6212 -0.7109  0.6813
12068TIP3    H157619   0.002   2.274  15.914 -0.5757  0.8064  0.8632
12068TIP3    H257620   0.096   2.215  16.016  0.1996 -1.4486 -1.0616
12069TIP3   OH257621   3.784   2.387   6.348  0.6432 -0.1739 -0.0152
12069TIP3    H157622   3.778   2.295   6.374  2.4339 -0.0608  0.9146
12069TIP3    H257623   3.703   2.426   6.380  0.7037 -1.0501  1.2701
12070TIP3   OH257624   3.971   4.669   5.760 -0.1441  0.3253  0.3480
12070TIP3    H157625   3.965   4.573   5.752  0.4471  0.2082  1.1498
12070TIP3    H257626   3.959   4.701   5.671 -0.4328 -0.4939  0.0762
12071TIP3   OH257627   4.774   1.848   6.365 -0.4919 -0.3307 -0.4500
12071TIP3    H157628   4.857   1.895   6.355 -0.3362 -1.0003 -3.0854
12071TIP3    H257629   4.790   1.787   6.438  2.5432 -2.6704 -2.8098
12072TIP3   OH257630   4.581   3.254   2.605  0.5162 -0.7474 -0.4350
12072TIP3    H157631   4.535   3.206   2.674  0.7536 -2.2234 -1.2477
12072TIP3    H257632   4.592   3.189   2.535  0.9454  0.4936 -1.5513
12073TIP3   OH257633   5.370   4.534  14.303  1.2130  0.0372 -0.3751
12073TIP3    H157634   5.343   4.529  14.395 -2.2320  0.5150 -1.2174
12073TIP3    H257635   5.346   4.450  14.266 -0.6444  0.9771 -1.4843
12074TIP3   OH257636   4.048   1.171   0.929  0.3154 -0.4971  0.0405
12074TIP3    H157637   4.096   1.126   0.999  0.0761  0.1176  0.6079
12074TIP3    H257638   3.958   1.175   0.960  0.2087 -0.2098 -0.2995
12075TIP3   OH257639   6.274   1.985   6.864 -0.0329  0.0572 -0.0649
12075TIP3    H157640   6.201   2.029   6.820 -0.2512  0.0586  0.2965
12075TIP3    H257641   6.266   1.893   6.839  0.5207  0.2337 -0.9548
12076TIP3   OH257642   1.071   5.491  13.826  0.1506 -0.4251  0.2387
12076TIP3    H157643   1.149   5.544  13.843  0.7495 -1.1382 -0.2093
12076TIP3    H257644   1.101   5.401  13.836 -0.0495 -0.8165 -2.0519
12077TIP3   OH257645   4.145   6.616  15.187 -1.0672  0.4197 -0.0473
12077TIP3    H157646   4.194   6.655  15.259 -2.2478 -0.3335  1.2116
12077TIP3    H257647   4.125   6.689  15.129 -1.1629  1.2680  1.0293
12078TIP3   OH257648   0.671   1.182   6.734 -0.1518  0.2972  0.2127
12078TIP3    H157649   0.619   1.245   6.684 -0.5176  1.2281  1.7120
12078TIP3    H257650   0.616   1.160   6.809  0.2712 -1.2977  0.0885
12079TIP3   OH257651   1.529   1.908  17.398 -0.1776  0.1013  0.0779
12079TIP3    H157652   1.570   1.851  17.333  2.4957 -0.0182  1.7067
12079TIP3    H257653   1.575   1.991  17.389 -0.3710  0.3440  1.1973
12080TIP3   OH257654   4.428   0.968  11.341 -0.0876  0.0382  0.8838
12080TIP3    H157655   4.463   0.980  11.253 -0.6012  2.5483  0.9258
12080TIP3    H257656   4.480   0.898  11.379  1.3483  0.1200 -0.8110
12081TIP3   OH257657   0.881   3.186  15.655  0.8877 -0.7582 -0.3242
12081TIP3    H157658   0.914   3.276  15.650 -1.2906  0.3047  1.7904
12081TIP3    H257659   0.899   3.159  15.746  0.6705 -2.1106 -0.6599
12082TIP3   OH257660   0.431   2.445  12.653  0.0131 -0.5211  0.3302
12082TIP3    H157661   0.399   2.519  12.601 -0.5667 -2.2172 -1.8765
12082TIP3    H257662   0.393   2.459  12.740 -1.5233  0.8556 -0.5006
12083TIP3   OH257663   3.066   3.123  13.965 -0.4442  0.3622 -0.1351
12083TIP3    H157664   3.073   3.089  14.055  1.6387  1.7939  0.3371
12083TIP3    H257665   3.136   3.078  13.917 -1.3519 -0.1695 -0.9963
12084TIP3   OH257666   4.784   4.473   1.470 -0.0914 -0.2535  0.4391
12084TIP3    H157667   4.804   4.395   1.521  0.4809 -0.5505 -0.2298
12084TIP3    H257668   4.689   4.469   1.457 -0.5013  0.5550  2.6353
12085TIP3   OH257669   1.530   2.549  13.317 -0.5189 -0.0791 -0.0713
12085TIP3    H157670   1.438   2.568  13.301 -0.3235  1.4648  0.4868
12085TIP3    H257671   1.571   2.635  13.328  1.2789 -0.6329 -1.8201
12086TIP3   OH257672   4.488   1.347  15.273  0.7283 -0.0459  0.4894
12086TIP3    H157673   4.463   1.310  15.188  1.8319  0.7003 -0.1848
12086TIP3    H257674   4.414   1.401  15.298  1.2344  1.4692 -1.0745
12087TIP3   OH257675   4.706   6.689  13.733  0.2015  0.4395  0.2237
12087TIP3    H157676   4.729   6.778  13.704 -2.4161  1.1774  0.1904
12087TIP3    H257677   4.686   6.642  13.651  1.4173 -0.1761  0.2541
12088TIP3   OH257678   4.368   6.269   5.396  0.2421  0.5455 -0.0337
12088TIP3    H157679   4.376   6.186   5.349 -1.7446 -0.9235  1.9850
12088TIP3    H257680   4.298   6.315   5.349  0.5145  0.5445 -0.4464
12089TIP3   OH257681   1.439   5.745   6.169 -0.3287  0.5563  0.7217
12089TIP3    H157682   1.443   5.670   6.228  0.2074 -0.2874 -0.3460
12089TIP3    H257683   1.347   5.773   6.172 -0.8673 -0.9957  0.1555
12090TIP3   OH257684   6.653   0.159  15.203  0.2079 -0.4400 -0.0337
12090TIP3    H157685   6.685   0.098  15.136  0.9373 -2.3165  1.9037
12090TIP3    H257686   6.589   0.108  15.253 -0.3717  0.9287  0.6796
12091TIP3   OH257687   1.472   4.980  14.987  0.0779  0.5427 -0.0037
12091TIP3    H157688   1.417   5.059  14.982  0.0247  0.5666  0.7860
12091TIP3    H257689   1.544   5.005  15.045 -0.5184 -0.3075  1.1582
12092TIP3   OH257690   6.284   0.078   5.782  0.2081  0.2748  0.9577
12092TIP3    H157691   6.359   0.041   5.830  1.9050 -0.5736 -2.0831
12092TIP3    H257692   6.309   0.169   5.765  0.5525  0.0183  0.0270
12093TIP3   OH257693   6.404   4.269   3.459  0.0663  0.1175 -0.6131
12093TIP3    H157694   6.314   4.298   3.474 -0.2804 -0.8300 -0.7961
12093TIP3    H257695   6.404   4.239   3.368  0.3640 -0.6090 -0.3774
12094TIP3   OH257696   2.359   4.800  13.613 -0.1708 -0.2890  0.6868
12094TIP3    H157697   2.379   4.782  13.705 -1.1514  0.1040  0.9802
12094TIP3    H257698   2.269   4.771  13.601 -0.0634 -0.3179 -0.1519
12095TIP3   OH257699   2.829   5.133   2.545  0.0767  0.4744  0.1263
12095TIP3    H157700   2.910   5.089   2.570 -0.1268  0.1158  0.1564
12095TIP3    H257701   2.839   5.222   2.578  1.0585  0.8528 -1.0893
12096TIP3   OH257702   5.787   5.575   3.914  0.0511  0.4089 -0.5830
12096TIP3    H157703   5.853   5.524   3.961 -0.6772 -0.8790 -0.9140
12096TIP3    H257704   5.744   5.627   3.982  0.0894 -0.2336 -0.0569
12097TIP3   OH257705   5.357   2.590   1.579 -0.3690  0.7044  0.4886
12097TIP3    H157706   5.435   2.636   1.546 -0.0614 -0.1259  0.0450
12097TIP3    H257707   5.391   2.512   1.621 -0.9000  0.8567  1.2137
12098TIP3   OH257708   3.981   0.430  14.255  0.1165 -0.2852  0.1011
12098TIP3    H157709   3.983   0.479  14.172 -1.1583 -0.3592 -0.0020
12098TIP3    H257710   4.009   0.493  14.321  2.3652 -0.5714 -0.5135
12099TIP3   OH257711   2.689   1.637  16.048 -0.3298 -0.2615  0.1324
12099TIP3    H157712   2.695   1.665  15.956  0.8673  0.3222  0.3613
12099TIP3    H257713   2.693   1.542  16.045 -1.0667 -0.2833 -0.4596
12100TIP3   OH257714   3.963   6.732   3.882 -0.9801  0.1636 -0.2816
12100TIP3    H157715   3.921   6.771   3.805 -0.0239  0.1993 -0.7932
12100TIP3    H257716   3.917   6.771   3.956 -0.7995  1.4040 -0.8043
12101TIP3   OH257717   3.311   5.288  11.495 -0.1032 -0.3558 -0.4124
12101TIP3    H157718   3.309   5.198  11.464 -1.5143 -0.0314 -1.3695
12101TIP3    H257719   3.300   5.282  11.590  0.6310 -1.2086 -0.3752
12102TIP3   OH257720   5.856   2.339  17.365 -0.4993 -0.4402 -0.1284
12102TIP3    H157721   5.905   2.344  17.447  2.3583  1.5426 -1.8010
12102TIP3    H257722   5.893   2.264  17.320 -0.7559 -0.4120 -0.3879
12103TIP3   OH257723   6.682   4.328   5.960  0.5441 -0.0946  0.1318
12103TIP3    H157724   6.679   4.291   6.048 -0.4651  2.0076  1.0648
12103TIP3    H257725   6.607   4.289   5.916  0.0981  0.0563  0.7424
12104TIP3   OH257726   4.529   1.518  10.889 -0.0643  0.1961 -0.2149
12104TIP3    H157727   4.600   1.472  10.933 -0.6322 -0.4520  0.0343
12104TIP3    H257728   4.554   1.610  10.893  0.2277  0.0857  0.8671
12105TIP3   OH257729   0.102   6.677   2.385 -0.4117  0.3660 -0.1006
12105TIP3    H157730   0.128   6.769   2.383 -2.0239  0.8726 -2.3700
12105TIP3    H257731   0.154   6.639   2.455  0.2522  3.0145  0.9865
12106TIP3   OH257732   1.040   3.694  11.560  0.1727 -0.2497  0.0981
12106TIP3    H157733   0.972   3.676  11.625  0.3663  0.0851  0.3981
12106TIP3    H257734   1.001   3.757  11.500  0.6600  1.0094  1.0533
12107TIP3   OH257735   2.368   6.149   0.956 -0.2099 -0.2302 -0.4578
12107TIP3    H157736   2.422   6.073   0.980 -0.5816 -0.9205 -1.7257
12107TIP3    H257737   2.375   6.208   1.031  1.1202 -0.9548  0.0245
12108TIP3   OH257738   0.499   3.183   3.543  0.2503  0.0570 -0.2767
12108TIP3    H157739   0.548   3.226   3.612 -0.9321 -0.6177  1.0409
12108TIP3    H257740   0.410   3.177   3.577 -0.2215 -0.8770 -1.5924
12109TIP3   OH257741   2.083   2.838  12.651  1.0497 -0.2292 -0.0746
12109TIP3    H157742   2.076   2.852  12.556  1.1829 -2.4327 -0.4684
12109TIP3    H257743   2.061   2.746  12.662  1.3292 -0.0730  2.0360
12110TIP3   OH257744   0.782   5.523  11.927 -0.0648  0.0353  0.3507
12110TIP3    H157745   0.804   5.507  11.835  0.8808  0.5701  0.4674
12110TIP3    H257746   0.859   5.567  11.962 -0.9130  0.9877  1.0750
12111TIP3   OH257747   4.967   5.896  14.000 -0.5307 -0.2929 -0.4651
12111TIP3    H157748   4.947   5.812  14.042  0.2490 -0.4849 -0.4653
12111TIP3    H257749   5.062   5.905  14.008 -0.5016  0.1744 -1.2519
12112TIP3   OH257750   2.145   4.217  13.463  0.4688  0.0499  0.2932
12112TIP3    H157751   2.057   4.256  13.462  1.2805  2.0741  1.4306
12112TIP3    H257752   2.174   4.226  13.554  1.6260 -1.1777  0.0704
12113TIP3   OH257753   4.571   0.412  13.555 -0.3011 -0.0061  0.0588
12113TIP3    H157754   4.483   0.387  13.527 -0.2205 -0.9313  0.5959
12113TIP3    H257755   4.629   0.367  13.494 -0.1832  1.0280 -0.6334
12114TIP3   OH257756   5.478   1.432  14.245  0.2267 -0.0481 -0.2056
12114TIP3    H157757   5.535   1.369  14.200 -2.0836 -1.2537 -1.5934
12114TIP3    H257758   5.539   1.491  14.289  2.5222 -2.1001 -0.4182
12115TIP3   OH257759   2.473   0.327  15.644  0.5622 -0.2750  0.0506
12115TIP3    H157760   2.403   0.309  15.582  1.0310 -3.4765  0.3092
12115TIP3    H257761   2.444   0.407  15.690 -2.9676 -1.4601  0.2011
12116TIP3   OH257762   2.181   6.608  12.797 -0.5927  0.0541 -0.1164
12116TIP3    H157763   2.273   6.620  12.818 -0.3686 -0.0094 -1.0228
12116TIP3    H257764   2.140   6.692  12.817 -0.0801  0.5359 -1.0008
12117TIP3   OH257765   6.561   4.123  11.482  0.5747  0.2141 -0.3021
12117TIP3    H157766   6.465   4.128  11.483  0.5709  1.7862 -2.2203
12117TIP3    H257767   6.586   4.164  11.399  2.9024 -0.5850 -0.0609
12118TIP3   OH257768   1.618   1.032  14.866 -0.3114  0.3299 -0.3608
12118TIP3    H157769   1.633   0.938  14.867  0.4292  0.4526  0.1023
12118TIP3    H257770   1.668   1.064  14.790 -0.8719  0.3075 -0.7495
12119TIP3   OH257771   4.140   2.759   5.661 -0.2984  0.6485  0.4959
12119TIP3    H157772   4.058   2.777   5.707 -1.4252  0.3489 -1.3258
12119TIP3    H257773   4.173   2.679   5.702 -1.5764  0.0533  0.3969
12120TIP3   OH257774   5.319   5.542  14.603  0.4066  0.1796  0.0609
12120TIP3    H157775   5.276   5.469  14.647 -0.4927  1.2123  0.9500
12120TIP3    H257776   5.262   5.563  14.529 -0.1296  0.9038  0.6600
12121TIP3   OH257777   6.207   2.984  11.521  0.2405  0.0908 -0.1319
12121TIP3    H157778   6.147   2.977  11.447 -2.5175  0.8111  1.8847
12121TIP3    H257779   6.170   2.925  11.587  0.9988  1.5494  1.6685
12122TIP3   OH257780   0.868   1.930  12.448 -0.0028  0.5059 -0.0119
12122TIP3    H157781   0.914   1.911  12.366 -0.7590 -0.9394 -0.1152
12122TIP3    H257782   0.905   1.868  12.511 -0.9058  0.2020  0.2218
12123TIP3   OH257783   3.989   3.042  17.239 -0.2604  0.2935 -0.2362
12123TIP3    H157784   3.969   3.024  17.330  0.4966  0.1680 -0.0887
12123TIP3    H257785   4.083   3.027  17.231 -0.2708  0.5534 -0.9747
12124TIP3   OH257786   4.450   4.529   0.950 -0.0649 -0.4175  0.1869
12124TIP3    H157787   4.419   4.441   0.930 -3.2813  0.8783 -1.2224
12124TIP3    H257788   4.469   4.568   0.865  0.6967  0.4587  0.7402
12125TIP3   OH257789   4.362   1.516  16.578 -0.1487  0.0726  0.1957
12125TIP3    H157790   4.399   1.464  16.649  3.2974  0.2591 -1.2878
12125TIP3    H257791   4.417   1.594  16.573 -0.9726  0.5903 -1.9484
12126TIP3   OH257792   1.420   4.897   2.205  0.0389 -0.2469  0.3400
12126TIP3    H157793   1.435   4.884   2.111  0.4555 -3.8602  0.7577
12126TIP3    H257794   1.459   4.983   2.224 -1.5245  1.3855 -2.9948
12127TIP3   OH257795   1.540   2.478  13.602 -0.8799 -0.3392 -0.0090
12127TIP3    H157796   1.635   2.464  13.602 -0.4364  2.1387 -0.6073
12127TIP3    H257797   1.516   2.477  13.510 -0.9594  1.3922 -0.0494
12128TIP3   OH257798   4.274   4.566  12.824 -0.1899  0.5479  0.5553
12128TIP3    H157799   4.185   4.597  12.834 -1.5471 -2.2295 -1.5861
12128TIP3    H257800   4.274   4.479  12.864 -0.0203 -1.6862 -3.7101
12129TIP3   OH257801   5.785   4.412   4.238 -0.4347  0.2130  0.7123
12129TIP3    H157802   5.872   4.453   4.235  0.3075 -1.2836 -1.7660
12129TIP3    H257803   5.800   4.328   4.282 -0.3607 -0.4170 -0.4441
12130TIP3   OH257804   4.832   1.580  11.633  0.4067 -0.2726  0.1372
12130TIP3    H157805   4.837   1.675  11.622  0.9915 -0.2838  0.2943
12130TIP3    H257806   4.871   1.564  11.719 -2.5212 -0.3623  1.5675
12131TIP3   OH257807   5.024   6.265  11.657  0.1576 -0.0291  0.3808
12131TIP3    H157808   5.106   6.271  11.706  0.9211  0.7959 -0.9150
12131TIP3    H257809   5.018   6.173  11.631  0.4705 -0.1723  0.8101
12132TIP3   OH257810   1.780   3.349   0.931 -0.2868  0.5675 -0.2174
12132TIP3    H157811   1.825   3.267   0.950  1.7353  1.7789  0.4975
12132TIP3    H257812   1.787   3.360   0.836 -1.3234 -0.4637 -0.4332
12133TIP3   OH257813   0.694   0.251   3.260  0.1109  0.4651 -0.4528
12133TIP3    H157814   0.771   0.200   3.236 -0.1014  0.0349 -0.2354
12133TIP3    H257815   0.719   0.342   3.242  1.4345  0.5727  1.5112
12134TIP3   OH257816   5.725   1.163  13.151 -0.1577  0.3729 -0.3707
12134TIP3    H157817   5.712   1.184  13.059 -0.2135 -2.4082 -1.0949
12134TIP3    H257818   5.810   1.118  13.154  0.1608  1.0052  1.0640
12135TIP3   OH257819   2.565   3.152  15.336  0.3765  0.0885 -0.2899
12135TIP3    H157820   2.655   3.164  15.368  0.6012 -0.8489 -0.5461
12135TIP3    H257821   2.510   3.175  15.411  0.8893 -1.7846  0.7123
12136TIP3   OH257822   1.616   5.777  12.599  0.1557  0.1682 -0.2325
12136TIP3    H157823   1.558   5.706  12.628  1.3007 -1.3590 -1.5157
12136TIP3    H257824   1.687   5.733  12.553  2.6984  1.9172  1.7413
12137TIP3   OH257825   5.858   5.980   3.200 -0.7357  0.0187 -0.1277
12137TIP3    H157826   5.800   5.940   3.265 -2.2287  0.0497 -1.3672
12137TIP3    H257827   5.816   5.960   3.116 -0.2411  2.1353 -0.9289
12138TIP3   OH257828   4.375   2.741   1.075  0.1488  0.4286  0.0601
12138TIP3    H157829   4.338   2.801   1.010 -0.0155 -1.1858 -1.4107
12138TIP3    H257830   4.299   2.693   1.108  0.1454  1.6378  1.9547
12139TIP3   OH257831   3.990   3.334  13.386  0.9123  0.0430  0.0194
12139TIP3    H157832   3.998   3.374  13.299  2.1518  0.3874  0.2732
12139TIP3    H257833   4.003   3.240  13.369 -0.7819 -0.1496 -0.4066
12140TIP3   OH257834   0.741   5.807   2.722  0.0864 -0.2580  0.3836
12140TIP3    H157835   0.667   5.747   2.710  1.2849 -1.4520 -1.6168
12140TIP3    H257836   0.799   5.762   2.783  2.0192 -2.3685 -2.7208
12141TIP3   OH257837   1.926   5.747   2.420 -0.0279 -0.0855 -0.0563
12141TIP3    H157838   1.944   5.674   2.480 -0.0260 -0.5738 -0.6506
12141TIP3    H257839   1.893   5.706   2.341  0.4151  0.5269 -0.5728
12142TIP3   OH257840   0.041   0.432   4.511  0.4158  0.1052  0.1878
12142TIP3    H157841   0.135   0.436   4.530  0.0549  0.6379  2.0889
12142TIP3    H257842   0.019   0.520   4.482  0.0345  0.8737  2.5410
12143TIP3   OH257843   0.508   2.826   1.417  0.6227  0.3030 -0.0043
12143TIP3    H157844   0.487   2.889   1.349  2.1754  2.1162  1.0832
12143TIP3    H257845   0.548   2.753   1.370  0.5237  0.9629 -1.1526
12144TIP3   OH257846   2.455   2.236  11.172  0.2027  0.0137 -0.8492
12144TIP3    H157847   2.539   2.192  11.187  0.1016 -0.0747 -0.5393
12144TIP3    H257848   2.478   2.315  11.122  0.6130  0.5973  0.2425
12145TIP3   OH257849   4.716   6.277   5.636  0.4861  0.6093 -0.2806
12145TIP3    H157850   4.702   6.182   5.644  0.1145  0.6488 -0.4601
12145TIP3    H257851   4.628   6.313   5.623  0.4200  1.1362  1.3701
12146TIP3   OH257852   3.020   2.186  15.173 -0.6446 -0.4483 -0.4688
12146TIP3    H157853   3.104   2.149  15.145 -0.0214 -0.2018  0.9917
12146TIP3    H257854   2.964   2.110  15.186 -0.2247 -0.7074 -0.1435
12147TIP3   OH257855   0.952   0.502  17.345  0.0794  0.0428  0.1600
12147TIP3    H157856   0.987   0.413  17.357 -1.3906 -0.8150 -1.4714
12147TIP3    H257857   0.995   0.533  17.265 -1.7317 -0.4729 -1.0649
12148TIP3   OH257858   4.444   4.733   3.232 -0.2893  0.0532  0.1023
12148TIP3    H157859   4.365   4.747   3.284 -0.7996 -1.3331 -0.2530
12148TIP3    H257860   4.489   4.660   3.275  0.9415  0.9566  0.4246
12149TIP3   OH257861   1.058   4.760  16.368  0.5109 -0.1412  0.0156
12149TIP3    H157862   1.011   4.677  16.366  0.1067 -0.0434  2.1329
12149TIP3    H257863   1.074   4.776  16.461  2.5413  1.0846 -0.4734
12150TIP3   OH257864   0.481   5.625   4.466  0.5780 -0.0163 -0.1788
12150TIP3    H157865   0.443   5.608   4.380 -0.1613 -0.3566  0.2078
12150TIP3    H257866   0.554   5.684   4.448  0.4599 -0.1123 -1.0423
12151TIP3   OH257867   3.329   0.798  13.660  0.6552 -0.0314  0.0229
12151TIP3    H157868   3.307   0.728  13.722  0.4760  0.0504  0.0508
12151TIP3    H257869   3.317   0.758  13.574 -0.1485  0.1787  0.0306
12152TIP3   OH257870   2.015   5.435  17.391  0.5620 -0.0768  0.3013
12152TIP3    H157871   2.012   5.410  17.298 -0.7960 -0.3059  0.3818
12152TIP3    H257872   2.000   5.529  17.390 -0.6642 -0.2565  0.3354
12153TIP3   OH257873   1.724   3.642   6.607 -0.3853  0.3265  0.2804
12153TIP3    H157874   1.650   3.581   6.606  0.4781 -0.7589 -0.7225
12153TIP3    H257875   1.754   3.642   6.698  0.7397 -2.2655  0.0106
12154TIP3   OH257876   6.546   4.764   3.861  0.2284 -0.1396  0.4203
12154TIP3    H157877   6.574   4.674   3.845  0.3180  0.2649 -2.1007
12154TIP3    H257878   6.451   4.759   3.869  0.2936 -0.5292  1.0075
12155TIP3   OH257879   3.196   6.733  15.440 -0.7959  0.3636  0.3593
12155TIP3    H157880   3.145   6.810  15.465  0.5536  1.5013 -0.2342
12155TIP3    H257881   3.241   6.759  15.360 -0.7458 -1.2655 -0.1871
12156TIP3   OH257882   3.083   1.620  16.363  0.2456 -0.6825  0.0078
12156TIP3    H157883   3.083   1.546  16.424  0.7364  0.3237  1.2706
12156TIP3    H257884   3.170   1.660  16.372  0.0817 -0.0855 -0.8356
12157TIP3   OH257885   0.371   1.449  13.762 -0.6693  0.3885  0.3107
12157TIP3    H157886   0.365   1.515  13.830 -0.5607  1.3266 -0.5760
12157TIP3    H257887   0.375   1.366  13.810  0.9391  1.1004  1.5153
12158TIP3   OH257888   0.765   0.262  12.492  0.6918  0.4564  0.0621
12158TIP3    H157889   0.809   0.211  12.561 -0.6223 -0.4962  0.2374
12158TIP3    H257890   0.819   0.248  12.414  1.0973 -0.1055  0.4302
12159TIP3   OH257891   0.232   2.544  11.301 -0.4904  0.0431  0.0242
12159TIP3    H157892   0.295   2.508  11.239  2.2812  1.9211  1.5393
12159TIP3    H257893   0.147   2.518  11.266  1.0255 -1.7584 -2.7164
12160TIP3   OH257894   6.511   3.711   5.566 -0.2498  0.5340 -0.1859
12160TIP3    H157895   6.439   3.719   5.628  0.0142 -1.3984  0.4449
12160TIP3    H257896   6.509   3.619   5.539  1.3079  0.6961 -0.9861
12161TIP3   OH257897   0.746   4.768  12.240  0.7251 -0.2131 -0.2318
12161TIP3    H157898   0.764   4.850  12.194 -1.1636  0.3697 -0.0343
12161TIP3    H257899   0.759   4.788  12.332 -1.5456  0.5035  0.0141
12162TIP3   OH257900   4.469   6.247   1.575  0.0874 -0.0710 -0.3207
12162TIP3    H157901   4.503   6.307   1.509  3.0688 -1.5759 -0.3241
12162TIP3    H257902   4.415   6.302   1.633  0.5962  2.0348 -1.7482
12163TIP3   OH257903   4.108   0.772  16.341 -0.0969  0.1011  0.2853
12163TIP3    H157904   4.049   0.704  16.308  1.4147 -1.4388  0.6309
12163TIP3    H257905   4.051   0.848  16.353 -1.4088 -0.3293 -2.3677
12164TIP3   OH257906   2.911   3.057   3.812 -0.3742 -0.5674  0.5516
12164TIP3    H157907   2.876   2.977   3.852 -0.6861 -1.1891 -0.8967
12164TIP3    H257908   2.997   3.067   3.852 -0.9674 -0.7032  1.9437
12165TIP3   OH257909   5.645   1.832  15.745  0.0478  0.0047 -0.0772
12165TIP3    H157910   5.635   1.894  15.818 -2.2862  0.0489 -0.3532
12165TIP3    H257911   5.555   1.811  15.720  0.7904 -2.3883 -0.9522
12166TIP3   OH257912   5.692   2.378  11.691  0.0440  0.4872 -0.0212
12166TIP3    H157913   5.700   2.376  11.595  1.2441  0.8729  0.0631
12166TIP3    H257914   5.652   2.463  11.710 -1.1891 -0.0212 -0.2276
12167TIP3   OH257915   5.409   0.537  11.883  0.2724  0.1984 -0.6512
12167TIP3    H157916   5.435   0.590  11.807  0.5727 -0.7966 -1.2610
12167TIP3    H257917   5.372   0.457  11.845 -0.3650  0.0488  0.2518
12168TIP3   OH257918   4.379   0.116   0.010  0.0891 -0.3244 -0.4826
12168TIP3    H157919   4.397   0.094   0.102  1.5175  0.3672 -0.5655
12168TIP3    H257920   4.379   0.212   0.008  1.2294 -0.3208 -1.3900
12169TIP3   OH257921   5.680   6.189  13.478  0.7790 -0.0208 -0.0428
12169TIP3    H157922   5.722   6.274  13.491 -3.0071  2.3005 -1.1575
12169TIP3    H257923   5.690   6.171  13.384 -1.0249  0.8922 -0.4611
12170TIP3   OH257924   4.636   4.528   4.247 -0.3191  0.2055 -0.3034
12170TIP3    H157925   4.591   4.607   4.217  0.3009  0.8700  0.4535
12170TIP3    H257926   4.728   4.554   4.253 -0.3538 -0.0079  1.7421
12171TIP3   OH257927   3.086   3.631  14.020 -0.0612 -0.2864  0.4844
12171TIP3    H157928   3.062   3.569  14.090  0.1467 -0.6819  0.2051
12171TIP3    H257929   3.149   3.584  13.967  0.1462  0.1930  0.3027
12172TIP3   OH257930   3.855   1.074  14.754  0.8504 -0.1692 -0.3896
12172TIP3    H157931   3.853   1.162  14.717 -0.9040  0.1748  0.4313
12172TIP3    H257932   3.923   1.077  14.821 -1.0842  1.4482  1.6160
12173TIP3   OH257933   3.951   3.907  16.154  0.6458  0.2147 -0.0205
12173TIP3    H157934   3.903   3.826  16.172 -1.6690  1.2130 -1.2796
12173TIP3    H257935   3.921   3.968  16.221  1.3625  0.4344  0.1103
12174TIP3   OH257936   3.035   3.796   1.697 -0.2980  0.1017  0.2712
12174TIP3    H157937   3.058   3.882   1.733 -0.2631  0.2338 -0.0593
12174TIP3    H257938   3.115   3.744   1.704  0.0653  0.4950 -0.6876
12175TIP3   OH257939   2.708   0.442  14.998 -0.6088  0.3857 -0.0811
12175TIP3    H157940   2.627   0.493  14.988 -1.0760 -0.7213 -2.4780
12175TIP3    H257941   2.741   0.432  14.909  0.7848 -1.4183  0.5915
12176TIP3   OH257942   6.442   4.919   0.352 -0.3917 -0.6788 -0.1382
12176TIP3    H157943   6.437   4.989   0.286  0.5046  3.0008  3.2905
12176TIP3    H257944   6.535   4.898   0.358 -0.2525  0.1839  0.9795
12177TIP3   OH257945   6.667   0.275   3.304 -0.1769 -0.4190  0.0761
12177TIP3    H157946   6.582   0.254   3.265 -0.3755 -1.4777  1.0261
12177TIP3    H257947   6.646   0.301   3.394  0.3923  0.7362 -0.1001
12178TIP3   OH257948   3.562   5.005   3.707  0.1932  0.2813 -0.0339
12178TIP3    H157949   3.565   4.918   3.667  1.0973  0.0302  0.5491
12178TIP3    H257950   3.475   5.010   3.747 -0.4437  0.2531 -1.3622
12179TIP3   OH257951   1.249   0.064   5.063 -0.3055  0.3463 -0.0773
12179TIP3    H157952   1.168   0.111   5.084 -1.0069 -0.5508 -0.6742
12179TIP3    H257953   1.228   0.014   4.984  1.2197  1.0345 -0.9684
12180TIP3   OH257954   5.643   2.654   6.023  0.0804  0.6761  0.3051
12180TIP3    H157955   5.610   2.742   6.005 -1.0563  0.5343  1.5540
12180TIP3    H257956   5.676   2.659   6.113  0.0024 -0.1720  0.3906
12181TIP3   OH257957   3.494   6.501  13.791  0.1537  0.3532 -0.3542
12181TIP3    H157958   3.543   6.433  13.744 -0.0760 -0.0296 -0.0463
12181TIP3    H257959   3.481   6.465  13.879 -3.1115 -0.8611 -1.1682
12182TIP3   OH257960   2.107   1.595  15.367  0.3993  0.4365  0.6680
12182TIP3    H157961   2.061   1.657  15.423 -0.3550  1.5535 -1.0952
12182TIP3    H257962   2.145   1.649  15.297  2.6842 -0.7067  0.9422
12183TIP3   OH257963   1.478   2.753  17.199 -0.4238  0.1388 -0.3343
12183TIP3    H157964   1.408   2.788  17.144 -0.7153 -0.5778 -0.4311
12183TIP3    H257965   1.549   2.733  17.139  0.8004  3.0206  0.0173
12184TIP3   OH257966   0.376   5.534   1.971  0.2291 -0.0213 -0.1711
12184TIP3    H157967   0.285   5.555   1.994  0.4939  1.1924 -0.1599
12184TIP3    H257968   0.369   5.459   1.912 -0.6738 -1.0445  1.1468
12185TIP3   OH257969   1.962   1.075  11.470  0.2545  0.1271 -0.0220
12185TIP3    H157970   1.936   0.984  11.457  0.3095  0.2628 -1.1793
12185TIP3    H257971   2.053   1.078  11.441  0.0176  0.7073 -0.7365
12186TIP3   OH257972   3.982   6.717  13.773  0.1304 -0.3812  0.7751
12186TIP3    H157973   3.901   6.768  13.772  0.9832  0.9996  0.9894
12186TIP3    H257974   3.980   6.672  13.857  0.4577  1.1272  1.6215
12187TIP3   OH257975   2.031   4.042   5.960 -0.0581 -0.2747  0.0670
12187TIP3    H157976   1.955   4.020   6.013  0.1706  0.4985  0.7252
12187TIP3    H257977   2.014   4.001   5.875 -0.0298 -2.2810  0.9825
12188TIP3   OH257978   4.560   3.854  17.046 -0.3082 -0.2074  0.9900
12188TIP3    H157979   4.573   3.760  17.054  0.7332 -0.2023 -0.3080
12188TIP3    H257980   4.643   3.893  17.073 -0.1435  0.2322 -0.0989
12189TIP3   OH257981   5.759   1.686  12.182  0.3696 -0.1294 -0.3071
12189TIP3    H157982   5.711   1.636  12.116  1.2190 -0.1334 -0.9482
12189TIP3    H257983   5.824   1.624  12.216 -0.1079 -0.1484  0.6005
12190TIP3   OH257984   3.081   3.995   3.291 -0.4878  0.5639 -0.1672
12190TIP3    H157985   3.156   3.960   3.243  0.5430  0.3600  1.5362
12190TIP3    H257986   3.066   4.081   3.253  1.8720  1.4423  0.7488
12191TIP3   OH257987   6.022   4.362  17.089 -0.5237  0.4797 -0.2803
12191TIP3    H157988   5.995   4.297  17.024  0.7102  0.5153 -0.8537
12191TIP3    H257989   6.083   4.315  17.146 -1.6765  0.4185  0.9446
12192TIP3   OH257990   4.154   0.243   4.792 -0.2587  0.0514  1.0350
12192TIP3    H157991   4.218   0.172   4.785 -1.4600 -0.9405 -0.4636
12192TIP3    H257992   4.134   0.248   4.886  1.3169 -0.2134  1.4151
12193TIP3   OH257993   4.453   5.582   5.825  0.1808  0.1047 -0.7723
12193TIP3    H157994   4.391   5.524   5.870  1.4286  0.8350  2.1461
12193TIP3    H257995   4.539   5.546   5.846  0.8700  1.0837 -1.8019
12194TIP3   OH257996   5.668   5.330  13.040 -0.2697  0.1470  0.3452
12194TIP3    H157997   5.680   5.318  13.134  2.1190 -1.7293 -0.0913
12194TIP3    H257998   5.671   5.425  13.028  2.2529  0.3812  1.9610
12195TIP3   OH257999   5.673   4.569  14.332  0.1163 -0.0557  0.2485
12195TIP3    H158000   5.699   4.617  14.254  0.3773  0.0323  0.3869
12195TIP3    H258001   5.578   4.570  14.331  0.1197  0.7155  0.4075
12196TIP3   OH258002   2.548   6.125   0.050  0.6203  0.4087  0.3634
12196TIP3    H158003   2.583   6.207   0.016  0.6456  0.4008  0.3707
12196TIP3    H258004   2.562   6.130   0.144  2.5117 -0.5082  0.1740
12197TIP3   OH258005   6.578   5.379   5.032  0.0984  0.1392 -0.1315
12197TIP3    H158006   6.612   5.454   4.983 -0.2021  0.6591  0.4465
12197TIP3    H258007   6.484   5.396   5.040  0.0689 -0.1692  0.2237
12198TIP3   OH258008   6.237   1.162  14.615 -0.2627  0.0569  0.7668
12198TIP3    H158009   6.310   1.213  14.580 -0.9318 -0.3323 -1.3120
12198TIP3    H258010   6.276   1.110  14.686  1.8711 -1.2480 -1.2102
12199TIP3   OH258011   5.489   4.220  11.494  0.6858  0.0686 -0.1243
12199TIP3    H158012   5.479   4.273  11.414 -1.0928 -1.2945 -0.8902
12199TIP3    H258013   5.446   4.272  11.562 -0.5710 -0.1132 -0.7481
12200TIP3   OH258014   0.637   1.892  12.705  0.6140  0.2462 -0.4674
12200TIP3    H158015   0.647   1.897  12.610  0.8434  2.2009 -0.3672
12200TIP3    H258016   0.727   1.880  12.737  0.9474  2.5191 -0.3867
12201TIP3   OH258017   3.182   1.098   3.422 -0.2689  0.1176  0.0569
12201TIP3    H158018   3.225   1.101   3.508  1.5133  1.1370 -0.8243
12201TIP3    H258019   3.194   1.007   3.393  1.9536  0.5094 -0.4404
12202TIP3   OH258020   2.327   0.397   2.604 -0.5172 -0.6363  0.0940
12202TIP3    H158021   2.361   0.476   2.563 -0.7885 -1.3386 -1.5655
12202TIP3    H258022   2.402   0.360   2.651 -0.0109 -0.1475 -0.3129
12203TIP3   OH258023   6.260   5.559  17.329  0.0685 -0.6775  0.2714
12203TIP3    H158024   6.224   5.602  17.406  1.4249 -0.0813  0.5966
12203TIP3    H258025   6.213   5.476  17.323 -0.7881 -0.2652  1.1189
12204TIP3   OH258026   0.052   1.333   3.710 -0.0873 -0.4895 -0.2831
12204TIP3    H158027   0.098   1.249   3.703  0.9907  0.0730 -0.2046
12204TIP3    H258028   0.120   1.399   3.694 -0.9010  0.3759 -0.2831
12205TIP3   OH258029   1.800   2.844   4.356 -0.3440 -0.3253 -0.2247
12205TIP3    H158030   1.896   2.840   4.358 -0.3305  0.0808 -0.1253
12205TIP3    H258031   1.779   2.883   4.272 -0.3640  1.3571  0.5350
12206TIP3   OH258032   0.567   6.350  12.879 -0.0390  0.5764 -0.3178
12206TIP3    H158033   0.565   6.318  12.789  2.1896  0.2425 -0.3143
12206TIP3    H258034   0.660   6.368  12.896 -0.4413  0.9311  1.8150
12207TIP3   OH258035   4.172   2.358  12.219  0.3146 -0.3486 -0.5790
12207TIP3    H158036   4.096   2.300  12.216 -0.4887  0.7172 -2.4050
12207TIP3    H258037   4.247   2.300  12.200 -0.0429 -1.3300  0.8370
12208TIP3   OH258038   1.780   3.468  16.145 -0.0580  0.0392  0.6484
12208TIP3    H158039   1.777   3.509  16.231 -1.3233 -0.1704  0.7125
12208TIP3    H258040   1.722   3.520  16.090  2.4181  1.5629 -0.7559
12209TIP3   OH258041   6.065   2.134  15.991  0.1206 -0.4057 -0.0914
12209TIP3    H158042   6.066   2.213  16.046 -0.0260 -1.2527  1.1515
12209TIP3    H258043   5.973   2.124  15.967 -0.2244 -1.3501  1.4910
12210TIP3   OH258044   1.423   3.899  15.079  0.0444 -0.0048 -0.3079
12210TIP3    H158045   1.453   3.912  15.169 -0.8186 -1.1840  0.1717
12210TIP3    H258046   1.330   3.922  15.081 -0.2354 -1.0546 -0.6339
12211TIP3   OH258047   5.518   1.418   3.153 -0.0839  0.2654  0.0848
12211TIP3    H158048   5.462   1.388   3.081 -0.4680 -0.2957  0.6088
12211TIP3    H258049   5.595   1.362   3.147 -0.5899 -0.5253  0.7652
12212TIP3   OH258050   6.455   5.370   4.181 -1.1795  0.0213 -0.5312
12212TIP3    H158051   6.533   5.421   4.158 -0.2399 -1.5771 -1.1458
12212TIP3    H258052   6.475   5.333   4.267 -1.1228 -0.6127 -0.8108
12213TIP3   OH258053   4.949   1.812  11.797 -0.1968  0.1954 -0.1654
12213TIP3    H158054   4.975   1.894  11.839  1.4097  0.3227 -1.3457
12213TIP3    H258055   4.856   1.824  11.778 -0.4311  0.9945  1.3255
12214TIP3   OH258056   3.543   4.596  13.254  0.1999 -0.0675 -0.3763
12214TIP3    H158057   3.514   4.546  13.178  1.4006 -0.4552 -0.5935
12214TIP3    H258058   3.608   4.540  13.297  0.1766  0.5127  0.4423
12215TIP3   OH258059   5.477   6.295  14.106  0.1749 -0.1888 -0.0422
12215TIP3    H158060   5.386   6.325  14.104 -0.0517 -0.8908 -1.2986
12215TIP3    H258061   5.474   6.206  14.070  1.2411 -0.5850  0.7777
12216TIP3   OH258062   1.500   6.656   2.492  0.4163  0.0569  0.2163
12216TIP3    H158063   1.486   6.726   2.556  0.1954  0.2149 -0.0029
12216TIP3    H258064   1.412   6.623   2.474  0.3125  0.9540 -1.0665
12217TIP3   OH258065   4.110   0.030   5.358  0.4295  0.6620  0.1044
12217TIP3    H158066   4.186   0.015   5.414 -0.2025 -0.5152  0.6769
12217TIP3    H258067   4.069  -0.056   5.350  0.6135  0.7489 -2.3636
12218TIP3   OH258068   5.017   4.633   0.888  0.0043 -0.1843  0.0514
12218TIP3    H158069   5.016   4.559   0.828  2.4535 -1.1636  1.0784
12218TIP3    H258070   5.099   4.679   0.868 -0.5157  1.1130  0.7754
12219TIP3   OH258071   0.037   1.254  13.668 -0.0080 -0.0459 -0.3944
12219TIP3    H158072   0.012   1.237  13.759 -3.2288 -3.3201 -1.6182
12219TIP3    H258073   0.060   1.167  13.633  1.3568  1.1423 -2.6893
12220TIP3   OH258074   0.449   4.801  14.837  0.0951  0.6952  0.0055
12220TIP3    H158075   0.504   4.752  14.898 -0.6880 -0.3657 -0.1222
12220TIP3    H258076   0.381   4.840  14.892  0.2801  1.0205  0.0067
12221TIP3   OH258077   4.882   2.566  15.277 -0.3134  0.0964 -0.7635
12221TIP3    H158078   4.920   2.605  15.198 -0.5959 -0.3592 -1.1309
12221TIP3    H258079   4.926   2.482  15.286 -2.2169 -1.1310 -2.0526
12222TIP3   OH258080   4.059   1.441   2.712 -0.9373  0.0397 -0.0369
12222TIP3    H158081   4.036   1.476   2.798  0.3335  0.0906  0.2981
12222TIP3    H258082   4.127   1.499   2.680 -1.3505 -0.0247 -1.0568
12223TIP3   OH258083   5.952   1.662  11.834  0.6111 -0.3747 -0.4091
12223TIP3    H158084   5.917   1.691  11.749 -1.1597  0.3938  0.5176
12223TIP3    H258085   5.877   1.622  11.878  0.4202  2.5025  2.2165
12224TIP3   OH258086   4.781   5.993   1.088  0.1275  0.6329  0.4140
12224TIP3    H158087   4.792   5.978   0.994 -0.3547  1.2155  0.2615
12224TIP3    H258088   4.777   5.905   1.126  0.0288  0.3950 -0.1476
12225TIP3   OH258089   6.284   1.155   2.007  0.1939  0.4287 -0.0404
12225TIP3    H158090   6.336   1.219   1.959  0.4994  0.9144  0.9137
12225TIP3    H258091   6.195   1.191   2.006 -0.1070 -0.2868 -1.4693
12226TIP3   OH258092   4.259   0.132   3.587 -0.2384  0.1624 -0.3485
12226TIP3    H158093   4.281   0.141   3.494 -0.7192  0.7200 -0.4111
12226TIP3    H258094   4.183   0.075   3.588  0.7222 -1.1655 -0.1781
12227TIP3   OH258095   5.030   4.894   3.946  0.3137  0.4130 -0.2326
12227TIP3    H158096   4.997   4.920   4.032  0.7078  1.9655 -0.5239
12227TIP3    H258097   5.114   4.938   3.939  0.3079  0.2497 -1.4086
12228TIP3   OH258098   6.257   3.875  15.142 -0.4268 -0.6957 -0.5012
12228TIP3    H158099   6.170   3.835  15.140 -0.9034  0.2178  0.5046
12228TIP3    H258100   6.258   3.923  15.225  1.1294 -0.8820 -0.3980
12229TIP3   OH258101   4.216   2.438  15.962  0.0533 -0.0416 -0.3954
12229TIP3    H158102   4.136   2.417  16.010 -0.2321  2.3856  0.3162
12229TIP3    H258103   4.266   2.356  15.962 -2.8327 -1.9832 -1.8273
12230TIP3   OH258104   5.289   2.693  17.148  0.1246  0.0278 -0.2056
12230TIP3    H158105   5.342   2.739  17.083 -0.5187  0.5058 -0.3989
12230TIP3    H258106   5.295   2.748  17.227 -1.6238  1.1189 -0.7899
12231TIP3   OH258107   4.735   0.390  14.317  0.5911  0.2960 -0.3552
12231TIP3    H158108   4.764   0.307  14.279  0.3125  0.3872 -0.7799
12231TIP3    H258109   4.640   0.390  14.305  0.5481  0.5190 -0.0382
12232TIP3   OH258110   5.469   4.404   2.832  0.2831 -0.9150 -0.7518
12232TIP3    H158111   5.442   4.487   2.872  1.7602  0.1747 -1.8823
12232TIP3    H258112   5.525   4.362   2.897  2.0082  0.4571 -1.2756
12233TIP3   OH258113   2.128   1.582   0.411 -0.1586 -0.0138 -0.4247
12233TIP3    H158114   2.158   1.502   0.369 -0.9793 -0.5446 -0.0351
12233TIP3    H258115   2.092   1.553   0.495  0.4858  0.8974  0.1832
12234TIP3   OH258116   4.250   1.432   5.809  0.6151  0.3284  0.2483
12234TIP3    H158117   4.238   1.526   5.794 -0.0212  0.2386  0.1616
12234TIP3    H258118   4.336   1.412   5.772  2.1718  1.4517  2.9752
12235TIP3   OH258119   2.441   4.429  16.911  0.3392 -0.7010  0.3990
12235TIP3    H158120   2.364   4.384  16.943  0.8176 -1.2859  0.7399
12235TIP3    H258121   2.450   4.399  16.820 -0.5423  0.3305 -0.0531
12236TIP3   OH258122   3.719   6.012  16.314  0.8889  0.2499  0.5695
12236TIP3    H158123   3.755   6.050  16.394 -0.7069  2.2824  0.3976
12236TIP3    H258124   3.664   6.081  16.277  1.0193 -0.8671 -1.9377
12237TIP3   OH258125   2.124   2.953   4.087 -0.0574 -0.5418 -0.5279
12237TIP3    H158126   2.097   3.019   4.022 -0.4128 -0.5796 -0.4223
12237TIP3    H258127   2.203   2.990   4.127 -1.1743  0.6209  0.7021
12238TIP3   OH258128   5.948   5.995   1.729  0.6461 -1.3650  0.0177
12238TIP3    H158129   5.854   5.984   1.743  0.1710  0.7178 -1.1848
12238TIP3    H258130   5.983   5.906   1.736 -1.4846 -2.2790 -0.0727
12239TIP3   OH258131   4.356   4.430  14.674 -0.4121  0.6424 -0.2477
12239TIP3    H158132   4.315   4.365  14.616  0.0036 -0.6688  0.8538
12239TIP3    H258133   4.382   4.501  14.616 -1.2209 -0.0111 -1.4622
12240TIP3   OH258134   6.033   2.273   3.192 -0.0629  0.0339  0.7015
12240TIP3    H158135   6.046   2.306   3.103 -1.1495  0.8805  0.8350
12240TIP3    H258136   5.957   2.216   3.185 -1.2038  1.3993  1.3584
12241TIP3   OH258137   5.419   0.710   5.587 -0.1552 -0.3361 -0.0885
12241TIP3    H158138   5.460   0.771   5.649  0.2980  0.4942 -1.1579
12241TIP3    H258139   5.360   0.658   5.640 -1.1851  1.5888  0.7653
12242TIP3   OH258140   2.905   3.282   3.515  0.2722 -0.2146 -0.2557
12242TIP3    H158141   2.950   3.264   3.598  2.3441  0.8438 -1.0961
12242TIP3    H258142   2.911   3.376   3.504 -0.4487 -0.2785 -1.3682
12243TIP3   OH258143   2.081   5.462   3.665  0.0340 -0.0421  0.3524
12243TIP3    H158144   2.176   5.451   3.676  0.1552  1.0281  0.4033
12243TIP3    H258145   2.058   5.403   3.593  0.8312  0.1260 -0.0459
12244TIP3   OH258146   0.922   3.853  15.466  0.2243 -0.3221 -0.0209
12244TIP3    H158147   1.001   3.856  15.411  0.5572 -0.4691  0.4378
12244TIP3    H258148   0.926   3.767  15.508  0.4937  0.1626  0.9764
12245TIP3   OH258149   6.104   0.208  15.144  0.1353 -0.0962  0.7977
12245TIP3    H158150   6.124   0.146  15.074  2.8655  2.7035 -1.1857
12245TIP3    H258151   6.176   0.197  15.207  0.6462  1.0313  0.4211
12246TIP3   OH258152   6.170   1.032  14.098 -0.2991 -0.4587  0.6030
12246TIP3    H158153   6.075   1.026  14.094 -0.1973 -2.3939 -1.1765
12246TIP3    H258154   6.196   1.054  14.008  0.9556 -0.9558  0.8236
12247TIP3   OH258155   0.121   2.371  15.613  0.1717 -0.2041 -0.1315
12247TIP3    H158156   0.188   2.340  15.675  1.2143  0.2398 -1.0081
12247TIP3    H258157   0.080   2.290  15.581  1.1648 -0.5656 -0.5313
12248TIP3   OH258158   2.705   2.466  12.924 -0.1336 -0.1328 -0.4731
12248TIP3    H158159   2.659   2.514  12.855  1.6153 -1.1823 -2.4896
12248TIP3    H258160   2.777   2.524  12.951 -0.0967 -0.2147 -0.3929
12249TIP3   OH258161   4.060   6.509  15.608 -0.0056  0.2571 -0.1307
12249TIP3    H158162   4.070   6.417  15.584 -1.3237 -0.1716  0.8322
12249TIP3    H258163   4.148   6.538  15.631  0.2775 -1.0836  0.5997
12250TIP3   OH258164   1.572   1.842  10.816  0.3316  0.3769  0.2368
12250TIP3    H158165   1.552   1.936  10.812 -0.2676  0.3019  1.1391
12250TIP3    H258166   1.666   1.837  10.799  0.8653  1.3863  2.4772
12251TIP3   OH258167   0.656   6.030  12.804 -0.3790  1.0305 -0.5577
12251TIP3    H158168   0.657   5.936  12.784  1.0764  0.6250  1.1116
12251TIP3    H258169   0.649   6.034  12.900  0.1337  2.5972 -0.5567
12252TIP3   OH258170   5.063   5.017  13.361 -0.3612 -0.4831 -0.2923
12252TIP3    H158171   5.133   5.035  13.424  1.0941 -0.8460 -1.7406
12252TIP3    H258172   5.008   4.952  13.405  0.3134 -0.3238  0.8162
12253TIP3   OH258173   5.114   5.363   0.400  0.2508  0.5374  0.3803
12253TIP3    H158174   5.097   5.371   0.494 -1.4412 -0.2905  0.1835
12253TIP3    H258175   5.093   5.449   0.364 -0.2997  0.5036  0.6091
12254TIP3   OH258176   5.611   3.642   4.544 -0.1088  0.3353 -0.4527
12254TIP3    H158177   5.673   3.667   4.477 -0.3390 -0.3525 -0.9296
12254TIP3    H258178   5.613   3.715   4.607 -0.5171  1.3999 -1.6213
12255TIP3   OH258179   5.961   5.927  13.435  0.1671  0.0006  0.4987
12255TIP3    H158180   5.925   5.864  13.497 -0.7150  2.0391  2.1517
12255TIP3    H258181   6.049   5.945  13.467  0.1913  0.0962  0.3797
12256TIP3   OH258182   2.970   0.530  12.493 -0.0233 -0.6220 -0.1867
12256TIP3    H158183   3.052   0.514  12.540  0.2872 -2.7111 -1.3336
12256TIP3    H258184   2.920   0.449  12.503 -0.3981 -0.7343 -2.5169
12257TIP3   OH258185   0.240   1.929  11.593  0.0294  0.1590 -0.0416
12257TIP3    H158186   0.281   1.950  11.677 -1.2858  1.9788  0.1981
12257TIP3    H258187   0.277   1.992  11.532 -0.5235  0.1779 -0.3620
12258TIP3   OH258188   5.253   5.806   1.376 -0.1537 -0.6571 -0.0539
12258TIP3    H158189   5.169   5.841   1.346 -0.1413 -0.3218  0.3001
12258TIP3    H258190   5.237   5.780   1.466  0.0675 -0.7874 -0.0534
12259TIP3   OH258191   3.896   5.145  16.726  0.4982  0.0278 -0.3280
12259TIP3    H158192   3.972   5.191  16.763  1.1549  0.0925 -1.6882
12259TIP3    H258193   3.928   5.056  16.709  0.0155 -0.1874 -0.1181
12260TIP3   OH258194   2.345   6.299   2.647  0.4504 -0.0968 -0.3867
12260TIP3    H158195   2.359   6.385   2.688  1.9894 -0.7448  0.5498
12260TIP3    H258196   2.394   6.238   2.702 -0.6661 -1.6112 -0.9924
12261TIP3   OH258197   6.273   0.858  16.635 -0.0572 -0.4932  0.0059
12261TIP3    H158198   6.195   0.821  16.678  0.0175  0.7134  1.2720
12261TIP3    H258199   6.319   0.905  16.705  1.7147 -0.9967 -0.7700
12262TIP3   OH258200   0.375   3.501   3.020  0.3127  0.0702 -0.4513
12262TIP3    H158201   0.386   3.556   2.942  1.1123  0.1211 -0.3115
12262TIP3    H258202   0.405   3.557   3.092  3.3636 -1.2608 -0.5385
12263TIP3   OH258203   1.048   1.218  14.346 -0.2927 -0.1612  0.7136
12263TIP3    H158204   0.963   1.233  14.305  0.0344 -0.3910 -0.0591
12263TIP3    H258205   1.033   1.143  14.403 -0.5031 -0.4746  0.2541
12264TIP3   OH258206   2.546   5.331   4.752  0.1207  0.0868  0.6234
12264TIP3    H158207   2.467   5.342   4.805  0.6303 -2.3621  2.0628
12264TIP3    H258208   2.540   5.242   4.718  0.5038  1.0942 -2.4286
12265TIP3   OH258209   0.610   1.796  16.871 -0.4298 -0.3556  0.3075
12265TIP3    H158210   0.630   1.871  16.927 -0.8029 -0.9687  1.3057
12265TIP3    H258211   0.609   1.831  16.782 -1.8410  1.0755  0.8381
12266TIP3   OH258212   0.394   5.694  13.592  0.2556 -1.0180 -0.0408
12266TIP3    H158213   0.445   5.614  13.579 -0.8849 -1.7469 -0.1953
12266TIP3    H258214   0.322   5.687  13.529 -0.9706 -0.8464  1.2904
12267TIP3   OH258215   6.143   2.004   6.224 -0.2154  0.1777  0.4697
12267TIP3    H158216   6.081   2.073   6.246 -0.4216 -0.0353  0.5595
12267TIP3    H258217   6.191   1.988   6.305 -0.4402 -0.0610  0.5574
12268TIP3   OH258218   3.048   1.832  17.231  0.1413 -0.5744 -0.1279
12268TIP3    H158219   3.074   1.924  17.226 -0.3191 -0.3531  1.1106
12268TIP3    H258220   2.978   1.823  17.167 -1.6083  0.6231  1.4796
12269TIP3   OH258221   2.186   6.284  12.233 -0.1720  0.0759 -0.6819
12269TIP3    H158222   2.105   6.328  12.209  0.3239  0.7989 -1.0686
12269TIP3    H258223   2.248   6.308  12.164  0.2949 -0.6989 -0.5471
12270TIP3   OH258224   1.532   1.948   4.582 -0.9377  0.2088 -0.0021
12270TIP3    H158225   1.457   1.964   4.639  0.0956 -1.2324  1.8457
12270TIP3    H258226   1.606   1.985   4.629 -0.2241  0.0900 -1.0053
12271TIP3   OH258227   0.698   2.849  16.695 -0.0945 -0.2408 -0.1095
12271TIP3    H158228   0.789   2.861  16.668 -0.0185 -2.5306 -1.1721
12271TIP3    H258229   0.699   2.767  16.745 -1.3500  0.5203  1.2260
12272TIP3   OH258230   5.332   4.870   4.499 -0.4944  0.1014 -0.7164
12272TIP3    H158231   5.304   4.882   4.408  0.5989 -0.7736 -1.1866
12272TIP3    H258232   5.258   4.902   4.551 -0.1783  2.9552 -1.8576
12273TIP3   OH258233   5.741   1.242   1.057 -0.1783 -0.2556 -0.4866
12273TIP3    H158234   5.708   1.243   0.968  0.6734 -0.4916 -0.8155
12273TIP3    H258235   5.708   1.323   1.096  0.3811  0.4042 -1.3629
12274TIP3   OH258236   5.992   1.202   3.300  0.3831 -0.1839 -0.0521
12274TIP3    H158237   5.962   1.114   3.321  1.1283 -0.0857  1.5728
12274TIP3    H258238   6.075   1.189   3.254 -0.6363 -0.3601 -1.9477
12275TIP3   OH258239   3.203   4.154  14.882 -0.0039 -0.6909  0.0453
12275TIP3    H158240   3.142   4.227  14.875 -1.2004 -1.7585 -0.9010
12275TIP3    H258241   3.230   4.155  14.974  0.1895  1.0611  0.0033
12276TIP3   OH258242   6.658   4.307   5.459 -0.2055  0.2125 -0.4362
12276TIP3    H158243   6.655   4.362   5.381 -0.8625 -1.4064 -1.6195
12276TIP3    H258244   6.733   4.249   5.444 -0.5757 -0.3715 -0.0693
12277TIP3   OH258245   2.693   2.074  14.890 -0.3977 -0.1591  0.3140
12277TIP3    H158246   2.669   2.166  14.891  1.4651  0.3974 -0.6972
12277TIP3    H258247   2.783   2.073  14.925 -0.9210 -1.7903  1.7540
12278TIP3   OH258248   5.701   0.580   4.391 -0.1618  0.1593 -0.3524
12278TIP3    H158249   5.772   0.630   4.351  1.0374 -1.0238  0.2298
12278TIP3    H258250   5.687   0.622   4.476  0.2306  0.0563 -0.2350
12279TIP3   OH258251   4.350   2.193  12.085  0.1650  0.5129 -0.0623
12279TIP3    H158252   4.295   2.165  12.012  0.5735 -1.7300  0.4082
12279TIP3    H258253   4.377   2.111  12.127  0.5427  1.7053  2.1720
12280TIP3   OH258254   5.743   0.801  15.003 -0.3431 -0.2591  0.3007
12280TIP3    H158255   5.824   0.842  14.974 -0.7811  0.2507 -0.2211
12280TIP3    H258256   5.764   0.764  15.089  0.5780 -0.5739 -0.0485
12281TIP3   OH258257   6.099   0.845   3.324  0.1462 -0.2143  0.6496
12281TIP3    H158258   6.130   0.778   3.264 -0.7594  0.5658 -0.7399
12281TIP3    H258259   6.009   0.863   3.297 -0.8252 -0.8360  3.1682
12282TIP3   OH258260   0.231   1.091   4.140 -0.2042 -0.8227  0.8909
12282TIP3    H158261   0.227   1.147   4.063  0.5050 -1.2737  0.5151
12282TIP3    H258262   0.139   1.075   4.163 -0.4130 -0.1634  0.5292
12283TIP3   OH258263   1.577   4.294  15.437  0.1808  0.0861 -0.3756
12283TIP3    H158264   1.620   4.363  15.486 -2.0070  0.2759  1.4364
12283TIP3    H258265   1.527   4.340  15.369  0.8385  0.0546 -0.8878
12284TIP3   OH258266   1.761   4.152  14.169  0.4416  0.1473 -0.2321
12284TIP3    H158267   1.743   4.195  14.252  0.4938  1.8130 -1.0358
12284TIP3    H258268   1.812   4.216  14.119  0.8327 -0.9965 -1.3714
12285TIP3   OH258269   6.641   4.947  16.703  0.1381  0.0490 -0.1245
12285TIP3    H158270   6.642   4.905  16.617  1.3797  1.8848 -1.0845
12285TIP3    H258271   6.553   4.931  16.737 -0.1679 -1.2736 -1.4360
12286TIP3   OH258272   1.863   1.816   3.112 -0.1188 -0.4786 -0.2065
12286TIP3    H158273   1.842   1.746   3.051  0.3494  0.9559 -2.1094
12286TIP3    H258274   1.844   1.896   3.064 -0.2069  0.7241  1.7328
12287TIP3   OH258275   1.081   1.633   0.288  0.2281 -0.3950 -0.2818
12287TIP3    H158276   0.987   1.628   0.273  0.3293  0.8898 -1.5307
12287TIP3    H258277   1.096   1.575   0.363 -1.5195 -0.7317 -0.1415
12288TIP3   OH258278   3.264   0.573  12.027 -0.0991 -0.4820 -0.1122
12288TIP3    H158279   3.241   0.647  12.083  1.0172 -1.9711  2.5297
12288TIP3    H258280   3.340   0.604  11.977 -0.0912  0.4107  0.4224
12289TIP3   OH258281   6.370   4.953  17.088  0.4570  0.2745  0.2295
12289TIP3    H158282   6.460   4.959  17.057  0.5785 -1.1446  0.2408
12289TIP3    H258283   6.351   4.859  17.090 -0.5958  0.4729  1.4221
12290TIP3   OH258284   1.789   2.783   6.802 -0.2155 -0.0282  0.0070
12290TIP3    H158285   1.816   2.840   6.729 -0.1815 -0.0093  0.0342
12290TIP3    H258286   1.730   2.838   6.854  1.3420  0.6625  1.1235
12291TIP3   OH258287   5.121   5.129   1.315  0.3885 -0.3724 -0.2712
12291TIP3    H158288   5.044   5.074   1.307 -0.1206  0.1355  0.8871
12291TIP3    H258289   5.087   5.219   1.316  1.0227 -0.1263 -0.1492
12292TIP3   OH258290   4.441   1.434  14.946 -0.6467  0.0589  0.3817
12292TIP3    H158291   4.488   1.503  14.901  0.4495 -1.0348 -0.2319
12292TIP3    H258292   4.460   1.355  14.895 -3.3565 -0.4342 -0.0308
12293TIP3   OH258293   3.883   4.370  11.856 -0.9313  0.1323 -0.5636
12293TIP3    H158294   3.956   4.405  11.805 -1.3642  0.6951 -0.8031
12293TIP3    H258295   3.806   4.414  11.821 -1.3408 -0.1639 -0.0452
12294TIP3   OH258296   0.587   2.856  11.142 -0.1562  0.0868 -0.3517
12294TIP3    H158297   0.609   2.925  11.080 -0.3463 -1.7772 -2.6567
12294TIP3    H258298   0.507   2.816  11.107 -1.3935  0.1287  2.1767
12295TIP3   OH258299   1.138   1.390  12.998  0.4353  0.2494  0.0817
12295TIP3    H158300   1.197   1.452  13.040  1.0582 -0.9346  1.0115
12295TIP3    H258301   1.057   1.394  13.050  0.9802 -0.7439  1.0428
12296TIP3   OH258302   0.848   5.045   5.157  0.0729 -0.0319  0.0040
12296TIP3    H158303   0.774   4.993   5.187  1.2047 -2.9057 -1.8009
12296TIP3    H258304   0.903   4.983   5.109  2.2562  2.5750 -1.1069
12297TIP3   OH258305   6.100   5.183   0.271 -0.1959 -0.2050  0.5783
12297TIP3    H158306   6.143   5.115   0.322 -0.9642 -2.0038 -1.0349
12297TIP3    H258307   6.162   5.205   0.202  0.4116  1.4454  1.5885
12298TIP3   OH258308   5.620   4.062   3.204 -0.8649  0.5478 -0.0992
12298TIP3    H158309   5.576   4.009   3.270  0.0776 -0.6530 -0.3946
12298TIP3    H258310   5.572   4.044   3.123 -0.2865 -0.2378 -0.2865
12299TIP3   OH258311   3.924   5.232   5.605 -0.5848 -1.1676 -0.3609
12299TIP3    H158312   3.998   5.278   5.565 -0.6041 -1.4079 -0.6777
12299TIP3    H258313   3.870   5.301   5.643  0.3094 -1.0463  0.7626
12300TIP3   OH258314   5.171   3.771  14.284 -0.0353 -0.3248  0.1592
12300TIP3    H158315   5.225   3.797  14.209 -0.1474  0.8992  0.4795
12300TIP3    H258316   5.221   3.800  14.361  0.2641 -1.9103  0.6017
12301TIP3   OH258317   0.082   2.039   1.217 -0.0556  0.2654 -0.2959
12301TIP3    H158318   0.135   2.104   1.169  1.9176 -1.6034 -0.8130
12301TIP3    H258319   0.016   2.011   1.154 -0.7291  1.4884 -0.1717
12302TIP3   OH258320   0.425   1.928  10.440  0.0158 -0.5444 -0.0101
12302TIP3    H158321   0.470   1.946  10.357  0.8910 -1.0073  0.3417
12302TIP3    H258322   0.488   1.955  10.507 -1.5238  1.8791  0.5514
12303TIP3   OH258323   2.289   3.485  13.706 -0.0978 -0.3447 -0.3849
12303TIP3    H158324   2.203   3.484  13.748 -0.1075  1.2605 -0.2883
12303TIP3    H258325   2.315   3.577  13.707  2.1392 -0.9162  0.6033
12304TIP3   OH258326   2.083   6.220  11.827  0.4344 -0.0126  0.4516
12304TIP3    H158327   2.039   6.303  11.810  1.6453  0.3632 -1.1283
12304TIP3    H258328   2.019   6.168  11.875 -1.8072  0.4251 -1.8477
12305TIP3   OH258329   0.701   4.981  13.960  0.4215 -0.0475 -0.4396
12305TIP3    H158330   0.734   4.986  14.050 -1.7087  0.0818  0.3879
12305TIP3    H258331   0.680   5.072  13.938  3.5179  0.3821 -2.1907
12306TIP3   OH258332   1.854   3.587   2.967  0.7339  0.2128  0.6610
12306TIP3    H158333   1.832   3.549   3.052 -0.6623  0.2462  0.3397
12306TIP3    H258334   1.885   3.513   2.914  0.4556 -0.0251  0.8301
12307TIP3   OH258335   0.511   0.895  15.945  1.1227  0.1856  0.8836
12307TIP3    H158336   0.429   0.887  15.994  0.4251  0.6108 -0.1608
12307TIP3    H258337   0.560   0.963  15.991  1.3741 -0.8079  2.1419
12308TIP3   OH258338   1.090   4.527   5.510 -0.4081  0.6466 -0.1441
12308TIP3    H158339   1.109   4.475   5.432  4.3344  2.9181 -0.9137
12308TIP3    H258340   1.162   4.507   5.570 -2.7011  0.6500  2.8640
12309TIP3   OH258341   3.700   1.528   3.759 -0.5211 -0.0343  0.5311
12309TIP3    H158342   3.623   1.474   3.775 -1.1351  0.1596 -1.5117
12309TIP3    H258343   3.772   1.465   3.749 -0.4933 -0.2433  1.8835
12310TIP3   OH258344   2.965   2.485   3.273 -0.3466  0.8523  0.0692
12310TIP3    H158345   2.882   2.504   3.227 -1.6146  2.6224  2.8264
12310TIP3    H258346   3.017   2.564   3.260  0.7400 -0.0307 -1.1615
12311TIP3   OH258347   5.859   4.047  11.533 -0.0736 -0.2559 -0.4955
12311TIP3    H158348   5.947   4.083  11.544 -0.0346 -0.4206 -0.2611
12311TIP3    H258349   5.870   3.953  11.543 -0.1882 -0.3302 -1.0262
12312TIP3   OH258350   3.454   5.598  13.679 -1.0194  0.2310 -0.3377
12312TIP3    H158351   3.480   5.506  13.670  0.1186  0.4414  0.6501
12312TIP3    H258352   3.441   5.628  13.588  0.6855 -0.3371 -0.8087
12313TIP3   OH258353   4.727   4.950  14.249 -0.6404 -0.2305  0.3726
12313TIP3    H158354   4.798   4.937  14.185  0.2368  0.0336  1.2653
12313TIP3    H258355   4.684   4.865  14.254  0.2190 -0.6735  0.5023
12314TIP3   OH258356   0.565   5.979  11.132  0.4300  0.6237  0.2814
12314TIP3    H158357   0.575   5.984  11.037 -2.8076  0.6741 -0.1805
12314TIP3    H258358   0.649   6.008  11.167  1.6713  0.7468 -2.5509
12315TIP3   OH258359   5.804   6.479  14.843  0.5613 -0.6322 -0.1616
12315TIP3    H158360   5.795   6.425  14.922  1.1690 -1.2702 -0.5227
12315TIP3    H258361   5.725   6.460  14.792  0.7559 -1.1598 -0.2705
12316TIP3   OH258362   0.268   3.603  11.291 -0.5108  0.0871  0.9435
12316TIP3    H158363   0.270   3.568  11.380  0.7483 -1.3960  0.3762
12316TIP3    H258364   0.336   3.669  11.289  1.3110 -1.6983  0.4424
12317TIP3   OH258365   0.685   3.955  11.240 -0.3866 -0.1359 -0.3136
12317TIP3    H158366   0.644   4.039  11.261 -1.0558 -0.6800  0.6025
12317TIP3    H258367   0.753   3.977  11.176 -0.5322  1.1048 -0.0632
12318TIP3   OH258368   6.721   4.076   4.247 -0.2187 -0.2610 -0.0928
12318TIP3    H158369   6.812   4.055   4.268 -0.3049  0.0338  0.6096
12318TIP3    H258370   6.707   4.039   4.160 -0.3527 -3.0681  1.0309
12319TIP3   OH258371   3.024   4.779  16.257 -0.7945 -0.1864 -0.8061
12319TIP3    H158372   3.046   4.809  16.169  1.3352 -1.4235 -0.7717
12319TIP3    H258373   2.946   4.726  16.246 -0.4825 -0.4308 -1.9689
12320TIP3   OH258374   6.302   0.129   1.994  0.5898  0.1325  0.5630
12320TIP3    H158375   6.279   0.163   2.081 -0.2406 -0.4721  0.5904
12320TIP3    H258376   6.218   0.119   1.949  1.1101  2.0546 -0.9549
12321TIP3   OH258377   4.087   5.180   0.165  0.1376 -0.4071 -0.1391
12321TIP3    H158378   4.074   5.088   0.186  0.6947 -0.6553 -0.8264
12321TIP3    H258379   4.162   5.207   0.218 -1.4166  0.3046  1.8175
12322TIP3   OH258380   4.390   3.375   5.913  0.0306 -0.0108  0.4225
12322TIP3    H158381   4.480   3.351   5.932  0.3458 -0.1210 -1.0380
12322TIP3    H258382   4.386   3.378   5.817 -1.3098  0.7809  0.4727
12323TIP3   OH258383   2.049   6.623  12.306 -0.1426 -0.1298  0.1406
12323TIP3    H158384   2.046   6.577  12.222  2.6011 -2.1446  0.9935
12323TIP3    H258385   2.133   6.668  12.306 -0.9686  1.5102  1.0696
12324TIP3   OH258386   1.193   2.206   5.935 -0.3560 -0.0564  0.4313
12324TIP3    H158387   1.103   2.172   5.935 -0.6911  0.7915 -0.4765
12324TIP3    H258388   1.247   2.129   5.954 -1.3315 -0.3549  2.1651
12325TIP3   OH258389   5.350   3.708  11.126 -0.5979  0.2417 -0.5186
12325TIP3    H158390   5.430   3.686  11.174  0.0670  1.0034 -1.2521
12325TIP3    H258391   5.309   3.623  11.108 -0.1356 -0.1386  0.1594
12326TIP3   OH258392   4.241   1.822  11.618 -1.2909 -0.2396  0.5202
12326TIP3    H158393   4.294   1.804  11.540 -0.0901  1.8339  0.7753
12326TIP3    H258394   4.227   1.737  11.658  1.8501 -0.9396  0.3772
12327TIP3   OH258395   4.465   4.425  13.640  0.2161  0.6407 -0.4002
12327TIP3    H158396   4.386   4.460  13.599 -0.3746  1.8110  1.6101
12327TIP3    H258397   4.436   4.346  13.685 -0.4304  2.2684  2.2578
12328TIP3   OH258398   4.070   5.693  11.135 -0.1382 -0.4831 -0.4982
12328TIP3    H158399   4.103   5.638  11.206  0.9689  2.2481  1.2985
12328TIP3    H258400   4.140   5.693  11.070  1.0709  0.7294  0.6962
12329TIP3   OH258401   3.939   0.457   1.873 -0.0580  0.0790 -0.7647
12329TIP3    H158402   3.967   0.480   1.785  0.2285  1.0014 -0.4373
12329TIP3    H258403   3.871   0.520   1.895  0.8491  0.7554  0.2033
12330TIP3   OH258404   5.391   0.538  13.128  0.2025 -0.2267 -0.3303
12330TIP3    H158405   5.391   0.455  13.176 -2.4835  0.3467  0.8654
12330TIP3    H258406   5.451   0.594  13.178  0.4035 -0.8093  0.1009
12331TIP3   OH258407   0.085   6.614  14.641 -0.1582  0.6373 -0.1287
12331TIP3    H158408   0.116   6.651  14.558 -0.1174  1.2576  0.1604
12331TIP3    H258409   0.038   6.534  14.616  1.6422 -0.3361 -0.5880
12332TIP3   OH258410   4.844   4.506  12.203  0.5639  0.3773  0.4890
12332TIP3    H158411   4.783   4.435  12.224 -0.5472  1.1524 -0.0112
12332TIP3    H258412   4.913   4.463  12.151  1.5565 -0.8977  2.7177
12333TIP3   OH258413   6.016   0.872   0.498  0.4781  0.1330 -0.8101
12333TIP3    H158414   6.030   0.919   0.416  1.8629  1.9425  0.3950
12333TIP3    H258415   5.922   0.878   0.513  0.5056  1.7403 -1.1583
12334TIP3   OH258416   2.390   2.958  13.936 -0.0923 -0.2431 -0.3473
12334TIP3    H158417   2.381   3.008  13.855  3.7108  1.6819  0.2017
12334TIP3    H258418   2.372   3.022  14.006 -1.0450 -1.2643  0.3802
12335TIP3   OH258419   1.109   5.430   3.768  0.3423  0.1704  0.4709
12335TIP3    H158420   1.044   5.481   3.718 -1.5973  0.3590  2.9795
12335TIP3    H258421   1.169   5.396   3.702 -0.4641  2.6069 -1.6939
12336TIP3   OH258422   0.428   6.555   4.988  0.2243  1.3132 -0.2466
12336TIP3    H158423   0.504   6.498   4.982  0.1837  1.2901 -0.5696
12336TIP3    H258424   0.383   6.544   4.904 -0.3885  0.9739  0.1148
12337TIP3   OH258425   5.802   0.363   0.878 -0.4239  0.1913  0.3012
12337TIP3    H158426   5.895   0.352   0.896 -0.3522 -0.2747 -0.3403
12337TIP3    H258427   5.788   0.320   0.794 -0.6146  2.9180 -1.1541
12338TIP3   OH258428   0.418   1.319  12.837  0.1602 -0.1424  0.1674
12338TIP3    H158429   0.444   1.254  12.902  0.6480  0.3819  0.5023
12338TIP3    H258430   0.344   1.278  12.791 -0.2749 -0.4679  1.1311
12339TIP3   OH258431   2.636   1.203  15.384 -0.0236 -0.1864  0.0088
12339TIP3    H158432   2.644   1.181  15.292  0.5784 -0.5631  0.1427
12339TIP3    H258433   2.545   1.184  15.406 -0.0342 -0.6041 -0.3781
12340TIP3   OH258434   2.294   3.853   0.894 -0.2638  0.2337 -0.3812
12340TIP3    H158435   2.387   3.836   0.910 -0.1569  0.6881 -0.4998
12340TIP3    H258436   2.269   3.790   0.826 -0.0859 -0.0008 -0.2316
12341TIP3   OH258437   3.642   2.755  16.484 -0.0354  0.1036  0.1118
12341TIP3    H158438   3.724   2.706  16.476  0.5893  0.7616  1.9015
12341TIP3    H258439   3.654   2.809  16.562 -0.5008  3.4200 -1.9131
12342TIP3   OH258440   3.370   3.255   0.230  0.1056  0.6141 -0.4020
12342TIP3    H158441   3.411   3.185   0.281 -1.3575  0.2848  0.3839
12342TIP3    H258442   3.409   3.335   0.264 -1.9885  0.5663  2.5949
12343TIP3   OH258443   4.227   0.694   5.786  0.4017  0.3562 -0.4299
12343TIP3    H158444   4.319   0.676   5.766  0.8038  1.3039  0.5259
12343TIP3    H258445   4.178   0.642   5.721  1.5730 -1.1286 -0.1806
12344TIP3   OH258446   3.652   5.463  12.981 -0.1352 -0.1064  0.0945
12344TIP3    H158447   3.686   5.384  12.940 -0.1063  0.3782 -0.8540
12344TIP3    H258448   3.680   5.457  13.072 -0.8019 -1.5538  0.2252
12345TIP3   OH258449   0.183   0.486   4.863  0.3587  0.6556  0.0438
12345TIP3    H158450   0.158   0.451   4.948 -1.4571  0.0429 -0.7048
12345TIP3    H258451   0.106   0.532   4.831  0.6064 -0.0746 -1.7470
12346TIP3   OH258452   5.869   5.130   1.534  0.4818 -0.4048 -0.0259
12346TIP3    H158453   5.796   5.157   1.478  0.0980  0.7792  0.9929
12346TIP3    H258454   5.903   5.212   1.571  1.5837 -1.0389  0.4215
12347TIP3   OH258455   2.469   0.903  15.129 -0.0366  0.1164 -0.0915
12347TIP3    H158456   2.563   0.922  15.136  0.2603 -1.3679  0.5077
12347TIP3    H258457   2.449   0.915  15.037  0.9854 -0.4951 -0.4159
12348TIP3   OH258458   3.871   4.884   3.040 -0.0349  0.5505  0.7952
12348TIP3    H158459   3.854   4.790   3.038 -0.5629  0.6467 -1.0105
12348TIP3    H258460   3.832   4.913   3.123  1.3705 -0.9885  2.0759
12349TIP3   OH258461   5.390   4.884  14.199 -0.1883 -0.1465  0.4054
12349TIP3    H158462   5.337   4.833  14.261 -1.5797  0.4892 -0.2394
12349TIP3    H258463   5.374   4.975  14.223  0.9382  0.0593  0.4420
12350TIP3   OH258464   0.195   5.778  17.226 -0.5194  0.3669  0.0669
12350TIP3    H158465   0.250   5.797  17.302 -0.5823 -2.0473  0.7890
12350TIP3    H258466   0.256   5.763  17.155 -0.2903 -0.4710  0.4257
12351TIP3   OH258467   4.111   0.199  12.203  0.4315  0.6246  0.1029
12351TIP3    H158468   4.119   0.294  12.212  0.4126  0.6005  0.3681
12351TIP3    H258469   4.106   0.185  12.108  2.6401  0.7150 -0.0929
12352TIP3   OH258470   1.819   1.660   3.347 -0.5233 -0.1503 -0.9441
12352TIP3    H158471   1.853   1.695   3.264  0.9645 -0.4658 -0.4956
12352TIP3    H258472   1.775   1.579   3.323  1.4614 -1.1801 -1.2364
12353TIP3   OH258473   4.110   0.904  11.806 -0.4243 -0.2009  0.5048
12353TIP3    H158474   4.027   0.860  11.787  0.2260 -1.3988  0.3172
12353TIP3    H258475   4.176   0.841  11.779  0.5654  1.1604 -0.3481
12354TIP3   OH258476   3.114   1.401  14.926 -0.0257 -0.7550 -0.1407
12354TIP3    H158477   3.073   1.349  14.857  0.1994 -1.9900  0.6242
12354TIP3    H258478   3.067   1.484  14.926  0.4483 -0.4252 -2.2671
12355TIP3   OH258479   2.781   5.874   5.301  0.0600 -0.4108  0.4664
12355TIP3    H158480   2.727   5.940   5.345 -0.3714 -1.0685  0.9327
12355TIP3    H258481   2.867   5.883   5.342  0.3832  0.7593 -0.3993
12356TIP3   OH258482   4.914   2.044   0.095 -0.8902 -0.4505 -0.1918
12356TIP3    H158483   4.934   2.115   0.156 -0.9012  1.0819 -1.8881
12356TIP3    H258484   4.975   1.974   0.118  0.8971  1.0683 -0.0620
12357TIP3   OH258485   5.168   4.630   2.728  0.0104 -0.4040  0.3279
12357TIP3    H158486   5.134   4.633   2.639  1.0591  0.0751 -0.0680
12357TIP3    H258487   5.153   4.539   2.756 -0.0222 -0.6488 -0.4581
12358TIP3   OH258488   3.887   2.720  11.328 -0.3516  0.2229  0.0573
12358TIP3    H158489   3.914   2.770  11.405  0.3386 -1.3486  0.8870
12358TIP3    H258490   3.896   2.628  11.354 -0.4398 -0.3602 -1.7886
12359TIP3   OH258491   6.292   3.858  14.143  0.2442 -0.1421 -0.0604
12359TIP3    H158492   6.387   3.853  14.148  0.2171  0.4480  1.8002
12359TIP3    H258493   6.274   3.921  14.073  1.1592 -1.5669 -1.6163
12360TIP3   OH258494   1.433   1.393   6.433  0.3660  0.3053 -0.4881
12360TIP3    H158495   1.465   1.469   6.386  0.9736 -1.2505 -2.7791
12360TIP3    H258496   1.451   1.412   6.525  2.2692  2.0943 -1.1525
12361TIP3   OH258497   2.469   4.968  12.878  0.5266  0.6062 -0.7501
12361TIP3    H158498   2.411   5.041  12.857  0.1644  0.5325 -0.0325
12361TIP3    H258499   2.532   4.967  12.807  0.5536  1.6359 -0.7589
12362TIP3   OH258500   2.068   4.262  12.416 -0.3485  0.5030  0.3811
12362TIP3    H158501   2.163   4.271  12.427 -0.1974  1.0768 -1.1157
12362TIP3    H258502   2.054   4.274  12.322 -1.7563 -1.0430  0.3401
12363TIP3   OH258503   2.614   1.085   4.320  0.4118 -0.2392 -0.4170
12363TIP3    H158504   2.552   1.124   4.382  0.6433 -0.6279  0.0722
12363TIP3    H258505   2.559   1.046   4.252  0.1809  1.4533 -1.2671
12364TIP3   OH258506   5.019   0.823   2.107  0.1888  0.2107  0.5272
12364TIP3    H158507   5.022   0.772   2.027  3.5977  0.5634  0.3036
12364TIP3    H258508   4.956   0.776   2.163 -0.8758 -1.0622 -1.6165
12365TIP3   OH258509   2.056   1.682  17.406 -0.5445  0.3724  0.4092
12365TIP3    H158510   2.128   1.646  17.355  0.1060 -0.2257  1.7078
12365TIP3    H258511   1.998   1.722  17.341  1.6584  2.1758 -0.5550
12366TIP3   OH258512   4.871   3.804   2.110  0.0432 -0.1246  0.0183
12366TIP3    H158513   4.957   3.819   2.071 -0.5386 -3.0700 -2.8997
12366TIP3    H258514   4.888   3.753   2.189  1.0026  1.2650  0.7519
12367TIP3   OH258515   0.155   6.170   3.560  0.5877  0.0343  0.2332
12367TIP3    H158516   0.229   6.142   3.615  2.7693  1.7824 -1.6107
12367TIP3    H258517   0.183   6.254   3.523 -2.6743  1.1246 -0.0157
12368TIP3   OH258518   3.981   5.792   0.349 -0.2271  0.4750 -0.0416
12368TIP3    H158519   3.947   5.710   0.312  0.0287  0.2500  0.2247
12368TIP3    H258520   3.928   5.806   0.427 -0.4727  0.7242 -0.2483
12369TIP3   OH258521   4.181   5.333  12.684  0.6212 -0.3842  0.1069
12369TIP3    H158522   4.158   5.246  12.651  0.2319 -0.4972  0.6552
12369TIP3    H258523   4.158   5.330  12.777 -0.0813  0.5480 -0.0281
12370TIP3   OH258524   5.904   0.204   2.909 -0.7257 -0.6471  0.4495
12370TIP3    H158525   5.997   0.222   2.894 -1.0849  0.7880 -0.2258
12370TIP3    H258526   5.885   0.131   2.850  0.0259 -1.1581  0.8171
12371TIP3   OH258527   1.604   6.404  13.147 -0.2315 -0.1939  0.2623
12371TIP3    H158528   1.697   6.403  13.170  0.3044  0.8133 -1.6826
12371TIP3    H258529   1.560   6.414  13.232  1.4587  0.1816  1.1636
12372TIP3   OH258530   3.305   5.663  11.160 -0.3017  0.5390 -0.1235
12372TIP3    H158531   3.231   5.722  11.172 -1.3849 -1.0154  1.3359
12372TIP3    H258532   3.298   5.633  11.069 -1.1413  0.8221 -0.1579
12373TIP3   OH258533   5.204   3.089  15.622 -0.2262 -0.6222  0.3817
12373TIP3    H158534   5.261   3.164  15.606  3.6929 -3.7153 -1.9739
12373TIP3    H258535   5.236   3.051  15.704 -2.3457  0.2261  1.6920
12374TIP3   OH258536   3.319   5.251  12.054 -0.0384  0.0790  0.0832
12374TIP3    H158537   3.371   5.206  12.121  0.9063  0.2313 -0.5203
12374TIP3    H258538   3.296   5.335  12.093  0.9077  0.3603  0.0659
12375TIP3   OH258539   6.075   1.297  16.500 -0.0752 -0.5235  0.3676
12375TIP3    H158540   6.089   1.203  16.512  0.6024 -0.3314  1.2421
12375TIP3    H258541   6.154   1.327  16.455 -0.9905 -0.6164 -1.3646
12376TIP3   OH258542   1.667   1.789  16.973 -0.5376 -0.3794  0.5755
12376TIP3    H158543   1.727   1.750  17.037 -0.3372  1.2564  1.4373
12376TIP3    H258544   1.581   1.754  16.997 -0.2161 -1.1907  0.5846
12377TIP3   OH258545   3.449   2.598  15.833 -0.3857  0.5221 -0.4074
12377TIP3    H158546   3.397   2.518  15.839 -0.0903  0.3478 -0.1784
12377TIP3    H258547   3.384   2.669  15.834 -0.5576  0.3664  1.1811
12378TIP3   OH258548   0.583   0.622  15.328 -0.0443  0.2417  0.4100
12378TIP3    H158549   0.649   0.556  15.310  1.5683  1.6310  1.0315
12378TIP3    H258550   0.519   0.612  15.257 -0.1540 -2.3032  0.7841
12379TIP3   OH258551   6.583   5.122   4.873 -0.3527 -0.5902 -0.4213
12379TIP3    H158552   6.679   5.115   4.874 -0.4711 -3.3153 -0.4040
12379TIP3    H258553   6.564   5.202   4.922  1.8960 -0.1228 -0.2147
12380TIP3   OH258554   5.967   1.108  12.731  0.4949  0.5688 -0.2441
12380TIP3    H158555   6.057   1.088  12.756 -0.5058 -0.6682  2.7948
12380TIP3    H258556   5.941   1.034  12.676  0.7207 -0.1387  0.5804
12381TIP3   OH258557   2.951   0.442   6.325  0.5564 -0.5680 -0.4899
12381TIP3    H158558   2.880   0.465   6.384  0.0167 -0.7310 -1.0743
12381TIP3    H258559   3.030   0.450   6.379  0.3006  1.4664 -0.3274
12382TIP3   OH258560   0.346   3.790  15.924  0.0283 -0.0431 -0.2336
12382TIP3    H158561   0.370   3.712  15.874 -0.3564 -0.1727 -0.2215
12382TIP3    H258562   0.357   3.765  16.015  0.5542  0.1354 -0.2433
12383TIP3   OH258563   6.598   3.868   3.012 -0.3663  0.4684  0.2708
12383TIP3    H158564   6.629   3.882   2.923  0.3816  0.8116  0.5719
12383TIP3    H258565   6.599   3.773   3.024 -0.6649  0.4111 -0.1484
12384TIP3   OH258566   2.182   1.496   5.548  0.2915  0.5788 -0.3019
12384TIP3    H158567   2.097   1.534   5.524 -0.0803  0.6612  1.0996
12384TIP3    H258568   2.244   1.568   5.538 -0.3910  1.6336  2.2301
12385TIP3   OH258569   5.036   6.230  16.609 -0.0654 -0.3480  0.0006
12385TIP3    H158570   4.947   6.240  16.576  0.3840  0.7520 -0.9295
12385TIP3    H258571   5.038   6.141  16.645 -1.2690 -0.7196 -0.7735
12386TIP3   OH258572   1.627   3.683   1.730  0.5701  0.5368 -0.1433
12386TIP3    H158573   1.583   3.599   1.742 -3.0669  2.3553  0.8048
12386TIP3    H258574   1.656   3.708   1.818  0.8999  0.6514 -0.2829
12387TIP3   OH258575   3.410   6.216  15.065 -0.6391  0.1644  0.7933
12387TIP3    H158576   3.457   6.252  15.140  0.3866 -1.7531  1.1316
12387TIP3    H258577   3.339   6.165  15.103  0.3981 -1.5311  0.5546
12388TIP3   OH258578   6.301   3.630   6.105 -0.1437 -0.2239  0.0186
12388TIP3    H158579   6.318   3.670   6.190  2.4028  0.3086 -0.6706
12388TIP3    H258580   6.274   3.703   6.049  3.0375  0.4359 -0.8435
12389TIP3   OH258581   1.967   2.732   2.462 -0.0846  0.1078  0.3091
12389TIP3    H158582   2.015   2.756   2.382 -0.0749 -2.7210 -0.6784
12389TIP3    H258583   2.022   2.665   2.503 -0.5058  0.8992  2.2865
12390TIP3   OH258584   1.327   4.887  16.117 -0.0752 -0.2095 -0.1310
12390TIP3    H158585   1.284   4.954  16.170  3.0871  2.0394 -0.1272
12390TIP3    H258586   1.362   4.824  16.181  0.5877  0.5192  0.2466
12391TIP3   OH258587   5.459   1.128  16.107 -0.3930 -0.4424 -0.3540
12391TIP3    H158588   5.447   1.193  16.038 -1.4384 -0.7189 -0.4622
12391TIP3    H258589   5.397   1.154  16.176  0.0004 -0.6724  0.0951
12392TIP3   OH258590   0.060   0.325  12.208  0.8692 -0.1191 -0.2849
12392TIP3    H158591   0.011   0.392  12.255  1.2794 -0.5964  0.8537
12392TIP3    H258592   0.138   0.371  12.176  0.8955  0.0686  0.0450
12393TIP3   OH258593   2.953   4.423   5.118  0.1565 -0.6582  0.4497
12393TIP3    H158594   2.897   4.377   5.181  0.6468 -0.4472  1.0470
12393TIP3    H258595   2.997   4.352   5.070  0.3888 -0.8207  0.8977
12394TIP3   OH258596   6.375   0.222  14.952  0.4288 -0.4065 -0.5931
12394TIP3    H158597   6.399   0.130  14.967  0.2627 -0.3897 -0.2066
12394TIP3    H258598   6.288   0.217  14.912  0.1724 -0.4045 -0.0489
12395TIP3   OH258599   3.093   5.568  16.782  0.2640  0.2060  0.0517
12395TIP3    H158600   3.144   5.509  16.727  2.6768 -0.5857  2.8742
12395TIP3    H258601   3.005   5.566  16.745  0.9731 -2.7822 -1.7528
12396TIP3   OH258602   2.971   0.084   4.625  0.2289 -0.0667  0.0795
12396TIP3    H158603   3.002   0.013   4.568 -0.6248 -1.4924  1.3171
12396TIP3    H258604   2.974   0.046   4.713 -1.8162  0.8847  0.5983
12397TIP3   OH258605   5.930   6.586   2.431 -0.0971 -0.4312  0.5841
12397TIP3    H158606   6.007   6.573   2.487 -0.4081 -1.3338  0.8269
12397TIP3    H258607   5.965   6.586   2.342  0.0488 -2.3236  0.5931
12398TIP3   OH258608   3.830   6.560   4.086  0.4070 -0.0213 -0.3246
12398TIP3    H158609   3.805   6.647   4.116  0.6207  0.1049 -0.5037
12398TIP3    H258610   3.886   6.576   4.010 -0.0187 -0.3297 -0.7071
12399TIP3   OH258611   2.696   6.040   1.264 -0.1855  0.5044 -0.2170
12399TIP3    H158612   2.716   6.036   1.171  0.8711  1.1999 -0.0360
12399TIP3    H258613   2.603   6.016   1.270 -0.2152  0.2788 -1.4196
12400TIP3   OH258614   1.799   3.678  15.875 -0.0835  0.0785  0.8559
12400TIP3    H158615   1.826   3.739  15.806 -0.6741 -0.3281  0.2507
12400TIP3    H258616   1.817   3.725  15.956  0.6530  0.5585  0.4309
12401TIP3   OH258617   5.675   0.581   3.903  0.6985  0.0649 -0.3290
12401TIP3    H158618   5.644   0.516   3.966 -0.8280  1.1023  0.0429
12401TIP3    H258619   5.686   0.533   3.822 -2.2419 -0.3577 -0.5648
12402TIP3   OH258620   3.970   5.890  16.227 -0.0154  0.0671  0.4670
12402TIP3    H158621   3.881   5.921  16.243  0.6878  2.0845  0.8000
12402TIP3    H258622   3.985   5.905  16.134 -0.3208 -1.2371  0.1759
12403TIP3   OH258623   4.382   4.220  10.938  0.1122 -0.5723  0.3170
12403TIP3    H158624   4.470   4.252  10.916 -0.2630  0.0345 -0.3630
12403TIP3    H258625   4.383   4.128  10.911 -0.1519  0.0047 -1.8733
12404TIP3   OH258626   5.920   3.940  16.690 -0.2715  0.5837  0.3188
12404TIP3    H158627   5.844   3.997  16.685 -0.7837 -0.1721 -0.8953
12404TIP3    H258628   5.937   3.913  16.600  1.1071  0.2935  0.6321
12405TIP3   OH258629   5.599   3.546  15.757  0.1211  0.3619  0.4073
12405TIP3    H158630   5.620   3.619  15.814 -0.5418  1.9957 -1.3408
12405TIP3    H258631   5.633   3.571  15.671 -2.5138 -0.0783 -0.8823
12406TIP3   OH258632   6.670   2.013  16.733 -0.0513 -0.6067 -0.3943
12406TIP3    H158633   6.581   2.002  16.767 -0.0661 -1.9764 -0.8248
12406TIP3    H258634   6.726   1.978  16.803  0.1872  0.4565 -0.0289
12407TIP3   OH258635   3.488   6.457  16.421  0.1523  0.7725  0.5189
12407TIP3    H158636   3.527   6.428  16.504 -4.9854 -2.5160  2.3032
12407TIP3    H258637   3.429   6.527  16.446 -0.7819  0.3758 -0.5098
12408TIP3   OH258638   4.335   3.047   1.750  0.2558 -0.4169  0.1598
12408TIP3    H158639   4.360   3.139   1.759 -0.8474 -0.2440  1.9482
12408TIP3    H258640   4.242   3.050   1.731  0.6994 -1.1488 -2.5496
12409TIP3   OH258641   0.792   2.245   5.431 -0.0487 -0.1403  0.1574
12409TIP3    H158642   0.837   2.180   5.377  0.5286  0.2056  0.2132
12409TIP3    H258643   0.701   2.240   5.403  0.4180  0.8534 -1.7125
12410TIP3   OH258644   2.053   2.211   3.802 -0.0856  0.3407  0.3046
12410TIP3    H158645   2.027   2.211   3.710 -2.7117  1.7861  0.9601
12410TIP3    H258646   1.990   2.154   3.845  1.3857 -0.6907  1.2163
12411TIP3   OH258647   5.502   5.631   1.547 -0.3404 -0.5521  0.2899
12411TIP3    H158648   5.417   5.632   1.590  0.0613 -0.5229  1.0931
12411TIP3    H258649   5.481   5.618   1.454 -1.2255 -0.3381  0.4475
12412TIP3   OH258650   6.241   5.353   3.231  0.3772 -0.4373  0.4388
12412TIP3    H158651   6.146   5.352   3.239  0.3927 -0.3445  0.6239
12412TIP3    H258652   6.262   5.438   3.193  0.4641 -0.0523  1.3392
12413TIP3   OH258653   0.901   4.168  15.365  0.5873 -0.1823 -0.7085
12413TIP3    H158654   0.982   4.208  15.397  2.1923 -1.8236 -2.4904
12413TIP3    H258655   0.848   4.243  15.336  0.5523  1.0741  2.2413
12414TIP3   OH258656   3.284   6.170   0.637  0.5375 -0.0271  0.5480
12414TIP3    H158657   3.266   6.082   0.673  0.6305 -0.2064  0.1565
12414TIP3    H258658   3.323   6.217   0.710  1.4792 -0.6445  0.4623
12415TIP3   OH258659   6.421   5.373  12.934 -0.1787  0.2929 -0.2332
12415TIP3    H158660   6.480   5.422  12.991  0.3992  0.3572 -0.8752
12415TIP3    H258661   6.352   5.341  12.993  0.3048  0.5067  0.4662
12416TIP3   OH258662   3.671   0.852  16.817 -0.1493  0.2101 -0.1892
12416TIP3    H158663   3.751   0.805  16.841 -1.6331 -2.4909 -0.1533
12416TIP3    H258664   3.683   0.875  16.726  0.8066  0.1170 -0.0960
12417TIP3   OH258665   5.243   0.242   1.297 -0.6938 -1.1733  0.0834
12417TIP3    H158666   5.291   0.276   1.373 -1.4071  0.9639 -0.3464
12417TIP3    H258667   5.154   0.228   1.330 -1.2675  0.7368 -0.5461
12418TIP3   OH258668   4.886   4.138   3.569 -0.0979  0.0028  0.1337
12418TIP3    H158669   4.844   4.168   3.650 -3.6622  1.3750 -2.0084
12418TIP3    H258670   4.946   4.209   3.545 -1.8936  1.4674 -0.2948
12419TIP3   OH258671   1.777   0.921  14.249 -0.6968 -0.0039  0.5160
12419TIP3    H158672   1.698   0.875  14.219 -0.2514 -0.4571  0.0176
12419TIP3    H258673   1.749   0.968  14.328 -2.2790  2.2613 -1.2171
12420TIP3   OH258674   1.190   5.002   4.417  0.2046 -0.1971  0.5846
12420TIP3    H158675   1.254   4.968   4.355 -0.0059  0.0545  0.2308
12420TIP3    H258676   1.128   4.930   4.430 -1.1690  0.5451 -1.4090
12421TIP3   OH258677   1.522   0.979   2.042  0.4821  0.0397  0.4281
12421TIP3    H158678   1.504   0.888   2.063  0.4345  0.2046  1.1393
12421TIP3    H258679   1.564   0.977   1.956  2.4462 -0.8210  1.3734
12422TIP3   OH258680   3.918   0.983   3.773  0.1438 -0.2135  0.1873
12422TIP3    H158681   3.913   1.054   3.836 -0.7159  0.6254 -0.7861
12422TIP3    H258682   3.898   0.904   3.824 -0.0953  0.3937  1.0488
12423TIP3   OH258683   6.688   6.645  17.372 -0.2684  0.3717 -0.0874
12423TIP3    H158684   6.756   6.658  17.437  1.8795  0.7283 -2.2435
12423TIP3    H258685   6.698   6.553  17.345 -1.9241 -0.1282  0.8486
12424TIP3   OH258686   5.470   5.800  16.539 -0.4658 -0.5524  0.0949
12424TIP3    H158687   5.513   5.872  16.493 -0.1378  0.0634  1.3224
12424TIP3    H258688   5.391   5.839  16.575 -0.2230 -0.7668  0.8745
12425TIP3   OH258689   1.255   6.452  14.084  0.1554 -0.0484 -0.3711
12425TIP3    H158690   1.198   6.390  14.130 -0.7244  0.0541 -1.3084
12425TIP3    H258691   1.300   6.499  14.155 -1.3257  0.2635  0.4043
12426TIP3   OH258692   3.977   5.123   1.087  0.0261  0.2962 -0.2315
12426TIP3    H158693   3.912   5.128   1.017 -0.9018  2.1702  0.6970
12426TIP3    H258694   4.061   5.114   1.041 -0.8092 -2.3860 -1.4493
12427TIP3   OH258695   6.310   1.773  17.325  0.0030 -0.2761 -0.2333
12427TIP3    H158696   6.369   1.702  17.352  0.1492  0.3721  1.2531
12427TIP3    H258697   6.369   1.842  17.295 -0.0840 -0.3089 -0.4811
12428TIP3   OH258698   3.671   4.605   3.773  1.0206 -1.0165 -0.3362
12428TIP3    H158699   3.707   4.658   3.844 -0.2432  0.1639 -0.5295
12428TIP3    H258700   3.726   4.626   3.697  1.7278 -1.4827  0.0415
12429TIP3   OH258701   3.628   0.201   2.972 -0.0771 -0.0321 -0.1813
12429TIP3    H158702   3.687   0.154   2.912 -1.2483  0.6618 -1.9693
12429TIP3    H258703   3.685   0.262   3.018  0.7198  0.1894 -1.4066
12430TIP3   OH258704   1.465   5.866   1.320 -0.8734  0.1985 -0.4260
12430TIP3    H158705   1.444   5.951   1.280  2.2305  0.6218 -1.4217
12430TIP3    H258706   1.499   5.813   1.247  1.0667 -0.4593  0.8847
12431TIP3   OH258707   0.414   0.032  14.447  0.0984 -0.1944  0.3853
12431TIP3    H158708   0.344  -0.031  14.429 -0.9411  0.8884  0.5373
12431TIP3    H258709   0.494  -0.020  14.440 -0.7007 -1.4637  0.1855
12432TIP3   OH258710   3.399   5.674  11.417  0.5712  0.5070  0.1070
12432TIP3    H158711   3.455   5.742  11.455  2.8600 -0.3192 -1.5595
12432TIP3    H258712   3.399   5.693  11.323 -0.2513 -0.7674 -0.1693
12433TIP3   OH258713   2.598   1.995   3.280  0.0783 -0.2971  0.0173
12433TIP3    H158714   2.663   1.926   3.296  1.2197  0.8113  0.3283
12433TIP3    H258715   2.562   1.974   3.194  1.1587 -0.7125 -0.3567
12434TIP3   OH258716   3.996   4.347  11.016  0.8583 -0.2603  0.0926
12434TIP3    H158717   3.951   4.264  11.006  1.4105 -0.7227  1.2837
12434TIP3    H258718   3.927   4.411  11.032  0.2308 -0.0766 -2.7451
12435TIP3   OH258719   2.286   4.256  13.764 -0.1706  0.0062  0.0833
12435TIP3    H158720   2.374   4.223  13.779 -0.7163 -1.2638  0.6360
12435TIP3    H258721   2.249   4.266  13.852 -1.8242 -3.0735 -0.1289
12436TIP3   OH258722   0.783   1.764  11.811 -0.4907  0.6606 -0.8547
12436TIP3    H158723   0.699   1.782  11.768 -0.7787  0.9238 -0.1954
12436TIP3    H258724   0.787   1.669  11.818 -1.7018  0.6771  0.9437
12437TIP3   OH258725   1.465   6.175  14.348  0.3956  0.4859 -0.4540
12437TIP3    H158726   1.554   6.186  14.314  1.6063 -1.4290  1.7315
12437TIP3    H258727   1.438   6.089  14.315 -0.2416  0.6129 -0.2684
12438TIP3   OH258728   1.648   2.022   3.021 -0.7141 -0.1144  0.4189
12438TIP3    H158729   1.555   2.047   3.014 -0.4652  1.3714  1.8319
12438TIP3    H258730   1.683   2.081   3.087  1.4329 -0.1936 -0.5865
12439TIP3   OH258731   5.696   2.303  16.501  0.5499  0.0157  0.2468
12439TIP3    H158732   5.699   2.236  16.568 -0.3794 -0.0209  0.2743
12439TIP3    H258733   5.606   2.337  16.505  0.9011  1.0131 -0.0016
12440TIP3   OH258734   1.978   0.925   0.586  0.4835 -0.3725 -0.2740
12440TIP3    H158735   2.034   0.855   0.553 -0.1204 -0.3697 -1.3774
12440TIP3    H258736   2.025   1.005   0.565  1.4904 -0.4395  1.5955
12441TIP3   OH258737   1.543   3.900   0.713 -0.7567 -0.0950  0.3341
12441TIP3    H158738   1.636   3.922   0.716 -0.8834  0.9156 -1.5881
12441TIP3    H258739   1.514   3.906   0.805  1.2018 -1.1853  1.0789
12442TIP3   OH258740   6.300   2.450  14.479  0.7563  0.2121  0.1120
12442TIP3    H158741   6.383   2.436  14.525 -0.0057 -2.2470  0.8745
12442TIP3    H258742   6.234   2.408  14.534 -0.8062  0.8565 -1.1886
12443TIP3   OH258743   2.376   1.818   2.345 -0.4942 -0.2732  0.6700
12443TIP3    H158744   2.396   1.830   2.252 -1.0708 -0.9905  0.4487
12443TIP3    H258745   2.281   1.815   2.349 -0.4623 -0.6637  1.2356
12444TIP3   OH258746   4.142   0.360  16.423  0.0807  0.2075  0.1733
12444TIP3    H158747   4.223   0.310  16.419 -0.0765 -0.0248 -0.2141
12444TIP3    H258748   4.093   0.331  16.346 -0.5626  0.0096  0.6484
12445TIP3   OH258749   2.783   0.341   0.417  0.2851  0.1007  0.5344
12445TIP3    H158750   2.725   0.277   0.458 -0.8442  0.4326 -0.4782
12445TIP3    H258751   2.852   0.288   0.377 -0.4102 -0.4710  0.0631
12446TIP3   OH258752   6.543   4.027  15.886  0.7693 -0.5344 -0.3627
12446TIP3    H158753   6.511   4.043  15.797 -0.4571  1.2977  0.3524
12446TIP3    H258754   6.638   4.033  15.878  0.6200  1.2243 -1.3066
12447TIP3   OH258755   3.832   4.793   3.985 -0.1313 -0.1177 -0.1955
12447TIP3    H158756   3.870   4.771   4.071  1.1204 -1.3723 -1.0297
12447TIP3    H258757   3.747   4.831   4.006  0.3941  0.1807  1.6365
12448TIP3   OH258758   6.472   1.345   1.932  0.0437 -0.1036  0.6492
12448TIP3    H158759   6.438   1.431   1.957  2.1455  0.2865  2.5089
12448TIP3    H258760   6.529   1.363   1.857 -0.7653 -0.1456  0.0169
12449TIP3   OH258761   3.559   6.161   5.671 -0.2070 -0.1757  0.1716
12449TIP3    H158762   3.612   6.226   5.625 -0.0421  0.4602  1.2133
12449TIP3    H258763   3.511   6.115   5.602  0.2467  0.5419 -0.6379
12450TIP3   OH258764   6.657   5.930   1.687  0.1732 -0.6021 -0.3011
12450TIP3    H158765   6.738   5.885   1.661  0.7551  0.9403 -1.3414
12450TIP3    H258766   6.672   5.953   1.778  0.8931 -0.4050 -0.4584
12451TIP3   OH258767   0.867   4.051  15.659  0.0669  0.1750  0.3711
12451TIP3    H158768   0.905   3.998  15.589  0.0905  0.7154 -0.0319
12451TIP3    H258769   0.859   4.138  15.621  1.3773  0.8187  1.4837
12452TIP3   OH258770   6.024   2.744   4.988  0.1776  0.3353  0.4423
12452TIP3    H158771   6.046   2.828   4.949  2.4675 -0.2171  0.4125
12452TIP3    H258772   6.108   2.707   5.016 -0.5296 -2.6310 -0.9320
12453TIP3   OH258773   2.312   1.539  13.369 -0.1694 -0.6818  0.0154
12453TIP3    H158774   2.383   1.603  13.379 -1.0648  0.3962 -0.3680
12453TIP3    H258775   2.306   1.497  13.455 -0.2107  0.4433  0.5823
12454TIP3   OH258776   6.147   1.371   3.742  0.4848  0.3485 -0.3992
12454TIP3    H158777   6.058   1.407   3.739 -0.2856 -1.4929 -2.1812
12454TIP3    H258778   6.170   1.356   3.651  2.4711  0.3442  0.0541
12455TIP3   OH258779   2.538   0.218  12.218  0.0450  0.2369 -0.3011
12455TIP3    H158780   2.526   0.299  12.268  1.0059 -0.1589  0.6149
12455TIP3    H258781   2.560   0.152  12.284 -0.6007 -0.7575 -1.0479
12456TIP3   OH258782   0.074   2.435  12.447 -0.5018  0.0009  0.0128
12456TIP3    H158783   0.090   2.377  12.372  0.8126 -1.8950  1.6580
12456TIP3    H258784   0.104   2.521  12.417  4.8671 -1.5635 -0.2415
12457TIP3   OH258785   1.381   2.739   0.282  0.0186  0.3198  0.0020
12457TIP3    H158786   1.403   2.793   0.206  1.8135 -0.7049 -0.2622
12457TIP3    H258787   1.399   2.649   0.254 -1.5195 -0.3099  0.9000
12458TIP3   OH258788   4.552   2.795  15.975 -0.6356  0.0606 -0.8785
12458TIP3    H158789   4.507   2.866  15.929 -0.0036  1.3899  0.4670
12458TIP3    H258790   4.636   2.834  16.002 -0.7692 -0.8171  0.9376
12459TIP3   OH258791   1.981   5.233  15.832  0.3331 -1.1343 -0.5176
12459TIP3    H158792   1.926   5.257  15.758 -1.0263 -1.5488  0.3191
12459TIP3    H258793   2.067   5.216  15.794  0.2153  0.7118 -1.6905
12460TIP3   OH258794   5.931   2.586  14.724 -0.0559 -0.0588  0.0469
12460TIP3    H158795   5.843   2.564  14.753  0.0986 -0.7853  0.0020
12460TIP3    H258796   5.974   2.621  14.802 -0.2456 -0.1299  0.1840
12461TIP3   OH258797   0.290   0.135  12.450 -0.0807 -0.5214  0.0729
12461TIP3    H158798   0.326   0.172  12.369 -1.3506 -1.2030 -0.8429
12461TIP3    H258799   0.195   0.145  12.440 -0.3347 -2.0082  0.7834
12462TIP3   OH258800   0.482   4.236  11.814  0.1619  1.1447  0.4383
12462TIP3    H158801   0.410   4.284  11.853 -0.4917 -0.0194  0.7247
12462TIP3    H258802   0.452   4.145  11.813  1.9565  0.4888  1.3900
12463TIP3   OH258803   0.692   4.940   2.047  0.3836  0.4451 -0.2364
12463TIP3    H158804   0.740   4.916   1.967  1.6068 -0.1192  0.6250
12463TIP3    H258805   0.694   5.035   2.049  2.4646  0.4434  0.2950
12464TIP3   OH258806   3.011   4.997   3.525  0.2224  0.0114  0.5804
12464TIP3    H158807   3.004   4.908   3.492  0.0783  0.2635 -0.0713
12464TIP3    H258808   2.983   5.053   3.453  0.0429  0.5760  1.0724
12465TIP3   OH258809   0.367   0.657  12.633  0.3407  0.1086  0.3016
12465TIP3    H158810   0.326   0.582  12.591 -2.0652  1.3738  0.2222
12465TIP3    H258811   0.403   0.709  12.560 -0.3657  0.3517  0.1214
12466TIP3   OH258812   2.488   5.385   2.227  0.1628 -0.1480 -0.8872
12466TIP3    H158813   2.557   5.327   2.260 -1.0148  0.3336  2.8648
12466TIP3    H258814   2.535   5.450   2.174  2.9759  0.8338  2.3941
12467TIP3   OH258815   0.262   2.914  11.869  0.1274 -0.3362  0.0403
12467TIP3    H158816   0.189   2.917  11.930  0.7392 -0.0344  0.7779
12467TIP3    H258817   0.227   2.948  11.787 -0.9983 -1.7486 -0.1084
12468TIP3   OH258818   1.740   5.561   6.271  0.0711 -0.3886 -0.2187
12468TIP3    H158819   1.771   5.548   6.360 -1.8677  1.9847  0.9352
12468TIP3    H258820   1.774   5.648   6.246 -2.1422  0.5017 -0.4054
12469TIP3   OH258821   2.560   0.185  13.247  0.6134  0.2070  1.0163
12469TIP3    H158822   2.572   0.095  13.215  1.0617  0.5784  0.0952
12469TIP3    H258823   2.496   0.223  13.187  1.9762  1.1315  0.0953
12470TIP3   OH258824   6.520   4.937   3.644  0.1372 -0.1472 -0.9608
12470TIP3    H158825   6.543   4.872   3.711  0.0035  0.6568 -0.1005
12470TIP3    H258826   6.454   4.894   3.590 -0.3443 -0.5585 -0.0808
12471TIP3   OH258827   4.382   3.325   1.736 -0.4821  0.6229 -0.1864
12471TIP3    H158828   4.449   3.310   1.670 -1.0399  1.1361 -0.8879
12471TIP3    H258829   4.330   3.398   1.701 -1.5241  0.1057  0.2512
12472TIP3   OH258830   5.216   0.857   4.386  0.1958  0.0288  0.2296
12472TIP3    H158831   5.154   0.818   4.448  1.5661 -1.2032  0.9063
12472TIP3    H258832   5.183   0.832   4.300 -1.0856  0.7464  0.4935
12473TIP3   OH258833   1.111   4.369  11.784 -0.3255  0.4704 -0.2711
12473TIP3    H158834   1.054   4.400  11.713 -0.0273 -0.8080 -1.1224
12473TIP3    H258835   1.052   4.350  11.856 -0.8259  0.3860 -0.6977
12474TIP3   OH258836   0.845   2.128   0.746 -0.3335  0.9271  0.0605
12474TIP3    H158837   0.804   2.041   0.744  0.0079  0.7650 -0.0050
12474TIP3    H258838   0.930   2.115   0.705 -0.1351  1.2193  0.3708
12475TIP3   OH258839   3.410   1.568  13.636  0.7177 -0.4057 -0.3627
12475TIP3    H158840   3.494   1.606  13.663  0.7056  0.1531 -1.0539
12475TIP3    H258841   3.368   1.541  13.717 -0.2691  3.1438  0.5096
12476TIP3   OH258842   3.399   4.576   3.329  0.5710 -0.2696 -0.4727
12476TIP3    H158843   3.441   4.655   3.296  0.8291 -1.0116 -1.9960
12476TIP3    H258844   3.328   4.559   3.268  0.4244 -1.1341 -0.0756
12477TIP3   OH258845   1.504   1.233   3.473  0.0245 -0.4664 -0.6851
12477TIP3    H158846   1.496   1.211   3.566 -1.3844 -0.5002 -0.7981
12477TIP3    H258847   1.598   1.248   3.461  0.1916 -0.0529  0.8310
12478TIP3   OH258848   5.101   5.205  12.780  0.4271  0.0184  0.3160
12478TIP3    H158849   5.105   5.300  12.772 -0.8105 -0.0033 -0.8244
12478TIP3    H258850   5.030   5.188  12.841 -0.8152 -0.1868 -1.1248
12479TIP3   OH258851   0.563   0.969  15.053 -0.6130  0.5555 -0.0265
12479TIP3    H158852   0.598   0.881  15.053  2.3109  1.6118 -1.1152
12479TIP3    H258853   0.629   1.022  15.009 -1.5641  3.5763  1.8519
12480TIP3   OH258854   3.242   6.446  15.535 -0.2538  1.1789 -0.4429
12480TIP3    H158855   3.164   6.395  15.554  0.7201  0.4115  1.8151
12480TIP3    H258856   3.210   6.524  15.488 -2.1681  0.2464 -0.7415
12481TIP3   OH258857   3.556   1.672   6.357  0.2331  0.4041 -0.7008
12481TIP3    H158858   3.463   1.684   6.335  0.4403 -0.4430 -2.1933
12481TIP3    H258859   3.579   1.750   6.408 -2.4377 -1.3521  3.8849
12482TIP3   OH258860   1.438   3.107  12.757 -0.2932 -0.1702 -0.0080
12482TIP3    H158861   1.418   3.028  12.808 -1.1444  0.9244  1.4286
12482TIP3    H258862   1.421   3.081  12.666 -4.2509 -0.6757  0.6859
12483TIP3   OH258863   6.412   1.018  15.077 -1.4933  0.3499  0.0012
12483TIP3    H158864   6.360   1.076  15.133 -0.9704  0.6653  0.1634
12483TIP3    H258865   6.424   0.939  15.129 -2.2949  0.0502 -0.2602
12484TIP3   OH258866   3.936   3.049  16.036  0.1011  0.1074 -0.1396
12484TIP3    H158867   3.863   3.102  16.004  0.3550 -0.7552 -2.2672
12484TIP3    H258868   4.014   3.097  16.009  0.3249 -0.3005 -0.2210
12485TIP3   OH258869   4.401   5.200   2.125 -0.5709 -0.0185 -0.5165
12485TIP3    H158870   4.403   5.121   2.071 -0.5596  0.7400 -1.6642
12485TIP3    H258871   4.377   5.270   2.064  0.5475  1.0563  0.2279
12486TIP3   OH258872   4.846   2.975   1.603 -0.1872 -0.6878  0.2046
12486TIP3    H158873   4.895   3.038   1.550 -1.9741  0.0037 -0.7290
12486TIP3    H258874   4.909   2.905   1.622  2.0641  1.5880  1.7778
12487TIP3   OH258875   1.202   5.566  16.680  0.8166  0.4781 -0.1907
12487TIP3    H158876   1.252   5.588  16.601  2.0205 -2.7770 -0.4727
12487TIP3    H258877   1.130   5.511  16.648  0.5919  0.1479  0.8468
12488TIP3   OH258878   3.978   4.059  10.739  0.3035  0.2015 -0.1072
12488TIP3    H158879   3.944   4.091  10.656  1.5857 -0.0382 -0.7483
12488TIP3    H258880   3.929   4.107  10.806 -1.5106 -0.3919 -0.9569
12489TIP3   OH258881   5.162   0.637  16.414  0.0371  0.0475  0.0078
12489TIP3    H158882   5.113   0.633  16.496  1.6352 -0.0932  1.0019
12489TIP3    H258883   5.198   0.550  16.403  1.3518  0.5521  0.1457
12490TIP3   OH258884   1.833   1.480   5.053  0.1584 -0.1545  0.6174
12490TIP3    H158885   1.847   1.388   5.077  0.6478  0.0160  1.0130
12490TIP3    H258886   1.814   1.524   5.136  0.5416  0.2115  0.5164
12491TIP3   OH258887   0.385   3.947   5.851  0.1410  0.2970 -0.0149
12491TIP3    H158888   0.454   3.881   5.841 -0.9168 -0.5428 -2.5493
12491TIP3    H258889   0.312   3.899   5.889 -0.4332  0.0684 -1.3302
12492TIP3   OH258890   2.954   6.554   5.734  0.1137 -0.2253  0.2702
12492TIP3    H158891   2.988   6.491   5.798  1.4360 -0.0886 -0.2735
12492TIP3    H258892   3.031   6.599   5.701 -0.6899  0.7070 -0.3858
12493TIP3   OH258893   0.858   4.929   4.508 -0.5100  0.3827  0.3678
12493TIP3    H158894   0.803   4.954   4.434 -1.1389  1.4590  1.1750
12493TIP3    H258895   0.846   4.999   4.572  1.2296  0.2614  0.8671
12494TIP3   OH258896   5.930   5.749  10.974  0.4538  0.3135  0.7984
12494TIP3    H158897   5.862   5.753  11.042  0.7509  2.4403  1.0214
12494TIP3    H258898   5.906   5.817  10.912  0.7298 -0.9689 -0.7753
12495TIP3   OH258899   4.190   2.499   3.986 -0.4690 -0.3725  0.0526
12495TIP3    H158900   4.278   2.472   4.012 -0.5047 -0.6504 -0.1043
12495TIP3    H258901   4.146   2.417   3.963 -0.7288 -0.2231  0.0082
12496TIP3   OH258902   1.906   2.265   1.932 -0.8013 -0.3166 -0.2694
12496TIP3    H158903   1.860   2.242   1.851 -0.2662 -1.4621 -0.2568
12496TIP3    H258904   1.872   2.204   1.997  0.4352 -0.9095 -0.1644
12497TIP3   OH258905   2.035   1.408  10.920 -0.7188 -0.8860 -0.4270
12497TIP3    H158906   2.059   1.344  10.854 -0.5155 -2.1167  0.7950
12497TIP3    H258907   1.988   1.476  10.872 -0.5486 -1.7266 -1.8203
12498TIP3   OH258908   5.663   0.259  11.791  0.3008  0.5636  0.0545
12498TIP3    H158909   5.704   0.334  11.749 -1.4988  0.9745 -1.0737
12498TIP3    H258910   5.570   0.278  11.788 -0.1386 -1.3192  0.5511
12499TIP3   OH258911   4.184   3.093   2.886  0.4562 -0.0039 -0.3717
12499TIP3    H158912   4.105   3.062   2.843 -0.5207  0.2256  1.1775
12499TIP3    H258913   4.224   3.153   2.823 -1.9500  1.8386 -0.2845
12500TIP3   OH258914   1.059   5.750   1.284  0.0543  0.3321 -0.0859
12500TIP3    H158915   1.129   5.684   1.285  0.4379  0.7294 -0.4881
12500TIP3    H258916   1.103   5.831   1.259 -0.8182  0.2499 -2.0812
12501TIP3   OH258917   0.945   3.995   4.184 -0.1230  0.1807  0.4036
12501TIP3    H158918   1.039   3.983   4.168 -0.2361  1.3069 -1.3967
12501TIP3    H258919   0.917   3.912   4.223  1.2404 -0.9716 -0.9223
12502TIP3   OH258920   4.550   6.733   5.914 -0.1687  0.2585  0.0347
12502TIP3    H158921   4.601   6.707   5.991 -1.2785 -1.0428  0.3805
12502TIP3    H258922   4.526   6.650   5.873 -0.1864  0.9194 -1.3343
12503TIP3   OH258923   0.219   0.607   2.396  0.3693 -0.6952  0.3321
12503TIP3    H158924   0.290   0.562   2.441  1.5991  1.5760  0.8100
12503TIP3    H258925   0.197   0.680   2.454 -2.0745 -1.0642 -0.0362
12504TIP3   OH258926   6.718   3.981  12.896  0.2750  0.2458  0.5120
12504TIP3    H158927   6.667   3.915  12.945  0.6340 -0.4059  0.0283
12504TIP3    H258928   6.652   4.035  12.853 -0.1026 -1.9597 -1.9461
12505TIP3   OH258929   1.828   6.266   5.855  0.3550  0.3563 -0.1485
12505TIP3    H158930   1.767   6.197   5.828 -1.4946  1.3957  1.1246
12505TIP3    H258931   1.774   6.326   5.908  2.1496  2.1594 -0.2439
12506TIP3   OH258932   1.290   6.095   3.844  0.4255 -0.4989 -0.3316
12506TIP3    H158933   1.251   6.173   3.804  1.1692 -0.5639 -1.1965
12506TIP3    H258934   1.215   6.036   3.858 -0.1523  0.3732  0.3895
12507TIP3   OH258935   1.225   5.544   5.859  0.0707 -0.3405 -0.7250
12507TIP3    H158936   1.314   5.510   5.852  0.2415 -0.0596 -0.0133
12507TIP3    H258937   1.234   5.638   5.844  0.2185  0.0236  1.3824
12508TIP3   OH258938   1.409   2.830   2.804 -0.6500 -0.1315  0.5710
12508TIP3    H158939   1.325   2.869   2.780 -0.2088  0.7485  0.4016
12508TIP3    H258940   1.473   2.875   2.748 -0.2351 -1.9885 -0.5591
12509TIP3   OH258941   6.647   1.727  14.454 -0.4942 -0.1500 -0.2520
12509TIP3    H158942   6.718   1.678  14.495  0.7665 -0.9297 -3.1003
12509TIP3    H258943   6.586   1.746  14.526  1.5042 -1.3456  1.9016
12510TIP3   OH258944   3.038   2.403   2.439  0.2948  0.0970  0.0949
12510TIP3    H158945   3.005   2.487   2.468  1.4745  0.5168  0.2971
12510TIP3    H258946   2.961   2.356   2.407 -0.2062  1.8218 -1.4470
12511TIP3   OH258947   2.068   3.237  16.187  0.0943 -0.0142 -0.1683
12511TIP3    H158948   2.095   3.315  16.138 -0.8680  1.0563  0.9273
12511TIP3    H258949   2.106   3.164  16.139  2.0543  1.1901 -0.5468
12512TIP3   OH258950   5.385   0.292  11.755 -0.4943  0.2166  0.4969
12512TIP3    H158951   5.309   0.235  11.754 -0.5351  0.2653 -1.1947
12512TIP3    H258952   5.394   0.322  11.665  0.0604  2.1732  1.1457
12513TIP3   OH258953   3.204   2.534   0.212  0.0137  0.4418 -0.1694
12513TIP3    H158954   3.110   2.518   0.223 -0.1387  1.8060  0.7434
12513TIP3    H258955   3.244   2.500   0.293  0.2772  0.1261 -0.4294
12514TIP3   OH258956   6.207   4.120  15.764 -0.1066  1.0233  0.5580
12514TIP3    H158957   6.155   4.081  15.694  1.4282 -0.2456  0.0615
12514TIP3    H258958   6.297   4.105  15.738  0.5332  0.0858  2.9976
12515TIP3   OH258959   2.854   0.367  14.785 -0.0776  0.5259 -0.2957
12515TIP3    H158960   2.893   0.286  14.819 -2.6150 -0.1557  1.2587
12515TIP3    H258961   2.787   0.337  14.724  1.7038  1.6650 -3.0056
12516TIP3   OH258962   3.900   4.236  13.208  0.5851  0.1970 -0.1201
12516TIP3    H158963   3.935   4.319  13.240  0.2932  0.9106 -1.5571
12516TIP3    H258964   3.976   4.177  13.204  0.7069  0.2040  1.3816
12517TIP3   OH258965   1.499   6.316   3.377  0.0442  0.4948 -0.6218
12517TIP3    H158966   1.446   6.288   3.451 -0.5441  1.5617 -0.6268
12517TIP3    H258967   1.583   6.271   3.389 -0.7846 -1.1072 -0.5370
12518TIP3   OH258968   5.152   6.503   1.255 -0.1679 -0.2420  0.2067
12518TIP3    H158969   5.168   6.414   1.288  0.8880 -0.2481 -0.2678
12518TIP3    H258970   5.187   6.502   1.166  1.2897  1.0626  0.7094
12519TIP3   OH258971   5.100   0.810  12.289  0.2291  0.2272  0.1210
12519TIP3    H158972   5.051   0.734  12.257  0.5017  0.4913 -0.9532
12519TIP3    H258973   5.044   0.885  12.270  0.1508  0.3511  0.7915
12520TIP3   OH258974   4.214   5.547  13.744 -0.0104  0.1969 -0.0798
12520TIP3    H158975   4.159   5.625  13.741  1.2427  1.1767  1.1770
12520TIP3    H258976   4.236   5.536  13.837  0.3788 -1.2669 -0.3193
12521TIP3   OH258977   5.762   2.440  12.374 -0.2333 -0.2604 -0.2261
12521TIP3    H158978   5.712   2.509  12.331  0.2870  0.1903 -0.1169
12521TIP3    H258979   5.845   2.481  12.397  0.5297 -1.2335 -1.1746
12522TIP3   OH258980   5.244   4.024   0.251  0.6476  0.3159 -0.6287
12522TIP3    H158981   5.239   4.119   0.258 -1.5087  0.4847 -3.0541
12522TIP3    H258982   5.158   3.998   0.218  0.9706 -2.5734  0.4829
12523TIP3   OH258983   4.896   0.621   4.024 -0.0461  0.6182 -0.0889
12523TIP3    H158984   4.934   0.663   4.101  1.8965 -0.2104 -0.5332
12523TIP3    H258985   4.888   0.691   3.959 -0.0949  0.9767  0.3054
12524TIP3   OH258986   5.070   1.605  15.592 -0.0584 -0.2507  0.3554
12524TIP3    H158987   5.006   1.575  15.657  0.8887 -3.4127 -0.0045
12524TIP3    H258988   5.082   1.530  15.534  0.9068  1.6601 -2.1060
12525TIP3   OH258989   6.644   3.137  16.370  0.0193  0.0521 -0.5039
12525TIP3    H158990   6.596   3.133  16.453  0.4538 -2.0424 -0.2951
12525TIP3    H258991   6.735   3.156  16.396 -0.0908  0.8065 -0.6408
12526TIP3   OH258992   2.938   2.051   3.811  0.0383 -0.1970 -0.4703
12526TIP3    H158993   2.866   1.999   3.848 -0.1432  1.4604  1.6590
12526TIP3    H258994   2.995   2.069   3.885  0.3886  2.1223 -1.2494
12527TIP3   OH258995   1.574   6.736   3.773 -0.3975  0.3931 -0.0605
12527TIP3    H158996   1.666   6.732   3.747 -0.4140 -1.2428  0.0282
12527TIP3    H258997   1.573   6.797   3.847  0.5223  0.8197 -0.3824
12528TIP3   OH258998   1.815   0.869   5.787  0.3861 -0.2825  0.2658
12528TIP3    H158999   1.834   0.842   5.697  1.3644 -0.8140  0.6094
12528TIP3    H259000   1.899   0.900   5.821 -0.3187  1.4890  0.4911
12529TIP3   OH259001   2.181   2.242   1.282 -0.0943 -0.0170 -0.2390
12529TIP3    H159002   2.183   2.174   1.214 -0.0663  1.2260 -1.5130
12529TIP3    H259003   2.089   2.267   1.288 -0.1835 -0.5208  0.6101
12530TIP3   OH259004   4.206   0.791  12.370 -0.0575  0.6868 -0.4319
12530TIP3    H159005   4.263   0.830  12.436  0.4814  1.1179 -1.1319
12530TIP3    H259006   4.240   0.824  12.287 -0.2007 -0.4946 -0.9904
12531TIP3   OH259007   4.569   2.746   3.291  0.1995  0.6799  0.1612
12531TIP3    H159008   4.503   2.682   3.318  0.7703 -0.4122 -0.9484
12531TIP3    H259009   4.527   2.831   3.306 -1.2086  0.0189  0.1081
12532TIP3   OH259010   4.033   1.079  13.070  0.2924 -0.4462 -0.2456
12532TIP3    H159011   4.120   1.041  13.063  0.0373 -0.9159 -0.9276
12532TIP3    H259012   4.046   1.159  13.121  1.0985 -0.5645 -0.2517
12533TIP3   OH259013   0.986   3.274   5.498  0.1934  0.1408  0.7318
12533TIP3    H159014   0.934   3.328   5.558  0.1775  0.3172  0.5617
12533TIP3    H259015   1.056   3.332   5.469 -0.6269  0.5289 -0.5524
12534TIP3   OH259016   2.922   2.917   5.373  0.7605  1.0548  0.0995
12534TIP3    H159017   2.830   2.894   5.358  0.1695  2.2317  1.5779
12534TIP3    H259018   2.950   2.959   5.292  0.9558 -1.9217 -1.4923
12535TIP3   OH259019   2.418   0.116   3.604  0.0406 -0.0944  0.5245
12535TIP3    H159020   2.327   0.087   3.603 -0.2532  0.8285  0.2001
12535TIP3    H259021   2.432   0.154   3.518  0.8396 -0.5319  0.4541
12536TIP3   OH259022   1.476   4.679  13.836 -0.7034  0.0987 -0.4582
12536TIP3    H159023   1.408   4.693  13.770  1.1853 -1.1176 -2.8368
12536TIP3    H259024   1.520   4.598  13.809  3.2764  2.0480 -0.6468
12537TIP3   OH259025   0.614   1.300   3.534  0.1976  0.1142  0.3263
12537TIP3    H159026   0.660   1.247   3.599 -0.9300 -2.0904 -0.5830
12537TIP3    H259027   0.609   1.387   3.574  2.3566 -0.3303  1.7680
12538TIP3   OH259028   0.731   3.595  12.352 -0.4919  0.4566  0.5826
12538TIP3    H159029   0.660   3.619  12.292 -1.5710  0.0860  1.6784
12538TIP3    H259030   0.707   3.635  12.435 -0.0643 -0.7263  1.2982
12539TIP3   OH259031   2.818   5.148  17.483  0.3553  0.5186  0.2532
12539TIP3    H159032   2.834   5.063  17.442 -0.0530  0.2119  0.7174
12539TIP3    H259033   2.847   5.211  17.418 -0.3769  0.0414 -0.5575
12540TIP3   OH259034   4.694   6.099  13.538  0.5088 -0.3665 -0.3768
12540TIP3    H159035   4.625   6.102  13.604  0.8903  0.7944 -0.0031
12540TIP3    H259036   4.657   6.142  13.461  0.2635 -1.2044 -0.7374
12541TIP3   OH259037   3.235   1.883  16.770  0.8350  0.0895  0.0202
12541TIP3    H159038   3.230   1.974  16.799 -1.7314  0.0295 -0.0637
12541TIP3    H259039   3.280   1.838  16.841  1.5775  1.2964  0.3455
12542TIP3   OH259040   3.833   2.974  13.255  0.1148  0.0115 -0.0437
12542TIP3    H159041   3.895   2.998  13.185 -0.8843 -0.1908 -1.0234
12542TIP3    H259042   3.794   2.892  13.225  0.7668 -0.9038  1.4961
12543TIP3   OH259043   3.098   6.182   6.669  0.3140  0.1790  0.2893
12543TIP3    H159044   3.151   6.120   6.719  0.0137  0.3732  0.8679
12543TIP3    H259045   3.008   6.154   6.684  0.0717  1.5895  1.7738
12544TIP3   OH259046   4.389   6.656  16.299 -0.2985 -0.2746 -0.1944
12544TIP3    H159047   4.322   6.615  16.244 -0.5465  0.2994 -0.3253
12544TIP3    H259048   4.415   6.587  16.360 -1.2881 -0.3969  0.1059
12545TIP3   OH259049   1.179   1.245  15.991 -0.5917 -0.4406  0.9984
12545TIP3    H159050   1.260   1.293  16.008 -0.3176  0.4674 -2.2244
12545TIP3    H259051   1.111   1.297  16.033  0.3829 -1.0397  3.4560
12546TIP3   OH259052   0.033   1.658   5.303  0.0939 -0.4080  0.0259
12546TIP3    H159053   0.090   1.637   5.229 -1.3521 -0.3191 -1.1636
12546TIP3    H259054  -0.054   1.631   5.274 -0.3598 -1.4426  2.1538
12547TIP3   OH259055   3.428   6.628  12.033  0.1807 -0.6088  0.1787
12547TIP3    H159056   3.456   6.553  12.086  1.4674  0.7747  1.5681
12547TIP3    H259057   3.369   6.677  12.091 -0.5425 -0.4392 -0.6689
12548TIP3   OH259058   4.275   1.609  16.830  0.4962  0.7155  0.7118
12548TIP3    H159059   4.284   1.593  16.736  0.4972  0.1715  0.8003
12548TIP3    H259060   4.213   1.681  16.836  1.7419  1.8736  0.2422
12549TIP3   OH259061   0.161   5.887  12.456 -0.2379 -0.3193  0.0992
12549TIP3    H159062   0.205   5.891  12.371  0.1268 -3.5206 -0.0015
12549TIP3    H259063   0.080   5.938  12.444  0.1517 -0.0986 -1.9252
12550TIP3   OH259064   1.732   0.984  13.877  0.2100 -0.7807 -0.2797
12550TIP3    H159065   1.694   0.978  13.790 -0.2012  0.1280 -0.1780
12550TIP3    H259066   1.827   0.984  13.862  0.1594  1.2180 -0.9093
12551TIP3   OH259067   3.149   5.562   4.515 -0.3804  0.3246 -0.1925
12551TIP3    H159068   3.229   5.574   4.463  0.2594  1.1346  0.9357
12551TIP3    H259069   3.078   5.587   4.455  0.2665  0.4770 -0.9216
12552TIP3   OH259070   6.037   1.300   5.274 -0.0587 -0.0937 -0.2129
12552TIP3    H159071   6.122   1.279   5.314  1.8700  1.8856 -2.9242
12552TIP3    H259072   6.023   1.230   5.210  1.4376  1.4435 -2.3172
12553TIP3   OH259073   1.176   0.948   5.444 -0.3788  0.4324 -0.4178
12553TIP3    H159074   1.199   1.000   5.367 -0.4399  1.0060 -0.0635
12553TIP3    H259075   1.134   1.011   5.503  0.4931  0.2215  0.4624
12554TIP3   OH259076   2.671   1.374  16.038  0.0151  0.3199 -0.8110
12554TIP3    H159077   2.747   1.349  16.090 -0.5613 -0.1739 -0.1753
12554TIP3    H259078   2.665   1.307  15.970 -1.4082 -1.2792  0.7686
12555TIP3   OH259079   4.898   4.290  17.449  0.6060 -0.2095  0.3341
12555TIP3    H159080   4.886   4.369  17.395 -0.1214  1.0670  2.2554
12555TIP3    H259081   4.818   4.284  17.501  1.9815 -0.2837  2.5869
12556TIP3   OH259082   0.260   4.464   1.451 -0.0631  0.7635  0.1400
12556TIP3    H159083   0.209   4.421   1.382 -0.5725  0.3186  0.7890
12556TIP3    H259084   0.351   4.457   1.421 -0.1766 -0.3541  0.0102
12557TIP3   OH259085   1.076   2.437   4.152  0.3727  0.6031  0.4005
12557TIP3    H159086   1.169   2.460   4.143  0.3932  0.7243  0.9286
12557TIP3    H259087   1.060   2.375   4.080  0.8450  0.6306  0.2684
12558TIP3   OH259088   5.617   6.740  13.199  0.3856  0.0660  0.6666
12558TIP3    H159089   5.561   6.697  13.264 -0.4717 -2.6772 -1.6924
12558TIP3    H259090   5.706   6.722  13.229  0.0135 -0.7908  1.3114
12559TIP3   OH259091   6.015   4.413   0.291  0.5203 -0.4617 -0.3955
12559TIP3    H159092   6.022   4.508   0.303 -0.4976 -0.2439 -1.4146
12559TIP3    H259093   6.007   4.402   0.197 -2.7734 -1.2934 -0.1302
12560TIP3   OH259094   2.504   4.549   4.935  0.2609 -0.2356  0.5167
12560TIP3    H159095   2.416   4.524   4.961  0.6501 -2.3456 -0.0422
12560TIP3    H259096   2.562   4.488   4.980  1.3413  0.1572 -0.2775
12561TIP3   OH259097   1.586   0.768  14.680  0.0705  0.9849 -0.2497
12561TIP3    H159098   1.555   0.679  14.696 -0.4748  1.7472  4.4560
12561TIP3    H259099   1.510   0.814  14.646  0.2595 -0.1486 -2.4000
12562TIP3   OH259100   1.756   3.718   3.526 -0.2483  0.2604  0.3101
12562TIP3    H159101   1.846   3.697   3.503 -0.1356  0.9263  0.1387
12562TIP3    H259102   1.761   3.805   3.566 -0.7584  0.1214  0.6856
12563TIP3   OH259103   0.926   4.671  11.755  0.1929  0.1620 -0.2672
12563TIP3    H159104   1.000   4.685  11.814  0.2474 -0.2971 -0.2267
12563TIP3    H259105   0.960   4.612  11.687 -0.4067 -0.8584  0.2917
12564TIP3   OH259106   5.553   2.274  13.927  0.5263  0.3761  0.8197
12564TIP3    H159107   5.593   2.261  13.841  0.1446 -0.1502  0.7141
12564TIP3    H259108   5.569   2.192  13.973 -0.4371  0.1470  0.7660
12565TIP3   OH259109   5.394   5.462   4.124  0.4192  0.1134  0.0420
12565TIP3    H159110   5.318   5.430   4.077  0.7345 -1.4964  0.5470
12565TIP3    H259111   5.359   5.521   4.191 -0.1486  1.2192 -1.1912
12566TIP3   OH259112   1.020   5.648  12.705 -0.1529 -0.0687  0.3717
12566TIP3    H159113   0.950   5.606  12.754 -0.8002  0.5037 -0.0459
12566TIP3    H259114   1.055   5.714  12.765  0.6015 -0.9187  0.8832
12567TIP3   OH259115   5.336   2.516   2.884  0.0590  0.1861 -0.1792
12567TIP3    H159116   5.342   2.560   2.968  0.9040 -0.6688  0.2150
12567TIP3    H259117   5.242   2.512   2.866 -0.0718  1.3072  0.2124
12568TIP3   OH259118   6.068   5.974   4.097  0.1145  0.2707 -0.2751
12568TIP3    H159119   6.007   5.962   4.169  1.9699  0.0813  1.3466
12568TIP3    H259120   6.086   5.885   4.066  0.9367  0.1583  0.4810
12569TIP3   OH259121   5.977   2.731  14.105  0.6993  0.4391  0.5820
12569TIP3    H159122   6.019   2.736  14.191  0.7216 -0.1677  0.6088
12569TIP3    H259123   5.957   2.822  14.083  1.1738  0.6497  0.9925
12570TIP3   OH259124   6.160   0.081   3.149  0.2323  0.1957  0.1426
12570TIP3    H159125   6.160   0.119   3.236  2.0509  0.5311  0.0289
12570TIP3    H259126   6.170  -0.013   3.163  0.8183  0.2810  0.2833
12571TIP3   OH259127   3.167   4.491  15.482  0.3943 -0.1032 -0.3661
12571TIP3    H159128   3.145   4.519  15.393  0.1216  0.2804 -0.1804
12571TIP3    H259129   3.240   4.429  15.471 -1.8109 -2.7742 -1.1716
12572TIP3   OH259130   1.296   5.513   1.970  0.2853 -0.1657 -0.5181
12572TIP3    H159131   1.317   5.606   1.959 -0.2063 -0.1211 -1.1210
12572TIP3    H259132   1.381   5.472   1.988  0.1878  0.7606  2.5440
12573TIP3   OH259133   2.245   2.281  15.836 -0.3610 -0.0987 -0.4576
12573TIP3    H159134   2.239   2.369  15.800  0.5036 -1.0200 -3.0870
12573TIP3    H259135   2.308   2.237  15.780 -0.0603 -2.1322  1.3781
12574TIP3   OH259136   4.575   3.620   1.055 -0.1452 -0.3349 -0.6053
12574TIP3    H159137   4.575   3.550   0.990 -0.1445 -0.9591  0.0573
12574TIP3    H259138   4.483   3.634   1.076 -0.0703 -1.2617  0.4364
12575TIP3   OH259139   4.339   5.922   3.632  0.7222  0.7840  0.6625
12575TIP3    H159140   4.420   5.918   3.580 -0.9115  1.6245 -2.1665
12575TIP3    H259141   4.363   5.883   3.716  3.8318  0.2219 -0.3386
12576TIP3   OH259142   4.474   0.318   5.085  0.1644  0.3859 -0.1512
12576TIP3    H159143   4.383   0.346   5.086  0.3727  1.2797  2.5185
12576TIP3    H259144   4.471   0.227   5.055 -1.3224  0.9855 -2.0383
12577TIP3   OH259145   4.838   0.968   0.967 -0.3880 -0.1084 -0.1176
12577TIP3    H159146   4.868   1.050   1.007 -0.3402 -1.4857  2.9481
12577TIP3    H259147   4.787   0.996   0.891 -1.9215  2.9316  1.8085
12578TIP3   OH259148   2.639   2.110  14.256 -1.1584 -0.2306 -0.0995
12578TIP3    H159149   2.579   2.185  14.257 -0.1660  0.6003 -0.6252
12578TIP3    H259150   2.582   2.034  14.268 -2.3645  0.4987 -0.9033
12579TIP3   OH259151   5.589   2.465   5.427 -0.7379  0.0313 -0.0863
12579TIP3    H159152   5.565   2.401   5.494  2.0639 -1.5979 -0.4540
12579TIP3    H259153   5.587   2.415   5.345  0.6101  0.6165 -0.5062
12580TIP3   OH259154   2.718   3.429   5.987  0.2688  0.5007  0.5545
12580TIP3    H159155   2.656   3.369   5.946  0.5598  1.5306 -1.4810
12580TIP3    H259156   2.663   3.487   6.040 -0.2103 -0.2282  0.8809
12581TIP3   OH259157   3.040   1.470   4.876 -0.6214  0.2550 -0.2056
12581TIP3    H159158   2.963   1.446   4.825 -0.6573  0.8596 -0.4413
12581TIP3    H259159   3.005   1.499   4.960 -0.6821  0.9250 -0.4595
12582TIP3   OH259160   3.004   6.660  12.193  0.1069  0.1593  0.2839
12582TIP3    H159161   3.041   6.703  12.117  0.3149 -1.0516 -0.3126
12582TIP3    H259162   2.986   6.570  12.165 -0.0385 -0.2465  1.5816
12583TIP3   OH259163   1.588   4.651   1.688 -0.2970 -0.2245 -0.7922
12583TIP3    H159164   1.540   4.663   1.769  0.1701 -0.5015 -0.4677
12583TIP3    H259165   1.586   4.557   1.672  1.5810 -0.4824  0.1541
12584TIP3   OH259166   6.323   3.362   6.739 -0.1314 -0.4550  0.4027
12584TIP3    H159167   6.414   3.375   6.765 -0.3400  0.4571  0.7105
12584TIP3    H259168   6.285   3.450   6.738 -0.7149 -0.6919 -0.8258
12585TIP3   OH259169   1.456   3.639   5.579 -0.1590  0.0746  0.0721
12585TIP3    H159170   1.493   3.710   5.527 -0.3775 -0.4920 -0.8771
12585TIP3    H259171   1.368   3.669   5.600  0.6416  1.2745  2.0432
12586TIP3   OH259172   1.751   5.479  14.545 -0.3063  0.5658  0.4735
12586TIP3    H159173   1.794   5.554  14.503  0.3907  0.1924  0.4933
12586TIP3    H259174   1.662   5.509  14.562 -0.2282  1.1656 -0.1075
12587TIP3   OH259175   6.058   4.682   5.049 -0.2852  0.6014  0.0170
12587TIP3    H159176   6.133   4.741   5.057 -2.3082  3.2323  0.9720
12587TIP3    H259177   6.045   4.672   4.955  1.5421 -0.3967 -0.1777
12588TIP3   OH259178   3.644   3.152  13.305 -0.2472 -0.7258  0.0829
12588TIP3    H159179   3.653   3.223  13.242 -2.1947 -2.6919 -2.6133
12588TIP3    H259180   3.725   3.103  13.298 -0.6098 -1.1716 -1.3083
12589TIP3   OH259181   2.968   0.112   4.287  0.3679  0.2411  0.2860
12589TIP3    H159182   2.894   0.146   4.237 -0.5851  2.4524  2.9824
12589TIP3    H259183   2.929   0.050   4.348  1.1184 -0.3296  0.2035
12590TIP3   OH259184   1.478   1.942   2.430 -0.0897 -0.3382 -0.1636
12590TIP3    H159185   1.551   1.928   2.371 -0.1730 -0.7872 -0.1593
12590TIP3    H259186   1.481   2.036   2.450 -1.8584  0.5593 -3.2937
12591TIP3   OH259187   1.633   1.521  15.111  0.8517  0.2233 -0.2161
12591TIP3    H159188   1.639   1.559  15.199  1.4302 -0.5334  0.0846
12591TIP3    H259189   1.715   1.472  15.100  0.3028 -0.6080 -0.7321
12592TIP3   OH259190   4.377   3.412  17.254  0.2770  0.0085  0.0451
12592TIP3    H159191   4.334   3.494  17.228  0.5673 -0.1741 -1.0793
12592TIP3    H259192   4.445   3.439  17.315 -0.2528  0.4944  0.4370
12593TIP3   OH259193   2.363   5.321   2.978 -0.0273  0.1728 -0.1559
12593TIP3    H159194   2.277   5.317   2.936 -0.7969  0.1638  1.3445
12593TIP3    H259195   2.347   5.289   3.067  1.9278 -1.6630 -0.4098
12594TIP3   OH259196   3.382   1.004   0.824  0.6425 -0.3794  0.4228
12594TIP3    H159197   3.327   0.943   0.775 -0.5531  0.8734  0.1528
12594TIP3    H259198   3.359   0.989   0.915  0.0404 -0.0492  0.3292
12595TIP3   OH259199   5.471   1.205   1.933  0.2699 -0.3910 -0.1942
12595TIP3    H159200   5.532   1.132   1.943  0.0310 -0.3876  1.7418
12595TIP3    H259201   5.396   1.167   1.886  1.4192 -0.5521 -2.0036
12596TIP3   OH259202   2.148   4.106  13.144 -0.2833 -0.5169  0.0627
12596TIP3    H159203   2.095   4.065  13.076 -1.8696 -2.0815  2.1143
12596TIP3    H259204   2.156   4.197  13.115  1.1111 -1.5606 -3.3166
12597TIP3   OH259205   5.347   0.098   4.426 -0.6283  0.3776 -0.1762
12597TIP3    H159206   5.274   0.153   4.455  0.7027  3.2410 -1.8671
12597TIP3    H259207   5.425   0.152   4.440  1.0337 -1.9428  0.0322
12598TIP3   OH259208   6.191   6.089   0.173  0.0410 -0.2700  0.5244
12598TIP3    H159209   6.149   6.075   0.088 -0.2648 -3.4523  1.0777
12598TIP3    H259210   6.124   6.130   0.226 -0.0138  1.0569 -0.5270
12599TIP3   OH259211   2.146   0.736  16.144  0.1197  0.5136  0.1132
12599TIP3    H159212   2.075   0.677  16.119 -0.5911  0.5934  1.8158
12599TIP3    H259213   2.195   0.750  16.063  0.7482 -2.9415 -0.2613
12600TIP3   OH259214   4.555   0.372   0.309  0.2444  0.2212  0.0681
12600TIP3    H159215   4.649   0.378   0.294  0.3579  0.3027  0.7706
12600TIP3    H259216   4.547   0.318   0.388 -0.2997  0.1580 -0.0248
12601TIP3   OH259217   5.719   4.287   2.331 -0.5243 -0.1032  0.0717
12601TIP3    H159218   5.639   4.302   2.381  0.3248  0.8259  1.2200
12601TIP3    H259219   5.773   4.232   2.388  0.4960  1.0436  0.2571
12602TIP3   OH259220   3.740   0.432   3.883 -0.1244  0.4846  0.0799
12602TIP3    H159221   3.738   0.509   3.827 -1.5110  0.2416 -0.2405
12602TIP3    H259222   3.829   0.398   3.875  0.1109  1.2896 -0.8116
12603TIP3   OH259223   1.968   1.677  15.578 -0.4261 -0.0331 -1.2870
12603TIP3    H159224   2.006   1.734  15.645 -0.5320  1.0100 -2.0713
12603TIP3    H259225   1.984   1.588  15.609 -0.3159  0.4209  0.0235
12604TIP3   OH259226   5.197   0.764  12.916 -0.1155 -0.2800 -0.4418
12604TIP3    H159227   5.198   0.854  12.885  0.0099  0.0568  0.4967
12604TIP3    H259228   5.136   0.719  12.858  1.5917 -0.1593 -2.4452
12605TIP3   OH259229   1.819   0.667  14.799  0.3119 -0.1976  0.0494
12605TIP3    H159230   1.741   0.707  14.760  1.4126  0.3029 -1.7864
12605TIP3    H259231   1.885   0.737  14.798  0.7397 -0.5475  1.7514
12606TIP3   OH259232   3.338   5.916   1.520 -0.2550 -0.5924 -0.1784
12606TIP3    H159233   3.322   6.000   1.477 -1.6806 -0.6931  0.0849
12606TIP3    H259234   3.310   5.851   1.455 -2.5508 -0.7426  0.8528
12607TIP3   OH259235   5.621   3.032   2.429  0.2047 -0.0354  0.0616
12607TIP3    H159236   5.576   2.983   2.360  1.4363 -2.8007  1.0789
12607TIP3    H259237   5.571   3.015   2.508  1.8962 -1.7106  0.8703
12608TIP3   OH259238   6.323   5.359  13.264  0.3517 -0.0462  0.0116
12608TIP3    H159239   6.299   5.396  13.349  0.9338  0.3533  0.0044
12608TIP3    H259240   6.399   5.303  13.283 -0.0929 -0.6951 -0.0938
12609TIP3   OH259241   3.179   2.885   2.732  0.2199  0.5843  0.2506
12609TIP3    H159242   3.093   2.867   2.693  0.2834 -0.3892  0.5445
12609TIP3    H259243   3.219   2.799   2.742  1.6049  1.0788 -0.7038
12610TIP3   OH259244   1.178   0.795  15.686 -0.2547  0.3627 -0.0417
12610TIP3    H159245   1.260   0.843  15.673 -0.7624  0.8058 -1.8327
12610TIP3    H259246   1.142   0.830  15.768 -0.9471  3.5951 -1.5937
12611TIP3   OH259247   5.547   5.946   5.083 -0.0253 -0.2719 -0.9391
12611TIP3    H159248   5.563   5.911   4.995  0.4088  0.1491 -1.0291
12611TIP3    H259249   5.632   5.945   5.125 -0.3736 -1.2356 -0.2334
12612TIP3   OH259250   0.383   2.968   0.921  0.3902 -0.4300  0.0062
12612TIP3    H159251   0.344   2.888   0.885  0.5736 -0.3865 -0.2887
12612TIP3    H259252   0.463   2.981   0.870 -0.7854  1.2267 -1.5411
12613TIP3   OH259253   2.378   3.158  14.424  0.5093 -0.4773  0.5597
12613TIP3    H159254   2.314   3.089  14.408  0.7666 -0.6871  0.4223
12613TIP3    H259255   2.339   3.236  14.385 -0.0010 -0.4387  1.1459
12614TIP3   OH259256   2.766   2.972  16.951  0.3026 -0.4246  0.0755
12614TIP3    H159257   2.734   2.949  17.039 -0.0446  0.0329  0.0722
12614TIP3    H259258   2.686   2.985  16.899  0.5005 -0.0434 -0.1364
12615TIP3   OH259259   2.685   6.701  13.188 -0.1561  0.2766  0.8195
12615TIP3    H159260   2.637   6.622  13.211 -0.0729  0.2698  0.9696
12615TIP3    H259261   2.747   6.714  13.260 -0.7370  0.9447  1.2210
12616TIP3   OH259262   5.384   6.582  13.008 -0.1210 -0.0990  0.2247
12616TIP3    H159263   5.379   6.676  13.022  0.0167  0.0746 -0.7855
12616TIP3    H259264   5.331   6.544  13.078  1.2484  0.6135  1.7143
12617TIP3   OH259265   4.794   1.082  16.752 -0.4091  0.3353  0.5104
12617TIP3    H159266   4.852   1.116  16.683  0.7219  1.2733  1.8687
12617TIP3    H259267   4.706   1.102  16.720  0.0401 -0.0824 -1.0748
12618TIP3   OH259268   0.420   2.896  15.915  0.2790  0.1846  0.3059
12618TIP3    H159269   0.420   2.952  15.837  0.3709 -1.9547 -1.3220
12618TIP3    H259270   0.347   2.927  15.967  1.4647  3.0395  0.4604
12619TIP3   OH259271   4.241   2.607  12.187  0.0734  0.0245  0.5055
12619TIP3    H159272   4.223   2.513  12.187  1.5500 -0.2758  0.7699
12619TIP3    H259273   4.226   2.634  12.096  0.8730 -0.7173  0.1438
12620TIP3   OH259274   3.713   1.341   4.156 -0.1168 -0.1816 -0.2566
12620TIP3    H159275   3.721   1.249   4.179  3.3416  0.6312  2.6498
12620TIP3    H259276   3.648   1.376   4.218  1.2796 -0.0803  1.2331
12621TIP3   OH259277   3.061   0.928   5.044  0.2263 -0.1570  0.2235
12621TIP3    H159278   3.024   0.905   5.129  2.0070  1.4210  1.4951
12621TIP3    H259279   3.142   0.877   5.039  0.4782  0.2882 -0.2264
12622TIP3   OH259280   4.164   3.164  16.437  0.3065  0.0662 -0.0805
12622TIP3    H159281   4.116   3.094  16.392 -0.9367  1.3566 -0.8771
12622TIP3    H259282   4.252   3.129  16.450 -0.2401 -1.5779 -0.5806
12623TIP3   OH259283   5.293   1.650  15.048 -0.0808  0.3241  0.3281
12623TIP3    H159284   5.273   1.564  15.012 -1.3270  0.6258  0.2752
12623TIP3    H259285   5.236   1.659  15.124 -0.3362  1.2926  0.0382
12624TIP3   OH259286   6.130   3.535  16.188 -0.2684 -0.2227  0.0196
12624TIP3    H159287   6.137   3.513  16.281 -1.6454 -0.6775  0.0463
12624TIP3    H259288   6.038   3.558  16.176 -0.4307 -1.4926 -1.4997
12625TIP3   OH259289   0.471   3.519   0.543  0.9772  0.6856 -0.0329
12625TIP3    H159290   0.432   3.597   0.583  0.4199  1.6144 -2.2880
12625TIP3    H259291   0.441   3.520   0.453  1.8692 -1.5663 -0.4197
12626TIP3   OH259292   2.675   0.275   4.240  0.6126  0.2374  0.0125
12626TIP3    H159293   2.618   0.206   4.273  1.5796 -0.3680  0.4560
12626TIP3    H259294   2.698   0.326   4.318  3.3337 -1.5114  0.4817
12627TIP3   OH259295   2.088   4.650   3.196 -0.0427 -0.9077  0.2014
12627TIP3    H159296   2.125   4.722   3.145 -0.4930 -0.1726  0.8923
12627TIP3    H259297   2.164   4.599   3.224  0.1670 -2.0795 -2.2380
12628TIP3   OH259298   1.637   0.993   1.792 -0.6054 -0.0604  0.1458
12628TIP3    H159299   1.579   1.047   1.738 -1.0448 -0.8727 -0.2122
12628TIP3    H259300   1.705   0.962   1.732 -0.1607  0.3480  0.4227
12629TIP3   OH259301   2.345   5.744  14.666 -0.3179 -0.4630 -0.7540
12629TIP3    H159302   2.321   5.795  14.743  1.5298 -0.3746 -0.1791
12629TIP3    H259303   2.268   5.690  14.648 -0.7670 -0.5740  1.2232
12630TIP3   OH259304   5.352   1.633  13.610 -0.4021 -1.0448  0.3332
12630TIP3    H159305   5.395   1.709  13.570  0.1789 -1.4017  0.2603
12630TIP3    H259306   5.279   1.613  13.552 -0.3308 -0.7705  0.1472
12631TIP3   OH259307   6.719   0.956   2.239  0.2145  0.3341 -0.0118
12631TIP3    H159308   6.661   1.032   2.240 -0.1157  0.0747  1.0182
12631TIP3    H259309   6.793   0.981   2.294  0.1723 -0.0414  0.2201
12632TIP3   OH259310   5.793   2.274  15.541 -0.0299  0.1620 -0.3900
12632TIP3    H159311   5.780   2.356  15.493 -2.9668  0.2363  0.3570
12632TIP3    H259312   5.827   2.302  15.626  0.9905  0.3788 -0.8470
12633TIP3   OH259313   6.106   0.876  17.318  0.3925 -0.3864 -0.2356
12633TIP3    H159314   6.072   0.926  17.244 -0.0338  0.3069  0.4189
12633TIP3    H259315   6.031   0.824  17.348  1.0369 -2.1063 -1.4298
12634TIP3   OH259316   0.075   4.418   0.419 -0.2510  0.6046 -0.6129
12634TIP3    H159317   0.048   4.332   0.452  0.5840  1.4740  2.6650
12634TIP3    H259318  -0.007   4.466   0.406 -0.6878 -0.4203 -1.8437
12635TIP3   OH259319   5.137   1.354   1.862 -0.2606  0.1341 -0.4643
12635TIP3    H159320   5.164   1.445   1.859  0.6368 -0.0214  1.4712
12635TIP3    H259321   5.217   1.304   1.843 -0.7757 -0.2822 -1.6613
12636TIP3   OH259322   6.710   3.326  12.018  0.1197  0.1720  0.5300
12636TIP3    H159323   6.758   3.393  12.066 -1.6900  1.4502  0.6831
12636TIP3    H259324   6.656   3.283  12.086 -0.9608  0.6316 -0.0092
12637TIP3   OH259325   1.381   3.294  14.848  0.4458 -0.3566  0.0981
12637TIP3    H159326   1.398   3.313  14.941  0.0546  0.7926 -0.0473
12637TIP3    H259327   1.467   3.286  14.809  0.6801  1.3959  0.1478
12638TIP3   OH259328   3.664   3.573  14.068 -0.2105 -0.0524 -0.6226
12638TIP3    H159329   3.689   3.481  14.076  1.2260  0.1743 -1.9396
12638TIP3    H259330   3.659   3.588  13.974 -1.1951  1.0400 -0.4193
12639TIP3   OH259331   3.295   5.098   2.335  0.0085  0.0205 -0.0252
12639TIP3    H159332   3.304   5.099   2.240 -0.7737  0.2807 -0.1086
12639TIP3    H259333   3.233   5.027   2.352 -1.1365  1.0206  0.1419
12640TIP3   OH259334   5.978   1.611   5.579  0.2838 -0.0594 -0.0173
12640TIP3    H159335   5.946   1.522   5.559  2.4989 -1.0560  0.5638
12640TIP3    H259336   5.955   1.662   5.501 -1.2219 -1.0524 -0.2853
12641TIP3   OH259337   5.609   2.688   2.495 -0.0656 -0.1980 -0.2507
12641TIP3    H159338   5.527   2.668   2.540  0.1946 -0.0037  0.3251
12641TIP3    H259339   5.670   2.620   2.525  0.0648 -0.1655 -0.4420
12642TIP3   OH259340   5.366   3.360   4.809 -0.5785  0.1372  0.6669
12642TIP3    H159341   5.305   3.389   4.877  0.4563 -0.0223  1.6956
12642TIP3    H259342   5.439   3.322   4.858  0.1522 -0.0602 -0.5503
12643TIP3   OH259343   0.066   2.193  15.216 -0.0360 -0.3445 -0.2275
12643TIP3    H159344   0.062   2.126  15.284 -2.6995 -0.7799 -0.6960
12643TIP3    H259345  -0.025   2.221  15.204  0.7949  2.2863 -1.1271
12644TIP3   OH259346   0.885   0.469   5.255 -0.1776  0.3179  0.2324
12644TIP3    H159347   0.807   0.494   5.206 -0.6119 -0.4870  0.5038
12644TIP3    H259348   0.856   0.466   5.346  0.0487 -0.4424  0.2810
12645TIP3   OH259349   5.095   4.983   3.406 -0.1854 -0.2511  0.0192
12645TIP3    H159350   5.179   5.005   3.447  0.0711 -1.2552  0.0422
12645TIP3    H259351   5.056   5.068   3.387  2.4983  0.4176 -3.5306
12646TIP3   OH259352   0.228   2.524  17.399  0.2098  0.2179  0.2652
12646TIP3    H159353   0.135   2.520  17.376 -0.1673 -2.1499  1.7696
12646TIP3    H259354   0.270   2.461  17.340  1.2889  2.6713 -1.7522
12647TIP3   OH259355   0.006   1.914  15.672  0.8865  0.1085  0.3472
12647TIP3    H159356   0.030   1.822  15.665  1.0507  0.2416 -1.4953
12647TIP3    H259357  -0.082   1.918  15.634  1.7318  0.9770 -1.7197
12648TIP3   OH259358   4.161   1.853  15.015 -0.0680 -0.5080  0.1767
12648TIP3    H159359   4.212   1.861  15.095  0.9402  2.7896 -0.6356
12648TIP3    H259360   4.070   1.861  15.042  0.2020 -0.4777  1.0845
12649TIP3   OH259361   5.915   0.179  13.073 -0.3256 -0.2649 -0.3126
12649TIP3    H159362   6.003   0.217  13.069 -0.5558  0.3465  0.2768
12649TIP3    H259363   5.865   0.239  13.128 -1.0246 -0.7943 -0.3509
12650TIP3   OH259364   5.476   4.095  13.609  0.0023  0.4672  0.0833
12650TIP3    H159365   5.529   4.159  13.657  1.7821 -0.5048 -0.5039
12650TIP3    H259366   5.503   4.010  13.645 -0.3686 -0.1141 -0.9786
12651TIP3   OH259367   4.543   4.656  13.490  0.1146 -0.2179  0.6236
12651TIP3    H159368   4.568   4.614  13.408  3.1071  0.6897  0.9240
12651TIP3    H259369   4.525   4.583  13.550 -2.2305 -0.8811 -0.7966
12652TIP3   OH259370   2.113   5.677  13.791 -0.1796 -0.4568 -0.2149
12652TIP3    H159371   2.142   5.586  13.788 -1.6822 -0.9734  0.2390
12652TIP3    H259372   2.176   5.724  13.736  0.9175 -1.6714 -0.0297
12653TIP3   OH259373   2.886   3.495  14.453 -0.1217  0.5783  0.4352
12653TIP3    H159374   2.949   3.423  14.447 -0.0382  0.3940  2.6066
12653TIP3    H259375   2.909   3.554  14.382  0.7525 -0.8096 -0.4794
12654TIP3   OH259376   1.485   6.285  15.889  0.7611  0.1955  0.3260
12654TIP3    H159377   1.414   6.348  15.875  1.2204  0.6197 -0.1671
12654TIP3    H259378   1.445   6.200  15.876 -0.0856  0.3138  1.8843
12655TIP3   OH259379   2.519   1.807  17.337  0.5768 -0.0646 -0.5189
12655TIP3    H159380   2.588   1.833  17.397  0.4403  0.6845 -0.6777
12655TIP3    H259381   2.539   1.716  17.315  0.6133 -0.3632  0.6698
12656TIP3   OH259382   0.485   6.566  11.448 -0.7528 -0.1858 -0.1773
12656TIP3    H159383   0.544   6.497  11.418 -1.0490 -0.1872 -0.7600
12656TIP3    H259384   0.401   6.547  11.406 -0.9821  0.2190  0.0859
12657TIP3   OH259385   6.223   4.683  16.375 -0.4228 -0.0046  0.1087
12657TIP3    H159386   6.147   4.647  16.331  2.0777 -1.0329 -3.8635
12657TIP3    H259387   6.277   4.607  16.397  0.4156  0.7884  0.9103
12658TIP3   OH259388   5.184   0.063  12.519  0.7067  0.1865 -0.0031
12658TIP3    H159389   5.263   0.110  12.489  1.6964 -1.3349  0.1113
12658TIP3    H259390   5.189   0.068  12.615 -0.2773  1.5539 -0.0030
12659TIP3   OH259391   0.788   6.516   0.259  0.1453  0.1283 -0.1482
12659TIP3    H159392   0.734   6.553   0.190  0.9048 -0.3484 -1.0224
12659TIP3    H259393   0.729   6.507   0.334 -0.6743  0.7036 -0.7163
12660TIP3   OH259394   4.108   1.326  13.471 -0.3987 -0.1874  0.2190
12660TIP3    H159395   4.096   1.312  13.377 -1.6803  1.1736  0.1502
12660TIP3    H259396   4.139   1.242  13.504 -1.0459 -1.0307 -1.2416
12661TIP3   OH259397   6.043   1.287  13.474 -0.0904 -0.0372  0.4131
12661TIP3    H159398   6.058   1.329  13.558 -1.1592 -0.1029  0.6482
12661TIP3    H259399   5.989   1.211  13.494  2.1995 -1.8625  0.0660
12662TIP3   OH259400   6.391   5.539  10.954 -0.2397  0.2406  0.3759
12662TIP3    H159401   6.438   5.460  10.982  0.8272  0.3135 -1.0663
12662TIP3    H259402   6.327   5.554  11.023  0.8874 -0.7224  1.7145
12663TIP3   OH259403   4.469   3.095  13.798  0.0509 -0.2922  0.3481
12663TIP3    H159404   4.405   3.113  13.729  2.7713  0.3263 -2.2291
12663TIP3    H259405   4.472   3.177  13.848  0.3494  0.4816 -0.8756
12664TIP3   OH259406   4.079   4.359  13.392 -0.4202  0.5059  0.2111
12664TIP3    H159407   4.093   4.264  13.398 -0.8967  0.3621 -0.7170
12664TIP3    H259408   4.164   4.397  13.411 -0.0278 -0.1443 -0.1869
12665TIP3   OH259409   3.515   3.998  11.343 -0.1265 -0.2066 -0.1784
12665TIP3    H159410   3.584   3.944  11.304 -0.2828 -1.0969  0.7284
12665TIP3    H259411   3.473   4.041  11.269  0.8894 -0.2667 -0.8062
12666TIP3   OH259412   1.956   2.313  15.688 -0.3574 -0.6210  0.0595
12666TIP3    H159413   2.036   2.263  15.700  0.8570  0.3417 -3.1438
12666TIP3    H259414   1.980   2.403  15.712 -0.6930 -0.4506 -0.2382
12667TIP3   OH259415   4.933   0.022   0.899 -0.1886  0.0635 -0.2123
12667TIP3    H159416   4.989   0.083   0.852 -0.7499  0.8031  0.0724
12667TIP3    H259417   4.846   0.061   0.895 -0.3464 -0.1223  0.9858
12668TIP3   OH259418   5.910   1.816   5.933 -0.3499  0.1312  0.1311
12668TIP3    H159419   5.946   1.806   6.021  0.9194  1.1319 -0.2407
12668TIP3    H259420   5.964   1.884   5.893 -2.4085  1.3900 -0.6247
12669TIP3   OH259421   5.603   0.077   2.274  1.0357 -0.5635 -0.0141
12669TIP3    H159422   5.507   0.075   2.278  0.9582  0.0628 -1.0876
12669TIP3    H259423   5.629   0.114   2.358  0.3074 -0.3318  0.1207
12670TIP3   OH259424   6.527   2.400  16.209 -0.4146 -0.2142 -0.0954
12670TIP3    H159425   6.510   2.396  16.303 -0.1577 -0.7248 -0.0692
12670TIP3    H259426   6.495   2.317  16.174 -0.8954  0.1430 -0.5285
12671TIP3   OH259427   3.778   2.168  15.479  0.7732  0.6140 -0.0442
12671TIP3    H159428   3.744   2.169  15.389 -0.1613  0.3043  0.3035
12671TIP3    H259429   3.830   2.088  15.484 -0.0172  0.0973 -0.0041
12672TIP3   OH259430   3.837   2.390   0.336  0.3863 -0.3199 -0.2026
12672TIP3    H159431   3.808   2.312   0.383 -0.1768  0.2270  0.3791
12672TIP3    H259432   3.918   2.415   0.379 -0.2957  0.3713  0.7383
12673TIP3   OH259433   5.293   1.999  16.039  0.0062 -0.2439 -0.1428
12673TIP3    H159434   5.363   2.063  16.052 -0.6443  0.7357 -1.1639
12673TIP3    H259435   5.262   2.016  15.949 -1.2267 -0.9426  0.1199
12674TIP3   OH259436   5.088   3.922  14.701  0.0066 -0.4721  0.3842
12674TIP3    H159437   5.051   3.845  14.742  0.4610 -0.6467  0.4719
12674TIP3    H259438   5.013   3.980  14.686 -0.1744 -0.4334  1.3870
12675TIP3   OH259439   1.487   0.814  15.050 -0.1897 -0.3664 -0.2004
12675TIP3    H159440   1.531   0.873  15.112  2.4523 -1.7531 -0.6103
12675TIP3    H259441   1.398   0.848  15.043 -0.3940  0.3610  3.7085
12676TIP3   OH259442   1.145   3.847  16.661 -0.3900 -0.4592  0.1135
12676TIP3    H159443   1.170   3.894  16.582 -4.1432  0.9222 -0.4846
12676TIP3    H259444   1.149   3.755  16.636 -0.4075 -0.0994 -1.3134
12677TIP3   OH259445   0.630   5.398  14.756  0.1690 -0.1149 -0.2789
12677TIP3    H159446   0.616   5.444  14.839 -1.4552 -0.9525 -0.0313
12677TIP3    H259447   0.571   5.322  14.761  0.9558 -0.8594 -1.6882
12678TIP3   OH259448   1.783   1.610  16.411  0.3984 -0.0088  0.1866
12678TIP3    H159449   1.779   1.629  16.505  0.2214  0.0609  0.1654
12678TIP3    H259450   1.845   1.538  16.404 -1.6931 -1.9944  0.6687
12679TIP3   OH259451   1.371   1.554  12.971  0.1930  0.5347 -0.3875
12679TIP3    H159452   1.332   1.617  12.911 -1.0650 -0.5206 -0.7041
12679TIP3    H259453   1.452   1.596  13.000 -0.7481  2.4262 -0.3644
12680TIP3   OH259454   0.980   0.122  15.012 -0.3433  0.4748  0.0741
12680TIP3    H159455   0.926   0.157  14.941  0.5942  0.5626 -0.6284
12680TIP3    H259456   0.963   0.180  15.086 -0.0358  1.4570 -0.5988
12681TIP3   OH259457   6.484   3.700   6.561 -0.2268 -0.4412 -0.3046
12681TIP3    H159458   6.460   3.613   6.592 -0.3724 -0.6110 -0.8943
12681TIP3    H259459   6.527   3.686   6.477  2.4633 -0.1996  0.9091
12682TIP3   OH259460   3.952   4.038   6.820  0.4421 -0.0640 -0.1809
12682TIP3    H159461   4.016   3.990   6.872  0.0263 -1.5106 -0.9374
12682TIP3    H259462   3.965   4.005   6.731  0.5194  1.6710 -0.8512
12683TIP3   OH259463   0.957   4.689   1.362 -0.2201 -0.2765  0.2118
12683TIP3    H159464   0.957   4.616   1.301  1.8597  0.5334 -0.8529
12683TIP3    H259465   0.920   4.762   1.313  1.8100  0.4764 -0.2872
12684TIP3   OH259466   3.676   0.306   3.523  0.0802 -0.1912 -0.0113
12684TIP3    H159467   3.673   0.391   3.569  2.0011  0.9268 -1.7682
12684TIP3    H259468   3.585   0.278   3.518 -0.4017  0.6341  2.5935
12685TIP3   OH259469   5.508   4.974  17.458  0.1158 -0.4283 -0.0583
12685TIP3    H159470   5.484   4.943  17.371 -0.5990 -0.6472  0.2102
12685TIP3    H259471   5.503   5.069  17.451 -2.4979 -0.4645  0.4140
12686TIP3   OH259472   3.398   6.121   3.373  0.5328  0.1635  0.1691
12686TIP3    H159473   3.480   6.076   3.391  0.9364  0.7102 -0.2801
12686TIP3    H259474   3.423   6.213   3.360 -0.2981  0.5829  1.3345
12687TIP3   OH259475   0.751   1.603  15.217 -0.1052  0.6876 -0.0543
12687TIP3    H159476   0.775   1.685  15.260 -0.6902  0.4685  0.7035
12687TIP3    H259477   0.656   1.598  15.225 -0.0840 -0.0219 -0.1649
12688TIP3   OH259478   1.717   5.912  11.410 -0.3404 -0.2468 -0.0801
12688TIP3    H159479   1.668   5.831  11.402 -2.2159  0.9605 -1.6599
12688TIP3    H259480   1.732   5.941  11.320  1.3693  0.5714  0.4185
12689TIP3   OH259481   2.045   1.911   1.666 -0.1593 -0.0524  0.0792
12689TIP3    H159482   1.976   1.974   1.687  0.5720  0.2752  1.6380
12689TIP3    H259483   2.091   1.949   1.591 -1.8732 -0.4631 -1.2409
12690TIP3   OH259484   3.707   6.703  11.556 -0.7114  0.0971  0.1714
12690TIP3    H159485   3.667   6.671  11.475 -2.1140  0.5566  0.6669
12690TIP3    H259486   3.748   6.785  11.531  1.8435 -1.3543 -0.8217
12691TIP3   OH259487   2.277   5.610  15.263 -0.2635  0.0745 -0.2454
12691TIP3    H159488   2.284   5.687  15.207 -0.2380  1.1087  1.1261
12691TIP3    H259489   2.367   5.591  15.290 -0.0209 -1.5619 -1.9579
12692TIP3   OH259490   2.961   5.861   6.359 -0.2060 -0.4837 -0.3440
12692TIP3    H159491   3.018   5.927   6.320  0.6210 -0.1929  1.2698
12692TIP3    H259492   2.893   5.845   6.293  0.3941  0.9173 -1.3395
12693TIP3   OH259493   4.524   4.216  13.926 -0.3404 -0.0242  0.1622
12693TIP3    H159494   4.532   4.151  13.996 -1.6091 -0.0397  0.3227
12693TIP3    H259495   4.449   4.186  13.875 -0.2443  0.7139 -0.4232
12694TIP3   OH259496   4.960   3.295  15.746  0.5942  0.1675  0.2147
12694TIP3    H159497   5.051   3.267  15.734  0.6790 -0.3667  1.8388
12694TIP3    H259498   4.958   3.332  15.834 -0.7545  0.2267  0.1780
12695TIP3   OH259499   3.181   6.537   4.800  0.4098  0.9630 -0.2374
12695TIP3    H159500   3.209   6.539   4.891 -0.2408  0.3072 -0.0140
12695TIP3    H259501   3.108   6.599   4.795 -0.5406 -0.1031  0.0429
12696TIP3   OH259502   2.798   5.466   3.408  0.1096 -0.4360 -0.3554
12696TIP3    H159503   2.762   5.501   3.327  0.3596 -0.0868 -0.3166
12696TIP3    H259504   2.847   5.388   3.381  1.5578  0.5744 -0.7677
12697TIP3   OH259505   6.346   3.355   3.241  0.1558  0.5129  0.2710
12697TIP3    H159506   6.318   3.307   3.163 -0.7027 -1.5205  1.7492
12697TIP3    H259507   6.398   3.292   3.290  0.3861  1.6401  1.5371
12698TIP3   OH259508   4.708   2.398   3.736 -0.2680  0.5292 -0.6056
12698TIP3    H159509   4.677   2.478   3.780 -1.4748 -0.2567  0.0136
12698TIP3    H259510   4.699   2.329   3.802  2.9164  0.2112 -0.3278
12699TIP3   OH259511   1.324   4.235  15.652 -0.5138  0.2065 -0.1352
12699TIP3    H159512   1.336   4.320  15.610 -0.2005  0.5598  0.6384
12699TIP3    H259513   1.242   4.243  15.700 -0.4290  0.1074  0.0275
12700TIP3   OH259514   3.029   1.517   3.266  0.2470  0.5412  0.6004
12700TIP3    H159515   3.081   1.439   3.286 -0.3681 -0.4242 -1.3027
12700TIP3    H259516   3.092   1.581   3.233  0.6809  0.6797  1.6618
12701TIP3   OH259517   0.203   2.983  11.611 -0.6111 -0.1793 -0.6195
12701TIP3    H159518   0.108   2.983  11.614 -0.6301  1.4697 -0.7411
12701TIP3    H259519   0.226   3.061  11.562  0.7974 -1.2160 -1.7091
12702TIP3   OH259520   5.893   4.226  15.545 -0.2033  0.5795 -0.0577
12702TIP3    H159521   5.917   4.282  15.618 -0.8063  2.6408 -1.3464
12702TIP3    H259522   5.810   4.186  15.572 -0.8933  2.0318  0.0549
12703TIP3   OH259523   2.713   4.670   2.892  0.2446  0.2069  0.2405
12703TIP3    H159524   2.648   4.621   2.942  2.0280 -0.7863  1.7113
12703TIP3    H259525   2.736   4.611   2.819 -1.1017  0.9433 -0.8323
12704TIP3   OH259526   6.190   4.742  13.011 -0.4180  0.0170  0.2895
12704TIP3    H159527   6.103   4.739  12.972 -0.1323  2.6184 -0.7275
12704TIP3    H259528   6.175   4.757  13.104 -1.0457 -0.2507  0.2333
12705TIP3   OH259529   4.835   6.494   6.340  0.2747 -0.0366 -0.2568
12705TIP3    H159530   4.824   6.538   6.425  0.0338  0.5076 -0.5704
12705TIP3    H259531   4.909   6.434   6.355  0.5149  0.3628  0.2201
12706TIP3   OH259532   0.228   3.034  17.434 -0.5383  0.2059  0.9713
12706TIP3    H159533   0.277   2.953  17.449  0.2995  0.3494 -0.7208
12706TIP3    H259534   0.158   3.009  17.373  0.1421  0.8438 -0.1151
12707TIP3   OH259535   5.540   6.529  16.758 -0.0537 -0.5824 -0.2449
12707TIP3    H159536   5.550   6.477  16.838 -1.7931  1.8484  1.6687
12707TIP3    H259537   5.604   6.599  16.767 -1.8702  1.0770  0.2511
12708TIP3   OH259538   2.377   1.542   6.082  0.0946  0.5755 -0.1191
12708TIP3    H159539   2.308   1.602   6.112 -1.8330 -1.5785  0.0989
12708TIP3    H259540   2.420   1.514   6.162 -0.2569  0.2772 -0.0299
12709TIP3   OH259541   0.612   2.994   3.373  0.0146  0.4781  0.3544
12709TIP3    H159542   0.580   3.057   3.437  0.2851  0.8528  0.1215
12709TIP3    H259543   0.627   3.045   3.293 -1.6868 -0.2235 -0.4654
12710TIP3   OH259544   3.907   6.078  17.026 -0.3729 -0.0727  0.3003
12710TIP3    H159545   3.881   6.144  17.090  0.4247  0.7600 -0.2011
12710TIP3    H259546   3.902   6.123  16.942  0.6581 -0.4942 -0.0014
12711TIP3   OH259547   1.939   2.353  12.230  0.2553 -0.7060 -0.2503
12711TIP3    H159548   1.984   2.329  12.311  0.5741  1.0822  0.1465
12711TIP3    H259549   1.943   2.274  12.176 -1.4024 -2.5401  2.0583
12712TIP3   OH259550   0.947   5.671   3.257  0.0005  0.2387 -0.5981
12712TIP3    H159551   0.873   5.729   3.275  0.0304  0.0311  0.2386
12712TIP3    H259552   1.020   5.729   3.238 -0.4607  0.4466 -1.8671
12713TIP3   OH259553   3.064   0.778   2.336 -0.4420  0.4884  0.4482
12713TIP3    H159554   3.114   0.731   2.404  1.2859 -2.4094 -2.4995
12713TIP3    H259555   2.990   0.720   2.317  0.3274  0.0746 -1.5557
12714TIP3   OH259556   0.183   6.132   2.675 -0.4071 -0.5568  0.0559
12714TIP3    H159557   0.141   6.167   2.754 -1.9938 -0.6099 -0.7092
12714TIP3    H259558   0.225   6.208   2.635  0.1933 -0.4797  0.8076
12715TIP3   OH259559   2.240   6.647   1.237  0.7164  0.2035 -0.1012
12715TIP3    H159560   2.254   6.693   1.319  2.0180  1.2445 -0.8682
12715TIP3    H259561   2.315   6.588   1.230 -0.0903 -0.8840  0.0837
12716TIP3   OH259562   2.244   1.219   4.220 -0.4139 -0.4916 -0.3763
12716TIP3    H159563   2.165   1.254   4.260 -0.1440 -2.5878  2.3515
12716TIP3    H259564   2.213   1.157   4.154 -0.9555  0.8836 -1.4341
12717TIP3   OH259565   0.742   0.622   1.613 -0.6463  0.3132  0.0894
12717TIP3    H159566   0.819   0.630   1.671 -0.6308 -0.7107  0.2183
12717TIP3    H259567   0.751   0.696   1.553  0.3991  0.2596  0.1525
12718TIP3   OH259568   6.436   0.581  16.424 -0.1857 -0.2583 -0.0886
12718TIP3    H159569   6.527   0.604  16.445 -0.6119  0.6529  0.8602
12718TIP3    H259570   6.442   0.532  16.342  1.2410 -0.9383  0.3775
12719TIP3   OH259571   3.504   6.452  12.272  0.4914 -0.0390  0.5720
12719TIP3    H159572   3.552   6.372  12.292  0.1998 -0.7619 -1.4736
12719TIP3    H259573   3.566   6.523  12.293  1.1287 -0.8189  1.3885
12720TIP3   OH259574   5.726   4.211   3.458 -0.4074 -0.4798  0.3320
12720TIP3    H159575   5.746   4.130   3.411 -0.5893  0.3234 -1.2042
12720TIP3    H259576   5.678   4.264   3.394 -1.5350  0.2902  1.7656
12721TIP3   OH259577   2.170   2.490  14.957  0.5885  0.1376 -0.2710
12721TIP3    H159578   2.123   2.442  15.025 -1.0082 -0.4531 -1.7174
12721TIP3    H259579   2.251   2.518  14.999 -0.6192  0.3742  2.0563
12722TIP3   OH259580   4.160   6.542  14.119 -0.1445  0.1548  0.3015
12722TIP3    H159581   4.075   6.572  14.089 -0.9593  0.1889  2.4639
12722TIP3    H259582   4.142   6.458  14.162  0.7594  0.5432  1.5022
12723TIP3   OH259583   2.955   5.989  12.727 -0.2425  0.7549 -0.5599
12723TIP3    H159584   2.932   6.000  12.819 -1.9151 -1.6619 -0.6085
12723TIP3    H259585   2.874   6.008  12.679  0.0704  0.0785 -1.3783
12724TIP3   OH259586   5.145   2.190  12.893  0.0179  0.0863 -0.4447
12724TIP3    H159587   5.173   2.212  12.804  0.8730 -2.2248 -0.8275
12724TIP3    H259588   5.226   2.168  12.939 -0.6516 -2.4432 -0.2774
12725TIP3   OH259589   4.576   3.651  15.886  0.0359  0.7036 -0.0042
12725TIP3    H159590   4.629   3.667  15.963 -1.7834  0.4027  1.3842
12725TIP3    H259591   4.486   3.652  15.918 -0.7211 -0.8641 -1.8651
12726TIP3   OH259592   2.829   2.863  11.221  0.2601 -0.2568  0.1927
12726TIP3    H159593   2.885   2.864  11.144 -1.0577  0.0843 -0.8135
12726TIP3    H259594   2.793   2.952  11.225  0.6071 -0.1612  1.4320
12727TIP3   OH259595   5.202   1.183   6.016  0.1961  0.1161 -0.3726
12727TIP3    H159596   5.233   1.213   5.931  0.2137  0.9514 -0.0837
12727TIP3    H259597   5.137   1.117   5.997 -0.4972  0.9779 -1.0603
12728TIP3   OH259598   1.046   6.446   2.241 -0.0383  0.0506  0.3949
12728TIP3    H159599   0.992   6.412   2.170  1.0983  0.4725 -0.6989
12728TIP3    H259600   1.003   6.528   2.265 -0.6415 -0.2791  0.4623
12729TIP3   OH259601   1.409   4.588   3.756 -0.1751 -0.2281 -0.3353
12729TIP3    H159602   1.388   4.645   3.830 -0.0275 -0.4291 -0.1367
12729TIP3    H259603   1.350   4.513   3.766 -0.4426 -0.0658 -0.6556
12730TIP3   OH259604   2.537   5.319   4.284 -0.2713 -0.1250  0.3422
12730TIP3    H159605   2.444   5.299   4.301 -1.2997  2.2444 -1.8582
12730TIP3    H259606   2.564   5.373   4.358 -0.7536 -0.5229  0.8181
12731TIP3   OH259607   4.930   3.394  16.219  0.0624  0.1297  0.4750
12731TIP3    H159608   4.861   3.457  16.241 -0.5994 -0.4633  0.1283
12731TIP3    H259609   4.957   3.419  16.130  0.7983  0.7914  0.8647
12732TIP3   OH259610   1.989   0.552   3.824 -0.0560 -1.1285 -0.0828
12732TIP3    H159611   1.936   0.531   3.747  0.7798 -0.5637 -0.8311
12732TIP3    H259612   2.054   0.482   3.829  0.9022 -0.3356 -0.8700
12733TIP3   OH259613   0.716   2.964   2.619 -0.6790 -0.3234 -1.0640
12733TIP3    H159614   0.647   3.027   2.598 -0.6749  0.3220  0.6630
12733TIP3    H259615   0.797   3.011   2.601 -0.6676 -0.5592 -1.6666
12734TIP3   OH259616   5.827   5.108  15.272 -0.5197  0.1708  0.0013
12734TIP3    H159617   5.800   5.034  15.327 -1.2403 -0.0795 -0.6665
12734TIP3    H259618   5.840   5.069  15.185  1.3713  0.4118  0.1434
12735TIP3   OH259619   2.031   1.398  11.696  0.6440  0.1035 -0.4642
12735TIP3    H159620   2.076   1.332  11.750 -0.1200  0.2779  0.4049
12735TIP3    H259621   1.987   1.347  11.628  0.7230 -0.2143 -0.2815
12736TIP3   OH259622   5.352   2.424  15.797  0.4106 -1.4199 -0.3399
12736TIP3    H159623   5.387   2.414  15.708  0.9029  0.3512 -0.3879
12736TIP3    H259624   5.423   2.391  15.854  1.1141 -0.3017 -0.5380
12737TIP3   OH259625   3.355   4.681  13.473  0.5708 -0.3384  0.2753
12737TIP3    H159626   3.434   4.697  13.422  0.4808  0.6204  0.4085
12737TIP3    H259627   3.351   4.586  13.484  2.3697 -0.3176  1.3378
12738TIP3   OH259628   1.216   4.340  17.420  0.3057  0.0874  0.1166
12738TIP3    H159629   1.189   4.252  17.445 -0.4955  0.3889  0.3466
12738TIP3    H259630   1.257   4.376  17.498 -1.3082  0.6745  0.7363
12739TIP3   OH259631   2.559   3.333  11.092  0.0152 -0.0578  0.9550
12739TIP3    H159632   2.598   3.381  11.164  0.1133  0.7713  0.3685
12739TIP3    H259633   2.466   3.327  11.114 -0.4250  2.2761  0.0959
12740TIP3   OH259634   6.616   5.169   3.784  0.2826 -0.2455 -0.4290
12740TIP3    H159635   6.593   5.077   3.771 -0.4554 -0.0757 -0.3671
12740TIP3    H259636   6.586   5.213   3.705 -0.6608  0.1603  0.1302
12741TIP3   OH259637   5.893   0.626  14.510 -0.6095 -0.3161  0.3323
12741TIP3    H159638   5.840   0.554  14.476  0.1263 -0.9210  0.4445
12741TIP3    H259639   5.960   0.583  14.563  0.0319  0.4367  0.1392
12742TIP3   OH259640   1.072   0.383   6.307 -0.3109 -0.5669 -0.4650
12742TIP3    H159641   1.115   0.300   6.327  0.8880 -0.0473 -0.7928
12742TIP3    H259642   1.087   0.438   6.384  0.7416  0.0476 -1.0903
12743TIP3   OH259643   5.834   2.200   1.599  0.7394  0.3197  0.0718
12743TIP3    H159644   5.771   2.210   1.528  0.0626 -0.2273  0.5890
12743TIP3    H259645   5.895   2.274   1.587  0.4450  0.4278 -0.8675
12744TIP3   OH259646   5.304   1.780  11.119 -0.4866  0.0997  0.3309
12744TIP3    H159647   5.268   1.851  11.173  1.2134  1.5281 -0.3166
12744TIP3    H259648   5.314   1.819  11.032 -0.8094 -1.3953 -0.4052
12745TIP3   OH259649   1.265   0.199  16.533 -0.0998  0.0089  0.4817
12745TIP3    H159650   1.198   0.135  16.556 -1.2042  1.2032  0.7552
12745TIP3    H259651   1.217   0.267  16.485  0.7285  1.3552  1.4959
12746TIP3   OH259652   4.831   1.249   0.190 -0.0163  0.0059  0.3163
12746TIP3    H159653   4.919   1.258   0.155  0.2520  0.2145  1.0210
12746TIP3    H259654   4.776   1.233   0.114  0.8383 -1.7465  0.0111
12747TIP3   OH259655   0.314   4.689  16.683 -0.0291 -0.2553  0.4862
12747TIP3    H159656   0.381   4.757  16.677 -0.2298 -0.1842 -1.5342
12747TIP3    H259657   0.361   4.608  16.663 -0.3956 -0.2890 -0.2717
12748TIP3   OH259658   0.937   3.190   3.265  0.0911 -0.2651 -0.1773
12748TIP3    H159659   0.922   3.150   3.180  1.6202 -1.1202 -0.0944
12748TIP3    H259660   0.945   3.116   3.326  1.9011  0.1411  0.1677
12749TIP3   OH259661   4.440   2.202  12.440 -0.0851 -0.5139  0.3964
12749TIP3    H159662   4.408   2.154  12.363  0.1418  1.7120 -1.2185
12749TIP3    H259663   4.531   2.174  12.450  0.2478  0.0222 -0.9279
12750TIP3   OH259664   2.199   0.650  14.125 -0.2093  0.2280 -0.0323
12750TIP3    H159665   2.105   0.640  14.145  0.1169 -0.3250  1.3719
12750TIP3    H259666   2.227   0.725  14.178  0.0351  0.7530 -0.8878
12751TIP3   OH259667   1.949   5.314  14.677 -0.4888 -0.2509 -0.0153
12751TIP3    H159668   1.876   5.369  14.648  0.5820  1.3783  0.2506
12751TIP3    H259669   1.979   5.270  14.597  0.7785  2.2102 -1.0132
12752TIP3   OH259670   0.156   0.087  11.706 -0.2762 -0.6338  0.1858
12752TIP3    H159671   0.110   0.131  11.778 -0.2045  2.2550 -1.3996
12752TIP3    H259672   0.248   0.109  11.719 -0.2517 -0.1584 -0.7311
12753TIP3   OH259673   2.197   1.620   3.029 -0.1741 -0.6498 -0.0848
12753TIP3    H159674   2.136   1.657   3.093  0.7716 -1.7018  1.5149
12753TIP3    H259675   2.253   1.693   3.002 -2.7275  0.6095 -2.4519
12754TIP3   OH259676   4.792   6.080   2.906  0.0809 -0.5231  0.4511
12754TIP3    H159677   4.842   5.999   2.897  1.7286  0.4318  0.5522
12754TIP3    H259678   4.857   6.150   2.895 -1.4750  0.8128 -0.7180
12755TIP3   OH259679   2.552   0.726  13.565 -0.2924  0.2008  0.1602
12755TIP3    H159680   2.506   0.809  13.574 -1.1853 -0.1705 -0.7999
12755TIP3    H259681   2.557   0.691  13.654 -1.3542  0.5245  0.3539
12756TIP3   OH259682   6.588   0.507  12.289 -0.1414  0.6967 -0.0974
12756TIP3    H159683   6.629   0.560  12.220 -0.1645 -1.5175 -1.9173
12756TIP3    H259684   6.501   0.487  12.255 -0.6551  0.6293  1.2002
12757TIP3   OH259685   6.619   3.099  13.234  0.3277  0.4794 -0.3326
12757TIP3    H159686   6.565   3.118  13.157 -0.4275 -0.7718 -0.1248
12757TIP3    H259687   6.558   3.102  13.308  0.4196 -1.3437 -0.1395
12758TIP3   OH259688   0.126   1.294   3.990  0.1024 -0.1179  0.2462
12758TIP3    H159689   0.106   1.270   3.899 -2.3753 -0.0728  0.7062
12758TIP3    H259690   0.198   1.356   3.983 -0.9619  1.0152 -1.8526
12759TIP3   OH259691   3.614   6.267   0.632 -0.0898  0.1320  0.1460
12759TIP3    H159692   3.540   6.325   0.611  1.5417  1.8278 -1.2741
12759TIP3    H259693   3.619   6.208   0.556  0.8380  0.9555 -0.4596
12760TIP3   OH259694   6.043   3.587   5.446 -0.1084  0.2948  0.4297
12760TIP3    H159695   5.962   3.634   5.465 -0.0761  0.2714  0.6249
12760TIP3    H259696   6.033   3.558   5.355  0.2505  1.4552  0.0033
12761TIP3   OH259697   6.579   5.348   3.087  0.3185 -0.1718 -0.6920
12761TIP3    H159698   6.585   5.272   3.030 -1.5743 -1.0530  0.1978
12761TIP3    H259699   6.541   5.417   3.032  0.3982 -0.3941 -1.0264
12762TIP3   OH259700   6.021   6.720   1.956  0.4021  0.0039  0.0483
12762TIP3    H159701   5.927   6.709   1.972  0.2123 -0.0378 -0.9932
12762TIP3    H259702   6.034   6.688   1.867  1.0482  1.9103 -0.5966
12763TIP3   OH259703   2.876   2.221   3.387  0.2920 -0.6222 -0.8005
12763TIP3    H159704   2.969   2.217   3.410  1.0494 -0.3964 -3.4704
12763TIP3    H259705   2.845   2.131   3.394  0.1578 -0.4334  1.9073
12764TIP3   OH259706   1.932   2.097  12.120  0.3631  0.1263 -0.0317
12764TIP3    H159707   1.987   2.027  12.085  0.8761  0.3528  0.3047
12764TIP3    H259708   1.871   2.118  12.050  0.2990 -0.5584 -0.1868
12765TIP3   OH259709   1.591   6.203  13.637  0.3483 -0.3800  0.1525
12765TIP3    H159710   1.617   6.290  13.608 -0.5555 -0.2301 -0.2313
12765TIP3    H259711   1.509   6.216  13.684 -0.3142 -1.1222 -0.7431
12766TIP3   OH259712   3.115   5.056  13.339  0.3905  0.4248 -0.0117
12766TIP3    H159713   3.093   4.969  13.372 -0.2547 -1.0176 -3.7344
12766TIP3    H259714   3.202   5.073  13.374 -0.0115 -1.0950  1.9031
12767TIP3   OH259715   4.047   5.653  16.356  0.2615 -0.4966  0.1646
12767TIP3    H159716   4.135   5.684  16.374  1.4088 -1.7042 -2.7520
12767TIP3    H259717   4.011   5.718  16.295 -0.5936 -0.4120  0.7458
12768TIP3   OH259718   5.887   3.530   1.282 -0.0957 -0.2514 -0.3674
12768TIP3    H159719   5.849   3.617   1.282  1.8120  0.7193  1.9897
12768TIP3    H259720   5.912   3.514   1.191 -1.7905  0.9899 -1.1012
12769TIP3   OH259721   6.174   3.822  12.388  0.0142  0.3089  0.1181
12769TIP3    H159722   6.216   3.736  12.391 -0.6383  0.0026  0.5563
12769TIP3    H259723   6.091   3.807  12.343  0.5574  1.0026 -1.1666
12770TIP3   OH259724   5.355   6.649  17.269  0.1777 -0.1317 -0.2495
12770TIP3    H159725   5.298   6.585  17.227  0.2307 -0.2713 -0.1114
12770TIP3    H259726   5.444   6.617  17.253  0.1873 -0.4289  0.3401
12771TIP3   OH259727   0.824   2.315   4.321  0.0674 -0.1477 -0.0010
12771TIP3    H159728   0.882   2.243   4.295  1.7433  0.5106  1.7378
12771TIP3    H259729   0.867   2.394   4.288  1.2508  0.5271  2.9124
12772TIP3   OH259730   0.127   0.737  13.902  0.2009  0.6089 -0.0918
12772TIP3    H159731   0.136   0.681  13.825  0.2151  1.2332 -0.5532
12772TIP3    H259732   0.118   0.825  13.866 -1.1342  0.7673  0.5670
12773TIP3   OH259733   6.443   2.337   5.689 -0.1037  0.0954  0.4876
12773TIP3    H159734   6.359   2.336   5.642  0.1993  0.8983 -0.0892
12773TIP3    H259735   6.455   2.246   5.717 -0.4223 -0.3636 -0.7621
12774TIP3   OH259736   2.043   3.031   4.716 -0.4595  0.0186 -0.6252
12774TIP3    H159737   2.050   3.108   4.659 -0.0656  1.8729  1.7966
12774TIP3    H259738   2.106   2.969   4.679  0.8302  1.6988 -1.4064
12775TIP3   OH259739   1.815   6.288  11.265  0.1529 -0.0363  0.0089
12775TIP3    H159740   1.837   6.337  11.186 -0.7648  0.5722  0.1141
12775TIP3    H259741   1.731   6.246  11.245  0.2163 -0.3739  0.4397
12776TIP3   OH259742   6.406   0.474   1.891  0.1824  0.4966 -0.3708
12776TIP3    H159743   6.365   0.413   1.830 -0.9220  0.6931  0.1557
12776TIP3    H259744   6.420   0.423   1.971 -1.9232  1.2200  0.5181
12777TIP3   OH259745   4.073   1.123  15.987  0.2057 -0.5315 -0.5291
12777TIP3    H159746   3.999   1.099  16.043  0.0009  2.7880  0.8053
12777TIP3    H259747   4.150   1.111  16.042  0.1588  0.9791 -0.0909
12778TIP3   OH259748   2.818   0.424   5.678 -0.1004  0.0129 -0.3683
12778TIP3    H159749   2.846   0.345   5.724 -0.6773  1.3667  2.4747
12778TIP3    H259750   2.897   0.478   5.673 -0.4167  0.5900  0.6512
12779TIP3   OH259751   2.476   0.581  15.067  0.2407 -0.6647 -0.4279
12779TIP3    H159752   2.431   0.652  15.113  1.3700  1.4118 -2.3445
12779TIP3    H259753   2.411   0.547  15.005  0.0954 -0.4405 -0.3980
12780TIP3   OH259754   2.844   1.313   4.284 -0.1677  0.2091 -0.3081
12780TIP3    H159755   2.904   1.243   4.309 -0.2168  0.1475 -0.3658
12780TIP3    H259756   2.760   1.270   4.271 -0.2605  0.3193 -0.0765
12781TIP3   OH259757   1.994   2.486   2.097  0.2958  0.0925  0.4339
12781TIP3    H159758   1.954   2.413   2.051 -0.5761  0.3712  0.7264
12781TIP3    H259759   1.978   2.467   2.190  3.5676 -1.3787  0.8292
12782TIP3   OH259760   2.600   5.059  16.178  0.2973 -0.0753  0.2255
12782TIP3    H159761   2.515   5.028  16.212  0.5129 -0.4684  0.4153
12782TIP3    H259762   2.588   5.060  16.083  0.2965 -0.8116  0.2060
12783TIP3   OH259763   0.945   0.236   2.399  0.3040 -0.2790 -0.3892
12783TIP3    H159764   0.959   0.252   2.492 -1.6276 -0.5853  0.0118
12783TIP3    H259765   0.968   0.319   2.357  3.4847 -0.8405  0.0052
12784TIP3   OH259766   2.979   3.584   1.138  0.6597 -0.1450  0.7527
12784TIP3    H159767   3.056   3.626   1.175  0.8171  0.2133  0.0334
12784TIP3    H259768   2.909   3.602   1.201  1.3673 -1.3782  1.9518
12785TIP3   OH259769   6.236   4.344  14.973 -0.0060 -0.1082  0.0353
12785TIP3    H159770   6.274   4.404  14.909  0.6588  1.4201  1.7692
12785TIP3    H259771   6.303   4.276  14.985  1.1036  1.1273  1.1163
12786TIP3   OH259772   4.417   6.344   3.689 -0.5404  0.0326  0.4285
12786TIP3    H159773   4.427   6.435   3.719 -0.3340 -0.1543  0.9472
12786TIP3    H259774   4.507   6.314   3.675 -0.6229  0.9965 -3.2148
12787TIP3   OH259775   5.123   0.579  14.966  0.5738 -0.9096 -0.0585
12787TIP3    H159776   5.073   0.547  15.041  0.0051  1.8279  0.8509
12787TIP3    H259777   5.147   0.669  14.990  1.3414 -0.3191 -2.7108
12788TIP3   OH259778   0.970   5.244   5.305  0.5332  0.0902  0.4021
12788TIP3    H159779   0.897   5.291   5.344 -0.0751 -0.3409 -0.1936
12788TIP3    H259780   0.930   5.169   5.260  1.4543 -0.8187  1.0546
12789TIP3   OH259781   4.321   5.366   5.934 -0.4863  0.1570 -0.1199
12789TIP3    H159782   4.241   5.393   5.980 -0.2403 -1.3201  1.2639
12789TIP3    H259783   4.319   5.270   5.939  1.6242  0.1040  0.4085
12790TIP3   OH259784   3.894   4.523  11.251 -0.0947  0.7060  0.4921
12790TIP3    H159785   3.980   4.488  11.226 -0.3582 -0.2827  0.9162
12790TIP3    H259786   3.854   4.550  11.169  0.0141 -0.2488  0.1133
12791TIP3   OH259787   0.699   2.109  17.451 -0.3228 -0.6020  0.7483
12791TIP3    H159788   0.677   2.062  17.370 -0.9418  0.2061  0.4381
12791TIP3    H259789   0.765   2.173  17.425  0.1350 -0.9313  1.0704
12792TIP3   OH259790   1.223   5.127  17.241 -0.3645  0.2531 -0.2264
12792TIP3    H159791   1.286   5.180  17.192  0.4041  0.3714  0.8680
12792TIP3    H259792   1.274   5.056  17.278 -0.5100  1.2828  2.0833
12793TIP3   OH259793   2.957   1.471  16.949  0.5611 -0.1375 -0.1431
12793TIP3    H159794   2.891   1.406  16.923  1.0856 -0.5941 -0.3519
12793TIP3    H259795   2.939   1.547  16.893  1.3996 -0.9489 -1.5800
12794TIP3   OH259796   2.768   5.114   5.181 -0.0086  0.2679  0.1500
12794TIP3    H159797   2.762   5.058   5.259 -0.6428 -0.3720 -0.3358
12794TIP3    H259798   2.826   5.186   5.207  1.0237 -0.7318  0.7275
12795TIP3   OH259799   5.544   5.169  17.205 -0.3320  0.2060 -0.9364
12795TIP3    H159800   5.553   5.196  17.297  0.7792 -1.8892 -0.3593
12795TIP3    H259801   5.452   5.185  17.184 -0.8747 -0.2248  0.9079
12796TIP3   OH259802   5.276   4.956   5.652  0.3465 -0.3950  0.3511
12796TIP3    H159803   5.211   4.926   5.589  0.1767 -0.7963  0.7186
12796TIP3    H259804   5.256   4.908   5.732  0.0139  0.7344  0.9746
12797TIP3   OH259805   4.214   3.898   4.547 -0.2239 -0.1794  0.5736
12797TIP3    H159806   4.234   3.988   4.572 -0.8916 -0.0343  0.5927
12797TIP3    H259807   4.213   3.900   4.451  0.5514 -0.3486  0.5503
12798TIP3   OH259808   3.990   5.982   3.927  0.3719 -0.4629  0.3319
12798TIP3    H159809   3.960   5.971   3.837  2.0413 -0.8039 -0.2251
12798TIP3    H259810   3.937   5.921   3.978 -0.8791  0.0299 -0.3340
12799TIP3   OH259811   3.915   4.892  15.845  0.3925  0.6716  0.2040
12799TIP3    H159812   3.882   4.977  15.815 -0.1167 -0.0362 -1.4066
12799TIP3    H259813   4.004   4.887  15.811 -0.3943 -0.3900 -1.8920
12800TIP3   OH259814   2.437   0.718  12.510  0.0759  0.4238  0.8146
12800TIP3    H159815   2.375   0.650  12.484  0.6656  0.4076 -0.6555
12800TIP3    H259816   2.382   0.789  12.545 -0.6687 -0.0561  0.6380
12801TIP3   OH259817   4.874   3.953  16.579  0.2697 -0.0281  0.0662
12801TIP3    H159818   4.893   4.046  16.591  0.0378 -0.0515  0.6414
12801TIP3    H259819   4.951   3.908  16.614 -0.3378 -0.0916  1.3795
12802TIP3   OH259820   3.534   2.856   4.917  0.3004 -0.2059  0.4625
12802TIP3    H159821   3.595   2.807   4.972  0.1847 -1.0443 -0.1378
12802TIP3    H259822   3.494   2.919   4.976  0.8741 -0.4502  1.1263
12803TIP3   OH259823   0.227   6.038   2.356  0.1421  0.5748  0.0156
12803TIP3    H159824   0.237   6.079   2.442 -1.6562  3.9573 -1.2257
12803TIP3    H259825   0.299   6.074   2.304  1.1444 -1.3564 -0.0264
12804TIP3   OH259826   2.526   5.001  14.634 -0.2312  0.5822  0.1182
12804TIP3    H159827   2.477   4.923  14.658 -1.0008  0.8947 -0.4068
12804TIP3    H259828   2.575   5.024  14.713 -1.4511  0.6624  0.8705
12805TIP3   OH259829   1.131   3.553   1.379  0.4119 -0.2733 -0.4019
12805TIP3    H159830   1.215   3.594   1.401  0.2516 -0.4533  0.6199
12805TIP3    H259831   1.070   3.589   1.443 -1.1649  2.6039 -3.2258
12806TIP3   OH259832   0.429   2.167  12.643  0.3139  0.2547 -0.2386
12806TIP3    H159833   0.369   2.169  12.569  1.1902 -0.1492 -0.9805
12806TIP3    H259834   0.445   2.259  12.664  1.5954  0.4424 -1.8518
12807TIP3   OH259835   6.223   5.001  17.408 -0.1215  0.2830 -0.3618
12807TIP3    H159836   6.275   4.940  17.356  1.2107  0.6550  0.4701
12807TIP3    H259837   6.210   4.956  17.492 -1.2756  0.1487 -0.5987
12808TIP3   OH259838   6.313   5.101  14.176  0.9541 -0.0568  0.0813
12808TIP3    H159839   6.348   5.184  14.210 -0.9910  0.3548  1.2454
12808TIP3    H259840   6.220   5.105  14.195  0.9071 -2.8670  0.9119
12809TIP3   OH259841   1.239   4.131  14.527 -0.8125  0.3126  0.6414
12809TIP3    H159842   1.193   4.103  14.448  0.9950 -0.5272 -0.1733
12809TIP3    H259843   1.248   4.226  14.518 -3.3842  0.7288  1.4408
12810TIP3   OH259844   0.836   2.739   5.142  0.5134  0.0364 -0.0550
12810TIP3    H159845   0.809   2.664   5.197  1.4421 -0.3468 -0.1148
12810TIP3    H259846   0.753   2.776   5.112 -0.0408  0.2440  1.5801
12811TIP3   OH259847   3.314   3.337  14.892  0.1723  0.0669 -0.2570
12811TIP3    H159848   3.309   3.432  14.888  1.0052  0.1047 -0.5583
12811TIP3    H259849   3.360   3.312  14.812  1.6224 -0.4404  0.6833
12812TIP3   OH259850   6.666   2.946   3.266 -0.4542  0.1160  0.2764
12812TIP3    H159851   6.671   2.930   3.172 -0.9901  2.2738 -0.1633
12812TIP3    H259852   6.757   2.940   3.296 -0.2592 -0.4344 -0.3899
12813TIP3   OH259853   2.738   3.458  15.249  0.3111 -0.2529  0.2132
12813TIP3    H159854   2.822   3.429  15.285  0.2473  0.2197  0.7610
12813TIP3    H259855   2.696   3.378  15.219  0.9968 -0.4871 -0.1509
12814TIP3   OH259856   2.529   5.818  11.856  0.1242 -0.3503 -0.2138
12814TIP3    H159857   2.534   5.866  11.773 -0.8428  0.4625  0.1847
12814TIP3    H259858   2.602   5.852  11.907  0.6579 -0.7748 -0.6773
12815TIP3   OH259859   0.340   1.357  16.704  0.3588 -0.4053 -0.1978
12815TIP3    H159860   0.410   1.304  16.742 -0.4494 -1.3926 -0.0454
12815TIP3    H259861   0.310   1.413  16.775  1.0749  0.1132 -0.2974
12816TIP3   OH259862   1.914   3.970   0.195  0.3360 -0.1888 -0.4850
12816TIP3    H159863   1.869   3.931   0.270  1.6258 -0.8968 -0.0393
12816TIP3    H259864   1.877   3.925   0.118  0.8398 -1.3616 -0.0707
12817TIP3   OH259865   5.136   4.632   1.807 -0.2788  0.2328 -0.2200
12817TIP3    H159866   5.064   4.626   1.744 -1.4025 -0.5938  1.0900
12817TIP3    H259867   5.095   4.663   1.887  0.7895 -0.4248  0.6033
12818TIP3   OH259868   6.653   6.380   5.257 -0.1819 -0.1554  0.1162
12818TIP3    H159869   6.597   6.319   5.305  1.1020 -0.4914  1.2541
12818TIP3    H259870   6.736   6.380   5.305  1.1176 -0.3298 -1.9895
12819TIP3   OH259871   2.748   5.581   6.413  0.6305 -0.0061 -0.2933
12819TIP3    H159872   2.672   5.567   6.357  0.2715 -0.6976  0.3325
12819TIP3    H259873   2.778   5.492   6.434  1.1709  0.2521  0.0418
12820TIP3   OH259874   6.678   2.225   5.325 -0.2516 -0.6039 -0.4613
12820TIP3    H159875   6.704   2.300   5.378 -1.2166  0.0413 -0.8718
12820TIP3    H259876   6.758   2.173   5.317  0.3940  0.2841 -0.0115
12821TIP3   OH259877   2.288   2.469   1.939 -0.3117  0.5846 -0.3150
12821TIP3    H159878   2.230   2.541   1.914  0.2814  0.5475 -1.9368
12821TIP3    H259879   2.252   2.393   1.895  0.4276  0.3825 -0.5917
12822TIP3   OH259880   2.420   4.015  12.319 -0.2888 -0.1249 -0.0155
12822TIP3    H159881   2.456   4.040  12.234 -0.5386  0.4857  0.0556
12822TIP3    H259882   2.395   3.923  12.309  0.7158 -0.3856 -0.2535
12823TIP3   OH259883   1.630   6.539   1.222 -0.5003 -0.3030 -0.2129
12823TIP3    H159884   1.647   6.588   1.302  1.0131  0.1998 -0.8199
12823TIP3    H259885   1.646   6.448   1.245  1.5852 -0.0089 -0.3348
12824TIP3   OH259886   3.443   0.542   0.558 -0.3419 -0.1191 -0.4304
12824TIP3    H159887   3.399   0.470   0.513 -1.1271  0.9160 -1.3656
12824TIP3    H259888   3.385   0.564   0.631 -0.1868 -0.3033 -0.2482
12825TIP3   OH259889   4.108   3.030  13.344  0.2509 -0.2822  0.3852
12825TIP3    H159890   4.132   3.043  13.253  0.3140  1.6071  0.6270
12825TIP3    H259891   4.120   2.936  13.359  1.8281 -0.3741 -1.0941
12826TIP3   OH259892   4.883   0.836   3.828  0.1593 -0.1746 -0.2052
12826TIP3    H159893   4.801   0.852   3.780  0.6605 -1.8347 -1.7578
12826TIP3    H259894   4.950   0.832   3.759  1.6511  1.5869  1.0676
12827TIP3   OH259895   5.987   4.174   3.293 -0.4541  0.0784 -0.1485
12827TIP3    H159896   6.079   4.173   3.268 -0.3650 -2.0160  0.0787
12827TIP3    H259897   5.971   4.086   3.327 -1.6352  1.4315  3.2153
12828TIP3   OH259898   6.120   3.507  10.745 -0.2463  0.7792  0.0455
12828TIP3    H159899   6.166   3.578  10.788  0.1053  0.5582  0.0376
12828TIP3    H259900   6.165   3.428  10.773 -1.8671  0.3626  1.6894
12829TIP3   OH259901   2.227   0.229  15.506 -0.7213 -0.2829  0.2079
12829TIP3    H159902   2.145   0.188  15.479 -0.6376 -1.4650  1.6056
12829TIP3    H259903   2.280   0.232  15.427 -1.7753 -0.3425 -0.5141
12830TIP3   OH259904   4.409   5.904  12.848 -0.2809  0.0746  0.9591
12830TIP3    H159905   4.430   5.995  12.872  0.8154 -0.3120  1.5545
12830TIP3    H259906   4.398   5.860  12.932  2.5638 -1.0719  0.8338
12831TIP3   OH259907   0.336   1.337  15.339 -0.3156  0.1434 -0.2934
12831TIP3    H159908   0.373   1.307  15.422 -1.3104 -0.5474 -0.0884
12831TIP3    H259909   0.298   1.258  15.300  0.7314  0.3139 -1.7361
12832TIP3   OH259910   3.857   5.101  15.672  0.0930 -0.3039  0.3059
12832TIP3    H159911   3.824   5.181  15.631  2.4171  0.2976 -0.5759
12832TIP3    H259912   3.835   5.031  15.610  0.4474  0.0823 -0.2654
12833TIP3   OH259913   4.499   0.647   5.765  0.1918  0.0407 -0.5279
12833TIP3    H159914   4.491   0.561   5.724 -2.0682  0.3989 -0.9875
12833TIP3    H259915   4.590   0.673   5.749  2.3133 -3.9335  3.2817
12834TIP3   OH259916   6.298   4.303   2.958 -0.5341  0.1236 -0.0047
12834TIP3    H159917   6.274   4.215   2.930  3.2334 -0.8014 -0.9224
12834TIP3    H259918   6.282   4.358   2.881 -1.3474 -0.0586  0.0270
12835TIP3   OH259919   5.963   4.962  17.242  0.4115  0.3577  0.1177
12835TIP3    H159920   6.001   4.925  17.162  0.4088  1.9648 -0.6649
12835TIP3    H259921   5.950   4.887  17.299  1.9297 -0.6400 -0.7631
12836TIP3   OH259922   6.065   5.968  17.433  0.1350  0.2372  0.0356
12836TIP3    H159923   5.980   5.953  17.391  0.6957 -1.8443 -0.4704
12836TIP3    H259924   6.080   5.890  17.486  1.8432  0.4658 -0.0578
12837TIP3   OH259925   5.547   4.168   6.233  0.3828 -0.2243 -0.7215
12837TIP3    H159926   5.590   4.170   6.147  1.6644 -1.3596 -0.1373
12837TIP3    H259927   5.602   4.111   6.286 -0.6984  0.0143  0.7089
12838TIP3   OH259928   6.545   3.831  14.182 -0.1347 -0.3237 -0.3528
12838TIP3    H159929   6.627   3.834  14.134  0.1137  0.2999  0.0920
12838TIP3    H259930   6.570   3.849  14.273 -0.4527 -2.4078  0.2102
12839TIP3   OH259931   4.550   4.644  17.134  0.3082  0.1331 -0.2672
12839TIP3    H159932   4.476   4.594  17.101  0.8531 -1.4779  0.8358
12839TIP3    H259933   4.615   4.641  17.063  1.5188 -3.3888  0.8127
12840TIP3   OH259934   2.278   3.392  14.271  0.3800  0.1395 -0.1592
12840TIP3    H159935   2.331   3.469  14.291  0.9183 -0.0124 -0.9377
12840TIP3    H259936   2.195   3.427  14.238  0.6735  0.3893 -0.6369
12841TIP3   OH259937   6.534   1.210   6.987 -0.1935  0.1375  0.4111
12841TIP3    H159938   6.444   1.236   7.007 -1.0949 -0.4965 -2.3888
12841TIP3    H259939   6.528   1.117   6.966  0.7157  0.4701 -1.5556
12842TIP3   OH259940   3.454   1.212  13.889  0.1771  0.5060 -0.2134
12842TIP3    H159941   3.483   1.170  13.970 -0.3255  0.4944 -0.0343
12842TIP3    H259942   3.514   1.179  13.822  1.9398  2.1113  0.4779
12843TIP3   OH259943   1.151   1.568  17.206  0.7532  0.0842  0.0700
12843TIP3    H159944   1.226   1.551  17.149  1.4850 -0.1526  1.0548
12843TIP3    H259945   1.074   1.555  17.150  1.4383  1.4593 -1.2638
12844TIP3   OH259946   5.756   2.647   0.201 -0.4285  0.4807 -0.2571
12844TIP3    H159947   5.850   2.647   0.182 -0.1556  0.9354  0.9846
12844TIP3    H259948   5.744   2.723   0.259 -1.4829  0.1446 -0.0208
12845TIP3   OH259949   0.317   3.393  11.511 -0.2085  0.4487  0.1191
12845TIP3    H159950   0.379   3.349  11.453 -0.8438 -0.2291 -0.0591
12845TIP3    H259951   0.355   3.384  11.598  0.8273  1.6046 -0.1887
12846TIP3   OH259952   5.032   2.322   2.380  0.7588  0.6139 -0.1124
12846TIP3    H159953   4.964   2.389   2.370  1.3687  1.1853 -0.4891
12846TIP3    H259954   4.988   2.241   2.355 -0.5369  0.5374  2.1339
12847TIP3   OH259955   2.119   5.325   6.122  0.1008 -0.0043 -0.0463
12847TIP3    H159956   2.085   5.346   6.209  1.5299 -0.1603  0.5711
12847TIP3    H259957   2.148   5.234   6.128  1.3786  0.3584 -0.2668
12848TIP3   OH259958   3.392   3.187  14.671  0.7676 -0.1860  0.0453
12848TIP3    H159959   3.417   3.100  14.640  0.8749 -0.4756  0.9198
12848TIP3    H259960   3.400   3.243  14.594  3.2235 -0.4485  0.0262
12849TIP3   OH259961   6.448   2.997  17.359 -0.1447 -0.3893  0.1057
12849TIP3    H159962   6.451   3.089  17.383 -1.6482 -0.2886  0.0558
12849TIP3    H259963   6.386   2.993  17.287  1.5204 -1.1842 -1.3465
12850TIP3   OH259964   3.330   5.059   3.809 -0.6214 -0.4207 -0.4294
12850TIP3    H159965   3.275   4.991   3.848 -0.9199 -0.3490 -0.7238
12850TIP3    H259966   3.268   5.127   3.783 -0.4635 -0.6013 -1.3160
12851TIP3   OH259967   0.761   4.555   3.141  0.1886  0.6010 -0.3246
12851TIP3    H159968   0.782   4.484   3.201  1.0700  0.0776 -1.2049
12851TIP3    H259969   0.843   4.605   3.133 -0.0262  0.8909 -0.7810
12852TIP3   OH259970   1.108   5.945   2.493  0.1095 -0.5888 -0.1569
12852TIP3    H159971   1.080   6.028   2.456 -1.8542  0.3216  2.9727
12852TIP3    H259972   1.034   5.886   2.479 -0.4878 -0.3515  1.6997
12853TIP3   OH259973   3.239   4.510   3.565  0.3870  0.6770  0.0919
12853TIP3    H159974   3.300   4.567   3.518  2.4772 -1.2419  0.3433
12853TIP3    H259975   3.279   4.496   3.651 -0.1579 -0.9638  0.1214
12854TIP3   OH259976   1.003   0.289  13.100 -0.0660 -0.3278 -0.1853
12854TIP3    H159977   1.023   0.196  13.089  0.4258 -0.0717 -1.7502
12854TIP3    H259978   0.939   0.308  13.032 -1.5302  0.1136  1.2712
12855TIP3   OH259979   6.239   3.568  11.783 -0.4174  0.3387  0.0276
12855TIP3    H159980   6.260   3.661  11.768 -1.2889  0.6223  0.5286
12855TIP3    H259981   6.301   3.541  11.851  0.6497  0.2153 -0.9678
12856TIP3   OH259982   2.871   3.578   4.661 -0.2289 -0.2663  0.0005
12856TIP3    H159983   2.896   3.649   4.720 -0.8041 -1.3679  1.6717
12856TIP3    H259984   2.779   3.597   4.639  0.2169  0.5734 -1.2509
12857TIP3   OH259985   5.269   4.185  15.309 -0.8409 -0.3719  0.1698
12857TIP3    H159986   5.278   4.093  15.282 -2.7135 -0.3301 -0.7365
12857TIP3    H259987   5.206   4.222  15.248  0.3108  1.7062  0.1542
12858TIP3   OH259988   5.580   3.634   5.225 -0.0285  0.7847  0.1247
12858TIP3    H159989   5.579   3.574   5.300  1.1584  0.5291 -0.0436
12858TIP3    H259990   5.617   3.582   5.153  0.5975  1.5844 -0.1433
12859TIP3   OH259991   5.588   3.702   1.096 -0.1082  0.3921 -0.3236
12859TIP3    H159992   5.496   3.716   1.074  0.6989  0.8053 -3.9761
12859TIP3    H259993   5.630   3.678   1.013  3.3113  1.3456  0.9638
12860TIP3   OH259994   5.646   4.614   0.805 -0.7781 -0.6835 -0.3990
12860TIP3    H159995   5.730   4.643   0.770 -1.4863  1.6595 -0.3226
12860TIP3    H259996   5.586   4.685   0.785 -2.1520 -1.1244  1.8448
12861TIP3   OH259997   0.889   0.223  15.649  0.3557 -0.0800  0.0543
12861TIP3    H159998   0.889   0.280  15.572  1.2536  0.2195  0.2643
12861TIP3    H259999   0.856   0.139  15.618  0.3275  0.1575 -0.5639
12862TIP3   OH260000   6.546   5.886  13.964 -0.1624  0.2270  0.1688
12862TIP3    H160001   6.568   5.972  14.001 -0.8195  0.4040  0.1590
12862TIP3    H260002   6.629   5.854  13.928  0.6227 -0.1904  2.2392
12863TIP3   OH260003   2.511   1.644  10.620 -0.4060  0.4333 -0.2708
12863TIP3    H160004   2.577   1.708  10.593  0.0520  0.4130  0.7646
12863TIP3    H260005   2.535   1.620  10.709 -2.0306  0.7240  0.2899
12864TIP3   OH260006   4.676   6.070  11.595 -0.3693 -0.6853  0.2894
12864TIP3    H160007   4.621   6.148  11.599  0.2247 -0.1927 -0.7974
12864TIP3    H260008   4.723   6.077  11.512 -0.5782 -2.3908 -0.0187
12865TIP3   OH260009   3.250   6.573   0.054 -0.0900  0.4049 -0.0266
12865TIP3    H160010   3.328   6.542   0.008 -0.2618  0.4526 -0.3576
12865TIP3    H260011   3.227   6.502   0.114 -0.7465 -0.3244 -1.1097
12866TIP3   OH260012   2.138   2.669  11.162 -0.0167 -0.2054 -0.0015
12866TIP3    H160013   2.055   2.712  11.182  0.1540  0.7485 -1.2273
12866TIP3    H260014   2.132   2.584  11.207 -1.8296 -0.3383 -0.4061
12867TIP3   OH260015   5.645   6.060   2.941 -0.0867  0.9596  0.5535
12867TIP3    H160016   5.641   6.116   3.018 -1.4652  0.1073  1.1341
12867TIP3    H260017   5.567   6.006   2.946  0.6502 -0.2817 -0.5528
12868TIP3   OH260018   3.165   2.004   0.865  0.2584 -0.0902  0.7604
12868TIP3    H160019   3.251   2.046   0.860  0.1774 -0.0584 -1.5860
12868TIP3    H260020   3.108   2.071   0.904  0.4517  1.5336 -1.5627
12869TIP3   OH260021   5.979   3.698  12.212  0.5886 -0.7295  0.0970
12869TIP3    H160022   5.890   3.668  12.233  0.7230 -1.0057  0.2689
12869TIP3    H260023   5.998   3.657  12.128 -0.1272  0.7390 -0.8330
12870TIP3   OH260024   3.475   3.535   1.991 -0.4654 -0.4415 -0.2276
12870TIP3    H160025   3.450   3.458   2.043 -1.7562  0.6213  0.7932
12870TIP3    H260026   3.525   3.590   2.051 -1.3038  0.4381 -0.3021
12871TIP3   OH260027   0.533   0.118   0.071  0.2726 -0.1840  0.1908
12871TIP3    H160028   0.461   0.165   0.113  1.6368  0.8858  1.4612
12871TIP3    H260029   0.556   0.049   0.132  1.2008  0.3460  0.4560
12872TIP3   OH260030   4.502   4.414   6.767 -0.8542 -0.4765  0.5443
12872TIP3    H160031   4.419   4.460   6.779 -0.7209 -0.0392 -0.1625
12872TIP3    H260032   4.521   4.423   6.673 -0.7660 -1.8722  0.4074
12873TIP3   OH260033   3.630   6.145  15.322  0.0686  0.1803  0.0210
12873TIP3    H160034   3.676   6.136  15.238 -0.1797 -1.3214  0.0163
12873TIP3    H260035   3.678   6.087  15.381 -1.2520 -0.7045  0.2486
12874TIP3   OH260036   1.559   0.736  15.774 -0.0026 -0.1394  0.1347
12874TIP3    H160037   1.526   0.779  15.853  0.3583 -0.2621  0.3556
12874TIP3    H260038   1.481   0.717  15.722 -0.3511 -1.1407  1.0090
12875TIP3   OH260039   5.863   3.837  12.783 -0.2033 -0.1556 -0.4760
12875TIP3    H160040   5.900   3.916  12.823  0.8020 -0.6872 -0.3267
12875TIP3    H260041   5.814   3.870  12.707  0.6965  0.5579 -0.7630
12876TIP3   OH260042   0.756   1.189   4.957 -0.2746 -0.1101 -0.5534
12876TIP3    H160043   0.737   1.136   5.034  0.7916  0.3063  0.0095
12876TIP3    H260044   0.686   1.167   4.895 -1.0500 -0.5653  0.4624
12877TIP3   OH260045   3.483   4.138   3.719  0.2784 -0.1301  0.6845
12877TIP3    H160046   3.390   4.149   3.698  1.0315  2.2899 -1.9585
12877TIP3    H260047   3.503   4.047   3.695 -1.0716 -0.2136 -0.2272
12878TIP3   OH260048   5.070   1.326  11.774  0.1281 -0.3068 -0.0907
12878TIP3    H160049   5.102   1.414  11.754 -0.0756 -0.3476 -0.5992
12878TIP3    H260050   5.015   1.338  11.852  0.6925 -0.1053  0.2857
12879TIP3   OH260051   0.667   1.008   2.887  0.9006 -0.6351 -0.1108
12879TIP3    H160052   0.637   0.935   2.942  2.8983 -1.4346  0.0038
12879TIP3    H260053   0.714   0.966   2.815 -0.7921  0.4402 -1.9470
12880TIP3   OH260054   0.976   4.728   6.466  0.1765 -0.6856  0.2251
12880TIP3    H160055   0.994   4.705   6.557  0.4560 -1.0871  0.0698
12880TIP3    H260056   0.883   4.750   6.465  0.5442  1.0829  0.9614
12881TIP3   OH260057   5.692   1.246   3.521 -0.0076 -0.2306  0.6451
12881TIP3    H160058   5.627   1.176   3.515  0.2236 -0.4250  0.3802
12881TIP3    H260059   5.776   1.201   3.523  0.1149  0.0100  1.2423
12882TIP3   OH260060   4.627   0.561  15.694 -0.2516  0.3423 -0.5615
12882TIP3    H160061   4.589   0.626  15.754 -0.7034  0.5119 -1.0269
12882TIP3    H260062   4.640   0.609  15.613  0.0181  0.0145 -0.7108
12883TIP3   OH260063   4.557   2.936   4.506  0.3092 -0.5610  0.2305
12883TIP3    H160064   4.520   2.848   4.516  1.6970 -1.1744  0.2085
12883TIP3    H260065   4.588   2.959   4.594 -0.2667  0.0195  0.2909
12884TIP3   OH260066   5.020   1.787   3.730  0.3361 -0.2017 -0.3683
12884TIP3    H160067   4.963   1.790   3.807  0.3292 -0.7476 -0.3500
12884TIP3    H260068   5.090   1.727   3.754  0.3587 -0.3390 -0.7716
12885TIP3   OH260069   2.978   4.355   1.569  0.7783 -0.5189 -0.3477
12885TIP3    H160070   3.016   4.276   1.530 -0.3594 -0.5763 -1.4044
12885TIP3    H260071   3.041   4.380   1.636  1.4468 -2.0043 -0.3585
12886TIP3   OH260072   4.272   0.100   3.898  0.0490 -0.0487  0.1353
12886TIP3    H160073   4.245   0.090   3.806  0.5652 -0.3162  0.0058
12886TIP3    H260074   4.251   0.015   3.938 -0.3467  0.1304  0.3132
12887TIP3   OH260075   2.099   2.857   6.075  0.6452  0.6521  0.0793
12887TIP3    H160076   2.019   2.899   6.045  0.1300  0.3980  1.0303
12887TIP3    H260077   2.074   2.817   6.158  1.0826 -1.6158 -0.8222
12888TIP3   OH260078   0.845   5.467   2.474  0.2162 -0.3826 -0.3999
12888TIP3    H160079   0.911   5.421   2.422  0.7357 -0.5974  0.4289
12888TIP3    H260080   0.827   5.408   2.548 -0.7074 -0.2048 -0.4683
12889TIP3   OH260081   2.407   2.976  12.407  0.3475 -0.6314  0.0995
12889TIP3    H160082   2.407   3.040  12.478 -0.9756 -0.4589 -0.0193
12889TIP3    H260083   2.468   2.908  12.436  0.6353 -0.0435  0.9136
12890TIP3   OH260084   0.081   4.578   2.748 -0.4064  0.2685  0.5101
12890TIP3    H160085   0.035   4.536   2.676 -0.6227 -1.8750  1.8033
12890TIP3    H260086   0.157   4.620   2.708 -0.7518 -0.4967 -1.0053
12891TIP3   OH260087   5.006   5.059   5.779  0.4818 -0.0839  0.0824
12891TIP3    H160088   4.971   5.106   5.855 -0.1914  1.1141 -0.9336
12891TIP3    H260089   5.034   4.975   5.814 -0.2224  0.2696  1.5809
12892TIP3   OH260090   6.194   5.869  16.954 -0.1917 -0.2502  0.1809
12892TIP3    H160091   6.239   5.936  17.005 -1.0476 -0.4820  1.2827
12892TIP3    H260092   6.232   5.786  16.983  0.0810 -0.3252 -0.3680
12893TIP3   OH260093   0.786   2.269  13.784 -0.1989 -0.1093  0.0549
12893TIP3    H160094   0.841   2.191  13.782  0.4613  0.2993 -3.2128
12893TIP3    H260095   0.836   2.332  13.836  1.3083 -0.5390 -0.8169
12894TIP3   OH260096   0.950   0.204   3.871 -0.5103  0.2636  0.2743
12894TIP3    H160097   0.873   0.150   3.853  1.1124 -2.4213  0.7934
12894TIP3    H260098   0.951   0.214   3.966 -1.1753  1.9306  0.1447
12895TIP3   OH260099   2.965   0.675  13.646  0.4055  0.5284 -0.2371
12895TIP3    H160100   2.960   0.649  13.554  1.4269  0.3956 -0.2686
12895TIP3    H260101   2.967   0.771  13.644 -0.5537  0.5494 -0.2912
12896TIP3   OH260102   5.688   3.909   0.412 -0.3229 -0.0277  0.4643
12896TIP3    H160103   5.753   3.955   0.360 -0.5801  0.8288  0.8821
12896TIP3    H260104   5.638   3.857   0.349  0.2309 -0.0571  0.0415
12897TIP3   OH260105   2.968   3.315  13.387  0.2367  0.5742  0.5340
12897TIP3    H160106   3.025   3.239  13.379 -3.1817 -2.1113 -0.4196
12897TIP3    H260107   2.972   3.338  13.480  1.5186 -0.6140  0.7984
12898TIP3   OH260108   1.496   2.062   1.044 -0.3285 -0.1592  0.1350
12898TIP3    H160109   1.521   1.990   1.102  0.4316 -1.3518 -1.5885
12898TIP3    H260110   1.407   2.085   1.071  0.3743  0.0872  2.4586
12899TIP3   OH260111   4.578   5.944   3.247  0.1504  0.0916  0.1007
12899TIP3    H160112   4.612   5.860   3.214  0.5910 -0.7199  2.4146
12899TIP3    H260113   4.548   5.990   3.169 -0.0478 -2.1929 -1.2731
12900TIP3   OH260114   0.485   1.263   3.305  1.0945  0.2808  0.3767
12900TIP3    H160115   0.406   1.209   3.299  0.5789  1.0669 -0.0105
12900TIP3    H260116   0.526   1.234   3.386  1.2785 -1.2802 -0.2287
12901TIP3   OH260117   0.263   4.144   4.032 -0.7095  0.0868 -0.8011
12901TIP3    H160118   0.349   4.112   4.007 -0.2825  0.1017  0.5785
12901TIP3    H260119   0.254   4.228   3.986  0.0683  0.1588 -0.8290
12902TIP3   OH260120   5.166   3.356  14.831 -0.5609 -0.4280 -0.5150
12902TIP3    H160121   5.216   3.431  14.798  1.4744 -2.1787 -1.6760
12902TIP3    H260122   5.108   3.331  14.759 -0.8854 -0.2697 -0.3106
12903TIP3   OH260123   5.725   0.579  11.205 -0.4331  0.7081  0.2718
12903TIP3    H160124   5.658   0.537  11.152 -1.5317  1.5723  0.9127
12903TIP3    H260125   5.796   0.597  11.144 -0.3713 -1.0699 -0.2277
12904TIP3   OH260126   5.977   3.071   5.596 -0.5126  0.5556  0.6746
12904TIP3    H160127   6.018   3.156   5.612 -2.1341  1.3888  0.6511
12904TIP3    H260128   5.938   3.047   5.679  1.3134 -1.0157  1.1454
12905TIP3   OH260129   0.559   2.024  10.680  0.1509  0.1524  0.0317
12905TIP3    H160130   0.621   2.097  10.677  0.7997 -0.4157 -0.7768
12905TIP3    H260131   0.537   2.015  10.773  1.6661  0.0671  0.4098
12906TIP3   OH260132   6.432   1.003  15.753  0.3576  0.4607  0.7657
12906TIP3    H160133   6.421   0.971  15.663 -1.4560  0.7955  0.8354
12906TIP3    H260134   6.399   1.093  15.751  1.2508  0.8319  1.5680
12907TIP3   OH260135   3.074   4.017   6.271 -0.7313  0.3781 -0.0415
12907TIP3    H160136   3.120   3.975   6.199  0.8744 -0.8638  1.6303
12907TIP3    H260137   3.141   4.068   6.316 -1.1020 -0.7836  1.9512
12908TIP3   OH260138   5.156   6.631   4.504  0.3022  0.0736  0.3681
12908TIP3    H160139   5.239   6.662   4.467  0.3737 -1.7453 -1.1522
12908TIP3    H260140   5.181   6.591   4.587  1.1385 -1.2605 -0.4834
12909TIP3   OH260141   1.740   1.381   2.306  0.0645  0.0989 -0.3162
12909TIP3    H160142   1.801   1.431   2.252  0.9719 -0.7083 -0.0681
12909TIP3    H260143   1.654   1.397   2.267  0.2783  2.0498 -0.0770
12910TIP3   OH260144   2.855   4.003  10.825 -0.3288  0.4986 -0.5562
12910TIP3    H160145   2.923   3.963  10.879 -0.8318  0.8576  0.3715
12910TIP3    H260146   2.885   4.092  10.809 -1.1851  1.0981  1.0062
12911TIP3   OH260147   3.008   5.440   0.357 -0.4461 -0.0516 -0.2755
12911TIP3    H160148   2.964   5.355   0.366 -2.1125  0.8301  0.3866
12911TIP3    H260149   3.050   5.455   0.441 -1.0647  0.2392 -0.0088
12912TIP3   OH260150   0.644   0.715   0.860 -0.0232  0.4055 -0.1109
12912TIP3    H160151   0.674   0.630   0.827 -1.2001 -0.3562  0.6772
12912TIP3    H260152   0.630   0.700   0.954 -2.7122  0.7057 -0.4018
12913TIP3   OH260153   3.871   1.342   2.294  0.2558  0.3600  0.0946
12913TIP3    H160154   3.879   1.288   2.373 -2.0120 -0.2416 -0.0103
12913TIP3    H260155   3.911   1.289   2.225  0.3934 -0.0444  0.4771
12914TIP3   OH260156   2.914   5.999   4.395 -0.0082 -0.1163  0.5126
12914TIP3    H160157   2.892   6.020   4.486  0.0762  1.4832  0.2076
12914TIP3    H260158   3.007   6.020   4.388 -0.3885  1.5158 -0.3452
12915TIP3   OH260159   4.040   0.600  14.053  0.0089 -0.1913 -0.2838
12915TIP3    H160160   4.121   0.643  14.025  0.6070 -1.6952 -0.9585
12915TIP3    H260161   4.053   0.508  14.032 -2.1048 -0.4055 -0.9445
12916TIP3   OH260162   0.614   0.147   1.295 -0.4559  0.3877 -0.6153
12916TIP3    H160163   0.651   0.220   1.346  0.0158  0.7148 -1.4003
12916TIP3    H260164   0.552   0.189   1.235  0.2683  0.2206 -1.4903
12917TIP3   OH260165   4.504   2.382   3.535  0.3430 -0.1633  0.0946
12917TIP3    H160166   4.584   2.334   3.514 -0.3018 -2.3267  2.2016
12917TIP3    H260167   4.520   2.418   3.622 -0.8304 -0.2852  0.3758
12918TIP3   OH260168   4.629   6.511  13.531 -0.4091  0.1404 -0.3332
12918TIP3    H160169   4.585   6.546  13.454  1.1021  0.6939 -0.9797
12918TIP3    H260170   4.612   6.416  13.527  0.4708  0.0245 -1.9135
12919TIP3   OH260171   2.506   4.918   0.097  0.1073  0.1719  0.5869
12919TIP3    H160172   2.463   4.832   0.092  2.2098 -1.1286  2.8074
12919TIP3    H260173   2.433   4.980   0.100 -1.5061 -1.5693 -0.1154
12920TIP3   OH260174   1.600   3.212  17.325  0.1053  0.1254 -0.0150
12920TIP3    H160175   1.527   3.247  17.374 -1.2498 -2.9517  0.3700
12920TIP3    H260176   1.568   3.208  17.234 -0.7897 -2.3508  0.3359
12921TIP3   OH260177   3.036   0.592   3.187 -0.2190 -0.0257 -0.2542
12921TIP3    H160178   3.068   0.675   3.222  1.3162 -0.4095 -0.6540
12921TIP3    H260179   3.116   0.545   3.161 -1.1062 -1.2638 -0.8334
12922TIP3   OH260180   2.083   0.201  15.248 -0.7135  0.3235 -0.1425
12922TIP3    H160181   2.093   0.107  15.266  0.3722  0.7218  1.6370
12922TIP3    H260182   2.009   0.228  15.303  0.4799  0.9161  1.2522
12923TIP3   OH260183   1.106   2.875  12.461  0.4356  0.4002  0.4999
12923TIP3    H160184   1.115   2.970  12.466  0.3111  0.4671 -0.4453
12923TIP3    H260185   1.165   2.842  12.529 -0.3087  1.1808  1.5561
12924TIP3   OH260186   6.566   6.548   3.235  0.1137 -0.5490 -0.1460
12924TIP3    H160187   6.626   6.474   3.235  1.4330  0.4885 -1.1668
12924TIP3    H260188   6.622   6.625   3.241 -1.2096  0.4053  0.5764
12925TIP3   OH260189   0.637   1.282   4.412 -0.6485  0.0320 -0.1174
12925TIP3    H160190   0.649   1.364   4.365  0.5564  0.1920  0.4273
12925TIP3    H260191   0.547   1.256   4.393 -0.8365  1.1424 -0.8212
12926TIP3   OH260192   3.511   3.197   5.336  0.5841  0.1661  0.0798
12926TIP3    H160193   3.520   3.258   5.410  0.0129  1.6199 -1.0073
12926TIP3    H260194   3.467   3.120   5.373  2.0218  0.0333  1.6597
12927TIP3   OH260195   2.784   2.807   3.261  1.2312 -0.0451  0.3935
12927TIP3    H160196   2.782   2.737   3.196 -1.3247  0.4136 -0.1249
12927TIP3    H260197   2.837   2.875   3.221 -1.1354  0.6604 -1.7955
12928TIP3   OH260198   2.603   2.897  15.691  0.1692  0.3974 -0.1508
12928TIP3    H160199   2.646   2.978  15.719  1.0000 -0.1644  0.2180
12928TIP3    H260200   2.675   2.840  15.664 -0.4775  0.2677 -1.7601
12929TIP3   OH260201   5.277   0.793   2.564 -0.0026 -0.1091 -0.1491
12929TIP3    H160202   5.363   0.814   2.601 -0.5904  0.0152  1.1838
12929TIP3    H260203   5.257   0.867   2.506  0.9687 -0.3572 -0.8362
12930TIP3   OH260204   1.165   5.098   0.478 -0.0406  0.3479 -0.2109
12930TIP3    H160205   1.078   5.105   0.437 -0.1249 -1.0334 -0.3032
12930TIP3    H260206   1.225   5.085   0.404  0.0618 -0.1060 -0.0497
12931TIP3   OH260207   3.700   1.093   1.823 -0.1309 -0.0307  0.5209
12931TIP3    H160208   3.780   1.041   1.837  1.9183  3.0404  1.1059
12931TIP3    H260209   3.708   1.125   1.733  0.0752  1.4523  1.0430
12932TIP3   OH260210   3.972   2.283   2.943 -0.1712  0.3117  0.1817
12932TIP3    H160211   4.037   2.276   2.873 -1.2290 -1.3600 -0.7048
12932TIP3    H260212   3.897   2.325   2.902 -0.3662  0.4325  0.6528
12933TIP3   OH260213   4.341   3.145  13.437  0.6051  0.2147 -0.1635
12933TIP3    H160214   4.313   3.106  13.520  0.0381  0.2466 -0.3335
12933TIP3    H260215   4.262   3.142  13.381  1.5075 -1.7831 -1.4446
12934TIP3   OH260216   5.702   4.839  14.122  1.0331 -0.2120 -0.1726
12934TIP3    H160217   5.615   4.806  14.100  1.0034 -0.2842  0.0532
12934TIP3    H260218   5.735   4.876  14.040  1.5629 -1.8731 -0.7607
12935TIP3   OH260219   5.158   4.838   3.172  0.2065 -0.1533  0.1492
12935TIP3    H160220   5.150   4.889   3.252  1.2792  3.5236 -1.8354
12935TIP3    H260221   5.113   4.891   3.105  1.5271 -1.7488 -2.1460
12936TIP3   OH260222   6.356   1.921  14.568  0.6522 -0.0915 -0.0109
12936TIP3    H160223   6.275   1.902  14.615  1.0435 -0.9428  0.3380
12936TIP3    H260224   6.425   1.882  14.621  1.0880 -1.2996 -1.3741
12937TIP3   OH260225   3.689   4.131   1.203 -0.4363 -0.6485  0.1036
12937TIP3    H160226   3.621   4.159   1.143 -1.4082 -0.9698  1.0142
12937TIP3    H260227   3.739   4.210   1.222  0.1340 -0.6247 -1.4044
12938TIP3   OH260228   4.192   4.020  13.661  0.5685  0.1558 -0.1752
12938TIP3    H160229   4.243   3.999  13.739 -1.3354  1.7640  1.6126
12938TIP3    H260230   4.127   3.951  13.655  1.5108 -0.6916 -1.1834
12939TIP3   OH260231   1.374   0.885  14.428 -0.0973 -0.2083 -0.4163
12939TIP3    H160232   1.340   0.904  14.516  2.8601 -0.5336  0.9167
12939TIP3    H260233   1.394   0.972  14.391 -1.8786 -0.0388 -1.0570
12940TIP3   OH260234   3.495   4.442  12.402 -0.2576  0.8048 -0.1449
12940TIP3    H160235   3.429   4.447  12.471 -0.9458  1.3647 -0.8292
12940TIP3    H260236   3.457   4.490  12.328  0.2332 -0.2434 -1.1078
12941TIP3   OH260237   5.401   2.199   3.067  0.3314  0.9971  0.2592
12941TIP3    H160238   5.457   2.208   2.990  0.3263  0.0880  0.1334
12941TIP3    H260239   5.331   2.139   3.038 -0.0352  1.1767  0.7696
12942TIP3   OH260240   0.942   4.105   2.421 -0.3075  0.0556  0.5435
12942TIP3    H160241   0.906   4.036   2.477 -1.2808  0.7838  0.8524
12942TIP3    H260242   0.920   4.078   2.332 -0.4938 -0.1352  0.6471
12943TIP3   OH260243   2.877   1.799  17.004 -0.5849 -0.5714  0.1656
12943TIP3    H160244   2.851   1.884  16.969 -2.1776 -0.2995  1.8609
12943TIP3    H260245   2.910   1.750  16.928 -2.8453  0.3373 -1.4969
12944TIP3   OH260246   5.816   1.640   1.251  0.7811 -0.6624  0.2505
12944TIP3    H160247   5.760   1.576   1.207 -0.2807  1.1495 -1.2074
12944TIP3    H260248   5.824   1.608   1.341  0.7954 -3.1079 -0.5705
12945TIP3   OH260249   3.186   5.106   3.256 -0.1610 -0.1389 -0.0578
12945TIP3    H160250   3.165   5.131   3.346 -0.5367  0.5552 -0.3390
12945TIP3    H260251   3.193   5.189   3.209 -0.6880 -0.5301 -0.8326
12946TIP3   OH260252   5.062   4.184  14.973 -0.5158  0.8850  0.6771
12946TIP3    H160253   5.053   4.252  15.040 -0.7360  1.6715 -0.1357
12946TIP3    H260254   5.093   4.230  14.896 -1.4117  0.2011 -0.1170
12947TIP3   OH260255   2.952   5.225  17.253  0.2012  0.2234  0.4754
12947TIP3    H160256   2.956   5.131  17.271  1.5596  0.1805  0.0761
12947TIP3    H260257   2.924   5.230  17.162 -1.7806  0.2985  1.0309
12948TIP3   OH260258   1.183   0.122  15.941 -0.1567  0.5955  0.1995
12948TIP3    H160259   1.202   0.089  16.029 -2.7643 -0.3147  0.5146
12948TIP3    H260260   1.116   0.189  15.955  0.6625  1.6977 -0.9794
12949TIP3   OH260261   3.472   4.961  10.794  0.0608  0.3200  0.8377
12949TIP3    H160262   3.405   4.989  10.731  0.6719  0.3168  0.1748
12949TIP3    H260263   3.530   5.037  10.802  0.7770 -0.1547  0.3093
12950TIP3   OH260264   2.343   6.613   2.783 -0.4316 -0.4555  0.3252
12950TIP3    H160265   2.427   6.581   2.749 -0.4915  0.2347 -0.4918
12950TIP3    H260266   2.349   6.708   2.776 -0.6699 -0.3156  1.7588
12951TIP3   OH260267   5.660   3.088   3.585 -0.0826 -0.1772  0.3050
12951TIP3    H160268   5.587   3.121   3.533 -0.2445 -1.4550 -0.3160
12951TIP3    H260269   5.638   3.111   3.675 -0.5016  0.7836 -0.0259
12952TIP3   OH260270   5.589   1.879   1.652 -0.0159 -0.4893  0.0109
12952TIP3    H160271   5.507   1.873   1.702  0.1555 -1.3762  0.1936
12952TIP3    H260272   5.636   1.952   1.693  0.1884 -1.2871  1.2593
12953TIP3   OH260273   5.571   6.611  15.493  0.0332 -0.3883 -0.2044
12953TIP3    H160274   5.587   6.662  15.413 -1.3807 -0.3585 -0.4967
12953TIP3    H260275   5.656   6.610  15.538  0.2886  1.5825 -0.5514
12954TIP3   OH260276   2.195   1.681  12.707 -0.2529  0.3204 -0.4758
12954TIP3    H160277   2.133   1.653  12.775 -0.2396 -0.8863 -0.9460
12954TIP3    H260278   2.189   1.614  12.639  0.4858  0.9736 -1.2112
12955TIP3   OH260279   0.864   0.686  15.834 -0.3996 -0.3882  0.2594
12955TIP3    H160280   0.914   0.700  15.754 -1.3241 -0.6664 -0.3821
12955TIP3    H260281   0.901   0.749  15.896  0.1427  0.0323 -0.4686
12956TIP3   OH260282   3.892   0.345   2.721 -0.9356  0.0679  0.4676
12956TIP3    H160283   3.940   0.308   2.794 -1.0784  1.7198  1.4473
12956TIP3    H260284   3.930   0.432   2.709 -0.6565 -0.2753 -1.6959
12957TIP3   OH260285   4.542   3.169   0.038  0.6020  0.1591  0.4530
12957TIP3    H160286   4.511   3.113  -0.033  0.5141  0.5910  0.1423
12957TIP3    H260287   4.462   3.201   0.080  0.4461  3.0372 -1.7210
12958TIP3   OH260288   4.659   1.836  15.001 -0.4608 -0.2137 -0.1677
12958TIP3    H160289   4.675   1.919  14.956 -1.2670  0.5506  0.8984
12958TIP3    H260290   4.586   1.796  14.954 -1.2749  0.5617  0.4169
12959TIP3   OH260291   2.021   0.261   3.479 -0.1988  0.2568  0.3619
12959TIP3    H160292   1.960   0.311   3.426 -0.6173 -0.4401  0.1806
12959TIP3    H260293   2.098   0.250   3.423 -0.2880  0.2999  0.2301
12960TIP3   OH260294   4.712   5.137  13.950  0.9813  0.0030 -0.3400
12960TIP3    H160295   4.764   5.217  13.965  1.0215 -0.1570  0.4056
12960TIP3    H260296   4.720   5.122  13.856  0.9690  0.8866 -0.4984
12961TIP3   OH260297   3.129   5.964  16.849 -0.2962  0.1621  0.7497
12961TIP3    H160298   3.076   5.906  16.904  0.1443 -0.0015  1.0028
12961TIP3    H260299   3.094   6.051  16.866 -0.4731  0.0584  0.9298
12962TIP3   OH260300   1.932   3.461  10.996 -0.2217  0.4129  0.3557
12962TIP3    H160301   1.969   3.444  11.082 -0.9956 -0.3701  0.5402
12962TIP3    H260302   1.884   3.544  11.006  0.2354  0.6617  0.4971
12963TIP3   OH260303   6.052   4.899  15.309 -0.1306  0.0024 -0.1454
12963TIP3    H160304   6.042   4.967  15.376  1.0258 -1.0451  1.1472
12963TIP3    H260305   6.094   4.826  15.355  1.8145 -0.3302 -2.2798
12964TIP3   OH260306   4.194   2.980   2.102 -0.0419  0.6330  0.3905
12964TIP3    H160307   4.159   2.901   2.062 -1.1488  0.6092  1.3281
12964TIP3    H260308   4.190   3.046   2.033 -0.0603  0.1223 -0.1031
12965TIP3   OH260309   3.622   1.403   1.938  0.1176  0.3704 -0.1758
12965TIP3    H160310   3.625   1.463   2.013  1.1806 -0.5349  0.5432
12965TIP3    H260311   3.546   1.348   1.953 -0.8084  1.4424 -0.7897
12966TIP3   OH260312   5.021   5.346   5.202  0.0689 -0.0527 -0.2711
12966TIP3    H160313   5.030   5.429   5.248  0.2107 -0.2089 -0.0172
12966TIP3    H260314   4.941   5.307   5.237 -0.9457  0.7483 -1.6113
12967TIP3   OH260315   1.645   0.127  16.642 -0.6269  0.0358 -0.1101
12967TIP3    H160316   1.605   0.121  16.728  0.5858 -0.7098  0.4310
12967TIP3    H260317   1.690   0.043  16.630 -0.0752  0.4506 -1.1076
12968TIP3   OH260318   3.402   4.256   5.502 -0.1212  0.2774  0.3335
12968TIP3    H160319   3.484   4.207   5.496  0.3756  0.8019  2.1405
12968TIP3    H260320   3.344   4.199   5.551 -0.0988  0.7986  0.9762
12969TIP3   OH260321   1.901   4.345  16.693 -0.0770 -0.0072 -0.4076
12969TIP3    H160322   1.966   4.407  16.729  3.6948 -3.1189 -1.2198
12969TIP3    H260323   1.870   4.387  16.613  0.4787  1.8515  0.2845
12970TIP3   OH260324   0.253   2.642  13.125  0.4947 -0.9746 -0.0565
12970TIP3    H160325   0.222   2.614  13.212 -1.0439 -0.2221 -0.3337
12970TIP3    H260326   0.242   2.737  13.125  0.1992 -0.9962 -1.1716
12971TIP3   OH260327   5.803   5.960  17.329  0.2715  0.0644  0.6201
12971TIP3    H160328   5.748   5.909  17.270 -0.6197  1.1471  0.4824
12971TIP3    H260329   5.741   6.006  17.387  1.0744  0.3203  1.3016
12972TIP3   OH260330   5.968   5.096  13.148 -1.0191 -0.0023  0.0984
12972TIP3    H160331   5.986   5.188  13.131  2.6007 -0.5042  0.4814
12972TIP3    H260332   5.911   5.069  13.077 -0.4369  2.0394 -1.2297
12973TIP3   OH260333   1.461   1.540   5.828  0.1662  0.4166  0.1090
12973TIP3    H160334   1.474   1.630   5.858  0.6742 -0.0883  1.4779
12973TIP3    H260335   1.472   1.486   5.907  1.7793 -0.9961 -1.0048
12974TIP3   OH260336   6.604   4.362   4.923 -0.7560 -0.2834 -0.3155
12974TIP3    H160337   6.621   4.279   4.965  3.2738  0.4770 -0.1128
12974TIP3    H260338   6.632   4.349   4.832  1.0582  1.1216  0.0061
12975TIP3   OH260339   0.508   4.559  12.801 -0.0151 -0.2328  0.8483
12975TIP3    H160340   0.517   4.568  12.706 -0.5290 -0.0511  0.8148
12975TIP3    H260341   0.415   4.543  12.815  0.3016 -2.0485  1.1883
12976TIP3   OH260342   1.114   0.776  14.005  0.3438  0.0458  0.4914
12976TIP3    H160343   1.152   0.772  13.917 -0.0997  0.2753  0.2875
12976TIP3    H260344   1.071   0.691  14.016  1.5129 -0.5023  1.0019
12977TIP3   OH260345   6.273   5.637  10.721 -0.1770 -0.4314 -0.2262
12977TIP3    H160346   6.286   5.564  10.661  2.8640 -0.4545  0.2860
12977TIP3    H260347   6.299   5.603  10.807 -2.7211  0.1150  0.8591
12978TIP3   OH260348   2.927   2.439   0.266 -0.2757 -0.1963  0.0969
12978TIP3    H160349   2.926   2.408   0.357  0.0961 -0.6244 -0.0419
12978TIP3    H260350   2.914   2.360   0.214 -0.7814  0.0880 -0.2183
12979TIP3   OH260351   2.598   1.485  16.325  0.5556 -0.5382 -0.1897
12979TIP3    H160352   2.555   1.556  16.277 -0.0531 -1.0261 -0.3807
12979TIP3    H260353   2.567   1.405  16.282  0.0013 -0.9925  1.0252
12980TIP3   OH260354   2.059   0.466  14.693  0.8899  0.8496 -0.5281
12980TIP3    H160355   2.069   0.469  14.598 -0.3086 -1.1293 -0.7710
12980TIP3    H260356   1.979   0.517  14.710  0.1206 -0.2437 -0.7947
12981TIP3   OH260357   0.904   5.082  15.173  0.5529  0.0172 -0.7309
12981TIP3    H160358   0.888   5.113  15.262  1.2180  1.1281 -0.9837
12981TIP3    H260359   0.824   5.101  15.125  0.6627  0.6076 -0.6806
12982TIP3   OH260360   6.163   3.161   5.974  0.5149  0.6264 -0.0278
12982TIP3    H160361   6.222   3.237   5.976  0.6019  0.5449  1.9294
12982TIP3    H260362   6.189   3.108   6.048  0.2308 -1.1968 -1.1766
12983TIP3   OH260363   3.742   1.085   4.223  0.7129 -0.0326  0.0307
12983TIP3    H160364   3.796   1.006   4.216 -1.5992 -1.6304 -1.1071
12983TIP3    H260365   3.675   1.063   4.288 -1.2978  0.0513 -1.8716
12984TIP3   OH260366   5.544   2.368  12.105  0.2023  0.1765 -1.0900
12984TIP3    H160367   5.550   2.442  12.165 -1.4179  0.1507 -0.8323
12984TIP3    H260368   5.634   2.349  12.079  0.6879  1.8938 -0.7423
12985TIP3   OH260369   3.213   2.093   4.622  0.3714  0.0559 -0.3800
12985TIP3    H160370   3.149   2.095   4.551 -0.4392  1.5507  0.3461
12985TIP3    H260371   3.297   2.083   4.577 -0.2543 -0.7580 -1.4232
12986TIP3   OH260372   4.736   3.234   0.832 -0.2761 -0.4212 -0.3821
12986TIP3    H160373   4.801   3.169   0.807  0.7211  0.8866 -1.3193
12986TIP3    H260374   4.729   3.292   0.756 -0.5062  1.0579  0.7134
12987TIP3   OH260375   3.055   3.534   2.354 -0.0500 -0.3166 -0.2729
12987TIP3    H160376   3.078   3.606   2.296  1.9238  0.0634  0.9023
12987TIP3    H260377   3.111   3.461   2.325  0.9674 -0.1154  1.1260
12988TIP3   OH260378   5.557   0.611   1.910 -0.4210  0.0266 -0.4209
12988TIP3    H160379   5.639   0.589   1.865 -0.5105  1.3461 -1.2971
12988TIP3    H260380   5.504   0.655   1.843 -2.4708 -2.0574 -0.2914
12989TIP3   OH260381   4.752   1.978   4.302 -0.3875  0.0694  0.6531
12989TIP3    H160382   4.711   1.891   4.308 -1.7166  0.3644 -2.3690
12989TIP3    H260383   4.763   2.005   4.393 -1.7578 -2.4432  1.6790
12990TIP3   OH260384   1.196   6.468   5.324 -0.0786  0.3212  0.2605
12990TIP3    H160385   1.164   6.506   5.242 -0.1426  1.9783  1.0136
12990TIP3    H260386   1.134   6.499   5.391  0.3320 -0.4724  1.0303
12991TIP3   OH260387   1.097   3.813  13.342  0.3209 -0.3327 -0.9329
12991TIP3    H160388   1.020   3.781  13.390  0.3870  0.2008 -0.4640
12991TIP3    H260389   1.112   3.901  13.376  1.8784 -0.8731 -0.1146
12992TIP3   OH260390   4.569   5.141  10.592  0.4640 -0.1378  0.5305
12992TIP3    H160391   4.660   5.141  10.621  1.1023 -1.3117 -1.2681
12992TIP3    H260392   4.531   5.219  10.632  2.8456  1.6283 -0.3860
12993TIP3   OH260393   2.699   0.412   0.135 -0.1608  0.2861  0.7621
12993TIP3    H160394   2.723   0.401   0.227  2.0357 -1.2205  0.0946
12993TIP3    H260395   2.748   0.490   0.107  1.8728 -1.1313  0.1267
12994TIP3   OH260396   3.865   4.972   0.371  0.1079 -0.7990 -0.7594
12994TIP3    H160397   3.949   4.926   0.379  0.5258  0.2175  1.5281
12994TIP3    H260398   3.799   4.904   0.390  0.6788 -0.7344  1.7999
12995TIP3   OH260399   2.897   2.585  12.048  0.1400  0.0562  0.0878
12995TIP3    H160400   2.956   2.541  11.987  0.3672  1.4887 -0.7474
12995TIP3    H260401   2.882   2.671  12.011 -0.4376  0.6575  1.6104
12996TIP3   OH260402   0.871   6.037   1.741 -0.2891  0.4322  0.7743
12996TIP3    H160403   0.780   6.022   1.715  0.4507  1.3768 -3.1006
12996TIP3    H260404   0.879   5.996   1.826 -4.8878  2.2470  2.4119
12997TIP3   OH260405   3.139   6.277   5.537  0.1069 -0.1543  0.5131
12997TIP3    H160406   3.217   6.303   5.488  1.5210  1.9061  3.5615
12997TIP3    H260407   3.171   6.260   5.625 -2.7847 -0.0798  1.6717
12998TIP3   OH260408   6.492   6.564  10.883  0.1527  0.2019 -0.4032
12998TIP3    H160409   6.553   6.598  10.949 -2.0094  1.7163  0.9512
12998TIP3    H260410   6.545   6.556  10.804  2.1703  1.1918  0.7520
12999TIP3   OH260411   1.590   6.099   5.835 -0.8642  0.0039 -0.0362
12999TIP3    H160412   1.645   6.036   5.789 -0.0666 -0.8003  1.9184
12999TIP3    H260413   1.502   6.063   5.829 -0.3486 -1.6547  1.5074
13000TIP3   OH260414   3.639   2.589  14.112 -0.1881  0.1271 -0.2595
13000TIP3    H160415   3.545   2.588  14.131 -0.1135  3.2431  0.7553
13000TIP3    H260416   3.646   2.551  14.024 -2.3965 -0.0189 -0.4237
13001TIP3   OH260417   3.155   1.976  13.049 -0.2673  0.3527 -0.0380
13001TIP3    H160418   3.107   2.051  13.014 -0.0845  0.3762 -0.2364
13001TIP3    H260419   3.184   1.928  12.971 -1.3997 -0.5628  0.0772
13002TIP3   OH260420   1.089   6.389   4.100 -0.1605 -0.0525  0.2446
13002TIP3    H160421   1.071   6.295   4.099 -1.3310  0.1579 -0.3600
13002TIP3    H260422   1.032   6.425   4.032 -0.1685  1.1786  0.8732
13003TIP3   OH260423   2.792   3.755   2.680  0.0656 -0.4611  0.3000
13003TIP3    H160424   2.796   3.729   2.588 -0.7042  0.6946 -0.0894
13003TIP3    H260425   2.883   3.755   2.709  0.2157 -2.0045 -0.1026
13004TIP3   OH260426   5.158   4.390   1.502 -0.0583 -0.2120 -0.7087
13004TIP3    H160427   5.148   4.397   1.407  0.5676 -0.5901 -0.8077
13004TIP3    H260428   5.071   4.366   1.533 -0.8524  2.1601 -0.9363
13005TIP3   OH260429   2.689   5.177   2.275 -0.7145  0.2702 -0.8353
13005TIP3    H160430   2.765   5.120   2.279  0.2732  1.6005  0.1174
13005TIP3    H260431   2.623   5.125   2.230  0.1438 -1.6053 -0.0532
13006TIP3   OH260432   6.195   0.605  12.102  0.6408  0.0256 -0.5239
13006TIP3    H160433   6.150   0.523  12.120  0.9452 -0.4683 -1.9040
13006TIP3    H260434   6.153   0.669  12.160 -0.5807 -0.8029 -0.4655
13007TIP3   OH260435   0.660   6.661  12.623 -0.8364 -0.3735  0.0109
13007TIP3    H160436   0.689   6.572  12.601 -1.3078 -0.3426 -0.7951
13007TIP3    H260437   0.707   6.717  12.561 -0.9052 -0.1068  0.1983
13008TIP3   OH260438   2.438   4.056  16.284  0.0316  0.0125  0.0877
13008TIP3    H160439   2.479   3.995  16.345 -0.8337  0.4743  1.1705
13008TIP3    H260440   2.390   4.117  16.340 -1.1931  0.1655 -1.0756
13009TIP3   OH260441   6.000   0.496   2.303  0.1166 -0.3449 -0.9297
13009TIP3    H160442   6.018   0.582   2.264  0.2131  0.2192  0.2828
13009TIP3    H260443   5.955   0.447   2.234  1.3555  0.1547 -2.1410
13010TIP3   OH260444   4.994   1.372   4.780  0.6580  0.2296 -0.2448
13010TIP3    H160445   5.034   1.355   4.865  1.3086  3.4094  0.2139
13010TIP3    H260446   4.900   1.361   4.795  0.8975 -1.7854  0.1298
13011TIP3   OH260447   5.630   6.586  17.238  0.1504  0.0563  0.0026
13011TIP3    H160448   5.645   6.532  17.161 -1.4598 -0.7560  0.2228
13011TIP3    H260449   5.712   6.635  17.250  1.2508 -1.5191 -0.8356
13012TIP3   OH260450   2.341   2.322  16.718 -0.7008  0.5969  0.1416
13012TIP3    H160451   2.320   2.381  16.790  2.2112 -0.6086  2.1916
13012TIP3    H260452   2.378   2.379  16.650 -2.5573  1.6434 -0.0385
13013TIP3   OH260453   3.524   0.937  12.200 -0.0977  0.0461 -0.2513
13013TIP3    H160454   3.556   0.847  12.196 -0.7038 -0.1585 -0.7886
13013TIP3    H260455   3.574   0.983  12.132  0.0108  0.0458 -0.1719
13014TIP3   OH260456   5.393   0.429  14.151  0.6989 -0.5734  0.0651
13014TIP3    H160457   5.393   0.334  14.163  0.7032 -0.5908 -0.0721
13014TIP3    H260458   5.300   0.454  14.154  0.6816 -0.6118 -0.1300
13015TIP3   OH260459   1.958   3.423   0.177  0.0948  0.6812  0.2988
13015TIP3    H160460   2.040   3.378   0.196  0.4548  0.8930 -0.6907
13015TIP3    H260461   1.964   3.445   0.084 -0.4677  1.9468  0.5387
13016TIP3   OH260462   1.315   1.084   1.886  0.0065  0.8518  0.0467
13016TIP3    H160463   1.357   1.063   1.969 -0.1002  1.4867  0.2681
13016TIP3    H260464   1.303   0.999   1.843 -0.1608  0.4905  0.7816
13017TIP3   OH260465   1.792   6.352  12.879  0.0706  0.3678 -0.6604
13017TIP3    H160466   1.824   6.282  12.821 -0.3943 -0.0350 -0.4334
13017TIP3    H260467   1.822   6.326  12.966 -0.7539  0.0565 -0.4649
13018TIP3   OH260468   0.225   0.798   2.197 -0.2544 -0.5174 -0.2359
13018TIP3    H160469   0.240   0.739   2.271 -0.5082  0.3873  0.5663
13018TIP3    H260470   0.131   0.816   2.200 -0.3012 -0.6192 -0.9080
13019TIP3   OH260471   1.625   6.635   4.264 -0.0885  0.5305 -0.4172
13019TIP3    H160472   1.584   6.571   4.322  0.7807 -1.7040 -2.1121
13019TIP3    H260473   1.713   6.648   4.301 -0.3253  0.9142  0.0260
13020TIP3   OH260474   0.679   2.515  13.393 -0.1979 -0.0651  0.5407
13020TIP3    H160475   0.769   2.494  13.371 -0.0631 -0.5084  1.4505
13020TIP3    H260476   0.685   2.565  13.474 -0.7538  0.1561  0.4490
13021TIP3   OH260477   2.706   5.716   1.397 -0.4500 -0.7760 -0.0240
13021TIP3    H160478   2.627   5.745   1.442  0.0499  1.1840 -0.2705
13021TIP3    H260479   2.744   5.650   1.455 -1.0860 -0.0750  1.2430
13022TIP3   OH260480   0.483   0.240  14.038  0.8334 -0.5208  0.1831
13022TIP3    H160481   0.466   0.292  14.116  0.9163  0.4947 -0.4515
13022TIP3    H260482   0.491   0.305  13.967  0.5028 -1.4243 -0.7104
13023TIP3   OH260483   2.475   4.495  16.392 -0.3840 -0.5502 -0.5953
13023TIP3    H160484   2.381   4.509  16.400 -0.0500  2.4882 -0.8146
13023TIP3    H260485   2.492   4.504  16.298  0.3792  1.3617 -0.3131
13024TIP3   OH260486   1.340   0.327  17.111  0.5126  0.5989 -0.1787
13024TIP3    H160487   1.389   0.246  17.100  0.8474  0.8167 -0.2965
13024TIP3    H260488   1.356   0.376  17.030  2.5487  1.9718  0.9600
13025TIP3   OH260489   6.663   4.184  14.008 -0.8402  0.3081  0.5152
13025TIP3    H160490   6.686   4.167  14.099 -0.4322 -1.1553  0.1629
13025TIP3    H260491   6.567   4.181  14.007 -0.8273 -0.6876  0.7441
13026TIP3   OH260492   3.695   3.379  11.789  0.0576  0.1530  0.1330
13026TIP3    H160493   3.698   3.438  11.864 -0.7581  1.4683 -0.8294
13026TIP3    H260494   3.675   3.436  11.714  1.0442 -1.0774 -1.1334
13027TIP3   OH260495   0.857   1.290  11.976  1.0319 -0.3751 -0.6672
13027TIP3    H160496   0.902   1.308  12.058  1.5395 -0.5226 -0.9047
13027TIP3    H260497   0.840   1.195  11.978 -0.4767 -0.1140  0.0112
13028TIP3   OH260498   1.258   0.576  11.571 -0.0772 -0.1753 -0.4273
13028TIP3    H160499   1.279   0.660  11.613 -0.8711  0.9683 -2.1924
13028TIP3    H260500   1.211   0.526  11.638 -0.1165  1.0336  0.4736
13029TIP3   OH260501   5.962   5.559  17.136  0.5072 -0.2155  0.8410
13029TIP3    H160502   5.995   5.517  17.057 -0.9060 -0.4515  0.3588
13029TIP3    H260503   5.954   5.488  17.200  1.2997 -0.0856  1.0991
13030TIP3   OH260504   4.556   4.436   3.164  0.0226 -0.1004 -0.3426
13030TIP3    H160505   4.550   4.434   3.260  2.0229  1.3414 -0.1251
13030TIP3    H260506   4.642   4.401   3.144  0.2817  1.0907 -1.4909
13031TIP3   OH260507   3.628   2.691   2.315 -0.3584  0.0383  0.1328
13031TIP3    H160508   3.699   2.741   2.275  1.2263 -1.7381  0.5812
13031TIP3    H260509   3.601   2.629   2.247 -1.4929  0.6632 -0.0197
13032TIP3   OH260510   0.547   0.072   1.784  0.0991 -0.4687 -0.1834
13032TIP3    H160511   0.498   0.000   1.743  0.4079  0.6060 -2.6107
13032TIP3    H260512   0.483   0.143   1.790 -0.2338 -0.8742  2.2974
13033TIP3   OH260513   0.380   1.457  14.823 -0.1339 -0.3510 -0.5349
13033TIP3    H160514   0.436   1.409  14.885 -1.1682 -2.3644 -1.0880
13033TIP3    H260515   0.427   1.453  14.740  1.0970  2.0723 -0.0454
13034TIP3   OH260516   0.951   0.854   0.561  0.4436  0.2122  0.7454
13034TIP3    H160517   0.863   0.815   0.561  1.1577 -1.4750  0.6856
13034TIP3    H260518   1.008   0.785   0.528  1.6976  1.5568 -0.0297
13035TIP3   OH260519   0.136   6.484   1.390 -0.1508  0.7674  0.5868
13035TIP3    H160520   0.124   6.549   1.461  1.3306  1.6223  0.0841
13035TIP3    H260521   0.227   6.492   1.365 -0.5379  0.1570 -1.1430
13036TIP3   OH260522   3.002   3.574   3.147  0.2931  0.2291 -0.3146
13036TIP3    H160523   3.022   3.519   3.222 -0.0399  1.2940  0.5900
13036TIP3    H260524   3.081   3.571   3.092  0.2006 -1.2743 -0.3962
13037TIP3   OH260525   3.540   5.448   1.085  0.3409  0.4183  0.4802
13037TIP3    H160526   3.535   5.415   1.174  1.5831  3.0907  1.6302
13037TIP3    H260527   3.629   5.484   1.077  1.0982 -1.6556 -2.6139
13038TIP3   OH260528   5.142   6.571  14.759  0.7227 -0.0755 -0.0751
13038TIP3    H160529   5.206   6.500  14.761 -0.3482 -1.0745 -0.1211
13038TIP3    H260530   5.163   6.624  14.836 -0.2957 -2.1371  1.7407
13039TIP3   OH260531   3.866   1.357  14.105  0.5766 -0.0897 -0.4698
13039TIP3    H160532   3.859   1.426  14.170 -1.2668  0.7295 -1.4707
13039TIP3    H260533   3.878   1.277  14.155 -2.6432  0.2382  1.0460
13040TIP3   OH260534   2.917   1.548   5.612 -0.5710 -0.5416  0.5159
13040TIP3    H160535   2.912   1.637   5.579  0.0840  0.2187  2.3507
13040TIP3    H260536   2.995   1.546   5.667 -1.9337 -1.4900  2.5800
13041TIP3   OH260537   0.823   2.530  16.032 -0.1989  0.3853  0.1333
13041TIP3    H160538   0.779   2.604  16.074  0.6621 -1.2007  4.2513
13041TIP3    H260539   0.915   2.557  16.026 -0.1885  0.3046 -0.1020
13042TIP3   OH260540   2.970   3.633  11.940  0.1216  0.2066  0.1621
13042TIP3    H160541   3.053   3.679  11.954  0.4978 -0.7918  1.4663
13042TIP3    H260542   2.911   3.699  11.906  1.3542  1.0223 -0.4911
13043TIP3   OH260543   2.511   6.242  13.751 -0.6517  0.0604 -0.0256
13043TIP3    H160544   2.534   6.243  13.844  3.7325 -1.4033 -0.8735
13043TIP3    H260545   2.508   6.150  13.727 -1.5360  0.4111 -1.4106
13044TIP3   OH260546   0.783   1.730  15.876  0.0601  0.1827  0.1029
13044TIP3    H160547   0.776   1.816  15.834  1.5135 -0.5989 -1.9390
13044TIP3    H260548   0.744   1.670  15.813  1.4695 -0.9405  0.2517
13045TIP3   OH260549   0.712   1.803  17.256 -0.0619  0.0783 -0.1091
13045TIP3    H160550   0.737   1.748  17.330 -0.1112 -1.5843 -1.2766
13045TIP3    H260551   0.625   1.771  17.231 -1.6997  2.9715  1.2506
13046TIP3   OH260552   5.815   6.549   1.460  0.2844 -0.4407  0.1001
13046TIP3    H160553   5.818   6.457   1.431 -1.1688  0.0825 -1.9547
13046TIP3    H260554   5.773   6.546   1.546 -0.2592 -1.6715 -0.1853
13047TIP3   OH260555   4.601   6.168  16.753 -0.5232 -0.0895 -0.5311
13047TIP3    H160556   4.604   6.228  16.679 -0.4410 -0.4751 -0.8453
13047TIP3    H260557   4.508   6.158  16.773 -0.4725  1.6012  0.7410
13048TIP3   OH260558   0.184   3.297   5.525 -0.1919 -0.3245 -0.5115
13048TIP3    H160559   0.142   3.212   5.538 -0.9157  0.1191  0.1577
13048TIP3    H260560   0.148   3.352   5.594  0.2696  0.5305 -0.9365
13049TIP3   OH260561   3.532   5.640  12.824 -0.9148 -0.4758  0.1770
13049TIP3    H160562   3.495   5.580  12.758 -0.3464 -0.3495 -0.2643
13049TIP3    H260563   3.583   5.583  12.882  1.8925 -0.1726 -1.8050
13050TIP3   OH260564   1.510   3.723   6.058 -0.2969  0.5669  0.0523
13050TIP3    H160565   1.428   3.694   6.096  0.2115 -1.2244 -0.1362
13050TIP3    H260566   1.534   3.655   5.996  0.7831  1.5926 -0.7063
13051TIP3   OH260567   5.961   2.547  14.441 -0.4380  0.5176  0.0601
13051TIP3    H160568   6.030   2.613  14.431 -0.4991  0.8730  1.7400
13051TIP3    H260569   5.960   2.527  14.534  0.2054 -2.5741 -0.4729
13052TIP3   OH260570   0.796   6.413  14.242 -0.1631  0.0608  0.3086
13052TIP3    H160571   0.754   6.445  14.162 -0.3552  0.4106  0.5440
13052TIP3    H260572   0.723   6.386  14.298  0.0050 -1.0616  0.0072
13053TIP3   OH260573   3.377   2.593  10.833  0.2439 -0.2632 -0.2037
13053TIP3    H160574   3.356   2.527  10.766 -1.0784  1.0848 -1.1967
13053TIP3    H260575   3.291   2.621  10.866  0.7830  0.9137  0.2460
13054TIP3   OH260576   0.491   2.175  13.235  0.1123 -0.0407  0.5677
13054TIP3    H160577   0.415   2.122  13.260 -0.2130 -0.0523 -0.3777
13054TIP3    H260578   0.475   2.260  13.275  0.2301 -0.4116  1.4221
13055TIP3   OH260579   0.920   5.790  11.539  0.1588  0.9761 -0.6062
13055TIP3    H160580   0.969   5.870  11.558 -0.0172  0.7931  0.7322
13055TIP3    H260581   0.847   5.792  11.601  1.2040 -1.1446  0.8344
13056TIP3   OH260582   6.532   6.700  12.561 -0.9134 -0.4733 -0.1685
13056TIP3    H160583   6.528   6.616  12.606 -0.8964 -0.5969 -0.3950
13056TIP3    H260584   6.625   6.713  12.544 -0.6112  0.7675  2.0487
13057TIP3   OH260585   1.837   1.974   2.850 -0.3864 -0.1698 -0.1451
13057TIP3    H160586   1.813   1.884   2.826 -0.8108 -0.5236  1.4665
13057TIP3    H260587   1.765   2.004   2.905  0.5032  0.5584  0.6702
13058TIP3   OH260588   4.203   5.925  14.386  1.2122  0.4392  0.2774
13058TIP3    H160589   4.232   5.939  14.477  0.6198 -1.0895  0.7329
13058TIP3    H260590   4.110   5.907  14.393  1.4045 -0.9418 -0.4931
13059TIP3   OH260591   3.982   4.936  12.900 -0.5558 -0.0495  0.7019
13059TIP3    H160592   3.964   5.019  12.858 -0.3442 -1.1097 -1.6206
13059TIP3    H260593   4.067   4.949  12.944  0.2634  0.5323 -0.9751
13060TIP3   OH260594   2.882   3.995  15.734  0.3250 -0.1140 -0.2528
13060TIP3    H160595   2.954   4.028  15.681  1.3470  0.3089  1.3303
13060TIP3    H260596   2.803   4.032  15.694  1.0068 -0.1687 -1.7059
13061TIP3   OH260597   3.121   4.511  13.495  0.2373  0.1300 -0.2972
13061TIP3    H160598   3.142   4.461  13.574 -0.7361  1.3700  0.7871
13061TIP3    H260599   3.028   4.533  13.505  0.0894  0.2749 -1.8201
13062TIP3   OH260600   6.520   4.499   1.297  0.4273  0.1073 -0.1852
13062TIP3    H160601   6.524   4.451   1.214 -0.3155  0.2062 -0.2815
13062TIP3    H260602   6.608   4.538   1.306  0.0429  1.4475 -1.7537
13063TIP3   OH260603   3.812   1.331   1.349  0.3733 -0.0118 -0.6137
13063TIP3    H160604   3.819   1.268   1.420  1.6062  0.7008 -0.0650
13063TIP3    H260605   3.733   1.381   1.369  1.0160  0.5573  0.5941
13064TIP3   OH260606   0.149   2.205  14.406  0.4648 -0.2052 -0.6575
13064TIP3    H160607   0.186   2.146  14.472  1.9967  1.2722 -0.0906
13064TIP3    H260608   0.157   2.292  14.446  0.1864  0.5886 -2.2639
13065TIP3   OH260609   6.595   3.418   1.781  0.1969 -0.3112  0.2859
13065TIP3    H160610   6.569   3.470   1.704 -0.0760 -1.0235 -0.1116
13065TIP3    H260611   6.664   3.361   1.749 -0.2136 -0.9118  0.4557
13066TIP3   OH260612   3.998   5.068   2.085 -0.2510  0.2360 -0.2099
13066TIP3    H160613   4.071   5.068   2.147 -0.4612  0.8588  0.0402
13066TIP3    H260614   4.024   5.004   2.018  1.2150  1.4983 -0.9286
13067TIP3   OH260615   0.237   4.008   4.258  0.6707 -0.0005 -0.0817
13067TIP3    H160616   0.272   4.038   4.175  2.3263 -2.3420 -0.3265
13067TIP3    H260617   0.296   4.045   4.324 -0.5852  1.7749  0.1312
13068TIP3   OH260618   3.131   0.133  16.304 -0.2647 -0.6623 -0.1675
13068TIP3    H160619   3.038   0.119  16.287 -0.2295 -1.0584 -0.0587
13068TIP3    H260620   3.166   0.165  16.221 -1.0320  2.3460  0.5647
13069TIP3   OH260621   2.301   3.186  15.837 -0.0896 -0.3868 -0.1227
13069TIP3    H160622   2.361   3.257  15.860 -0.9678  0.4553 -0.3508
13069TIP3    H260623   2.214   3.225  15.844 -0.6098 -1.5225  0.0052
13070TIP3   OH260624   3.666   0.702  17.365  0.0858  0.0585 -0.1252
13070TIP3    H160625   3.718   0.709  17.445 -0.3948  0.0245  0.1943
13070TIP3    H260626   3.728   0.669  17.299 -0.0861 -2.4436  0.8476
13071TIP3   OH260627   2.367   1.147  15.471 -0.7091 -0.3973 -0.0780
13071TIP3    H160628   2.314   1.221  15.500 -1.9724 -2.2820  2.8519
13071TIP3    H260629   2.304   1.081  15.444  0.2060 -1.7455  0.9475
13072TIP3   OH260630   1.464   4.267  12.385 -0.2069 -0.3939  0.8853
13072TIP3    H160631   1.452   4.175  12.409  0.4671 -1.0281 -1.0256
13072TIP3    H260632   1.387   4.288  12.331 -0.6984  0.4015  1.8488
13073TIP3   OH260633   4.639   2.993   4.805  0.6546  0.8334 -0.3507
13073TIP3    H160634   4.560   2.956   4.843  1.3455  1.3022  1.6993
13073TIP3    H260635   4.710   2.937   4.838  1.3126  1.4151 -0.7393
13074TIP3   OH260636   3.190   0.874  14.369 -0.2260 -0.2534  0.0388
13074TIP3    H160637   3.105   0.894  14.409  0.5471  1.3990  0.9786
13074TIP3    H260638   3.218   0.793  14.413 -1.7367 -1.4320 -1.0518
13075TIP3   OH260639   3.764   3.555  17.257 -0.2145 -0.1627  0.5416
13075TIP3    H160640   3.855   3.535  17.236 -0.1014  0.3874  0.5096
13075TIP3    H260641   3.724   3.469  17.273  0.4546 -0.3632  1.1738
13076TIP3   OH260642   6.512   5.804   0.595 -0.1505 -0.3794 -0.6240
13076TIP3    H160643   6.444   5.759   0.644  0.1592  0.6025  0.7697
13076TIP3    H260644   6.581   5.739   0.585  0.2677 -0.2900  1.2985
13077TIP3   OH260645   3.642   5.750  16.366  0.8125 -0.7637 -0.0799
13077TIP3    H160646   3.674   5.833  16.332 -0.2987 -0.4171 -0.3093
13077TIP3    H260647   3.547   5.761  16.373  0.7689 -1.6311  0.9459
13078TIP3   OH260648   4.777   3.966   3.370  0.0290 -0.0626  0.3369
13078TIP3    H160649   4.846   3.990   3.307 -0.3345  0.3910  0.1058
13078TIP3    H260650   4.800   4.015   3.449  0.7113 -0.9416  0.7054
13079TIP3   OH260651   4.839   0.444   0.232 -0.1363 -0.3821  0.3187
13079TIP3    H160652   4.890   0.387   0.176 -0.1793  0.4279 -0.5694
13079TIP3    H260653   4.827   0.524   0.181  1.8616  1.3698  2.3497
13080TIP3   OH260654   2.602   5.549  12.316 -0.1556  0.4585  0.1255
13080TIP3    H160655   2.576   5.632  12.276 -0.1202 -0.0485 -0.9883
13080TIP3    H260656   2.691   5.534  12.285 -0.4382 -0.3648 -0.3425
13081TIP3   OH260657   4.246   5.978  16.412  0.2132  0.0463  0.2959
13081TIP3    H160658   4.337   6.005  16.425  0.8663 -0.7444 -1.9700
13081TIP3    H260659   4.227   6.003  16.321 -2.1836  1.0392  1.0036
13082TIP3   OH260660   5.335   2.498   4.946  0.5971  0.0082  0.2310
13082TIP3    H160661   5.310   2.550   5.022 -0.4479  0.5131 -0.4387
13082TIP3    H260662   5.269   2.429   4.941 -0.8059  1.3900 -1.6006
13083TIP3   OH260663   6.276   1.437   1.208  0.5556  0.2666  0.0759
13083TIP3    H160664   6.263   1.347   1.179  1.5892 -0.5466  1.9164
13083TIP3    H260665   6.352   1.432   1.267  0.9095  2.4239 -0.1288
13084TIP3   OH260666   1.837   3.942   4.859 -0.1709  0.4615 -0.1726
13084TIP3    H160667   1.798   3.990   4.786 -1.2983  0.0663  0.1404
13084TIP3    H260668   1.801   3.985   4.937  1.6095  1.3713  0.1903
13085TIP3   OH260669   3.170   1.030  15.866 -0.2454 -0.0207 -0.0359
13085TIP3    H160670   3.106   1.073  15.810  0.1411 -0.4055 -0.7828
13085TIP3    H260671   3.247   1.086  15.863 -0.3972  0.2289  0.5350
13086TIP3   OH260672   5.178   6.280   0.065  0.0361  0.2301 -0.1042
13086TIP3    H160673   5.152   6.250   0.151  0.8259 -1.0661 -0.2971
13086TIP3    H260674   5.098   6.318   0.027 -1.3116 -2.5024 -0.2141
13087TIP3   OH260675   6.616   0.389  14.064  0.4030 -0.0084  0.2120
13087TIP3    H160676   6.707   0.417  14.058  0.6145 -0.2982  1.7320
13087TIP3    H260677   6.611   0.313  14.006  0.6772  1.0368 -1.2318
13088TIP3   OH260678   1.253   4.131  11.793  0.3488  0.5920 -0.5274
13088TIP3    H160679   1.239   4.046  11.751 -1.6948 -0.3219  1.7653
13088TIP3    H260680   1.169   4.177  11.783  0.2399  0.8599  1.3575
13089TIP3   OH260681   1.904   2.596   4.612  0.4584 -0.2689 -0.5535
13089TIP3    H160682   1.952   2.577   4.532 -0.2706  0.2926 -1.1316
13089TIP3    H260683   1.825   2.543   4.605  0.0874  0.2762 -0.5084
13090TIP3   OH260684   5.781   0.399  13.577 -0.5689 -0.4585  0.7567
13090TIP3    H160685   5.846   0.438  13.519 -1.9251  0.0098 -0.5124
13090TIP3    H260686   5.828   0.384  13.659  1.1547 -0.2564 -0.1468
13091TIP3   OH260687   2.359   4.553  14.821  0.5095 -0.2181  0.5396
13091TIP3    H160688   2.376   4.631  14.769 -0.5339 -0.1228  0.3197
13091TIP3    H260689   2.271   4.525  14.795  0.4136 -0.8069  1.4477
13092TIP3   OH260690   0.863   3.581  14.719  0.3261  0.0239  0.3869
13092TIP3    H160691   0.939   3.630  14.689  0.1261  0.6443  0.8780
13092TIP3    H260692   0.882   3.560  14.810 -0.1262  0.2675  0.5416
13093TIP3   OH260693   5.979   2.989  14.969 -0.4609  0.4482 -0.4671
13093TIP3    H160694   6.030   2.913  14.942 -0.8685 -0.1061  0.2669
13093TIP3    H260695   5.975   2.982  15.064  0.2446  1.8892 -0.3094
13094TIP3   OH260696   6.115   4.134  11.560  0.3190  0.1920  0.2060
13094TIP3    H160697   6.183   4.137  11.627 -0.4467 -1.5297  1.1226
13094TIP3    H260698   6.160   4.105  11.481  0.8928  0.3844  0.4584
13095TIP3   OH260699   3.322   1.457  13.878 -0.2673 -0.1212 -0.0617
13095TIP3    H160700   3.264   1.478  13.952 -0.5007  0.9291 -0.5158
13095TIP3    H260701   3.348   1.366  13.892 -1.3621 -0.3470  0.6061
13096TIP3   OH260702   6.288   1.482   0.104  0.0669 -0.0279  0.0111
13096TIP3    H160703   6.228   1.513   0.171  0.5529 -2.5197  1.7417
13096TIP3    H260704   6.258   1.394   0.083  1.9399 -0.6039 -0.5091
13097TIP3   OH260705   4.704   5.103  12.007  0.0591  0.9553 -0.1607
13097TIP3    H160706   4.714   5.026  12.063 -1.9535  1.1087  0.4892
13097TIP3    H260707   4.711   5.177  12.066  2.0936  1.3385 -0.8028
13098TIP3   OH260708   3.190   5.207   5.709  0.1764 -0.1562  0.0077
13098TIP3    H160709   3.095   5.209   5.702 -0.1849 -4.8749  0.0820
13098TIP3    H260710   3.209   5.235   5.799 -1.2500 -0.1994  0.3376
13099TIP3   OH260711   1.207   0.572  15.410 -0.0759  0.0107  0.5743
13099TIP3    H160712   1.218   0.514  15.485  0.5269 -1.3362 -0.4956
13099TIP3    H260713   1.129   0.623  15.429 -0.6210 -1.1556  1.5856
13100TIP3   OH260714   3.105   1.738   1.817 -0.0125 -0.0298  0.0287
13100TIP3    H160715   3.162   1.797   1.867 -0.8869 -0.0530  1.1027
13100TIP3    H260716   3.132   1.650   1.846  0.9093 -0.1673 -1.1528
13101TIP3   OH260717   0.835   6.081  12.541  0.3389 -0.4437  0.5924
13101TIP3    H160718   0.863   6.064  12.630  2.0481  1.9056  0.5840
13101TIP3    H260719   0.914   6.107  12.494 -0.5987 -1.0479 -1.4929
13102TIP3   OH260720   3.497   1.316  15.156 -0.2265  0.1408  0.2570
13102TIP3    H160721   3.534   1.392  15.200 -0.0051  0.3824 -0.3402
13102TIP3    H260722   3.543   1.241  15.194  1.5853  0.4849 -1.1312
13103TIP3   OH260723   4.937   4.146  12.130  0.4006 -0.1653  0.3549
13103TIP3    H160724   4.943   4.239  12.108 -0.7589 -0.1729 -0.0542
13103TIP3    H260725   4.886   4.107  12.059 -2.0867 -0.4669  2.1472
13104TIP3   OH260726   0.313   2.187   2.546  0.2378 -0.1214  0.0325
13104TIP3    H160727   0.262   2.106   2.553  0.2938 -0.1477  0.1426
13104TIP3    H260728   0.400   2.163   2.577  1.8148 -1.3555 -4.5567
13105TIP3   OH260729   0.987   0.907  16.487 -0.3096 -0.1395  0.2853
13105TIP3    H160730   0.921   0.932  16.422  1.6452  1.9806 -1.0043
13105TIP3    H260731   0.939   0.904  16.570 -2.5707 -1.4931 -0.9516
13106TIP3   OH260732   4.752   6.209  12.309 -0.2796 -0.1281 -0.5341
13106TIP3    H160733   4.765   6.227  12.216 -2.0463 -0.2824 -0.8579
13106TIP3    H260734   4.805   6.274  12.354  0.4890  0.0359 -1.6539
13107TIP3   OH260735   5.843   2.104   4.289  0.3691  0.5394  0.2193
13107TIP3    H160736   5.764   2.156   4.299  0.7743  1.5994 -1.7146
13107TIP3    H260737   5.902   2.158   4.237  0.0955 -2.4904 -3.7108
13108TIP3   OH260738   1.919   2.147   0.885 -0.0126  0.2328  0.3349
13108TIP3    H160739   1.982   2.088   0.843  0.5300  1.2469 -0.3013
13108TIP3    H260740   1.897   2.211   0.818 -2.7824 -0.8321  0.1030
13109TIP3   OH260741   0.035   3.966   4.847  0.1146  0.0623  0.3990
13109TIP3    H160742   0.044   4.061   4.834  1.8697 -0.2860 -1.5516
13109TIP3    H260743   0.087   3.947   4.925  1.4202  0.4830 -0.3447
13110TIP3   OH260744   6.686   4.677   1.104 -0.3041 -0.1544 -0.8136
13110TIP3    H160745   6.645   4.735   1.168 -0.1024 -2.4153  1.5012
13110TIP3    H260746   6.623   4.674   1.031 -1.3049  1.2512 -0.0587
13111TIP3   OH260747   3.562   4.101  15.838 -0.3603 -0.6726  0.0271
13111TIP3    H160748   3.617   4.164  15.792  0.0339 -1.8476 -1.1599
13111TIP3    H260749   3.608   4.086  15.921  0.6888 -1.0112 -0.5949
13112TIP3   OH260750   3.660   4.696   6.046  0.0690 -0.4622 -0.1601
13112TIP3    H160751   3.748   4.725   6.069 -0.5216 -0.9150  3.3673
13112TIP3    H260752   3.654   4.607   6.081 -1.0703 -1.3707 -2.4945
13113TIP3   OH260753   3.308   4.655   6.841  0.2526  0.3808  0.0766
13113TIP3    H160754   3.301   4.750   6.852 -0.8618  0.1694  1.4911
13113TIP3    H260755   3.229   4.630   6.792 -0.7999 -0.0655  1.8789
13114TIP3   OH260756   3.863   0.243  13.499  0.2064 -0.2391  0.3919
13114TIP3    H160757   3.801   0.188  13.547 -1.4986  0.4607 -0.9078
13114TIP3    H260758   3.887   0.190  13.423  1.5092 -0.6307  1.0419
13115TIP3   OH260759   0.946   3.898   6.643 -0.2650  0.0671  0.3355
13115TIP3    H160760   0.855   3.907   6.615 -0.4617 -2.1541  0.0809
13115TIP3    H260761   0.997   3.909   6.563 -0.4167 -0.2458  0.1941
13116TIP3   OH260762   1.325   3.049   2.000 -0.1880 -0.2677  0.2065
13116TIP3    H160763   1.401   3.058   2.058 -0.2884 -0.4286  0.3645
13116TIP3    H260764   1.250   3.073   2.055 -0.0391  2.5369 -0.6422
13117TIP3   OH260765   5.018   0.015   1.185  0.1223  0.1824 -0.8702
13117TIP3    H160766   5.005  -0.008   1.093  0.7619  0.6157 -1.0786
13117TIP3    H260767   5.061  -0.062   1.222 -0.9617 -0.3580 -0.7071
13118TIP3   OH260768   5.129   4.209  13.502 -0.7945  0.4325  0.2392
13118TIP3    H160769   5.157   4.129  13.456 -0.3840 -0.7898  2.4818
13118TIP3    H260770   5.119   4.182  13.593 -0.9531  2.9047  1.0230
13119TIP3   OH260771   4.379   5.759   5.601 -0.4806 -0.1468  0.1692
13119TIP3    H160772   4.419   5.684   5.645 -0.1001  0.1138  0.2733
13119TIP3    H260773   4.384   5.739   5.508 -0.5615 -0.3413  0.2070
13120TIP3   OH260774   4.381   5.652  12.079  0.0109  0.0707  0.1934
13120TIP3    H160775   4.409   5.569  12.116  1.6988  0.5211  0.0107
13120TIP3    H260776   4.420   5.655  11.993 -0.9020  0.6172 -0.2233
13121TIP3   OH260777   2.891   6.593   3.687 -0.2204 -1.1769 -0.0112
13121TIP3    H160778   2.837   6.662   3.647  2.2113  0.3282 -0.9571
13121TIP3    H260779   2.829   6.525   3.712 -2.4596  0.1784 -1.5238
13122TIP3   OH260780   2.872   0.844   0.351 -0.1816 -0.2026  0.2222
13122TIP3    H160781   2.916   0.917   0.310  0.1637 -0.5498 -0.0324
13122TIP3    H260782   2.900   0.847   0.443 -0.8664  0.5051  0.4187
13123TIP3   OH260783   5.279   0.341   4.948  0.6247  0.0060 -0.1553
13123TIP3    H160784   5.372   0.340   4.927  1.0862  2.0586  1.4205
13123TIP3    H260785   5.270   0.411   5.013 -1.9675 -0.3747  0.0065
13124TIP3   OH260786   6.195   2.362   5.504  0.4132 -0.3350  0.1083
13124TIP3    H160787   6.263   2.328   5.446  0.6949  0.0651  0.2021
13124TIP3    H260788   6.136   2.409   5.446  0.7444  0.1434  0.1554
13125TIP3   OH260789   3.273   3.314   1.538  0.1122  0.8892 -0.0295
13125TIP3    H160790   3.313   3.250   1.597  0.0071 -1.1546 -2.0686
13125TIP3    H260791   3.183   3.323   1.569 -0.0525 -0.4451 -0.0957
13126TIP3   OH260792   3.494   4.556  16.442  0.1053 -0.3708  0.0260
13126TIP3    H160793   3.478   4.647  16.467 -0.3748 -0.7689  1.2783
13126TIP3    H260794   3.589   4.547  16.442  0.1445 -0.0659  0.7368
13127TIP3   OH260795   2.735   0.813  17.220  0.7434  0.2714  0.1262
13127TIP3    H160796   2.705   0.751  17.286 -0.0267  0.1041 -0.3619
13127TIP3    H260797   2.825   0.786  17.201 -0.1954 -1.9973 -1.5062
13128TIP3   OH260798   6.065   6.456   3.376  0.4064 -0.1390 -0.4911
13128TIP3    H160799   6.028   6.477   3.291 -0.8923 -0.4211 -0.0132
13128TIP3    H260800   6.067   6.361   3.378  2.4958 -0.1587 -1.0464
13129TIP3   OH260801   6.338   1.952  13.459 -0.3760  0.2232  0.7083
13129TIP3    H160802   6.339   2.023  13.396 -0.9656 -0.5276 -0.1714
13129TIP3    H260803   6.361   1.993  13.542  0.3542  1.2403  0.0263
13130TIP3   OH260804   6.172   5.637   0.246 -0.2319  0.8867 -0.6355
13130TIP3    H160805   6.146   5.727   0.261 -1.2471  0.7737 -1.5632
13130TIP3    H260806   6.124   5.586   0.311  0.0223  0.9675 -0.3822
13131TIP3   OH260807   3.441   2.055  17.256 -0.2851  0.1188 -0.2994
13131TIP3    H160808   3.447   2.046  17.160 -0.9893  0.3769 -0.3777
13131TIP3    H260809   3.423   1.967  17.287  0.4739 -0.0623 -0.3505
13132TIP3   OH260810   1.364   4.283  14.280 -0.4994  0.2893 -0.3881
13132TIP3    H160811   1.318   4.353  14.325  1.0444  0.7598  0.5434
13132TIP3    H260812   1.449   4.277  14.324 -0.5049 -2.0643 -0.5311
13133TIP3   OH260813   0.519   2.327  14.349  0.2893  0.3070  0.4492
13133TIP3    H160814   0.432   2.335  14.309  0.4185  2.0490  0.4300
13133TIP3    H260815   0.514   2.247  14.402 -1.4480  0.5609  0.7395
13134TIP3   OH260816   6.594   1.813   5.639  0.0199  0.2145  0.5525
13134TIP3    H160817   6.526   1.747   5.628  0.2491 -0.6695  3.5769
13134TIP3    H260818   6.663   1.768   5.688  1.9235  1.6787 -0.6361
13135TIP3   OH260819   1.259   0.297   0.907 -0.3814  0.0757  0.4603
13135TIP3    H160820   1.211   0.242   0.970  4.1568 -1.4594  2.9972
13135TIP3    H260821   1.271   0.240   0.830  1.5147 -1.4930  1.8153
13136TIP3   OH260822   2.591   3.962   2.199 -0.4766  0.1186  0.0343
13136TIP3    H160823   2.653   4.031   2.221 -1.0215  0.3419  0.9584
13136TIP3    H260824   2.564   3.981   2.109  1.0551 -0.2116 -0.5201
13137TIP3   OH260825   2.850   3.446   5.495  0.1423 -0.1262 -0.2689
13137TIP3    H160826   2.913   3.388   5.538  0.9866  0.6281 -0.4550
13137TIP3    H260827   2.786   3.387   5.457  0.6138 -0.9107  0.1179
13138TIP3   OH260828   1.855   5.625  13.194  0.1299  0.6269  0.1081
13138TIP3    H160829   1.929   5.635  13.254  0.0951 -1.9528  0.7131
13138TIP3    H260830   1.778   5.641  13.249  0.1346 -0.8026  0.5750
13139TIP3   OH260831   1.075   1.497   6.121  0.6968  0.4633  0.3194
13139TIP3    H160832   1.137   1.425   6.122  0.2677  0.0142 -1.4556
13139TIP3    H260833   1.096   1.548   6.199  3.0890  0.1713 -0.0523
13140TIP3   OH260834   5.151   6.432   2.688 -0.5028 -0.6155 -0.3463
13140TIP3    H160835   5.221   6.449   2.625 -0.1007 -1.2462 -0.0818
13140TIP3    H260836   5.189   6.452   2.773 -0.1377 -2.3233 -0.0603
13141TIP3   OH260837   3.724   5.801  13.329  0.0490 -0.1558  0.4741
13141TIP3    H160838   3.669   5.866  13.373  0.7856 -0.1323  1.3706
13141TIP3    H260839   3.778   5.852  13.269  0.2320  0.0017  0.7708
13142TIP3   OH260840   5.981   5.619  16.585  0.1265  0.0314 -0.3447
13142TIP3    H160841   6.048   5.678  16.619 -0.6517  0.7632 -0.0299
13142TIP3    H260842   5.899   5.669  16.592 -0.2407 -0.2278 -2.2010
13143TIP3   OH260843   3.776   1.481   6.149 -0.1395  0.2693 -0.1020
13143TIP3    H160844   3.682   1.481   6.130 -0.2804 -0.8711  0.5137
13143TIP3    H260845   3.800   1.388   6.153  1.3940  0.5001 -2.0255
13144TIP3   OH260846   5.113   1.504   2.499 -0.4452  0.3035 -0.1943
13144TIP3    H160847   5.039   1.444   2.489 -0.5708  0.6425 -1.4320
13144TIP3    H260848   5.152   1.509   2.412  0.3357  1.0299  0.1865
13145TIP3   OH260849   5.477   5.929  16.917  0.6784 -0.3033 -0.4222
13145TIP3    H160850   5.551   5.871  16.936 -0.4105 -1.6195 -0.0462
13145TIP3    H260851   5.496   5.964  16.830  2.4073  0.4643  0.2258
13146TIP3   OH260852   3.807   2.098   2.659  0.4847 -0.0676  0.1405
13146TIP3    H160853   3.759   2.019   2.635 -0.6644  1.0978 -1.6453
13146TIP3    H260854   3.853   2.123   2.579  1.1600  0.8584  0.8005
13147TIP3   OH260855   2.264   0.575   1.971 -0.1893  0.2512  0.3010
13147TIP3    H160856   2.239   0.486   1.949 -1.6864  0.5707  0.6339
13147TIP3    H260857   2.198   0.605   2.033  0.8244  1.2720  0.9404
13148TIP3   OH260858   2.508   2.180   3.481 -0.7952  0.0455 -0.0042
13148TIP3    H160859   2.537   2.126   3.407  2.0858  2.2198 -0.6674
13148TIP3    H260860   2.568   2.157   3.552 -2.7178 -1.0862  1.3380
13149TIP3   OH260861   0.434   2.103   2.818 -0.0188 -0.1628  0.2131
13149TIP3    H160862   0.471   2.103   2.906 -0.8413 -0.7286  0.5636
13149TIP3    H260863   0.402   2.014   2.805 -1.0740  0.2532 -0.1589
13150TIP3   OH260864   6.026   3.698  14.823  0.1249 -0.1896  0.8858
13150TIP3    H160865   6.046   3.608  14.847 -1.1784 -0.2563  1.8428
13150TIP3    H260866   5.930   3.701  14.821  0.1614  0.9174 -0.1716
13151TIP3   OH260867   2.063   0.004  16.678  0.4251  0.3496  0.0842
13151TIP3    H160868   1.991  -0.053  16.650  0.2048  0.4511  0.4317
13151TIP3    H260869   2.062   0.076  16.615  1.7134 -0.7936 -1.3157
13152TIP3   OH260870   3.896   1.555   2.883  0.2619 -0.1074  0.0929
13152TIP3    H160871   3.840   1.506   2.822  1.1223 -1.2074  0.1458
13152TIP3    H260872   3.901   1.498   2.960 -0.8981  1.3060  1.2771
13153TIP3   OH260873   0.628   1.579   2.727  0.1209  0.2204  0.2936
13153TIP3    H160874   0.570   1.504   2.743  0.4842 -0.8448 -2.7744
13153TIP3    H260875   0.711   1.540   2.701  1.5106  1.7490  2.1869
13154TIP3   OH260876   0.722   0.073   0.795  0.0888  1.0397  0.0622
13154TIP3    H160877   0.729   0.056   0.889  0.8711 -1.5758 -0.3919
13154TIP3    H260878   0.654   0.140   0.787  0.8542  2.2119  2.5411
13155TIP3   OH260879   1.635   3.555   0.728  0.6508  0.3564 -0.0473
13155TIP3    H160880   1.575   3.496   0.774 -0.9727  1.1352 -1.0770
13155TIP3    H260881   1.664   3.615   0.795  0.4248 -0.1508  0.5193
13156TIP3   OH260882   1.124   2.383   4.970  0.7311  0.1112 -0.8588
13156TIP3    H160883   1.160   2.309   5.019  0.7063 -0.2657 -1.3963
13156TIP3    H260884   1.075   2.342   4.898 -0.9559  0.6086 -0.0260
13157TIP3   OH260885   4.901   2.701  11.362  0.4020 -0.1254 -0.1194
13157TIP3    H160886   4.848   2.745  11.296 -1.7233  0.0718  1.6292
13157TIP3    H260887   4.918   2.614  11.326 -2.1336 -0.6126 -0.2805
13158TIP3   OH260888   4.634   0.789  12.032 -0.4562 -0.3829 -0.7158
13158TIP3    H160889   4.723   0.761  12.011 -0.6060 -0.1951 -1.6687
13158TIP3    H260890   4.613   0.854  11.965 -0.2264  1.8311  1.2242
13159TIP3   OH260891   2.976   4.221  12.094  0.6137  0.0439 -0.6449
13159TIP3    H160892   2.930   4.302  12.117  0.1390 -1.0086  2.5069
13159TIP3    H260893   3.067   4.236  12.119  0.5075 -0.3933  0.0340
13160TIP3   OH260894   1.070   6.310   4.960 -0.2373 -0.0750 -0.0414
13160TIP3    H160895   0.997   6.286   5.019 -0.2709 -1.9138 -0.7665
13160TIP3    H260896   1.118   6.228   4.947  0.5379  0.5808 -1.5375
13161TIP3   OH260897   4.963   2.924   5.199  0.0390  0.6976  0.1721
13161TIP3    H160898   4.913   2.954   5.123  0.5485  0.8115 -0.1293
13161TIP3    H260899   4.976   3.003   5.252  0.7173  0.8756 -0.2359
13162TIP3   OH260900   2.928   4.555   3.720  0.0435  0.4904  0.0567
13162TIP3    H160901   2.846   4.571   3.672 -1.5097 -0.1241  2.3026
13162TIP3    H260902   2.949   4.464   3.700 -0.3395  0.3738  0.1596
13163TIP3   OH260903   3.627   2.455   2.505 -0.3084  0.1632  0.2573
13163TIP3    H160904   3.575   2.417   2.435 -0.9328  0.5086  0.5251
13163TIP3    H260905   3.646   2.544   2.476  1.1036 -0.3173 -0.3437
13164TIP3   OH260906   6.499   3.032   6.514 -0.9775 -0.0811 -0.5119
13164TIP3    H160907   6.588   3.043   6.482 -0.7278  0.8609  0.4832
13164TIP3    H260908   6.467   3.121   6.529 -0.6812 -0.4401  2.9001
13165TIP3   OH260909   0.891   4.435   1.033  0.0650 -0.3000  0.3681
13165TIP3    H160910   0.811   4.394   1.002  0.9240 -0.1993 -2.1910
13165TIP3    H260911   0.962   4.379   1.001  1.0914  0.0755  1.8367
13166TIP3   OH260912   2.999   0.371  15.343 -0.1660 -0.2574 -0.2991
13166TIP3    H160913   2.922   0.340  15.295 -0.1260 -2.3525  0.8471
13166TIP3    H260914   3.072   0.356  15.283 -0.3912 -0.5021 -0.5179
13167TIP3   OH260915   4.190   5.743   2.120  0.3234 -0.3662  0.2616
13167TIP3    H160916   4.123   5.772   2.182  0.5228 -0.3100  0.4534
13167TIP3    H260917   4.269   5.733   2.173 -0.0282 -2.5280  0.4573
13168TIP3   OH260918   0.890   0.083  11.142 -0.3323 -0.1104 -0.8769
13168TIP3    H160919   0.909   0.154  11.203  0.2521  1.5328 -2.8628
13168TIP3    H260920   0.826   0.029  11.187  2.7248 -1.1199  2.6932
13169TIP3   OH260921   4.318   5.464   3.989 -0.1937  0.2114  0.2044
13169TIP3    H160922   4.405   5.498   4.008  0.4278 -0.9333 -0.5358
13169TIP3    H260923   4.323   5.371   4.011 -0.8094 -0.1564 -1.1441
13170TIP3   OH260924   0.529   1.149  13.290  0.0634 -0.5607  0.0085
13170TIP3    H160925   0.557   1.077  13.347  0.6059 -1.9877 -1.9318
13170TIP3    H260926   0.433   1.142  13.289  0.0910 -1.0036  0.1572
13171TIP3   OH260927   5.579   5.094   4.730 -0.0437 -0.2002 -0.9392
13171TIP3    H160928   5.530   5.168   4.696 -0.2160  0.8394  1.3923
13171TIP3    H260929   5.630   5.130   4.802  0.0633 -2.3067  0.1114
13172TIP3   OH260930   2.829   1.112   0.145 -0.0107  0.3618 -0.0560
13172TIP3    H160931   2.853   1.039   0.088  1.5396  0.0242  0.9551
13172TIP3    H260932   2.889   1.104   0.219 -3.1582 -0.4260  2.6412
13173TIP3   OH260933   4.044   6.729  11.666 -0.3376  0.3276 -0.3743
13173TIP3    H160934   4.107   6.793  11.699  1.4450 -0.3007 -2.3274
13173TIP3    H260935   3.959   6.768  11.685  0.6230  1.9615  0.9527
13174TIP3   OH260936   5.989   4.761   1.069 -0.1097 -0.0302 -0.9107
13174TIP3    H160937   5.942   4.730   1.146  2.4985  2.1931  1.7697
13174TIP3    H260938   5.954   4.848   1.052  2.3739  1.4364  0.7966
13175TIP3   OH260939   5.330   5.175   1.793  0.1730 -0.6849 -0.8442
13175TIP3    H160940   5.257   5.230   1.766 -0.4729 -0.2246  1.6059
13175TIP3    H260941   5.321   5.095   1.740 -1.9264 -0.5094 -0.8245
13176TIP3   OH260942   0.924   5.738   2.469  0.2650  0.2472  0.4028
13176TIP3    H160943   0.849   5.778   2.513  0.3376  1.5329 -0.5933
13176TIP3    H260944   0.896   5.648   2.451 -0.7758  0.5106  0.6411
13177TIP3   OH260945   5.313   5.442   1.993 -0.4757 -0.1784  0.1637
13177TIP3    H160946   5.318   5.399   2.079 -0.1323 -2.0281 -0.7290
13177TIP3    H260947   5.221   5.469   1.986 -0.0045  2.3720  2.1291
13178TIP3   OH260948   3.922   4.937   0.849  0.0470 -0.3069  0.0622
13178TIP3    H160949   3.981   4.865   0.871 -0.5236 -1.0676 -0.7918
13178TIP3    H260950   3.867   4.948   0.927  2.3170  1.5434  1.5539
13179TIP3   OH260951   0.805   3.984   5.561  0.4545  0.0056 -0.3770
13179TIP3    H160952   0.863   4.046   5.603  0.8437 -0.5628 -0.0658
13179TIP3    H260953   0.738   3.964   5.627 -0.2660  0.8596 -0.8211
13180TIP3   OH260954   5.218   3.258  17.004  0.8936  0.0374  0.0640
13180TIP3    H160955   5.239   3.272  17.097  2.0943 -0.2377 -0.1387
13180TIP3    H260956   5.227   3.163  16.992 -2.8250 -0.5026  0.4452
13181TIP3   OH260957   3.297   1.230  16.734  0.3324  0.5920 -0.0415
13181TIP3    H160958   3.279   1.136  16.720 -0.1710  0.6311  0.3178
13181TIP3    H260959   3.374   1.231  16.791  0.5291  0.4015 -0.2973
13182TIP3   OH260960   3.404   5.381  14.984  0.2922 -0.1803  0.7494
13182TIP3    H160961   3.401   5.324  14.907 -0.5439 -0.5386  1.0401
13182TIP3    H260962   3.345   5.340  15.047 -0.8300  1.3425  0.7424
13183TIP3   OH260963   1.730   1.927  14.818  0.1478 -0.8069 -0.5669
13183TIP3    H160964   1.686   1.844  14.835  2.6766 -1.7849  2.2874
13183TIP3    H260965   1.823   1.908  14.834  0.9678  2.2762 -1.0318
13184TIP3   OH260966   0.902   0.096  12.082 -0.2591 -0.6100  0.6230
13184TIP3    H160967   0.967   0.035  12.116  1.1023  0.4842  0.0459
13184TIP3    H260968   0.896   0.165  12.149  1.6943  1.0318 -0.7943
13185TIP3   OH260969   5.870   2.666   5.226  0.3098  0.1111  0.3141
13185TIP3    H160970   5.931   2.695   5.158  1.1016  1.5680  1.5945
13185TIP3    H260971   5.803   2.617   5.178  0.6262  1.4063 -1.5675
13186TIP3   OH260972   0.808   4.738  16.583 -0.5435 -0.5624  0.1209
13186TIP3    H160973   0.769   4.750  16.670  0.0050  0.3200  0.2516
13186TIP3    H260974   0.746   4.781  16.524 -2.5581 -3.7533 -0.3791
13187TIP3   OH260975   3.970   5.310  14.078  0.0795  0.4242  0.0998
13187TIP3    H160976   4.014   5.332  14.160  0.0115 -0.6655  0.4351
13187TIP3    H260977   4.028   5.246  14.036 -0.0196  0.7669 -0.5843
13188TIP3   OH260978   2.060   5.468   2.449  0.4134  0.4353 -0.3978
13188TIP3    H160979   2.141   5.487   2.495  0.0339  1.7426 -0.2316
13188TIP3    H260980   2.086   5.448   2.359  1.0126 -0.4174 -0.0422
13189TIP3   OH260981   0.513   4.650   0.182  0.4848  0.7536  0.7378
13189TIP3    H160982   0.537   4.614   0.267  2.3456 -0.6851 -0.3272
13189TIP3    H260983   0.417   4.641   0.178  0.5951 -1.3990  1.7217
13190TIP3   OH260984   3.772   6.567  12.117 -0.9782 -0.9937 -0.3009
13190TIP3    H160985   3.760   6.570  12.212 -0.6736 -0.1280 -0.2818
13190TIP3    H260986   3.856   6.524  12.105 -0.2772  0.2634 -0.0972
13191TIP3   OH260987   0.662   6.163  11.876 -0.0981 -0.3468  0.7444
13191TIP3    H160988   0.678   6.229  11.808 -0.0270 -0.4397  0.6714
13191TIP3    H260989   0.567   6.159  11.884 -0.1200  2.1218  3.0180
13192TIP3   OH260990   4.868   0.225  16.391 -0.4197 -0.1533  0.3358
13192TIP3    H160991   4.802   0.155  16.393  0.6438 -1.1803  0.4364
13192TIP3    H260992   4.911   0.216  16.306 -0.9310  1.0438 -0.0775
13193TIP3   OH260993   2.676   3.497  16.360  0.3348  0.3328  0.3008
13193TIP3    H160994   2.747   3.438  16.387  0.5920  0.8844  0.8570
13193TIP3    H260995   2.602   3.471  16.416 -0.5424 -1.5352 -1.5733
13194TIP3   OH260996   0.596   4.967  15.957  0.3568  0.3122  0.2687
13194TIP3    H160997   0.505   4.937  15.948  1.0868 -1.4468 -2.2061
13194TIP3    H260998   0.635   4.906  16.019  0.8311 -1.5888 -1.7976
13195TIP3   OH260999   0.188   5.167   4.251 -0.2959 -0.2910 -0.3899
13195TIP3    H161000   0.130   5.148   4.325  2.0050 -0.5240  1.4801
13195TIP3    H261001   0.194   5.085   4.203 -0.3293 -0.6901  0.2810
13196TIP3   OH261002   0.736   5.236   3.642 -0.1005  0.7711  0.9120
13196TIP3    H161003   0.711   5.222   3.551  0.7433 -1.2177  0.9456
13196TIP3    H261004   0.831   5.223   3.644 -0.2336 -0.2164  2.2182
13197TIP3   OH261005   3.272   4.473   0.589 -0.3154 -0.4616 -0.0723
13197TIP3    H161006   3.221   4.502   0.665  1.1838  0.2100  0.7101
13197TIP3    H261007   3.248   4.381   0.579 -0.4982 -0.5775  1.2507
13198TIP3   OH261008   2.155   4.931  11.638 -0.0718  0.2478 -0.3363
13198TIP3    H161009   2.179   5.012  11.683 -3.5276  0.0381  2.2614
13198TIP3    H261010   2.235   4.878  11.639  0.9967  1.7503  2.3115
13199TIP3   OH261011   4.519   0.423   3.245 -0.3970  0.3873 -0.3562
13199TIP3    H161012   4.595   0.476   3.267  0.6472 -1.3549  0.4028
13199TIP3    H261013   4.449   0.457   3.300  0.4599  0.4795  0.7092
13200TIP3   OH261014   0.292   0.893   3.752 -0.0520  0.2417  0.2895
13200TIP3    H161015   0.333   0.858   3.673 -1.2242 -0.6393  0.0332
13200TIP3    H261016   0.279   0.816   3.808  1.4572  0.9650  1.6925
13201TIP3   OH261017   4.703   4.153   1.176  0.0704 -0.0262 -0.0304
13201TIP3    H161018   4.611   4.140   1.153  0.3566 -0.3572 -1.0693
13201TIP3    H261019   4.741   4.198   1.100  0.6233  0.7109  0.6633
13202TIP3   OH261020   6.064   2.827  10.895  0.7291  0.1951  0.4478
13202TIP3    H161021   6.023   2.910  10.873  0.6909 -0.5824 -3.0036
13202TIP3    H261022   6.143   2.850  10.943  0.4339  2.1862  0.0413
13203TIP3   OH261023   6.203   1.773   2.485 -0.3113  0.3088 -0.0029
13203TIP3    H161024   6.206   1.743   2.575 -0.3431  0.3303  0.0055
13203TIP3    H261025   6.117   1.814   2.476 -1.3979 -1.9732 -0.7650
13204TIP3   OH261026   2.884   2.878   4.037  0.3371  0.5992 -0.0157
13204TIP3    H161027   2.867   2.786   4.058  1.6513  0.2666 -0.3132
13204TIP3    H261028   2.803   2.924   4.062 -0.7431 -0.7630 -0.8331
13205TIP3   OH261029   0.075   5.451  16.758  0.3360  0.1458  0.0186
13205TIP3    H161030   0.126   5.460  16.677  0.9457 -0.8464  0.2747
13205TIP3    H261031   0.031   5.366  16.749  1.2453 -0.4637  1.1771
13206TIP3   OH261032   0.891   3.282   1.601 -0.8693 -0.4071  0.0052
13206TIP3    H161033   0.982   3.258   1.584 -0.8456 -0.3001 -0.0162
13206TIP3    H261034   0.865   3.224   1.673 -0.8912 -0.6765 -0.2171
13207TIP3   OH261035   0.162   4.973  12.154  0.9336  0.1472  0.0402
13207TIP3    H161036   0.128   5.045  12.101  1.0693 -0.0850 -0.3626
13207TIP3    H261037   0.245   4.949  12.113  1.5056  0.5763  0.9044
13208TIP3   OH261038   4.902   2.332  16.917  0.5747  0.3871  0.1535
13208TIP3    H161039   4.886   2.329  17.011  1.1800  0.2837  0.2537
13208TIP3    H261040   4.982   2.385  16.908  0.3668  0.6309 -0.3209
13209TIP3   OH261041   4.321   4.301   0.891 -0.0318  0.9740  0.2858
13209TIP3    H161042   4.264   4.301   0.968 -0.0620 -2.1794  0.4150
13209TIP3    H261043   4.261   4.313   0.817  0.0782  4.8005  0.6130
13210TIP3   OH261044   4.325   4.981  16.737 -0.0375 -0.2918 -0.3606
13210TIP3    H161045   4.407   4.985  16.786 -0.4992 -1.0026  0.5055
13210TIP3    H261046   4.310   4.887  16.724 -1.2388 -0.2446  0.4420
13211TIP3   OH261047   4.575   6.093  12.502  0.0841 -0.1188 -0.2229
13211TIP3    H161048   4.493   6.069  12.460  0.6453 -1.8904 -0.3641
13211TIP3    H261049   4.629   6.128  12.430 -0.4707  0.9167 -0.1530
13212TIP3   OH261050   3.903   4.259  16.927  0.2686 -0.1243 -0.4198
13212TIP3    H161051   3.889   4.350  16.952 -0.1886 -0.1601 -0.5290
13212TIP3    H261052   3.964   4.263  16.854 -1.7112  0.2922 -2.1270
13213TIP3   OH261053   1.249   0.093  16.208 -0.4623 -0.0265  0.1356
13213TIP3    H161054   1.195   0.065  16.282 -0.2740 -1.3055 -0.1808
13213TIP3    H261055   1.333   0.050  16.223 -0.0369  0.6691 -0.2061
13214TIP3   OH261056   1.115   1.727  13.027 -0.1813 -0.2523 -0.0644
13214TIP3    H161057   1.105   1.822  13.022 -2.8400 -0.5013 -1.2070
13214TIP3    H261058   1.170   1.705  12.953  0.0314  0.3649 -0.0955
13215TIP3   OH261059   6.204   4.001  12.597 -0.5612  0.0222  0.1461
13215TIP3    H161060   6.297   4.022  12.589 -0.8060  0.6815 -1.2387
13215TIP3    H261061   6.180   3.963  12.513 -1.2054 -1.6382  1.0281
13216TIP3   OH261062   2.405   6.212   3.451  0.3076  0.3710 -0.1923
13216TIP3    H161063   2.401   6.250   3.363 -0.0086  0.4399 -0.1470
13216TIP3    H261064   2.417   6.287   3.509  1.0508  0.2817 -0.2185
13217TIP3   OH261065   5.883   6.392   0.443 -0.4082 -0.1005 -0.1280
13217TIP3    H161066   5.789   6.395   0.464 -0.8388  1.6087 -1.9462
13217TIP3    H261067   5.886   6.401   0.347  1.5773 -1.9286 -0.3225
13218TIP3   OH261068   1.496   0.429   4.737 -0.0313  0.1485  0.2247
13218TIP3    H161069   1.549   0.376   4.678 -0.3694 -1.1022  0.9921
13218TIP3    H261070   1.559   0.466   4.799  0.2903  1.2470 -0.7200
13219TIP3   OH261071   4.462   5.018  11.888  0.0707 -0.0430  0.3312
13219TIP3    H161072   4.540   5.033  11.942  0.4538 -0.7727 -0.0013
13219TIP3    H261073   4.497   5.006  11.799 -0.4578  0.0692  0.1093
13220TIP3   OH261074   4.249   0.778  16.952 -0.5830 -0.0976 -0.3368
13220TIP3    H161075   4.218   0.790  17.041 -0.7535 -1.3962 -0.1991
13220TIP3    H261076   4.170   0.757  16.902 -0.3562 -0.3987 -0.5773
13221TIP3   OH261077   2.744   5.220   1.534  0.3744  0.0967  0.3104
13221TIP3    H161078   2.752   5.216   1.438 -1.7554  2.2871 -0.0487
13221TIP3    H261079   2.830   5.252   1.563  0.6754  0.5805 -0.9927
13222TIP3   OH261080   5.936   3.407   3.122  0.0180 -0.6688 -0.2895
13222TIP3    H161081   5.860   3.450   3.083  0.1535 -1.0708 -1.0129
13222TIP3    H261082   6.009   3.429   3.065  0.7321  0.7526  1.0804
13223TIP3   OH261083   5.657   3.433   2.101  0.3607 -0.1969  0.7536
13223TIP3    H161084   5.614   3.445   2.186 -0.7850 -0.9397  0.2980
13223TIP3    H261085   5.730   3.373   2.119 -0.0676 -0.6030  1.1572
13224TIP3   OH261086   5.336   1.030  17.063 -0.5887  0.0847 -0.2236
13224TIP3    H161087   5.332   1.096  17.132  0.2877  2.1801 -2.0519
13224TIP3    H261088   5.275   0.962  17.091 -1.9112  1.8870  1.5254
13225TIP3   OH261089   6.004   5.155   2.687 -0.1399  0.0842 -0.2450
13225TIP3    H161090   5.938   5.086   2.693 -0.2328  0.0275 -1.6507
13225TIP3    H261091   6.071   5.129   2.751  0.4801 -2.0526 -1.6558
13226TIP3   OH261092   3.432   4.707   4.129 -0.4715 -0.6657  0.0599
13226TIP3    H161093   3.474   4.701   4.044  1.3508  1.7682  0.6854
13226TIP3    H261094   3.340   4.686   4.112  0.3104 -2.9078 -1.9586
13227TIP3   OH261095   5.875   1.105  17.008 -0.0607  0.0130  0.0002
13227TIP3    H161096   5.785   1.072  17.003  0.3713 -1.3821  0.8892
13227TIP3    H261097   5.893   1.112  17.101  0.8998 -0.1647 -0.1636
13228TIP3   OH261098   6.398   5.589   1.369  0.0234 -0.4679 -0.1436
13228TIP3    H161099   6.479   5.640   1.370 -1.9714  3.0640  1.9055
13228TIP3    H261100   6.397   5.544   1.454 -0.6431  0.4629  0.3585
13229TIP3   OH261101   5.894   0.083   2.610  0.0080  0.2383  0.6620
13229TIP3    H161102   5.904   0.007   2.667  3.0776  0.6083  0.7745
13229TIP3    H261103   5.877   0.046   2.524  1.6490 -0.6495  0.6764
13230TIP3   OH261104   4.784   3.542  16.932  0.2840 -0.5057 -0.3020
13230TIP3    H161105   4.811   3.631  16.910  0.6955 -1.0371 -2.1304
13230TIP3    H261106   4.808   3.490  16.855 -2.8161 -1.6296 -0.6413
13231TIP3   OH261107   0.396   1.812  13.228 -1.0083 -0.0665 -0.3615
13231TIP3    H161108   0.330   1.871  13.191 -1.0667  0.3733  0.4004
13231TIP3    H261109   0.392   1.829  13.322  0.3961  0.1852 -0.3242
13232TIP3   OH261110   0.305   3.801  16.227 -0.3844 -0.7174 -0.1770
13232TIP3    H161111   0.278   3.709  16.224  0.5940 -1.0201  0.0061
13232TIP3    H261112   0.267   3.834  16.309 -1.3903 -0.7333 -0.6192
13233TIP3   OH261113   0.226   4.820   1.468  0.0622  0.7868  0.0042
13233TIP3    H161114   0.162   4.872   1.421  1.0818  0.5735 -1.6803
13233TIP3    H261115   0.300   4.880   1.483  0.7097  0.2111 -0.8018
13234TIP3   OH261116   0.810   2.942  14.348  0.1638 -0.0703  0.1968
13234TIP3    H161117   0.725   2.986  14.348  0.4164  0.4740  1.4187
13234TIP3    H261118   0.870   3.004  14.305  0.6984  1.2521  2.6561
13235TIP3   OH261119   3.865   1.719   3.519  0.7420  0.7655 -0.1153
13235TIP3    H161120   3.947   1.671   3.538  0.4862 -0.0391 -0.9581
13235TIP3    H261121   3.797   1.652   3.524  0.0422  1.5259  1.0837
13236TIP3   OH261122   3.221   2.698  15.539 -0.0568 -0.6409 -0.1355
13236TIP3    H161123   3.176   2.780  15.559  0.5913  0.1627 -1.7895
13236TIP3    H261124   3.152   2.632  15.535 -0.7841  0.1239 -0.3369
13237TIP3   OH261125   1.126   3.851   3.417  0.5032  0.3513 -0.3098
13237TIP3    H161126   1.090   3.937   3.441 -0.0917 -0.2977  1.2686
13237TIP3    H261127   1.051   3.802   3.385  0.4254 -0.2448  0.7609
13238TIP3   OH261128   1.417   0.382   4.371  0.0068  0.4541  0.8769
13238TIP3    H161129   1.488   0.445   4.384  0.3423  0.3042 -0.1120
13238TIP3    H261130   1.461   0.297   4.367  0.0789  0.5372 -1.8417
13239TIP3   OH261131   3.231   2.055   5.171  0.5212 -0.2071 -0.1283
13239TIP3    H161132   3.249   2.025   5.260  0.2966 -1.9635 -0.6260
13239TIP3    H261133   3.137   2.041   5.160  0.5715 -0.1317 -0.6743
13240TIP3   OH261134   6.093   0.001   0.060 -0.2276  0.3928 -0.2386
13240TIP3    H161135   6.032  -0.057   0.105 -0.5224 -1.1110 -2.4261
13240TIP3    H261136   6.180  -0.036   0.079 -0.2754  0.3008 -0.1980
13241TIP3   OH261137   3.184   1.157   4.569  0.5032 -0.8164  0.4389
13241TIP3    H161138   3.218   1.082   4.617  0.7117 -0.0551  1.5256
13241TIP3    H261139   3.249   1.226   4.583 -0.2522 -0.0905  0.4340
13242TIP3   OH261140   5.952   2.603   2.997 -0.4287 -0.2094 -0.3217
13242TIP3    H161141   6.043   2.631   3.003 -0.7356  0.5743  1.3619
13242TIP3    H261142   5.955   2.521   2.949  0.9809  0.5654 -1.6679
13243TIP3   OH261143   1.643   6.141   4.163 -0.1763 -0.2061  0.2014
13243TIP3    H161144   1.588   6.076   4.118 -0.1492  0.4191 -0.7578
13243TIP3    H261145   1.732   6.106   4.155 -0.5039 -2.6617  4.1224
13244TIP3   OH261146   1.741   2.388   5.092 -0.9682  0.8850 -0.6505
13244TIP3    H161147   1.749   2.429   5.006 -1.0973 -0.0149 -1.1030
13244TIP3    H261148   1.680   2.445   5.140 -0.6842  1.5380 -1.0495
13245TIP3   OH261149   5.064   2.813   5.932  0.7371 -0.0400 -0.4050
13245TIP3    H161150   5.107   2.734   5.899  0.7650  0.2583 -1.1003
13245TIP3    H261151   5.028   2.787   6.017 -0.6463 -1.2693 -1.3111
13246TIP3   OH261152   5.679   0.902  13.849  0.6253 -0.4068 -0.2628
13246TIP3    H161153   5.613   0.884  13.783 -1.0944 -0.8543  1.4839
13246TIP3    H261154   5.631   0.950  13.918  1.6939 -2.1622  1.8100
13247TIP3   OH261155   3.740   3.114  11.973 -0.1605 -0.5155 -0.4487
13247TIP3    H161156   3.804   3.140  11.907 -0.9711  1.0683 -0.6637
13247TIP3    H261157   3.656   3.119  11.928 -0.6197 -0.5547  0.3884
13248TIP3   OH261158   4.072   3.226   6.546  0.6805 -0.0472  0.1652
13248TIP3    H161159   4.108   3.142   6.518 -2.3705 -1.7454  0.9250
13248TIP3    H261160   3.987   3.204   6.583 -1.9365  3.7135 -2.8369
13249TIP3   OH261161   3.259   2.514   4.370  0.3426  0.1239  0.5394
13249TIP3    H161162   3.240   2.597   4.415  0.7152 -0.3833  1.6539
13249TIP3    H261163   3.351   2.497   4.389  0.6938  0.2051 -0.9664
13250TIP3   OH261164   2.419   0.307  14.273 -0.5228  0.1182 -0.0713
13250TIP3    H161165   2.410   0.217  14.239 -1.1306  0.8809 -2.0755
13250TIP3    H261166   2.403   0.298  14.367 -1.9215 -1.7042 -0.4012
13251TIP3   OH261167   1.502   3.116   3.218  0.1366 -0.2527  0.3396
13251TIP3    H161168   1.567   3.063   3.265 -0.0635 -0.8812 -0.0808
13251TIP3    H261169   1.436   3.053   3.189  0.4543  0.0451 -1.1348
13252TIP3   OH261170   0.237   1.158  15.123 -0.1765 -0.9461 -0.7478
13252TIP3    H161171   0.240   1.113  15.039  0.7110 -2.2289 -0.0697
13252TIP3    H261172   0.172   1.110  15.175 -0.4861 -0.3646 -0.5867
13253TIP3   OH261173   2.822   0.896   4.327 -0.3948 -0.4965  0.1802
13253TIP3    H161174   2.745   0.953   4.328 -1.6022 -2.0353 -0.8940
13253TIP3    H261175   2.892   0.952   4.292 -0.9882  0.9289  1.1714
13254TIP3   OH261176   4.117   1.608   3.578  0.4690 -0.2931  0.3019
13254TIP3    H161177   4.196   1.637   3.624 -0.3474 -0.0256  1.5651
13254TIP3    H261178   4.112   1.514   3.598 -0.0488 -0.1172  1.0282
13255TIP3   OH261179   2.367   6.315   3.199 -0.6568 -0.1794 -0.0923
13255TIP3    H161180   2.307   6.281   3.133  0.0781 -0.9702 -0.3801
13255TIP3    H261181   2.443   6.345   3.150 -0.7670  0.7390  0.2753
13256TIP3   OH261182   4.726   4.789   1.828  0.2999 -0.2067  0.3566
13256TIP3    H161183   4.706   4.883   1.834  1.9258  0.1074  1.4724
13256TIP3    H261184   4.708   4.755   1.915 -0.5435 -1.0108 -0.1191
13257TIP3   OH261185   3.040   4.653   0.548  0.2367  0.4720 -0.3101
13257TIP3    H161186   3.077   4.565   0.546 -0.3825  0.1610  0.9722
13257TIP3    H261187   2.946   4.640   0.560  0.2806  1.2947  1.1435
13258TIP3   OH261188   4.012   3.115   5.337 -0.1568 -0.6210  0.1051
13258TIP3    H161189   4.100   3.151   5.344  0.2674 -1.7001  0.5020
13258TIP3    H261190   3.992   3.083   5.425 -1.3498  0.5059  0.2712
13259TIP3   OH261191   3.837   3.673  15.049  0.3053  0.0104 -0.7096
13259TIP3    H161192   3.767   3.684  14.985  0.0371  0.3877 -0.3527
13259TIP3    H261193   3.830   3.749  15.106  0.8376 -0.0880 -0.5084
13260TIP3   OH261194   5.259   0.787  14.462 -0.3948 -0.5003 -0.2497
13260TIP3    H161195   5.240   0.804  14.554 -1.4288 -0.3738 -0.4830
13260TIP3    H261196   5.241   0.869  14.418 -2.9109 -1.3739 -1.0013
13261TIP3   OH261197   2.607   3.718  16.942  0.5801 -0.0391  0.0883
13261TIP3    H161198   2.632   3.786  17.004 -1.5107  0.8722  0.0308
13261TIP3    H261199   2.676   3.718  16.876  0.1840  2.7575 -0.4403
13262TIP3   OH261200   4.634   3.593   5.636  0.4860 -0.1554 -0.4751
13262TIP3    H161201   4.697   3.570   5.567  1.0446  1.7283 -0.6666
13262TIP3    H261202   4.555   3.620   5.589  0.2633 -0.5042 -0.3061
13263TIP3   OH261203   4.611   3.581   4.735 -0.6984 -0.9264  0.1825
13263TIP3    H161204   4.587   3.498   4.694 -0.0700 -1.0444  0.0323
13263TIP3    H261205   4.528   3.622   4.760 -1.0498 -1.2212 -0.4909
13264TIP3   OH261206   3.100   1.765  13.231 -0.4411 -0.1583 -0.3548
13264TIP3    H161207   3.114   1.847  13.183 -0.4157  0.3708  0.5349
13264TIP3    H261208   3.168   1.764  13.298  0.2152 -1.4325 -1.0120
13265TIP3   OH261209   1.468   2.530   3.220  0.4309 -0.2587 -0.7199
13265TIP3    H161210   1.438   2.611   3.179 -0.7986 -0.8191 -0.9499
13265TIP3    H261211   1.544   2.504   3.168 -0.9663 -0.8373 -2.5871
13266TIP3   OH261212   1.429   5.183   5.082  0.4616 -0.2096  0.5207
13266TIP3    H161213   1.482   5.247   5.130 -0.0187  0.7641 -0.1952
13266TIP3    H261214   1.357   5.162   5.141  0.8465 -0.4019  0.9229
13267TIP3   OH261215   0.405   4.878  12.120  0.0780 -0.7417 -0.6320
13267TIP3    H161216   0.441   4.915  12.200 -0.1110  1.4229 -1.4951
13267TIP3    H261217   0.430   4.785  12.123  0.4473 -0.6182  1.6875
13268TIP3   OH261218   1.487   5.555  12.704 -0.0546  0.2726  0.4054
13268TIP3    H161219   1.433   5.481  12.679  1.6427 -1.0461  0.4836
13268TIP3    H261220   1.577   5.523  12.696  0.8186  2.8021 -1.1525
13269TIP3   OH261221   0.847   3.231   0.899  0.2544 -0.1992  0.7473
13269TIP3    H161222   0.824   3.145   0.864 -5.3325  1.5009 -0.6559
13269TIP3    H261223   0.798   3.237   0.981  1.0736  1.4231  1.1554
13270TIP3   OH261224   0.274   5.383   3.210  0.1516  0.3074  0.0706
13270TIP3    H161225   0.223   5.304   3.225  1.9941 -0.7636  0.8889
13270TIP3    H261226   0.244   5.414   3.124 -0.6752 -1.2166 -0.2282
13271TIP3   OH261227   4.842   0.463   1.349 -0.2125  0.1004 -0.2263
13271TIP3    H161228   4.923   0.412   1.353 -0.9996 -1.1595  0.1581
13271TIP3    H261229   4.783   0.419   1.411 -0.9008  1.5281  0.1709
13272TIP3   OH261230   5.399   2.487   3.473 -0.1465  0.0717  0.1444
13272TIP3    H161231   5.314   2.451   3.449 -0.5047 -0.2639  1.8518
13272TIP3    H261232   5.450   2.484   3.391 -1.5037 -0.4434 -0.7068
13273TIP3   OH261233   4.709   0.364  12.584 -0.3475  0.3193 -0.4408
13273TIP3    H161234   4.727   0.310  12.661 -0.4058  0.2862 -0.4502
13273TIP3    H261235   4.623   0.335  12.554 -0.4275  0.4958 -0.3812
13274TIP3   OH261236   3.804   3.928   2.901 -0.0006  0.2595  0.5953
13274TIP3    H161237   3.895   3.942   2.876 -0.2875  2.7611  0.7325
13274TIP3    H261238   3.755   3.998   2.857 -1.6075  0.0431  1.9236
13275TIP3   OH261239   4.454   3.036  16.513  0.3505  0.1322  0.3887
13275TIP3    H161240   4.424   2.953  16.550  2.3896 -0.1590  1.5396
13275TIP3    H261241   4.512   3.011  16.442 -1.0374  0.6637 -0.9896
13276TIP3   OH261242   2.820   2.359  15.023 -0.1122  0.3156  0.2660
13276TIP3    H161243   2.854   2.426  14.965  0.4066  0.4404  0.7025
13276TIP3    H261244   2.898   2.310  15.051 -0.3751  0.1325  0.6909
13277TIP3   OH261245   6.452   6.069   6.339 -0.4341  0.0601 -0.0058
13277TIP3    H161246   6.448   5.976   6.362 -0.0362  0.0608  0.0758
13277TIP3    H261247   6.524   6.104   6.393 -1.0133  0.5559  0.4620
13278TIP3   OH261248   3.685   5.725  15.281  0.3964 -0.3963  0.2850
13278TIP3    H161249   3.688   5.742  15.187 -0.3110  0.1634  0.3608
13278TIP3    H261250   3.729   5.641  15.291 -0.1111 -0.7816 -0.6224
13279TIP3   OH261251   0.487   5.310   2.939 -0.3274  0.0957 -0.1721
13279TIP3    H161252   0.485   5.405   2.946  0.8395  0.0957  0.3875
13279TIP3    H261253   0.549   5.282   3.006  0.4870 -0.9585 -1.3099
13280TIP3   OH261254   6.713   1.796  12.578 -0.6418 -0.0504  0.1870
13280TIP3    H161255   6.665   1.876  12.560 -0.9712 -0.5753 -1.4521
13280TIP3    H261256   6.645   1.729  12.590 -0.3634 -0.4827 -0.5604
13281TIP3   OH261257   5.527   4.403   2.582 -0.0854 -0.2874 -0.1985
13281TIP3    H161258   5.499   4.492   2.559  1.2659  0.3818  0.6058
13281TIP3    H261259   5.485   4.386   2.666  0.4102 -0.0105  0.1134
13282TIP3   OH261260   1.064   6.380  11.993 -0.1209 -0.0378 -0.4535
13282TIP3    H161261   1.144   6.374  11.940  0.1354  0.6877 -0.1647
13282TIP3    H261262   1.078   6.319  12.065  0.6617  0.8602  0.1962
13283TIP3   OH261263   4.489   4.249   4.472 -0.3270  0.0042 -0.3068
13283TIP3    H161264   4.506   4.339   4.498 -2.0819  0.1900  0.3641
13283TIP3    H261265   4.485   4.251   4.377 -0.2963  0.6273 -0.2967
13284TIP3   OH261266   1.576   4.378  15.961 -0.1271 -0.0355  0.1550
13284TIP3    H161267   1.623   4.343  15.886  0.0629  0.9624 -0.2107
13284TIP3    H261268   1.484   4.379  15.934  0.0326  1.1334 -0.4238
13285TIP3   OH261269   2.408   4.329  15.866  0.4601 -0.1458  0.7544
13285TIP3    H161270   2.369   4.416  15.866  2.2263  0.7231 -0.5211
13285TIP3    H261271   2.375   4.287  15.945 -2.7953  0.5432 -0.1168
13286TIP3   OH261272   6.577   5.042   0.674 -0.6991  0.0981  0.8226
13286TIP3    H161273   6.555   4.957   0.636 -0.9078  0.3695  0.3352
13286TIP3    H261274   6.581   5.026   0.768 -0.9449 -0.4038  0.7487
13287TIP3   OH261275   3.096   6.585  17.284  0.0354 -0.2403  0.0953
13287TIP3    H161276   3.034   6.514  17.299 -1.0462  0.7675  0.6008
13287TIP3    H261277   3.142   6.595  17.367 -2.6127  2.2050  1.4244
13288TIP3   OH261278   5.047   1.887   6.311  0.0685 -0.4144  0.2470
13288TIP3    H161279   5.103   1.852   6.380  1.4399 -1.1987 -1.2050
13288TIP3    H261280   5.093   1.965   6.279  0.2133 -0.8798 -0.7367
13289TIP3   OH261281   6.580   1.312   3.409  0.6727  0.4885  0.2731
13289TIP3    H161282   6.542   1.256   3.342  2.1449 -0.6158  0.3100
13289TIP3    H261283   6.560   1.401   3.380  0.6014  0.0130 -1.2259
13290TIP3   OH261284   3.410   4.506  11.630  0.5011 -0.1710  0.0600
13290TIP3    H161285   3.374   4.417  11.631 -1.6389  0.6152 -0.3252
13290TIP3    H261286   3.350   4.555  11.572  1.5194  1.5509  0.3953
13291TIP3   OH261287   6.271   0.793   4.727  0.5212  0.0647 -0.0135
13291TIP3    H161288   6.202   0.730   4.704  1.7887 -1.2277 -0.4413
13291TIP3    H261289   6.286   0.778   4.820  0.2472  0.3310  0.0749
13292TIP3   OH261290   0.162   3.163  13.023 -0.2600  0.0358  1.1900
13292TIP3    H161291   0.215   3.147  13.102  0.5258 -0.4284  0.5815
13292TIP3    H261292   0.202   3.240  12.983 -0.6399  0.2502  1.2177
13293TIP3   OH261293   3.550   0.767   3.002  0.8260  0.3928  0.3912
13293TIP3    H161294   3.531   0.805   2.916 -0.2243  0.6849  0.7401
13293TIP3    H261295   3.636   0.727   2.992  1.6309  2.1894 -0.2254
13294TIP3   OH261296   5.820   3.169   3.216 -0.3030 -0.0519 -0.3748
13294TIP3    H161297   5.742   3.211   3.179 -1.4087  0.1178  1.9048
13294TIP3    H261298   5.890   3.233   3.204 -0.7353  0.2261 -1.5614
13295TIP3   OH261299   2.977   0.425   2.640  0.2408 -0.4059 -1.1922
13295TIP3    H161300   2.892   0.459   2.610  0.0170  1.2992  1.0698
13295TIP3    H261301   2.958   0.389   2.727  1.9145  0.5031 -0.4158
13296TIP3   OH261302   6.695   2.532   6.301 -0.1517  0.1804  0.4057
13296TIP3    H161303   6.734   2.580   6.375 -0.3883 -1.3336  1.5577
13296TIP3    H261304   6.601   2.545   6.312 -0.2030 -0.3306  0.5689
13297TIP3   OH261305   4.578   4.645  11.997  0.0928 -0.2125 -0.6196
13297TIP3    H161306   4.640   4.622  11.928  2.4184 -1.5474  1.7375
13297TIP3    H261307   4.552   4.561  12.035 -2.4433  0.3833 -0.8732
13298TIP3   OH261308   1.418   1.638  11.181 -0.2849 -0.2694  0.3305
13298TIP3    H161309   1.391   1.578  11.250  0.2157 -0.4521  0.3706
13298TIP3    H261310   1.500   1.676  11.212 -0.5539  0.3846  0.2717
13299TIP3   OH261311   1.150   3.701  14.611  0.1562  0.0740  0.5706
13299TIP3    H161312   1.205   3.635  14.653 -0.7237 -0.4147  0.9852
13299TIP3    H261313   1.117   3.658  14.532 -1.8231 -0.6525  1.7274
13300TIP3   OH261314   3.076   2.741   0.081  0.0702  0.3619 -0.2970
13300TIP3    H161315   3.140   2.681   0.119  0.8096 -0.0710 -2.1088
13300TIP3    H261316   3.128   2.815   0.050 -0.7805  1.7891  1.5084
13301TIP3   OH261317   2.887   4.979  11.868  0.0012  0.5421 -0.5661
13301TIP3    H161318   2.858   5.016  11.952  1.1398 -0.7299  0.4473
13301TIP3    H261319   2.898   4.885  11.887 -0.6989  0.0481 -2.4421
13302TIP3   OH261320   6.452   5.543   1.650 -0.4371 -0.4285 -0.2328
13302TIP3    H161321   6.498   5.525   1.732 -3.0962  0.7126  1.6399
13302TIP3    H261322   6.445   5.638   1.647 -1.3167 -0.5097 -1.2493
13303TIP3   OH261323   0.025   0.484   0.637 -0.6317  0.1695 -0.5311
13303TIP3    H161324   0.109   0.445   0.613  0.5050  2.0452  0.1520
13303TIP3    H261325  -0.036   0.452   0.571  0.7105 -0.9020 -1.2998
13304TIP3   OH261326   5.959   1.153   0.037  0.2729 -0.2297  0.4862
13304TIP3    H161327   5.939   1.085   0.101  2.5319  0.5309  2.1372
13304TIP3    H261328   5.934   1.235   0.080  0.7186  0.2137 -0.0651
13305TIP3   OH261329   0.851   6.276  16.516  0.0568  0.5677 -0.1193
13305TIP3    H161330   0.921   6.272  16.451  0.2979  2.0353  0.0262
13305TIP3    H261331   0.835   6.185  16.540  0.1240 -0.0005 -2.0519
13306TIP3   OH261332   5.699   0.429  14.466  0.4758 -0.0426 -0.2284
13306TIP3    H161333   5.604   0.434  14.477  0.5728  0.4916  0.4307
13306TIP3    H261334   5.712   0.357  14.404 -0.3961  0.3938 -0.9388
13307TIP3   OH261335   6.419   0.079   6.843  0.7688  0.4569 -0.7227
13307TIP3    H161336   6.351   0.102   6.781  0.2212  0.7090 -0.0475
13307TIP3    H261337   6.476   0.157   6.846  0.2429  0.8327 -0.1929
13308TIP3   OH261338   2.499   5.467   0.399 -0.3961 -0.0529 -0.5215
13308TIP3    H161339   2.560   5.530   0.438  0.0642 -0.7632 -0.0775
13308TIP3    H261340   2.413   5.494   0.431 -0.2527  0.5783 -0.6498
13309TIP3   OH261341   4.966   1.307   1.631  1.1658 -0.2296 -0.3256
13309TIP3    H161342   4.951   1.214   1.645 -1.3943  0.4482  2.2989
13309TIP3    H261343   5.032   1.331   1.696 -0.5701  0.3155  1.3198
13310TIP3   OH261344   2.252   1.945   4.262  0.0952  0.0167  0.1340
13310TIP3    H161345   2.279   2.030   4.227  2.0426 -0.3182  0.6846
13310TIP3    H261346   2.218   1.965   4.350 -1.5008  0.4410 -0.5434
13311TIP3   OH261347   4.060   3.322  15.412 -0.0263  0.5445 -0.2759
13311TIP3    H161348   4.060   3.300  15.505  1.0684  0.4887 -0.2831
13311TIP3    H261349   4.058   3.237  15.368 -0.8080  0.5732 -0.3210
13312TIP3   OH261350   2.756   5.806   2.746  0.5225  0.3539 -0.2193
13312TIP3    H161351   2.731   5.759   2.666 -0.1140 -0.3690  0.3871
13312TIP3    H261352   2.849   5.825   2.735  1.1088 -2.0840  0.0035
13313TIP3   OH261353   3.632   1.781  12.745  0.1569  0.1915 -0.2805
13313TIP3    H161354   3.580   1.861  12.736  1.8091  1.3145 -0.2581
13313TIP3    H261355   3.633   1.743  12.657 -2.7748 -1.2824  0.1992
13314TIP3   OH261356   3.317   1.267   2.776  0.8347  0.2735  0.1262
13314TIP3    H161357   3.313   1.178   2.742 -0.7608  0.9223 -1.6238
13314TIP3    H261358   3.239   1.276   2.830  0.2512  0.9540 -0.7853
13315TIP3   OH261359   1.914   0.672  11.674 -0.1458  0.0052  0.1350
13315TIP3    H161360   1.874   0.700  11.756  0.3002  0.9332  0.0460
13315TIP3    H261361   1.967   0.596  11.697  0.5933  0.7246  0.8598
13316TIP3   OH261362   2.616   4.327   5.057 -0.5713  0.1585 -0.2550
13316TIP3    H161363   2.686   4.262   5.052  0.4638  1.0870  1.4371
13316TIP3    H261364   2.565   4.302   5.134  0.3604  1.7761  0.9515
13317TIP3   OH261365   0.110   0.110  14.234 -0.1189  0.3683  0.4865
13317TIP3    H161366   0.176   0.074  14.174  0.6725 -1.6375  2.4017
13317TIP3    H261367   0.027   0.095  14.189  0.6078  2.3911 -1.7136
13318TIP3   OH261368   5.626   2.438   1.351 -0.2319  0.3609 -0.1861
13318TIP3    H161369   5.622   2.356   1.399 -0.2675 -0.5939 -1.7312
13318TIP3    H261370   5.626   2.506   1.418  0.6276 -0.9169  1.1648
13319TIP3   OH261371   0.635   2.995  17.424  0.4331  0.5110 -0.4134
13319TIP3    H161372   0.717   2.993  17.375 -1.3547 -0.0937 -3.7090
13319TIP3    H261373   0.569   2.966  17.360 -2.5287  2.2209  1.6466
13320TIP3   OH261374   4.001   0.014  12.398  0.3892  0.0167 -0.3151
13320TIP3    H161375   3.990   0.077  12.470 -0.6830 -0.0378 -0.4253
13320TIP3    H261376   4.031   0.068  12.325  1.3513  0.0951  0.1120
13321TIP3   OH261377   6.263   2.480   4.817 -0.3428  0.5263 -0.6030
13321TIP3    H161378   6.249   2.566   4.857 -0.7219  1.1356 -1.9925
13321TIP3    H261379   6.214   2.483   4.735  0.4750 -0.6506 -1.1690
13322TIP3   OH261380   0.510   2.837  15.266  0.1818 -0.0640 -0.9914
13322TIP3    H161381   0.536   2.926  15.242  1.4683 -0.5479 -1.4807
13322TIP3    H261382   0.576   2.781  15.226 -0.2794 -1.2088 -0.2104
13323TIP3   OH261383   2.338   0.139   5.524  0.1374 -0.3352 -0.0066
13323TIP3    H161384   2.340   0.044   5.515  0.2531 -0.8078  3.5049
13323TIP3    H261385   2.430   0.164   5.535  0.0094  0.0386  0.2384
13324TIP3   OH261386   6.701   1.620   1.209 -0.7771  0.2940 -0.1514
13324TIP3    H161387   6.680   1.649   1.120  0.5487 -0.1166 -0.6263
13324TIP3    H261388   6.789   1.653   1.225  0.0884 -1.8884 -0.0428
13325TIP3   OH261389   3.873   5.790   0.585  0.4774  0.5779  0.0202
13325TIP3    H161390   3.865   5.866   0.642 -0.7015  0.8650 -0.5100
13325TIP3    H261391   3.866   5.715   0.645 -0.4968  0.8805  0.3072
13326TIP3   OH261392   5.403   0.639  17.083  0.2673 -0.5428 -0.0678
13326TIP3    H161393   5.410   0.588  17.002  0.1921 -1.1977  0.3374
13326TIP3    H261394   5.309   0.657  17.092  0.3063 -0.2283 -0.2705
13327TIP3   OH261395   3.495   5.114  14.325  0.4390  0.4119 -0.9173
13327TIP3    H161396   3.563   5.142  14.263  0.2580  0.1402 -1.2437
13327TIP3    H261397   3.481   5.190  14.381  0.8863  0.5307 -0.9597
13328TIP3   OH261398   6.451   5.306  14.339 -0.0965 -0.2782 -0.6479
13328TIP3    H161399   6.546   5.302  14.332 -0.1875 -1.4716 -1.4405
13328TIP3    H261400   6.429   5.399  14.328  1.0319  0.1558  0.5345
13329TIP3   OH261401   3.677   1.712  13.200 -0.7631 -0.3226 -0.2353
13329TIP3    H161402   3.746   1.739  13.139  0.0147 -1.0300  0.3147
13329TIP3    H261403   3.666   1.618  13.185  1.4011 -1.1288  2.5702
13330TIP3   OH261404   3.366   3.033   4.119  0.9199 -0.0197  0.4418
13330TIP3    H161405   3.378   2.955   4.066  0.6826  1.3526 -1.7541
13330TIP3    H261406   3.304   3.007   4.187 -1.0461 -1.1613 -1.6653
13331TIP3   OH261407   0.584   1.882  15.998  0.3625  0.7696 -0.0578
13331TIP3    H161408   0.583   1.843  16.085  1.0172 -1.4979 -1.0023
13331TIP3    H261409   0.676   1.891  15.976  0.2377 -0.2145 -1.1164
13332TIP3   OH261410   4.810   6.648   1.313 -0.1926  0.6861 -0.0883
13332TIP3    H161411   4.870   6.701   1.261  0.1025 -1.3517 -1.9751
13332TIP3    H261412   4.724   6.661   1.272 -0.2444  0.2659 -0.1160
13333TIP3   OH261413   2.699   0.896   3.906  0.6417 -0.2409 -0.5778
13333TIP3    H161414   2.705   0.802   3.923 -0.1095  0.0393  1.6306
13333TIP3    H261415   2.626   0.926   3.961  0.8200  1.6284 -1.2679
13334TIP3   OH261416   2.581   2.793  12.541 -0.2376  0.1695 -0.2795
13334TIP3    H161417   2.522   2.746  12.600  1.0807 -1.6860 -0.3668
13334TIP3    H261418   2.667   2.788  12.584  0.4175  0.2893 -1.5330
13335TIP3   OH261419   0.334   6.540  13.220  0.0392  0.4690  0.1950
13335TIP3    H161420   0.416   6.493  13.209 -0.1329  0.3276 -0.6027
13335TIP3    H261421   0.319   6.543  13.314  0.1877 -0.8392  0.2710
13336TIP3   OH261422   0.362   6.094   0.434  0.5770 -1.6136 -0.5017
13336TIP3    H161423   0.382   6.142   0.514 -2.2326 -0.2134 -0.5219
13336TIP3    H261424   0.401   6.146   0.364 -2.1593  0.6854 -0.4980
13337TIP3   OH261425   6.355   1.819  16.566 -0.0476 -0.3253  0.1602
13337TIP3    H161426   6.333   1.895  16.620 -2.7349 -1.1563  0.4137
13337TIP3    H261427   6.297   1.827  16.490  0.5706 -1.4500 -0.4582
13338TIP3   OH261428   1.164   6.124   2.088  0.1257  0.1456 -0.0596
13338TIP3    H161429   1.225   6.051   2.086 -1.5216 -1.2752 -0.5068
13338TIP3    H261430   1.151   6.142   2.181 -0.5891 -1.1654  0.1233
13339TIP3   OH261431   2.603   4.552  15.781 -0.6059 -0.8115 -0.5784
13339TIP3    H161432   2.596   4.457  15.771 -1.6409 -0.7284 -0.7701
13339TIP3    H261433   2.695   4.568  15.799 -0.6234 -1.9686  0.6771
13340TIP3   OH261434   3.848   4.089  12.463 -0.7178 -0.1152 -0.1842
13340TIP3    H161435   3.804   4.085  12.378  0.7184 -2.8801 -0.9430
13340TIP3    H261436   3.779   4.075  12.527 -1.4541 -0.7703 -1.0977
13341TIP3   OH261437   2.878   0.430   3.374  0.0210 -0.8595 -0.3523
13341TIP3    H161438   2.807   0.396   3.429 -0.3256 -0.2970 -0.4466
13341TIP3    H261439   2.865   0.525   3.372  1.8544 -0.5081  1.1513
13342TIP3   OH261440   1.455   0.967   2.602  1.1603  0.5568  0.0966
13342TIP3    H161441   1.451   0.970   2.506  1.0347 -0.9810  0.0375
13342TIP3    H261442   1.544   0.938   2.621  0.5181 -1.3662  0.3563
13343TIP3   OH261443   3.263   6.560   2.898 -0.0526  0.0539  0.3319
13343TIP3    H161444   3.258   6.502   2.974  0.9885  0.5093  0.7609
13343TIP3    H261445   3.328   6.626   2.922 -1.0720  1.3121 -0.2148
13344TIP3   OH261446   0.853   6.099  14.380 -0.4234  0.4213 -0.2200
13344TIP3    H161447   0.877   6.064  14.465 -0.4228 -0.0963 -0.4291
13344TIP3    H261448   0.778   6.155  14.398 -0.1055  0.7242  0.1924
13345TIP3   OH261449   4.358   2.341  13.524  0.0677 -0.1710  0.1096
13345TIP3    H161450   4.352   2.303  13.612 -0.3645  2.4520  1.2859
13345TIP3    H261451   4.268   2.366  13.502  0.1655 -0.7931 -1.1310
13346TIP3   OH261452   4.841   2.438   4.521  0.2230 -0.2335  0.1100
13346TIP3    H161453   4.924   2.390   4.514  0.1090 -1.1233  3.1367
13346TIP3    H261454   4.824   2.470   4.433  2.8858 -1.5098 -0.9899
13347TIP3   OH261455   6.480   1.114   6.087 -0.0077 -0.2029  0.1554
13347TIP3    H161456   6.433   1.153   6.161  0.9651 -0.0494  0.7063
13347TIP3    H261457   6.562   1.083   6.125  1.2009  1.2679 -1.1352
13348TIP3   OH261458   1.782   4.991   3.381 -0.5201  0.0536  0.2482
13348TIP3    H161459   1.778   4.978   3.475  1.8149 -1.2663  0.2596
13348TIP3    H261460   1.859   5.046   3.368 -1.4827  1.1866 -0.8385
13349TIP3   OH261461   5.226   5.290   3.031  0.0485  0.3280  0.1524
13349TIP3    H161462   5.259   5.308   3.119  1.7317 -0.3911 -0.3008
13349TIP3    H261463   5.263   5.205   3.008  0.3271  0.8711 -1.5646
13350TIP3   OH261464   6.400   1.960   1.964  0.2615 -0.2765 -0.5124
13350TIP3    H161465   6.403   1.924   1.875 -0.8610  0.3485 -0.8143
13350TIP3    H261466   6.485   2.002   1.976  0.4735 -0.4920 -1.2300
13351TIP3   OH261467   2.917   4.373   6.385 -0.4669 -0.8375  0.0326
13351TIP3    H161468   2.916   4.410   6.473  0.8183  0.1023 -0.3330
13351TIP3    H261469   2.884   4.284   6.397 -0.7617 -0.5740  1.3830
13352TIP3   OH261470   2.501   1.292  16.842  0.2313 -0.4717  0.2404
13352TIP3    H161471   2.525   1.264  16.754  0.3280  1.6842 -0.4781
13352TIP3    H261472   2.436   1.361  16.828  1.0432  0.6704  1.8050
13353TIP3   OH261473   2.557   5.379   1.375 -0.1189  0.1123  0.0338
13353TIP3    H161474   2.511   5.449   1.420 -1.2853 -1.0468  0.7021
13353TIP3    H261475   2.649   5.407   1.374 -0.2398  0.7067  2.1011
13354TIP3   OH261476   1.168   5.089  10.683 -0.7932  0.0738  0.0467
13354TIP3    H161477   1.077   5.103  10.708 -0.8928  0.0110 -0.2728
13354TIP3    H261478   1.211   5.057  10.762 -1.1523 -0.3453  0.0758
13355TIP3   OH261479   4.021   0.015   5.097 -0.3386  0.0421  0.2653
13355TIP3    H161480   4.034   0.096   5.049 -1.5981  0.0992 -0.0150
13355TIP3    H261481   4.042   0.037   5.188  1.3263  0.1223 -0.1178
13356TIP3   OH261482   1.796   5.862   4.749  0.2286 -0.2795 -0.2292
13356TIP3    H161483   1.767   5.795   4.812 -0.2046  2.5289  2.8765
13356TIP3    H261484   1.891   5.851   4.745  0.1782 -1.0104  0.3231
13357TIP3   OH261485   2.446   5.951   1.296  0.2920  0.4629  0.4952
13357TIP3    H161486   2.354   5.972   1.279 -0.0584 -1.4629 -0.2297
13357TIP3    H261487   2.446   5.897   1.375  0.5393 -1.1728 -0.5696
13358TIP3   OH261488   3.369   5.057   0.566 -0.2647  0.2438  0.2661
13358TIP3    H161489   3.452   5.091   0.601 -0.0586 -1.7728  1.9612
13358TIP3    H261490   3.384   4.963   0.557 -2.6873 -0.3454  1.6309
13359TIP3   OH261491   4.403   1.483  12.780 -0.2359 -0.1841  0.1727
13359TIP3    H161492   4.326   1.427  12.767  0.0391 -0.4136 -0.5392
13359TIP3    H261493   4.388   1.558  12.722  0.5935 -0.7817 -0.8663
13360TIP3   OH261494   2.233   5.279  15.188 -0.0138 -0.5285  0.1440
13360TIP3    H161495   2.328   5.279  15.176 -0.0115 -0.7140  0.1769
13360TIP3    H261496   2.199   5.237  15.109  0.0125 -2.0226  0.8995
13361TIP3   OH261497   3.187   3.062   3.438  0.0830 -0.6596 -0.5029
13361TIP3    H161498   3.166   3.121   3.365 -0.6380  0.9190  0.9075
13361TIP3    H261499   3.108   3.063   3.492  1.4835  0.3047  1.6429
13362TIP3   OH261500   0.640   3.690  11.143 -0.0893 -0.2921 -0.2195
13362TIP3    H161501   0.640   3.771  11.194 -1.0279 -0.6281  0.3339
13362TIP3    H261502   0.730   3.683  11.110  0.3889  0.2156  0.9329
13363TIP3   OH261503   2.074   5.102  14.904 -0.3400 -0.0299  0.5415
13363TIP3    H161504   1.988   5.127  14.939 -0.5632 -0.7573  0.5385
13363TIP3    H261505   2.093   5.018  14.945  0.3154  0.0683  0.4399
13364TIP3   OH261506   6.220   5.907  11.751 -0.1496  0.0674  0.5508
13364TIP3    H161507   6.133   5.881  11.719 -0.8536 -0.5687  2.7860
13364TIP3    H261508   6.265   5.824  11.768  0.8836  0.3927 -0.4159
13365TIP3   OH261509   4.548   1.090   1.606 -0.6122  0.2227 -0.1347
13365TIP3    H161510   4.523   1.044   1.525 -0.1706 -2.3992  1.1281
13365TIP3    H261511   4.574   1.020   1.666 -0.0946  2.1634  2.0118
13366TIP3   OH261512   0.873   4.977  14.403  0.3920 -0.5880  0.2027
13366TIP3    H161513   0.922   5.039  14.458  0.9338 -0.3850 -0.4844
13366TIP3    H261514   0.928   4.899  14.401 -0.3029 -1.1099  1.0844
13367TIP3   OH261515   6.686   1.094  16.186  0.3839 -0.0929 -0.7719
13367TIP3    H161516   6.749   1.140  16.130 -0.0080 -1.5418 -2.4844
13367TIP3    H261517   6.738   1.025  16.227  0.4343  0.2833 -0.1967
13368TIP3   OH261518   1.765   1.131   0.856 -0.3625 -0.0083  0.0353
13368TIP3    H161519   1.852   1.158   0.826  0.6609 -1.7057  1.3493
13368TIP3    H261520   1.764   1.154   0.949 -0.7106 -1.3917  0.3920
13369TIP3   OH261521   4.729   1.386   4.451 -0.0432 -0.3840 -0.2337
13369TIP3    H161522   4.805   1.328   4.457 -1.4408 -2.2723  0.4593
13369TIP3    H261523   4.766   1.474   4.455  2.0473 -1.2197  1.1402
13370TIP3   OH261524   4.861   3.394   1.944 -0.0700  0.9154 -0.3556
13370TIP3    H161525   4.836   3.365   2.031 -0.4204  1.8155 -0.1585
13370TIP3    H261526   4.885   3.313   1.899  1.2405  0.5507  0.9250
13371TIP3   OH261527   5.280   4.246  14.196  0.9958 -0.1019 -0.3156
13371TIP3    H161528   5.312   4.198  14.273  0.5777  0.1518  0.0204
13371TIP3    H261529   5.241   4.178  14.140  1.5383 -0.3225 -0.4325
13372TIP3   OH261530   0.862   4.168  14.593  0.0115 -0.4041 -0.3004
13372TIP3    H161531   0.863   4.207  14.506 -2.6930 -1.6060 -0.9943
13372TIP3    H261532   0.889   4.077  14.579 -2.0268 -1.0617 -0.2340
13373TIP3   OH261533   1.253   6.546   3.122 -0.4034 -0.7709 -0.0745
13373TIP3    H161534   1.240   6.451   3.124 -0.5578 -0.7483  0.0041
13373TIP3    H261535   1.290   6.563   3.035  1.4811 -1.1291  0.6011
13374TIP3   OH261536   3.584   3.352   5.541  0.1417  0.1307  0.0598
13374TIP3    H161537   3.538   3.432   5.567  0.7301  0.7078 -0.6356
13374TIP3    H261538   3.601   3.307   5.624 -0.5297  0.5363  0.4295
13375TIP3   OH261539   5.355   6.202   2.826 -0.2638  0.0681 -0.0010
13375TIP3    H161540   5.350   6.287   2.870  0.9419 -0.3446  0.9907
13375TIP3    H261541   5.385   6.222   2.737 -1.9503  0.8398 -0.4384
13376TIP3   OH261542   2.594   3.807   3.472 -0.0087 -0.2997  0.8223
13376TIP3    H161543   2.655   3.817   3.399  0.5148 -2.5628  0.8882
13376TIP3    H261544   2.649   3.801   3.550 -0.4217 -0.4258  1.1106
13377TIP3   OH261545   0.335   0.358  10.922 -0.2375  0.2580 -0.0521
13377TIP3    H161546   0.429   0.340  10.934 -0.2958 -0.8998 -1.1258
13377TIP3    H261547   0.328   0.453  10.932  1.1942  0.4656 -0.7097
13378TIP3   OH261548   5.510   5.636   6.088  0.2469  0.0961  0.1892
13378TIP3    H161549   5.555   5.641   6.172  1.5863 -0.8042 -0.4456
13378TIP3    H261550   5.526   5.721   6.047  2.5174 -0.6277 -0.5566
13379TIP3   OH261551   5.867   3.574   4.218  0.0750 -0.0832  0.0610
13379TIP3    H161552   5.822   3.654   4.247  1.3415  1.2279 -1.3965
13379TIP3    H261553   5.802   3.527   4.166 -0.9454 -0.4698  1.6193
13380TIP3   OH261554   4.303   5.376  11.096  0.0922  0.0156 -0.4643
13380TIP3    H161555   4.212   5.377  11.126  0.4782  0.6652  0.7878
13380TIP3    H261556   4.308   5.448  11.033 -0.1190  0.4540  0.0037
13381TIP3   OH261557   2.902   2.182  16.187 -0.2130  0.5748 -0.5619
13381TIP3    H161558   2.859   2.174  16.272  0.7415 -0.3760 -0.1318
13381TIP3    H261559   2.941   2.269  16.187  1.9771 -0.2928  1.1213
13382TIP3   OH261560   1.501   4.803  15.287  0.2679 -0.0667  0.7440
13382TIP3    H161561   1.451   4.832  15.211  1.4708 -1.2141 -0.5495
13382TIP3    H261562   1.478   4.865  15.356 -0.9794  0.9221 -0.4960
13383TIP3   OH261563   3.455   4.365   2.288 -0.0033  0.4115  0.0913
13383TIP3    H161564   3.518   4.293   2.298 -1.4806 -1.0312 -0.6187
13383TIP3    H261565   3.387   4.346   2.352 -0.7687  0.7866 -0.6027
13384TIP3   OH261566   1.831   2.361  16.577  0.3364 -0.6019  0.1821
13384TIP3    H161567   1.819   2.326  16.665 -0.3727 -0.8286  0.0020
13384TIP3    H261568   1.884   2.296  16.531 -0.6893 -1.2891 -0.0501
13385TIP3   OH261569   2.222   4.789   1.872 -0.3778  0.6202  0.3794
13385TIP3    H161570   2.185   4.791   1.960  0.3076 -0.0386  0.6956
13385TIP3    H261571   2.155   4.749   1.818 -0.5443  0.4255  0.7309
13386TIP3   OH261572   1.833   5.558  13.458  0.6127  0.1880 -0.6009
13386TIP3    H161573   1.928   5.553  13.469  0.6882 -0.5337 -1.5133
13386TIP3    H261574   1.803   5.468  13.467 -0.1657  0.5828  1.0558
13387TIP3   OH261575   4.935   1.840   1.018 -0.0872  0.0864  0.5008
13387TIP3    H161576   4.841   1.830   1.035 -0.9325  1.7965 -2.4227
13387TIP3    H261577   4.955   1.929   1.045 -0.6076  1.5074 -3.1821
13388TIP3   OH261578   2.984   1.433   3.758  0.1796 -0.2093  0.4443
13388TIP3    H161579   3.050   1.440   3.689  1.5431  0.7257  1.7718
13388TIP3    H261580   2.970   1.523   3.786 -2.9050 -0.1695 -0.8288
13389TIP3   OH261581   5.101   5.355  15.648  0.0470  0.0508 -0.2522
13389TIP3    H161582   5.109   5.318  15.735  0.6567  1.3736  0.2919
13389TIP3    H261583   5.008   5.376  15.639  0.2429  1.5684  0.8388
13390TIP3   OH261584   6.483   4.528   5.604  0.3914  0.4099 -0.1417
13390TIP3    H161585   6.525   4.487   5.528 -0.1999  1.9834 -1.3747
13390TIP3    H261586   6.404   4.569   5.568  0.2760  1.4791  1.2637
13391TIP3   OH261587   4.380   0.008  15.391 -0.3953 -0.4210  0.0875
13391TIP3    H161588   4.451   0.066  15.417  0.5143 -0.8412 -1.3411
13391TIP3    H261589   4.302   0.065  15.389  0.2514  0.4742 -0.1032
13392TIP3   OH261590   2.240   4.600   5.416 -0.6204 -0.0662  0.2140
13392TIP3    H161591   2.253   4.690   5.386 -1.4155  0.2767  0.8490
13392TIP3    H261592   2.235   4.608   5.512  0.3641 -0.9271  0.3539
13393TIP3   OH261593   6.563   2.858  15.584  0.3430  0.5265 -0.3312
13393TIP3    H161594   6.649   2.825  15.556 -0.2197 -0.4747 -0.9464
13393TIP3    H261595   6.501   2.804  15.536 -0.6383  2.0271 -0.8148
13394TIP3   OH261596   4.116   0.546   5.483 -0.5291  0.5649 -0.0087
13394TIP3    H161597   4.057   0.537   5.557 -2.1986  0.5969 -1.2793
13394TIP3    H261598   4.070   0.604   5.422  0.0215 -0.7593 -1.7834
13395TIP3   OH261599   2.636   5.204  14.495 -0.3311  0.0462  0.3593
13395TIP3    H161600   2.724   5.169  14.481 -1.1734 -1.4523 -1.6082
13395TIP3    H261601   2.587   5.132  14.534 -0.6299  0.9892  1.7890
13396TIP3   OH261602   6.189   4.954   0.411 -0.2390 -0.0860 -0.0729
13396TIP3    H161603   6.284   4.960   0.422 -0.3941  0.1013  1.5447
13396TIP3    H261604   6.165   4.874   0.459 -0.9867  0.3897  0.3643
13397TIP3   OH261605   0.061   0.875   3.448  0.0771  1.1316  0.1079
13397TIP3    H161606   0.037   0.837   3.533  2.3504  0.4868  0.5349
13397TIP3    H261607   0.125   0.942   3.470  2.0641 -0.2596 -1.1549
13398TIP3   OH261608   5.800   6.285  11.870  0.0012  0.4628  0.0566
13398TIP3    H161609   5.735   6.276  11.800  0.4659  1.2301 -0.4976
13398TIP3    H261610   5.755   6.335  11.939  0.0476  1.1569 -0.4030
13399TIP3   OH261611   2.711   0.930  11.851 -0.3333 -0.2266 -0.4865
13399TIP3    H161612   2.763   0.850  11.844  0.6475  0.4219 -0.7173
13399TIP3    H261613   2.644   0.921  11.783  0.5774 -0.2751 -1.4025
13400TIP3   OH261614   0.628   3.400  14.700  0.0535 -0.6889  0.4381
13400TIP3    H161615   0.669   3.476  14.657 -0.5410 -0.0170  1.0272
13400TIP3    H261616   0.568   3.439  14.763  0.4599 -1.6641  1.4460
13401TIP3   OH261617   4.178   2.885   1.348 -0.0617  0.4425  0.0781
13401TIP3    H161618   4.165   2.941   1.272 -0.1085 -0.1416 -0.3516
13401TIP3    H261619   4.264   2.909   1.382  1.1686 -1.1111 -1.7405
13402TIP3   OH261620   3.708   2.836   6.020  0.3324 -0.7015  0.4309
13402TIP3    H161621   3.692   2.869   6.109 -0.8078  1.2231 -0.4361
13402TIP3    H261622   3.622   2.805   5.990  0.3282  0.2366 -0.5909
13403TIP3   OH261623   2.093   0.314   2.820  0.1505  0.3593 -0.1757
13403TIP3    H161624   2.053   0.290   2.737  0.7231  0.5982 -0.5266
13403TIP3    H261625   2.182   0.282   2.814  0.1418  0.2142  0.4254
13404TIP3   OH261626   0.226   4.403   6.840 -0.4219  0.4955  0.2392
13404TIP3    H161627   0.313   4.443   6.851 -0.6092  1.4637 -1.5134
13404TIP3    H261628   0.245   4.315   6.808 -0.0671 -0.0513  1.8527
13405TIP3   OH261629   1.848   2.489   3.208  0.1702 -0.0758  0.0422
13405TIP3    H161630   1.933   2.524   3.182 -0.2829  2.0517  1.1772
13405TIP3    H261631   1.802   2.474   3.125  1.7615 -1.6937 -0.6052
13406TIP3   OH261632   3.711   1.516   2.469  0.2891  0.3208  0.1914
13406TIP3    H161633   3.755   1.460   2.405 -0.0831  1.0312 -0.6935
13406TIP3    H261634   3.672   1.587   2.418 -1.5343 -0.0427  0.9826
13407TIP3   OH261635   3.239   4.133  11.798  0.4077 -0.1640  0.2705
13407TIP3    H161636   3.149   4.101  11.796  0.9809 -1.8247 -0.0432
13407TIP3    H261637   3.235   4.218  11.755 -0.9382 -0.3974 -0.1009
13408TIP3   OH261638   6.348   2.748   1.375 -0.4662  0.0566 -0.0945
13408TIP3    H161639   6.263   2.788   1.392 -0.6301  0.0214 -0.8311
13408TIP3    H261640   6.411   2.819   1.392 -0.7067  0.3975 -0.6089
13409TIP3   OH261641   0.751   6.310   1.876  0.3399 -0.1248 -0.2001
13409TIP3    H161642   0.664   6.350   1.878  0.0131 -0.8389  1.4126
13409TIP3    H261643   0.753   6.260   1.795 -1.4009 -1.4329  0.4958
13410TIP3   OH261644   3.123   1.185   5.690 -0.6289 -0.3302 -0.0088
13410TIP3    H161645   3.171   1.234   5.757  0.1611  1.3614 -1.7445
13410TIP3    H261646   3.185   1.117   5.661 -1.1231 -1.3452  1.2055
13411TIP3   OH261647   1.086   2.517  12.334  0.4094 -0.6068 -0.2818
13411TIP3    H161648   1.092   2.607  12.301 -0.3427  0.0693  1.2987
13411TIP3    H261649   1.157   2.511  12.398 -0.2922 -0.7189  0.5005
13412TIP3   OH261650   5.262   3.942   6.436  0.0106  0.2632  0.1012
13412TIP3    H161651   5.322   3.889   6.383  0.0929  1.3854 -0.9705
13412TIP3    H261652   5.175   3.910   6.412  0.1056 -0.3150  0.5010
13413TIP3   OH261653   4.200   1.193  15.392 -0.0265  0.1521  0.6386
13413TIP3    H161654   4.121   1.177  15.445 -0.0164 -1.2782  0.2709
13413TIP3    H261655   4.270   1.152  15.442 -0.0483 -1.4065 -0.5470
13414TIP3   OH261656   0.853   1.090   0.202 -0.1292  0.2381  0.2677
13414TIP3    H161657   0.936   1.045   0.190 -0.9021 -2.0635  2.6399
13414TIP3    H261658   0.852   1.112   0.295 -1.9375  0.7377  0.1598
13415TIP3   OH261659   6.509   2.076  15.452  0.3422  0.8700  0.2656
13415TIP3    H161660   6.429   2.024  15.463  1.1736 -0.3968  0.4892
13415TIP3    H261661   6.517   2.124  15.534  0.2360  0.3951  0.5568
13416TIP3   OH261662   1.439   1.524  13.867  0.1340  0.3961 -0.9302
13416TIP3    H161663   1.470   1.546  13.955  0.3920 -1.5842 -0.4767
13416TIP3    H261664   1.480   1.588  13.810  1.2004  0.7727  0.2259
13417TIP3   OH261665   5.736   5.352   3.612 -0.4484  0.4958 -0.2377
13417TIP3    H161666   5.682   5.421   3.650 -1.7506 -0.1116 -0.9406
13417TIP3    H261667   5.685   5.272   3.622  1.4859 -0.6251  1.5419
13418TIP3   OH261668   4.543   1.958   3.150 -0.2399 -0.1024 -0.1694
13418TIP3    H161669   4.569   2.046   3.178 -0.7918 -0.2612  0.9198
13418TIP3    H261670   4.448   1.962   3.145 -0.3922 -1.0132  1.3469
13419TIP3   OH261671   5.806   4.154   0.267 -0.8484 -0.1585  0.0789
13419TIP3    H161672   5.810   4.250   0.270  1.6406 -0.2077  1.6069
13419TIP3    H261673   5.716   4.133   0.290 -1.2574  1.8152  0.5076
13420TIP3   OH261674   0.266   2.567   2.807  0.4149  0.2018 -0.2447
13420TIP3    H161675   0.287   2.541   2.718  0.6484  0.9658 -0.4202
13420TIP3    H261676   0.193   2.510   2.832  0.3390 -0.0066 -0.9245
13421TIP3   OH261677   5.181   2.174   1.774  0.1964  0.3999  0.4314
13421TIP3    H161678   5.137   2.208   1.696 -0.7425 -0.3524  0.6231
13421TIP3    H261679   5.116   2.182   1.844  0.7736  0.3709  0.9817
13422TIP3   OH261680   2.798   2.973   1.752 -0.1910  0.1996 -0.1590
13422TIP3    H161681   2.770   2.920   1.677 -0.2130 -0.2016  0.1267
13422TIP3    H261682   2.716   3.002   1.792 -0.1933 -0.2328  0.1581
13423TIP3   OH261683   5.871   2.019  13.935 -0.0706 -0.3737 -0.1905
13423TIP3    H161684   5.877   2.109  13.904 -0.6664 -0.3871 -0.3498
13423TIP3    H261685   5.924   1.968  13.874  0.3178 -0.1267 -0.0629
13424TIP3   OH261686   0.393   0.232  17.103  0.5042  0.4782 -0.4420
13424TIP3    H161687   0.415   0.229  17.010 -0.9935 -2.6277 -0.8098
13424TIP3    H261688   0.303   0.200  17.108  0.2921  1.2305  2.0385
13425TIP3   OH261689   3.039   0.932   1.723 -0.9208  0.4474 -0.2782
13425TIP3    H161690   3.034   0.882   1.805  3.3121  3.2977  2.1269
13425TIP3    H261691   3.104   0.886   1.671 -1.2083  0.3989 -0.5965
13426TIP3   OH261692   4.062   2.805   2.834  0.2450 -0.1384 -0.1627
13426TIP3    H161693   3.982   2.852   2.810  0.6215  0.5543 -0.0737
13426TIP3    H261694   4.065   2.811   2.930 -0.3219 -1.3733 -0.0467
13427TIP3   OH261695   4.750   6.416   5.280 -0.7890 -0.0233  0.1404
13427TIP3    H161696   4.760   6.322   5.264  0.7398  0.2961 -1.0243
13427TIP3    H261697   4.677   6.443   5.225  0.0569 -0.1868 -1.0940
13428TIP3   OH261698   5.633   2.695   1.507 -0.1078  0.0538  0.3605
13428TIP3    H161699   5.725   2.676   1.490  0.1870  2.0996 -0.6169
13428TIP3    H261700   5.630   2.789   1.526 -2.0779  0.2174 -0.4293
13429TIP3   OH261701   3.543   0.934  17.094  0.0959 -0.2313 -0.3069
13429TIP3    H161702   3.492   0.969  17.167  0.4776 -1.1732  0.4437
13429TIP3    H261703   3.632   0.965  17.110  0.3006 -0.9394 -0.0154
13430TIP3   OH261704   5.738   5.741  16.636 -0.4066  0.2295  0.3031
13430TIP3    H161705   5.691   5.737  16.719 -2.4205  1.3899 -0.6993
13430TIP3    H261706   5.780   5.827  16.636  1.6078 -0.7033  1.0856
13431TIP3   OH261707   5.377   2.666   3.718  0.2206 -0.1531 -0.3874
13431TIP3    H161708   5.374   2.676   3.813 -0.1083 -0.4863 -0.3607
13431TIP3    H261709   5.408   2.577   3.703  1.2124  0.2174 -0.6058
13432TIP3   OH261710   4.984   5.940  11.174 -0.3516 -0.2393 -0.0919
13432TIP3    H161711   4.944   5.936  11.087 -2.7866 -1.0712  0.9765
13432TIP3    H261712   5.021   5.852  11.186  1.3771  0.3358 -0.8213
13433TIP3   OH261713   4.574   2.285  11.751  0.4429  0.2728  0.1699
13433TIP3    H161714   4.626   2.239  11.817  0.7996 -1.1292 -1.0411
13433TIP3    H261715   4.511   2.220  11.721 -0.8608  1.4069  0.3152
13434TIP3   OH261716   4.497   4.019  16.824  0.0169 -0.4002  0.0438
13434TIP3    H161717   4.526   3.943  16.874  0.2733 -1.7741 -2.0804
13434TIP3    H261718   4.490   4.089  16.889  2.1314 -1.5832  1.6882
13435TIP3   OH261719   0.215   4.198   3.651  0.6815 -0.3104  0.1620
13435TIP3    H161720   0.222   4.246   3.568 -0.3652 -0.1485  0.1561
13435TIP3    H261721   0.156   4.251   3.705 -1.5122 -2.1428 -0.2840
13436TIP3   OH261722   1.030   4.106  16.693 -0.2239 -0.4209  0.1485
13436TIP3    H161723   1.047   4.011  16.692  1.5160 -0.1399  0.1789
13436TIP3    H261724   1.073   4.137  16.772 -1.4996  0.3059  0.5846
13437TIP3   OH261725   5.779   1.137   4.605 -0.5806 -0.1073 -0.1773
13437TIP3    H161726   5.786   1.143   4.510 -1.2710 -1.3363 -0.3254
13437TIP3    H261727   5.688   1.114   4.621 -0.2518 -0.8522  0.7225
13438TIP3   OH261728   6.107   2.825   5.854  0.0345 -0.0944 -0.4296
13438TIP3    H161729   6.109   2.769   5.931 -1.3378 -1.9563 -1.6662
13438TIP3    H261730   6.027   2.877   5.865 -0.2983 -0.5410 -0.6873
13439TIP3   OH261731   6.475   5.042  14.704 -0.0414  0.7477  0.2134
13439TIP3    H161732   6.560   5.061  14.663  0.5974  2.1302  2.0338
13439TIP3    H261733   6.411   5.079  14.644  0.4948 -1.2739 -1.7507
13440TIP3   OH261734   1.846   4.134   2.386 -0.0407 -0.0100 -0.0736
13440TIP3    H161735   1.786   4.208   2.377  0.0800  0.2076  0.7812
13440TIP3    H261736   1.804   4.078   2.452 -0.4456 -1.0331 -1.1641
13441TIP3   OH261737   2.100   5.977   5.571 -0.5289 -0.3550 -0.0606
13441TIP3    H161738   2.166   6.038   5.603 -1.1499 -1.2958  3.5262
13441TIP3    H261739   2.065   6.018   5.492 -0.1974  3.4177  1.5618
13442TIP3   OH261740   1.543   6.371  11.449  0.2108  0.0947 -0.2307
13442TIP3    H161741   1.574   6.451  11.407  1.7785  0.3147  1.2660
13442TIP3    H261742   1.556   6.303  11.382  0.1939  0.8412 -1.0106
13443TIP3   OH261743   3.068   0.469  16.178  0.1502  0.1295 -0.4052
13443TIP3    H161744   2.980   0.506  16.169 -0.0043 -0.6370 -2.5805
13443TIP3    H261745   3.108   0.481  16.092  2.3932  0.8928  0.6685
13444TIP3   OH261746   3.384   6.286   1.077  0.0055  0.0427  0.0489
13444TIP3    H161747   3.367   6.250   1.164  0.9122  1.0394  0.6746
13444TIP3    H261748   3.456   6.348   1.091 -0.5007  0.9638 -1.2345
13445TIP3   OH261749   0.310   4.319   2.000 -0.0150 -0.1676 -0.5809
13445TIP3    H161750   0.353   4.404   1.999  0.2714 -0.2966  0.0864
13445TIP3    H261751   0.355   4.268   1.933 -1.2985  0.7181 -2.2116
13446TIP3   OH261752   1.560   1.668   4.235  0.2642 -0.0585  0.3978
13446TIP3    H161753   1.534   1.626   4.154  0.9435  0.4588 -0.0976
13446TIP3    H261754   1.540   1.604   4.303 -1.2690 -0.0989 -0.0610
13447TIP3   OH261755   6.310   5.946   5.515 -0.2977 -0.2682  0.9044
13447TIP3    H161756   6.394   5.993   5.514  0.7156 -2.0033 -1.0640
13447TIP3    H261757   6.326   5.869   5.569 -1.5205  0.7693  2.8700
13448TIP3   OH261758   2.242   3.087  17.281 -0.1944  0.3034 -0.1601
13448TIP3    H161759   2.150   3.096  17.257  0.0993  2.1819 -0.8054
13448TIP3    H261760   2.241   3.047  17.368 -1.7963  2.9565  1.1575
13449TIP3   OH261761   4.443   2.430   2.933 -0.5695  0.0515  0.7431
13449TIP3    H161762   4.374   2.363   2.928  0.1084 -0.5693 -1.1133
13449TIP3    H261763   4.524   2.380   2.938 -0.1223  0.7570  0.5369
13450TIP3   OH261764   2.569   5.943  11.404 -0.2274  0.6704  0.5461
13450TIP3    H161765   2.490   5.917  11.357 -0.2258  0.8994  0.4165
13450TIP3    H261766   2.635   5.952  11.335 -0.0962  0.5140  0.6497
13451TIP3   OH261767   0.606   3.369   4.223 -0.8105 -0.1973  0.3324
13451TIP3    H161768   0.548   3.300   4.257 -0.8345 -1.2957 -1.8008
13451TIP3    H261769   0.547   3.441   4.202 -1.2379 -0.7453 -0.4025
13452TIP3   OH261770   5.186   2.580  11.652  0.0559 -0.1123 -0.4874
13452TIP3    H161771   5.237   2.543  11.724  0.2341 -1.5125 -1.2940
13452TIP3    H261772   5.249   2.629  11.600  0.2806 -0.5633 -0.6446
13453TIP3   OH261773   6.166   1.015   4.972 -0.0190 -0.8409 -0.2272
13453TIP3    H161774   6.210   1.093   5.004  0.2419 -0.2622 -1.9196
13453TIP3    H261775   6.159   0.958   5.049 -0.0821  0.7654  0.9977
13454TIP3   OH261776   1.470   0.480  12.214 -0.1174  0.0408  0.0615
13454TIP3    H161777   1.551   0.468  12.264  2.2500  1.1386 -3.1293
13454TIP3    H261778   1.415   0.536  12.269  1.5414 -0.2312  2.0996
13455TIP3   OH261779   1.146   5.776   5.678  0.4673  0.1423  0.3810
13455TIP3    H161780   1.206   5.837   5.637  0.0900 -0.0118 -0.4267
13455TIP3    H261781   1.092   5.743   5.606  0.8142 -1.3226  0.7437
13456TIP3   OH261782   5.707   2.733  14.494  0.2872  0.8004  0.4283
13456TIP3    H161783   5.635   2.671  14.502  0.1575  0.9574  0.4723
13456TIP3    H261784   5.784   2.678  14.479  0.3311  0.5748  1.4254
13457TIP3   OH261785   4.443   5.127  16.538 -0.2228 -0.5863  0.3326
13457TIP3    H161786   4.474   5.039  16.515  1.0357 -0.3240  0.9660
13457TIP3    H261787   4.379   5.112  16.608 -0.3582 -1.0236  0.1205
13458TIP3   OH261788   2.581   3.139   1.767 -0.0934  0.3397  0.4914
13458TIP3    H161789   2.532   3.176   1.841  1.5677  1.2824  1.1890
13458TIP3    H261790   2.628   3.214   1.730  0.1833 -0.3817 -0.6557
13459TIP3   OH261791   2.081   4.338   4.559  0.9178  0.0015  0.6720
13459TIP3    H161792   2.071   4.244   4.575 -0.1244  0.3777  2.5422
13459TIP3    H261793   2.154   4.363   4.616 -0.1858  0.6575  1.8624
13460TIP3   OH261794   6.223   5.707  13.339 -0.4484  0.2239  0.0495
13460TIP3    H161795   6.194   5.667  13.421 -0.7057 -0.1410 -0.2187
13460TIP3    H261796   6.160   5.677  13.274 -0.2333  0.4995 -0.2868
13461TIP3   OH261797   2.640   5.867  15.098  0.1749 -0.0156  0.0321
13461TIP3    H161798   2.670   5.841  15.011  0.7547  0.2954  0.1299
13461TIP3    H261799   2.634   5.962  15.093 -0.3940 -0.0461  0.1480
13462TIP3   OH261800   1.765   5.970   3.329 -0.6508 -0.9658  0.3290
13462TIP3    H161801   1.702   6.041   3.316  0.2709 -0.0285  0.8077
13462TIP3    H261802   1.742   5.906   3.262 -0.9675  0.1855 -0.7178
13463TIP3   OH261803   1.644   0.029  12.034  0.5217  0.2604 -0.2655
13463TIP3    H161804   1.574  -0.021  11.991  0.5315  0.5355 -0.6017
13463TIP3    H261805   1.629   0.120  12.007  0.7620  0.3787 -0.0040
13464TIP3   OH261806   2.712   5.300   0.321  0.1931  0.5113  0.8823
13464TIP3    H161807   2.746   5.357   0.252  0.6119  0.8614  1.3656
13464TIP3    H261808   2.632   5.344   0.351  0.3386  0.6779  1.0300
13465TIP3   OH261809   3.227   1.307   3.271 -0.1505 -0.5778 -1.0043
13465TIP3    H161810   3.295   1.260   3.223 -0.0695 -0.7464 -0.7250
13465TIP3    H261811   3.194   1.244   3.335  0.3446 -0.0833 -0.2511
13466TIP3   OH261812   0.436   6.731  13.942 -0.0218 -0.0444 -0.0212
13466TIP3    H161813   0.437   6.816  13.987  1.0417 -0.9966  1.8488
13466TIP3    H261814   0.361   6.685  13.978 -1.0981  0.3401 -1.6363
13467TIP3   OH261815   5.675   2.097  17.042 -0.3810 -0.3194  0.5951
13467TIP3    H161816   5.657   2.013  16.999 -0.5880 -0.1598  0.3650
13467TIP3    H261817   5.626   2.093  17.124 -1.6783  0.1993 -0.1278
13468TIP3   OH261818   5.645   3.751   2.350 -0.4686 -0.6509 -0.3739
13468TIP3    H161819   5.627   3.657   2.354 -0.9474 -0.6367 -1.8855
13468TIP3    H261820   5.676   3.766   2.261 -2.2209  0.9269 -0.7583
13469TIP3   OH261821   5.797   2.508   3.982  0.3860 -0.3698 -0.0964
13469TIP3    H161822   5.845   2.566   4.040 -1.2326  0.5994  0.3259
13469TIP3    H261823   5.825   2.534   3.894  1.1594 -0.3279  0.1521
13470TIP3   OH261824   0.950   3.126  17.099  0.0255  0.1926 -0.1087
13470TIP3    H161825   0.872   3.132  17.044 -0.1181  0.6694  0.1387
13470TIP3    H261826   0.920   3.079  17.177  0.5790 -1.8177 -1.0347
13471TIP3   OH261827   0.122   6.286   4.710 -0.2280  0.0597  0.2273
13471TIP3    H161828   0.169   6.310   4.629 -0.2288 -1.5751 -0.3016
13471TIP3    H261829   0.033   6.267   4.681 -0.2924 -0.2865  0.6429
13472TIP3   OH261830   1.959   4.424   6.392  0.2496  0.6333  0.4934
13472TIP3    H161831   1.911   4.384   6.319 -1.6393  1.4563  1.2134
13472TIP3    H261832   1.947   4.364   6.465  0.0195  1.0000  0.7635
13473TIP3   OH261833   0.669   4.630   3.663 -0.2898  0.2234  0.0887
13473TIP3    H161834   0.612   4.683   3.718  0.3009 -1.5129  2.5141
13473TIP3    H261835   0.699   4.559   3.719 -0.8004 -2.5853 -2.8636
13474TIP3   OH261836   4.708   3.431   0.643 -0.4775  0.1877 -0.0765
13474TIP3    H161837   4.621   3.433   0.603 -1.4063  3.8102  1.6421
13474TIP3    H261838   4.766   3.469   0.577 -0.1939 -1.8716 -1.0784
13475TIP3   OH261839   2.887   4.330   2.482  0.7171 -0.0854  0.0781
13475TIP3    H161840   2.833   4.340   2.560  0.4801 -0.5708 -0.0217
13475TIP3    H261841   2.970   4.295   2.514  0.4129 -0.8460  0.0469
13476TIP3   OH261842   1.933   2.615  15.271  0.4376 -0.4259 -0.2950
13476TIP3    H161843   1.916   2.691  15.215  0.2609 -0.0346  0.2853
13476TIP3    H261844   1.853   2.563  15.266 -0.3942  0.6370  1.2019
13477TIP3   OH261845   5.782   2.919  16.843 -0.0048  0.1741  0.3911
13477TIP3    H161846   5.799   2.904  16.936  0.3384  0.7615  0.4260
13477TIP3    H261847   5.713   2.986  16.843  0.2019  0.3837  0.2165
13478TIP3   OH261848   2.848   3.599  12.213  0.2602  0.3577  0.4749
13478TIP3    H161849   2.754   3.590  12.200  0.4888  0.1781 -1.2481
13478TIP3    H261850   2.872   3.677  12.164  1.3322 -0.8346 -0.9686
13479TIP3   OH261851   2.359   1.032   2.600  0.4028 -0.2276 -0.7713
13479TIP3    H161852   2.394   1.113   2.564  0.0797  0.9219  1.3493
13479TIP3    H261853   2.434   0.991   2.644  0.2199 -0.3317 -0.5548
13480TIP3   OH261854   4.127   0.812   0.303 -0.3285 -0.0477 -0.3303
13480TIP3    H161855   4.109   0.721   0.278 -1.0096  0.0415 -0.1970
13480TIP3    H261856   4.130   0.810   0.399  0.9245 -0.1496 -0.3613
13481TIP3   OH261857   6.121   1.791  12.743  0.5739 -0.7257 -0.0529
13481TIP3    H161858   6.058   1.725  12.774 -0.2038  0.1488  0.3014
13481TIP3    H261859   6.067   1.856  12.698  1.3374 -0.3869 -0.4956
13482TIP3   OH261860   3.447   0.105  13.813  0.0864 -0.1301 -0.2000
13482TIP3    H161861   3.361   0.086  13.849  0.2298 -1.8063 -0.6446
13482TIP3    H261862   3.444   0.197  13.788 -2.6717 -0.8372 -3.0747
13483TIP3   OH261863   1.152   4.278  12.540 -0.6171  0.0701 -0.1423
13483TIP3    H161864   1.207   4.249  12.467  1.2607  0.4189  1.0487
13483TIP3    H261865   1.135   4.371  12.521 -1.1941 -0.1479 -0.7349
13484TIP3   OH261866   2.759   1.434   6.476 -0.0536 -0.2044  0.2883
13484TIP3    H161867   2.846   1.424   6.515  0.7923  0.5498 -1.3259
13484TIP3    H261868   2.740   1.347   6.440  0.7751  0.0406 -0.7889
13485TIP3   OH261869   0.169   3.449   2.531  0.6906 -0.1743  0.0250
13485TIP3    H161870   0.206   3.385   2.591  1.0083 -0.2469 -0.2439
13485TIP3    H261871   0.237   3.517   2.523  0.7985 -0.3455 -0.5282
13486TIP3   OH261872   5.743   5.022  13.901 -0.2524 -0.1021 -0.0536
13486TIP3    H161873   5.667   5.080  13.895  0.0585  0.4486  0.9687
13486TIP3    H261874   5.749   4.981  13.815  0.3360  2.4300 -1.3244
13487TIP3   OH261875   2.439   2.385  13.885  0.2846  0.4758  0.0457
13487TIP3    H161876   2.448   2.475  13.852 -0.7927  0.1542 -1.2381
13487TIP3    H261877   2.524   2.364  13.923  0.1366  2.5350  1.6927
13488TIP3   OH261878   1.742   3.461   4.157 -0.0831  0.4947 -0.1307
13488TIP3    H161879   1.677   3.514   4.110 -0.4517  0.8394  0.7345
13488TIP3    H261880   1.821   3.467   4.104 -0.8124 -0.1474 -1.3531
13489TIP3   OH261881   5.636   1.548   4.525 -0.5654  0.0217  0.6934
13489TIP3    H161882   5.575   1.484   4.488  0.9792 -0.6415 -0.8524
13489TIP3    H261883   5.636   1.620   4.463 -1.2368  0.9241  1.7133
13490TIP3   OH261884   1.790   2.517   0.543 -0.1724  0.2104  0.5725
13490TIP3    H161885   1.808   2.609   0.563  0.8173  0.3861 -0.9088
13490TIP3    H261886   1.781   2.515   0.447 -0.1396 -1.2300  0.5778
13491TIP3   OH261887   5.869   2.628   1.420 -0.1104  0.2042  0.2703
13491TIP3    H161888   5.901   2.636   1.330  0.6978 -0.2630  0.5078
13491TIP3    H261889   5.937   2.580   1.466 -0.4948  0.4709  1.1516
13492TIP3   OH261890   6.673   1.873  13.281 -0.4652  0.1988 -0.1873
13492TIP3    H161891   6.695   1.913  13.365  0.5043  0.1986 -0.4364
13492TIP3    H261892   6.750   1.886  13.226 -1.1087  0.2496 -1.1044
13493TIP3   OH261893   0.693   2.228   2.373  0.0586  0.1920  0.0109
13493TIP3    H161894   0.736   2.257   2.293  0.7687 -1.8209 -0.3727
13493TIP3    H261895   0.698   2.133   2.371  2.5683  0.0471  3.7354
13494TIP3   OH261896   5.270   2.646  15.634 -0.3214  0.5303 -0.3278
13494TIP3    H161897   5.222   2.565  15.619 -0.3702  0.4144  0.4043
13494TIP3    H261898   5.205   2.715  15.622 -0.6751  0.3775  0.5940
13495TIP3   OH261899   2.287   1.772  17.090 -0.7217 -0.1135 -0.1546
13495TIP3    H161900   2.341   1.740  17.018 -0.8839 -1.2221  0.1984
13495TIP3    H261901   2.310   1.716  17.164 -0.2187  1.2901  0.8077
13496TIP3   OH261902   3.671   2.136  13.206 -0.7872 -0.3606  0.1535
13496TIP3    H161903   3.602   2.182  13.254 -2.2666  0.7696 -2.8261
13496TIP3    H261904   3.625   2.091  13.135  1.5239  1.9154 -3.1202
13497TIP3   OH261905   1.334   5.953   3.435 -0.3482  0.2255  0.9165
13497TIP3    H161906   1.245   5.956   3.399 -1.2142 -0.6254  2.8593
13497TIP3    H261907   1.386   5.913   3.365 -1.5890  0.2663 -0.0731
13498TIP3   OH261908   0.727   5.545  12.421 -0.1500  0.3061  0.1287
13498TIP3    H161909   0.699   5.582  12.338  1.1274  0.5952 -0.1953
13498TIP3    H261910   0.648   5.546  12.476 -1.0422 -0.0182 -1.1074
13499TIP3   OH261911   6.450   1.239  16.132 -0.2864  0.0323  0.1180
13499TIP3    H161912   6.525   1.185  16.158 -0.4701 -0.0711  0.4306
13499TIP3    H261913   6.474   1.272  16.045  0.5269  0.7404  0.5878
13500TIP3   OH261914   4.197   2.308  13.032 -0.0405  0.3617  0.2621
13500TIP3    H161915   4.109   2.271  13.028 -0.3454  1.1916 -1.7310
13500TIP3    H261916   4.185   2.396  13.067 -0.0695  0.6241 -0.3961
13501TIP3   OH261917   5.305   6.063  15.006 -0.0737  0.2023 -0.0245
13501TIP3    H161918   5.334   6.016  15.084 -0.4429 -0.4802 -0.2832
13501TIP3    H261919   5.299   5.995  14.939 -1.1355  0.5238 -0.2683
13502TIP3   OH261920   6.545   6.108  16.423  0.9005 -0.1444 -0.9248
13502TIP3    H161921   6.595   6.037  16.463  1.2662 -0.7811 -2.4550
13502TIP3    H261922   6.468   6.118  16.479  2.8041  1.0760  1.6939
13503TIP3   OH261923   6.547   1.533   2.216 -0.3275 -0.3332 -0.4022
13503TIP3    H161924   6.534   1.442   2.191 -0.5666 -0.9725  1.7847
13503TIP3    H261925   6.600   1.528   2.296  0.9743  1.5317 -1.0819
13504TIP3   OH261926   1.970   0.294   4.373 -0.5665 -0.2426 -0.1018
13504TIP3    H161927   1.973   0.326   4.464  1.6270 -1.1549  0.2158
13504TIP3    H261928   2.057   0.316   4.338 -1.2961 -0.1429 -1.9152
13505TIP3   OH261929   5.233   6.285  12.431 -0.0152 -0.2014  0.4211
13505TIP3    H161930   5.165   6.237  12.478 -0.2894  0.6546  0.9109
13505TIP3    H261931   5.223   6.376  12.459  1.4522 -0.0803  0.6556
13506TIP3   OH261932   2.881   1.341  11.634  0.4360  0.2704  0.4232
13506TIP3    H161933   2.812   1.287  11.596  1.6955 -0.0011 -1.6127
13506TIP3    H261934   2.866   1.336  11.729 -0.8474 -1.7548  0.1633
13507TIP3   OH261935   6.356   5.025  10.668  0.1211  0.0799  0.1480
13507TIP3    H161936   6.374   5.116  10.645 -1.0726  0.3469  0.2039
13507TIP3    H261937   6.442   4.989  10.690  0.6924  1.0234 -0.4420
13508TIP3   OH261938   2.848   4.667   1.857  0.1232 -0.0946  0.7430
13508TIP3    H161939   2.843   4.573   1.876 -0.1714 -0.4931 -1.1113
13508TIP3    H261940   2.940   4.682   1.835  0.4305  0.3314  2.1954
13509TIP3   OH261941   0.190   2.011  10.560 -0.2676  0.6491 -0.6623
13509TIP3    H161942   0.263   1.965  10.517 -0.0481 -0.9265  1.2981
13509TIP3    H261943   0.115   1.953  10.549 -0.2391  0.2757  0.8922
13510TIP3   OH261944   2.332   5.633   2.002  0.7651  0.0239  0.4782
13510TIP3    H161945   2.289   5.610   1.920  0.9077  1.4703 -0.0212
13510TIP3    H261946   2.425   5.644   1.979  0.7409  0.8297  0.7400
13511TIP3   OH261947   4.698   0.306   2.950 -0.7029 -0.2481 -0.4505
13511TIP3    H161948   4.695   0.234   2.887 -0.0976 -0.9487  0.2964
13511TIP3    H261949   4.652   0.273   3.027 -0.9499  0.3959 -0.3173
13512TIP3   OH261950   0.650   2.770  12.653 -0.4772  0.3881 -0.1210
13512TIP3    H161951   0.674   2.772  12.561  3.1188  1.4355  0.6730
13512TIP3    H261952   0.591   2.845  12.665  0.0407  1.0157 -1.3590
13513TIP3   OH261953   0.372   5.697  14.119  0.1238 -0.1301 -0.0767
13513TIP3    H161954   0.411   5.733  14.199 -0.0197 -0.4981  0.1614
13513TIP3    H261955   0.286   5.739  14.114 -0.7419 -1.6619  1.1136
13514TIP3   OH261956   6.209   0.702  14.436  0.5911  0.0222  0.0957
13514TIP3    H161957   6.280   0.754  14.472 -0.5144  0.6151  1.5489
13514TIP3    H261958   6.181   0.647  14.509 -0.1389 -0.5320 -0.5821
13515TIP3   OH261959   4.250   5.033   3.544  0.9846  0.2081 -0.0670
13515TIP3    H161960   4.168   5.075   3.516  0.9169 -0.5043 -0.9944
13515TIP3    H261961   4.315   5.064   3.481  1.0364 -0.6696 -0.4602
13516TIP3   OH261962   2.259   4.667   5.680  0.3003  0.0731 -0.7431
13516TIP3    H161963   2.258   4.629   5.768 -0.6662  1.7412 -0.0005
13516TIP3    H261964   2.337   4.723   5.679  0.5423 -0.2592 -1.1144
13517TIP3   OH261965   0.425   3.689   1.880 -0.8599 -0.0400  0.4008
13517TIP3    H161966   0.339   3.731   1.873 -1.2570 -0.6623  1.2622
13517TIP3    H261967   0.451   3.704   1.971  1.4408  2.8952 -0.5885
13518TIP3   OH261968   1.539   2.368  15.623 -0.5726  0.6981  0.1136
13518TIP3    H161969   1.492   2.296  15.580 -0.3178  0.2722  0.5403
13518TIP3    H261970   1.471   2.430  15.646 -0.7596  0.7523 -0.5562
13519TIP3   OH261971   6.106   5.975  12.184 -0.5263  0.2779  0.3124
13519TIP3    H161972   6.157   6.055  12.179  0.2431 -0.2949 -1.8152
13519TIP3    H261973   6.048   5.978  12.108 -0.1899 -1.3387 -0.0607
13520TIP3   OH261974   6.163   3.383  12.484 -0.4158 -0.2358 -0.9271
13520TIP3    H161975   6.075   3.390  12.522 -0.3508  0.0997 -0.8416
13520TIP3    H261976   6.198   3.301  12.520 -1.1699 -1.0317 -1.9490
13521TIP3   OH261977   1.259   0.984   1.505 -0.5962 -0.0406  0.3192
13521TIP3    H161978   1.226   0.908   1.459  0.1620  0.2136 -0.6861
13521TIP3    H261979   1.232   1.059   1.451  2.3375  0.1303 -1.1089
13522TIP3   OH261980   5.054   5.525   2.034  0.3399 -0.0663  0.4731
13522TIP3    H161981   5.008   5.523   1.949 -0.1225  1.0561  0.6768
13522TIP3    H261982   4.983   5.529   2.099  0.7029  1.0772  0.8204
13523TIP3   OH261983   6.140   5.998  11.025  0.3101 -0.3558 -0.1456
13523TIP3    H161984   6.150   5.968  10.934  1.1227  0.2348 -0.2625
13523TIP3    H261985   6.102   5.924  11.071 -0.9325 -0.3792 -1.1519
13524TIP3   OH261986   6.049   4.396  11.495 -0.0793 -0.2747 -0.7429
13524TIP3    H161987   6.073   4.303  11.504  1.3405  0.0540 -0.8272
13524TIP3    H261988   6.130   4.438  11.466 -0.5379  1.0917 -0.1154
13525TIP3   OH261989   0.530   3.341  12.451 -0.5747  0.3987  0.2515
13525TIP3    H161990   0.549   3.388  12.533  0.7845  0.9828 -0.3645
13525TIP3    H261991   0.456   3.284  12.473 -0.9338  1.3134  1.5939
13526TIP3   OH261992   5.816   6.205   5.500 -0.0580  0.0721  0.6597
13526TIP3    H161993   5.823   6.286   5.450 -1.2606  0.0165  0.3620
13526TIP3    H261994   5.800   6.138   5.434  0.9531 -0.4315  0.9007
13527TIP3   OH261995   2.345   3.002  11.872  0.5692 -0.1525  0.5925
13527TIP3    H161996   2.354   3.094  11.846 -0.4454  0.0046  0.7512
13527TIP3    H261997   2.402   2.954  11.811  2.1227  0.6800  1.3193
13528TIP3   OH261998   5.573   3.106   3.866 -0.3821  0.3152  0.7394
13528TIP3    H161999   5.532   3.102   3.953  0.2681 -1.8214  0.9999
13528TIP3    H262000   5.538   3.031   3.819  1.7863 -0.5167  0.3412
13529TIP3   OH262001   5.195   2.188  11.466 -0.3306 -0.2961  0.2140
13529TIP3    H162002   5.184   2.213  11.557 -1.2874  0.5461 -0.1139
13529TIP3    H262003   5.283   2.218  11.442  0.6464 -2.0893  1.3226
13530TIP3   OH262004   4.141   4.639  15.521  0.1657 -0.1557  0.1393
13530TIP3    H162005   4.123   4.730  15.498  1.2212  0.0142 -0.0619
13530TIP3    H262006   4.234   4.627  15.503  0.0302 -1.3028  0.0765
13531TIP3   OH262007   4.860   4.221   0.367 -0.4124  0.1899 -0.2042
13531TIP3    H162008   4.815   4.231   0.283  0.0568  0.6620 -0.4052
13531TIP3    H262009   4.790   4.208   0.431 -0.7697 -0.2639 -0.6801
13532TIP3   OH262010   3.648   1.303   3.254  0.3569 -0.3018 -0.6526
13532TIP3    H162011   3.558   1.288   3.282  0.7998 -0.3339  0.8786
13532TIP3    H262012   3.701   1.254   3.318  1.4888  0.5680 -0.8860
13533TIP3   OH262013   0.717   6.300   2.332  0.0310  0.4086  0.3650
13533TIP3    H162014   0.657   6.307   2.257  1.0091  1.3407 -0.3515
13533TIP3    H262015   0.803   6.289   2.293  0.2843 -1.7461  1.3897
13534TIP3   OH262016   0.223   1.503  17.349  0.2172  0.3235  0.2868
13534TIP3    H162017   0.131   1.527  17.338 -0.1623 -0.9607  0.5852
13534TIP3    H262018   0.225   1.448  17.427  1.4046  1.1335  0.8712
13535TIP3   OH262019   4.232   3.333   0.908  0.1663 -0.5093 -0.6237
13535TIP3    H162020   4.146   3.369   0.886  1.0360  1.2469 -1.3626
13535TIP3    H262021   4.216   3.279   0.985 -1.2373  1.7046  0.7846
13536TIP3   OH262022   4.591   1.875  13.384 -0.6770  0.0160 -0.7529
13536TIP3    H162023   4.586   1.781  13.363 -0.7660 -0.4820  1.2785
13536TIP3    H262024   4.521   1.889  13.448  0.3932  1.0929  0.2321
13537TIP3   OH262025   1.794   5.118  12.899  0.3451 -0.1148 -0.0517
13537TIP3    H162026   1.755   5.048  12.951  0.1826 -0.5079 -0.6857
13537TIP3    H262027   1.874   5.141  12.945  0.3796 -0.6980  0.1787
13538TIP3   OH262028   0.706   1.752  12.275  0.0579  0.6449  0.5211
13538TIP3    H162029   0.687   1.821  12.337  2.9726 -0.1497  2.4901
13538TIP3    H262030   0.724   1.798  12.192 -0.0570  2.0640  1.2605
13539TIP3   OH262031   1.508   1.391  14.803 -0.3194 -0.0890 -0.3006
13539TIP3    H162032   1.506   1.296  14.794  1.2927 -0.1944  0.1383
13539TIP3    H262033   1.429   1.413  14.853 -0.9005 -1.1325 -0.7282
13540TIP3   OH262034   0.981   6.389  14.925  0.3780 -0.1053  0.1879
13540TIP3    H162035   1.025   6.370  14.842  0.1959 -1.4275  0.3766
13540TIP3    H262036   0.900   6.432  14.899  0.4599 -0.2324 -0.3089
13541TIP3   OH262037   5.704   2.146  12.646 -0.2250 -0.1391 -0.3377
13541TIP3    H162038   5.747   2.156  12.731  0.7503  1.1991 -0.9472
13541TIP3    H262039   5.610   2.149  12.665 -0.1288 -2.7829  0.9932
13542TIP3   OH262040   3.499   4.947   5.569 -0.1482  0.1721 -0.1924
13542TIP3    H162041   3.593   4.936   5.579  0.2231  2.9968  0.1362
13542TIP3    H262042   3.485   4.957   5.475  0.0840  1.0599 -0.1409
13543TIP3   OH262043   2.583   5.266   2.546 -0.1116 -0.2126 -0.0849
13543TIP3    H162044   2.650   5.203   2.517  0.1191 -0.9232  1.8103
13543TIP3    H262045   2.610   5.349   2.507  1.2541 -0.7066 -0.2735
13544TIP3   OH262046   5.270   6.521  14.106 -0.4417  0.5397  0.0020
13544TIP3    H162047   5.207   6.588  14.133 -3.0601 -1.3380 -0.9104
13544TIP3    H262048   5.240   6.494  14.019 -0.4006 -2.6260  0.8172
13545TIP3   OH262049   2.430   2.812   6.717  0.2286  0.6254 -0.1677
13545TIP3    H162050   2.430   2.720   6.694 -0.1621  0.5673  0.0700
13545TIP3    H262051   2.502   2.821   6.781 -0.3538  0.3015  0.5432
13546TIP3   OH262052   5.122   1.559  17.331  0.4531  0.7593  0.1174
13546TIP3    H162053   5.136   1.606  17.249  1.2465  1.5519  0.6891
13546TIP3    H262054   5.154   1.470  17.314  1.3083  1.1238 -0.2058
13547TIP3   OH262055   1.769   2.204   1.671 -0.1809 -0.2565  0.0531
13547TIP3    H162056   1.745   2.144   1.600 -0.7055  0.5852 -0.4951
13547TIP3    H262057   1.827   2.268   1.630 -1.1109  0.6886  0.1894
13548TIP3   OH262058   1.158   1.006   0.674 -0.7317 -0.2649  0.3818
13548TIP3    H162059   1.118   1.071   0.732  0.1329 -0.4219  1.1693
13548TIP3    H262060   1.084   0.956   0.640 -1.2799  0.0512  1.0783
13549TIP3   OH262061   5.015   2.744  11.821 -0.1898 -0.2405 -0.1950
13549TIP3    H162062   4.936   2.782  11.782  0.1039  0.5581 -0.0287
13549TIP3    H262063   5.049   2.685  11.753  1.0339  2.0746 -1.7244
13550TIP3   OH262064   5.882   1.179   2.655 -0.3627 -0.2231  0.6473
13550TIP3    H162065   5.802   1.211   2.612  0.2507  0.1115 -0.2755
13550TIP3    H262066   5.852   1.147   2.740 -1.5893 -0.7662  0.0321
13551TIP3   OH262067   2.145   3.549  16.722  0.2291  0.8723  0.4102
13551TIP3    H162068   2.170   3.489  16.651  1.4472  2.1578 -0.2810
13551TIP3    H262069   2.050   3.559  16.713  0.2820  0.5108 -0.6171
13552TIP3   OH262070   0.131   5.139  11.514  0.1799  0.2057 -0.2671
13552TIP3    H162071   0.169   5.186  11.440 -1.9857  0.1234 -1.5023
13552TIP3    H262072   0.176   5.055  11.515  0.8649  0.5555 -0.9131
13553TIP3   OH262073   2.465   2.274   2.908 -0.4264  0.1714  0.4740
13553TIP3    H162074   2.443   2.224   2.830  0.5186  0.6922 -0.1444
13553TIP3    H262075   2.536   2.331   2.880 -0.5253  0.8355  1.5461
13554TIP3   OH262076   1.864   0.208  16.845  0.6887  0.8934 -0.3230
13554TIP3    H162077   1.878   0.289  16.796  0.2901  1.0772 -0.1326
13554TIP3    H262078   1.950   0.166  16.847  0.4087 -0.0295 -2.8007
13555TIP3   OH262079   2.257   5.624  16.834  0.1083  0.3501  0.2425
13555TIP3    H162080   2.199   5.550  16.855  3.0932 -1.8404  1.6048
13555TIP3    H262081   2.246   5.637  16.740  0.8659 -3.3342 -0.5380
13556TIP3   OH262082   5.874   6.161  14.972 -0.1613  0.0905 -0.1129
13556TIP3    H162083   5.914   6.099  15.033 -0.5501 -1.9217 -1.8144
13556TIP3    H262084   5.783   6.167  15.000  0.0294  0.4582  0.4596
13557TIP3   OH262085   4.672   3.990  12.987 -0.0940  0.3807  0.7781
13557TIP3    H162086   4.607   3.951  12.929  1.2410 -1.4854  0.4305
13557TIP3    H262087   4.671   4.083  12.966 -1.0493  0.0394 -0.8225
13558TIP3   OH262088   1.597   5.104  13.737 -0.0893  0.1292 -0.1168
13558TIP3    H162089   1.622   5.136  13.824  2.2994  0.0726 -0.7026
13558TIP3    H262090   1.585   5.010  13.748  2.2505 -0.2396 -0.1631
13559TIP3   OH262091   5.096   5.907   0.081 -0.2376  0.4187 -0.4646
13559TIP3    H162092   5.032   5.962   0.035 -0.6739  0.4570  0.1808
13559TIP3    H262093   5.081   5.819   0.046 -2.4383 -0.0922  1.4924
13560TIP3   OH262094   2.525   4.235  12.479  0.0430  0.2114 -0.0343
13560TIP3    H162095   2.589   4.263  12.413 -1.4117 -0.0074 -1.6247
13560TIP3    H262096   2.480   4.161  12.438 -1.5408  0.6505  0.8207
13561TIP3   OH262097   0.058   4.807   6.883 -0.2195  0.0966  0.3937
13561TIP3    H162098   0.013   4.829   6.965 -1.5054 -0.5755 -0.0999
13561TIP3    H262099   0.026   4.872   6.821 -0.6180 -0.4658  0.0044
13562TIP3   OH262100   0.428   2.698  15.000 -0.1377 -0.7352 -0.1149
13562TIP3    H162101   0.477   2.753  15.061  0.4544 -0.6556 -0.6526
13562TIP3    H262102   0.353   2.752  14.974  0.0887 -0.4263 -0.1397
13563TIP3   OH262103   2.098   4.543   3.659  0.1173  0.1854 -0.0041
13563TIP3    H162104   2.105   4.634   3.631  0.8363  0.0457 -0.3076
13563TIP3    H262105   2.010   4.515   3.631 -0.0851  0.7665  0.0487
13564TIP3   OH262106   3.050   1.145  16.945  0.2223  0.1705  0.4851
13564TIP3    H162107   3.046   1.074  16.882  0.3760  0.1630  0.4839
13564TIP3    H262108   3.038   1.224  16.892  1.2222  0.2286  0.3157
13565TIP3   OH262109   5.231   2.924  10.706  0.2331 -0.2845  0.3974
13565TIP3    H162110   5.280   2.993  10.751 -1.9123  0.6661  1.4273
13565TIP3    H262111   5.212   2.960  10.620  0.8905 -0.4751  0.1620
13566TIP3   OH262112   0.856   1.329   0.065  0.2735 -0.2120 -0.1553
13566TIP3    H162113   0.839   1.262   0.130 -0.8008  0.7459  0.5751
13566TIP3    H262114   0.949   1.352   0.078  0.3790 -0.8471  0.2420
13567TIP3   OH262115   1.252   5.894  14.819 -0.0317  0.5618 -0.3699
13567TIP3    H162116   1.164   5.860  14.803  0.7160 -0.9334 -1.5030
13567TIP3    H262117   1.308   5.846  14.759  2.0003 -0.5699  2.2204
13568TIP3   OH262118   3.644   0.897   3.914  0.3518 -0.3772 -0.4474
13568TIP3    H162119   3.569   0.908   3.972  0.2387 -0.9511 -0.4732
13568TIP3    H262120   3.688   0.819   3.947  0.4998 -0.4860 -0.9004
13569TIP3   OH262121   5.719   1.050   3.773 -0.1123 -0.3917 -0.2423
13569TIP3    H162122   5.766   1.131   3.792  1.4669 -1.6337  1.7021
13569TIP3    H262123   5.767   1.011   3.699  0.2786 -0.4023  0.0139
13570TIP3   OH262124   1.279   0.414  12.753 -0.3295  0.3734 -0.0093
13570TIP3    H162125   1.233   0.454  12.827 -1.4692 -0.3994 -0.2803
13570TIP3    H262126   1.270   0.478  12.682  1.4383  1.4773  0.6855
13571TIP3   OH262127   3.480   2.088  17.002 -0.4115  0.0570  0.5152
13571TIP3    H162128   3.390   2.121  17.010 -0.0205  1.0615  0.8511
13571TIP3    H262129   3.529   2.160  16.962  0.3102 -0.3835  0.5876
13572TIP3   OH262130   4.168   1.999  13.749 -0.1020 -0.2647  0.0718
13572TIP3    H162131   4.086   2.007  13.797  1.4661 -3.0925  3.7462
13572TIP3    H262132   4.162   1.914  13.706  0.3372  0.1703 -0.8611
13573TIP3   OH262133   1.355   6.617   4.695 -0.5435  0.0901 -0.5219
13573TIP3    H162134   1.277   6.609   4.750 -0.4547  0.3712 -0.3544
13573TIP3    H262135   1.330   6.575   4.612 -0.0593 -2.0260  0.3568
13574TIP3   OH262136   5.414   6.207   2.014 -0.2495 -0.1373 -0.2459
13574TIP3    H162137   5.506   6.199   1.991  0.0463 -1.2673  1.1964
13574TIP3    H262138   5.369   6.149   1.951  0.1962 -0.7747  0.0087
13575TIP3   OH262139   0.064   6.530   5.737  0.2733  0.4343  0.6256
13575TIP3    H162140   0.112   6.593   5.791  0.8868  1.2559 -0.8308
13575TIP3    H262141  -0.020   6.572   5.720  0.8044  1.0229 -0.6124
13576TIP3   OH262142   3.390   0.079  15.622 -0.6829  0.4371  0.4103
13576TIP3    H162143   3.346   0.005  15.580  0.5932 -0.0204 -0.1669
13576TIP3    H262144   3.344   0.156  15.588 -1.3668 -0.0412  0.2235
13577TIP3   OH262145   5.168   3.703  11.566 -0.5966  0.1617 -0.4192
13577TIP3    H162146   5.187   3.743  11.481 -0.7307 -1.8349 -1.4415
13577TIP3    H262147   5.211   3.618  11.564 -0.8195 -0.0500  1.4279
13578TIP3   OH262148   2.631   0.152  11.573 -0.3079  0.4140 -0.4389
13578TIP3    H162149   2.567   0.088  11.540 -1.0711  0.7580  0.3438
13578TIP3    H262150   2.681   0.105  11.639  1.1996 -0.2654 -1.9769
13579TIP3   OH262151   4.217   6.206   1.326 -0.0568 -0.5850 -0.0811
13579TIP3    H162152   4.309   6.209   1.300  0.2254 -1.0419  0.8170
13579TIP3    H262153   4.217   6.156   1.408 -0.5868  2.7198  2.1157
13580TIP3   OH262154   4.275   5.114  14.419  0.4719 -0.3829 -0.0294
13580TIP3    H162155   4.238   5.074  14.340  1.0141 -1.5336  0.2805
13580TIP3    H262156   4.200   5.123  14.478  0.0097  0.7553 -0.7669
13581TIP3   OH262157   1.078   4.384   2.782  0.1187 -0.3320 -0.4216
13581TIP3    H162158   1.005   4.367   2.722 -0.0732 -1.2835  0.0576
13581TIP3    H262159   1.076   4.478   2.797 -0.3357 -0.2028 -1.2725
13582TIP3   OH262160   5.336   2.790  14.815  0.4605  0.2582  0.0785
13582TIP3    H162161   5.410   2.742  14.850  0.1643  1.0206  1.8295
13582TIP3    H262162   5.333   2.871  14.866 -1.7370  0.1152  0.2717
13583TIP3   OH262163   0.581   4.481  13.866 -0.2174 -0.4247  0.1039
13583TIP3    H162164   0.629   4.413  13.914 -1.7245 -0.1985  2.0776
13583TIP3    H262165   0.567   4.550  13.931 -0.1263  1.0770 -1.4134
13584TIP3   OH262166   0.697   1.003  12.095  0.2547 -0.0252  0.7042
13584TIP3    H162167   0.674   0.924  12.047  1.8506 -0.1463  0.0919
13584TIP3    H262168   0.614   1.049  12.107 -0.4219 -0.8662 -0.5940
13585TIP3   OH262169   0.542   5.015   0.481  0.3446 -0.2136 -0.0260
13585TIP3    H162170   0.560   4.932   0.526  0.5765  0.1737  0.6144
13585TIP3    H262171   0.446   5.018   0.475  0.3647 -0.9458 -0.8731
13586TIP3   OH262172   1.680   6.723  15.658 -0.0229  0.3567  0.6223
13586TIP3    H162173   1.729   6.667  15.719  1.5951  1.6744  0.6266
13586TIP3    H262174   1.678   6.673  15.576 -0.5229 -0.6143  1.2173
13587TIP3   OH262175   0.109   5.287   1.131 -0.2987  0.0961 -0.4848
13587TIP3    H162176   0.198   5.313   1.107  0.4809  0.7360  2.5982
13587TIP3    H262177   0.109   5.192   1.123 -0.0728  0.2463 -2.6217
13588TIP3   OH262178   2.222   4.919   4.878 -0.3157  0.0150  0.3092
13588TIP3    H162179   2.142   4.971   4.867 -0.5956 -0.0043  1.9275
13588TIP3    H262180   2.288   4.982   4.906 -0.7302 -0.4534  2.5755
13589TIP3   OH262181   1.099   0.345  11.019  0.0129 -0.2886  0.6928
13589TIP3    H162182   1.150   0.284  10.966 -0.3777 -1.0888  1.2135
13589TIP3    H262183   1.010   0.340  10.983 -0.2141 -0.6992  1.2883
13590TIP3   OH262184   2.652   5.052   5.626  0.1103 -0.1585 -0.5549
13590TIP3    H162185   2.626   5.067   5.717 -1.5540  0.1121 -1.0446
13590TIP3    H262186   2.667   5.139   5.591 -0.9573 -0.1386 -0.9971
13591TIP3   OH262187   3.518   1.898   0.738 -0.5697  0.0091 -0.2055
13591TIP3    H162188   3.567   1.968   0.780 -0.1385  0.7550 -1.8936
13591TIP3    H262189   3.552   1.818   0.779 -0.7406  0.7158  1.4061
13592TIP3   OH262190   4.854   3.693  14.486 -0.2083  0.2528 -0.2898
13592TIP3    H162191   4.792   3.623  14.468  0.4088  0.0656 -1.8382
13592TIP3    H262192   4.936   3.664  14.446  0.0379  1.8793 -1.0563
13593TIP3   OH262193   3.053   0.753   1.047 -0.0166  1.0951  0.5527
13593TIP3    H162194   2.987   0.684   1.043  0.1856  0.9342 -2.5724
13593TIP3    H262195   3.026   0.816   0.981  1.0034  2.9373  1.8136
13594TIP3   OH262196   2.942   5.940   1.358  0.1106 -0.4943 -0.1523
13594TIP3    H162197   2.911   6.031   1.353  0.2282 -0.2990  1.7027
13594TIP3    H262198   2.889   5.893   1.295 -1.8466  0.4006  0.7329
13595TIP3   OH262199   4.019   0.050   0.428  0.0420 -0.5039  0.4541
13595TIP3    H162200   4.061  -0.036   0.431  0.9827 -0.0693 -0.0051
13595TIP3    H262201   4.087   0.109   0.397 -1.1755  0.0366 -1.3399
13596TIP3   OH262202   5.458   5.152   2.047 -0.5365 -0.3471  0.0634
13596TIP3    H162203   5.524   5.221   2.044 -0.9197  0.0166 -0.2245
13596TIP3    H262204   5.406   5.165   1.968 -0.8387 -0.7435  0.1901
13597TIP3   OH262205   0.444   5.343   1.458  0.1176  0.4031 -0.2201
13597TIP3    H162206   0.490   5.281   1.514 -0.5584 -0.8940 -1.0493
13597TIP3    H262207   0.477   5.324   1.370 -0.3270  1.0123 -0.5205
13598TIP3   OH262208   3.311   0.661   3.079  0.0188  0.0351  0.1186
13598TIP3    H162209   3.371   0.735   3.088  0.4999 -0.5131  1.6319
13598TIP3    H262210   3.358   0.599   3.022  0.4436  0.0683  0.4283
13599TIP3   OH262211   3.598   4.613  17.300  0.4989 -0.3478 -0.2816
13599TIP3    H162212   3.607   4.634  17.393  0.6056 -1.4169 -0.0398
13599TIP3    H262213   3.520   4.559  17.295 -0.7045  1.3956 -1.1253
13600TIP3   OH262214   5.552   6.080  11.993 -0.4277 -0.3762  0.4373
13600TIP3    H162215   5.550   6.061  12.086  0.0434  0.0517  0.5394
13600TIP3    H262216   5.499   6.160  11.984 -0.7470 -0.5996  0.2881
13601TIP3   OH262217   3.511   4.537   0.739 -0.2767 -0.0912  0.2358
13601TIP3    H162218   3.437   4.518   0.682  1.6383 -2.6552 -1.5892
13601TIP3    H262219   3.538   4.453   0.775  2.7241  0.4173 -0.4819
13602TIP3   OH262220   6.650   0.238   3.994 -0.3301  0.2629  0.8217
13602TIP3    H162221   6.708   0.287   3.935  1.3125 -2.1962  0.2388
13602TIP3    H262222   6.562   0.256   3.961  0.4756 -0.5061 -2.1324
13603TIP3   OH262223   6.435   2.730  15.105  0.1531 -0.0356  0.2107
13603TIP3    H162224   6.366   2.669  15.081 -0.7273  0.9226  0.2389
13603TIP3    H262225   6.508   2.709  15.047  1.5179 -3.9313  2.9520
13604TIP3   OH262226   0.432   3.137   3.887  0.3759  0.2828  0.0485
13604TIP3    H162227   0.390   3.181   3.813 -0.1854 -0.5056 -0.1104
13604TIP3    H262228   0.360   3.116   3.946  0.8041  0.7671  0.7448
13605TIP3   OH262229   1.287   4.973  12.689  0.1153  0.0642 -0.0028
13605TIP3    H162230   1.293   4.885  12.650 -0.4182  0.1812 -0.3594
13605TIP3    H262231   1.219   5.017  12.638 -0.4382  0.2980  0.9269
13606TIP3   OH262232   2.500   5.883  15.327 -0.1240  0.3041 -0.4623
13606TIP3    H162233   2.544   5.849  15.249 -0.5108  0.0087 -0.5568
13606TIP3    H262234   2.571   5.914  15.383  0.1801  0.1759 -0.7729
13607TIP3   OH262235   4.754   2.668  13.929  0.2910 -0.4680 -0.4698
13607TIP3    H162236   4.686   2.728  13.900 -0.3076 -0.9353 -0.0652
13607TIP3    H262237   4.724   2.581  13.900  0.5189 -0.7248  0.0441
13608TIP3   OH262238   1.343   6.410   4.228  0.2822 -0.0174 -0.4262
13608TIP3    H162239   1.247   6.407   4.217  0.0856  0.4397  0.9846
13608TIP3    H262240   1.377   6.364   4.151 -1.0858 -0.6022 -0.7163
13609TIP3   OH262241   1.400   1.945  14.940 -0.0422  0.4842  0.4371
13609TIP3    H162242   1.445   1.863  14.961  0.0965  0.5977  0.5959
13609TIP3    H262243   1.432   2.007  15.006  0.4030  0.8558 -0.1164
13610TIP3   OH262244   2.352   0.134   2.067 -0.0568  0.3769 -0.2375
13610TIP3    H162245   2.421   0.181   2.115  1.0178 -0.8686 -0.5081
13610TIP3    H262246   2.399   0.071   2.013 -1.4057 -0.2297 -0.7428
13611TIP3   OH262247   5.165   0.251   5.869  0.4665  0.1860  0.1702
13611TIP3    H162248   5.228   0.310   5.910 -1.7583  2.0631  1.1427
13611TIP3    H262249   5.098   0.237   5.936  0.0650 -2.1339 -0.6315
13612TIP3   OH262250   6.172   2.487  13.324 -0.2838 -0.1731 -0.8569
13612TIP3    H162251   6.098   2.489  13.263 -1.4017 -0.5345  0.4320
13612TIP3    H262252   6.187   2.394  13.341 -0.8565 -0.0614  0.3960
13613TIP3   OH262253   3.126   3.090  14.228  0.5669  0.9891 -0.6805
13613TIP3    H162254   3.194   3.158  14.229  0.2211  1.3337 -0.6020
13613TIP3    H262255   3.175   3.008  14.228  1.0251  1.1459  2.5016
13614TIP3   OH262256   3.716   0.234   2.507 -0.0388 -0.3244  0.0003
13614TIP3    H162257   3.786   0.258   2.447 -2.9483  1.3971 -3.0630
13614TIP3    H262258   3.742   0.273   2.590  2.2041  1.0060 -1.2249
13615TIP3   OH262259   1.306   1.996   4.728  0.0383 -0.0566 -0.9926
13615TIP3    H162260   1.216   1.988   4.698 -0.4678 -0.9774  0.6501
13615TIP3    H262261   1.304   1.965   4.819  1.6843  1.5112 -0.3617
13616TIP3   OH262262   5.533   3.605   2.639 -0.1365  0.1940 -0.2763
13616TIP3    H162263   5.474   3.626   2.566 -1.3001 -0.3024  0.4930
13616TIP3    H262264   5.589   3.536   2.605  0.8736  1.5171 -1.4280
13617TIP3   OH262265   5.957   4.850  16.731 -0.8402 -0.3830 -0.2123
13617TIP3    H162266   5.939   4.819  16.643 -1.6070  0.0612 -0.2185
13617TIP3    H262267   6.000   4.935  16.718 -0.4540 -0.5648 -0.1595
13618TIP3   OH262268   2.980   2.477   2.849  0.4754  0.1372 -0.0995
13618TIP3    H162269   3.033   2.542   2.897 -0.8393  1.2884 -0.1451
13618TIP3    H262270   3.040   2.443   2.782  2.6019 -2.0166  2.6295
13619TIP3   OH262271   4.989   0.211   2.652 -0.3306 -0.2201 -0.0516
13619TIP3    H162272   4.905   0.174   2.680 -0.6569 -0.2169 -0.9900
13619TIP3    H262273   5.053   0.172   2.711 -1.0119 -0.0720  0.8077
13620TIP3   OH262274   4.520   2.010   2.807  0.1489  0.1351  0.5577
13620TIP3    H162275   4.574   2.029   2.730 -1.9954  0.1886 -1.0188
13620TIP3    H262276   4.558   2.064   2.876  1.6619  0.7087 -0.6425
13621TIP3   OH262277   4.317   2.351  11.598  0.0377 -0.5482 -0.2350
13621TIP3    H162278   4.405   2.386  11.613 -0.2605  0.3099 -0.4264
13621TIP3    H262279   4.297   2.373  11.507  0.0176 -1.6309 -0.5025
13622TIP3   OH262280   4.813   0.759   1.467 -0.6473 -0.1920  0.0188
13622TIP3    H162281   4.854   0.689   1.416 -1.0693 -1.8932  1.9057
13622TIP3    H262282   4.825   0.837   1.413  0.1601 -1.6182 -2.0117
13623TIP3   OH262283   5.799   3.338   3.476  0.3605  0.3604  0.8238
13623TIP3    H162284   5.803   3.356   3.570  0.6421  0.1428  0.8548
13623TIP3    H262285   5.753   3.255   3.469  2.9522 -1.2054  0.9837
13624TIP3   OH262286   3.814   5.018  14.365 -0.0919 -0.6468  0.2432
13624TIP3    H162287   3.898   4.977  14.385 -0.0476 -2.1818 -2.6193
13624TIP3    H262288   3.835   5.089  14.305 -0.7392 -0.1730  0.5599
13625TIP3   OH262289   6.520   5.823  16.935  0.1939 -0.6686 -0.2763
13625TIP3    H162290   6.595   5.867  16.973  0.2086 -0.5318 -0.4596
13625TIP3    H262291   6.490   5.763  17.003 -0.1084 -0.0452  0.1539
13626TIP3   OH262292   3.839   5.498   0.640 -0.2618 -0.5720 -0.2258
13626TIP3    H162293   3.802   5.416   0.607 -0.7344  0.0845 -1.3867
13626TIP3    H262294   3.928   5.475   0.667  0.5763 -0.9749 -2.9852
13627TIP3   OH262295   0.505   6.235  11.404 -0.4073  0.1320  0.9634
13627TIP3    H162296   0.564   6.279  11.343 -1.4983 -0.9264 -0.9379
13627TIP3    H262297   0.563   6.199  11.472  1.1079 -0.4923 -0.5829
13628TIP3   OH262298   1.945   5.783  12.978  0.5777 -0.6191 -0.7210
13628TIP3    H162299   1.954   5.730  13.057  0.3285 -0.3213 -0.4899
13628TIP3    H262300   1.997   5.737  12.912  0.7933 -0.8666 -0.3823
13629TIP3   OH262301   4.569   2.458  17.091  0.8352  0.3492  0.1916
13629TIP3    H162302   4.510   2.452  17.167  2.5738  1.0850  1.6680
13629TIP3    H262303   4.657   2.455  17.128  1.8091 -1.4956 -2.0102
13630TIP3   OH262304   2.668   5.968  17.341  0.1074 -0.6316 -0.2304
13630TIP3    H162305   2.601   5.900  17.334 -1.5574  1.0469 -1.7764
13630TIP3    H262306   2.639   6.022  17.414  1.7522 -1.8400  1.3886
13631TIP3   OH262307   4.854   3.046   1.186 -0.0397 -0.4450 -0.0194
13631TIP3    H162308   4.767   3.087   1.193  0.8459  1.3276  1.5720
13631TIP3    H262309   4.908   3.095   1.248  1.6801 -2.6864  0.3451
13632TIP3   OH262310   3.748   5.127   1.948 -0.3513  0.3962 -0.0256
13632TIP3    H162311   3.793   5.139   2.032 -1.5634 -1.7517  1.0472
13632TIP3    H262312   3.814   5.145   1.882  1.3614 -0.2054  1.4333
13633TIP3   OH262313   0.926   5.820  15.250 -0.6493 -0.2168  0.1809
13633TIP3    H162314   0.887   5.904  15.277  0.4408  0.1209  0.8108
13633TIP3    H262315   1.017   5.827  15.279 -0.1718 -1.0510 -1.0489
13634TIP3   OH262316   5.749   5.850   3.651 -0.1264  0.4764  0.1859
13634TIP3    H162317   5.672   5.829   3.703 -0.5680  1.3511 -0.0934
13634TIP3    H262318   5.807   5.897   3.710  0.9717 -1.6130  0.8827
13635TIP3   OH262319   4.950   2.916  15.784 -0.5233  0.1062 -0.1195
13635TIP3    H162320   5.028   2.956  15.821 -0.9770  2.1068 -1.1767
13635TIP3    H262321   4.894   2.990  15.760 -2.7662 -1.2459  0.5799
13636TIP3   OH262322   3.815   4.745  13.950 -0.2946 -0.3606 -0.4470
13636TIP3    H162323   3.867   4.792  13.884 -3.0586  1.5540 -1.4157
13636TIP3    H262324   3.773   4.675  13.902 -0.4630 -0.4402 -0.1843
13637TIP3   OH262325   5.271   5.749   1.646  0.3837  0.1577  0.3680
13637TIP3    H162326   5.190   5.790   1.679 -0.6441 -1.9238  0.5954
13637TIP3    H262327   5.333   5.757   1.718 -0.4411 -0.4383  1.1643
13638TIP3   OH262328   6.534   6.167   6.865 -1.2174  0.0918  0.2490
13638TIP3    H162329   6.492   6.151   6.950 -3.0861 -0.3589 -0.7021
13638TIP3    H262330   6.551   6.080   6.831  2.5494  0.1891  1.4638
13639TIP3   OH262331   0.513   1.241  15.537  0.1802  0.4440 -0.5108
13639TIP3    H162332   0.544   1.166  15.485 -0.1885  0.0892 -0.2154
13639TIP3    H262333   0.527   1.215  15.628 -1.7951 -0.0952 -0.3176
13640TIP3   OH262334   5.210   2.878   4.513 -0.2676 -0.3941 -0.1134
13640TIP3    H162335   5.266   2.869   4.436 -0.6694  2.3306 -0.8502
13640TIP3    H262336   5.267   2.916   4.580 -0.7573  0.7653 -0.3179
13641TIP3   OH262337   1.613   3.621  14.384  0.0019 -0.2602  0.2755
13641TIP3    H162338   1.616   3.692  14.321 -0.0650  1.4067  2.0577
13641TIP3    H262339   1.547   3.561  14.350 -1.5230  1.6164 -0.2198
13642TIP3   OH262340   0.272   2.911  13.612  0.1623  0.2049  0.0644
13642TIP3    H162341   0.359   2.906  13.573 -0.6749  1.2889 -2.1052
13642TIP3    H262342   0.213   2.877  13.544 -1.0138 -2.3734  2.1705
13643TIP3   OH262343   3.597   5.058   1.722  0.5576  0.0371 -0.2422
13643TIP3    H162344   3.643   5.051   1.806  0.4438 -0.9044 -0.2459
13643TIP3    H262345   3.662   5.092   1.661  0.4879  1.2847  0.3409
13644TIP3   OH262346   1.474   3.343  11.440 -0.1399 -0.1771 -0.4788
13644TIP3    H162347   1.549   3.285  11.429  0.0798  0.1207 -0.5723
13644TIP3    H262348   1.450   3.333  11.532 -0.2709 -0.6153 -0.5590
13645TIP3   OH262349   3.618   0.166   0.618 -0.1327 -0.2706 -0.6597
13645TIP3    H162350   3.616   0.084   0.668 -0.6012  0.3051  0.3005
13645TIP3    H262351   3.698   0.210   0.646 -1.0216  0.6224  0.5553
13646TIP3   OH262352   5.136   2.759  16.651 -0.2363  0.2618  0.3420
13646TIP3    H162353   5.135   2.735  16.559  3.4372  1.0906 -0.0545
13646TIP3    H262354   5.115   2.852  16.652  2.1506  0.8677 -0.0363
13647TIP3   OH262355   4.994   4.028   4.340 -0.0534 -0.0174  0.3580
13647TIP3    H162356   4.974   4.095   4.274 -2.1647  2.7130  3.4910
13647TIP3    H262357   4.912   3.980   4.352  0.5485 -1.0553  0.4553
13648TIP3   OH262358   3.798   3.653  14.667  0.4539  0.4956  0.0372
13648TIP3    H162359   3.739   3.692  14.731 -1.1331 -0.9328 -0.4677
13648TIP3    H262360   3.769   3.688  14.583  0.2815 -0.2726 -0.2262
13649TIP3   OH262361   3.342   1.871  12.207  0.2029  0.7522 -0.2726
13649TIP3    H162362   3.404   1.833  12.146  0.0815 -1.0007  0.6347
13649TIP3    H262363   3.310   1.797  12.259 -0.3928  2.0228  1.2798
13650TIP3   OH262364   2.502   3.124  17.231 -0.1369  0.3105  0.2084
13650TIP3    H162365   2.416   3.086  17.247 -0.3510  0.2164 -1.0337
13650TIP3    H262366   2.561   3.048  17.224 -0.3464  0.2410 -1.0446
13651TIP3   OH262367   4.947   3.622  15.075  0.4756 -0.0395  0.0036
13651TIP3    H162368   4.938   3.717  15.086  1.0916  0.2676 -1.7830
13651TIP3    H262369   4.910   3.585  15.155 -1.3851  1.6358 -0.0009
13652TIP3   OH262370   3.843   6.299   4.174 -0.2580  0.0561 -0.1963
13652TIP3    H162371   3.790   6.239   4.122  1.1733 -0.1766 -1.4452
13652TIP3    H262372   3.806   6.386   4.155  0.6715  0.0521 -2.2013
13653TIP3   OH262373   3.897   6.419   5.644 -0.5445 -0.0696 -0.0009
13653TIP3    H162374   3.889   6.509   5.678  0.3757  0.4576 -1.1337
13653TIP3    H262375   3.986   6.414   5.609 -1.3983 -0.6030 -2.2304
13654TIP3   OH262376   5.465   4.691  14.028  0.4894  0.2230  0.1971
13654TIP3    H162377   5.423   4.612  14.061 -0.7076  0.9291  0.4229
13654TIP3    H262378   5.412   4.763  14.062  1.0470  1.0988 -0.7128
13655TIP3   OH262379   5.834   1.414  10.880  0.5041  0.2613  0.7094
13655TIP3    H162380   5.811   1.503  10.856  1.7321  0.6090  0.7776
13655TIP3    H262381   5.877   1.378  10.802 -1.8650 -1.0090 -0.0967
13656TIP3   OH262382   1.038   1.251  16.538  0.4952  0.3576 -0.1718
13656TIP3    H162383   0.955   1.209  16.513 -0.4068  1.2778  1.1064
13656TIP3    H262384   1.069   1.201  16.613  0.6418  0.5364 -0.1120
13657TIP3   OH262385   3.271   4.943   5.693  0.1900 -0.1951 -0.3279
13657TIP3    H162386   3.246   5.035   5.688 -0.2165 -0.3712 -2.1433
13657TIP3    H262387   3.365   4.943   5.671  0.6097 -0.0730  1.3354
13658TIP3   OH262388   1.764   3.216   4.338  0.0845 -0.5113  0.0339
13658TIP3    H162389   1.785   3.215   4.431 -1.7572 -3.6516  0.5939
13658TIP3    H262390   1.672   3.244   4.334 -0.0393 -0.9686 -0.7416
13659TIP3   OH262391   6.452   1.078  17.037  0.1093  0.0001 -0.4276
13659TIP3    H162392   6.480   0.989  17.060  1.8643  0.7354  0.4893
13659TIP3    H262393   6.415   1.069  16.950 -0.5746 -1.7804  0.0016
13660TIP3   OH262394   1.603   3.827   2.624  0.5448  0.5578  0.0938
13660TIP3    H162395   1.625   3.773   2.701 -0.3068  0.2912  0.1539
13660TIP3    H262396   1.526   3.785   2.586  0.2171  1.4082 -0.1987
13661TIP3   OH262397   1.617   4.689   5.680 -0.1374 -0.0939 -0.7721
13661TIP3    H162398   1.600   4.721   5.768 -1.2228  0.9455 -1.3238
13661TIP3    H262399   1.639   4.768   5.629 -1.6028 -0.3393 -1.8747
13662TIP3   OH262400   2.819   6.622   0.929  0.0952 -0.2313 -0.3301
13662TIP3    H162401   2.787   6.639   1.018 -0.0926 -1.6380 -0.1146
13662TIP3    H262402   2.885   6.554   0.939 -1.3016 -1.8370 -1.4443
13663TIP3   OH262403   1.387   3.146  13.123 -0.3772 -0.5671  0.5771
13663TIP3    H162404   1.376   3.072  13.063 -0.8059 -0.7716  0.9033
13663TIP3    H262405   1.324   3.212  13.093  0.8741  0.1989 -0.4970
13664TIP3   OH262406   3.093   4.872   2.407  0.7946  0.7386  0.4462
13664TIP3    H162407   3.121   4.782   2.422  2.0100  1.0965  0.4204
13664TIP3    H262408   3.078   4.908   2.495  0.9566  0.7124  0.4838
13665TIP3   OH262409   6.295   1.888  16.297 -1.2669  0.0911 -0.5834
13665TIP3    H162410   6.316   1.799  16.268  1.1993  0.4287 -0.0588
13665TIP3    H262411   6.232   1.920  16.232  0.1189 -1.0001 -2.5893
13666TIP3   OH262412   2.166   3.090   3.844 -0.1906  0.0006  0.1876
13666TIP3    H162413   2.203   3.116   3.759  1.4340  0.9208  1.1361
13666TIP3    H262414   2.072   3.100   3.832 -0.0446 -0.4214 -1.6763
13667TIP3   OH262415   3.877   1.644   1.531 -0.0321  0.3276 -0.0690
13667TIP3    H162416   3.803   1.693   1.495  0.3130  1.8956  1.2240
13667TIP3    H262417   3.953   1.680   1.485 -0.0215 -1.1838 -1.2972
13668TIP3   OH262418   5.612   6.410  15.735 -0.0303  0.2296 -0.3588
13668TIP3    H162419   5.661   6.461  15.671  1.4930  1.6030  1.7756
13668TIP3    H262420   5.524   6.447  15.732  0.5337  1.6433 -0.2818
13669TIP3   OH262421   4.979   3.176   4.923  0.1445 -0.4299 -0.2194
13669TIP3    H162422   4.892   3.149   4.955 -0.3272  1.3755  0.1043
13669TIP3    H262423   4.963   3.207   4.834  0.1809  1.1757  0.3032
13670TIP3   OH262424   1.396   6.715  11.474  0.2636 -0.2433  0.0974
13670TIP3    H162425   1.359   6.651  11.413  0.3543  1.5847 -2.0304
13670TIP3    H262426   1.489   6.721  11.449  0.6654 -0.5227  1.4450
13671TIP3   OH262427   4.679   5.498  11.671 -0.5177 -0.4753  0.1371
13671TIP3    H162428   4.639   5.412  11.686  0.3616 -1.0527 -0.6819
13671TIP3    H262429   4.721   5.490  11.585  2.2273 -0.2779  1.3406
13672TIP3   OH262430   4.623   0.261  13.311 -0.3723  0.7166  0.3263
13672TIP3    H162431   4.551   0.295  13.259 -0.1979  2.0679  0.9298
13672TIP3    H262432   4.584   0.192  13.364 -0.4868 -0.9301 -1.7675
13673TIP3   OH262433   4.099   5.439   5.447 -0.4363  0.2287 -0.3883
13673TIP3    H162434   4.128   5.494   5.374 -2.9951 -0.2529 -1.9092
13673TIP3    H262435   4.005   5.455   5.453 -0.6902 -1.5056  1.3129
13674TIP3   OH262436   1.782   4.456   1.884 -0.5199 -0.3389 -0.3199
13674TIP3    H162437   1.727   4.445   1.806 -0.4694  0.8522 -0.5424
13674TIP3    H262438   1.858   4.505   1.852  0.8446 -2.1957 -0.0800
13675TIP3   OH262439   0.081   2.729   5.765  0.0295  0.4104 -0.9297
13675TIP3    H162440   0.007   2.719   5.704 -0.0477 -0.6003 -0.6870
13675TIP3    H262441   0.048   2.787   5.833 -0.7325 -0.4394 -0.5501
13676TIP3   OH262442   6.234   5.634  11.523 -0.2952  0.0857  0.1557
13676TIP3    H162443   6.258   5.563  11.583 -0.1597 -1.3579 -1.5296
13676TIP3    H262444   6.151   5.668  11.558  0.6706  0.5452  2.1656
13677TIP3   OH262445   4.945   5.508   4.214  0.5518 -0.8263  0.2814
13677TIP3    H162446   4.907   5.543   4.133 -2.0124  1.7547  2.4236
13677TIP3    H262447   5.037   5.537   4.211 -0.4371  2.6812 -0.0366
13678TIP3   OH262448   3.989   1.460   1.000  0.1608  0.5025  0.5199
13678TIP3    H162449   3.902   1.472   1.038  0.2351  0.9406  0.5574
13678TIP3    H262450   3.992   1.367   0.975  0.0515  0.2394  1.4376
13679TIP3   OH262451   4.707   4.931  12.698  0.2779  0.0370 -0.0827
13679TIP3    H162452   4.709   4.953  12.791 -2.5283 -1.5214  0.4884
13679TIP3    H262453   4.635   4.867  12.691  0.0819  0.4547 -3.3932
13680TIP3   OH262454   0.776   5.237  13.423  0.4915 -0.3538 -0.1949
13680TIP3    H162455   0.811   5.175  13.359  0.7095  0.7541 -1.2033
13680TIP3    H262456   0.681   5.223  13.422  0.5531 -0.7585 -0.3098
13681TIP3   OH262457   0.086   5.629   6.770  0.4249 -0.4294 -0.1715
13681TIP3    H162458   0.096   5.553   6.713  0.6570 -0.3761 -0.2044
13681TIP3    H262459   0.013   5.606   6.829  0.8398 -0.9007  0.1717
13682TIP3   OH262460   4.778   5.175  12.583  0.6573  0.0498  0.2212
13682TIP3    H162461   4.763   5.082  12.601  3.2526 -0.9542 -2.0427
13682TIP3    H262462   4.811   5.210  12.666  0.3765 -1.2286  0.9088
13683TIP3   OH262463   3.710   0.341  12.092  0.5886  0.1373  0.3841
13683TIP3    H162464   3.656   0.310  12.019  1.5474  1.8571 -1.1183
13683TIP3    H262465   3.648   0.351  12.165 -0.7898  0.3564 -0.7789
13684TIP3   OH262466   1.907   3.479  14.466 -0.3300 -0.2882 -0.1369
13684TIP3    H162467   1.943   3.449  14.383  0.3051  0.9447 -0.3430
13684TIP3    H262468   1.825   3.522  14.442  0.2703  0.8353 -0.2766
13685TIP3   OH262469   2.329   0.388   5.642 -0.2362  0.2275  0.0695
13685TIP3    H162470   2.308   0.297   5.622 -0.1391  0.3010 -0.3963
13685TIP3    H262471   2.414   0.384   5.685 -0.0865  0.1177 -0.2296
13686TIP3   OH262472   0.906   1.772   3.917 -0.2573  0.4715 -0.0355
13686TIP3    H162473   0.955   1.775   3.999 -0.8695 -0.6382  0.3970
13686TIP3    H262474   0.967   1.805   3.851  1.0426 -0.7638  0.5039
13687TIP3   OH262475   1.545   4.139  14.980  0.2784  0.6985  0.7088
13687TIP3    H162476   1.519   4.052  15.008  0.1907  1.0736  1.8515
13687TIP3    H262477   1.475   4.196  15.011  0.6689  1.2659  0.5643
13688TIP3   OH262478   3.473   5.424   5.124  0.6616  0.0826 -0.0073
13688TIP3    H162479   3.548   5.366   5.115  0.2423 -0.4794  0.0705
13688TIP3    H262480   3.462   5.435   5.218 -0.7790 -1.7536  0.1032
13689TIP3   OH262481   3.698   6.461  16.962 -0.0747 -0.2658  0.0502
13689TIP3    H162482   3.672   6.546  16.927  1.2489  0.3244  0.4133
13689TIP3    H262483   3.658   6.397  16.904  0.0861  0.6470 -1.0924
13690TIP3   OH262484   4.381   1.224  15.795 -0.6134 -0.7089  0.2170
13690TIP3    H162485   4.439   1.290  15.833  1.2779 -0.3580 -2.9120
13690TIP3    H262486   4.320   1.274  15.740 -0.8195 -1.3840 -0.1820
13691TIP3   OH262487   0.878   4.374  14.805 -0.6602 -0.3730 -0.0442
13691TIP3    H162488   0.889   4.313  14.732  0.1405 -0.7789  0.3967
13691TIP3    H262489   0.967   4.407  14.822 -1.1582  1.3480 -0.6240
13692TIP3   OH262490   3.288   3.267   0.506  0.0463  0.6781  0.2736
13692TIP3    H162491   3.350   3.239   0.573  1.5813  1.2424 -0.8365
13692TIP3    H262492   3.286   3.362   0.514 -1.2750  0.6181  0.7757
13693TIP3   OH262493   4.460   2.019  16.253  0.3784  0.0668 -0.3916
13693TIP3    H162494   4.520   1.957  16.211  1.0427  0.7342 -0.4603
13693TIP3    H262495   4.452   1.987  16.343 -0.0371 -0.6492 -0.6819
13694TIP3   OH262496   5.449   4.067   1.347 -0.1507 -0.0495  0.2772
13694TIP3    H162497   5.505   4.141   1.320 -0.6173 -0.6748 -2.7751
13694TIP3    H262498   5.511   4.003   1.382  0.9737 -0.1640 -1.7354
13695TIP3   OH262499   1.141   0.714   2.277  0.1280 -0.1272  0.5997
13695TIP3    H162500   1.136   0.698   2.183 -2.7767  2.1212  0.2367
13695TIP3    H262501   1.218   0.666   2.305  0.8736 -1.2204 -2.8388
13696TIP3   OH262502   4.794   5.110  15.567  0.0601 -0.2136  0.0144
13696TIP3    H162503   4.774   5.020  15.541 -0.6883 -0.1686  0.3771
13696TIP3    H262504   4.885   5.108  15.597  0.4567 -0.5665 -1.1861
13697TIP3   OH262505   5.882   6.663  13.194  0.0867 -0.6132 -0.3642
13697TIP3    H162506   5.904   6.736  13.136 -0.2589 -0.2514 -0.0421
13697TIP3    H262507   5.913   6.690  13.280  0.1000 -0.9123 -0.2756
13698TIP3   OH262508   1.259   4.711   4.651 -0.0589 -0.4937 -0.3569
13698TIP3    H162509   1.237   4.782   4.711 -1.3415 -1.8668  0.8541
13698TIP3    H262510   1.227   4.741   4.566  1.1536  1.1709 -0.2887
13699TIP3   OH262511   5.948   3.841   6.300  0.1670 -0.5118 -0.0597
13699TIP3    H162512   5.894   3.773   6.339  1.2110 -1.0196  0.5288
13699TIP3    H262513   6.036   3.803   6.295  0.8221  0.8706  0.4972
13700TIP3   OH262514   5.913   5.206   2.950  0.0426 -0.1558  0.0576
13700TIP3    H162515   5.967   5.259   2.891 -0.7005 -0.9939 -1.4493
13700TIP3    H262516   5.972   5.137   2.981  0.2841 -0.0714 -0.2101
13701TIP3   OH262517   2.402   0.330  13.073 -0.3586  0.3735 -0.2814
13701TIP3    H162518   2.383   0.309  12.981  2.1341 -0.6382 -0.6324
13701TIP3    H262519   2.422   0.423  13.073  1.4105  0.0324 -1.1523
13702TIP3   OH262520   2.432   2.479  14.609  0.1115 -0.2437  0.0348
13702TIP3    H162521   2.498   2.522  14.664 -0.8781  1.4633 -0.0725
13702TIP3    H262522   2.415   2.540  14.538 -2.0749 -0.2993  0.4317
13703TIP3   OH262523   3.416   3.751   0.883  0.6914  0.7376 -0.1103
13703TIP3    H162524   3.352   3.680   0.892  0.3734  1.2196  1.9532
13703TIP3    H262525   3.379   3.808   0.816 -0.7246  0.6497  0.5539
13704TIP3   OH262526   5.361   3.468  14.176 -0.0570  0.1919  0.9408
13704TIP3    H162527   5.440   3.438  14.131 -0.6896 -2.2039  1.2605
13704TIP3    H262528   5.394   3.512  14.255  0.9869  2.5518 -0.6831
13705TIP3   OH262529   1.733   3.148  16.249  0.4748  0.3023 -0.4356
13705TIP3    H162530   1.815   3.197  16.245  0.3676  0.4199 -1.6218
13705TIP3    H262531   1.667   3.207  16.212 -0.4167  0.6645  1.5983
13706TIP3   OH262532   2.533   0.956   5.013 -0.1419 -0.4229 -0.4416
13706TIP3    H162533   2.496   1.040   4.986 -0.3099  0.2260  1.5984
13706TIP3    H262534   2.626   0.963   4.996  0.0662  0.7807  1.0085
13707TIP3   OH262535   0.953   3.017   0.588  0.4800  0.0984  0.4251
13707TIP3    H162536   0.980   3.039   0.500  1.2233 -0.0345  0.6184
13707TIP3    H262537   0.889   3.085   0.611 -0.8376 -0.7001 -0.7506
13708TIP3   OH262538   5.496   5.671  14.886  0.4568  0.3267  0.3695
13708TIP3    H162539   5.533   5.601  14.833  0.3782  0.1302  0.5767
13708TIP3    H262540   5.538   5.663  14.972  0.7115  0.7514  0.2924
13709TIP3   OH262541   3.167   4.885   1.895  0.4769  0.3715  0.0103
13709TIP3    H162542   3.090   4.903   1.950  0.3750  1.4250 -0.4545
13709TIP3    H262543   3.231   4.848   1.955  0.1583  0.9702  0.7413
13710TIP3   OH262544   6.426   5.261  17.227  0.7271 -0.1284 -0.3000
13710TIP3    H162545   6.401   5.280  17.318 -0.8913 -0.4499 -0.6568
13710TIP3    H262546   6.344   5.236  17.184  1.5247 -0.2850 -1.7806
13711TIP3   OH262547   2.403   1.170   0.147 -0.5446 -0.6120 -0.3830
13711TIP3    H162548   2.364   1.155   0.233  2.9836 -2.9835  1.0129
13711TIP3    H262549   2.372   1.096   0.094  1.3821 -2.1887  0.5621
13712TIP3   OH262550   0.286   2.162  13.718 -0.0378 -0.6067  0.2237
13712TIP3    H162551   0.314   2.072  13.705 -1.0479 -0.6512 -2.4891
13712TIP3    H262552   0.229   2.160  13.795 -0.6498 -2.4653 -0.2327
13713TIP3   OH262553   5.718   4.320  16.137 -0.1386  0.5783  0.5069
13713TIP3    H162554   5.661   4.393  16.117 -0.1473  0.1529 -1.1621
13713TIP3    H262555   5.762   4.299  16.054  0.0665 -1.1210  0.9913
13714TIP3   OH262556   1.267   3.068   3.955  0.0126 -0.2364  0.3484
13714TIP3    H162557   1.263   2.979   3.920 -1.7571 -0.7039  1.6117
13714TIP3    H262558   1.263   3.124   3.877 -1.1858 -1.2596 -0.3686
13715TIP3   OH262559   0.736   3.022  15.495  0.0746 -0.1448  0.2696
13715TIP3    H162560   0.671   2.987  15.557 -0.3349  1.0872  0.5643
13715TIP3    H262561   0.793   3.077  15.549 -0.6755  1.4699 -0.5149
13716TIP3   OH262562   1.749   4.801   3.031 -0.1889  0.7358  0.0281
13716TIP3    H162563   1.704   4.749   2.964  0.4942  2.1860 -1.6479
13716TIP3    H262564   1.755   4.889   2.993 -0.0596  1.7179  2.1630
13717TIP3   OH262565   4.530   4.501   4.581  0.3597  0.0956 -0.0918
13717TIP3    H162566   4.499   4.505   4.671  0.5544  0.7941 -0.0536
13717TIP3    H262567   4.490   4.577   4.539  0.3872 -0.1457 -0.5593
13718TIP3   OH262568   5.347   2.704  14.514  0.5259  0.1284  0.0711
13718TIP3    H162569   5.402   2.735  14.587  1.1868  2.1327 -1.1787
13718TIP3    H262570   5.258   2.708  14.548  0.7976  1.2965  0.7116
13719TIP3   OH262571   0.552   5.001   0.221  0.3273 -0.0980 -0.2299
13719TIP3    H162572   0.545   4.906   0.219 -0.9004 -0.0080 -0.9660
13719TIP3    H262573   0.550   5.023   0.314 -0.7412 -0.7098 -0.0954
13720TIP3   OH262574   0.870   4.588  12.074  0.9065 -0.8185  0.4356
13720TIP3    H162575   0.831   4.638  12.146  0.5860 -0.3351 -0.0594
13720TIP3    H262576   0.820   4.615  11.997  0.9139 -1.7061  0.1120
13721TIP3   OH262577   3.212   0.498   3.459 -0.0691  0.6739 -0.1643
13721TIP3    H162578   3.137   0.513   3.402 -0.3316 -0.6164 -0.1696
13721TIP3    H262579   3.208   0.571   3.522  0.8203  2.7198 -2.3374
13722TIP3   OH262580   3.501   0.781  16.048  0.5704 -0.3061 -0.3871
13722TIP3    H162581   3.456   0.698  16.065 -0.4257  0.4343  0.7065
13722TIP3    H262582   3.552   0.797  16.127  1.6467 -0.4003 -1.0365
13723TIP3   OH262583   3.301   1.413  15.726 -0.2951  0.0856  0.1052
13723TIP3    H162584   3.390   1.441  15.746 -0.1894 -0.9773  1.2519
13723TIP3    H262585   3.267   1.380  15.809 -1.7216  0.3438 -0.3366
13724TIP3   OH262586   5.127   3.379   5.574 -0.0164  0.4511 -0.1461
13724TIP3    H162587   5.207   3.336   5.546  0.0064 -0.7955  1.7341
13724TIP3    H262588   5.066   3.307   5.591 -0.5600  1.2332  1.3193
13725TIP3   OH262589   0.808   5.852   3.054 -0.1142  0.1254 -0.1297
13725TIP3    H162590   0.766   5.868   3.139  2.1040  1.0015  0.8778
13725TIP3    H262591   0.797   5.933   3.005  0.2558  0.3099  0.0863
13726TIP3   OH262592   2.919   1.951   1.075  0.1919 -0.0275  0.1515
13726TIP3    H162593   2.872   1.964   1.158  1.1746  2.7814  0.3661
13726TIP3    H262594   3.011   1.947   1.100  0.3433 -2.5644 -0.5571
13727TIP3   OH262595   5.167   1.953  16.441  0.2711  0.1124  0.2767
13727TIP3    H162596   5.181   2.037  16.486 -1.4533  0.6499 -0.1140
13727TIP3    H262597   5.074   1.935  16.452  0.4304 -1.2918 -0.4578
13728TIP3   OH262598   2.755   2.745   3.537  0.3125 -0.2441  0.2046
13728TIP3    H162599   2.731   2.652   3.536  1.4044 -0.5674  1.2308
13728TIP3    H262600   2.783   2.763   3.447  1.5810 -1.3533  0.3341
13729TIP3   OH262601   3.286   4.433   5.706  0.1889 -0.0688  0.2332
13729TIP3    H162602   3.225   4.360   5.717 -0.6083  0.6856  1.1227
13729TIP3    H262603   3.367   4.403   5.746  0.5908 -1.2702 -1.3913
13730TIP3   OH262604   4.786   0.187   4.571  0.0536  0.2880 -0.9102
13730TIP3    H162605   4.711   0.134   4.599 -0.5116  1.9434  0.9274
13730TIP3    H262606   4.777   0.193   4.476 -0.8472 -1.4104 -0.9649
13731TIP3   OH262607   1.397   4.032   3.539 -0.0511  0.2862 -0.7845
13731TIP3    H162608   1.477   3.984   3.516 -0.7248 -1.5940  0.5376
13731TIP3    H262609   1.329   3.965   3.539 -1.0910  1.2753  0.9312
13732TIP3   OH262610   5.805   5.004  16.100  0.9954 -0.7924 -0.3212
13732TIP3    H162611   5.847   5.054  16.169  2.5705 -2.6039  0.1341
13732TIP3    H262612   5.769   4.927  16.145  0.3812 -1.0703 -1.2521
13733TIP3   OH262613   6.347   6.109  16.615 -0.2189  0.3208 -0.8683
13733TIP3    H162614   6.261   6.140  16.641  0.5560  0.7360  1.4373
13733TIP3    H262615   6.394   6.095  16.697  2.2312  1.0244 -2.0392
13734TIP3   OH262616   1.953   0.978   4.214 -0.3471 -0.1726  0.0066
13734TIP3    H162617   1.971   0.918   4.141  0.8163 -0.7560  0.7344
13734TIP3    H262618   2.025   1.041   4.211 -0.0559 -0.4410  0.8623
13735TIP3   OH262619   0.023   5.051   2.724 -0.2059 -0.2908 -0.1624
13735TIP3    H162620   0.104   5.101   2.713  0.0338 -0.6774 -0.1763
13735TIP3    H262621   0.024   4.988   2.651 -0.9185  0.2389 -0.6364
13736TIP3   OH262622   3.088   3.339   3.743 -0.3853  0.2654 -1.1383
13736TIP3    H162623   3.100   3.261   3.798 -1.8631 -0.3490 -1.6247
13736TIP3    H262624   3.092   3.412   3.804  1.9079 -0.0857 -0.7895
13737TIP3   OH262625   3.489   2.303   1.900 -0.5600  0.4259 -0.1042
13737TIP3    H162626   3.453   2.218   1.874 -0.2485  0.2812 -0.0776
13737TIP3    H262627   3.580   2.283   1.924 -1.1692  0.2678  2.4405
13738TIP3   OH262628   2.026   0.150   1.818 -0.6610 -0.6130  0.2320
13738TIP3    H162629   1.932   0.158   1.830 -0.6757 -3.0426  2.6780
13738TIP3    H262630   2.042   0.056   1.809  1.6482 -0.4967  1.9231
13739TIP3   OH262631   1.012   6.608   5.131  0.0029  0.1639  0.1602
13739TIP3    H162632   1.015   6.667   5.206  1.6169 -1.4211  1.4349
13739TIP3    H262633   0.965   6.531   5.162  2.0760 -1.1907  0.1462
13740TIP3   OH262634   6.692   0.460   1.251 -0.1385 -0.1118  0.1672
13740TIP3    H162635   6.745   0.471   1.330 -0.9695 -0.5940  0.8048
13740TIP3    H262636   6.755   0.432   1.184  0.2286 -1.9871  1.2319
13741TIP3   OH262637   1.365   0.170  17.484 -0.1186 -0.3149  0.5013
13741TIP3    H162638   1.331   0.234  17.422  1.4534  0.0375 -0.0379
13741TIP3    H262639   1.288   0.141  17.533 -1.1204  0.6955 -0.4176
13742TIP3   OH262640   4.125   1.868   2.045  0.1510 -0.3859 -0.2934
13742TIP3    H162641   4.036   1.842   2.019 -0.4287  2.2612 -1.2747
13742TIP3    H262642   4.182   1.802   2.006 -1.2557 -0.7985 -1.7557
13743TIP3   OH262643   3.331   4.929   4.680 -0.0870  0.4096  0.0777
13743TIP3    H162644   3.299   4.889   4.599 -2.5736 -0.8478  1.5533
13743TIP3    H262645   3.393   4.866   4.716 -2.3342 -1.3095  1.2744
13744TIP3   OH262646   1.952   2.733   3.070  0.2185 -0.3711  0.4456
13744TIP3    H162647   1.881   2.788   3.105  1.3701  2.0143 -0.7539
13744TIP3    H262648   2.017   2.730   3.140  0.6128  0.7499  0.1502
13745TIP3   OH262649   6.555   0.091  13.051 -0.4508  0.0759 -0.1884
13745TIP3    H162650   6.585   0.168  13.099 -2.2681 -0.3470  1.7624
13745TIP3    H262651   6.483   0.056  13.103 -0.3379 -2.3957 -1.5148
13746TIP3   OH262652   4.237   4.798  11.128 -0.1055  0.6094  0.7621
13746TIP3    H162653   4.161   4.765  11.081  0.3582  0.6583 -0.0270
13746TIP3    H262654   4.304   4.812  11.061  0.6529  0.4307  1.4545
13747TIP3   OH262655   6.483   5.756  15.066 -0.6657 -0.4795 -0.3073
13747TIP3    H162656   6.538   5.695  15.115 -1.3384 -0.5213  0.4266
13747TIP3    H262657   6.509   5.842  15.098 -0.9313 -0.4904 -0.0630
13748TIP3   OH262658   2.330   0.051  14.107  0.7874  0.1173 -0.1139
13748TIP3    H162659   2.326  -0.016  14.039  0.0762 -0.1912  0.2192
13748TIP3    H262660   2.310   0.133  14.061  2.3381  0.2206 -0.6509
13749TIP3   OH262661   3.631   4.715   1.908 -0.2574  0.0618  0.2863
13749TIP3    H162662   3.557   4.732   1.850  2.2400  0.8163 -2.9019
13749TIP3    H262663   3.630   4.621   1.921 -0.4908 -0.2303 -1.6200
13750TIP3   OH262664   0.493   5.196  13.430 -0.1086 -0.1023 -0.1126
13750TIP3    H162665   0.404   5.189  13.395 -0.3796  0.8437  0.3527
13750TIP3    H262666   0.481   5.195  13.525  0.5338 -1.6814 -0.0319
13751TIP3   OH262667   0.658   1.761   4.885  0.1057 -0.3300 -0.3589
13751TIP3    H162668   0.629   1.678   4.846 -1.1145 -1.2140  2.2181
13751TIP3    H262669   0.599   1.827   4.848  0.1267 -0.8193 -1.3051
13752TIP3   OH262670   5.271   5.016   4.111 -0.2597 -0.0928  0.6921
13752TIP3    H162671   5.230   4.944   4.159  1.6364 -0.6833  1.4824
13752TIP3    H262672   5.349   4.978   4.072 -0.9399  0.7455 -1.7087
13753TIP3   OH262673   3.150   2.682  15.258 -0.0271  0.2723 -0.4154
13753TIP3    H162674   3.158   2.731  15.339 -0.1932 -2.0920  1.1199
13753TIP3    H262675   3.240   2.673  15.225 -0.0372  1.8848 -0.9533
13754TIP3   OH262676   3.274   6.736  12.829  0.3914 -0.5367  0.7886
13754TIP3    H162677   3.191   6.783  12.817  0.7927  0.1073  0.4571
13754TIP3    H262678   3.250   6.644  12.824 -0.4011 -0.3694  1.3534
13755TIP3   OH262679   2.831   0.954   3.647  0.4434 -0.3220  0.2530
13755TIP3    H162680   2.786   0.921   3.725  0.4121 -1.1748 -0.1213
13755TIP3    H262681   2.874   1.034   3.677  0.9832 -0.9889  1.3118
13756TIP3   OH262682   6.509   5.824   5.232  0.1373 -0.2056 -0.0738
13756TIP3    H162683   6.582   5.772   5.265  0.1506 -0.6361 -0.7537
13756TIP3    H262684   6.431   5.775   5.260 -0.0086  1.1032  2.1126
13757TIP3   OH262685   6.713   4.365   6.736  0.0518  0.5214  0.1880
13757TIP3    H162686   6.793   4.379   6.785 -1.4921  1.1749  2.7085
13757TIP3    H262687   6.660   4.443   6.754 -1.5216 -0.3253 -0.5878
13758TIP3   OH262688   6.112   4.591   2.357 -0.4550  0.4856  0.1495
13758TIP3    H162689   6.057   4.667   2.334 -2.0586 -0.3760  0.9601
13758TIP3    H262690   6.066   4.550   2.430  0.8378 -0.8047  0.2768
13759TIP3   OH262691   5.347   2.415  13.085 -0.1794  0.4316  0.3502
13759TIP3    H162692   5.287   2.364  13.140  2.4247  0.0870  3.1602
13759TIP3    H262693   5.431   2.410  13.131  1.9631  1.1712 -3.1562
13760TIP3   OH262694   4.184   1.462  14.960 -0.1770 -0.4697  0.0519
13760TIP3    H162695   4.279   1.452  14.964 -0.2654 -1.2842  0.2502
13760TIP3    H262696   4.167   1.497  14.873  0.5491  2.7673  1.0685
13761TIP3   OH262697   6.679   2.116  12.366  0.3197 -0.2512  0.0062
13761TIP3    H162698   6.608   2.092  12.307  0.3674 -1.4785  0.4023
13761TIP3    H262699   6.644   2.100  12.454  1.0822 -0.9458  0.2050
13762TIP3   OH262700   3.552   1.299   2.235 -0.4868 -0.0692  0.1781
13762TIP3    H162701   3.574   1.391   2.222 -0.9294  0.1237  0.7617
13762TIP3    H262702   3.612   1.252   2.177 -0.2842  0.5836 -0.1557
13763TIP3   OH262703   5.978   0.468   1.247 -0.0333 -0.2292 -0.0152
13763TIP3    H162704   5.940   0.517   1.174  0.0702  0.5446  0.4431
13763TIP3    H262705   6.066   0.447   1.218 -0.3146 -0.7628 -0.4970
13764TIP3   OH262706   3.568   6.500   0.004  0.1208 -0.3604  0.2548
13764TIP3    H162707   3.631   6.569   0.023  1.1633 -1.5656  1.4156
13764TIP3    H262708   3.551   6.507  -0.090  0.3790  1.2850  0.3066
13765TIP3   OH262709   3.982   2.881   4.693  0.4722  0.2303 -0.0812
13765TIP3    H162710   4.024   2.847   4.614  0.2783 -0.0193 -0.0780
13765TIP3    H262711   4.050   2.877   4.760  0.1345 -1.2296  0.2084
13766TIP3   OH262712   1.470   1.284  15.170 -0.3336 -0.2019 -0.0505
13766TIP3    H162713   1.435   1.252  15.087  1.6427 -0.9700 -0.6479
13766TIP3    H262714   1.521   1.361  15.146 -0.6763  0.2414  0.6289
13767TIP3   OH262715   3.404   0.372  14.356  0.0724 -0.4071 -0.1307
13767TIP3    H162716   3.418   0.342  14.445  1.7650 -1.2086 -0.6261
13767TIP3    H262717   3.465   0.444  14.345  1.5681 -1.7878 -1.3154
13768TIP3   OH262718   3.952   5.497  14.544  0.7378  0.1119  0.5682
13768TIP3    H162719   3.935   5.404  14.551 -3.0739  0.5758 -0.3472
13768TIP3    H262720   3.886   5.539  14.599  0.7053  2.3043 -0.9667
13769TIP3   OH262721   1.242   1.805  11.661  0.4783  0.1380 -0.0004
13769TIP3    H162722   1.290   1.789  11.743  0.1979  0.8629  0.3085
13769TIP3    H262723   1.168   1.859  11.686  0.6162  0.7148 -0.8022
13770TIP3   OH262724   1.139   1.912  14.982  0.0134 -0.6179  0.2151
13770TIP3    H162725   1.228   1.946  14.974 -0.3970  0.4556  0.0732
13770TIP3    H262726   1.109   1.901  14.892 -0.0719 -0.7687  0.2616
13771TIP3   OH262727   4.432   5.733  15.361 -0.1782 -0.0108 -0.4636
13771TIP3    H162728   4.522   5.701  15.373 -0.2794  0.6773  3.3506
13771TIP3    H262729   4.441   5.809  15.304  1.9754  1.0445  1.1408
13772TIP3   OH262730   4.340   1.139   3.818  0.7022  0.1764  0.6449
13772TIP3    H162731   4.404   1.204   3.787  2.0439 -0.4132  2.1012
13772TIP3    H262732   4.301   1.179   3.896 -2.6295  1.6280 -1.5152
13773TIP3   OH262733   5.375   5.611  14.085  0.2461 -0.9953 -0.0680
13773TIP3    H162734   5.381   5.575  13.997 -0.5642 -0.6963 -0.2581
13773TIP3    H262735   5.281   5.621  14.100  0.4214  1.3565 -0.1724
13774TIP3   OH262736   5.019   0.611   1.645  0.1288  0.6746 -0.4855
13774TIP3    H162737   5.043   0.649   1.561  0.6435 -0.0762 -0.6853
13774TIP3    H262738   5.046   0.519   1.639 -2.1580 -0.0727 -0.4866
13775TIP3   OH262739   0.629   6.543  14.059 -0.0374 -0.2097  1.1050
13775TIP3    H162740   0.564   6.606  14.029 -2.0559 -1.9275  1.6207
13775TIP3    H262741   0.653   6.495  13.980  1.4384  1.0710  0.7277
13776TIP3   OH262742   2.658   2.915  12.934 -0.0644 -0.0257 -0.0579
13776TIP3    H162743   2.611   2.985  12.980  0.5276  0.2332  0.1530
13776TIP3    H262744   2.729   2.891  12.993  0.5324  0.1073 -0.7158
13777TIP3   OH262745   2.546   1.662   5.400  0.6448  0.4869 -0.9093
13777TIP3    H162746   2.513   1.632   5.315 -0.8926 -1.2185  0.2125
13777TIP3    H262747   2.474   1.712   5.438  1.1705  0.9089 -0.4476
13778TIP3   OH262748   6.735   3.793  14.814  0.4000  0.2009  0.1084
13778TIP3    H162749   6.678   3.847  14.869  2.2693 -0.4731  2.9426
13778TIP3    H262750   6.678   3.726  14.778 -1.2857  1.8966 -0.5465
13779TIP3   OH262751   4.086   3.583   4.891  0.2834  0.1125  0.1135
13779TIP3    H162752   4.078   3.670   4.928  2.9200 -0.1654  1.5969
13779TIP3    H262753   4.045   3.525   4.955 -0.3413  0.1163 -0.2694
13780TIP3   OH262754   6.113   0.518   4.695  0.2861 -0.0434 -0.3366
13780TIP3    H162755   6.074   0.461   4.761  1.4991  2.7878  3.1776
13780TIP3    H262756   6.201   0.483   4.683  0.4202  0.0133  0.4219
13781TIP3   OH262757   4.695   4.546   0.684 -0.3618 -0.0089  0.0958
13781TIP3    H162758   4.771   4.489   0.685 -1.0435 -0.9504 -0.2553
13781TIP3    H262759   4.697   4.589   0.599 -0.8033 -0.8388 -0.3358
13782TIP3   OH262760   6.543   5.524  13.944  0.2319 -0.0635  0.1914
13782TIP3    H162761   6.627   5.570  13.938 -0.0442  0.2845 -2.2891
13782TIP3    H262762   6.566   5.432  13.933  0.4708 -0.2525  1.9585
13783TIP3   OH262763   3.157   2.579   4.128 -0.6167 -0.0157 -0.4688
13783TIP3    H162764   3.168   2.674   4.129  1.3804 -0.1785 -0.8325
13783TIP3    H262765   3.191   2.550   4.213  0.0715 -0.4707 -0.8821
13784TIP3   OH262766   3.006   1.768  11.495  0.1320 -0.0518 -0.0785
13784TIP3    H162767   2.916   1.741  11.480  0.2265 -0.4455  0.0507
13784TIP3    H262768   3.050   1.689  11.527  0.9114 -0.2949 -1.6695
13785TIP3   OH262769   4.728   1.311  17.391 -0.0103  0.3043 -0.3041
13785TIP3    H162770   4.775   1.306  17.308 -0.2583  2.1388 -0.5926
13785TIP3    H262771   4.699   1.402  17.397  0.1054  0.2534  1.8430
13786TIP3   OH262772   0.598   1.108  16.088 -0.3000  0.2229  0.2444
13786TIP3    H162773   0.552   1.061  16.158  0.1902 -1.6753 -0.6498
13786TIP3    H262774   0.670   1.152  16.133  0.0160 -0.9698  0.9688
13787TIP3   OH262775   3.792   1.534  12.110 -0.1065 -0.4383  0.5448
13787TIP3    H162776   3.698   1.553  12.119  0.1818  1.7343 -0.4402
13787TIP3    H262777   3.811   1.553  12.018  1.4202 -0.2314  0.8861
13788TIP3   OH262778   6.532   1.673  15.340 -0.5731  0.0056 -0.2509
13788TIP3    H162779   6.459   1.641  15.287 -1.4310  0.0819  0.8552
13788TIP3    H262780   6.607   1.620  15.311 -1.1965 -0.5196 -0.9529
13789TIP3   OH262781   4.339   1.383   5.443  0.0539 -0.0216 -0.6801
13789TIP3    H162782   4.373   1.299   5.412  0.6593 -0.5683  1.3019
13789TIP3    H262783   4.365   1.446   5.376 -1.2357 -1.5241 -2.6723
13790TIP3   OH262784   4.845   1.245   6.034 -0.2631  0.0203  0.7847
13790TIP3    H162785   4.750   1.249   6.020 -0.2941  1.7587  1.2251
13790TIP3    H262786   4.859   1.162   6.079 -1.6173 -0.1574  0.9171
13791TIP3   OH262787   0.497   0.366  12.802 -0.1066  0.5145  0.2724
13791TIP3    H162788   0.465   0.277  12.818  1.7002 -0.0558  0.8860
13791TIP3    H262789   0.495   0.374  12.706 -0.4701 -0.0966  0.2196
13792TIP3   OH262790   0.602   4.379  14.444  0.5516  0.0208 -0.3406
13792TIP3    H162791   0.538   4.337  14.501 -0.1879  0.7358 -0.6261
13792TIP3    H262792   0.675   4.317  14.440 -0.9979 -1.8494 -1.7708
13793TIP3   OH262793   1.824   5.565   6.528 -0.1606  0.4843  0.3159
13793TIP3    H162794   1.790   5.653   6.544 -1.4342 -0.0627  0.7584
13793TIP3    H262795   1.861   5.538   6.612 -0.4136  0.3445  0.3871
13794TIP3   OH262796   6.653   3.767   2.211 -0.2759  0.3225  0.2250
13794TIP3    H162797   6.606   3.810   2.139 -0.6473  1.1606  0.9607
13794TIP3    H262798   6.584   3.734   2.268  0.0031 -1.0085 -0.1558
13795TIP3   OH262799   2.364   0.255   4.905 -0.1043  0.3335  0.3645
13795TIP3    H162800   2.392   0.346   4.909 -0.5150  0.4506  0.6284
13795TIP3    H262801   2.416   0.217   4.834  0.5276  0.6075  0.6713
13796TIP3   OH262802   2.867   3.766   0.332  0.1193  0.5967 -0.1348
13796TIP3    H162803   2.858   3.797   0.241 -2.2822  0.4863  0.0223
13796TIP3    H262804   2.809   3.822   0.383  0.5292 -0.1245  1.1728
13797TIP3   OH262805   1.474   3.759   6.436  0.8837  0.6748  0.1208
13797TIP3    H162806   1.500   3.812   6.511 -0.4472  1.2340  0.2276
13797TIP3    H262807   1.389   3.795   6.410  0.3486 -0.8487 -0.3529
13798TIP3   OH262808   1.411   5.259  16.752 -0.5809  0.2884 -0.6788
13798TIP3    H162809   1.392   5.329  16.814 -1.9622 -0.6625  0.0187
13798TIP3    H262810   1.329   5.245  16.705 -0.1591 -0.4548 -1.2226
13799TIP3   OH262811   5.773   6.436  17.057 -0.1500  0.0434  0.6707
13799TIP3    H162812   5.774   6.353  17.009 -0.2256  0.3400  0.1489
13799TIP3    H262813   5.860   6.474  17.041 -0.5752  0.6895 -0.2174
13800TIP3   OH262814   1.095   0.767  14.311  0.1164 -0.4898  0.2370
13800TIP3    H162815   1.081   0.727  14.225 -1.6350  0.2319  0.1477
13800TIP3    H262816   1.188   0.791  14.311  0.0551 -0.0587 -1.6683
13801TIP3   OH262817   4.469   2.468  14.715  0.2912  0.3466  0.6561
13801TIP3    H162818   4.420   2.528  14.659  1.6066  0.3118 -0.5915
13801TIP3    H262819   4.418   2.463  14.796 -1.9323  0.0423 -0.6784
13802TIP3   OH262820   5.770   6.586   3.754 -0.5323 -0.0925 -0.1549
13802TIP3    H162821   5.768   6.578   3.850 -0.5784  0.8965 -0.0608
13802TIP3    H262822   5.856   6.624   3.735 -0.9685  0.7940 -0.4056
13803TIP3   OH262823   1.443   1.059  16.159  0.3347  0.3482 -0.3753
13803TIP3    H162824   1.466   1.129  16.099 -1.3875 -1.5195 -3.4684
13803TIP3    H262825   1.363   1.088  16.202 -0.3970  0.2984 -1.6752
13804TIP3   OH262826   1.515   5.617  14.593 -0.5831 -0.1789 -0.5121
13804TIP3    H162827   1.520   5.631  14.688  0.8119  0.1618 -0.6108
13804TIP3    H262828   1.483   5.700  14.559 -2.7636 -0.8457 -0.2339
13805TIP3   OH262829   6.234   5.417   6.614  0.0903 -0.1202  0.4986
13805TIP3    H162830   6.300   5.377   6.557 -0.3271 -1.5383  0.9774
13805TIP3    H262831   6.285   5.468   6.677  0.6589 -0.2710  0.1670
13806TIP3   OH262832   0.832   6.477  12.928  0.3866  0.7164  0.4089
13806TIP3    H162833   0.860   6.511  13.013  1.2657 -0.1262  0.4752
13806TIP3    H262834   0.899   6.507  12.866 -0.0133  0.9537  0.0856
13807TIP3   OH262835   0.169   0.509   2.151  0.5623  0.2967 -0.0829
13807TIP3    H162836   0.180   0.585   2.094 -2.8870  1.9069  1.1064
13807TIP3    H262837   0.181   0.544   2.240 -1.1011 -0.4765  0.4919
13808TIP3   OH262838   5.937   0.411  16.581  0.2510 -0.1391  0.3004
13808TIP3    H162839   6.025   0.445  16.596 -0.1363  0.6067  0.8853
13808TIP3    H262840   5.918   0.432  16.489  0.6094 -0.1464  0.2258
13809TIP3   OH262841   0.239   5.749   3.454  0.4490  0.2994  0.1765
13809TIP3    H162842   0.323   5.716   3.488 -0.4723 -0.9103  1.3941
13809TIP3    H262843   0.235   5.715   3.365  1.5373  0.9119 -0.1223
13810TIP3   OH262844   3.079   3.492  15.620 -0.5736  0.3981 -0.4810
13810TIP3    H162845   3.122   3.569  15.657 -0.2734  0.4444 -0.9232
13810TIP3    H262846   3.062   3.515  15.529 -0.9608  0.1409 -0.4764
13811TIP3   OH262847   6.541   5.966  15.216 -0.0894 -0.3468 -0.2550
13811TIP3    H162848   6.620   5.973  15.269  1.2074  1.1132 -2.2525
13811TIP3    H262849   6.496   6.050  15.229 -0.5215 -0.5646 -0.3252
13812TIP3   OH262850   4.511   1.739  16.615  0.4550 -0.2243  0.2607
13812TIP3    H162851   4.572   1.771  16.682  3.0152 -0.4767 -1.8101
13812TIP3    H262852   4.466   1.818  16.584 -0.1744 -0.0024  1.6364
13813TIP3   OH262853   6.708   3.472   1.300 -0.5862  0.1817  0.1000
13813TIP3    H162854   6.718   3.433   1.213  1.7050 -0.7179  0.6888
13813TIP3    H262855   6.790   3.520   1.314 -1.3424  1.1596  1.3746
13814TIP3   OH262856   5.658   2.236   5.263  0.4099  0.5568  0.6065
13814TIP3    H162857   5.645   2.236   5.357  1.0941 -0.7933  0.7213
13814TIP3    H262858   5.583   2.189   5.228  0.9772 -0.3758  0.6231
13815TIP3   OH262859   3.723   2.849  11.772 -0.3493 -0.4824  0.0612
13815TIP3    H162860   3.738   2.941  11.795 -0.6163 -0.4907  0.2713
13815TIP3    H262861   3.741   2.844  11.679 -2.3873  0.2253 -0.4182
13816TIP3   OH262862   6.453   3.531   2.022  0.3019 -0.1615  0.0526
13816TIP3    H162863   6.402   3.589   1.965 -0.0918  0.4892  1.0452
13816TIP3    H262864   6.535   3.517   1.974  0.6402  1.6726  0.0084
13817TIP3   OH262865   0.972   3.907   2.650  0.4270  0.0993  0.2796
13817TIP3    H162866   1.009   3.944   2.730 -2.1877 -0.6981  1.9590
13817TIP3    H262867   0.890   3.953   2.637  0.5642 -0.1317 -1.7140
13818TIP3   OH262868   1.256   2.578   2.149  0.3072  0.2794  0.0777
13818TIP3    H162869   1.176   2.607   2.105  0.7699  1.0346 -0.3009
13818TIP3    H262870   1.256   2.627   2.231 -0.3344 -0.8014  0.7385
13819TIP3   OH262871   0.567   4.684   1.708  0.0178 -0.0170  0.4740
13819TIP3    H162872   0.619   4.673   1.788 -0.9032 -1.1693  0.9369
13819TIP3    H262873   0.478   4.696   1.739  0.0218  2.5001 -0.2957
13820TIP3   OH262874   4.217   5.921  13.089  0.1022 -0.4337 -0.0410
13820TIP3    H162875   4.250   5.891  13.174  0.6694 -0.7819 -0.3731
13820TIP3    H262876   4.134   5.875  13.077 -0.3235  0.1406  0.6268
13821TIP3   OH262877   2.240   2.345  13.152  0.1323  0.6652 -0.0648
13821TIP3    H162878   2.219   2.277  13.215 -1.1362  0.6669 -0.4704
13821TIP3    H262879   2.287   2.300  13.083 -0.9922  0.1172 -0.4928
13822TIP3   OH262880   6.404   5.535  11.303 -0.1173  0.7743  0.2231
13822TIP3    H162881   6.361   5.450  11.294  1.1358 -0.1155  2.0515
13822TIP3    H262882   6.345   5.585  11.360 -0.0372  0.5435  0.5056
13823TIP3   OH262883   6.516   5.076   2.806 -0.7399 -0.2118  0.8803
13823TIP3    H162884   6.473   4.995   2.779 -0.9091  0.1052  0.1566
13823TIP3    H262885   6.608   5.062   2.783 -0.4287 -0.8805  2.4070
13824TIP3   OH262886   4.751   2.721   3.724  0.5451  0.4198  0.2366
13824TIP3    H162887   4.777   2.704   3.634 -1.2131 -1.0961 -0.0521
13824TIP3    H262888   4.833   2.721   3.773  1.3783 -0.7519 -1.0748
13825TIP3   OH262889   6.519   4.700   5.817 -0.8074  0.1429  0.3921
13825TIP3    H162890   6.497   4.649   5.739 -0.8425  0.7096  0.0230
13825TIP3    H262891   6.613   4.688   5.828  0.0780  3.2202 -2.1278
13826TIP3   OH262892   4.517   4.972   3.112 -0.2267  0.1160  0.8156
13826TIP3    H162893   4.484   4.907   3.174 -1.4461 -0.6559 -0.5650
13826TIP3    H262894   4.571   4.922   3.051 -0.4869  0.5216  0.2338
13827TIP3   OH262895   1.962   4.680   2.389 -0.3693  0.1079 -0.1144
13827TIP3    H162896   2.023   4.625   2.440 -0.3384 -0.0388 -0.3096
13827TIP3    H262897   1.963   4.642   2.301 -1.8445 -0.7973  0.2299
13828TIP3   OH262898   0.837   3.717   1.801 -0.0878 -0.2120  0.0100
13828TIP3    H162899   0.786   3.791   1.836  0.3209  0.3920 -0.6363
13828TIP3    H262900   0.772   3.663   1.756 -0.4293 -0.3713  0.6860
13829TIP3   OH262901   3.704   0.627   5.867  0.0313 -0.6471 -0.5520
13829TIP3    H162902   3.693   0.717   5.897 -0.4246  0.0938 -2.7478
13829TIP3    H262903   3.729   0.578   5.945 -0.9935  1.1269  0.9544
13830TIP3   OH262904   0.763   0.843  10.672  0.6920 -0.1923  1.1218
13830TIP3    H162905   0.702   0.880  10.735 -0.0668 -2.4485  1.7936
13830TIP3    H262906   0.708   0.805  10.604  1.4822  1.1466 -0.3366
13831TIP3   OH262907   2.043   6.324  13.645 -0.3144 -0.0576  0.2999
13831TIP3    H162908   2.040   6.383  13.721 -2.4228 -0.3265  0.4967
13831TIP3    H262909   2.021   6.238  13.682  0.0312 -0.4624 -0.4202
13832TIP3   OH262910   0.774   4.215  11.721 -0.2072  0.1894  0.2467
13832TIP3    H162911   0.684   4.249  11.727 -0.2296  0.2842 -0.5557
13832TIP3    H262912   0.810   4.229  11.809 -0.9377  0.2595  0.5446
13833TIP3   OH262913   6.381   2.336   3.110 -0.5810 -0.3679 -0.6851
13833TIP3    H162914   6.438   2.357   3.184  0.5593  0.0633 -1.6706
13833TIP3    H262915   6.323   2.412   3.102 -0.2062 -0.0882 -0.7142
13834TIP3   OH262916   6.250   1.366  12.684  0.4855 -0.7212  0.1072
13834TIP3    H162917   6.214   1.362  12.773  0.3868 -1.1463  0.0482
13834TIP3    H262918   6.264   1.460  12.669 -2.4536 -0.2926 -0.6153
13835TIP3   OH262919   3.206   2.523  13.050  0.3086  0.8706  0.0151
13835TIP3    H162920   3.245   2.601  13.088  1.6793  0.6235 -0.8170
13835TIP3    H262921   3.234   2.525  12.958 -2.8969  1.4855 -1.0954
13836TIP3   OH262922   1.784   3.618  16.373  0.3685 -0.4155 -0.1729
13836TIP3    H162923   1.876   3.643  16.372  0.1362  0.6712  1.5479
13836TIP3    H262924   1.737   3.699  16.395 -1.0266 -0.8916 -1.2423
13837TIP3   OH262925   5.513   6.424  14.421 -0.3167 -0.3658  0.2876
13837TIP3    H162926   5.492   6.353  14.360  0.1777  0.6699 -1.1298
13837TIP3    H262927   5.603   6.448  14.400 -0.2434  0.2287  1.2216
13838TIP3   OH262928   1.957   1.427   0.008 -0.4722 -0.2623 -0.2624
13838TIP3    H162929   1.991   1.516  -0.004  1.8423 -0.9779  0.5012
13838TIP3    H262930   2.017   1.371  -0.041 -0.4406 -1.6284  1.2567
13839TIP3   OH262931   5.523   5.662   2.740  0.3411 -0.2659  0.2569
13839TIP3    H162932   5.498   5.616   2.660 -0.4586  0.0784  0.3068
13839TIP3    H262933   5.486   5.749   2.731  0.9686  0.0516  0.6311
13840TIP3   OH262934   0.978   0.144   5.000 -0.1524 -0.6554  0.2463
13840TIP3    H162935   0.886   0.158   5.021 -0.1833  0.2214 -0.4202
13840TIP3    H262936   0.994   0.199   4.924  1.1120 -0.2128  0.8046
13841TIP3   OH262937   6.027   5.192   3.860  0.5619  0.4318 -0.3896
13841TIP3    H162938   6.078   5.183   3.779  1.4643 -2.0216  0.3649
13841TIP3    H262939   6.091   5.181   3.930 -0.7552 -1.8676  0.5879
13842TIP3   OH262940   4.150   5.512   1.659 -0.7240 -0.0121 -0.1732
13842TIP3    H162941   4.137   5.605   1.646  0.4500  0.1184 -0.5744
13842TIP3    H262942   4.106   5.470   1.585  0.2756  0.3406 -0.9875
13843TIP3   OH262943   1.339   6.110   0.620 -0.1380 -0.4806  0.5028
13843TIP3    H162944   1.357   6.154   0.537 -0.7530 -1.0315  0.0646
13843TIP3    H262945   1.262   6.155   0.655  0.3785  0.0380  1.0016
13844TIP3   OH262946   3.277   5.911   2.240 -0.1618  0.1693  0.0949
13844TIP3    H162947   3.368   5.895   2.264 -0.2520 -0.1084  0.2598
13844TIP3    H262948   3.278   5.916   2.144  0.1994  1.2742  0.1376
13845TIP3   OH262949   5.981   2.673   1.775 -0.2820  0.5816  0.3016
13845TIP3    H162950   6.057   2.659   1.831 -0.4604  2.1350  0.9676
13845TIP3    H262951   5.906   2.663   1.832 -0.6512 -1.4383 -0.4569
13846TIP3   OH262952   3.629   6.705  16.062  0.4316  0.1886 -0.5187
13846TIP3    H162953   3.627   6.744  15.974  0.1241 -1.5836 -1.3420
13846TIP3    H262954   3.557   6.748  16.109  1.4300  2.1080 -0.6747
13847TIP3   OH262955   2.697   2.263   5.134  0.8493  0.1454 -0.5383
13847TIP3    H162956   2.681   2.168   5.130  1.2064  0.0318  0.4506
13847TIP3    H262957   2.793   2.271   5.137  0.8045  0.5104 -0.0392
13848TIP3   OH262958   5.724   5.472  14.700 -0.1662 -0.1131 -0.3754
13848TIP3    H162959   5.750   5.409  14.768 -0.5182 -2.0957 -1.9699
13848TIP3    H262960   5.806   5.493  14.656 -0.1623 -0.1084 -0.3662
13849TIP3   OH262961   2.156   5.777  17.283  0.2460 -0.0258  0.1289
13849TIP3    H162962   2.112   5.784  17.199  0.4945 -0.2781 -0.0275
13849TIP3    H262963   2.156   5.866  17.318 -0.7521 -0.0949  0.3268
13850TIP3   OH262964   1.772   1.066  14.652 -0.0911  0.1524  0.8137
13850TIP3    H162965   1.829   0.997  14.686  0.4293 -0.3724 -0.9969
13850TIP3    H262966   1.832   1.130  14.614 -0.6485 -0.1352 -0.6245
13851TIP3   OH262967   3.520   6.248  11.098 -0.0225 -0.3626 -0.7775
13851TIP3    H162968   3.592   6.269  11.039  0.9649  0.7253  0.7369
13851TIP3    H262969   3.489   6.334  11.128 -0.0464 -0.9033  0.7812
13852TIP3   OH262970   4.479   0.552  13.774 -0.1402 -0.3238  0.3848
13852TIP3    H162971   4.507   0.510  13.693  0.2316 -2.8140  1.7188
13852TIP3    H262972   4.560   0.578  13.817 -0.1881 -1.3923  1.1421
13853TIP3   OH262973   4.309   3.553  11.578 -0.4116 -0.4977  0.3180
13853TIP3    H162974   4.281   3.619  11.641 -0.2386 -0.5160  0.4144
13853TIP3    H262975   4.403   3.546  11.590 -0.2645  0.0101 -0.4335
13854TIP3   OH262976   5.793   0.476  12.217  0.0399  0.2164  0.2475
13854TIP3    H162977   5.735   0.401  12.201  0.5543 -0.3392  0.9641
13854TIP3    H262978   5.872   0.456  12.167 -0.2605  0.8339 -0.4871
13855TIP3   OH262979   5.850   2.458   1.210 -0.3501  0.4125  0.2990
13855TIP3    H162980   5.784   2.467   1.279 -2.0899 -0.8027 -1.1280
13855TIP3    H262981   5.899   2.379   1.233  1.0295  1.5782  1.6209
13856TIP3   OH262982   3.466   1.292  14.266 -0.1504 -0.3549 -0.1707
13856TIP3    H162983   3.529   1.361  14.288  1.3216 -1.7749  0.2155
13856TIP3    H262984   3.514   1.233  14.208 -1.8638 -0.3019 -1.7380
13857TIP3   OH262985   2.335   5.810   4.208 -0.0599  0.0653  0.3822
13857TIP3    H162986   2.321   5.875   4.278  0.4989  0.4346  0.1523
13857TIP3    H262987   2.410   5.843   4.160  0.4003 -0.9048  0.4306
13858TIP3   OH262988   0.515   3.355  14.024  0.1809  0.2620  0.0713
13858TIP3    H162989   0.466   3.334  14.103  2.2418 -0.3575  1.2488
13858TIP3    H262990   0.478   3.297  13.957 -2.8492  2.0889 -0.0129
13859TIP3   OH262991   1.328   3.195   3.670 -0.4771 -0.0775  0.1082
13859TIP3    H162992   1.249   3.174   3.621 -0.6753  2.0728 -0.6479
13859TIP3    H262993   1.399   3.189   3.605 -0.2126 -0.7069  0.4509
13860TIP3   OH262994   3.755   2.971   2.198 -0.0623  0.7245  0.0884
13860TIP3    H162995   3.795   2.935   2.119 -1.0488 -1.6530  0.5834
13860TIP3    H262996   3.675   3.013   2.168 -0.7092 -0.6365 -0.1779
13861TIP3   OH262997   4.244   0.430   4.584 -0.2464 -0.1260 -0.0686
13861TIP3    H162998   4.252   0.526   4.584  1.9321 -0.2434 -0.8918
13861TIP3    H262999   4.227   0.407   4.675 -2.7127  1.1143 -0.1419
13862TIP3   OH263000   5.293   6.425  15.651  0.8033  0.2726 -0.3880
13862TIP3    H163001   5.256   6.512  15.640  0.4874  0.1943  0.0085
13862TIP3    H263002   5.327   6.402  15.565 -3.2398 -1.1065 -1.8380
13863TIP3   OH263003   6.544   1.787   2.707  0.1676  0.5350 -0.1248
13863TIP3    H163004   6.609   1.802   2.776 -0.8698  1.0360  0.7697
13863TIP3    H263005   6.506   1.873   2.690 -0.7319  0.1406 -0.1483
13864TIP3   OH263006   5.228   5.989  11.309  0.2318 -0.1246 -0.4210
13864TIP3    H163007   5.169   5.958  11.240 -0.3897  1.3957 -0.6010
13864TIP3    H263008   5.288   6.049  11.264  1.0015 -0.5319  0.0350
13865TIP3   OH263009   1.217   5.151   6.709  0.2425  0.3376 -0.3226
13865TIP3    H163010   1.167   5.224   6.671  1.0983  0.6491 -0.8915
13865TIP3    H263011   1.289   5.194   6.755  0.8587 -0.1461 -0.8163
13866TIP3   OH263012   1.619   4.625   4.995 -0.8170 -0.3068  0.0104
13866TIP3    H163013   1.573   4.684   4.935 -2.0788 -1.5309 -0.2970
13866TIP3    H263014   1.555   4.606   5.064  0.4330  0.6345  1.4756
13867TIP3   OH263015   0.645   5.669  10.718  0.0548 -0.4298  0.2686
13867TIP3    H163016   0.733   5.655  10.684 -0.0921  0.9069 -0.7597
13867TIP3    H263017   0.614   5.582  10.744  1.9995 -0.7922  1.5322
13868TIP3   OH263018   3.476   3.603  15.308  0.5897 -0.2554  0.1035
13868TIP3    H163019   3.468   3.622  15.214  1.8722  0.0207  0.0251
13868TIP3    H263020   3.530   3.523  15.311 -0.0652 -0.6873  0.5963
13869TIP3   OH263021   3.845   0.606   5.398 -0.1632  0.3929 -0.0134
13869TIP3    H163022   3.803   0.557   5.469  0.8469 -0.4118  0.0521
13869TIP3    H263023   3.842   0.697   5.426  0.3266  0.0771  1.1388
13870TIP3   OH263024   5.471   5.398   2.281 -0.6672 -0.2353  0.3527
13870TIP3    H163025   5.503   5.367   2.365  0.5473  1.0842  0.4070
13870TIP3    H263026   5.544   5.384   2.220 -1.3349 -0.6575 -0.3786
13871TIP3   OH263027   5.748   3.566  14.864 -0.3865 -0.3071  0.4685
13871TIP3    H163028   5.679   3.623  14.829 -0.9483 -1.7509 -0.8956
13871TIP3    H263029   5.732   3.564  14.958 -2.4345 -0.8459  0.1593
13872TIP3   OH263030   2.922   5.585   5.408  0.8969  0.0021  0.3727
13872TIP3    H163031   2.984   5.552   5.474  0.4056  1.3033  1.5111
13872TIP3    H263032   2.911   5.677   5.429  0.7430  0.4643 -1.5717
13873TIP3   OH263033   0.127   3.631   0.556  0.1617 -0.3032  0.4417
13873TIP3    H163034   0.056   3.653   0.617  0.5111  0.3786  0.6109
13873TIP3    H263035   0.207   3.651   0.603  0.5096 -1.7980  0.5257
13874TIP3   OH263036   0.847   5.782  16.148  0.2996  0.3080 -0.4816
13874TIP3    H163037   0.845   5.703  16.202 -0.1846 -0.2542 -1.3003
13874TIP3    H263038   0.935   5.817  16.160  0.6678 -0.6020 -0.4551
13875TIP3   OH263039   3.880   5.835  17.266  0.1184 -0.0326 -0.3046
13875TIP3    H163040   3.850   5.923  17.286  1.8758  0.3504  0.9228
13875TIP3    H263041   3.906   5.838  17.174 -0.8026  0.4160 -0.5591
13876TIP3   OH263042   1.122   5.889  13.277 -0.2749  0.2966 -0.4733
13876TIP3    H163043   1.075   5.906  13.195 -0.0275  1.1959 -0.4437
13876TIP3    H263044   1.068   5.825  13.323 -0.1841 -0.5502 -1.5321
13877TIP3   OH263045   5.799   2.546   1.991  0.5476  0.3367  0.0025
13877TIP3    H163046   5.755   2.583   2.067  0.3895  1.9477 -0.8442
13877TIP3    H263047   5.858   2.479   2.028 -2.3487 -1.7714  1.2054
13878TIP3   OH263048   5.584   0.218  17.081  0.1284 -0.4167  0.5254
13878TIP3    H163049   5.594   0.296  17.137 -1.1606 -1.9795  3.0972
13878TIP3    H263050   5.492   0.217  17.057 -0.0957 -1.5960  1.3232
13879TIP3   OH263051   5.502   3.818  13.668  0.0371  0.0385  0.3604
13879TIP3    H163052   5.515   3.751  13.601  0.2325 -0.3005  0.7343
13879TIP3    H263053   5.478   3.769  13.746 -0.1133  0.4286  0.5622
13880TIP3   OH263054   0.274   3.312   4.457 -0.9950 -1.2487  0.1326
13880TIP3    H163055   0.285   3.400   4.494  1.1765 -1.6119  0.4830
13880TIP3    H263056   0.257   3.256   4.532 -1.4452 -1.2810  0.0102
13881TIP3   OH263057   6.002   5.593   3.728 -0.5143  0.4813  0.0839
13881TIP3    H163058   5.929   5.611   3.787 -1.0747 -1.5267  0.0863
13881TIP3    H263059   6.075   5.644   3.764 -1.7816  2.1897  0.3216
13882TIP3   OH263060   2.433   1.974   6.170 -0.2753  0.1933 -0.1449
13882TIP3    H163061   2.443   2.058   6.215  0.6526 -0.4040  0.7703
13882TIP3    H263062   2.510   1.967   6.114 -0.7441  0.2989 -0.8189
13883TIP3   OH263063   1.745   1.442  12.784  0.0671  0.7368 -0.5123
13883TIP3    H163064   1.658   1.408  12.806  0.1337 -0.7604 -2.2909
13883TIP3    H263065   1.780   1.475  12.866 -2.1093  1.2236  0.2746
13884TIP3   OH263066   5.469   2.814   4.354 -0.3310  0.1459 -0.0153
13884TIP3    H163067   5.454   2.907   4.341  0.6199  0.2083 -0.8067
13884TIP3    H263068   5.519   2.787   4.276  1.7827 -0.4502  1.4646
13885TIP3   OH263069   5.206   4.473  12.945  0.3639 -0.0284  0.5352
13885TIP3    H163070   5.202   4.478  13.040 -1.0549 -0.2567  0.5125
13885TIP3    H263071   5.196   4.563  12.915 -1.4752 -0.1758  0.5858
13886TIP3   OH263072   3.655   4.159  17.238 -0.0588  0.6358 -0.1897
13886TIP3    H163073   3.738   4.132  17.276 -0.7895 -1.1940  0.1936
13886TIP3    H263074   3.646   4.107  17.159 -1.4811 -0.2550  0.5261
13887TIP3   OH263075   3.787   5.761  14.558 -0.1066 -0.0943 -0.2892
13887TIP3    H163076   3.703   5.721  14.537 -0.1862 -1.3058  2.0276
13887TIP3    H263077   3.807   5.730  14.646  0.8690  3.3878  0.8412
13888TIP3   OH263078   0.754   0.230  11.756 -0.6271 -0.5603  0.4312
13888TIP3    H163079   0.799   0.272  11.683 -2.8530  1.9255  0.3341
13888TIP3    H263080   0.760   0.137  11.738  0.2710 -0.0795 -2.0713
13889TIP3   OH263081   4.260   6.020  11.099  0.1514 -0.5876  0.3008
13889TIP3    H163082   4.274   6.108  11.067  0.4280 -0.5573  0.5030
13889TIP3    H263083   4.267   5.964  11.022 -2.6881 -0.2093 -0.3455
13890TIP3   OH263084   1.022   5.080  14.613  0.0060  0.0256  0.3343
13890TIP3    H163085   1.075   5.021  14.668  0.2950  0.6999  0.7962
13890TIP3    H263086   1.050   5.168  14.639  0.0054  0.3619 -0.7666
13891TIP3   OH263087   5.843   1.936  12.030 -0.0001  0.0691  0.4544
13891TIP3    H163088   5.783   1.909  11.961  1.4933 -0.2099 -0.7876
13891TIP3    H263089   5.837   1.867  12.096  1.0609 -1.4851 -1.0010
13892TIP3   OH263090   1.842   6.007  16.396  0.1171  0.3014 -0.3850
13892TIP3    H163091   1.770   5.993  16.335 -0.1167 -2.5456  0.4211
13892TIP3    H263092   1.917   5.966  16.353  0.0263 -1.4303  1.0199
13893TIP3   OH263093   4.631   1.876  17.216  0.7628 -0.5363 -0.4875
13893TIP3    H163094   4.543   1.862  17.250  0.4501 -0.1940 -1.1314
13893TIP3    H263095   4.682   1.904  17.292  0.7377 -2.3352  0.2385
13894TIP3   OH263096   5.182   5.565  16.412  1.1185  0.6301  0.7374
13894TIP3    H163097   5.114   5.501  16.433 -0.2101  1.7014 -0.1338
13894TIP3    H263098   5.250   5.515  16.367  0.2529 -0.2091  0.3466
13895TIP3   OH263099   3.377   1.991   3.551  0.0994 -0.6804 -0.0329
13895TIP3    H163100   3.379   2.058   3.620 -1.9279 -0.3579 -0.2300
13895TIP3    H263101   3.349   1.911   3.595 -2.6166 -0.1538 -0.6299
13896TIP3   OH263102   4.141   0.215  12.708  0.2146 -0.1303 -0.0395
13896TIP3    H163103   4.179   0.298  12.679 -2.4773  1.6240  1.0209
13896TIP3    H263104   4.208   0.175  12.763  2.5474  0.0505 -2.5384
13897TIP3   OH263105   2.754   1.750  11.136 -0.1216 -0.0314 -0.0521
13897TIP3    H163106   2.769   1.815  11.067 -1.4669 -0.1215 -0.4615
13897TIP3    H263107   2.763   1.666  11.092 -0.0008 -0.1069  0.1137
13898TIP3   OH263108   5.847   6.396  13.562 -0.0521  0.2364  0.1976
13898TIP3    H163109   5.939   6.368  13.559 -0.0584  0.2897 -0.7939
13898TIP3    H263110   5.848   6.474  13.617 -0.0278 -1.6031  3.0032
13899TIP3   OH263111   2.611   0.588  16.660  0.8533 -0.6257 -0.4401
13899TIP3    H163112   2.610   0.500  16.621 -0.9887 -0.8450 -0.0234
13899TIP3    H263113   2.557   0.579  16.739 -0.4886  1.1723 -1.1048
13900TIP3   OH263114   3.259   3.057  12.272 -0.0572 -0.0568 -0.0260
13900TIP3    H163115   3.204   2.982  12.248  0.2506 -0.9537  1.8949
13900TIP3    H263116   3.196   3.127  12.288 -0.3357  0.2328 -2.0985
13901TIP3   OH263117   0.706   5.223   5.712 -0.1623  1.0634  0.3688
13901TIP3    H163118   0.713   5.238   5.807  0.1425 -0.3160  0.5784
13901TIP3    H263119   0.700   5.311   5.675 -2.6203  1.6323  1.8383
13902TIP3   OH263120   2.191   3.759   0.636  0.4376 -0.8868 -0.3872
13902TIP3    H163121   2.098   3.736   0.633  0.0519  0.6844 -1.9312
13902TIP3    H263122   2.230   3.714   0.561  0.6772 -0.6111 -0.4313
13903TIP3   OH263123   5.060   5.677  17.457 -0.4978  0.7573  0.2792
13903TIP3    H163124   5.081   5.669  17.364 -0.0298  1.8779  0.2715
13903TIP3    H263125   4.965   5.667  17.462 -0.8761  3.2041 -0.6713
13904TIP3   OH263126   4.926   3.598   2.995 -0.5684 -0.3338  0.8631
13904TIP3    H163127   4.889   3.675   2.951 -0.2385 -0.5263  0.2423
13904TIP3    H263128   5.008   3.629   3.034 -0.1564 -0.5026  0.1373
13905TIP3   OH263129   6.191   2.168   2.343 -0.0649  0.6161  0.1464
13905TIP3    H163130   6.275   2.126   2.364  0.3926  0.8346 -1.1799
13905TIP3    H263131   6.188   2.169   2.248 -1.1209  1.5362  0.1750
13906TIP3   OH263132   0.944   0.315   0.537 -0.3978  0.3166 -0.3335
13906TIP3    H163133   0.985   0.347   0.456 -2.5495  0.7090 -1.3216
13906TIP3    H263134   0.978   0.226   0.546  0.2917  0.4438 -1.3733
13907TIP3   OH263135   0.556   2.190  13.645  0.6785 -0.1378  0.0960
13907TIP3    H163136   0.627   2.202  13.709  1.2386 -0.6021 -0.4203
13907TIP3    H263137   0.493   2.135  13.690  0.8584 -0.0977  0.4053
13908TIP3   OH263138   5.475   1.849  15.069  0.5981 -0.1399 -0.1697
13908TIP3    H163139   5.420   1.771  15.078  0.9866 -0.3196  0.7340
13908TIP3    H263140   5.535   1.845  15.143  0.9234  0.7840 -0.3675
13909TIP3   OH263141   2.062   0.936  13.652 -0.4617  0.0578 -0.7575
13909TIP3    H163142   2.099   1.012  13.608  1.8727 -0.9836 -0.7598
13909TIP3    H263143   2.068   0.958  13.745  0.8481 -0.3279 -0.7231
13910TIP3   OH263144   1.413   3.748   3.762 -0.3151  0.0559  0.3703
13910TIP3    H163145   1.321   3.773   3.759 -0.8479 -1.6895  1.2664
13910TIP3    H263146   1.460   3.831   3.754 -1.9316  0.9056 -0.8505
13911TIP3   OH263147   2.886   1.349  13.439 -0.3855 -0.2713  0.2554
13911TIP3    H163148   2.895   1.384  13.350 -1.9178 -1.7591 -0.5259
13911TIP3    H263149   2.975   1.329  13.466 -0.0918 -2.9654 -2.2986
13912TIP3   OH263150   0.257   0.564  12.331 -0.0663  0.1049  0.5529
13912TIP3    H163151   0.241   0.527  12.418  0.4959  0.6863  0.9089
13912TIP3    H263152   0.334   0.518  12.299 -0.7531 -0.7032 -0.0023
13913TIP3   OH263153   3.740   2.830   3.514 -0.6977 -0.0970 -0.1785
13913TIP3    H163154   3.742   2.835   3.419  2.0807 -2.3735 -0.3962
13913TIP3    H263155   3.668   2.770   3.534 -2.9259  2.3170 -0.5805
13914TIP3   OH263156   5.020   1.476  14.785  0.0800 -0.7224 -0.0214
13914TIP3    H163157   5.079   1.487  14.860 -1.7688  1.0000  1.2921
13914TIP3    H263158   5.033   1.554  14.732 -0.1824 -0.8837 -0.3264
13915TIP3   OH263159   3.022   0.807  17.213  0.0233  0.1888  0.0715
13915TIP3    H163160   3.055   0.895  17.234 -3.8695  1.1608  3.3017
13915TIP3    H263161   3.062   0.750  17.278 -0.1107  0.2517  0.2104
13916TIP3   OH263162   5.232   6.470   1.568  0.0712  0.1722 -0.0295
13916TIP3    H163163   5.187   6.441   1.489 -0.8026 -0.1017  0.5522
13916TIP3    H263164   5.321   6.434   1.560  0.2788  0.8926 -1.2882
13917TIP3   OH263165   0.386   2.834   2.468  0.2780 -0.3145 -0.4697
13917TIP3    H163166   0.370   2.842   2.562  0.7075 -0.4241 -0.3847
13917TIP3    H263167   0.439   2.755   2.460  1.0982  0.2474 -0.7011
13918TIP3   OH263168   0.882   5.727  16.466  0.2262 -0.3889 -0.1565
13918TIP3    H163169   0.960   5.685  16.430 -0.2706  0.2476 -2.1196
13918TIP3    H263170   0.809   5.684  16.420 -0.5084 -0.1196  0.7331
13919TIP3   OH263171   1.570   4.615   0.217 -0.4942  0.3158 -0.2795
13919TIP3    H163172   1.584   4.617   0.312  0.0770 -0.5745 -0.3352
13919TIP3    H263173   1.632   4.678   0.182 -0.9420  0.8957 -0.0380
13920TIP3   OH263174   5.698   6.416  16.531 -0.2011 -0.0286 -0.1229
13920TIP3    H163175   5.675   6.405  16.623  0.4746 -0.9359 -0.0431
13920TIP3    H263176   5.768   6.481  16.531 -0.5789  0.3760 -0.0484
13921TIP3   OH263177   2.535   1.822  12.168 -0.3366  0.4303 -0.1326
13921TIP3    H163178   2.451   1.792  12.134 -0.4919  0.1800  0.4547
13921TIP3    H263179   2.557   1.898  12.115 -1.6507  1.4079  0.6672
13922TIP3   OH263180   0.245   5.023  14.936  0.2126  0.3372  0.0723
13922TIP3    H163181   0.206   4.979  14.861  2.9773  0.0705 -1.3066
13922TIP3    H263182   0.194   5.104  14.945 -1.2198 -0.4002 -1.0146
13923TIP3   OH263183   6.037   0.080   1.410 -0.5631  0.1755  0.2614
13923TIP3    H163184   6.009   0.016   1.476 -0.2093  0.3269  0.5651
13923TIP3    H263185   5.971   0.148   1.412 -0.6259  0.1115  0.3614
13924TIP3   OH263186   5.178   1.597  14.127  0.5967 -0.0525 -0.0188
13924TIP3    H163187   5.245   1.542  14.169 -0.3470 -1.3459 -0.1622
13924TIP3    H263188   5.175   1.566  14.037  1.0592  1.2280 -0.4881
13925TIP3   OH263189   1.141   2.341   4.410  0.2362 -0.4361 -0.0398
13925TIP3    H163190   1.144   2.246   4.411  0.8797 -0.4452 -1.0864
13925TIP3    H263191   1.119   2.364   4.319  3.0310  0.4368 -0.6094
13926TIP3   OH263192   3.657   6.503   1.149  0.4937 -0.2433  0.1748
13926TIP3    H163193   3.672   6.460   1.064  1.9301 -1.4052  0.9519
13926TIP3    H263194   3.703   6.586   1.142  1.2022 -0.6373  0.0296
13927TIP3   OH263195   5.675   3.875  15.755 -0.4920  0.9325  0.3409
13927TIP3    H163196   5.732   3.842  15.686  1.7600  1.9145  1.5959
13927TIP3    H263197   5.601   3.914  15.709  0.1854  0.2133 -1.4290
13928TIP3   OH263198   6.568   0.819  11.484 -0.2393 -1.3002 -0.3308
13928TIP3    H163199   6.596   0.735  11.447 -0.6938 -0.7771 -1.9640
13928TIP3    H263200   6.473   0.812  11.491 -0.4789 -0.4060 -2.0086
13929TIP3   OH263201   5.783   1.284  12.910 -0.4907  0.6889  0.3572
13929TIP3    H163202   5.844   1.214  12.889 -2.0500 -0.4983 -0.4117
13929TIP3    H263203   5.732   1.296  12.830 -0.4601  2.5383  0.5648
13930TIP3   OH263204   0.646   5.943   5.119  0.1424  0.1181  0.3494
13930TIP3    H163205   0.686   5.927   5.033  0.6368  0.0326  0.5892
13930TIP3    H263206   0.662   5.862   5.167 -0.3975  0.0564  0.4242
13931TIP3   OH263207   4.985   0.754   1.152 -0.1453 -0.0907 -0.0615
13931TIP3    H163208   4.984   0.725   1.061  3.3589  1.4618 -0.7811
13931TIP3    H263209   4.938   0.837   1.152  2.4591  1.5398 -1.3239
13932TIP3   OH263210   3.811   6.309   1.460 -0.1626  0.1485  0.1226
13932TIP3    H163211   3.792   6.287   1.369 -0.8065  0.8125  0.0929
13932TIP3    H263212   3.835   6.225   1.500  2.2411  0.1401 -1.1477
13933TIP3   OH263213   1.427   5.853  15.032  0.0816  0.2384  0.1925
13933TIP3    H163214   1.351   5.884  14.983  0.7252 -2.6511 -2.9279
13933TIP3    H263215   1.400   5.769  15.069  0.3973  1.2656  2.9996
13934TIP3   OH263216   5.540   5.962   5.508 -0.3369 -0.0785  0.6975
13934TIP3    H163217   5.500   5.879   5.483  0.8573 -0.8819  1.3741
13934TIP3    H263218   5.618   5.937   5.557  0.9284  1.4443 -0.4515
13935TIP3   OH263219   4.751   4.249  17.055  0.0531  0.2882 -0.3290
13935TIP3    H163220   4.788   4.162  17.069 -2.1151 -0.8019 -1.0148
13935TIP3    H263221   4.778   4.273  16.966  1.9919  1.0758  0.4165
13936TIP3   OH263222   0.691   1.519  12.028 -0.5084  0.3028  0.0078
13936TIP3    H163223   0.720   1.510  12.119 -0.4825 -0.5374 -0.0802
13936TIP3    H263224   0.741   1.453  11.980 -1.0558  0.2447 -0.4937
13937TIP3   OH263225   2.556   1.510   6.304 -0.0013  0.3912  0.4683
13937TIP3    H163226   2.618   1.496   6.376  0.2565  1.3845  0.4539
13937TIP3    H263227   2.612   1.530   6.228 -0.1693 -2.1479 -0.4417
13938TIP3   OH263228   1.055   2.515   0.258  0.1726  0.4409  0.2191
13938TIP3    H163229   1.129   2.522   0.197  0.7681 -0.5795  0.7885
13938TIP3    H263230   1.006   2.439   0.226  0.0201  0.4114  0.5240
13939TIP3   OH263231   1.711   6.476  13.693 -0.2891 -0.3344 -0.7961
13939TIP3    H163232   1.697   6.568  13.672 -0.6662  0.0366  0.9306
13939TIP3    H263233   1.709   6.473  13.788 -0.4856 -2.1654 -0.8275
13940TIP3   OH263234   2.659   2.762  13.495  0.7717 -0.2155 -0.1133
13940TIP3    H163235   2.581   2.717  13.461  0.6563 -0.5496  0.5680
13940TIP3    H263236   2.722   2.758  13.424  0.8160 -1.6076 -0.0247
13941TIP3   OH263237   1.029   5.191   4.593  0.1062 -0.1545  0.4069
13941TIP3    H163238   1.099   5.249   4.623 -0.1589  1.2878 -1.5410
13941TIP3    H263239   1.055   5.167   4.503 -2.4238  1.4585 -0.8636
13942TIP3   OH263240   0.484   0.660  13.706  0.0435 -0.1487  0.3667
13942TIP3    H163241   0.468   0.577  13.751 -2.2146 -0.5881 -1.1195
13942TIP3    H263242   0.502   0.635  13.616  1.0568  0.9159  0.2502
13943TIP3   OH263243   6.016   6.100  16.129 -0.2119  0.0819  0.3644
13943TIP3    H163244   5.970   6.066  16.206 -0.2233  1.3764  0.9605
13943TIP3    H263245   5.991   6.192  16.126  0.2522  0.1771 -0.8630
13944TIP3   OH263246   6.143   6.725   0.749  0.2968  0.2500 -0.2298
13944TIP3    H163247   6.199   6.674   0.808  1.3130  0.9939 -0.5283
13944TIP3    H263248   6.091   6.781   0.808  0.0073 -0.2855  0.0353
13945TIP3   OH263249   0.064   3.286  13.317 -0.8300 -0.4902 -0.2827
13945TIP3    H163250   0.046   3.251  13.404 -0.7700 -0.2367 -0.1678
13945TIP3    H263251  -0.001   3.244  13.260 -1.4732  0.0535  0.0436
13946TIP3   OH263252   0.237   5.749  15.858 -0.3500 -0.4146  0.0090
13946TIP3    H163253   0.281   5.669  15.828  1.6080  0.8655 -0.6918
13946TIP3    H263254   0.300   5.819  15.842 -1.4053  1.1057  2.0193
13947TIP3   OH263255   5.136   1.234   2.711 -0.7649  0.6095 -0.3248
13947TIP3    H163256   5.124   1.327   2.732 -3.1094  0.0186  1.2418
13947TIP3    H263257   5.058   1.211   2.660 -0.3026 -0.5456 -0.5351
13948TIP3   OH263258   0.656   4.871   3.140  0.2861  0.1722  0.0985
13948TIP3    H163259   0.732   4.844   3.088  1.2346  1.3058  0.8461
13948TIP3    H263260   0.645   4.801   3.204  0.7115  0.0194  0.0095
13949TIP3   OH263261   5.467   1.070   1.184  0.8769 -0.1572 -0.1810
13949TIP3    H163262   5.433   1.155   1.212  0.9204 -0.7424  1.7603
13949TIP3    H263263   5.418   1.051   1.103 -0.1673  1.0577  0.1287
13950TIP3   OH263264   3.628   4.577   2.212  0.3542  0.4015  0.0787
13950TIP3    H163265   3.705   4.545   2.164  0.0118  0.8927 -0.8221
13950TIP3    H263266   3.574   4.498   2.224 -0.2832  0.5103 -1.7526
13951TIP3   OH263267   5.969   4.650  15.077 -0.5618 -0.5020 -0.4424
13951TIP3    H163268   5.990   4.582  15.141 -3.2506 -0.7087  0.3792
13951TIP3    H263269   5.905   4.609  15.019 -2.3629  1.2888  0.1626
13952TIP3   OH263270   2.480   2.683  14.371 -0.0609 -0.0542 -0.2994
13952TIP3    H163271   2.482   2.746  14.299  1.6311  1.0258  0.6122
13952TIP3    H263272   2.540   2.614  14.344 -0.1709 -0.1420 -0.3225
13953TIP3   OH263273   1.961   6.004  12.427  0.2609 -0.2702 -0.1598
13953TIP3    H163274   2.039   5.986  12.374 -0.1183  0.7482 -1.1149
13953TIP3    H263275   1.942   6.097  12.411 -1.1512 -0.5001  0.0214
13954TIP3   OH263276   2.452   1.711  15.553  0.4106  0.5669 -0.5403
13954TIP3    H163277   2.454   1.802  15.522  1.0429  0.5999 -0.3988
13954TIP3    H263278   2.373   1.707  15.608  0.5323  1.1069 -0.3178
13955TIP3   OH263279   3.869   4.366   4.677 -0.4800  0.6085  0.1056
13955TIP3    H163280   3.884   4.388   4.585 -2.0719 -2.3110 -0.9731
13955TIP3    H263281   3.780   4.397   4.695 -0.1779  1.1609  0.6807
13956TIP3   OH263282   4.651   2.972   1.971 -0.0331  0.4323  0.5609
13956TIP3    H163283   4.603   2.896   1.939  0.1100  0.3368  0.5741
13956TIP3    H263284   4.657   3.030   1.895  1.9596 -0.6056 -0.1473
13957TIP3   OH263285   1.123   3.488  16.987 -0.2283 -0.2066  0.1823
13957TIP3    H163286   1.041   3.533  16.967  0.3847  0.3336 -1.2881
13957TIP3    H263287   1.178   3.554  17.028  0.5782  0.4046 -1.7429
13958TIP3   OH263288   5.986   3.128  14.707  0.5071  0.2870  0.2784
13958TIP3    H163289   6.020   3.099  14.791  0.1483 -1.0288 -0.0004
13958TIP3    H263290   5.897   3.092  14.704 -0.6269  2.8126  0.5859
13959TIP3   OH263291   2.982   5.115  12.717  0.4331 -0.1640 -0.3753
13959TIP3    H163292   2.937   5.108  12.632 -0.5896  0.3201  0.1174
13959TIP3    H263293   3.070   5.083  12.699 -0.2821 -1.7913 -1.2127
13960TIP3   OH263294   2.047   2.551  15.773 -0.3463 -0.3516 -0.8348
13960TIP3    H163295   1.991   2.611  15.723  0.1089 -0.3751 -1.3876
13960TIP3    H263296   2.129   2.600  15.785 -0.5085 -0.2861  0.0356
13961TIP3   OH263297   1.178   1.348   2.414 -0.3851 -0.7149 -0.1754
13961TIP3    H163298   1.107   1.286   2.431  0.8095 -2.6788 -1.8852
13961TIP3    H263299   1.155   1.390   2.331 -1.5539  1.8204  1.3181
13962TIP3   OH263300   4.337   4.517  15.226 -0.4610 -0.2326 -0.7485
13962TIP3    H163301   4.283   4.593  15.204 -0.4742 -0.3064 -0.9736
13962TIP3    H263302   4.405   4.552  15.284 -2.0906 -0.5268  1.4875
13963TIP3   OH263303   4.918   4.062  11.239  0.2923  0.1692  0.1513
13963TIP3    H163304   4.971   4.030  11.166 -0.0366  3.5267 -1.8145
13963TIP3    H263305   4.831   4.073  11.202 -0.4027  0.0720  1.6852
13964TIP3   OH263306   1.714   5.190   4.717 -0.2035 -0.0243  0.1617
13964TIP3    H163307   1.734   5.281   4.740  0.2076  0.5204 -2.0578
13964TIP3    H263308   1.674   5.153   4.796  0.6380  1.7468  1.4855
13965TIP3   OH263309   2.364   5.387  16.301 -0.4586 -0.3352  0.8924
13965TIP3    H163310   2.419   5.349  16.233 -1.1454 -0.5809  0.4550
13965TIP3    H263311   2.390   5.343  16.381  0.6586  0.2594  0.8754
13966TIP3   OH263312   4.306   4.020   2.916  0.5241  0.0116  0.2131
13966TIP3    H163313   4.210   4.018   2.919  0.4841  0.5276 -0.5122
13966TIP3    H263314   4.329   4.106   2.951  0.5346  1.3893 -2.8518
13967TIP3   OH263315   2.852   0.857   0.029 -0.2107  0.6411  0.0366
13967TIP3    H163316   2.896   0.797   0.088 -0.5704  0.8947  0.5673
13967TIP3    H263317   2.786   0.804  -0.016  0.1628  0.4162 -0.2549
13968TIP3   OH263318   3.601   4.457   1.031  0.0134 -0.1661 -0.1212
13968TIP3    H163319   3.505   4.459   1.042  0.1565 -0.5256  1.4982
13968TIP3    H263320   3.615   4.400   0.956 -0.9940 -2.0060  0.9914
13969TIP3   OH263321   4.767   1.136  12.621  0.0986  0.1769  0.1624
13969TIP3    H163322   4.858   1.148  12.648  0.2046 -0.1908 -0.0380
13969TIP3    H263323   4.756   1.197  12.547  0.3048 -0.0961 -0.0942
13970TIP3   OH263324   5.890   5.252  14.855  0.2984  0.2292  0.1858
13970TIP3    H163325   5.864   5.171  14.813  2.2049 -1.3674  1.8558
13970TIP3    H263326   5.985   5.257  14.840  0.2475  2.1141  0.2185
13971TIP3   OH263327   3.105   0.065   3.375  0.3093  0.0053  0.3964
13971TIP3    H163328   3.137  -0.002   3.435 -1.1964 -0.3534  0.8281
13971TIP3    H263329   3.101   0.145   3.428 -1.4080 -0.3995  0.9322
13972TIP3   OH263330   6.590   3.480   2.260 -0.2063 -0.1403 -0.2418
13972TIP3    H163331   6.654   3.413   2.236  0.1797  0.9393 -2.5471
13972TIP3    H263332   6.535   3.489   2.182 -1.0574  1.2972  0.4865
13973TIP3   OH263333   3.915   1.216   5.337 -0.0225  0.7090 -0.2439
13973TIP3    H163334   3.951   1.248   5.419  0.0007  2.2490 -0.8272
13973TIP3    H263335   3.992   1.182   5.290 -0.1510 -0.9708  0.6685
13974TIP3   OH263336   2.896   1.168   2.899 -0.4760  0.8727  0.2968
13974TIP3    H163337   2.959   1.238   2.917 -0.4884  1.6040 -2.1325
13974TIP3    H263338   2.927   1.128   2.817 -0.0457 -2.5245  1.9662
13975TIP3   OH263339   3.018   3.335  13.643 -0.2614  0.1972  0.5749
13975TIP3    H163340   2.984   3.416  13.680 -0.8666  0.1177  0.2030
13975TIP3    H263341   3.103   3.323  13.686 -0.5017  0.6286  1.1878
13976TIP3   OH263342   5.337   4.941   1.608 -0.5107 -0.4680  0.2447
13976TIP3    H163343   5.261   4.915   1.556 -1.1750 -0.8904  1.3918
13976TIP3    H263344   5.369   4.860   1.648 -0.9967  0.0335  1.7498
13977TIP3   OH263345   6.339   4.752  17.291 -0.0816 -0.1308  0.1782
13977TIP3    H163346   6.315   4.676  17.345  0.8380  0.0420  0.8644
13977TIP3    H263347   6.433   4.741  17.276  0.0709  0.8993  0.3285
13978TIP3   OH263348   3.499   6.366  15.301  0.0878  0.0040  0.2225
13978TIP3    H163349   3.534   6.283  15.334  2.3953  0.6221 -0.4732
13978TIP3    H263350   3.551   6.433  15.345 -0.8623  1.0568 -0.1975
13979TIP3   OH263351   5.394   3.082  16.729 -0.6371  0.5061 -0.5471
13979TIP3    H163352   5.454   3.086  16.654  0.1492 -1.5425 -0.0781
13979TIP3    H263353   5.308   3.097  16.691  0.0008  2.4516 -1.3891
13980TIP3   OH263354   2.033   3.498  14.175  0.1385  0.0502  0.0630
13980TIP3    H163355   1.949   3.475  14.136 -0.9400  2.4630  0.7525
13980TIP3    H263356   2.061   3.576  14.127  1.2392  0.1671  0.8384
13981TIP3   OH263357   2.860   2.437  14.124 -0.4847 -0.5966 -0.3897
13981TIP3    H163358   2.951   2.407  14.116 -0.5337 -1.2584  1.0890
13981TIP3    H263359   2.859   2.524  14.084  0.7066 -0.7380 -0.7668
13982TIP3   OH263360   0.601   0.896  13.422 -0.0678  0.3766 -0.5127
13982TIP3    H163361   0.697   0.898  13.419 -0.0046 -1.7105 -1.5434
13982TIP3    H263362   0.580   0.915  13.513  1.4187 -0.8690  0.1321
13983TIP3   OH263363   4.454   6.195   0.299  0.1611 -0.1415  0.3979
13983TIP3    H163364   4.386   6.182   0.365  0.4049  4.1362  1.7229
13983TIP3    H263365   4.511   6.118   0.308 -1.4594 -1.1640  3.0376
13984TIP3   OH263366   5.928   1.101   2.156 -0.2426  0.2403 -0.3183
13984TIP3    H163367   5.898   1.032   2.097  0.0087 -0.0434 -0.1190
13984TIP3    H263368   6.010   1.067   2.192 -1.3441 -0.4625  1.6902
13985TIP3   OH263369   2.282   0.679  13.559  0.9505 -0.5045  0.3186
13985TIP3    H163370   2.255   0.752  13.615 -1.7353 -0.9559 -0.2589
13985TIP3    H263371   2.364   0.709  13.519  0.4748  1.7628  0.8772
13986TIP3   OH263372   1.005   4.618  17.461 -0.4956  0.4241  0.2522
13986TIP3    H163373   0.983   4.702  17.420 -1.5956  0.7917  1.5423
13986TIP3    H263374   1.040   4.565  17.389  2.3707  2.6855 -0.2016
13987TIP3   OH263375   2.757   5.808  14.865 -0.0898  0.7277 -0.4750
13987TIP3    H163376   2.834   5.752  14.856  0.1719  0.3439  2.7979
13987TIP3    H263377   2.692   5.769  14.807  0.3974 -2.4682  0.9073
13988TIP3   OH263378   4.428   4.667  15.476 -0.9317 -0.4190 -0.0900
13988TIP3    H163379   4.436   4.655  15.570 -2.1164 -0.0697  0.0639
13988TIP3    H263380   4.514   4.641  15.441 -0.1555  0.4005  1.1619
13989TIP3   OH263381   3.374   0.710  14.150  0.1860 -0.3657  0.3696
13989TIP3    H163382   3.452   0.747  14.108 -1.1314  0.6318 -1.2937
13989TIP3    H263383   3.327   0.785  14.185 -1.2368 -0.6798 -0.7891
13990TIP3   OH263384   2.777   4.290  12.313 -0.6844  0.0797 -0.1985
13990TIP3    H163385   2.847   4.297  12.378 -0.0323 -3.3510 -0.3598
13990TIP3    H263386   2.780   4.374  12.266  3.6436 -0.0207 -0.4895
13991TIP3   OH263387   0.926   3.689   1.518 -0.4327 -0.0746  0.4210
13991TIP3    H163388   0.912   3.766   1.463  2.7103 -0.0085 -0.4607
13991TIP3    H263389   0.925   3.723   1.607  1.0471  1.0563  0.0412
13992TIP3   OH263390   2.173   3.594   4.935 -0.2602  0.2336 -0.7697
13992TIP3    H163391   2.203   3.650   4.863  0.5013  2.0634  0.8809
13992TIP3    H263392   2.249   3.587   4.993 -0.7456 -1.5074 -0.3010
13993TIP3   OH263393   5.322   1.261  10.886 -0.7318  0.1907  0.0487
13993TIP3    H163394   5.328   1.292  10.796  1.0134 -1.1358 -0.3470
13993TIP3    H263395   5.410   1.274  10.922 -1.5198  1.1641  1.7499
13994TIP3   OH263396   0.418   4.152   2.797  0.4833  0.4935 -0.2063
13994TIP3    H163397   0.338   4.175   2.844 -1.3445 -3.2402 -1.0840
13994TIP3    H263398   0.480   4.129   2.867 -0.6530 -0.5215  0.5224
13995TIP3   OH263399   2.327   0.330  15.284  0.0137  0.0414  0.0692
13995TIP3    H163400   2.245   0.295  15.249  1.0264 -2.7234  0.2033
13995TIP3    H263401   2.301   0.409  15.331 -2.4108 -0.1823 -0.7271
13996TIP3   OH263402   0.776   0.778   2.407 -0.1433 -0.6621 -0.0763
13996TIP3    H163403   0.767   0.807   2.316 -2.4700 -1.0561 -0.0304
13996TIP3    H263404   0.725   0.697   2.411 -1.7901  0.3896  2.0041
13997TIP3   OH263405   1.533   3.125   0.223  0.2513  0.0753 -0.6029
13997TIP3    H163406   1.594   3.165   0.285  0.5228  1.8837 -1.9324
13997TIP3    H263407   1.529   3.187   0.150 -2.9249 -0.0968 -0.7487
13998TIP3   OH263408   1.299   1.136   3.304  0.0769 -0.1616  0.4870
13998TIP3    H163409   1.365   1.180   3.358 -1.7711  0.8652  2.0369
13998TIP3    H263410   1.342   1.122   3.219  2.3822  0.0799  1.5438
13999TIP3   OH263411   5.609   2.116  10.670  0.0116 -0.8152 -0.4553
13999TIP3    H163412   5.532   2.107  10.727  0.8834  0.1709  0.9295
13999TIP3    H263413   5.669   2.048  10.701  2.0373  1.9863  2.5124
14000TIP3   OH263414   1.380   2.998  16.512 -0.5279  0.0600 -0.1825
14000TIP3    H163415   1.422   3.026  16.594 -1.2947  1.1831 -0.1584
14000TIP3    H263416   1.368   3.079  16.462 -1.0488 -0.4801 -0.9528
14001TIP3   OH263417   0.627   3.266   1.507  0.2039  0.2358  0.4328
14001TIP3    H163418   0.575   3.278   1.586  0.3646 -1.9687  0.9368
14001TIP3    H263419   0.709   3.313   1.524  0.2696 -0.2981  1.6019
14002TIP3   OH263420   6.249   4.107   5.087  0.7971 -0.3698 -0.3371
14002TIP3    H163421   6.288   4.084   5.171  1.1097  0.3287 -0.2823
14002TIP3    H263422   6.278   4.197   5.070 -0.0960 -0.1297 -0.6968
14003TIP3   OH263423   2.774   2.445   2.322 -0.3805 -0.4874 -0.3094
14003TIP3    H163424   2.823   2.476   2.246 -2.2245 -0.9894 -1.7891
14003TIP3    H263425   2.746   2.525   2.367  3.1719 -0.1600  1.6402
14004TIP3   OH263426   2.128   3.209   5.555 -1.1378  0.7659 -0.2987
14004TIP3    H163427   2.124   3.118   5.527 -0.1862  1.2808 -2.3591
14004TIP3    H263428   2.045   3.247   5.526 -1.1950  0.7448 -0.1647
14005TIP3   OH263429   4.869   1.451  11.893 -0.5112  0.4609 -0.6264
14005TIP3    H163430   4.862   1.509  11.968  0.0000  1.1716 -1.1121
14005TIP3    H263431   4.780   1.420  11.877 -0.3337 -1.4900  1.6293
14006TIP3   OH263432   0.097   1.731   6.488  0.2095  0.1343 -0.1551
14006TIP3    H163433   0.180   1.719   6.534 -0.8842 -3.3407  1.2302
14006TIP3    H263434   0.109   1.812   6.438  3.0715  1.7813  2.7930
14007TIP3   OH263435   3.217   3.596  14.900  0.2915 -0.0450  0.1809
14007TIP3    H163436   3.159   3.580  14.974 -0.5767  0.4871 -0.3571
14007TIP3    H263437   3.185   3.678  14.862  1.4290  0.2868 -0.1162
14008TIP3   OH263438   0.723   5.683   5.176  0.2854  0.0154  0.0127
14008TIP3    H163439   0.661   5.618   5.144  0.0436 -0.5210  1.5032
14008TIP3    H263440   0.809   5.648   5.153  0.1686 -0.9965  1.0939
14009TIP3   OH263441   3.525   4.280   5.790  0.1339 -0.0190  0.7241
14009TIP3    H163442   3.615   4.284   5.822 -0.4541 -0.7802  2.5924
14009TIP3    H263443   3.483   4.211   5.842 -0.6659 -2.1160 -2.4453
14010TIP3   OH263444   3.971   3.086  14.564  0.2913  0.7551  0.0458
14010TIP3    H163445   4.003   3.030  14.635  0.9521 -0.7693 -1.3795
14010TIP3    H263446   3.881   3.057  14.549 -0.1526  1.6869  0.8184
14011TIP3   OH263447   5.443   2.916  13.591  0.1384 -0.0319  0.1057
14011TIP3    H163448   5.449   2.914  13.686 -0.0555  1.0039  0.1538
14011TIP3    H263449   5.355   2.884  13.572 -0.1768  0.6837  0.3344
14012TIP3   OH263450   1.103   4.092  13.387  0.2199  0.2745 -0.8056
14012TIP3    H163451   1.018   4.115  13.349  0.6734  1.1066 -1.3483
14012TIP3    H263452   1.102   4.134  13.473 -0.3555 -0.6628 -0.3378
14013TIP3   OH263453   3.021   3.991  12.235 -0.0964 -0.1710 -0.1090
14013TIP3    H163454   2.941   3.957  12.274  0.7009 -0.6825  1.1343
14013TIP3    H263455   2.991   4.061  12.177 -1.3588  0.4246  1.1884
14014TIP3   OH263456   4.731   5.384  10.679  0.2629 -0.1609  0.0566
14014TIP3    H163457   4.811   5.342  10.646 -1.2774 -2.3699 -1.1834
14014TIP3    H263458   4.750   5.477  10.677  3.1511 -0.6342  0.8416
14015TIP3   OH263459   3.032   2.461  16.226  0.6977 -0.4108 -0.3002
14015TIP3    H163460   3.097   2.444  16.294  0.0469  0.1097  0.4883
14015TIP3    H263461   3.019   2.556  16.229 -0.4054 -0.5525 -0.1276
14016TIP3   OH263462   1.166   0.182   5.765 -0.3210 -0.3925  1.0286
14016TIP3    H163463   1.235   0.247   5.781  0.1661 -0.9620  1.2626
14016TIP3    H263464   1.174   0.120   5.838 -1.8666  0.1940  1.7386
14017TIP3   OH263465   3.051   2.256  14.746  0.1889 -0.0549  0.1081
14017TIP3    H163466   3.084   2.166  14.745 -2.2296 -1.2227  3.8854
14017TIP3    H263467   2.958   2.247  14.725 -0.2516  1.4396  1.2589
14018TIP3   OH263468   2.670   1.357  11.093  0.3062  0.3864  0.1347
14018TIP3    H163469   2.765   1.360  11.081  0.2906 -0.5370 -0.3394
14018TIP3    H263470   2.651   1.265  11.110 -0.7601  0.0662 -2.3240
14019TIP3   OH263471   4.903   3.621  12.826 -0.0696 -0.2720 -0.0379
14019TIP3    H163472   4.983   3.661  12.862  0.4614 -0.8960 -0.4825
14019TIP3    H263473   4.923   3.606  12.734 -0.5788 -0.7322 -0.0813
14020TIP3   OH263474   6.309   2.348   4.544  0.3772 -0.0734 -0.1839
14020TIP3    H163475   6.313   2.284   4.616 -4.4552  1.3381  1.7242
14020TIP3    H263476   6.222   2.336   4.507  1.3013  1.9243 -3.3363
14021TIP3   OH263477   5.419   0.121  16.179  0.1020  0.3328  0.0862
14021TIP3    H163478   5.496   0.152  16.131  1.7418 -3.1759  0.1644
14021TIP3    H263479   5.354   0.106  16.110  1.2516 -1.3494 -0.7080
14022TIP3   OH263480   6.588   4.807  14.315  0.1719  0.3317  0.1289
14022TIP3    H163481   6.615   4.864  14.243  1.8115  0.9160  1.1333
14022TIP3    H263482   6.579   4.720  14.275  0.5364  0.7440 -0.8861
14023TIP3   OH263483   6.104   0.426   3.570 -0.3515  0.2548 -0.5896
14023TIP3    H163484   6.075   0.409   3.480  0.2833  1.5369 -1.0558
14023TIP3    H263485   6.027   0.463   3.613 -0.6836 -0.4387 -0.5690
14024TIP3   OH263486   2.789   0.904   4.672  0.4161 -0.7504  0.3752
14024TIP3    H163487   2.731   0.976   4.694 -0.6723 -1.5006  0.0227
14024TIP3    H263488   2.825   0.927   4.586  0.2552 -0.5264  0.3682
14025TIP3   OH263489   4.330   1.724  13.107  0.3354  0.7422 -0.3113
14025TIP3    H163490   4.413   1.684  13.081  0.2517 -0.5902  1.3083
14025TIP3    H263491   4.353   1.812  13.136  0.7698  1.3470 -2.3104
14026TIP3   OH263492   3.478   0.840  12.887  0.2656  0.4368  0.4195
14026TIP3    H163493   3.570   0.815  12.902  0.3833  1.4022  1.4547
14026TIP3    H263494   3.460   0.905  12.955 -1.1897  0.2726  0.2184
14027TIP3   OH263495   1.195   5.282   5.664 -0.4256 -0.3624 -0.5118
14027TIP3    H163496   1.193   5.232   5.583 -0.2750 -1.9670  0.4333
14027TIP3    H263497   1.281   5.325   5.663 -0.1175 -0.9676 -0.8731
14028TIP3   OH263498   5.880   6.430  12.935 -0.2281 -0.0971 -0.4682
14028TIP3    H163499   5.795   6.440  12.892 -0.9129 -1.1980  0.5798
14028TIP3    H263500   5.894   6.514  12.979 -1.3856 -0.3371  0.3974
14029TIP3   OH263501   1.670   5.045   4.982 -0.0433  0.6921 -0.1640
14029TIP3    H163502   1.721   5.029   5.062 -0.9140  2.0364  0.6969
14029TIP3    H263503   1.588   5.084   5.013 -0.6415  0.7019 -1.6792
14030TIP3   OH263504   3.484   2.797   0.629  0.2954 -0.4453 -1.1489
14030TIP3    H163505   3.393   2.770   0.614 -0.2522  0.3790  0.4105
14030TIP3    H263506   3.535   2.716   0.620 -1.0326 -1.6738  1.2990
14031TIP3   OH263507   3.074   1.448   4.028 -0.8127 -0.1314  0.5528
14031TIP3    H163508   3.130   1.455   3.951 -0.6338 -0.4773  0.6467
14031TIP3    H263509   3.135   1.440   4.101 -0.9810 -0.4553  0.6618
14032TIP3   OH263510   5.979   3.126   2.884  0.2812  0.0983 -0.3951
14032TIP3    H163511   5.945   3.046   2.844 -0.4177  1.2141 -2.1487
14032TIP3    H263512   5.964   3.194   2.818  0.1642  1.8242  1.3313
14033TIP3   OH263513   1.681   6.627   3.998 -0.4623 -0.0299  0.4359
14033TIP3    H163514   1.643   6.595   4.080 -0.8509  0.3726  0.4121
14033TIP3    H263515   1.616   6.604   3.932  0.0750 -0.8097  0.1600
14034TIP3   OH263516   0.935   4.031   2.156 -0.3356 -0.1342  0.2644
14034TIP3    H163517   0.883   4.039   2.076 -1.5542 -0.0999  1.0360
14034TIP3    H263518   1.020   3.999   2.126 -1.2026 -1.4444 -0.9178
14035TIP3   OH263519   6.417   1.088   4.154  0.0642  0.0213 -0.2342
14035TIP3    H163520   6.373   1.134   4.082  1.6479 -0.1475 -1.3810
14035TIP3    H263521   6.509   1.085   4.127  0.7481  0.0823  1.9027
14036TIP3   OH263522   4.133   2.440  17.098  0.1885  0.1375 -0.5438
14036TIP3    H163523   4.210   2.440  17.155  0.0721  1.2886 -0.3706
14036TIP3    H263524   4.118   2.532  17.078  0.2143 -0.2279 -2.4425
14037TIP3   OH263525   2.374   0.871  13.346 -0.1135  0.1715  0.0840
14037TIP3    H163526   2.284   0.892  13.324  0.5041  1.8455 -0.9728
14037TIP3    H263527   2.408   0.825  13.269  0.3499  0.8315 -0.1092
14038TIP3   OH263528   1.954   5.973   6.095 -0.2867 -0.7671  0.0132
14038TIP3    H163529   1.927   5.941   6.180 -0.9760 -1.7770 -0.5691
14038TIP3    H263530   1.914   5.913   6.032  0.7338 -0.4368 -1.0004
14039TIP3   OH263531   1.521   5.793  15.853  0.1495  0.2981  0.4507
14039TIP3    H163532   1.526   5.723  15.918  0.2986 -0.3331 -0.2295
14039TIP3    H263533   1.612   5.814  15.833  0.1039  0.4579  0.4089
14040TIP3   OH263534   4.903   1.169  11.644  0.1569 -0.1354 -0.1602
14040TIP3    H163535   4.935   1.151  11.556 -0.7192 -0.8138 -0.3554
14040TIP3    H263536   4.943   1.252  11.668  0.6134 -0.0765 -1.0890
14041TIP3   OH263537   2.156   2.191  17.275  0.0332 -0.2405 -0.2193
14041TIP3    H163538   2.208   2.267  17.301 -1.5987  0.2389  1.8706
14041TIP3    H263539   2.068   2.226  17.261 -0.5266 -1.5876 -0.2396
14042TIP3   OH263540   3.273   0.331  10.620  0.7931 -0.2549  0.3717
14042TIP3    H163541   3.231   0.294  10.698 -0.3763 -0.3477 -0.2707
14042TIP3    H263542   3.288   0.255  10.563  0.5779 -0.0515  0.0393
14043TIP3   OH263543   2.846   6.666  11.536 -0.2655 -0.3502  0.4170
14043TIP3    H163544   2.872   6.741  11.483 -0.4912 -0.0575  0.7183
14043TIP3    H263545   2.898   6.673  11.616 -1.1324  0.1473  0.9523
14044TIP3   OH263546   6.640   6.186   1.887  0.7118  0.2178  0.4802
14044TIP3    H163547   6.545   6.188   1.879  0.7005  1.0599  0.7053
14044TIP3    H263548   6.656   6.139   1.969  0.4782  0.3606  0.6093
14045TIP3   OH263549   6.398   6.390  14.927 -0.0592  0.1727  0.3100
14045TIP3    H163550   6.462   6.421  14.991  1.4112 -0.8360 -0.6153
14045TIP3    H263551   6.355   6.316  14.970 -0.2403  0.5233  0.7374
14046TIP3   OH263552   5.397   1.013   0.206  0.3801 -0.1943 -0.4375
14046TIP3    H163553   5.305   0.991   0.220  0.6986 -0.2908  1.8611
14046TIP3    H263554   5.400   1.048   0.117 -1.1035 -4.1916 -2.3276
14047TIP3   OH263555   0.984   5.345   2.273 -0.1049  0.0853  0.2854
14047TIP3    H163556   0.981   5.419   2.213  1.9070  0.2379  0.3010
14047TIP3    H263557   1.044   5.283   2.231 -1.3083 -1.3081  0.5397
14048TIP3   OH263558   0.433   0.525   0.065 -0.3771 -0.4059  0.1918
14048TIP3    H163559   0.427   0.482  -0.020 -0.0864  0.0006 -0.0322
14048TIP3    H263560   0.477   0.608   0.048 -1.5316  0.3007  0.5094
14049TIP3   OH263561   5.581   3.081  16.949  0.1086 -0.5064 -0.1537
14049TIP3    H163562   5.537   3.102  17.031  0.0428 -0.6864 -0.1425
14049TIP3    H263563   5.511   3.082  16.883  0.2169 -0.0116 -0.2716
14050TIP3   OH263564   5.912   5.269  16.280  0.0802  0.5170  0.5042
14050TIP3    H163565   5.817   5.271  16.276 -0.0328 -1.5220  1.3412
14050TIP3    H263566   5.934   5.317  16.360 -0.0534  2.9165 -0.7965
14051TIP3   OH263567   4.461   1.406   2.653 -0.1367 -0.5014 -0.0974
14051TIP3    H163568   4.371   1.381   2.634 -0.5688  0.1740  0.9881
14051TIP3    H263569   4.513   1.331   2.624 -0.8184 -0.0408 -2.7513
14052TIP3   OH263570   1.420   5.198  14.422 -0.1856 -0.0866  0.2998
14052TIP3    H163571   1.385   5.109  14.422 -1.1984  0.2628 -1.2286
14052TIP3    H263572   1.366   5.244  14.358  1.1180  1.3019  0.1481
14053TIP3   OH263573   2.758   0.552  11.507 -0.4054 -0.3008  0.3867
14053TIP3    H163574   2.703   0.501  11.567  0.3948 -0.7665  0.7335
14053TIP3    H263575   2.708   0.554  11.425 -1.2250 -0.1840  0.8741
14054TIP3   OH263576   4.634   2.951  16.775  0.0193 -0.3591  0.7360
14054TIP3    H163577   4.700   2.891  16.808  2.1563 -0.2952 -2.8187
14054TIP3    H263578   4.569   2.895  16.733  1.8324 -0.4307 -2.2719
14055TIP3   OH263579   2.981   5.470  14.579  0.0544 -0.8680  0.1707
14055TIP3    H163580   2.944   5.383  14.595 -2.1815 -0.3641 -1.6227
14055TIP3    H263581   3.004   5.469  14.486  2.1685 -0.2365  0.6334
14056TIP3   OH263582   4.009   0.696  13.628 -0.2302 -0.0786 -0.0991
14056TIP3    H163583   4.007   0.601  13.638 -0.8823  0.0114  0.7724
14056TIP3    H263584   4.075   0.712  13.561  1.0550 -1.0533  0.8703
14057TIP3   OH263585   6.071   6.476  10.952 -0.3582  0.2422 -0.1414
14057TIP3    H163586   6.003   6.441  10.894  0.0828  0.3159 -0.7141
14057TIP3    H263587   6.127   6.400  10.971  0.1582  0.4564 -0.7615
14058TIP3   OH263588   2.369   0.732   3.900 -0.3015 -0.8887 -0.3364
14058TIP3    H163589   2.348   0.699   3.813  0.2808 -0.4340 -0.6522
14058TIP3    H263590   2.373   0.653   3.955  1.3571 -1.4150 -1.1452
14059TIP3   OH263591   1.393   4.531   2.666 -0.1163  0.6572 -0.0095
14059TIP3    H163592   1.478   4.486   2.659 -0.8223 -0.6021 -0.7761
14059TIP3    H263593   1.404   4.591   2.740  0.6322 -1.3194  1.5509
14060TIP3   OH263594   5.178   4.049   2.735 -0.8890  0.4415 -0.3989
14060TIP3    H163595   5.226   4.003   2.667 -0.7602 -1.8267  1.1083
14060TIP3    H263596   5.102   3.994   2.753 -0.3681  0.3794  1.9770
14061TIP3   OH263597   0.201   2.024   3.603  0.1895 -0.0432 -0.5571
14061TIP3    H163598   0.121   2.013   3.552  0.2902  0.2620 -0.7873
14061TIP3    H263599   0.171   2.054   3.689 -0.0882 -2.0428  0.0862
14062TIP3   OH263600   4.019   4.543  15.223 -0.4684  0.4520 -0.1478
14062TIP3    H163601   4.074   4.485  15.171 -0.3410 -1.1111  1.6544
14062TIP3    H263602   4.031   4.629  15.183  2.5873  0.0264 -0.3744
14063TIP3   OH263603   4.313   5.269   4.928 -0.1375 -0.2235  0.0488
14063TIP3    H163604   4.335   5.267   5.021 -0.9377 -0.0004  0.2514
14063TIP3    H263605   4.264   5.187   4.913 -1.1378  0.3407  0.1304
14064TIP3   OH263606   0.624   5.244  13.999 -0.0008  0.3929 -0.5317
14064TIP3    H163607   0.557   5.302  14.034  0.4591  0.3028  0.5194
14064TIP3    H263608   0.679   5.222  14.074  1.1779  0.4243 -1.3549
14065TIP3   OH263609   0.579   2.926   5.446  0.4677  0.0433  0.3845
14065TIP3    H163610   0.522   2.882   5.383 -1.5923  2.7997  0.1727
14065TIP3    H263611   0.538   2.911   5.531  1.0121 -0.2721  0.6011
14066TIP3   OH263612   4.849   5.146  12.908  0.8478 -0.9277 -0.4933
14066TIP3    H163613   4.839   5.206  12.982 -0.3259 -0.0222 -1.3693
14066TIP3    H263614   4.787   5.075  12.926  2.7490 -2.3609  0.9177
14067TIP3   OH263615   6.095   4.508  11.794 -0.5484 -0.0977  0.3596
14067TIP3    H163616   6.156   4.437  11.773 -1.9090 -1.1442 -0.1800
14067TIP3    H263617   6.018   4.465  11.830 -1.6572  1.0228 -0.5421
14068TIP3   OH263618   4.361   6.062  15.454 -0.1166 -0.0362 -0.1157
14068TIP3    H163619   4.312   6.120  15.512  0.4036 -0.7144  1.0399
14068TIP3    H263620   4.452   6.074  15.479 -0.0486 -1.8606  0.6563
14069TIP3   OH263621   3.719   3.924   6.851 -0.0173 -0.0290  0.0815
14069TIP3    H163622   3.780   3.998   6.854  0.9530 -0.6486 -2.2809
14069TIP3    H263623   3.764   3.855   6.900 -0.1979  0.4259  0.9046
14070TIP3   OH263624   0.356   1.852   2.148 -0.0875 -0.6920 -0.3200
14070TIP3    H163625   0.296   1.862   2.222 -1.2504  0.6680 -1.3889
14070TIP3    H263626   0.426   1.796   2.182 -0.5255 -0.0552  1.8261
14071TIP3   OH263627   1.285   5.436   0.446 -0.0167  0.4993 -0.0403
14071TIP3    H163628   1.352   5.484   0.494  1.1105 -0.5740 -0.4959
14071TIP3    H263629   1.213   5.426   0.509  0.2658  1.6128  0.4739
14072TIP3   OH263630   1.443   0.151   5.681 -0.0056 -0.3885 -0.1821
14072TIP3    H163631   1.378   0.120   5.618  1.1533 -0.8403 -1.2065
14072TIP3    H263632   1.414   0.239   5.706  0.6902  0.7870 -3.1453
14073TIP3   OH263633   6.294   2.463  11.650  0.4905  0.2247 -0.1897
14073TIP3    H163634   6.321   2.443  11.561  0.2455 -1.1885  0.0315
14073TIP3    H263635   6.217   2.408  11.665  2.1263 -1.6887  1.7869
14074TIP3   OH263636   2.011   3.653   3.422 -0.3165 -0.4204  0.8654
14074TIP3    H163637   2.051   3.587   3.365 -1.0384  0.1387 -0.3198
14074TIP3    H263638   2.071   3.727   3.417  0.0158 -0.6441  1.4583
14075TIP3   OH263639   0.889   0.765   0.268  0.4286  0.1053  0.2611
14075TIP3    H163640   0.981   0.736   0.265  0.3665 -0.0301 -0.6367
14075TIP3    H263641   0.870   0.793   0.178 -0.1901  0.8373  0.6108
14076TIP3   OH263642   6.376   5.757  16.487  0.0961 -0.1361  0.2240
14076TIP3    H163643   6.360   5.830  16.428 -1.8359 -1.2705 -0.7470
14076TIP3    H263644   6.362   5.678  16.434  1.9947 -1.2517  1.2669
14077TIP3   OH263645   0.685   0.474   6.110 -0.1037 -0.2892  0.4924
14077TIP3    H163646   0.602   0.462   6.064 -0.0705  0.8478  0.1062
14077TIP3    H263647   0.664   0.456   6.202 -0.3812 -1.6530  0.1839
14078TIP3   OH263648   1.300   6.167  14.847 -0.5154  0.2140 -0.4805
14078TIP3    H163649   1.290   6.071  14.845  1.1034 -0.0141  0.3774
14078TIP3    H263650   1.248   6.194  14.923 -1.7752  0.1562 -1.2956
14079TIP3   OH263651   3.730   1.994   3.596 -0.2111 -0.0066 -0.2313
14079TIP3    H163652   3.733   1.937   3.672 -2.2180 -2.0326 -1.5319
14079TIP3    H263653   3.820   1.999   3.565  0.5898  0.5958  2.0191
14080TIP3   OH263654   1.745   0.155  14.181 -0.0718  0.2949  0.1956
14080TIP3    H163655   1.826   0.145  14.132  0.2011  0.4502  0.6076
14080TIP3    H263656   1.688   0.085  14.149 -0.1250  0.7683 -0.7806
14081TIP3   OH263657   4.071   0.589   1.318 -0.4981 -0.0277  0.1135
14081TIP3    H163658   4.113   0.551   1.241 -1.3693 -0.7503 -0.0213
14081TIP3    H263659   4.025   0.666   1.284 -0.2339  0.1099  0.0609
14082TIP3   OH263660   5.614   3.040  15.068  0.5341 -0.2329 -0.4924
14082TIP3    H163661   5.615   3.088  14.985  0.3785  2.6861  1.0564
14082TIP3    H263662   5.524   3.007  15.075  0.4933 -0.3493 -1.3869
14083TIP3   OH263663   4.706   5.528   5.055 -0.1689  0.2209  0.2676
14083TIP3    H163664   4.626   5.555   5.009  0.5970  1.7741 -0.2258
14083TIP3    H263665   4.777   5.556   4.998  0.7466 -0.7102  0.9267
14084TIP3   OH263666   6.028   1.204   1.767 -0.0510  0.4954 -0.1052
14084TIP3    H163667   5.996   1.148   1.696 -0.4728 -2.2800  2.1166
14084TIP3    H263668   6.118   1.226   1.742 -0.8464  1.3947 -2.4394
14085TIP3   OH263669   3.919   6.016   3.542  0.5158  0.3058  0.0764
14085TIP3    H163670   3.947   6.056   3.460  0.7451  1.2174  0.5874
14085TIP3    H263671   3.975   5.939   3.551  0.5377  0.2382 -0.5830
14086TIP3   OH263672   6.316   4.100  11.749 -0.1884 -0.2037 -0.4508
14086TIP3    H163673   6.319   4.005  11.739 -1.2505 -0.1798 -1.1814
14086TIP3    H263674   6.308   4.114  11.843  0.0824 -0.8278 -0.3299
14087TIP3   OH263675   4.569   0.848   6.244 -0.0312  0.0889 -0.5676
14087TIP3    H163676   4.560   0.928   6.296 -0.4085 -1.3866  1.8378
14087TIP3    H263677   4.508   0.786   6.285  1.4334 -1.9186 -1.2258
14088TIP3   OH263678   2.667   2.705   2.459  0.1686 -0.4885  0.2390
14088TIP3    H163679   2.630   2.664   2.537  0.2870  1.4803  1.4038
14088TIP3    H263680   2.602   2.771   2.434  1.5273  1.0194  0.5651
14089TIP3   OH263681   5.259   1.802  16.229  1.0297  0.1554 -0.3092
14089TIP3    H163682   5.279   1.861  16.156  1.1593  2.1140  1.2155
14089TIP3    H263683   5.212   1.857  16.292  1.3106 -1.3378  1.2942
14090TIP3   OH263684   5.452   4.587  11.843  0.8488  0.9208  0.3693
14090TIP3    H163685   5.525   4.649  11.837  3.8245 -2.2384  0.8888
14090TIP3    H263686   5.470   4.523  11.774 -0.8363 -0.5744  1.2540
14091TIP3   OH263687   5.401   5.595   2.478  0.0002  0.2304  0.1691
14091TIP3    H163688   5.364   5.661   2.420 -0.0819 -1.4370 -1.8173
14091TIP3    H263689   5.493   5.589   2.451 -0.2964 -1.3199 -0.6026
14092TIP3   OH263690   5.895   3.256  16.181 -0.0794 -0.0118 -0.6683
14092TIP3    H163691   5.927   3.300  16.103 -1.0683  1.0170 -0.5077
14092TIP3    H263692   5.817   3.208  16.152 -1.3446  1.5893 -0.0405
14093TIP3   OH263693   3.181   2.671   1.198 -0.3254  0.3514  0.2205
14093TIP3    H163694   3.161   2.761   1.172  0.5566  0.5435  0.1697
14093TIP3    H263695   3.231   2.680   1.280  1.9747  0.0853 -1.0647
14094TIP3   OH263696   2.805   0.929  15.944 -0.1984 -0.1616  0.4755
14094TIP3    H163697   2.892   0.913  15.906 -1.1808 -3.1189 -0.8609
14094TIP3    H263698   2.751   0.955  15.869 -0.8564 -0.0715  0.9711
14095TIP3   OH263699   3.636   0.983  14.943 -0.1090  0.1965 -0.1368
14095TIP3    H163700   3.684   1.035  15.008  0.9586 -0.5723 -0.2710
14095TIP3    H263701   3.693   0.983  14.865 -1.6220  1.5661 -1.2932
14096TIP3   OH263702   6.670   0.192   4.448 -0.2852  0.0567 -0.2489
14096TIP3    H163703   6.718   0.271   4.471  1.2092 -0.8547 -0.0908
14096TIP3    H263704   6.733   0.139   4.399  0.0687 -2.6436  2.7898
14097TIP3   OH263705   1.147   4.866   0.067 -0.0723  0.2344 -0.2401
14097TIP3    H163706   1.241   4.875   0.082  0.0651  0.2010 -1.0627
14097TIP3    H263707   1.139   4.785   0.017 -0.4698  0.6397 -0.8368
14098TIP3   OH263708   2.245   2.230   3.423 -0.1205  0.6382  0.2969
14098TIP3    H163709   2.295   2.266   3.350 -1.4149 -1.1181 -1.5802
14098TIP3    H263710   2.311   2.195   3.483  0.9602 -0.0303 -1.2245
14099TIP3   OH263711   5.593   1.672  14.340 -0.5931 -0.7945 -0.1252
14099TIP3    H163712   5.620   1.619  14.416 -1.0783 -4.0071 -2.0209
14099TIP3    H263713   5.676   1.701  14.301 -0.3364  1.0694  1.6279
14100TIP3   OH263714   6.712   3.465  15.993 -0.1657  0.1894 -0.3417
14100TIP3    H163715   6.692   3.555  16.022 -2.4402  0.3064 -1.9819
14100TIP3    H263716   6.645   3.411  16.035  1.6796 -0.9522  1.2954
14101TIP3   OH263717   1.240   5.977  12.135 -0.1048 -0.1694  0.3483
14101TIP3    H163718   1.172   5.918  12.103 -0.2628  0.9101 -1.4415
14101TIP3    H263719   1.285   6.007  12.056  3.4338 -1.8988  1.4795
14102TIP3   OH263720   1.030   3.082  13.622 -0.2008  1.0039  0.1309
14102TIP3    H163721   1.121   3.082  13.650  0.1890  1.0177 -1.1261
14102TIP3    H263722   0.999   3.171  13.640 -0.1672  0.8384  1.1109
14103TIP3   OH263723   6.198   1.747   5.735  0.1908  0.5249 -0.6811
14103TIP3    H163724   6.114   1.719   5.700  0.4630 -0.4227 -0.6062
14103TIP3    H263725   6.180   1.770   5.826 -0.3820  2.3448 -1.1985
14104TIP3   OH263726   3.761   1.459   5.002 -0.6613  0.5437  0.0263
14104TIP3    H163727   3.728   1.402   4.933  0.1516  0.4087 -0.2577
14104TIP3    H263728   3.702   1.534   5.001 -2.0747 -0.5174  0.7694
14105TIP3   OH263729   2.976   3.287  16.635  0.0505 -0.4576 -0.3303
14105TIP3    H163730   3.014   3.375  16.631  0.3724 -0.5389  0.6547
14105TIP3    H263731   3.035   3.238  16.693 -0.5459 -1.1050 -0.2523
14106TIP3   OH263732   1.567   6.379   2.469  0.0308  0.0946  0.0919
14106TIP3    H163733   1.568   6.373   2.374 -1.5554  1.9587 -0.0973
14106TIP3    H263734   1.554   6.472   2.487 -1.1332 -0.4055  2.1037
14107TIP3   OH263735   3.862   3.386  12.456  0.4896  0.2385 -0.6237
14107TIP3    H163736   3.905   3.377  12.371  1.0177 -2.8780 -0.1229
14107TIP3    H263737   3.801   3.313  12.460  1.3408 -0.4393  2.1281
14108TIP3   OH263738   6.568   5.077  16.176  0.4559  0.5006  0.4323
14108TIP3    H163739   6.600   5.018  16.108 -0.4358  0.8810 -0.3458
14108TIP3    H263740   6.602   5.041  16.258 -0.1149 -1.1397 -0.0165
14109TIP3   OH263741   1.894   3.266  11.560 -0.3384 -0.4929 -0.1600
14109TIP3    H163742   1.835   3.223  11.499  0.8270  0.5779 -2.1334
14109TIP3    H263743   1.900   3.356  11.529  0.4488  0.0404  1.4315
14110TIP3   OH263744   3.860   6.145   2.523 -0.1708  0.4516  0.6719
14110TIP3    H163745   3.845   6.051   2.522  2.3524 -0.0139  0.3591
14110TIP3    H263746   3.904   6.162   2.606  2.2680  0.7598 -0.5904
14111TIP3   OH263747   4.676   5.479  11.992  0.2948  0.2534 -0.2113
14111TIP3    H163748   4.616   5.476  11.917 -0.3286  1.4780  0.2086
14111TIP3    H263749   4.699   5.572  12.000 -0.5782  0.3499  1.8155
14112TIP3   OH263750   1.286   0.938  12.640 -0.2073 -0.3425 -0.2952
14112TIP3    H163751   1.193   0.929  12.620 -0.9485 -0.9045  2.8495
14112TIP3    H263752   1.300   1.033  12.647 -0.6842 -0.2759 -0.2184
14113TIP3   OH263753   4.409   1.837   5.988 -0.5927 -0.0194  0.0102
14113TIP3    H163754   4.475   1.877   6.044  0.6563 -1.8226 -0.0664
14113TIP3    H263755   4.377   1.762   6.038  2.1370 -3.0506 -2.2669
14114TIP3   OH263756   5.383   6.641  12.360  0.3065  0.5765  0.1153
14114TIP3    H163757   5.421   6.717  12.404 -0.2454  1.4535 -0.8693
14114TIP3    H263758   5.291   6.643  12.383  0.6595 -1.1270  1.9091
14115TIP3   OH263759   5.159   2.948   5.504 -0.3715  0.3482  0.3409
14115TIP3    H163760   5.242   2.900   5.500  0.0236  0.8829  1.5957
14115TIP3    H263761   5.093   2.883   5.480  0.3799 -0.1401 -0.4646
14116TIP3   OH263762   1.338   1.887  16.098  0.6948 -0.2709  0.1391
14116TIP3    H163763   1.392   1.854  16.026 -1.1258 -1.0030 -0.9278
14116TIP3    H263764   1.389   1.961  16.133  1.6416  0.0927 -1.8624
14117TIP3   OH263765   5.571   3.206   5.567  0.2433 -0.0824  0.1911
14117TIP3    H163766   5.563   3.285   5.620 -2.3366  0.5266 -0.9668
14117TIP3    H263767   5.649   3.162   5.601  0.6664  1.9957  2.1222
14118TIP3   OH263768   1.150   0.702   4.016  0.5979 -0.2198  0.4885
14118TIP3    H163769   1.121   0.621   3.974  1.3386 -0.4642  0.4175
14118TIP3    H263770   1.181   0.674   4.102  0.1058  0.1136  0.7768
14119TIP3   OH263771   6.147   0.468  15.296 -0.1112  0.4664 -0.6270
14119TIP3    H163772   6.091   0.392  15.309  1.3910 -0.6791 -0.5965
14119TIP3    H263773   6.173   0.463  15.205  0.6640  0.4634 -0.4073
14120TIP3   OH263774   6.029   4.682   1.403  0.4748  0.8718 -0.1508
14120TIP3    H163775   6.121   4.692   1.376  1.0142  0.8502  1.5558
14120TIP3    H263776   6.017   4.747   1.472 -0.8559  0.9731 -0.4495
14121TIP3   OH263777   3.346   1.498   1.632 -0.2230 -0.6806 -0.0139
14121TIP3    H163778   3.342   1.584   1.589 -1.1271 -0.6416  0.1316
14121TIP3    H263779   3.439   1.487   1.655 -0.1012  0.2686 -0.0114
14122TIP3   OH263780   1.452   6.139   1.053 -0.5228  0.2492  0.2705
14122TIP3    H163781   1.526   6.103   1.102 -0.1275 -0.3697 -0.7640
14122TIP3    H263782   1.484   6.148   0.963 -1.3048  1.1686  0.0608
14123TIP3   OH263783   4.013   4.206   2.777 -0.0444 -0.1491  0.3106
14123TIP3    H163784   3.974   4.223   2.862 -0.2345  1.3885 -0.0488
14123TIP3    H263785   3.988   4.282   2.723 -0.0192 -1.1306 -1.1402
14124TIP3   OH263786   0.516   0.916  16.301  0.2523  0.2754  0.0093
14124TIP3    H163787   0.485   0.964  16.378  0.4308 -0.2042  0.3800
14124TIP3    H263788   0.454   0.844  16.291 -0.5449  1.0749 -1.0803
14125TIP3   OH263789   4.981   2.859   2.305 -0.3612  0.2657  0.6854
14125TIP3    H163790   4.893   2.827   2.326 -1.2862  0.2104 -2.6140
14125TIP3    H263791   5.032   2.780   2.288  0.0377  0.3277  1.5733
14126TIP3   OH263792   0.688   0.982   5.800 -0.2169  0.0189 -0.0429
14126TIP3    H163793   0.609   0.928   5.796 -0.5797  0.6180 -1.5432
14126TIP3    H263794   0.740   0.953   5.725  0.6304  0.1907  0.4665
14127TIP3   OH263795   0.609   3.143   3.146  0.1229  0.0561  0.0719
14127TIP3    H163796   0.525   3.109   3.116 -0.7274  0.1366  2.2298
14127TIP3    H263797   0.611   3.233   3.112  0.0994 -0.4360 -1.3255
14128TIP3   OH263798   4.235   6.157  15.814 -0.4239 -0.0387  0.3279
14128TIP3    H163799   4.289   6.189  15.886 -2.7176 -1.1504  2.6779
14128TIP3    H263800   4.182   6.232  15.787  0.4213  0.3699 -0.2614
14129TIP3   OH263801   0.761   0.883   2.668  0.2793  0.1038  0.3626
14129TIP3    H163802   0.669   0.908   2.654  0.1898 -0.3594  0.1002
14129TIP3    H263803   0.802   0.894   2.582 -0.0351 -1.7698 -0.0749
14130TIP3   OH263804   2.594   2.642  14.752  0.2385  0.1527  0.2484
14130TIP3    H163805   2.593   2.723  14.804 -0.3968  0.0521  0.4071
14130TIP3    H263806   2.686   2.626  14.734  0.4472  0.3827  1.0597
14131TIP3   OH263807   1.330   3.441  15.459  0.2269  0.0760 -0.1373
14131TIP3    H163808   1.407   3.483  15.422  0.3742  1.0195  1.1715
14131TIP3    H263809   1.362   3.358  15.493  0.0384 -0.9388 -2.2406
14132TIP3   OH263810   1.704   2.782   1.657  0.1837  0.5522 -0.3014
14132TIP3    H163811   1.753   2.836   1.595  1.1224  0.4387  0.3221
14132TIP3    H263812   1.619   2.825   1.664 -0.1225  0.3144 -2.0125
14133TIP3   OH263813   5.552   1.098   5.031 -0.0858 -0.2892  0.5361
14133TIP3    H163814   5.549   1.002   5.030 -0.4557 -0.2740 -0.3358
14133TIP3    H263815   5.604   1.119   5.109  1.0743 -1.2333  0.0651
14134TIP3   OH263816   2.257   3.464  16.971  0.5405  0.5283  0.0140
14134TIP3    H163817   2.203   3.494  16.898  0.7421 -0.1216 -0.4136
14134TIP3    H263818   2.283   3.376  16.946 -1.7196 -0.8580  2.1697
14135TIP3   OH263819   2.397   0.791   5.529  0.4579 -0.2927 -0.4991
14135TIP3    H163820   2.387   0.885   5.517 -0.3391 -0.1461  1.0008
14135TIP3    H263821   2.308   0.757   5.536  0.7301 -1.1816 -1.1421
14136TIP3   OH263822   5.871   4.250   5.642 -0.0245  0.7358  0.4536
14136TIP3    H163823   5.885   4.334   5.686  0.8958  0.4045  0.8190
14136TIP3    H263824   5.908   4.261   5.555 -1.4019  1.2318 -0.0897
14137TIP3   OH263825   0.298   6.680  15.025  0.2909 -0.1916  0.2358
14137TIP3    H163826   0.309   6.713  14.936 -2.2980 -0.2073 -0.1625
14137TIP3    H263827   0.247   6.600  15.015  0.9699 -0.8432  1.6751
14138TIP3   OH263828   3.409   1.807   4.975 -0.4463 -0.0700 -0.3142
14138TIP3    H163829   3.442   1.886   5.019 -0.6074 -0.7645  1.1318
14138TIP3    H263830   3.351   1.840   4.907  0.2687  1.0808 -0.3952
14139TIP3   OH263831   0.816   2.997   5.316  0.2076  0.4063  0.6654
14139TIP3    H163832   0.724   2.971   5.312 -0.0839  1.3894  0.6238
14139TIP3    H263833   0.858   2.932   5.371 -0.1792 -0.9834 -0.6243
14140TIP3   OH263834   3.439   0.044   1.017  0.3485 -0.1443  0.1963
14140TIP3    H163835   3.418   0.049   1.110  0.7821  1.8820  0.2164
14140TIP3    H263836   3.504   0.113   1.003  2.1525 -1.9913 -1.1387
14141TIP3   OH263837   1.427   2.158   1.468 -0.1198  0.2552 -0.4596
14141TIP3    H163838   1.394   2.208   1.394  0.4543 -1.1760 -1.7433
14141TIP3    H263839   1.516   2.191   1.481  0.4407 -0.7130 -1.6307
14142TIP3   OH263840   0.183   6.096   3.934  0.0616  0.3885  0.3620
14142TIP3    H163841   0.204   6.035   4.004 -0.1564  1.1437  1.1057
14142TIP3    H263842   0.151   6.041   3.862 -0.1250 -0.3652  1.0150
14143TIP3   OH263843   2.422   2.564  16.790 -0.3972 -0.0035  0.0372
14143TIP3    H163844   2.513   2.593  16.782 -1.0654  1.8738 -1.7392
14143TIP3    H263845   2.387   2.613  16.864  0.0445 -0.8854  0.8584
14144TIP3   OH263846   3.090   0.573  14.090  0.3619  0.3442  0.1761
14144TIP3    H163847   3.012   0.628  14.087 -0.9086 -1.3063  1.0775
14144TIP3    H263848   3.133   0.596  14.173 -0.4649 -0.3552  0.8205
14145TIP3   OH263849   2.311   1.387  13.616  0.2126 -1.1468  0.2658
14145TIP3    H163850   2.390   1.389  13.670  0.1162 -4.4605  0.7709
14145TIP3    H263851   2.259   1.461  13.646  3.0828  1.2095 -0.1574
14146TIP3   OH263852   6.577   0.103   6.190 -0.2748  0.2593  0.1186
14146TIP3    H163853   6.633   0.032   6.222 -0.0406  0.4175  0.0599
14146TIP3    H263854   6.504   0.105   6.251 -0.5166 -0.3415 -0.1436
14147TIP3   OH263855   1.656   2.333   1.370  0.0601 -0.3260 -0.4597
14147TIP3    H163856   1.643   2.385   1.291  1.0227 -0.2815 -0.6021
14147TIP3    H263857   1.624   2.388   1.441 -0.6754 -0.3078 -0.7933
14148TIP3   OH263858   2.933   4.621  11.554 -0.4724  0.7496 -0.1425
14148TIP3    H163859   2.884   4.701  11.532  0.8081  1.7828  0.6534
14148TIP3    H263860   2.944   4.576  11.470 -0.4284  1.8652 -0.7540
14149TIP3   OH263861   5.598   6.184  14.988 -0.0725  0.7398  0.2335
14149TIP3    H163862   5.603   6.154  14.897  1.1215 -0.4640  0.6518
14149TIP3    H263863   5.515   6.149  15.021 -0.6838  1.4863 -0.4739
14150TIP3   OH263864   5.091   1.082   2.063  0.1789 -0.0372  0.3847
14150TIP3    H163865   5.118   1.094   2.154 -1.0446 -1.1671  0.9199
14150TIP3    H263866   5.049   0.996   2.061 -2.0973  1.0119 -0.6915
14151TIP3   OH263867   3.278   0.300  11.094 -0.3262  0.2516 -0.5154
14151TIP3    H163868   3.273   0.284  11.188 -0.5523  0.1931 -0.5373
14151TIP3    H263869   3.372   0.296  11.074 -0.3938 -1.8667 -0.6392
14152TIP3   OH263870   0.580   3.813  16.520  0.5595  0.3254 -0.0164
14152TIP3    H163871   0.528   3.881  16.563  0.8289 -0.1467  1.0902
14152TIP3    H263872   0.515   3.748  16.490  0.3990  0.4591  0.0391
14153TIP3   OH263873   2.361   2.321   3.162  0.0263 -0.1595 -0.2473
14153TIP3    H163874   2.400   2.405   3.187  0.2784  0.2494 -1.8803
14153TIP3    H263875   2.393   2.306   3.073 -0.4803 -1.7195 -0.1933
14154TIP3   OH263876   1.539   3.898  17.254 -0.1519  0.3553 -0.0945
14154TIP3    H163877   1.616   3.925  17.204 -1.0893  0.9431 -1.2605
14154TIP3    H263878   1.543   3.802  17.252  0.4948  0.3747 -0.2237
14155TIP3   OH263879   5.421   1.636   5.801  0.1464  0.4957 -0.0427
14155TIP3    H163880   5.355   1.645   5.870  0.9030 -1.4801  1.0266
14155TIP3    H263881   5.381   1.677   5.725 -1.2648  1.5855  1.2234
14156TIP3   OH263882   0.429   0.809   5.162  0.1500 -0.0438 -0.4982
14156TIP3    H163883   0.446   0.813   5.256  1.0820  3.0702 -0.6953
14156TIP3    H263884   0.500   0.754   5.128  1.9674  1.7078  0.2673
14157TIP3   OH263885   0.504   2.117  14.568 -1.0638  0.4774  0.4499
14157TIP3    H163886   0.421   2.149  14.602 -0.4677  1.2869  1.1879
14157TIP3    H263887   0.568   2.142  14.634 -0.4329 -1.5375  0.6683
14158TIP3   OH263888   5.908   1.751   5.350 -0.2926  0.5173 -0.2080
14158TIP3    H163889   5.851   1.815   5.306 -0.2536 -0.1260 -1.2324
14158TIP3    H263890   5.992   1.761   5.307  0.0270  0.5565  0.4167
14159TIP3   OH263891   4.553   1.125  16.628  0.0817  0.1466  0.4327
14159TIP3    H163892   4.516   1.077  16.702 -0.0604 -1.0053 -0.3603
14159TIP3    H263893   4.482   1.131  16.565 -0.2713  2.4900  0.9686
14160TIP3   OH263894   1.342   4.507  15.628  0.2162 -0.3052 -0.8445
14160TIP3    H163895   1.437   4.515  15.636  0.1527 -0.5782  0.2870
14160TIP3    H263896   1.311   4.598  15.619  0.6053 -0.2437 -1.7139
14161TIP3   OH263897   1.993   2.014   5.374 -0.4515  0.2889 -0.6821
14161TIP3    H163898   1.917   1.968   5.409  1.4671 -0.4547  3.0503
14161TIP3    H263899   1.987   2.102   5.411  0.4690  0.2145 -0.3219
14162TIP3   OH263900   5.201   3.532  10.988 -0.3324 -0.5345  0.3665
14162TIP3    H163901   5.145   3.460  11.017 -1.0521 -0.7527 -1.4646
14162TIP3    H263902   5.142   3.606  10.975  0.2648  0.1333  1.2904
14163TIP3   OH263903   1.133   3.546  15.267  0.3429 -0.3267  0.1206
14163TIP3    H163904   1.194   3.537  15.340  2.4244 -1.7947 -1.6394
14163TIP3    H263905   1.187   3.530  15.189 -2.0695 -0.4362 -1.6454
14164TIP3   OH263906   3.251   5.559   4.232 -0.2208 -0.1405  0.2807
14164TIP3    H163907   3.189   5.555   4.160  1.4597  0.0125 -1.2660
14164TIP3    H263908   3.271   5.652   4.241 -2.5138  0.2150  2.9422
14165TIP3   OH263909   1.446   6.119  17.237 -0.1630 -0.4483 -0.1776
14165TIP3    H163910   1.426   6.177  17.311  1.4001  0.8136 -0.6925
14165TIP3    H263911   1.365   6.117  17.186 -1.1589 -1.0750  1.3596
14166TIP3   OH263912   0.689   6.520   0.528 -0.4608 -0.0060  0.0537
14166TIP3    H163913   0.741   6.599   0.546 -0.7011  0.1150  0.2150
14166TIP3    H263914   0.681   6.477   0.613 -0.7132  0.0292  0.0467
14167TIP3   OH263915   2.322   0.276  12.791 -0.0095  0.2713  0.3575
14167TIP3    H163916   2.410   0.242  12.774 -0.6409 -0.9436 -0.5664
14167TIP3    H263917   2.264   0.220  12.740 -1.0949  3.0532 -1.6987
14168TIP3   OH263918   1.734   5.455  12.594  0.1304  0.4224  0.2335
14168TIP3    H163919   1.796   5.427  12.661 -0.5125  0.4296  0.8549
14168TIP3    H263920   1.780   5.443  12.511  0.7915  0.0076  0.6512
14169TIP3   OH263921   5.670   3.426   4.721  0.8153 -0.4198  0.1761
14169TIP3    H163922   5.646   3.503   4.670 -0.1927 -0.0834  1.1179
14169TIP3    H263923   5.653   3.352   4.663  0.6104 -0.0004 -0.3035
14170TIP3   OH263924   1.456   6.138  16.179 -0.2106  0.4124 -0.1650
14170TIP3    H163925   1.536   6.173  16.139 -1.2681  2.9616 -0.2361
14170TIP3    H263926   1.408   6.099  16.105  0.6844 -0.6685 -0.2049
14171TIP3   OH263927   0.766   5.934  12.230  0.4350  0.0729  0.5270
14171TIP3    H163928   0.836   5.979  12.278  0.1500  0.1935  0.8311
14171TIP3    H263929   0.693   5.930  12.292  0.2558 -0.2756  0.2972
14172TIP3   OH263930   3.901   2.014  11.296  0.3405 -0.3925 -0.2330
14172TIP3    H163931   3.951   1.967  11.363  2.7092  0.3809 -1.3312
14172TIP3    H263932   3.864   1.944  11.241 -0.4387 -0.9977  1.0167
14173TIP3   OH263933   5.395   4.231   0.884 -0.3390  0.6748 -0.6434
14173TIP3    H163934   5.399   4.290   0.959 -0.6966  0.1732 -0.2270
14173TIP3    H263935   5.410   4.288   0.808 -0.1401  1.2092 -0.2101
14174TIP3   OH263936   2.605   2.756   5.971 -0.6835 -0.4044  0.0693
14174TIP3    H163937   2.615   2.850   5.953  0.4480 -0.0004  2.4394
14174TIP3    H263938   2.535   2.750   6.036 -1.0957 -1.2797 -0.4273
14175TIP3   OH263939   0.272   2.557  14.174 -0.2979  0.1653  0.2985
14175TIP3    H163940   0.178   2.541  14.163 -0.6550  0.9831  1.8569
14175TIP3    H263941   0.314   2.486  14.126 -1.6579  1.0991 -2.4601
14176TIP3   OH263942   5.963   4.876  14.205  0.0029  0.1611  0.2812
14176TIP3    H163943   5.985   4.968  14.189 -2.2244  0.7042  0.0194
14176TIP3    H263944   5.874   4.868  14.173  0.0398 -2.0332  0.6431
14177TIP3   OH263945   4.275   3.715   2.975  0.2435 -0.2339  0.1128
14177TIP3    H163946   4.313   3.801   2.995  1.3368 -1.0850  1.8720
14177TIP3    H263947   4.344   3.668   2.929  0.5531 -1.0126  1.3445
14178TIP3   OH263948   0.188   6.708  16.775 -0.0700  0.7566 -0.2051
14178TIP3    H163949   0.235   6.784  16.742  1.1248  1.0873  2.0698
14178TIP3    H263950   0.248   6.668  16.837 -0.9431 -1.6802 -0.8049
14179TIP3   OH263951   5.388   5.376   6.555 -0.5914 -0.5042 -0.6315
14179TIP3    H163952   5.414   5.408   6.469 -1.1342  0.2621 -0.5178
14179TIP3    H263953   5.458   5.316   6.581 -0.1690 -0.3379 -1.3744
14180TIP3   OH263954   6.327   3.869  12.837 -0.1973 -0.7614 -0.2736
14180TIP3    H163955   6.385   3.806  12.794 -0.9482  0.1848 -2.8659
14180TIP3    H263956   6.281   3.912  12.765 -0.3332  2.1795  1.4228
14181TIP3   OH263957   2.634   4.239   6.227 -1.0486  0.5390  0.6378
14181TIP3    H163958   2.676   4.226   6.312 -2.0451 -0.2939  1.0214
14181TIP3    H263959   2.566   4.304   6.243  0.6193  2.5867 -0.1819
14182TIP3   OH263960   4.045   1.934   3.217  1.0596 -0.1183 -0.2424
14182TIP3    H163961   4.123   1.970   3.174  0.8399  0.5997 -0.0448
14182TIP3    H263962   4.028   1.852   3.169 -0.8459  1.9542 -3.5248
14183TIP3   OH263963   0.602   4.158   2.998  0.0370  0.5191 -0.0005
14183TIP3    H163964   0.595   4.230   3.060 -0.2437  0.5344 -0.0479
14183TIP3    H263965   0.692   4.162   2.967 -0.3480  1.7903 -1.1142
14184TIP3   OH263966   3.835   6.084  15.129  0.0384  0.1713  0.3903
14184TIP3    H163967   3.813   5.991  15.131  1.2064 -0.3010 -2.6676
14184TIP3    H263968   3.930   6.087  15.138  0.0588  1.0365  0.0371
14185TIP3   OH263969   0.456   1.895   0.431 -0.4100  0.0624 -0.1787
14185TIP3    H163970   0.529   1.840   0.403 -0.3703 -1.8531  3.1163
14185TIP3    H263971   0.395   1.892   0.358  0.9062 -1.9643 -1.3149
14186TIP3   OH263972   1.089   0.284   5.265  0.2994  0.3460  0.5036
14186TIP3    H163973   1.033   0.346   5.218 -0.0566 -0.5995 -0.3299
14186TIP3    H263974   1.163   0.338   5.295  1.4084  0.7190 -2.5530
14187TIP3   OH263975   6.437   5.451  15.542  0.2016  0.1915 -0.1502
14187TIP3    H163976   6.474   5.525  15.494  2.4999 -0.7513  0.0571
14187TIP3    H263977   6.472   5.459  15.631 -2.3157  0.7281  0.8956
14188TIP3   OH263978   1.255   0.736  16.991 -0.0463 -0.2795  0.1089
14188TIP3    H163979   1.173   0.756  16.947 -1.4906 -2.3223  1.6940
14188TIP3    H263980   1.320   0.733  16.920 -1.5579  0.0600 -1.3556
14189TIP3   OH263981   6.198   4.240   1.915  0.7926 -0.3823 -0.0724
14189TIP3    H163982   6.233   4.187   1.987  2.8119  0.3562 -0.4446
14189TIP3    H263983   6.139   4.303   1.958 -0.0053 -1.5388  0.6033
14190TIP3   OH263984   2.637   0.427  17.126  0.4744 -0.4680 -0.3639
14190TIP3    H163985   2.602   0.360  17.184  0.8685  0.4489  0.9606
14190TIP3    H263986   2.718   0.456  17.168  0.1771  1.0319 -0.7679
14191TIP3   OH263987   4.717   4.648  14.673  0.0934 -0.0680 -0.1362
14191TIP3    H163988   4.766   4.686  14.600 -0.5365 -0.1421 -0.6110
14191TIP3    H263989   4.723   4.714  14.742 -1.2605  1.1056 -1.0619
14192TIP3   OH263990   1.024   4.980  11.652  0.2808 -0.2642 -0.1103
14192TIP3    H163991   0.994   5.070  11.645 -1.1076 -0.7332 -0.5444
14192TIP3    H263992   0.944   4.927  11.646  0.9843 -1.5016  0.8269
14193TIP3   OH263993   2.346   2.068   5.862  0.0788 -0.0685 -0.7307
14193TIP3    H163994   2.283   2.117   5.914  0.5662  1.6438 -1.6690
14193TIP3    H263995   2.340   1.978   5.895 -0.4727  0.6950  1.4234
14194TIP3   OH263996   0.717   1.901   0.744  0.2453 -0.0745 -0.2912
14194TIP3    H163997   0.714   1.859   0.830 -0.4521  1.5703  0.5373
14194TIP3    H263998   0.677   1.838   0.685  1.5929 -1.6385  0.3840
14195TIP3   OH263999   0.213   3.301   3.207 -0.1562  0.1652 -0.0582
14195TIP3    H164000   0.249   3.369   3.149  0.0584  0.7604  0.7401
14195TIP3    H264001   0.119   3.315   3.204 -0.2831 -0.8056 -1.4458
14196TIP3   OH264002   3.038   4.036   5.941 -0.2221  0.2652  0.2840
14196TIP3    H164003   2.982   4.103   5.981 -1.5690 -0.6810  0.0710
14196TIP3    H264004   2.982   3.958   5.937 -0.2061  0.2497 -3.3774
14197TIP3   OH264005   5.366   6.712  11.560 -0.3258 -0.6121  0.3908
14197TIP3    H164006   5.325   6.708  11.647 -0.0588 -1.1084  0.4963
14197TIP3    H264007   5.460   6.698  11.577 -0.2680 -0.6733  0.0278
14198TIP3   OH264008   3.051   0.277  13.252 -0.0338 -0.1851  0.6631
14198TIP3    H164009   2.967   0.294  13.295 -0.5721 -1.5673  0.2080
14198TIP3    H264010   3.033   0.290  13.159  0.6977  1.1298  0.6840
14199TIP3   OH264011   1.260   5.341  14.276 -0.3784  0.2280 -0.3451
14199TIP3    H164012   1.257   5.432  14.306 -0.6611  0.4152 -0.9419
14199TIP3    H264013   1.176   5.304  14.305  0.6080 -0.4963  1.8918
14200TIP3   OH264014   5.167   2.042  12.402 -0.3148  0.1189 -0.8097
14200TIP3    H164015   5.072   2.033  12.412 -0.2540  1.0227  1.1287
14200TIP3    H264016   5.193   2.099  12.475  1.9346 -1.3335 -0.3924
14201TIP3   OH264017   0.099   2.834   4.987 -0.3070  0.0257 -0.3174
14201TIP3    H164018   0.036   2.781   4.939 -0.4250  0.0982 -0.2420
14201TIP3    H264019   0.052   2.913   5.011 -0.8903 -0.8381  1.6511
14202TIP3   OH264020   6.483   1.002   5.398  0.1424  0.2751  0.1291
14202TIP3    H164021   6.402   0.956   5.419  1.1875 -1.6500  0.1865
14202TIP3    H264022   6.549   0.932   5.391  2.0066  1.8404  1.0772
14203TIP3   OH264023   5.154   0.854  15.044  0.1116 -0.2995 -0.0328
14203TIP3    H164024   5.231   0.830  15.095  2.7867  2.7667 -2.2116
14203TIP3    H264025   5.123   0.935  15.085  0.7198  0.7786 -1.6199
14204TIP3   OH264026   3.731   1.737   3.902  0.4927 -0.1717 -0.0246
14204TIP3    H164027   3.715   1.721   3.995 -0.6438  0.0964 -0.1547
14204TIP3    H264028   3.729   1.650   3.862 -2.2755 -0.1083 -0.2333
14205TIP3   OH264029   4.859   4.600   2.942 -0.0141  0.6654  0.4237
14205TIP3    H164030   4.894   4.511   2.947 -1.5369  0.0861  1.5923
14205TIP3    H264031   4.894   4.644   3.020 -1.6922  0.1164  1.5377
14206TIP3   OH264032   2.230   0.518  12.667  0.2967 -0.0120 -0.3525
14206TIP3    H164033   2.257   0.434  12.705  3.4228  0.7252 -0.7182
14206TIP3    H264034   2.220   0.576  12.743  1.9675  0.2472 -0.2966
14207TIP3   OH264035   0.892   0.406   4.467  0.0762  0.3519  0.0248
14207TIP3    H164036   0.918   0.395   4.375 -2.5693  0.7709 -0.8839
14207TIP3    H264037   0.911   0.321   4.507  3.4710  0.8592 -0.1932
14208TIP3   OH264038   3.941   3.284   0.852 -0.2581  0.3847 -0.1321
14208TIP3    H164039   3.913   3.253   0.766  2.7368  1.6578 -1.6924
14208TIP3    H264040   3.917   3.213   0.912 -1.6386 -0.9215 -2.1217
14209TIP3   OH264041   4.066   4.795   6.349  0.1969 -0.6840  0.3579
14209TIP3    H164042   4.106   4.853   6.414 -1.3503 -1.4468  2.0671
14209TIP3    H264043   3.993   4.846   6.313  2.0107  0.3682 -2.1039
14210TIP3   OH264044   5.026   2.076  16.846 -0.4079  0.9612 -1.1129
14210TIP3    H164045   4.962   2.129  16.893  0.6128  0.3569  1.1074
14210TIP3    H264046   5.108   2.125  16.852  0.8896 -1.2274  2.1646
14211TIP3   OH264047   1.025   1.636  13.885 -0.1017  0.2964  1.1136
14211TIP3    H164048   1.045   1.728  13.871 -1.4347  0.5715  0.8997
14211TIP3    H264049   1.091   1.606  13.948  2.1279  0.6544 -0.8627
14212TIP3   OH264050   4.687   1.291   0.416 -0.2652  0.3758 -0.2084
14212TIP3    H164051   4.605   1.250   0.391  0.3000 -0.8514 -0.1345
14212TIP3    H264052   4.748   1.266   0.346  0.5492 -0.4720  0.7746
14213TIP3   OH264053   6.446   2.995   4.003  0.2875 -0.0949  0.4736
14213TIP3    H164054   6.530   3.026   4.037 -0.2281  1.2836  0.5641
14213TIP3    H264055   6.447   3.022   3.911  1.2208 -2.8381 -0.3980
14214TIP3   OH264056   6.028   1.884   6.510 -0.1313 -0.2947  0.2722
14214TIP3    H164057   5.998   1.800   6.475  0.4621 -0.7006  0.7216
14214TIP3    H264058   5.949   1.925   6.545 -1.2295  1.0856 -3.3466
14215TIP3   OH264059   4.467   1.147  17.441 -0.2293  0.1962  0.3798
14215TIP3    H164060   4.396   1.211  17.436  0.4402  0.8869 -1.4721
14215TIP3    H264061   4.546   1.198  17.422  0.6023 -0.7968  1.0909
14216TIP3   OH264062   2.552   3.785   0.979 -0.0385 -0.0054 -0.0655
14216TIP3    H164063   2.611   3.850   1.017  0.1474 -0.0812 -0.2174
14216TIP3    H264064   2.592   3.701   1.001  0.1361 -0.0474 -0.5249
14217TIP3   OH264065   5.645   4.261  14.258 -0.1327  0.2430  0.1793
14217TIP3    H164066   5.649   4.350  14.292 -1.1876  0.0889  0.7268
14217TIP3    H264067   5.656   4.205  14.336  1.1989 -0.1231 -0.2406
14218TIP3   OH264068   5.607   5.951   6.118  0.2262  0.3328  0.0287
14218TIP3    H164069   5.517   5.969   6.146  0.3572  1.4474 -0.2126
14218TIP3    H264070   5.604   5.958   6.023  0.2642 -1.1262 -0.0924
14219TIP3   OH264071   4.602   1.020   0.176 -0.6736 -0.3426 -0.3366
14219TIP3    H164072   4.544   1.013   0.100 -0.1683 -0.3062 -0.7261
14219TIP3    H264073   4.544   1.050   0.247 -1.3131 -1.1288 -0.5048
14220TIP3   OH264074   6.386   4.903   4.833  0.6250 -0.1922  0.2062
14220TIP3    H164075   6.427   4.818   4.817 -0.8503 -1.2716  1.7063
14220TIP3    H264076   6.455   4.956   4.873  1.1766 -1.1746  0.5920
14221TIP3   OH264077   2.588   1.517  10.867 -0.4010  0.6406 -0.3004
14221TIP3    H164078   2.668   1.486  10.824 -1.8446 -1.6901 -1.5343
14221TIP3    H264079   2.588   1.473  10.952 -1.1694 -0.8350 -1.0157
14222TIP3   OH264080   4.906   1.566  14.110 -0.4172  0.5913 -0.3338
14222TIP3    H164081   4.998   1.579  14.135 -1.0254  1.6995  1.4850
14222TIP3    H264082   4.906   1.571  14.015  1.5099 -0.1683 -0.4214
14223TIP3   OH264083   0.743   4.026   2.602  0.2585  0.3932 -0.2534
14223TIP3    H164084   0.669   4.006   2.545 -1.0679 -1.5594  1.9758
14223TIP3    H264085   0.727   4.116   2.631 -0.7495  0.3098 -0.5095
14224TIP3   OH264086   4.327   2.941   3.092 -0.0322  0.0348 -0.3929
14224TIP3    H164087   4.304   2.848   3.097 -0.3497  0.0066 -1.9600
14224TIP3    H264088   4.264   2.978   3.031 -1.3819  1.7933  1.9345
14225TIP3   OH264089   4.182   5.655   4.976  0.1790 -0.3004  0.1884
14225TIP3    H164090   4.178   5.741   4.935  1.6463 -0.0126  0.5657
14225TIP3    H264091   4.114   5.604   4.933  0.5356  0.4860 -1.3939
14226TIP3   OH264092   6.214   2.867   4.041  0.0614  0.0990  0.5695
14226TIP3    H164093   6.173   2.840   3.959  0.1823 -0.8545  0.8059
14226TIP3    H264094   6.293   2.914   4.015 -0.4441  0.7288  0.1322
14227TIP3   OH264095   3.918   2.985   0.528 -0.6152 -0.3125 -0.0803
14227TIP3    H164096   3.828   2.975   0.496  0.0569 -0.5862 -2.0258
14227TIP3    H264097   3.944   3.072   0.500 -1.2742  1.1028  3.3036
14228TIP3   OH264098   3.754   5.656   4.276 -0.1829 -0.0072 -0.6296
14228TIP3    H164099   3.701   5.736   4.281  1.7750  1.2918  1.7079
14228TIP3    H264100   3.698   5.587   4.312 -1.0440  0.8547 -0.2751
14229TIP3   OH264101   1.850   5.137   0.716 -0.1989 -0.4570 -0.0286
14229TIP3    H164102   1.879   5.197   0.785 -0.1196 -0.3956 -0.1146
14229TIP3    H264103   1.822   5.195   0.645  1.8484 -0.5001 -0.9555
14230TIP3   OH264104   5.025   0.121  16.189 -0.2840 -0.6695  0.2613
14230TIP3    H164105   5.019   0.113  16.094 -0.8313  1.8841  0.0199
14230TIP3    H264106   5.064   0.038  16.218  0.0165 -1.4443 -2.1803
14231TIP3   OH264107   6.258   3.785   5.675  0.2235  0.2228 -0.0353
14231TIP3    H164108   6.214   3.829   5.602 -2.3671 -0.7353  0.8574
14231TIP3    H264109   6.306   3.856   5.719 -1.5017  1.6309 -0.2991
14232TIP3   OH264110   4.150   4.116   5.261 -0.2780 -0.0685 -0.3065
14232TIP3    H164111   4.122   4.108   5.169  0.6979  0.1375 -0.6279
14232TIP3    H264112   4.245   4.116   5.257 -0.1203  3.4635  0.3774
14233TIP3   OH264113   4.767   6.299   0.350 -0.1826  0.0172  0.0855
14233TIP3    H164114   4.809   6.380   0.323  0.2542 -0.2117  0.0708
14233TIP3    H264115   4.757   6.307   0.445  0.0394  0.0037  0.1094
14234TIP3   OH264116   4.265   4.127  15.238 -0.0544 -0.1706 -0.1106
14234TIP3    H164117   4.315   4.110  15.158 -1.5998 -0.4740 -1.0391
14234TIP3    H264118   4.179   4.156  15.208 -0.2114  1.1394  1.4570
14235TIP3   OH264119   1.718   3.070  15.840 -0.0180 -0.1104 -0.7600
14235TIP3    H164120   1.703   3.009  15.912  0.2933 -1.4911 -1.8178
14235TIP3    H264121   1.766   3.143  15.880  3.7558 -2.6098 -0.1535
14236TIP3   OH264122   0.403   5.557  15.750  0.6303  0.1340 -0.0272
14236TIP3    H164123   0.483   5.609  15.754  0.9732 -0.4342  0.9239
14236TIP3    H264124   0.423   5.478  15.801 -1.1061  0.7602  1.7537
14237TIP3   OH264125   6.381   3.164   3.803 -0.5704  0.2808 -0.5093
14237TIP3    H164126   6.289   3.189   3.794 -1.3489 -0.0124  4.0214
14237TIP3    H264127   6.417   3.230   3.863  1.3438 -1.2896  0.1727
14238TIP3   OH264128   2.690   1.040   0.453 -0.5296  0.0802  0.3545
14238TIP3    H164129   2.643   1.123   0.461 -1.0059 -0.0664 -0.7285
14238TIP3    H264130   2.740   1.048   0.372 -0.3343 -0.5728  0.4000
14239TIP3   OH264131   1.576   6.351   1.834  0.2013 -0.0432 -0.3577
14239TIP3    H164132   1.571   6.258   1.858  0.8492 -0.5395 -1.9612
14239TIP3    H264133   1.591   6.396   1.916 -1.8131 -1.1658  0.7175
14240TIP3   OH264134   2.558   5.877   4.043 -0.9902  0.1860 -0.2951
14240TIP3    H164135   2.575   5.791   4.080  1.0203  0.1946 -1.0402
14240TIP3    H264136   2.576   5.867   3.949  1.5615  1.8576 -0.0989
14241TIP3   OH264137   1.573   3.887   3.360 -0.1833  0.1159  0.2305
14241TIP3    H164138   1.522   3.857   3.285 -0.9351 -0.1253  0.8184
14241TIP3    H264139   1.651   3.831   3.359 -0.6055 -0.4883  0.1312
14242TIP3   OH264140   2.907   5.204  14.635  0.1479 -0.5294  0.0314
14242TIP3    H164141   2.978   5.145  14.657  0.5757  0.3717  1.1650
14242TIP3    H264142   2.868   5.228  14.719 -0.0872  0.6861 -0.3943
14243TIP3   OH264143   6.689   2.585  15.926 -0.1559  0.2945  0.4452
14243TIP3    H164144   6.731   2.671  15.915 -1.0557  0.8706  1.4021
14243TIP3    H264145   6.674   2.555  15.836  0.8957  0.7628  0.0915
14244TIP3   OH264146   3.106   4.904   6.657 -0.1559 -0.1466 -0.0502
14244TIP3    H164147   3.156   4.896   6.738  0.0114  1.8763  0.0952
14244TIP3    H264148   3.029   4.850   6.670  0.2465 -0.4429  1.1643
14245TIP3   OH264149   3.009   2.964  16.536 -0.1361  0.0441  0.3130
14245TIP3    H164150   2.965   2.979  16.619 -0.6333 -0.3023  0.1146
14245TIP3    H264151   2.987   3.041  16.483  2.7156  1.8496  1.5123
14246TIP3   OH264152   0.883   0.022  15.373  0.3833 -0.2347 -0.0552
14246TIP3    H164153   0.929  -0.058  15.397  0.3247  0.2855  1.9174
14246TIP3    H264154   0.952   0.084  15.349  0.3958 -1.0735 -2.4380
14247TIP3   OH264155   3.784   6.422  11.563 -0.0894 -0.2074 -0.0283
14247TIP3    H164156   3.748   6.510  11.572 -0.1020 -0.2048 -0.1046
14247TIP3    H264157   3.724   6.377  11.503 -1.9020 -1.2654  2.3902
14248TIP3   OH264158   0.122   2.059  13.910 -0.1020  0.0143  0.1611
14248TIP3    H164159   0.041   2.010  13.900 -0.5517  0.8867 -0.6658
14248TIP3    H264160   0.170   2.014  13.980 -1.3864 -0.3782  0.8106
14249TIP3   OH264161   1.658   1.550  11.786  0.0453  0.3543 -0.8117
14249TIP3    H164162   1.570   1.539  11.750  0.2863  0.5477 -1.4846
14249TIP3    H264163   1.673   1.471  11.838 -1.2880  1.2259  1.0047
14250TIP3   OH264164   5.743   2.485   2.627  0.6280 -0.4973  0.5857
14250TIP3    H164165   5.705   2.480   2.715  1.6189  0.2330  1.0692
14250TIP3    H264166   5.733   2.396   2.592  0.7991 -0.9604  1.6825
14251TIP3   OH264167   6.143   4.463  14.034 -0.3277  0.1235  0.1270
14251TIP3    H164168   6.054   4.450  14.001 -0.1993  2.0381 -1.1381
14251TIP3    H264169   6.199   4.442  13.960  0.1759  0.5477  0.3778
14252TIP3   OH264170   2.778   6.481  11.832  0.5692 -0.7130  0.4515
14252TIP3    H164171   2.844   6.532  11.785 -1.0615  1.5706  0.4407
14252TIP3    H264172   2.822   6.450  11.910  1.4419  1.6306  0.9649
14253TIP3   OH264173   0.501   1.508  15.184  0.4074 -0.0172  0.2608
14253TIP3    H164174   0.447   1.446  15.232 -0.2957  0.2135 -0.2074
14253TIP3    H264175   0.540   1.456  15.113  0.5846 -0.1283  0.4408
14254TIP3   OH264176   5.349   3.785   0.514  0.3153 -0.5141  0.3185
14254TIP3    H164177   5.266   3.738   0.503  0.9700 -1.6185 -0.0210
14254TIP3    H264178   5.325   3.877   0.506 -0.7985 -0.8439 -0.4078
14255TIP3   OH264179   6.709   2.272  13.487 -0.2809 -0.1150  0.4194
14255TIP3    H164180   6.779   2.206  13.488 -1.0164 -1.0180 -1.9801
14255TIP3    H264181   6.631   2.225  13.514 -1.0025 -0.5736 -2.1961
14256TIP3   OH264182   1.332   0.943  14.139 -0.5393 -0.4332  0.0726
14256TIP3    H164183   1.423   0.916  14.129  0.2713  1.8026  0.7233
14256TIP3    H264184   1.281   0.870  14.104  1.4442 -2.1893  0.6401
14257TIP3   OH264185   6.485   1.447   5.924  0.0462 -0.0721  0.1416
14257TIP3    H164186   6.555   1.488   5.874  0.7999 -1.9985 -0.4935
14257TIP3    H264187   6.531   1.401   5.995 -0.6491 -0.6158  0.2463
14258TIP3   OH264188   6.396   5.453   5.774  0.6342  0.0590 -0.1652
14258TIP3    H164189   6.450   5.391   5.727  1.8553  0.2917  0.8555
14258TIP3    H264190   6.310   5.412   5.781  0.7697 -0.4723 -1.5201
14259TIP3   OH264191   5.536   2.352   2.294 -0.4700  0.1118  0.1090
14259TIP3    H164192   5.554   2.440   2.260  0.9370 -0.2868 -0.2477
14259TIP3    H264193   5.615   2.302   2.274 -1.2474 -1.2430  0.3190
14260TIP3   OH264194   6.330   0.877  16.342 -0.4216 -0.2539 -0.1934
14260TIP3    H164195   6.386   0.800  16.333 -0.4781 -0.1660 -1.4395
14260TIP3    H264196   6.289   0.866  16.428  0.7569 -0.8076  0.3355
14261TIP3   OH264197   5.279   3.124  14.315 -0.0204 -0.0607  0.9240
14261TIP3    H164198   5.218   3.131  14.241 -0.5103 -1.6469  1.1292
14261TIP3    H264199   5.366   3.126  14.275 -0.2859 -1.8275  0.1556
14262TIP3   OH264200   1.952   4.959   3.904  0.2746 -0.7678 -0.1057
14262TIP3    H164201   1.877   4.935   3.958  0.1446 -1.0937 -0.4292
14262TIP3    H264202   1.919   4.957   3.814  0.9908 -2.1766 -0.3618
14263TIP3   OH264203   4.711   2.551  11.754 -0.0752 -0.2959  0.0623
14263TIP3    H164204   4.646   2.483  11.739  0.1444 -1.1744  2.5259
14263TIP3    H264205   4.795   2.507  11.740  0.0634  0.4713 -1.7800
14264TIP3   OH264206   6.051   3.124   4.097  0.1156  0.1904 -0.1383
14264TIP3    H164207   6.109   3.054   4.069  0.3458  0.8148 -1.2933
14264TIP3    H264208   6.108   3.187   4.142 -0.3062 -0.9795  2.2203
14265TIP3   OH264209   0.344   3.618   5.924 -0.0692  0.0550  0.4342
14265TIP3    H164210   0.308   3.551   5.981  0.3742 -0.7634 -0.2177
14265TIP3    H264211   0.428   3.582   5.895  0.7183  1.3721  0.9500
14266TIP3   OH264212   3.247   2.948   1.102 -0.6313 -0.0869  0.4337
14266TIP3    H164213   3.324   2.932   1.048  0.9378  0.2739  2.4571
14266TIP3    H264214   3.243   3.043   1.110 -1.0263 -0.1284  0.7432
14267TIP3   OH264215   2.112   2.021   2.154 -0.6696  0.1413  0.2934
14267TIP3    H164216   2.163   1.972   2.089 -0.9124 -0.9227  0.8891
14267TIP3    H264217   2.165   2.098   2.173 -0.6682  0.5567 -1.2821
14268TIP3   OH264218   6.192   6.160  13.853  0.9583  0.0864  0.3103
14268TIP3    H164219   6.160   6.204  13.774  0.7695 -1.7584 -0.6984
14268TIP3    H264220   6.236   6.229  13.903  0.5607  1.4251 -1.1145
14269TIP3   OH264221   1.964   2.136  16.421 -0.4187 -0.0598  0.1673
14269TIP3    H164222   1.966   2.205  16.355  1.0206 -0.3928 -0.1635
14269TIP3    H264223   2.053   2.133  16.456 -0.7871 -0.8863  1.0867
14270TIP3   OH264224   4.578   5.551  13.066 -0.2632 -0.3956 -0.3655
14270TIP3    H164225   4.501   5.552  13.122  0.2866 -0.4754  0.4025
14270TIP3    H264226   4.543   5.546  12.977 -1.1739  0.6985 -0.0931
14271TIP3   OH264227   1.797   3.528  15.526 -0.0273  0.1693 -0.0019
14271TIP3    H164228   1.800   3.553  15.434 -1.8565  2.4959  0.4638
14271TIP3    H264229   1.877   3.564  15.563 -0.5344  1.6017 -0.2227
14272TIP3   OH264230   1.118   3.316  17.223  0.3286 -0.3453  0.5141
14272TIP3    H164231   1.130   3.375  17.149 -1.4839 -1.0448 -0.4050
14272TIP3    H264232   1.058   3.249  17.191  1.2462 -1.9492  1.9426
14273TIP3   OH264233   0.053   1.626  17.064  0.5160  0.4333  0.2383
14273TIP3    H164234  -0.016   1.562  17.046  0.9739 -0.5441  1.7210
14273TIP3    H264235   0.023   1.671  17.143  1.5646 -0.0468  0.9385
14274TIP3   OH264236   3.438   0.329   4.822 -0.0188 -0.5376  0.2769
14274TIP3    H164237   3.465   0.415   4.853 -0.1997  0.4926 -2.2103
14274TIP3    H264238   3.362   0.345   4.766 -0.3523 -2.3717  0.1263
14275TIP3   OH264239   4.357   2.828  16.977  0.5496 -0.0322  0.2575
14275TIP3    H164240   4.445   2.799  16.953  0.3413 -1.0816  0.7020
14275TIP3    H264241   4.360   2.923  16.967  1.4606 -0.1318 -0.6066
14276TIP3   OH264242   4.214   4.416   3.164  0.0724 -0.0258 -0.0123
14276TIP3    H164243   4.307   4.423   3.142 -0.4475 -1.0758 -2.9796
14276TIP3    H264244   4.194   4.323   3.157 -1.5236  0.3512 -0.9286
14277TIP3   OH264245   6.065   2.588   5.395  0.1417 -0.6650 -0.1544
14277TIP3    H164246   5.999   2.632   5.342 -2.5497 -1.6174  2.1639
14277TIP3    H264247   6.080   2.646   5.470  0.6852 -1.2282  0.1885
14278TIP3   OH264248   2.509   3.423  12.619 -0.2100 -0.3256 -0.5421
14278TIP3    H164249   2.461   3.394  12.542 -0.1734 -0.1792 -0.6196
14278TIP3    H264250   2.444   3.420  12.690 -0.7146  1.1520 -0.8979
14279TIP3   OH264251   3.282   0.962  11.997 -0.3213  0.2296 -0.5488
14279TIP3    H164252   3.317   0.931  11.913 -2.9992 -2.9909 -0.6966
14279TIP3    H264253   3.188   0.949  11.989 -0.7447  0.5696  2.7105
14280TIP3   OH264254   5.839   4.469   1.371  0.3124  0.0863 -0.0329
14280TIP3    H164255   5.891   4.549   1.385  1.5915 -0.5870 -0.7644
14280TIP3    H264256   5.844   4.454   1.276 -0.4317 -0.5272  0.0196
14281TIP3   OH264257   3.270   0.980  12.574 -0.4140 -0.2558  0.3234
14281TIP3    H164258   3.178   0.991  12.553 -0.4213  0.6641  0.7626
14281TIP3    H264259   3.317   1.027  12.504 -0.3725  1.0627  1.1881
14282TIP3   OH264260   3.961   2.047  14.160  0.8032 -0.0805  0.0291
14282TIP3    H164261   3.970   2.059  14.065 -0.0910 -0.2313 -0.0782
14282TIP3    H264262   3.884   1.991  14.171  0.6662  0.2523  0.8601
14283TIP3   OH264263   6.381   4.399   2.718  0.4669 -0.0585  0.5663
14283TIP3    H164264   6.319   4.472   2.713 -0.4058 -0.6553  2.0854
14283TIP3    H264265   6.457   4.435   2.764  0.6879  0.2925 -0.0590
14284TIP3   OH264266   2.630   5.486  13.002 -0.4932  0.8482  0.4752
14284TIP3    H164267   2.667   5.459  13.086 -3.9671  0.4375  2.0396
14284TIP3    H264268   2.645   5.581  13.000 -2.3121  1.2780  2.7623
14285TIP3   OH264269   5.479   2.922   2.659  0.1363 -0.4505  0.0332
14285TIP3    H164270   5.418   2.903   2.730  1.6609 -2.3980  0.9200
14285TIP3    H264271   5.479   2.842   2.606 -0.5648  0.7645 -1.9338
14286TIP3   OH264272   1.684   5.773   1.105  0.0845  0.3287  0.0401
14286TIP3    H164273   1.755   5.828   1.071 -1.3163  1.0476 -1.9470
14286TIP3    H264274   1.727   5.694   1.135  1.9164  1.4995  0.6677
14287TIP3   OH264275   3.279   3.347  15.291  0.0818 -0.4966  0.1468
14287TIP3    H164276   3.264   3.439  15.314 -1.0320 -0.4192 -0.7823
14287TIP3    H264277   3.368   3.345  15.256  0.1993  0.1764  0.3907
14288TIP3   OH264278   4.175   2.662  16.323 -0.1470  0.7052 -0.1533
14288TIP3    H164279   4.247   2.609  16.288 -0.3705  0.0731  0.3214
14288TIP3    H264280   4.185   2.657  16.418 -1.2249  0.0099 -0.0585
14289TIP3   OH264281   1.144   0.459  12.182  0.7083 -0.2539  0.3944
14289TIP3    H164282   1.170   0.537  12.230  0.4245 -0.7085  1.3001
14289TIP3    H264283   1.211   0.450  12.113  0.9357  0.5764  0.5015
14290TIP3   OH264284   5.157   5.767   5.565 -0.2156 -0.2915  1.1822
14290TIP3    H164285   5.182   5.809   5.647  0.1039  1.0681  0.4193
14290TIP3    H264286   5.237   5.769   5.512 -0.8796  0.4580  0.1928
14291TIP3   OH264287   0.949   2.339   0.471  0.4633  0.2631  0.5245
14291TIP3    H164288   0.857   2.358   0.456  0.8175  2.1918  0.5664
14291TIP3    H264289   0.995   2.391   0.405  1.4864 -2.1420 -0.7732
14292TIP3   OH264290   3.454   0.668  11.859  0.1110 -0.2222  0.5276
14292TIP3    H164291   3.427   0.737  11.798 -1.0491  0.7852  2.0993
14292TIP3    H264292   3.545   0.691  11.882  0.6047 -0.6799 -0.8458
14293TIP3   OH264293   5.295   1.703  17.158 -0.1122  0.0242  0.5975
14293TIP3    H164294   5.306   1.768  17.089  1.8009 -0.9424 -0.1001
14293TIP3    H264295   5.381   1.697  17.199 -0.4980 -1.3566  1.2801
14294TIP3   OH264296   0.095   6.378  14.040  0.6977  0.4705 -0.1735
14294TIP3    H164297   0.133   6.291  14.054 -0.7953  0.0685  1.7588
14294TIP3    H264298   0.067   6.377  13.948  1.1233 -0.9032 -0.3154
14295TIP3   OH264299   6.498   6.654  13.446 -0.1222  0.8003  0.3185
14295TIP3    H164300   6.573   6.711  13.462  1.1615 -0.5275 -0.7311
14295TIP3    H264301   6.464   6.680  13.361  1.8311 -1.3269 -1.2181
14296TIP3   OH264302   2.828   1.995   4.615 -0.2942  0.4985  0.2503
14296TIP3    H164303   2.871   1.912   4.596 -1.8208 -0.8729  2.2653
14296TIP3    H264304   2.871   2.058   4.558  0.9381 -1.6523 -1.3734
14297TIP3   OH264305   5.291   3.003  16.976  0.2775  0.0932 -0.3685
14297TIP3    H164306   5.326   2.914  16.971  0.2519  0.1057 -0.8022
14297TIP3    H264307   5.302   3.038  16.888 -2.1954 -0.4271 -0.9593
14298TIP3   OH264308   6.383   2.530  15.299 -0.4579  0.2815  0.2223
14298TIP3    H164309   6.347   2.589  15.365  1.0347 -0.5611  1.8943
14298TIP3    H264310   6.310   2.510  15.241 -1.1702  3.2178 -0.0576
14299TIP3   OH264311   3.785   0.584   3.002 -0.4892  0.4643  0.8429
14299TIP3    H164312   3.786   0.647   3.075 -1.2143  0.4013  0.9136
14299TIP3    H264313   3.813   0.501   3.042  2.5148  1.1261  0.3397
14300TIP3   OH264314   0.073   1.267   1.153 -0.1292 -0.1378  0.0684
14300TIP3    H164315   0.051   1.258   1.245  1.3081 -1.8129  0.2926
14300TIP3    H264316  -0.011   1.274   1.108 -0.8454  2.1414  1.5726
14301TIP3   OH264317   1.467   6.455   4.453  0.0059  0.1894 -0.1167
14301TIP3    H164318   1.523   6.377   4.455  2.7588  2.0055 -1.0127
14301TIP3    H264319   1.412   6.442   4.376 -0.4010 -1.3486  0.3868
14302TIP3   OH264320   0.167   2.640  12.081  0.1433 -0.2320  0.3576
14302TIP3    H164321   0.247   2.589  12.091 -0.5855 -1.1969  1.4212
14302TIP3    H264322   0.139   2.624  11.991  0.8497 -0.3064  0.1454
14303TIP3   OH264323   0.745   3.547   4.398 -0.2000  0.4884  0.4664
14303TIP3    H164324   0.774   3.494   4.472  1.8442  0.8957  0.0035
14303TIP3    H264325   0.707   3.483   4.337 -0.3433 -0.0624  1.1225
14304TIP3   OH264326   1.073   2.897   5.028  0.2974  0.6327  0.2452
14304TIP3    H164327   1.048   2.989   5.023 -0.5858  0.4460  1.0053
14304TIP3    H264328   0.992   2.849   5.015  0.5991 -0.0245  0.7436
14305TIP3   OH264329   3.694   4.759  13.108 -0.2276  0.2621 -0.1749
14305TIP3    H164330   3.721   4.683  13.057  1.2069  1.4119 -1.2268
14305TIP3    H264331   3.638   4.723  13.177  1.8409 -1.9833  0.4866
14306TIP3   OH264332   4.324   2.400  12.755  0.3694 -0.2365 -0.2381
14306TIP3    H164333   4.297   2.481  12.798  3.1844  0.6112  0.1506
14306TIP3    H264334   4.295   2.410  12.665 -1.2376  0.1825  0.2877
14307TIP3   OH264335   0.283   0.868  13.037  0.3315 -0.0560  0.2720
14307TIP3    H164336   0.195   0.906  13.028 -0.0758 -0.3399  2.5388
14307TIP3    H264337   0.281   0.821  13.120  2.5274 -0.3989  0.1943
14308TIP3   OH264338   1.178   1.353   0.164 -0.4992 -0.1551 -0.4957
14308TIP3    H164339   1.174   1.306   0.247 -3.1989 -0.6030 -0.7855
14308TIP3    H264340   1.227   1.294   0.106  0.3943 -0.3611  0.4363
14309TIP3   OH264341   1.691   4.946  11.600  0.2347  0.0795  0.0592
14309TIP3    H164342   1.726   4.885  11.664 -0.9303  0.5384  1.1825
14309TIP3    H264343   1.754   4.944  11.527  1.2186 -0.9776  0.9060
14310TIP3   OH264344   5.465   1.169   3.691  0.1010 -0.7783  0.5844
14310TIP3    H164345   5.533   1.181   3.758  0.4650 -1.5862  0.3689
14310TIP3    H264346   5.456   1.074   3.682 -0.0970 -0.6819 -0.3584
14311TIP3   OH264347   4.483   2.644   6.294  0.4950  0.0021 -0.4164
14311TIP3    H164348   4.483   2.550   6.275  0.8083 -0.3680  1.2299
14311TIP3    H264349   4.482   2.649   6.389  0.8231  1.6777 -0.4667
14312TIP3   OH264350   6.122   5.942   3.013 -0.3022  0.3402 -0.0597
14312TIP3    H164351   6.118   5.972   2.922  0.8403 -0.9081 -0.5473
14312TIP3    H264352   6.095   5.851   3.010  0.3034  0.1207  0.7693
14313TIP3   OH264353   3.441   4.156   0.339  0.2455  0.7517 -0.2431
14313TIP3    H164354   3.521   4.150   0.286  0.1235 -0.7928 -0.3056
14313TIP3    H264355   3.461   4.104   0.417 -0.9424 -0.3015 -0.6064
14314TIP3   OH264356   1.790   5.116  17.092 -0.4933  0.6899 -0.2435
14314TIP3    H164357   1.772   5.210  17.088 -0.2382  0.7764  0.4844
14314TIP3    H264358   1.760   5.090  17.178  1.2599  0.5074  0.3479
14315TIP3   OH264359   5.496   4.837   4.709  0.2624  0.3952 -0.2601
14315TIP3    H164360   5.544   4.917   4.730  2.4354 -0.6559 -0.8331
14315TIP3    H264361   5.437   4.861   4.639  0.5733  1.5857 -0.1375
14316TIP3   OH264362   6.613   4.655  10.688  0.5338 -0.1663 -0.2000
14316TIP3    H164363   6.590   4.737  10.732  1.5787  0.3248 -0.5397
14316TIP3    H264364   6.642   4.597  10.758 -1.4968 -0.7410  0.2178
14317TIP3   OH264365   2.928   6.355   0.872 -0.2378 -0.1147 -0.2089
14317TIP3    H164366   2.956   6.377   0.784 -1.6422  2.0632 -0.1864
14317TIP3    H264367   2.833   6.340   0.864 -0.5671  1.0980  1.0548
14318TIP3   OH264368   1.657   6.144  13.026  0.1152  0.3560  0.2641
14318TIP3    H164369   1.629   6.236  13.032  1.0714  0.8471 -2.0138
14318TIP3    H264370   1.579   6.097  12.998 -0.0706  0.6601  0.2625
14319TIP3   OH264371   4.902   3.203   1.475 -0.5677  0.3846  0.3560
14319TIP3    H164372   4.849   3.282   1.465  0.6665  1.3978  1.3388
14319TIP3    H264373   4.992   3.234   1.471  0.0073 -1.2924 -1.3538
14320TIP3   OH264374   4.766   4.194   0.633  0.0146  0.4218 -0.4012
14320TIP3    H164375   4.818   4.115   0.651 -0.2878  0.0610 -1.0959
14320TIP3    H264376   4.691   4.186   0.691 -0.4382 -0.2270 -1.0571
14321TIP3   OH264377   6.734   4.818  11.133 -0.6039 -0.2361 -0.5357
14321TIP3    H164378   6.803   4.773  11.182  0.0087 -0.0473 -1.2086
14321TIP3    H264379   6.654   4.770  11.154 -0.7922  1.1703  2.4570
14322TIP3   OH264380   2.024   2.156  12.964 -0.2495  0.0741  0.6065
14322TIP3    H164381   2.108   2.119  12.990 -0.0542  0.4383  0.5020
14322TIP3    H264382   1.960   2.110  13.017  0.0283 -0.1201  0.7750
14323TIP3   OH264383   1.014   0.271  16.159 -0.0071  0.0063 -0.4331
14323TIP3    H164384   0.944   0.258  16.095  0.2722 -0.3840 -0.6661
14323TIP3    H264385   1.044   0.183  16.181  0.5306  0.1743 -0.4745
14324TIP3   OH264386   4.649   5.054   1.893  1.0693  0.2432  0.3925
14324TIP3    H164387   4.727   5.058   1.949  0.8430  1.1220  0.6554
14324TIP3    H264388   4.622   5.145   1.883 -0.4930 -0.0972  1.1059
14325TIP3   OH264389   4.799   2.043  14.661  0.8398  0.0538 -0.8499
14325TIP3    H164390   4.879   2.095  14.667  1.3976 -0.9341  1.5576
14325TIP3    H264391   4.766   2.040  14.751  0.1970 -2.7106 -1.0739
14326TIP3   OH264392   0.722   1.852  16.612  0.1547 -0.2828 -0.2944
14326TIP3    H164393   0.745   1.781  16.553  0.0519 -2.4292  2.0554
14326TIP3    H264394   0.803   1.901  16.623 -0.5054  2.1789 -4.4894
14327TIP3   OH264395   1.557   6.148   5.538  0.0482  0.5240  0.0940
14327TIP3    H164396   1.537   6.190   5.454  1.4969 -0.4925 -0.7989
14327TIP3    H264397   1.648   6.172   5.556  0.2341 -0.5202  0.6099
14328TIP3   OH264398   4.017   1.840  13.571  0.2295 -0.0238 -0.0271
14328TIP3    H164399   4.019   1.771  13.504  1.7350  0.6055 -0.6882
14328TIP3    H264400   3.933   1.884  13.558 -1.1332 -2.1859  0.9448
14329TIP3   OH264401   6.666   1.120  13.275 -0.2331 -0.0990 -0.2786
14329TIP3    H164402   6.704   1.114  13.188 -0.1161  1.9743 -0.4267
14329TIP3    H264403   6.713   1.192  13.317 -2.2569  0.8860  0.4325
14330TIP3   OH264404   5.152   0.904  16.061 -0.3398  0.1107  0.1928
14330TIP3    H164405   5.222   0.917  16.125  0.9951  2.6712 -1.6033
14330TIP3    H264406   5.190   0.844  15.997 -0.7622 -0.4939  0.4993
14331TIP3   OH264407   3.228   1.423  15.196 -0.1208 -0.6155 -0.5494
14331TIP3    H164408   3.139   1.433  15.229 -0.3128 -2.2390 -0.4824
14331TIP3    H264409   3.279   1.396  15.272  0.4131  0.1621 -0.6177
14332TIP3   OH264410   2.664   2.954   2.693 -0.3469  0.1875 -0.2269
14332TIP3    H164411   2.589   2.964   2.635 -0.6587 -0.6493  0.0162
14332TIP3    H264412   2.704   3.041   2.696 -1.2143  0.6087 -0.4809
14333TIP3   OH264413   5.809   1.493   3.602  0.2930 -0.3884 -0.3487
14333TIP3    H164414   5.797   1.398   3.590  1.0701 -0.7106  1.2012
14333TIP3    H264415   5.753   1.515   3.677 -0.0602  0.4449 -0.8426
14334TIP3   OH264416   4.512   0.131  13.970 -0.0650  0.4270 -0.0161
14334TIP3    H164417   4.423   0.164  13.984 -0.7692 -1.5502  0.4357
14334TIP3    H264418   4.561   0.207  13.938 -1.8198  1.6443  0.0696
14335TIP3   OH264419   5.841   5.817  13.164  0.3716 -0.3092 -0.6653
14335TIP3    H164420   5.801   5.866  13.093  1.0684 -1.0528 -1.6024
14335TIP3    H264421   5.889   5.883  13.214 -0.1281  0.2236 -0.8738
14336TIP3   OH264422   1.744   0.141   1.833  0.2891  0.3412 -0.0755
14336TIP3    H164423   1.702   0.059   1.858 -0.2456  0.5548 -0.2581
14336TIP3    H264424   1.678   0.188   1.782  1.1574  0.1556 -1.4396
14337TIP3   OH264425   3.442   3.395  15.904 -0.0600  0.3795 -0.3012
14337TIP3    H164426   3.352   3.369  15.923 -0.5810  0.7058 -2.1467
14337TIP3    H264427   3.435   3.484  15.870  0.9535  0.3966 -0.5135
14338TIP3   OH264428   6.685   4.041   1.317 -0.2844 -0.5969  0.5292
14338TIP3    H164429   6.650   4.079   1.398  0.8462  0.0719  0.7207
14338TIP3    H264430   6.628   4.076   1.248 -1.7489 -1.7928  1.0778
14339TIP3   OH264431   2.765   6.367   3.456 -0.0411 -0.5927 -0.0163
14339TIP3    H164432   2.725   6.313   3.523  0.7177 -0.1432  0.8205
14339TIP3    H264433   2.696   6.428   3.429 -0.0320 -0.0319  1.1797
14340TIP3   OH264434   2.687   0.612   1.321  0.3465 -0.3223  0.0645
14340TIP3    H164435   2.621   0.616   1.252  2.3621 -0.8760 -2.0142
14340TIP3    H264436   2.717   0.521   1.321  2.1870  0.2279 -0.2006
14341TIP3   OH264437   5.093   5.851   5.962  0.5448  0.0586 -0.2378
14341TIP3    H164438   5.145   5.771   5.965  1.2288  0.5034  2.3820
14341TIP3    H264439   5.004   5.823   5.985  0.5942 -0.0712 -0.2036
14342TIP3   OH264440   3.389   3.017  11.311  0.1689  0.4484  0.0111
14342TIP3    H164441   3.373   2.965  11.232  0.2594 -0.2649  0.4495
14342TIP3    H264442   3.452   3.083  11.285 -0.1147  0.4737 -0.6140
14343TIP3   OH264443   2.852   6.596  14.920 -0.1391 -0.2437 -0.2598
14343TIP3    H164444   2.803   6.584  14.839  0.5184 -0.0153 -0.6955
14343TIP3    H264445   2.811   6.672  14.962 -1.2055 -1.0370  0.1817
14344TIP3   OH264446   0.471   5.302   1.199 -0.0876 -0.4495  0.3887
14344TIP3    H164447   0.404   5.341   1.143  0.2639 -0.3517  0.0362
14344TIP3    H264448   0.529   5.255   1.140 -0.5327 -1.5716  0.8184
14345TIP3   OH264449   2.743   2.820  16.310 -0.0071  0.1477 -0.2739
14345TIP3    H164450   2.764   2.828  16.217  0.7636  0.1905 -0.1070
14345TIP3    H264451   2.698   2.902  16.331  1.0628  0.7693 -0.3072
14346TIP3   OH264452   3.392   1.815  12.486 -0.0328 -0.1561  0.6612
14346TIP3    H164453   3.480   1.787  12.460 -0.7325 -1.6637 -0.2579
14346TIP3    H264454   3.382   1.902  12.449  1.4761  0.5424  1.7825
14347TIP3   OH264455   3.893   4.733   4.894  0.3375 -0.6079 -0.5126
14347TIP3    H164456   3.920   4.808   4.840  1.4526  0.1066  0.9577
14347TIP3    H264457   3.847   4.675   4.834 -3.8612  2.8557 -1.0933
14348TIP3   OH264458   6.632   3.111  15.549  0.5505 -0.0853  0.7869
14348TIP3    H164459   6.607   3.139  15.637 -1.2591 -0.7886  0.5441
14348TIP3    H264460   6.614   3.017  15.548 -1.2971  0.2176 -0.8690
14349TIP3   OH264461   2.426   1.300  12.461  0.2529 -0.4624 -0.5861
14349TIP3    H164462   2.360   1.249  12.414 -0.5564 -1.6498  1.6703
14349TIP3    H264463   2.386   1.319  12.545  1.4435  2.0085 -0.4899
14350TIP3   OH264464   2.762   4.381  13.107  0.1969 -0.3935  0.3473
14350TIP3    H164465   2.751   4.344  13.195  1.0480 -1.7200 -0.0747
14350TIP3    H264466   2.728   4.313  13.049  0.6589  0.0029 -0.3932
14351TIP3   OH264467   4.635   2.867  14.645 -0.4126  0.2303  0.1472
14351TIP3    H164468   4.708   2.866  14.583 -1.6958  1.1797 -1.4705
14351TIP3    H264469   4.563   2.825  14.598 -1.1449 -0.0189  1.4338
14352TIP3   OH264470   1.006   3.308   1.312  0.2185 -0.2747 -0.7724
14352TIP3    H164471   1.042   3.395   1.328  1.0904 -0.9458  1.1201
14352TIP3    H264472   0.913   3.316   1.335  0.7613 -0.3686  1.6805
14353TIP3   OH264473   0.292   2.000   1.930  0.1649  0.1415 -0.3098
14353TIP3    H164474   0.339   1.954   1.999  2.4537  1.3253 -0.9445
14353TIP3    H264475   0.361   2.027   1.869 -1.5083  1.0712 -1.8951
14354TIP3   OH264476   2.491   6.540   1.266 -0.5838  0.7757  0.2506
14354TIP3    H164477   2.538   6.494   1.336  0.3454 -2.0365 -2.0117
14354TIP3    H264478   2.559   6.593   1.224 -0.9089  1.6475  0.8058
14355TIP3   OH264479   3.350   1.333  15.452 -0.1708  0.4682 -0.5073
14355TIP3    H164480   3.388   1.245  15.461 -2.0439 -0.8794 -3.6421
14355TIP3    H264481   3.338   1.364  15.541  1.9914 -1.7786  0.6918
14356TIP3   OH264482   2.211   2.957  16.667  0.1776  0.9190 -0.2016
14356TIP3    H164483   2.126   2.999  16.655  0.3015  0.5884 -2.8230
14356TIP3    H264484   2.190   2.868  16.693 -0.1822  1.3421  1.0525
14357TIP3   OH264485   0.525   2.388   4.300  0.0367 -0.4305 -0.4368
14357TIP3    H164486   0.528   2.450   4.227  1.2669  2.6989  2.0604
14357TIP3    H264487   0.616   2.371   4.321 -0.2836 -0.6336  0.8569
14358TIP3   OH264488   6.608   5.894   1.963  0.1478 -0.5263 -0.6216
14358TIP3    H164489   6.665   5.890   2.039 -1.0365  1.8051  0.5055
14358TIP3    H264490   6.546   5.822   1.975  0.1196 -0.3274  0.5358
14359TIP3   OH264491   0.158   2.095  11.227  0.0333 -0.5852  0.3643
14359TIP3    H164492   0.195   2.090  11.139 -1.5623  0.4997 -0.4140
14359TIP3    H264493   0.135   2.005  11.249 -1.8138 -0.6078 -1.3888
14360TIP3   OH264494   3.989   2.196   0.206 -0.4627 -0.3489  0.0565
14360TIP3    H164495   4.068   2.236   0.242  0.6691 -0.1232 -2.4597
14360TIP3    H264496   3.917   2.247   0.244  0.4869 -0.9540  2.8765
14361TIP3   OH264497   6.183   1.174  13.851 -0.2406 -0.1671  0.7834
14361TIP3    H164498   6.121   1.105  13.826 -1.4466  0.6017  1.5575
14361TIP3    H264499   6.258   1.160  13.793 -0.5142 -2.0104  0.8007
14362TIP3   OH264500   2.683   2.141   1.033 -0.4166  0.8294 -0.2363
14362TIP3    H164501   2.733   2.118   1.111  3.3476  2.6978 -1.8492
14362TIP3    H264502   2.593   2.151   1.065  0.9575  2.0522  4.0131
14363TIP3   OH264503   0.239   5.237  11.254 -0.4835 -0.0898 -0.0120
14363TIP3    H164504   0.298   5.310  11.238  1.9457 -1.9286  0.0014
14363TIP3    H264505   0.200   5.217  11.169 -0.1784  0.4244 -0.2714
14364TIP3   OH264506   5.640   4.672   3.310  0.1393 -0.6196  0.4581
14364TIP3    H164507   5.714   4.626   3.271 -0.8620  0.2926 -2.8244
14364TIP3    H264508   5.658   4.765   3.292 -0.8459 -0.2054  1.4795
14365TIP3   OH264509   2.087   3.642   3.699 -0.3253 -0.0397 -0.1228
14365TIP3    H164510   2.028   3.567   3.710 -0.9701  0.3555 -0.8245
14365TIP3    H264511   2.127   3.630   3.613  0.3331 -0.0935  0.1808
14366TIP3   OH264512   0.114   6.619  16.186 -0.9516 -0.9592  0.6204
14366TIP3    H164513   0.203   6.652  16.196 -1.2181  0.1445 -0.4119
14366TIP3    H264514   0.123   6.541  16.132 -0.4312 -2.0078  2.1537
14367TIP3   OH264515   0.767   5.084  14.870  0.4642  0.3656 -0.4767
14367TIP3    H164516   0.693   5.062  14.926  0.0149 -0.9321 -1.5346
14367TIP3    H264517   0.733   5.077  14.780  1.3947  1.5136 -0.9419
14368TIP3   OH264518   3.420   3.217   0.741 -0.8461 -0.3629  1.0151
14368TIP3    H164519   3.468   3.144   0.702 -0.6383  1.6638 -3.0455
14368TIP3    H264520   3.430   3.204   0.836  4.2426 -2.3129  0.5383
14369TIP3   OH264521   5.856   4.721   5.517  0.1062 -0.4576 -0.4659
14369TIP3    H164522   5.905   4.768   5.449  0.9466 -0.8768 -0.1589
14369TIP3    H264523   5.765   4.728   5.488  0.1959  1.2820 -0.4729
14370TIP3   OH264524   1.341   4.677   2.893  0.2033 -0.2967 -0.0969
14370TIP3    H164525   1.394   4.755   2.908 -1.9034  0.9720  1.3121
14370TIP3    H264526   1.293   4.664   2.975 -2.5689 -0.5789 -1.6445
14371TIP3   OH264527   0.254   1.873   1.375 -0.3236 -0.3516 -0.0493
14371TIP3    H164528   0.183   1.890   1.313 -1.2975 -0.9506  0.8580
14371TIP3    H264529   0.326   1.929   1.346 -1.5762  1.1693 -0.2954
14372TIP3   OH264530   5.963   6.082   1.475  0.5043 -0.3133 -0.1592
14372TIP3    H164531   5.959   6.069   1.570  2.1113  0.2288  0.0169
14372TIP3    H264532   5.874   6.068   1.445 -0.5521  1.7033  1.7370
14373TIP3   OH264533   4.207   4.406   5.870 -0.0056 -0.4955  0.0405
14373TIP3    H164534   4.250   4.435   5.950  0.4038  0.9520 -0.6793
14373TIP3    H264535   4.202   4.311   5.879  2.8975 -0.7030  0.3774
14374TIP3   OH264536   1.510   0.923   1.042  0.4535 -0.2414  0.3410
14374TIP3    H164537   1.491   1.011   1.010  1.0436 -0.0288  0.5656
14374TIP3    H264538   1.570   0.886   0.978 -0.4418 -0.7971 -0.1982
14375TIP3   OH264539   4.458   2.994   0.728 -0.3767  0.8936  0.3700
14375TIP3    H164540   4.411   3.067   0.687  1.5721  2.5897  1.0069
14375TIP3    H264541   4.482   3.026   0.814  0.1098 -0.7240  0.8802
14376TIP3   OH264542   0.635   3.576  11.625 -0.2535 -0.1874 -0.1258
14376TIP3    H164543   0.565   3.585  11.560  1.3070  2.1454 -1.6473
14376TIP3    H264544   0.715   3.566  11.572  0.9711  0.9445  1.4212
14377TIP3   OH264545   1.241   5.594  14.403 -0.3120  0.3491  0.3952
14377TIP3    H164546   1.159   5.643  14.399 -0.8139 -0.4619  0.5861
14377TIP3    H264547   1.270   5.602  14.494 -1.2101 -1.0020  0.8195
14378TIP3   OH264548   1.737   2.576   0.249  0.4593  0.1956  0.5113
14378TIP3    H164549   1.810   2.516   0.252 -0.6857 -1.3913 -1.2189
14378TIP3    H264550   1.775   2.660   0.222  1.9097 -0.0122  1.8230
14379TIP3   OH264551   1.058   2.339   5.450  0.4025  0.3358 -0.2555
14379TIP3    H164552   0.977   2.293   5.470  0.4228  1.3782  2.6579
14379TIP3    H264553   1.126   2.292   5.498  0.8928  1.5943  0.3448
14380TIP3   OH264554   1.930   4.142   5.461 -0.5583  0.1966  0.4439
14380TIP3    H164555   1.932   4.188   5.545  0.6329  0.2684  0.3983
14380TIP3    H264556   1.884   4.201   5.402  2.3764  2.2109 -0.0670
14381TIP3   OH264557   2.904   4.961  12.301 -0.1357  0.0961  0.2567
14381TIP3    H164558   2.902   4.881  12.353 -1.8970 -0.3411 -0.4148
14381TIP3    H264559   2.984   4.954  12.249  0.4900 -0.5095  1.2764
14382TIP3   OH264560   2.240   3.612   6.222 -0.3986 -0.1790  0.0605
14382TIP3    H164561   2.215   3.609   6.314 -0.0148 -0.0491  0.1711
14382TIP3    H264562   2.335   3.626   6.223 -0.2403 -1.1334 -0.3409
14383TIP3   OH264563   2.283   6.208  12.539 -0.6712 -0.3515  0.1892
14383TIP3    H164564   2.245   6.210  12.451 -0.9079  1.2773  0.3000
14383TIP3    H264565   2.211   6.181  12.596 -1.6423  2.3126  0.3419
14384TIP3   OH264566   2.963   3.136  11.803 -0.0131 -0.1924  0.2167
14384TIP3    H164567   3.043   3.116  11.754 -0.4507 -2.8535  0.4450
14384TIP3    H264568   2.898   3.075  11.769 -1.6016  1.0089  0.9821
14385TIP3   OH264569   0.734   2.187  12.804  0.4291  0.2537  0.3709
14385TIP3    H164570   0.747   2.276  12.836  1.5609 -0.2899  1.5165
14385TIP3    H264571   0.730   2.196  12.709  1.2227  1.4477  0.4308
14386TIP3   OH264572   3.649   1.745   1.755 -0.4114  0.2841 -0.2261
14386TIP3    H164573   3.674   1.658   1.724  1.0147 -0.0478  1.6392
14386TIP3    H264574   3.562   1.734   1.792 -0.8586  0.0169 -1.3152
14387TIP3   OH264575   1.080   2.672  17.361 -0.8686 -0.4351  0.3316
14387TIP3    H164576   1.111   2.606  17.298 -0.2716 -0.1491  0.3236
14387TIP3    H264577   1.160   2.708  17.399 -1.1232  1.1883 -0.5840
14388TIP3   OH264578   5.467   3.934   5.238 -0.1321  0.2989  0.0853
14388TIP3    H164579   5.497   3.849   5.206 -0.5303 -0.4486  1.6194
14388TIP3    H264580   5.490   3.995   5.168  0.7705 -0.9538 -0.7561
14389TIP3   OH264581   2.790   1.464   0.445  0.3594  0.4499  0.4446
14389TIP3    H164582   2.784   1.538   0.385 -0.0605  1.4725  1.6980
14389TIP3    H264583   2.775   1.502   0.532  1.7150 -0.8459  1.3005
14390TIP3   OH264584   1.083   5.576  16.344 -0.0336  0.1551  0.0866
14390TIP3    H164585   1.116   5.556  16.256  0.9460 -0.3870  0.5610
14390TIP3    H264586   1.071   5.490  16.385  1.9103  0.4028  1.3247
14391TIP3   OH264587   1.066   0.996  11.096 -0.3870  0.8408 -0.3576
14391TIP3    H164588   1.101   1.083  11.076 -0.0241  0.9546  0.6900
14391TIP3    H264589   1.122   0.963  11.167 -1.8156  0.6379  0.7213
14392TIP3   OH264590   4.902   0.463  14.795  0.1766  0.4804 -0.3496
14392TIP3    H164591   4.991   0.499  14.785 -0.1031  2.0701  2.0787
14392TIP3    H264592   4.864   0.472  14.708  1.8776  1.2603 -1.0809
14393TIP3   OH264593   1.099   3.136  12.442 -0.0150  0.1084 -0.6462
14393TIP3    H164594   1.024   3.195  12.436 -0.4252 -0.4512 -1.1315
14393TIP3    H264595   1.170   3.191  12.474 -0.4932  0.7736 -0.7043
14394TIP3   OH264596   2.308   3.241   3.034 -0.1834 -0.6965  0.7137
14394TIP3    H164597   2.268   3.295   2.966  1.5892 -0.1234  0.0612
14394TIP3    H264598   2.388   3.288   3.058 -0.3233 -1.3293  2.6045
14395TIP3   OH264599   4.447   1.033  16.364 -0.6837  0.9772 -1.0346
14395TIP3    H164600   4.505   1.103  16.395 -2.2562  0.9944  2.3072
14395TIP3    H264601   4.506   0.966  16.330  1.1029  2.2972 -0.6594
14396TIP3   OH264602   3.294   1.868   2.993  0.1615 -0.0506  1.2362
14396TIP3    H164603   3.274   1.872   2.899  1.3234  1.2918  1.0010
14396TIP3    H264604   3.219   1.909   3.035  0.1127  0.3427  0.7865
14397TIP3   OH264605   6.487   3.575   4.665  0.8170 -0.6331 -0.1427
14397TIP3    H164606   6.554   3.535   4.610  0.7835 -1.8783  0.6695
14397TIP3    H264607   6.530   3.650   4.705  1.8958 -1.6571  0.6941
14398TIP3   OH264608   0.066   6.175  13.179 -0.0034 -0.7714  0.1215
14398TIP3    H164609   0.101   6.245  13.123  0.0622 -0.8250  0.0951
14398TIP3    H264610  -0.000   6.218  13.233  1.2439 -0.3092  1.3470
14399TIP3   OH264611   2.433   3.141   2.687 -0.2047  0.2544 -0.1716
14399TIP3    H164612   2.419   3.096   2.770 -2.1124 -2.9321 -2.0461
14399TIP3    H264613   2.368   3.211   2.686  0.8223  1.3183  1.5312
14400TIP3   OH264614   3.308   2.363   0.411 -0.6345  0.2713  0.1311
14400TIP3    H164615   3.393   2.323   0.428 -0.1706 -0.1131 -2.5768
14400TIP3    H264616   3.245   2.292   0.424 -0.8698  0.9586  3.8181
14401TIP3   OH264617   5.518   4.660  10.851  0.6501 -0.1797 -0.0913
14401TIP3    H164618   5.444   4.721  10.847  0.6106 -0.2770 -0.8964
14401TIP3    H264619   5.524   4.637  10.944 -0.0006  0.2291  0.0611
14402TIP3   OH264620   5.238   2.252  16.845 -0.1904 -0.3736  1.4094
14402TIP3    H164621   5.242   2.302  16.926 -0.7358  1.7883  0.1856
14402TIP3    H264622   5.291   2.303  16.783  1.1415 -2.5396  0.6550
14403TIP3   OH264623   4.150   4.847   1.167  0.2876 -0.0712  0.0529
14403TIP3    H164624   4.238   4.883   1.151  1.0158 -1.8363 -0.1112
14403TIP3    H264625   4.091   4.914   1.133  1.5399  1.4004  0.6485
14404TIP3   OH264626   5.364   1.879   1.241  0.2116 -0.7173 -0.2823
14404TIP3    H164627   5.308   1.808   1.208  0.0588 -0.1209 -1.3483
14404TIP3    H264628   5.345   1.953   1.184  1.2737 -0.1663  0.0515
14405TIP3   OH264629   2.972   1.995   0.012  0.3932  0.1517  0.1471
14405TIP3    H164630   2.980   2.021  -0.080  0.1162  0.6754  0.2698
14405TIP3    H264631   3.054   2.024   0.052 -0.0426  1.1139  0.3493
14406TIP3   OH264632   5.357   2.290   5.506  0.0384 -0.4421 -0.2807
14406TIP3    H164633   5.300   2.239   5.562  0.1806 -1.1837 -0.8032
14406TIP3    H264634   5.301   2.317   5.433  0.5979 -2.1613 -1.4054
14407TIP3   OH264635   2.452   2.075  16.890 -0.4995  0.0995  0.5701
14407TIP3    H164636   2.401   1.995  16.905 -0.7213  0.2009  0.3674
14407TIP3    H264637   2.416   2.138  16.952 -0.8217  0.2599  0.2171
14408TIP3   OH264638   4.629   0.175   0.520 -0.1960 -0.3051  0.4768
14408TIP3    H164639   4.683   0.253   0.529  0.5817 -0.8350  0.4676
14408TIP3    H264640   4.561   0.185   0.587 -0.3921  0.6064  0.1514
14409TIP3   OH264641   3.286   1.812  14.196 -0.1459  0.0985 -0.0623
14409TIP3    H164642   3.266   1.720  14.179 -1.1484  0.0673  1.1313
14409TIP3    H264643   3.375   1.811  14.229 -0.0849 -0.4325 -0.2264
14410TIP3   OH264644   2.369   3.710   4.382  0.5941 -0.4159 -0.2451
14410TIP3    H164645   2.442   3.711   4.320 -0.4954 -0.4989 -1.5606
14410TIP3    H264646   2.343   3.802   4.389 -0.2652 -0.5810 -1.1190
14411TIP3   OH264647   5.889   5.284   6.019 -0.0123 -0.4173  0.4481
14411TIP3    H164648   5.807   5.329   5.999 -0.3093 -1.4739 -0.8738
14411TIP3    H264649   5.862   5.200   6.056  0.5187 -0.0547  1.7068
14412TIP3   OH264650   5.885   4.043  16.114 -0.1500  0.4209  0.0686
14412TIP3    H164651   5.969   4.086  16.100  0.8041 -1.2467  0.3914
14412TIP3    H264652   5.821   4.101  16.074  0.9070  2.6971  1.4818
14413TIP3   OH264653   1.827   5.016   5.216  0.3291 -0.2333 -0.6172
14413TIP3    H164654   1.913   5.034   5.179  0.6060  1.1149  0.5766
14413TIP3    H264655   1.846   4.972   5.300 -0.1512 -0.1743 -0.4756
14414TIP3   OH264656   5.758   0.401   0.244 -0.1436  0.3885 -0.2486
14414TIP3    H164657   5.663   0.392   0.245 -0.0311 -1.1034  0.9727
14414TIP3    H264658   5.777   0.449   0.163 -1.8325 -0.4792 -1.2154
14415TIP3   OH264659   1.489   5.114   4.216 -0.5863  0.0947 -0.3890
14415TIP3    H164660   1.552   5.157   4.274 -1.3500  0.7834 -0.0486
14415TIP3    H264661   1.542   5.079   4.144  0.1429  0.9591 -0.2863
14416TIP3   OH264662   4.871   4.090  14.683 -0.4187  0.6251  0.0619
14416TIP3    H164663   4.852   4.181  14.659 -2.3347  0.0722 -0.7721
14416TIP3    H264664   4.845   4.083  14.775 -0.1401  0.9620  0.1644
14417TIP3   OH264665   1.668   6.170   3.856  0.0388 -0.0323  0.2582
14417TIP3    H164666   1.648   6.081   3.885 -1.0675  0.5379  1.3234
14417TIP3    H264667   1.756   6.163   3.819  0.5347 -1.3086  1.5536
14418TIP3   OH264668   1.161   1.007  13.415  0.1780 -0.5832  0.1083
14418TIP3    H164669   1.184   0.929  13.464  0.9720  0.4923  1.5371
14418TIP3    H264670   1.203   1.079  13.463 -2.4222  1.0024  0.1978
14419TIP3   OH264671   1.105   4.633  13.492 -0.3830  0.3972  0.1131
14419TIP3    H164672   1.084   4.652  13.400  0.2537 -0.8368 -0.3015
14419TIP3    H264673   1.042   4.565  13.517  0.1544 -0.0442  0.2637
14420TIP3   OH264674   3.834   4.123  15.530 -0.0901  0.0981  0.6656
14420TIP3    H164675   3.888   4.052  15.497 -2.4310 -1.2297 -0.5511
14420TIP3    H264676   3.778   4.148  15.456 -0.3211  2.2513  1.4788
14421TIP3   OH264677   3.055   3.796  13.119 -0.2878  0.6684  0.2851
14421TIP3    H164678   3.031   3.817  13.029  0.7613  0.3506 -0.0870
14421TIP3    H264679   2.973   3.772  13.161 -0.8314  1.1010 -0.5050
14422TIP3   OH264680   0.910   6.433   0.961  0.2750 -0.3353 -0.7469
14422TIP3    H164681   0.911   6.481   1.044  0.7830 -0.9174 -0.4051
14422TIP3    H264682   0.982   6.371   0.969  0.8370  0.1194 -1.9378
14423TIP3   OH264683   3.795   3.411   1.749  0.3056 -0.0016 -0.0889
14423TIP3    H164684   3.743   3.367   1.816 -0.0893  2.6489  1.5071
14423TIP3    H264685   3.783   3.358   1.670 -1.6706 -1.5991  1.1993
14424TIP3   OH264686   0.288   3.209   1.474 -0.7964 -0.4410  0.1033
14424TIP3    H164687   0.343   3.268   1.526 -0.1012  0.3821 -1.4894
14424TIP3    H264688   0.259   3.143   1.536  1.2950 -0.4291  1.2017
14425TIP3   OH264689   0.766   2.145  15.843 -0.1059 -0.5024 -0.4542
14425TIP3    H164690   0.692   2.106  15.796 -0.8564 -1.1751  1.1947
14425TIP3    H264691   0.745   2.131  15.935  0.7417  1.8097  0.1542
14426TIP3   OH264692   1.119   3.694   2.253  0.1231  0.0143 -0.2418
14426TIP3    H164693   1.128   3.768   2.314 -0.4952 -1.9168  2.3612
14426TIP3    H264694   1.204   3.688   2.209  0.6543  1.3677  0.5484
14427TIP3   OH264695   5.655   4.861   5.881  0.1518 -0.2852  0.0866
14427TIP3    H164696   5.650   4.907   5.797  3.1839 -0.9213 -0.5643
14427TIP3    H264697   5.709   4.917   5.936 -1.9441  0.2168  1.7916
14428TIP3   OH264698   2.699   0.655  14.687 -0.8551  0.3492  0.0156
14428TIP3    H164699   2.609   0.669  14.656 -0.7109  1.3736  0.0025
14428TIP3    H264700   2.743   0.613  14.613 -1.7926 -2.0545  0.7267
14429TIP3   OH264701   5.055   6.489  16.695 -0.2301 -0.3853  0.1078
14429TIP3    H164702   5.038   6.408  16.648 -1.1075  0.3016 -0.7923
14429TIP3    H264703   5.136   6.523  16.657 -0.4518 -0.2945 -0.2921
14430TIP3   OH264704   6.567   2.704  17.104 -0.2759  0.1589  0.1660
14430TIP3    H164705   6.502   2.676  17.168 -1.3270 -1.2511 -1.4291
14430TIP3    H264706   6.634   2.636  17.106  0.6799  1.0776  1.0582
14431TIP3   OH264707   1.816   1.890  16.057 -0.3860 -0.5756 -0.1811
14431TIP3    H164708   1.725   1.861  16.050 -0.0674 -1.8703  0.6590
14431TIP3    H264709   1.838   1.881  16.150  1.3105 -2.7343 -0.6832
14432TIP3   OH264710   3.174   3.812  15.211  1.0945  1.0196  0.1556
14432TIP3    H164711   3.185   3.740  15.148  1.1139  1.3709 -0.2512
14432TIP3    H264712   3.107   3.867  15.172  2.3788  2.2117 -0.4844
14433TIP3   OH264713   2.902   6.625   1.216 -0.1165  0.4453 -0.0950
14433TIP3    H164714   2.947   6.548   1.253 -1.5104 -0.6197 -0.5086
14433TIP3    H264715   2.824   6.635   1.271 -0.5192  0.8860 -0.7387
14434TIP3   OH264716   4.297   5.499  15.361 -0.2288  0.2462  0.2768
14434TIP3    H164717   4.341   5.584  15.357  1.8345 -0.7933 -0.6946
14434TIP3    H264718   4.318   5.465  15.448 -1.7126  1.0133  0.9698
14435TIP3   OH264719   3.436   0.170   0.238  0.6884  0.7175  0.8654
14435TIP3    H164720   3.428   0.075   0.246 -1.4521  0.7444 -0.1797
14435TIP3    H264721   3.411   0.204   0.324 -0.4115  0.3668  0.6996
14436TIP3   OH264722   2.374   4.457   4.073  0.4069  0.1161 -0.1407
14436TIP3    H164723   2.438   4.452   4.003  1.4572 -0.1748  0.8038
14436TIP3    H264724   2.306   4.394   4.049  0.6954  0.1085 -0.9424
14437TIP3   OH264725   1.409   4.066  14.114  0.2676  0.6252 -0.0860
14437TIP3    H164726   1.400   4.148  14.162  0.2910 -0.1297  1.2330
14437TIP3    H264727   1.428   4.000  14.180  0.6838 -0.3916 -1.1709
14438TIP3   OH264728   2.293   2.852  12.824  0.4599 -0.4894 -0.1969
14438TIP3    H164729   2.227   2.843  12.755 -0.3594  1.2714  0.2991
14438TIP3    H264730   2.296   2.946  12.841  0.5484 -0.8910  2.2590
14439TIP3   OH264731   4.691   3.847  13.397  0.7224 -0.2135 -0.2911
14439TIP3    H164732   4.710   3.798  13.477 -2.2838 -0.7023  0.2565
14439TIP3    H264733   4.710   3.938  13.420 -1.8944 -0.0494  1.8077
14440TIP3   OH264734   6.478   3.853   1.747 -0.0224 -0.0590  0.0711
14440TIP3    H164735   6.534   3.820   1.677 -0.6773  0.7390 -0.8673
14440TIP3    H264736   6.461   3.944   1.723  0.0784  0.3604  1.5108
14441TIP3   OH264737   5.443   2.106   5.151 -0.0212  0.0546  0.0626
14441TIP3    H164738   5.496   2.088   5.074  0.7444 -0.1227  0.6176
14441TIP3    H264739   5.353   2.109   5.118  0.1036 -1.7467 -0.5587
14442TIP3   OH264740   2.788   1.300  11.967 -0.0268  0.2037  0.2268
14442TIP3    H164741   2.751   1.226  12.014  1.7432 -0.9065 -0.0142
14442TIP3    H264742   2.824   1.357  12.035 -2.2387  1.4018  0.4755
14443TIP3   OH264743   0.326   4.012  17.226 -0.0782 -0.4241 -0.8677
14443TIP3    H164744   0.404   4.067  17.217 -1.3935  1.4576 -1.3400
14443TIP3    H264745   0.342   3.938  17.168  0.8007  0.6152 -2.0082
14444TIP3   OH264746   2.286   4.518  11.697  0.2204  0.3455 -0.2200
14444TIP3    H164747   2.368   4.566  11.687  0.0568  1.4581  2.7842
14444TIP3    H264748   2.237   4.567  11.763 -1.4816 -2.1006  0.4873
14445TIP3   OH264749   3.221   1.996  15.360  0.5398  0.5278  0.6444
14445TIP3    H164750   3.216   1.911  15.316 -1.6886  1.1362 -0.4280
14445TIP3    H264751   3.285   2.046  15.308 -1.0943  0.7993 -1.2231
14446TIP3   OH264752   4.218   4.306   1.666 -0.0689 -0.6868  0.0246
14446TIP3    H164753   4.142   4.268   1.710 -0.1430  0.0357  0.5297
14446TIP3    H264754   4.182   4.377   1.612 -0.1375 -2.2424 -2.1270
14447TIP3   OH264755   3.597   1.084  13.638  0.5693  0.3629  0.5625
14447TIP3    H164756   3.691   1.104  13.639  0.5216  0.8569 -1.5179
14447TIP3    H264757   3.581   1.045  13.553 -0.8042 -1.5673  1.6219
14448TIP3   OH264758   4.235   2.449   4.429  0.1226 -0.2685  0.0481
14448TIP3    H164759   4.320   2.446   4.473  1.0509 -1.4717 -1.7271
14448TIP3    H264760   4.253   2.419   4.340 -2.3015 -1.3572 -0.1530
14449TIP3   OH264761   1.157   5.874  11.285 -0.3305 -0.3598 -0.2347
14449TIP3    H164762   1.123   5.952  11.240 -2.1848 -0.3254  1.0834
14449TIP3    H264763   1.245   5.899  11.313 -0.9224  1.3302  0.2585
14450TIP3   OH264764   4.733   1.534   1.910  0.7918  0.0125 -0.1129
14450TIP3    H164765   4.656   1.587   1.890  0.7799  0.5815  1.3679
14450TIP3    H264766   4.796   1.595   1.947  1.7103 -0.5796 -0.6270
14451TIP3   OH264767   3.149   1.894   0.609  0.4409  0.8069  0.3093
14451TIP3    H164768   3.154   1.914   0.703  1.6713  3.2804 -0.2067
14451TIP3    H264769   3.218   1.829   0.595 -0.5140 -0.4687  1.2700
14452TIP3   OH264770   4.080   1.748  11.945  0.4643  0.3658 -0.4716
14452TIP3    H164771   4.080   1.680  11.878 -1.3004 -0.7606  0.5819
14452TIP3    H264772   3.999   1.796  11.931  0.3817  0.5137  0.4531
14453TIP3   OH264773   3.347   5.524  13.165  0.2218 -0.7949  0.3046
14453TIP3    H164774   3.312   5.541  13.078  0.3974  1.7514  0.6535
14453TIP3    H264775   3.379   5.434  13.161 -1.9740 -1.5955 -1.4826
14454TIP3   OH264776   5.923   5.624   1.132  0.3641 -0.7063 -0.0460
14454TIP3    H164777   5.878   5.580   1.060 -0.1339 -1.0072  0.4483
14454TIP3    H264778   5.855   5.673   1.177  0.9556  0.8246 -0.7535
14455TIP3   OH264779   3.805   5.209   2.216 -0.0844  0.3786 -0.7540
14455TIP3    H164780   3.808   5.193   2.310 -0.4062 -0.1630 -0.8310
14455TIP3    H264781   3.871   5.150   2.179 -0.8089 -0.2978 -0.9800
14456TIP3   OH264782   1.448   4.340   2.051 -0.2620  0.2876  0.3801
14456TIP3    H164783   1.523   4.286   2.024 -1.6392 -1.2236 -0.6548
14456TIP3    H264784   1.420   4.301   2.134  0.1725  0.9397  0.8362
14457TIP3   OH264785   2.909   0.127   5.596  0.0077  0.4746  0.0111
14457TIP3    H164786   2.974   0.197   5.587  0.7864 -0.3293 -0.8021
14457TIP3    H264787   2.948   0.052   5.552  0.0655 -1.0926  2.5250
14458TIP3   OH264788   4.687   0.322   3.670 -0.7709 -0.2899  0.1662
14458TIP3    H164789   4.638   0.285   3.744  1.2095 -1.5959  0.8920
14458TIP3    H264790   4.773   0.344   3.706  0.4503 -1.4777 -1.8394
14459TIP3   OH264791   3.256   0.126   4.923  0.6950  0.1646 -0.0145
14459TIP3    H164792   3.236   0.196   4.984 -2.5241  0.7743 -1.5527
14459TIP3    H264793   3.336   0.154   4.879  0.9453  1.5483  1.2486
14460TIP3   OH264794   4.366   3.675  15.552  0.1419 -0.0157  0.3854
14460TIP3    H164795   4.279   3.683  15.513  0.1914  0.5830  0.3897
14460TIP3    H264796   4.399   3.765  15.556  0.3857 -0.1391  1.2502
14461TIP3   OH264797   2.366   6.229   4.145  0.1712  0.3532 -0.4914
14461TIP3    H164798   2.384   6.149   4.194 -0.0451 -0.4528 -1.6733
14461TIP3    H264799   2.421   6.223   4.067 -0.3325  1.0355 -0.9178
14462TIP3   OH264800   6.227   0.077   1.657 -0.2528  0.4221 -0.3004
14462TIP3    H164801   6.176  -0.002   1.643 -2.0536  1.2979  1.0044
14462TIP3    H264802   6.257   0.102   1.569  0.1304 -1.5031 -0.7677
14463TIP3   OH264803   4.011   6.658  11.375  0.0474 -0.5834 -0.0295
14463TIP3    H164804   3.936   6.602  11.357 -0.3402 -0.6962  1.7843
14463TIP3    H264805   4.008   6.673  11.469  1.6142  0.4063 -0.1016
14464TIP3   OH264806   0.083   1.334   2.054  0.4700  0.5182 -0.6099
14464TIP3    H164807   0.081   1.366   1.964  0.2685  0.1573 -0.7332
14464TIP3    H264808   0.176   1.319   2.073  0.6658  1.9642 -0.2687
14465TIP3   OH264809   4.301   1.695  16.270 -0.1143 -0.0405  0.4656
14465TIP3    H164810   4.391   1.673  16.291 -0.3648 -0.4968  1.0949
14465TIP3    H264811   4.250   1.621  16.304 -0.6745 -0.0596 -0.3696
14466TIP3   OH264812   0.144   1.873   2.314 -0.0617  0.3965  0.0236
14466TIP3    H164813   0.076   1.927   2.274 -0.7781 -0.1529  0.4675
14466TIP3    H264814   0.113   1.783   2.302  1.0993  0.0666 -0.6877
14467TIP3   OH264815   5.072   4.753  16.292  0.0623 -0.1924 -0.0199
14467TIP3    H164816   5.122   4.814  16.347  0.2827 -2.2352  2.1685
14467TIP3    H264817   5.058   4.802  16.211  1.0365  2.4104  1.2434
14468TIP3   OH264818   0.312   2.804   5.170 -0.3302  0.4542 -0.5889
14468TIP3    H164819   0.237   2.832   5.118 -1.3736 -1.5848 -0.2854
14468TIP3    H264820   0.282   2.810   5.261  0.8319  2.1926 -0.2851
14469TIP3   OH264821   3.691   5.248  11.233  1.0713 -0.6582  0.0372
14469TIP3    H164822   3.724   5.289  11.154 -1.4911  0.6823 -0.4457
14469TIP3    H264823   3.639   5.316  11.276  0.5268 -2.0298  1.6930
14470TIP3   OH264824   6.736   2.616  13.951 -0.8879  0.1530  0.0760
14470TIP3    H164825   6.759   2.526  13.926 -1.5353 -0.1249  0.4436
14470TIP3    H264826   6.728   2.662  13.868 -0.6544 -0.1572 -0.1225
14471TIP3   OH264827   1.633   2.265   3.502  0.1568  0.2215 -0.2117
14471TIP3    H164828   1.650   2.322   3.577 -0.4011 -0.1252  0.1865
14471TIP3    H264829   1.541   2.282   3.479  0.0754 -0.2907 -0.2813
14472TIP3   OH264830   4.762   2.303  11.455  0.3266 -0.1054  0.0030
14472TIP3    H164831   4.856   2.321  11.461  0.1844  0.3068  1.3917
14472TIP3    H264832   4.720   2.381  11.490 -0.5390 -0.3033 -0.5686
14473TIP3   OH264833   0.165   4.652   3.703 -0.3986 -0.6147  0.4239
14473TIP3    H164834   0.164   4.740   3.665 -1.3372 -0.4790  0.7267
14473TIP3    H264835   0.073   4.628   3.711 -0.1545 -1.6502  0.3196
14474TIP3   OH264836   1.487   0.680  13.589  0.7760  0.1500 -0.5039
14474TIP3    H164837   1.485   0.715  13.500  0.6886  1.1269 -0.1355
14474TIP3    H264838   1.463   0.588  13.579 -2.9231  1.0299 -1.1333
14475TIP3   OH264839   3.108   3.238   3.141 -0.2439 -0.6615 -0.4344
14475TIP3    H164840   3.151   3.168   3.091 -1.0554 -2.0745  0.7741
14475TIP3    H264841   3.015   3.224   3.127 -0.4126  1.0452 -1.2651
14476TIP3   OH264842   5.077   5.277  14.187 -0.1978 -0.2022 -0.0987
14476TIP3    H164843   5.022   5.235  14.121 -1.0812  1.0243 -0.1754
14476TIP3    H264844   5.166   5.262  14.156 -0.2400 -4.0844  1.1407
14477TIP3   OH264845   5.003   4.764  11.867 -0.6846  0.0237  0.6684
14477TIP3    H164846   4.959   4.839  11.826 -0.8477 -0.7811 -0.6826
14477TIP3    H264847   5.020   4.793  11.956  0.3540  2.1382 -0.1365
14478TIP3   OH264848   1.566   1.927   4.956 -0.4431  0.0101  0.5860
14478TIP3    H164849   1.478   1.965   4.959 -0.7502 -0.7290  1.2891
14478TIP3    H264850   1.616   1.978   5.020  0.1932  1.6795 -1.1240
14479TIP3   OH264851   2.491   4.450  17.323  0.4080  0.3032 -0.2368
14479TIP3    H164852   2.452   4.530  17.286 -1.1556  1.2106  3.0128
14479TIP3    H264853   2.492   4.388  17.250 -2.9809  1.7129 -1.7002
14480TIP3   OH264854   5.237   3.664   5.165 -0.3955 -0.0809 -0.4399
14480TIP3    H164855   5.166   3.710   5.120  0.4024  1.1160 -0.5450
14480TIP3    H264856   5.197   3.631   5.246 -1.5638 -1.2707 -1.4621
14481TIP3   OH264857   3.038   6.312  17.349 -0.2212  0.2112 -0.5301
14481TIP3    H164858   2.957   6.292  17.397  0.5440  0.5851  0.9669
14481TIP3    H264859   3.102   6.251  17.384  0.4807  0.8226 -0.7254
14482TIP3   OH264860   4.368   1.990   2.150 -0.7451  0.4537  0.1727
14482TIP3    H164861   4.360   2.067   2.094 -0.1757 -1.2859 -2.4505
14482TIP3    H264862   4.317   1.922   2.106 -1.7083 -0.6014  2.7007
14483TIP3   OH264863   2.761   1.837   3.613  0.2030  0.0067 -0.9382
14483TIP3    H164864   2.785   1.852   3.522  2.7111 -0.7767 -0.4856
14483TIP3    H264865   2.708   1.757   3.612 -0.8891  0.7147 -1.7944
14484TIP3   OH264866   2.609   4.029   5.355  0.3777 -0.5827  0.0334
14484TIP3    H164867   2.642   4.018   5.444 -1.8553  0.6520  1.0817
14484TIP3    H264868   2.564   3.947   5.336 -0.5364 -0.2690  0.7284
14485TIP3   OH264869   2.446   4.243   5.236  0.3886 -0.0263  0.5011
14485TIP3    H164870   2.380   4.260   5.304  1.1705  2.1056  0.8216
14485TIP3    H264871   2.492   4.165   5.267  0.7139  0.8763  2.4674
14486TIP3   OH264872   4.567   3.659  15.332  0.5972  0.0670 -0.2139
14486TIP3    H164873   4.523   3.686  15.252 -0.1238  0.4254  0.2878
14486TIP3    H264874   4.522   3.708  15.402  0.4062 -1.1192  0.5328
14487TIP3   OH264875   6.418   2.759   6.554 -0.5765  0.0671 -0.1868
14487TIP3    H164876   6.506   2.723   6.559 -0.2427  0.8260 -0.4349
14487TIP3    H264877   6.431   2.854   6.546 -1.4170  0.2081 -0.0056
14488TIP3   OH264878   0.218   5.823  13.181 -0.6229 -0.4268  0.2248
14488TIP3    H164879   0.176   5.738  13.196  0.0198 -0.7009  0.5489
14488TIP3    H264880   0.312   5.802  13.179 -0.5554 -0.1440 -2.5576
14489TIP3   OH264881   2.276   1.963  14.358  0.2971 -0.4382 -1.0507
14489TIP3    H164882   2.351   1.936  14.411 -0.0984 -0.8496 -0.6886
14489TIP3    H264883   2.266   2.056  14.376  1.0189 -0.2701 -1.4798
14490TIP3   OH264884   6.554   0.196  13.466  0.1822  0.8203  0.6486
14490TIP3    H164885   6.561   0.223  13.374  0.2408  1.2669  0.7827
14490TIP3    H264886   6.556   0.278  13.515 -1.0543  0.6581  0.9868
14491TIP3   OH264887   2.698   6.376   1.975  0.0374  0.1776  0.9603
14491TIP3    H164888   2.695   6.338   2.063 -0.9215 -0.7304  0.5546
14491TIP3    H264889   2.670   6.306   1.917  1.9983  0.3213 -0.2569
14492TIP3   OH264890   3.833   4.070   6.127  0.0325 -0.1116  0.0297
14492TIP3    H164891   3.797   3.995   6.080 -0.7296 -0.6889  1.4931
14492TIP3    H264892   3.854   4.037   6.214  1.8906  0.8229 -0.0159
14493TIP3   OH264893   4.694   3.865  13.961 -0.2718 -0.2211  0.6915
14493TIP3    H164894   4.741   3.802  14.015 -0.7648  0.1741  1.6080
14493TIP3    H264895   4.655   3.926  14.024  2.3092  2.5913 -0.1538
14494TIP3   OH264896   5.074   2.554  12.017  0.1075 -0.0292 -0.0875
14494TIP3    H164897   5.126   2.488  11.972  1.4585  0.8565  0.1512
14494TIP3    H264898   5.060   2.623  11.953 -1.8806 -0.7859 -0.5541
14495TIP3   OH264899   5.814   5.640   2.762  0.1953  0.7671  0.2488
14495TIP3    H164900   5.719   5.642   2.758  0.2182  2.1566 -0.3650
14495TIP3    H264901   5.835   5.618   2.853 -0.6832 -0.2849  0.2169
14496TIP3   OH264902   2.204   5.911   3.801 -0.8103  0.6074  0.4533
14496TIP3    H164903   2.169   5.952   3.722  0.9503  0.2703 -0.5527
14496TIP3    H264904   2.267   5.974   3.835 -1.7756  0.8962  1.8353
14497TIP3   OH264905   5.217   5.899   2.832 -0.3674  0.2458  0.3634
14497TIP3    H164906   5.141   5.877   2.779 -0.5886 -3.2637  1.8392
14497TIP3    H264907   5.284   5.927   2.769 -1.4611 -1.1097 -1.5037
14498TIP3   OH264908   1.115   5.468   0.207 -0.5162  0.7185  0.7372
14498TIP3    H164909   1.075   5.525   0.142  2.5659  1.7934 -0.4154
14498TIP3    H264910   1.154   5.397   0.155  2.3611  1.8171  1.1778
14499TIP3   OH264911   0.606   6.693   2.218  0.0491  0.2315 -0.6386
14499TIP3    H164912   0.591   6.630   2.288 -0.6439 -0.8049 -1.6784
14499TIP3    H264913   0.522   6.738   2.208 -0.0554 -0.0642 -1.1933
14500TIP3   OH264914   2.829   4.378   3.965 -0.0940 -0.1079 -0.3971
14500TIP3    H164915   2.760   4.444   3.969 -0.8434 -0.9287  2.3106
14500TIP3    H264916   2.875   4.397   3.883 -1.8897  2.0892 -1.0176
14501TIP3   OH264917   3.217   5.302  16.377 -0.1629  0.0100  0.0728
14501TIP3    H164918   3.192   5.218  16.338 -0.9099  0.1503  0.2365
14501TIP3    H264919   3.200   5.366  16.308  0.8663 -0.0120 -0.2267
14502TIP3   OH264920   1.992   2.859   3.520 -0.3032 -0.2078  0.2985
14502TIP3    H164921   2.086   2.855   3.504 -0.3316  1.0427 -0.3013
14502TIP3    H264922   1.981   2.822   3.607  0.6316 -1.1871  0.0201
14503TIP3   OH264923   6.694   1.982   3.500 -0.2582 -0.2504 -0.2588
14503TIP3    H164924   6.633   2.051   3.473 -1.8367 -1.2939  0.4803
14503TIP3    H264925   6.663   1.903   3.456  0.4679 -0.8460  0.2641
14504TIP3   OH264926   2.226   0.235   1.179  0.2013 -0.2040  0.3275
14504TIP3    H164927   2.131   0.236   1.182  0.1451 -1.9526 -0.1862
14504TIP3    H264928   2.248   0.301   1.113 -0.6207  0.4577  0.6983
14505TIP3   OH264929   6.373   1.789  14.242 -0.4277 -0.6030 -0.0733
14505TIP3    H164930   6.446   1.850  14.247  0.3240 -1.5591  1.2809
14505TIP3    H264931   6.329   1.797  14.326 -1.0964 -0.9955 -0.3753
14506TIP3   OH264932   2.771   0.101  17.090 -0.1788  0.1365  0.0006
14506TIP3    H164933   2.771   0.013  17.127 -1.1659 -0.6961 -1.8525
14506TIP3    H264934   2.860   0.133  17.103  0.5370 -1.6200 -0.3786
14507TIP3   OH264935   1.597   6.741   2.133  0.1963  0.6404 -0.3509
14507TIP3    H164936   1.619   6.834   2.123  0.1847  0.8666  1.3965
14507TIP3    H264937   1.515   6.741   2.183 -0.1673 -0.3131 -0.9181
14508TIP3   OH264938   3.100   4.795  13.413  0.1305  0.2304 -0.1839
14508TIP3    H164939   3.029   4.732  13.401 -2.6308  2.6738  1.7824
14508TIP3    H264940   3.167   4.747  13.462 -1.5615 -1.4011  0.6546
14509TIP3   OH264941   3.183   0.490  16.634 -0.2589 -0.6365  0.0931
14509TIP3    H164942   3.131   0.571  16.641 -0.0663 -0.6006  1.5061
14509TIP3    H264943   3.150   0.447  16.556  0.3173  1.2801 -1.2980
14510TIP3   OH264944   0.256   0.441  15.224 -0.7871 -0.1259 -0.2681
14510TIP3    H164945   0.291   0.360  15.186  0.9528 -0.0544  1.0365
14510TIP3    H264946   0.278   0.509  15.160 -1.3792 -0.5343 -0.9163
14511TIP3   OH264947   2.201   0.786   1.354 -0.0082  0.6357 -0.3610
14511TIP3    H164948   2.276   0.743   1.313 -0.9545 -1.3954 -0.1346
14511TIP3    H264949   2.237   0.824   1.434  1.1224  1.3898 -1.1906
14512TIP3   OH264950   3.624   4.823  14.444  0.2295  0.2212 -0.1657
14512TIP3    H164951   3.544   4.843  14.395  0.4469  0.4184 -0.4388
14512TIP3    H264952   3.688   4.888  14.415  1.4003 -1.6837 -2.1533
14513TIP3   OH264953   5.175   3.339   4.470  0.1757 -0.0374  0.2413
14513TIP3    H164954   5.208   3.329   4.381 -1.2519 -1.2891 -0.1773
14513TIP3    H264955   5.221   3.272   4.520  2.1788  1.6841  0.8665
14514TIP3   OH264956   0.280   6.731   1.888  0.8152  0.0298 -0.7774
14514TIP3    H164957   0.240   6.773   1.812  0.4643 -0.5142 -0.9017
14514TIP3    H264958   0.257   6.638   1.879  0.4810  0.0048  0.1717
14515TIP3   OH264959   3.110   1.052  17.209  0.3329 -0.0552  0.3148
14515TIP3    H164960   3.085   1.111  17.281 -0.9546  0.5306 -0.5603
14515TIP3    H264961   3.082   1.098  17.130  0.3421 -1.3472 -0.4713
14516TIP3   OH264962   5.571   5.389   5.329  0.2954  0.5561  0.2991
14516TIP3    H164963   5.519   5.458   5.287  1.1126  1.5452  0.8397
14516TIP3    H264964   5.559   5.405   5.422  1.2809  0.5944  0.4265
14517TIP3   OH264965   6.573   6.388  15.892 -0.2759  0.6269  0.1567
14517TIP3    H164966   6.562   6.397  15.986 -1.3400  2.0310 -0.0727
14517TIP3    H264967   6.634   6.457  15.868 -1.8958  1.9152 -0.4778
14518TIP3   OH264968   4.690   4.369  14.359  0.1885  0.0886  0.2432
14518TIP3    H164969   4.763   4.413  14.315  0.7465 -1.7833 -0.7812
14518TIP3    H264970   4.689   4.281  14.323 -1.9472 -0.2662  1.0142
14519TIP3   OH264971   0.109   2.074   5.859  0.3255  0.2214 -0.2355
14519TIP3    H164972   0.123   2.016   5.784  0.5265  0.7199 -0.5812
14519TIP3    H264973   0.180   2.137   5.855  0.1287  0.4735  0.1679
14520TIP3   OH264974   0.221   4.044   0.691 -0.1319 -0.3311  0.2054
14520TIP3    H164975   0.227   3.974   0.757 -0.1456 -1.3287 -0.8155
14520TIP3    H264976   0.312   4.070   0.677 -0.0023 -0.9901 -0.2604
14521TIP3   OH264977   2.433   3.362   7.048 -0.1892  0.1291  0.0244
14521TIP3    H164978   2.368   3.427   7.023  2.4752  4.0132  2.2265
14521TIP3    H264979   2.469   3.331   6.965 -0.1326  3.1604 -1.2084
14522TIP3   OH264980   0.586   5.226  12.827 -0.1052 -0.0288  0.6934
14522TIP3    H164981   0.650   5.207  12.896  1.9736  0.1776 -1.0810
14522TIP3    H264982   0.560   5.317  12.844 -0.6206 -0.3980  1.9514
14523TIP3   OH264983   3.155   3.550  10.710 -0.6990  0.3554 -0.6286
14523TIP3    H164984   3.230   3.550  10.650  0.9600  1.3108  1.3175
14523TIP3    H264985   3.164   3.631  10.760 -3.6276  0.9833 -0.9187
14524TIP3   OH264986   3.580   6.580  15.464 -0.0734  0.5377  0.8288
14524TIP3    H164987   3.579   6.675  15.473  1.5600  0.6582  0.1057
14524TIP3    H264988   3.646   6.551  15.528 -0.7208 -0.1355  1.2019
14525TIP3   OH264989   0.587   6.286  11.063 -0.5388 -0.0179 -0.1437
14525TIP3    H164990   0.637   6.295  10.981  0.3068 -2.4320  0.0208
14525TIP3    H264991   0.581   6.191  11.077  0.3942  0.2931  3.2273
14526TIP3   OH264992   2.878   1.624  16.740  0.0704 -0.0503  0.3871
14526TIP3    H164993   2.880   1.711  16.701  0.0329 -0.7502 -1.2368
14526TIP3    H264994   2.834   1.569  16.675 -0.0170 -1.2639  1.4295
14527TIP3   OH264995   2.682   2.326  13.626  0.4117 -0.8921 -0.6697
14527TIP3    H164996   2.595   2.296  13.652 -0.0710 -0.5078 -1.7408
14527TIP3    H264997   2.684   2.419  13.652  0.6216 -0.9769 -0.3762
14528TIP3   OH264998   1.813   0.917  12.645 -1.0860  0.2617 -0.1490
14528TIP3    H164999   1.887   0.875  12.689 -0.6527 -0.2294 -1.3278
14528TIP3    H265000   1.777   0.976  12.712  1.4255  1.8432 -0.0662
14529TIP3   OH265001   1.348   2.748   5.492  0.1167 -0.5790  0.0009
14529TIP3    H165002   1.347   2.656   5.518  0.3967 -1.1419 -1.8432
14529TIP3    H265003   1.258   2.777   5.506  0.1695 -0.9088  1.2260
14530TIP3   OH265004   1.097   1.111  12.093 -0.2398 -0.5853 -0.5087
14530TIP3    H165005   1.086   1.206  12.094  1.1000 -0.4125  0.0251
14530TIP3    H265006   1.125   1.092  12.003  0.4923 -0.3387 -0.3374
14531TIP3   OH265007   3.654   4.619  13.663  0.2603  0.1105  0.3136
14531TIP3    H165008   3.578   4.594  13.716  0.3484  0.9532  0.8607
14531TIP3    H265009   3.621   4.688  13.606  1.1101  2.1490  2.1498
14532TIP3   OH265010   3.777   0.008   1.135  0.6302  0.4402 -0.0872
14532TIP3    H165011   3.820   0.073   1.190  1.1371  0.9020 -0.9965
14532TIP3    H265012   3.751   0.057   1.057 -1.6099  0.1730  0.4495
14533TIP3   OH265013   1.693   5.098   1.683 -0.0189  0.5742  0.0319
14533TIP3    H165014   1.607   5.096   1.641 -0.2712  0.1025  0.5629
14533TIP3    H265015   1.742   5.027   1.642  0.0348  0.6875 -0.0997
14534TIP3   OH265016   5.397   1.931   2.930 -0.1031  0.3804  0.2084
14534TIP3    H165017   5.403   1.844   2.889 -0.9576  0.2970  0.2436
14534TIP3    H265018   5.355   1.914   3.014 -0.3772  0.8503  0.1633
14535TIP3   OH265019   4.875   3.522   4.812  0.5025  0.1381 -0.6375
14535TIP3    H165020   4.788   3.545   4.778 -0.1141 -0.8726  0.1949
14535TIP3    H265021   4.903   3.449   4.758 -0.2851 -1.1790  0.6606
14536TIP3   OH265022   3.701   0.531   0.563 -0.4471  0.3110 -0.4904
14536TIP3    H165023   3.606   0.538   0.566 -0.5552 -0.3118 -1.7261
14536TIP3    H265024   3.720   0.507   0.472  0.7128 -2.0185  0.2866
14537TIP3   OH265025   3.974   5.273   6.137  0.2669 -0.3774  0.8546
14537TIP3    H165026   4.037   5.344   6.129  1.2515 -1.2917  0.1620
14537TIP3    H265027   3.984   5.241   6.227  0.7190 -0.4564  0.7744
14538TIP3   OH265028   4.632   1.075  14.437  0.4556 -0.0256 -0.2494
14538TIP3    H165029   4.589   1.003  14.483 -0.5511  0.6647 -0.0807
14538TIP3    H265030   4.614   1.060  14.345 -3.2562  2.0709 -0.0622
14539TIP3   OH265031   6.350   6.299  14.663 -0.4639 -0.2584 -0.4246
14539TIP3    H165032   6.272   6.245  14.676 -0.8389  0.2693 -0.4394
14539TIP3    H265033   6.358   6.350  14.744  0.4130 -0.9864 -0.0418
14540TIP3   OH265034   0.012   1.730  11.216 -0.8490  0.9966  0.1465
14540TIP3    H165035  -0.077   1.694  11.224 -0.0940 -1.5155 -1.5817
14540TIP3    H265036   0.044   1.696  11.133  1.8307  1.6675  0.8207
14541TIP3   OH265037   0.416   2.761   3.891 -0.4952 -0.8594  0.0746
14541TIP3    H165038   0.336   2.814   3.896 -2.4681 -3.2568 -2.6914
14541TIP3    H265039   0.457   2.789   3.809  1.2194 -0.1623  1.1149
14542TIP3   OH265040   3.168   6.672   3.899  0.2572  0.2091 -0.3768
14542TIP3    H165041   3.100   6.739   3.906  0.2824  0.2103 -0.1183
14542TIP3    H265042   3.250   6.719   3.916  0.6507  0.7731 -3.3068
14543TIP3   OH265043   2.697   2.970  11.869 -0.5013 -0.3642  0.6459
14543TIP3    H165044   2.657   3.024  11.801 -1.1684 -2.5672 -0.8272
14543TIP3    H265045   2.645   2.988  11.947 -1.7690 -0.0951 -0.2239
14544TIP3   OH265046   1.680   3.656   6.316  0.6777 -0.2154  0.0054
14544TIP3    H165047   1.603   3.701   6.350  0.7774 -0.4757  0.5798
14544TIP3    H265048   1.659   3.640   6.224 -1.3095 -3.0679  0.8133
14545TIP3   OH265049   4.623   3.475  14.963 -0.4633 -0.2449  0.0931
14545TIP3    H165050   4.686   3.521  14.908 -0.0751 -0.7803  0.0859
14545TIP3    H265051   4.673   3.446  15.039 -0.0460 -2.9331 -1.0933
14546TIP3   OH265052   2.831   3.013  14.042 -0.7427 -0.0385 -0.4141
14546TIP3    H165053   2.900   3.077  14.022 -0.8963  0.1605 -0.3065
14546TIP3    H265054   2.762   3.064  14.084 -0.2891 -0.4945  0.9621
14547TIP3   OH265055   5.606   1.625   0.496  0.0239 -0.3961  0.1712
14547TIP3    H165056   5.617   1.656   0.586  2.9087 -0.0740 -0.1989
14547TIP3    H265057   5.569   1.700   0.449 -1.2826 -0.4911  1.0132
14548TIP3   OH265058   1.158   5.942   0.900  0.3209 -0.2310  0.3425
14548TIP3    H165059   1.083   5.888   0.875 -0.5035  1.3797 -0.8359
14548TIP3    H265060   1.234   5.892   0.873 -0.3315 -1.5817  0.9086
14549TIP3   OH265061   3.124   6.663   1.061  0.6587  0.3570  0.2997
14549TIP3    H165062   3.163   6.633   1.143 -0.4266  0.0380  0.7253
14549TIP3    H265063   3.031   6.639   1.069 -0.0408  2.7896  0.1665
14550TIP3   OH265064   5.287   5.712   6.268 -0.2081  0.2505  0.1060
14550TIP3    H165065   5.213   5.688   6.324 -0.5641  1.1702  0.0494
14550TIP3    H265066   5.356   5.649   6.290 -0.8395 -0.3062  0.5149
14551TIP3   OH265067   6.624   4.992  15.208  0.5351  0.4779 -0.2363
14551TIP3    H165068   6.549   4.945  15.246  0.9327 -1.5405 -1.7517
14551TIP3    H265069   6.589   5.030  15.128  0.4809  1.9703  0.4714
14552TIP3   OH265070   6.454   0.565  10.597  0.3484  0.2054 -0.0196
14552TIP3    H165071   6.509   0.573  10.675 -0.7973  0.6576  0.7732
14552TIP3    H265072   6.496   0.497  10.544 -0.2095 -1.9740  2.1679
14553TIP3   OH265073   4.747   1.209  12.125 -0.0864 -0.4131  0.5553
14553TIP3    H165074   4.756   1.151  12.050 -1.8309 -1.3900  1.0346
14553TIP3    H265075   4.693   1.282  12.093 -1.3302 -1.1255  0.9788
14554TIP3   OH265076   3.239   0.179  11.432  0.2029 -0.1638  0.5714
14554TIP3    H165077   3.288   0.103  11.461  0.4295 -0.6787 -1.0285
14554TIP3    H265078   3.168   0.188  11.495  1.6325 -0.1310  2.2457
14555TIP3   OH265079   2.420   6.407   4.341  0.5822  0.0736 -0.4966
14555TIP3    H165080   2.512   6.386   4.356  0.2318 -0.7680  0.6133
14555TIP3    H265081   2.396   6.356   4.264  0.7464 -0.6359 -0.0904
14556TIP3   OH265082   2.836   2.580   3.868  0.5431  0.3248 -0.4409
14556TIP3    H165083   2.808   2.663   3.829 -2.1707  0.0323  0.6199
14556TIP3    H265084   2.841   2.519   3.794 -0.4984  0.7337 -0.8742
14557TIP3   OH265085   3.616   5.722   4.735  0.0399  0.4788 -0.5894
14557TIP3    H165086   3.534   5.681   4.760 -0.4316  1.6807 -0.1132
14557TIP3    H265087   3.643   5.772   4.812  3.4319 -3.1309  0.9382
14558TIP3   OH265088   5.613   1.187  13.986  0.5618  0.7495 -0.4548
14558TIP3    H165089   5.526   1.211  13.952  0.3392  1.0371  0.3024
14558TIP3    H265090   5.656   1.271  14.001  1.5353  0.6068 -2.1961
14559TIP3   OH265091   2.130   5.164  12.058  0.7348 -0.0312 -0.3131
14559TIP3    H165092   2.068   5.223  12.100 -0.3894 -1.1617 -0.3325
14559TIP3    H265093   2.201   5.156  12.122  1.6746  2.4513 -0.9065
14560TIP3   OH265094   5.943   0.428   3.065  0.1761  0.0486 -0.3260
14560TIP3    H165095   5.974   0.474   2.987  3.1345 -1.2320 -0.0404
14560TIP3    H265096   5.896   0.352   3.032  0.4051  0.1294 -0.8411
14561TIP3   OH265097   3.745   2.281   3.888  0.5431 -0.3622  0.2203
14561TIP3    H165098   3.676   2.324   3.937 -0.3325 -0.7133 -0.6620
14561TIP3    H265099   3.720   2.189   3.887  2.5540 -1.0333  2.3632
14562TIP3   OH265100   4.469   4.809   1.051 -0.2979  0.1064  0.0927
14562TIP3    H165101   4.442   4.862   0.976  0.5538 -0.8037 -0.8877
14562TIP3    H265102   4.498   4.726   1.013  0.4121 -0.2783  1.4043
14563TIP3   OH265103   4.869   5.308  11.875  0.1788  0.3396 -0.1087
14563TIP3    H165104   4.923   5.289  11.951 -0.7503 -2.0972  0.0453
14563TIP3    H265105   4.795   5.357  11.909  0.4101  0.3704  0.3513
14564TIP3   OH265106   3.361   3.830   5.549 -0.0566  0.9909 -0.1562
14564TIP3    H165107   3.455   3.812   5.547  0.0051  1.1846 -2.8041
14564TIP3    H265108   3.320   3.744   5.541 -0.0005  1.0546 -1.4292
14565TIP3   OH265109   3.131   5.182   5.033 -0.5618  0.7247 -0.4491
14565TIP3    H165110   3.197   5.133   4.983  0.8883  0.7290  1.3636
14565TIP3    H265111   3.091   5.116   5.090 -1.1421  1.0041 -0.5260
14566TIP3   OH265112   6.142   1.864   3.837  0.6214 -0.6151 -0.1453
14566TIP3    H165113   6.208   1.864   3.767  1.0154 -0.1535  0.2161
14566TIP3    H265114   6.149   1.951   3.877  1.7437 -1.4838  1.6959
14567TIP3   OH265115   2.552   0.098   3.105 -0.2309 -0.0683  0.3773
14567TIP3    H165116   2.638   0.055   3.105 -0.2052 -0.0683  1.7453
14567TIP3    H265117   2.557   0.161   3.033  0.8855 -0.1533  0.3552
14568TIP3   OH265118   4.904   1.935  13.334  0.5158  0.1817 -0.1885
14568TIP3    H165119   4.838   1.878  13.374 -0.3528  1.1111 -0.2642
14568TIP3    H265120   4.965   1.955  13.405 -0.2491  0.7094  0.3264
14569TIP3   OH265121   5.228   1.220   2.274  0.0647 -0.1885 -0.3198
14569TIP3    H165122   5.161   1.247   2.212  0.5036 -1.9198 -1.6213
14569TIP3    H265123   5.309   1.259   2.241  0.2709 -0.9809 -0.7825
14570TIP3   OH265124   6.606   0.961  14.160  0.8247  0.1319 -0.3162
14570TIP3    H165125   6.697   0.931  14.162  1.5456  2.1681 -0.5901
14570TIP3    H265126   6.579   0.961  14.251  1.2029 -0.1339 -0.1977
14571TIP3   OH265127   0.004   5.948  14.419 -0.1453  0.2555  0.6306
14571TIP3    H165128  -0.044   6.008  14.475  0.0884 -0.1884  1.3151
14571TIP3    H265129  -0.047   5.945  14.338 -0.3632  1.0679  0.7344
14572TIP3   OH265130   2.182   5.935   5.093 -0.0872  0.2526  0.4308
14572TIP3    H165131   2.219   5.964   5.009  0.0434 -1.5884 -0.2042
14572TIP3    H265132   2.258   5.916   5.148 -0.1148 -0.9119  0.0829
14573TIP3   OH265133   3.400   1.725   1.033 -0.2691 -0.6283  0.2438
14573TIP3    H165134   3.477   1.709   0.978  0.7576  0.4371  1.3182
14573TIP3    H265135   3.435   1.765   1.113 -1.9837  0.2710  0.5981
14574TIP3   OH265136   5.445   5.680  11.722  0.2655 -0.0665 -0.3749
14574TIP3    H165137   5.391   5.729  11.660  0.6506 -1.3063 -1.7474
14574TIP3    H265138   5.383   5.621  11.766  0.1110  0.3111 -0.0729
14575TIP3   OH265139   1.710   0.354   1.376  0.1432 -0.0337  0.1384
14575TIP3    H165140   1.727   0.442   1.410 -1.4159  0.2653  0.2359
14575TIP3    H265141   1.620   0.358   1.343 -0.0273 -1.6407  0.3079
14576TIP3   OH265142   6.460   6.081  16.850 -0.4397 -0.7448 -0.2930
14576TIP3    H165143   6.495   5.993  16.866 -1.6519 -0.9538  1.4391
14576TIP3    H265144   6.391   6.092  16.916  1.0045  2.2568  0.9221
14577TIP3   OH265145   6.357   2.763   2.572  0.1287  0.1912  0.9287
14577TIP3    H165146   6.395   2.809   2.498 -0.1644  0.4247  0.9212
14577TIP3    H265147   6.297   2.699   2.532  0.4638 -0.1296  0.9422
14578TIP3   OH265148   3.730   6.491  16.189  0.9140  0.2625  0.0585
14578TIP3    H165149   3.693   6.552  16.125 -0.2271  0.0657  0.5246
14578TIP3    H265150   3.655   6.458  16.238  1.5740 -1.0439  0.2385
14579TIP3   OH265151   4.200   5.058   2.990 -0.1220  0.1002 -0.5410
14579TIP3    H165152   4.223   5.145   2.959  0.3156 -0.2710 -1.3110
14579TIP3    H265153   4.258   4.999   2.940  0.8219 -0.5130  1.2111
14580TIP3   OH265154   5.202   1.368   0.960  0.1532  0.3306 -0.0122
14580TIP3    H165155   5.121   1.416   0.940  1.2846  2.3492 -0.0260
14580TIP3    H265156   5.271   1.422   0.921  1.5351 -1.1973  0.2547
14581TIP3   OH265157   3.925   3.401  14.952 -0.0927 -0.1872  0.2417
14581TIP3    H165158   3.884   3.486  14.965  0.8871  0.3799 -0.2905
14581TIP3    H265159   3.961   3.404  14.864  1.7017 -0.3819  0.9193
14582TIP3   OH265160   4.653   0.088   4.984 -0.3540  0.1768 -0.1087
14582TIP3    H165161   4.695   0.061   5.066 -1.9873 -0.6976  0.4947
14582TIP3    H265162   4.724   0.124   4.931  1.1372 -1.2216  0.8453
14583TIP3   OH265163   2.107   3.372  14.853  0.3917  0.0910  0.0255
14583TIP3    H165164   2.041   3.358  14.785  0.1504  1.4079 -0.0423
14583TIP3    H265165   2.151   3.288  14.861  0.3923 -0.1189 -1.7340
14584TIP3   OH265166   5.756   3.260   0.770  0.1956  0.1171  0.0776
14584TIP3    H165167   5.851   3.258   0.764  0.3061  1.4643  0.8752
14584TIP3    H265168   5.729   3.317   0.698 -0.0436 -0.5536 -0.3711
14585TIP3   OH265169   0.951   1.181   2.449  0.4961  0.3610 -0.2109
14585TIP3    H165170   0.864   1.168   2.412  0.7039  1.8083 -1.2476
14585TIP3    H265171   0.983   1.092   2.466  0.9720 -0.6222 -4.9234
14586TIP3   OH265172   3.040   2.005  12.185  0.4939  0.0375 -0.4443
14586TIP3    H165173   3.002   1.945  12.249  1.8123 -0.4488 -0.0769
14586TIP3    H265174   2.983   1.998  12.109 -2.1073  1.8741  1.1829
14587TIP3   OH265175   1.492   0.185   5.172  0.2436  0.0135 -0.1622
14587TIP3    H165176   1.428   0.143   5.114  2.3848 -1.4565 -1.6081
14587TIP3    H265177   1.472   0.150   5.259 -0.2508 -1.2840 -0.7719
14588TIP3   OH265178   0.993   3.706   5.116  0.4838  0.2343 -0.4480
14588TIP3    H165179   0.970   3.637   5.177 -0.2912  1.6150  0.9027
14588TIP3    H265180   1.074   3.743   5.151  0.5273  0.4492 -0.7692
14589TIP3   OH265181   4.079   2.677   0.388 -0.5646 -0.0881  0.0245
14589TIP3    H165182   4.040   2.753   0.430 -0.5207  0.0148 -0.1224
14589TIP3    H265183   4.029   2.602   0.421 -1.4714  0.1175 -0.8419
14590TIP3   OH265184   0.795   4.346   3.627  0.7929  0.2163 -0.1078
14590TIP3    H165185   0.796   4.264   3.677  2.4633 -0.2438 -0.8357
14590TIP3    H265186   0.844   4.407   3.682  0.6442  0.3607 -0.1370
14591TIP3   OH265187   5.416   4.087  17.192  0.7903  0.0638 -0.3090
14591TIP3    H165188   5.474   4.159  17.215 -2.0004  2.1146  0.8291
14591TIP3    H265189   5.328   4.119  17.210 -0.6564 -3.6454  0.2763
14592TIP3   OH265190   3.621   5.549  13.296 -0.0897 -0.7015  0.2963
14592TIP3    H165191   3.657   5.638  13.296  1.4059 -1.2544 -1.0593
14592TIP3    H265192   3.533   5.559  13.259 -0.1702  0.2790  0.7057
14593TIP3   OH265193   2.637   3.126  11.662  0.4825  0.3012 -0.0500
14593TIP3    H165194   2.587   3.196  11.704  1.0090  0.2186  0.7241
14593TIP3    H265195   2.589   3.109  11.580 -0.5470  0.4833  0.4903
14594TIP3   OH265196   4.934   0.683   0.110 -0.2014 -0.2219 -0.1014
14594TIP3    H165197   4.918   0.716   0.022 -1.9577 -0.6886  0.0098
14594TIP3    H265198   4.888   0.745   0.168 -0.4836 -0.8446  0.3522
14595TIP3   OH265199   3.426   2.445  17.140  0.1000 -0.0206 -0.4908
14595TIP3    H165200   3.463   2.402  17.217 -0.7670  1.0252  0.5458
14595TIP3    H265201   3.449   2.537  17.151 -2.8553  0.7248  0.2956
14596TIP3   OH265202   1.771   4.408  14.861  0.5783 -0.0339 -0.2393
14596TIP3    H165203   1.786   4.480  14.922 -0.9218  0.2018 -0.1138
14596TIP3    H265204   1.833   4.423  14.790 -0.0432  1.6784 -0.4585
14597TIP3   OH265205   0.139   3.247  14.163  0.2544  0.4328 -0.1819
14597TIP3    H165206   0.079   3.199  14.220  1.9157 -1.4412  0.0857
14597TIP3    H265207   0.175   3.316  14.219  0.4064 -0.1786  0.4932
14598TIP3   OH265208   2.691   2.848  15.344 -0.4060 -0.7425  0.5235
14598TIP3    H165209   2.724   2.849  15.254 -0.7105 -0.5780  0.4136
14598TIP3    H265210   2.615   2.791  15.342 -0.2121 -1.0136  0.7494
14599TIP3   OH265211   0.238   5.585  14.713  0.0855  0.6903  0.0080
14599TIP3    H165212   0.246   5.528  14.636 -0.2632  0.2751  0.2743
14599TIP3    H265213   0.189   5.661  14.682 -1.3827 -0.1491  0.1514
14600TIP3   OH265214   1.593   3.554   5.130  0.2208  0.3205  0.1375
14600TIP3    H165215   1.589   3.549   5.225  0.1025 -0.6212  0.0965
14600TIP3    H265216   1.647   3.478   5.104 -0.6470 -0.0633 -0.5957
14601TIP3   OH265217   3.242   0.179  14.971 -0.1886 -0.0983  0.1221
14601TIP3    H165218   3.201   0.219  14.894  0.8723 -1.4200 -1.1944
14601TIP3    H265219   3.203   0.092  14.976  1.0145 -0.6670 -0.0025
14602TIP3   OH265220   6.730   5.979   7.045  0.2156 -0.3072  0.6233
14602TIP3    H165221   6.790   6.048   7.017 -0.2060  0.2388  1.0627
14602TIP3    H265222   6.787   5.907   7.071  0.6574 -1.0475 -2.0831
14603TIP3   OH265223   5.237   2.799   3.127  0.0303  0.2510 -0.1478
14603TIP3    H165224   5.237   2.730   3.194 -0.4040 -0.0856 -0.4856
14603TIP3    H265225   5.146   2.829   3.124  0.2683  1.0110  0.1642
14604TIP3   OH265226   0.156   3.813   5.922 -0.0191 -0.0449  0.0218
14604TIP3    H165227   0.071   3.781   5.954 -0.8409  0.3495 -1.6442
14604TIP3    H265228   0.207   3.734   5.907 -0.7401 -0.4018 -0.6451
14605TIP3   OH265229   0.933   1.445   1.802 -0.0292 -0.7014  0.4537
14605TIP3    H165230   0.922   1.417   1.711 -0.8288 -0.0462  0.3402
14605TIP3    H265231   1.027   1.459   1.812  0.5089 -3.7083  0.6144
14606TIP3   OH265232   0.623   5.121   1.563 -0.0239  0.0180  0.0011
14606TIP3    H165233   0.688   5.137   1.631  0.9656 -2.0895 -0.3869
14606TIP3    H265234   0.663   5.156   1.483  0.4923 -0.9280 -0.1661
14607TIP3   OH265235   4.328   3.488   4.603 -0.5062  0.2548 -0.2967
14607TIP3    H165236   4.402   3.428   4.610  0.3980  1.2189 -1.3098
14607TIP3    H265237   4.252   3.435   4.631  0.2304 -1.3915 -1.2452
14608TIP3   OH265238   0.595   5.479   0.387 -0.5053  0.0546  0.0750
14608TIP3    H165239   0.662   5.494   0.321 -0.1511 -1.4727  0.0498
14608TIP3    H265240   0.589   5.562   0.435  1.7197  0.1176  0.3671
14609TIP3   OH265241   2.173   1.028   2.803  0.1565 -0.0195  0.3843
14609TIP3    H165242   2.246   1.048   2.745 -1.4957  0.2501 -1.7075
14609TIP3    H265243   2.103   1.000   2.745 -1.4259 -0.2761  2.3144
14610TIP3   OH265244   2.049   2.016  11.185 -0.1441 -0.0317 -0.2997
14610TIP3    H165245   2.025   1.940  11.238  0.9725  0.9408  1.7599
14610TIP3    H265246   2.144   2.024  11.198 -0.0900  1.1105 -1.3032
14611TIP3   OH265247   5.269   2.513   1.297 -0.1199  0.1595  0.8070
14611TIP3    H165248   5.269   2.554   1.383 -0.6263 -0.3008  1.0338
14611TIP3    H265249   5.278   2.419   1.316  0.5141  0.1129  0.3220
14612TIP3   OH265250   5.683   2.832  12.872  0.4431 -0.5969  0.3661
14612TIP3    H165251   5.642   2.773  12.809  1.5125 -1.8631  0.8040
14612TIP3    H265252   5.621   2.836  12.945  0.2044 -0.9339  0.1869
14613TIP3   OH265253   4.013   0.676   3.727 -0.2495 -0.2369 -0.0117
14613TIP3    H165254   4.004   0.591   3.685 -0.8319 -0.3955  0.4165
14613TIP3    H265255   4.091   0.669   3.781  1.3874  0.4429 -2.1419
14614TIP3   OH265256   0.292   3.675   6.565  0.4558  0.4371  0.7482
14614TIP3    H165257   0.361   3.621   6.603  0.2335  0.2753  0.9202
14614TIP3    H265258   0.292   3.651   6.472  2.2688  2.1728  0.2287
14615TIP3   OH265259   2.124   4.511   2.546  0.2570 -0.3558 -0.5556
14615TIP3    H165260   2.102   4.430   2.501  0.7756 -0.6266 -0.3209
14615TIP3    H265261   2.094   4.498   2.636 -1.8067  0.6023 -1.0340
14616TIP3   OH265262   1.319   5.815  17.418 -0.3318  0.2145 -0.1977
14616TIP3    H165263   1.230   5.816  17.384 -0.7341  1.2530  0.8076
14616TIP3    H265264   1.311   5.776  17.505 -0.3541  2.9772  1.1559
14617TIP3   OH265265   0.107   3.679   1.033  0.4991 -0.3614 -0.3705
14617TIP3    H165266   0.043   3.633   0.979  0.3826 -3.3196  2.0287
14617TIP3    H265267   0.190   3.636   1.015  0.7265 -0.3841  0.6575
14618TIP3   OH265268   4.822   3.521   4.317  0.1559 -0.1370 -0.0359
14618TIP3    H165269   4.882   3.494   4.387 -0.4387 -1.3980  0.0028
14618TIP3    H265270   4.877   3.576   4.260  0.6165  1.0354  1.4534
14619TIP3   OH265271   6.694   2.152  14.925 -0.1282  0.4088 -0.6052
14619TIP3    H165272   6.707   2.120  14.836 -1.0462  3.2687 -1.8839
14619TIP3    H265273   6.762   2.109  14.976  1.5482 -0.0073 -3.0227
14620TIP3   OH265274   5.441   5.960  14.162  0.5210 -0.2443  0.0604
14620TIP3    H165275   5.503   5.895  14.195 -0.5107 -1.7859 -0.8430
14620TIP3    H265276   5.433   5.939  14.069 -0.5575  0.5905 -0.0552
14621TIP3   OH265277   0.643   2.534   5.297 -0.3801  0.3308 -0.0794
14621TIP3    H165278   0.557   2.513   5.261 -0.2551  0.4437 -0.4475
14621TIP3    H265279   0.686   2.449   5.307 -2.0475 -0.2473  4.1188
14622TIP3   OH265280   5.745   0.576  16.098  0.2140  0.3564  0.1565
14622TIP3    H165281   5.758   0.512  16.168  1.3940  0.3077 -0.1000
14622TIP3    H265282   5.795   0.653  16.125 -1.1473  1.1926  0.4375
14623TIP3   OH265283   3.962   1.623  13.079  0.0045  0.2189  0.4753
14623TIP3    H165284   4.039   1.651  13.030 -1.0153  0.5152 -1.0511
14623TIP3    H265285   3.888   1.660  13.030 -1.1608 -1.0710  1.1805
14624TIP3   OH265286   0.740   0.628  16.077 -0.7441 -0.3367  0.4595
14624TIP3    H165287   0.773   0.604  15.991 -1.8152  1.2778 -0.4432
14624TIP3    H265288   0.646   0.610  16.073 -0.9671  0.6169  0.9435
14625TIP3   OH265289   0.562   0.022   4.298  0.1308 -0.3498 -0.3035
14625TIP3    H165290   0.530   0.080   4.229 -0.7395 -1.2050 -0.6456
14625TIP3    H265291   0.657   0.025   4.290  0.0653  0.3024 -0.9132
14626TIP3   OH265292   3.887   2.747   1.657  0.1506  0.1691 -0.3286
14626TIP3    H165293   3.864   2.821   1.713 -0.3626 -1.4363  1.6980
14626TIP3    H265294   3.807   2.694   1.652  0.8686 -0.9318 -0.6231
14627TIP3   OH265295   6.213   1.080  12.472  0.2718 -0.6359  0.5724
14627TIP3    H165296   6.130   1.046  12.437  0.7922 -2.2688  0.8477
14627TIP3    H265297   6.207   1.063  12.566  1.4427 -1.9947  0.4298
14628TIP3   OH265298   2.627   3.489   3.302  0.3668 -0.1618  0.4142
14628TIP3    H165299   2.646   3.534   3.384 -1.6834  1.4790  0.0721
14628TIP3    H265300   2.558   3.426   3.326  1.2219 -1.1611  0.3203
14629TIP3   OH265301   0.506   5.514   5.948  0.1504  0.0081 -0.3935
14629TIP3    H165302   0.494   5.464   6.029  1.0688  0.2995 -0.0652
14629TIP3    H265303   0.600   5.510   5.931  0.0033  0.1519 -1.3271
14630TIP3   OH265304   2.586   6.036  10.975  0.2323 -0.0581  0.2603
14630TIP3    H165305   2.609   6.032  10.882  0.3881  1.1194  0.2350
14630TIP3    H265306   2.660   5.995  11.020  0.2863 -0.3729 -0.1136
14631TIP3   OH265307   0.742   6.056  16.800 -0.4466  0.1830 -0.4472
14631TIP3    H165308   0.756   6.048  16.705  2.4412 -0.2126 -0.0735
14631TIP3    H265309   0.811   6.002  16.839  0.2016  2.5214  1.9297
14632TIP3   OH265310   4.489   4.106   3.696 -0.6797  0.0361  0.2781
14632TIP3    H165311   4.579   4.138   3.702 -0.4447 -0.5824  0.1918
14632TIP3    H265312   4.442   4.155   3.763 -0.3722  0.6685  0.0418
14633TIP3   OH265313   5.571   1.678   3.102 -0.6729 -0.1688 -0.3219
14633TIP3    H165314   5.609   1.668   3.015  1.5467  0.2865  0.5297
14633TIP3    H265315   5.542   1.590   3.126  2.2057 -1.1370 -0.0558
14634TIP3   OH265316   2.390   2.183  11.506  0.4717  0.2696 -0.1080
14634TIP3    H165317   2.417   2.274  11.496  1.4220 -0.0878 -0.9760
14634TIP3    H265318   2.319   2.172  11.442  1.0739  0.1353 -0.7691
14635TIP3   OH265319   0.814   0.977  14.880 -0.0411  0.0145 -0.2575
14635TIP3    H165320   0.844   0.942  14.964 -0.7172  0.7245  0.2999
14635TIP3    H265321   0.842   0.912  14.816 -0.0110 -0.8276  0.5798
14636TIP3   OH265322   6.235   2.374   3.757 -0.6823 -0.1088 -0.3755
14636TIP3    H165323   6.242   2.448   3.696 -0.5633 -0.1148 -0.3678
14636TIP3    H265324   6.222   2.416   3.843 -1.8390 -0.1101 -0.5373
14637TIP3   OH265325   5.388   3.294   2.251  0.1253 -0.3715 -0.3115
14637TIP3    H165326   5.351   3.241   2.322 -0.6403 -1.4782 -1.4853
14637TIP3    H265327   5.384   3.237   2.174  3.4055 -0.1904 -0.7432
14638TIP3   OH265328   3.213   6.632   5.742 -0.4563  0.2203  0.0661
14638TIP3    H165329   3.218   6.556   5.800 -1.5227 -0.6752 -0.9557
14638TIP3    H265330   3.302   6.664   5.737 -0.2964  0.1932  2.0090
14639TIP3   OH265331   6.626   1.729   1.473 -0.1749  0.4356  0.2509
14639TIP3    H165332   6.636   1.703   1.382 -1.2937 -0.8906  0.4847
14639TIP3    H265333   6.535   1.709   1.495  0.5446 -1.0756  2.1841
14640TIP3   OH265334   2.348   2.080  11.837 -0.3293  0.4686  0.0250
14640TIP3    H165335   2.392   2.163  11.821  0.6128 -0.4132 -2.4411
14640TIP3    H265336   2.281   2.074  11.769  0.1162 -1.1025 -0.3188
14641TIP3   OH265337   2.207   5.202  11.775 -0.1584  0.3014  0.6763
14641TIP3    H165338   2.185   5.239  11.860  0.0265 -0.8798  1.2615
14641TIP3    H265339   2.174   5.265  11.712  0.8883  1.8661  1.6319
14642TIP3   OH265340   2.936   0.939  14.419 -0.1482 -0.3476 -0.0676
14642TIP3    H165341   2.896   0.929  14.505 -2.1452 -1.9740 -1.1193
14642TIP3    H265342   2.882   1.003  14.374  0.4230 -0.0865 -0.4013
14643TIP3   OH265343   4.705   1.282   5.405  0.5101  0.7177  0.1213
14643TIP3    H165344   4.749   1.354   5.451 -1.6682  2.1229  0.1331
14643TIP3    H265345   4.665   1.230   5.475  1.2180  0.0479  0.0470
14644TIP3   OH265346   6.572   5.216  13.978  0.2523 -0.5097 -0.0239
14644TIP3    H165347   6.486   5.213  13.935 -0.6567 -0.2921  1.6776
14644TIP3    H265348   6.588   5.125  14.006 -0.4182 -0.2193  1.4265
14645TIP3   OH265349   1.651   4.376   1.642  0.1678  0.4086 -0.3766
14645TIP3    H165350   1.621   4.289   1.613 -2.3436  1.6860 -1.9528
14645TIP3    H265351   1.736   4.387   1.600  1.8689 -2.2722  2.0037
14646TIP3   OH265352   2.484   0.690  11.936 -0.2268 -0.1878 -0.0685
14646TIP3    H165353   2.474   0.671  11.843  1.2847 -1.0127 -0.0835
14646TIP3    H265354   2.473   0.785  11.943  0.1110 -0.0638 -1.1396
14647TIP3   OH265355   2.001   6.065  11.232  0.4415 -0.0852 -0.0458
14647TIP3    H165356   1.941   6.137  11.254  0.3242 -0.3180  0.4192
14647TIP3    H265357   2.047   6.095  11.154 -0.8175 -0.2033 -0.8705
14648TIP3   OH265358   6.272   3.152   0.707  0.1702 -0.1842  0.5924
14648TIP3    H165359   6.367   3.157   0.699  0.3199 -0.1698  2.1351
14648TIP3    H265360   6.257   3.090   0.777 -0.9766 -0.3285  0.2357
14649TIP3   OH265361   2.362   2.664   1.552  0.6976  0.0437 -0.0728
14649TIP3    H165362   2.276   2.703   1.536  0.9479  0.6234 -0.0407
14649TIP3    H265363   2.364   2.585   1.498  0.0938 -0.0459  0.0336
14650TIP3   OH265364   2.128   3.990   1.696  0.1016  0.6313 -0.4013
14650TIP3    H165365   2.092   3.940   1.623  0.0353  0.6525 -0.3829
14650TIP3    H265366   2.195   3.932   1.733  0.4023  0.7745 -0.7141
14651TIP3   OH265367   4.794   3.098  16.512  0.5090  0.0311 -0.2680
14651TIP3    H165368   4.700   3.104  16.532  1.2063  1.1945  3.4250
14651TIP3    H265369   4.812   3.005  16.512 -0.5237 -0.1868 -0.3998
14652TIP3   OH265370   3.600   6.460   3.174  0.0879 -0.2575 -0.1029
14652TIP3    H165371   3.511   6.443   3.144 -0.2515  1.9520 -0.5799
14652TIP3    H265372   3.622   6.546   3.137  2.3140 -0.5954  0.2443
14653TIP3   OH265373   3.197   5.299   3.015 -0.0567 -0.2360  0.2889
14653TIP3    H165374   3.268   5.246   2.979  0.4215  0.8740 -0.4518
14653TIP3    H265375   3.239   5.356   3.079  0.1672  1.9347 -1.6644
14654TIP3   OH265376   0.251   1.153   1.771 -0.0562  0.0953 -0.5050
14654TIP3    H165377   0.176   1.203   1.740 -0.5233 -0.1445  0.1995
14654TIP3    H265378   0.288   1.206   1.842  0.0940 -0.0467 -0.4768
14655TIP3   OH265379   1.700   2.535   5.838  0.3108 -0.1472 -0.3581
14655TIP3    H165380   1.679   2.627   5.819 -1.0227 -0.5344 -0.8853
14655TIP3    H265381   1.779   2.517   5.788  0.0585  0.4634 -0.9877
14656TIP3   OH265382   1.601   1.703   6.423  0.2569  0.1639  0.0988
14656TIP3    H165383   1.580   1.647   6.498  3.1351 -0.6604  0.4140
14656TIP3    H265384   1.519   1.710   6.374 -0.8136 -2.3062  1.3856
14657TIP3   OH265385   1.478   3.339   4.322  0.3234  0.5338  0.6241
14657TIP3    H165386   1.433   3.423   4.324 -0.1878  0.2804  0.2012
14657TIP3    H265387   1.469   3.304   4.411 -0.6933  0.3037  0.4441
14658TIP3   OH265388   5.411   5.601  13.788  0.1485 -0.3713 -0.1364
14658TIP3    H165389   5.489   5.651  13.812  0.0260 -0.4176  0.3596
14658TIP3    H265390   5.361   5.660  13.730  0.0364  0.0592  0.3904
14659TIP3   OH265391   5.153   4.562  15.822 -0.7034  0.1093  0.0646
14659TIP3    H165392   5.102   4.593  15.747 -1.4040 -1.8914 -0.3528
14659TIP3    H265393   5.092   4.569  15.896 -0.1304  1.7412  0.4182
14660TIP3   OH265394   0.134   5.823  14.124 -0.4022  0.1010  0.4520
14660TIP3    H165395   0.098   5.907  14.156  3.3668  2.3625 -0.6816
14660TIP3    H265396   0.121   5.826  14.029  0.4887 -0.2003  0.3161
14661TIP3   OH265397   1.179   5.013  16.974  0.3034  0.0097  0.1251
14661TIP3    H165398   1.207   4.923  16.957  1.0510  0.1780  0.4028
14661TIP3    H265399   1.257   5.055  17.010 -0.2325  0.5901  0.6292
14662TIP3   OH265400   4.974   6.309  13.906 -0.5350 -0.1696  0.1264
14662TIP3    H165401   4.894   6.266  13.876 -0.2325 -0.3510 -0.4340
14662TIP3    H265402   4.943   6.378  13.964 -1.2045  0.7887 -1.3107
14663TIP3   OH265403   4.422   5.211   1.108 -0.4572 -0.3738 -0.3118
14663TIP3    H165404   4.421   5.267   1.029 -1.5108 -3.0727 -2.3691
14663TIP3    H265405   4.510   5.223   1.144  0.4159  0.2521 -2.4588
14664TIP3   OH265406   1.721   6.475  15.020 -0.1572  0.5639 -0.2937
14664TIP3    H165407   1.696   6.443  15.106  1.8821 -0.7008 -0.1121
14664TIP3    H265408   1.650   6.447  14.962 -0.1864 -1.1062  0.5035
14665TIP3   OH265409   6.078   2.218   0.931  0.3483 -0.4632  0.2745
14665TIP3    H165410   6.055   2.250   1.018  0.2473 -1.1051  0.4879
14665TIP3    H265411   6.050   2.126   0.931  0.5496 -0.5271 -0.3564
14666TIP3   OH265412   5.693   6.056   2.139 -0.0454 -0.0189  1.2079
14666TIP3    H165413   5.647   6.050   2.055  1.0839 -0.7530  0.6032
14666TIP3    H265414   5.725   5.967   2.154 -0.0751  0.1517  2.3343
14667TIP3   OH265415   6.327   2.815  12.902  0.3872  0.4158  0.0272
14667TIP3    H165416   6.252   2.865  12.934  0.5474  0.4093  0.4064
14667TIP3    H265417   6.352   2.859  12.821 -1.0624 -0.5438 -1.0112
14668TIP3   OH265418   4.479   0.301  14.259 -0.0024  0.2529 -0.2346
14668TIP3    H165419   4.405   0.253  14.222  0.3419 -0.1040 -0.4682
14668TIP3    H265420   4.486   0.380  14.205  0.5974 -0.3412 -1.0588
14669TIP3   OH265421   0.292   4.831  13.926 -0.0589 -0.1019  0.1180
14669TIP3    H165422   0.276   4.770  13.853 -2.0156 -1.3326  1.4712
14669TIP3    H265423   0.239   4.907  13.905 -0.1252 -0.1925 -0.0490
14670TIP3   OH265424   6.665   1.271  17.489  0.5276  0.5766 -0.2873
14670TIP3    H165425   6.676   1.198  17.548 -0.1385  2.0760  1.7992
14670TIP3    H265426   6.613   1.236  17.416 -1.5381 -0.5759  1.6215
14671TIP3   OH265427   6.344   5.249  15.053  0.1863  0.3829  1.1551
14671TIP3    H165428   6.383   5.316  14.998 -0.7791  1.4436  1.7074
14671TIP3    H265429   6.401   5.244  15.129  0.1531  0.7358  1.2063
14672TIP3   OH265430   6.109   4.774   3.543  0.5164  0.2721  0.4719
14672TIP3    H165431   6.138   4.705   3.483  0.6706  1.0517 -0.3849
14672TIP3    H265432   6.143   4.749   3.628  0.3367 -0.8433  0.2281
14673TIP3   OH265433   3.498   1.500   3.044  0.0320  0.6229  0.1509
14673TIP3    H165434   3.564   1.434   3.066  1.0714  1.4100 -0.4879
14673TIP3    H265435   3.541   1.584   3.061 -0.7650  1.1546 -0.3738
14674TIP3   OH265436   6.644   3.452  17.208 -0.5919  0.0744  0.5364
14674TIP3    H165437   6.708   3.489  17.269  1.4498  0.6308 -1.7631
14674TIP3    H265438   6.696   3.427  17.132 -2.8582 -1.5813 -0.5870
14675TIP3   OH265439   4.788   3.242   2.203 -0.1099  0.1173  0.7608
14675TIP3    H165440   4.730   3.207   2.270 -1.4897 -0.0952 -0.5128
14675TIP3    H265441   4.765   3.335   2.197  1.2310  0.5566  1.7701
14676TIP3   OH265442   4.515   3.470  11.380 -0.0624 -0.0260  0.3789
14676TIP3    H165443   4.596   3.521  11.373 -1.3895  2.6078  2.2426
14676TIP3    H265444   4.472   3.482  11.296  0.5491  0.2848  0.1022
14677TIP3   OH265445   1.575   4.816  15.908  0.4870  0.7614 -0.2213
14677TIP3    H165446   1.545   4.799  15.819  0.9324  0.6331 -0.3491
14677TIP3    H265447   1.528   4.895  15.935 -0.6879  0.0433 -0.0692
14678TIP3   OH265448   1.959   5.405   0.794 -0.1495  0.4394  0.3000
14678TIP3    H165449   2.015   5.344   0.746 -2.1636 -0.7208 -0.6971
14678TIP3    H265450   1.956   5.483   0.739 -0.1654  0.1835 -0.0698
14679TIP3   OH265451   0.280   2.896  12.300 -0.1111 -0.2930  0.1974
14679TIP3    H165452   0.345   2.826  12.306  1.6936  1.2798  0.0118
14679TIP3    H265453   0.284   2.940  12.385 -0.7089  0.0282  0.0636
14680TIP3   OH265454   5.283   1.959  11.852 -0.3229  0.4286  0.3321
14680TIP3    H165455   5.200   1.995  11.882  0.2232  1.9170  0.1404
14680TIP3    H265456   5.342   2.035  11.848  0.3694 -0.1638 -1.9191
14681TIP3   OH265457   5.664   5.336   2.002 -0.2813 -0.3214 -0.0125
14681TIP3    H165458   5.756   5.362   2.006  0.1615 -1.3007 -2.1383
14681TIP3    H265459   5.644   5.337   1.908 -2.2003 -0.9271  0.3602
14682TIP3   OH265460   1.598   6.210   4.415 -0.9631 -0.1464  0.6800
14682TIP3    H165461   1.619   6.131   4.465 -1.4416 -0.1059  0.9460
14682TIP3    H265462   1.607   6.184   4.324 -0.0606 -0.2152  0.7724
14683TIP3   OH265463   4.002   6.593  17.181 -0.4656 -0.6596 -0.0064
14683TIP3    H165464   3.949   6.666  17.149 -0.6036 -1.4986 -1.7761
14683TIP3    H265465   4.080   6.635  17.217 -0.5144  0.3751 -1.0489
14684TIP3   OH265466   4.688   0.691   1.968 -0.6470 -0.0788  0.6938
14684TIP3    H165467   4.775   0.653   1.967 -1.4755 -2.1730  2.1110
14684TIP3    H265468   4.642   0.649   1.895  0.5222  4.0233 -2.8544
14685TIP3   OH265469   1.607   5.620   0.795  0.5914 -0.0292 -0.2394
14685TIP3    H165470   1.673   5.688   0.788  2.0183 -1.4646 -1.8875
14685TIP3    H265471   1.651   5.547   0.838 -0.5219 -0.3678  0.3799
14686TIP3   OH265472   6.016   5.481  14.646 -0.1030 -0.5524  0.4056
14686TIP3    H165473   5.982   5.439  14.568 -2.7337  0.0491  1.1164
14686TIP3    H265474   6.011   5.575  14.627  1.4571 -0.4301  0.4695
14687TIP3   OH265475   2.276   0.631   3.649  0.1790 -0.1409  0.5888
14687TIP3    H165476   2.299   0.542   3.674  1.1206 -0.1419 -0.1945
14687TIP3    H265477   2.309   0.640   3.559 -0.9220  0.6241  0.2398
14688TIP3   OH265478   5.524   5.173  13.826 -0.6914 -0.7649  0.1099
14688TIP3    H165479   5.439   5.184  13.871 -0.4365  0.2719  0.3631
14688TIP3    H265480   5.526   5.244  13.762 -0.9216 -2.0668 -1.3776
14689TIP3   OH265481   2.125   6.409  15.211  0.0735 -0.2339 -0.5678
14689TIP3    H165482   2.130   6.418  15.306 -1.2058 -0.8969 -0.4083
14689TIP3    H265483   2.115   6.499  15.179 -2.1302 -0.1496  0.1589
14690TIP3   OH265484   6.439   1.496   4.130 -0.1603  0.6026 -0.4477
14690TIP3    H165485   6.444   1.502   4.035 -1.2468 -2.9551 -0.8680
14690TIP3    H265486   6.529   1.479   4.157 -0.1409 -0.3372 -1.0736
14691TIP3   OH265487   3.973   0.539   0.335  0.1668 -0.3360 -0.4237
14691TIP3    H165488   4.000   0.534   0.427 -0.9563 -0.5977 -0.1012
14691TIP3    H265489   3.880   0.519   0.336 -0.0346  0.4797 -1.5316
14692TIP3   OH265490   4.623   0.989   6.028  0.1470  1.1017 -0.3796
14692TIP3    H165491   4.619   1.080   6.058 -0.5435  0.8941  0.1867
14692TIP3    H265492   4.628   0.938   6.109 -2.2857  0.4982 -0.5587
14693TIP3   OH265493   3.877   3.854  11.985 -0.6398  0.1803 -0.1157
14693TIP3    H165494   3.885   3.923  12.051 -2.7455  0.8114 -0.4634
14693TIP3    H265495   3.812   3.887  11.923 -3.1278 -2.7944  0.6766
14694TIP3   OH265496   3.997   3.929   1.645  0.6189  0.5511  0.8439
14694TIP3    H165497   4.050   3.912   1.723  2.3609 -0.8732 -0.5764
14694TIP3    H265498   3.966   3.843   1.618 -2.5584  1.3329  1.6292
14695TIP3   OH265499   4.334   3.025   6.292  0.0844 -0.3646  0.0238
14695TIP3    H165500   4.392   3.101   6.287  0.1909 -0.3959  0.7272
14695TIP3    H265501   4.359   2.980   6.372 -0.3095 -0.8780 -0.1337
14696TIP3   OH265502   1.255   2.999   3.109  0.0185 -0.9177 -0.4273
14696TIP3    H165503   1.198   2.939   3.061 -0.4248 -0.8376 -0.0034
14696TIP3    H265504   1.201   3.031   3.182  0.5300 -0.6681 -0.1536
14697TIP3   OH265505   1.760   1.437   4.303 -0.5522  0.0820 -0.1598
14697TIP3    H165506   1.806   1.514   4.267  1.4593 -1.2142 -0.5333
14697TIP3    H265507   1.681   1.430   4.251  1.0566 -0.2431 -2.7678
14698TIP3   OH265508   5.491   5.578   3.359 -0.3702  0.4042 -0.7682
14698TIP3    H165509   5.569   5.527   3.336 -0.2058 -0.6409  1.7777
14698TIP3    H265510   5.452   5.601   3.274  1.8599 -0.3089 -2.0898
14699TIP3   OH265511   0.217   4.700   5.992  0.4474  0.5549 -0.0837
14699TIP3    H165512   0.232   4.616   5.948  3.0102 -0.0815  1.7324
14699TIP3    H265513   0.290   4.755   5.962  1.1085  0.7368  1.7647
14700TIP3   OH265514   6.317   1.246  15.618 -0.0499 -0.4205  0.0319
14700TIP3    H165515   6.290   1.336  15.603  0.6268  0.2278  2.2077
14700TIP3    H265516   6.239   1.202  15.651  0.0880 -0.0535  0.8938
14701TIP3   OH265517   2.733   5.953   1.875  0.3758 -0.5721 -0.4304
14701TIP3    H165518   2.771   5.918   1.794  0.0334 -1.0325 -0.3946
14701TIP3    H265519   2.688   6.033   1.848  2.9449  1.0609 -0.1858
14702TIP3   OH265520   5.677   5.743   3.083  0.0830  0.1015 -0.0275
14702TIP3    H165521   5.723   5.684   3.023  0.5540 -1.0754  1.4441
14702TIP3    H265522   5.587   5.712   3.084  0.2020 -0.2370  0.3024
14703TIP3   OH265523   2.915   4.385   5.920 -0.6433 -0.2064 -0.3415
14703TIP3    H165524   2.974   4.336   5.862 -0.3179 -0.1873 -0.0344
14703TIP3    H265525   2.876   4.451   5.863  0.2841  0.3323 -0.3714
14704TIP3   OH265526   6.229   5.664  14.975 -0.3687  0.3469 -0.1563
14704TIP3    H165527   6.199   5.755  14.965 -0.3432  0.7598  2.6555
14704TIP3    H265528   6.323   5.671  14.991  0.0868 -0.4231 -2.1864
14705TIP3   OH265529   4.052   4.693   6.734 -0.4586 -0.1951 -0.4211
14705TIP3    H165530   4.108   4.762   6.769 -0.0340 -1.3482  1.2843
14705TIP3    H265531   3.973   4.738   6.705 -0.3452  0.9844  0.9926
14706TIP3   OH265532   5.036   1.797   3.422  0.1332  0.3634 -0.1029
14706TIP3    H165533   4.943   1.818   3.428 -0.2203 -0.2804 -2.2162
14706TIP3    H265534   5.055   1.749   3.502 -1.5788 -0.2469 -0.0156
14707TIP3   OH265535   1.932   0.285  11.657 -0.8148 -0.0155 -0.4422
14707TIP3    H165536   2.013   0.335  11.650 -0.7064  0.0810  1.2843
14707TIP3    H265537   1.882   0.328  11.726 -1.3259 -1.4497  0.1171
14708TIP3   OH265538   4.059   1.555   1.880  0.2202 -0.2788 -0.3681
14708TIP3    H165539   4.152   1.552   1.859  0.4398 -0.6922  0.5884
14708TIP3    H265540   4.056   1.547   1.976 -0.7264  1.0859 -0.2613
14709TIP3   OH265541   2.800   3.636   2.438 -0.2030  0.4924 -0.2376
14709TIP3    H165542   2.776   3.671   2.352  1.1895  0.5223 -0.6445
14709TIP3    H265543   2.886   3.597   2.425  0.1019  0.6228  1.1818
14710TIP3   OH265544   6.588   4.308  16.041 -0.1253  0.3340  0.4068
14710TIP3    H165545   6.541   4.353  15.970  1.5246  0.7017 -0.5023
14710TIP3    H265546   6.577   4.215  16.020  0.4010  0.4376 -0.4077
14711TIP3   OH265547   3.108   4.403  11.716 -0.1984  0.5539 -0.0439
14711TIP3    H165548   3.029   4.354  11.694  0.2419 -0.1520 -0.1038
14711TIP3    H265549   3.149   4.421  11.631 -0.1945  0.7440 -0.0014
14712TIP3   OH265550   5.463   0.043  17.476 -0.6822  0.0262 -0.0186
14712TIP3    H165551   5.437  -0.011  17.401  2.2214 -1.4540 -0.1112
14712TIP3    H265552   5.401   0.020  17.545 -0.9699 -1.7052 -0.7848
14713TIP3   OH265553   0.640   4.918   5.293 -0.5308  0.0026 -0.2565
14713TIP3    H165554   0.625   4.863   5.216 -1.0114  0.8855 -0.8181
14713TIP3    H265555   0.602   4.869   5.366  1.7082 -1.7931 -0.1834
14714TIP3   OH265556   3.255   6.429   1.897 -0.1032  0.1561  0.0484
14714TIP3    H165557   3.171   6.409   1.937 -0.0826  1.2460  0.6849
14714TIP3    H265558   3.247   6.520   1.869  0.8088  0.2318  0.0006
14715TIP3   OH265559   0.942   0.399   6.032  0.1571 -0.7104 -0.1270
14715TIP3    H165560   0.848   0.417   6.023 -0.3304 -2.5386  0.8352
14715TIP3    H265561   0.959   0.405   6.126  1.4087  1.2215 -0.4197
14716TIP3   OH265562   4.977   2.252  13.943 -0.2747 -0.0358  0.6935
14716TIP3    H165563   5.047   2.317  13.944  2.0831 -2.3823  1.0774
14716TIP3    H265564   4.905   2.294  13.896  0.4788  3.3473  2.2505
14717TIP3   OH265565   4.774   4.687  11.315  0.6022 -0.7591 -0.8145
14717TIP3    H165566   4.696   4.684  11.259 -0.5307  0.2514  0.6441
14717TIP3    H265567   4.839   4.735  11.263 -0.4145  0.1308 -1.2941
14718TIP3   OH265568   1.972   1.269   4.343  0.3665  0.4780 -0.3049
14718TIP3    H165569   1.897   1.328   4.344  0.3613  0.5162 -1.3374
14718TIP3    H265570   1.935   1.183   4.324  0.6247  0.5880 -1.3541
14719TIP3   OH265571   4.956   6.146   3.759 -0.0947 -0.7241  0.3962
14719TIP3    H165572   4.992   6.185   3.838  0.8161 -1.7320  0.5031
14719TIP3    H265573   5.022   6.082   3.732  0.0395  0.2082 -1.6687
14720TIP3   OH265574   0.201   3.188  16.373  0.3723  0.5120 -0.3662
14720TIP3    H165575   0.271   3.191  16.439 -0.8796  1.8721  0.9873
14720TIP3    H265576   0.245   3.159  16.293  2.4911  1.3932  0.4017
14721TIP3   OH265577   3.867   0.729   5.025  0.0433 -0.3046 -0.0865
14721TIP3    H165578   3.822   0.776   4.955 -0.1891  0.9481  0.8547
14721TIP3    H265579   3.826   0.643   5.028  0.2624 -0.4850 -1.6611
14722TIP3   OH265580   5.760   4.921   2.056  0.3041 -0.4875  0.1249
14722TIP3    H165581   5.717   4.837   2.071 -1.3618  0.3977  0.5142
14722TIP3    H265582   5.743   4.941   1.964  0.2320 -0.3159  0.1758
14723TIP3   OH265583   6.533   5.274   4.474  0.2776  0.1272  0.1016
14723TIP3    H165584   6.607   5.329   4.448 -0.4349  1.8725  1.5258
14723TIP3    H265585   6.571   5.209   4.533  0.7553  0.7757  0.5269
14724TIP3   OH265586   1.946   3.690  15.087 -0.2963  0.2491 -1.0442
14724TIP3    H165587   1.984   3.602  15.090 -0.4440  0.1857 -1.0006
14724TIP3    H265588   1.900   3.694  15.003  0.5770  0.6529 -1.5166
14725TIP3   OH265589   5.316   3.160   4.635 -0.1363  0.0094 -0.4246
14725TIP3    H165590   5.316   3.204   4.720 -1.1533  0.3024 -0.5620
14725TIP3    H265591   5.380   3.208   4.583  1.8832 -1.3143  0.7196
14726TIP3   OH265592   2.192   4.884  16.684  0.1057  0.1631  0.1307
14726TIP3    H165593   2.260   4.903  16.748 -1.7731  1.6796  1.8376
14726TIP3    H265594   2.197   4.957  16.622 -0.1641  0.4802  0.4724
14727TIP3   OH265595   1.991   1.797  14.424  0.4173 -0.1447 -0.2948
14727TIP3    H165596   2.075   1.842  14.429  0.0271  0.5132  0.9286
14727TIP3    H265597   1.926   1.868  14.421 -0.1064 -0.6412 -1.3234
14728TIP3   OH265598   1.800   4.014   0.809  0.4910  0.9938 -0.9094
14728TIP3    H165599   1.894   4.017   0.830  0.4178 -0.6839 -0.1055
14728TIP3    H265600   1.758   3.989   0.891 -0.5320  0.6280 -1.5203
14729TIP3   OH265601   5.615   6.542   2.189  0.1528  0.0026  0.5485
14729TIP3    H165602   5.551   6.568   2.124  0.9175 -1.2629 -0.7791
14729TIP3    H265603   5.622   6.616   2.248 -0.2777  1.3588 -1.0415
14730TIP3   OH265604   5.284   0.086   4.058 -0.1577 -0.0190  1.0156
14730TIP3    H165605   5.306   0.116   3.970 -0.6229 -0.8043  0.6209
14730TIP3    H265606   5.283   0.166   4.111  0.8292  0.3732  0.4644
14731TIP3   OH265607   0.210   4.718   2.074 -0.0651 -0.1709 -0.2511
14731TIP3    H165608   0.295   4.736   2.032  0.5442 -0.1473  0.9586
14731TIP3    H265609   0.148   4.716   2.001  0.3925  3.1545 -0.8831
14732TIP3   OH265610   2.624   2.697   6.497  0.0156 -0.2440  0.7779
14732TIP3    H165611   2.601   2.620   6.549 -1.0662 -2.0352 -2.0959
14732TIP3    H265612   2.716   2.684   6.475  0.3767  0.3343  1.8924
14733TIP3   OH265613   2.846   1.802  12.738  0.0285  0.8039 -0.2625
14733TIP3    H165614   2.919   1.768  12.687  0.1038 -0.0693  0.3913
14733TIP3    H265615   2.774   1.812  12.676 -0.5684 -2.2889 -0.2523
14734TIP3   OH265616   1.692   4.290  11.528 -0.3664  0.2169 -0.1268
14734TIP3    H165617   1.609   4.268  11.571  0.1602 -0.5410  0.5464
14734TIP3    H265618   1.705   4.383  11.547 -0.3488 -0.0030  1.0495
14735TIP3   OH265619   3.823   1.221  16.946 -0.2167 -0.4326  0.7383
14735TIP3    H165620   3.739   1.179  16.968 -0.1352 -1.3183 -0.5202
14735TIP3    H265621   3.871   1.223  17.029 -1.3695 -0.1609  1.4188
14736TIP3   OH265622   3.527   5.341   1.336  0.2033 -0.1024  0.1060
14736TIP3    H165623   3.435   5.323   1.316  0.2068 -0.6713  0.5748
14736TIP3    H265624   3.559   5.259   1.374  0.7946  0.2309  0.3282
14737TIP3   OH265625   5.646   6.543   1.710  0.2557 -0.3946  0.0739
14737TIP3    H165626   5.587   6.496   1.768 -0.7270 -0.2370 -0.7833
14737TIP3    H265627   5.637   6.635   1.736 -0.3810 -0.2916 -0.4733
14738TIP3   OH265628   2.136   2.762   0.441  0.3807 -0.3628  0.4000
14738TIP3    H165629   2.126   2.855   0.423  0.6852 -0.4199 -0.0906
14738TIP3    H265630   2.187   2.728   0.367  0.6393 -0.8356  0.7853
14739TIP3   OH265631   6.273   1.538   6.090  0.4013  0.0902 -0.0902
14739TIP3    H165632   6.333   1.529   6.016 -1.2125  0.4208 -1.5310
14739TIP3    H265633   6.320   1.591   6.154  2.5813 -1.8094  0.0087
14740TIP3   OH265634   4.498   3.434  12.977 -0.2177 -0.2071  0.5500
14740TIP3    H165635   4.562   3.505  12.981 -0.1725 -0.2629  0.8004
14740TIP3    H265636   4.437   3.461  12.908  0.5365 -0.5401 -0.2707
14741TIP3   OH265637   6.099   3.440   0.443  0.3151  0.2174 -0.1600
14741TIP3    H165638   6.185   3.472   0.415  1.4013 -0.8509  1.7422
14741TIP3    H265639   6.103   3.345   0.428 -0.0867  0.0032  1.0107
14742TIP3   OH265640   4.280   4.684  16.724  0.1045 -0.2780 -0.2374
14742TIP3    H165641   4.194   4.652  16.695  1.1978 -1.7362 -2.2098
14742TIP3    H265642   4.341   4.645  16.661  2.0856  1.8765  0.2279
14743TIP3   OH265643   3.471   2.378  12.023 -0.5001  0.6558  0.1614
14743TIP3    H165644   3.515   2.340  11.947 -0.1464  0.5502  0.4160
14743TIP3    H265645   3.474   2.310  12.089 -1.6789  0.3842 -0.0348
14744TIP3   OH265646   4.283   2.941   4.609  0.0345  0.3021 -0.6530
14744TIP3    H165647   4.346   2.889   4.560  1.5278  0.7948  0.6917
14744TIP3    H265648   4.228   2.877   4.654 -0.0874 -0.1192 -1.3864
14745TIP3   OH265649   3.160   2.353  17.137 -0.0634 -0.1433  0.5808
14745TIP3    H165650   3.113   2.437  17.136  0.7760  0.3807 -1.5463
14745TIP3    H265651   3.252   2.378  17.129  0.1120 -1.2233 -1.8405
14746TIP3   OH265652   4.486   3.421   0.489  0.0645 -0.3483 -0.1357
14746TIP3    H165653   4.523   3.431   0.401  1.9672 -1.5951  0.4706
14746TIP3    H265654   4.469   3.327   0.497 -3.5196  0.1100 -0.3958
14747TIP3   OH265655   1.936   1.282  16.329 -0.7002  0.2806 -0.2934
14747TIP3    H165656   1.849   1.302  16.296 -0.6047 -1.0084 -1.4355
14747TIP3    H265657   1.993   1.288  16.252 -0.0521 -0.3518  0.1201
14748TIP3   OH265658   0.536   3.985   3.265  0.1884 -0.0552 -0.2109
14748TIP3    H165659   0.465   4.031   3.219  0.2589 -0.8463 -1.1365
14748TIP3    H265660   0.526   4.011   3.356 -0.5015  0.8574 -0.5309
14749TIP3   OH265661   1.541   2.177   3.799 -0.0681  0.3477  0.4672
14749TIP3    H165662   1.467   2.179   3.860  0.4863 -0.0646  1.1615
14749TIP3    H265663   1.563   2.085   3.791  0.3970  0.4726  0.2813
14750TIP3   OH265664   4.783   3.737   6.649 -0.2248 -0.2158  0.3001
14750TIP3    H165665   4.739   3.683   6.715  0.6590  0.0620  1.1525
14750TIP3    H265666   4.755   3.701   6.565 -1.4938 -0.4980  0.8186
14751TIP3   OH265667   5.345   4.342   6.311  0.1902  0.2529 -0.2643
14751TIP3    H165668   5.413   4.275   6.298  2.5079  2.7788 -2.7561
14751TIP3    H265669   5.274   4.316   6.253 -0.1927 -1.4063  0.8836
14752TIP3   OH265670   1.160   1.881   2.836  0.1150  0.0712 -0.0340
14752TIP3    H165671   1.159   1.785   2.828  0.0252  0.1998 -1.8727
14752TIP3    H265672   1.215   1.911   2.764  1.5437  1.3592  1.5097
14753TIP3   OH265673   4.128   0.898   3.597  0.2237  0.1801 -0.4356
14753TIP3    H165674   4.057   0.840   3.624  0.4101  0.2114  0.1387
14753TIP3    H265675   4.110   0.981   3.641  0.2331  0.4088 -0.8548
14754TIP3   OH265676   3.238   0.374  17.217  0.2064 -0.3123 -0.5763
14754TIP3    H165677   3.328   0.344  17.218  0.0987 -0.7578 -1.9098
14754TIP3    H265678   3.243   0.466  17.244  0.6488 -1.1422  2.5083
14755TIP3   OH265679   4.098   2.206  16.960  0.2614 -0.1100  0.4049
14755TIP3    H165680   4.003   2.202  16.947  0.1329 -0.5663  1.3979
14755TIP3    H265681   4.112   2.291  17.001  0.0910 -0.6665  1.6463
14756TIP3   OH265682   6.337   0.009  13.218  0.3812 -0.2761 -0.1872
14756TIP3    H165683   6.274   0.064  13.265  0.0985 -1.1386  0.4877
14756TIP3    H265684   6.282  -0.051  13.167  0.6581 -0.5689 -0.1474
14757TIP3   OH265685   1.372   2.439  15.111 -0.2800 -0.7815  0.5464
14757TIP3    H165686   1.354   2.504  15.043  0.4384 -0.8519  0.2825
14757TIP3    H265687   1.427   2.485  15.175  0.1882 -1.1120  0.3841
14758TIP3   OH265688   5.640   2.183  13.652  0.9518 -0.8100  0.2725
14758TIP3    H165689   5.625   2.228  13.570  1.7456  0.8749  1.0041
14758TIP3    H265690   5.580   2.108  13.650  0.6183 -0.5320 -1.6009
14759TIP3   OH265691   5.914   4.437  15.362  0.5605 -0.0984  0.3493
14759TIP3    H165692   5.917   4.355  15.412  0.8896  0.0675  0.6048
14759TIP3    H265693   5.975   4.423  15.290  1.5043  0.3437  1.0467
14760TIP3   OH265694   1.124   2.232  13.235 -0.0042  0.8588 -0.1388
14760TIP3    H165695   1.196   2.233  13.297  1.0495 -1.7819 -1.1966
14760TIP3    H265696   1.166   2.224  13.149 -1.5189 -1.0186 -0.7582
14761TIP3   OH265697   6.455   4.054  12.634  0.4147 -0.3675 -0.7972
14761TIP3    H165698   6.477   4.133  12.584  0.9395 -0.3674 -0.5749
14761TIP3    H265699   6.529   3.996  12.621 -0.0997 -0.9418 -1.1889
14762TIP3   OH265700   1.406   4.102   4.911 -0.7254 -0.3038 -0.2886
14762TIP3    H165701   1.324   4.129   4.952 -0.4637  0.0474  0.0108
14762TIP3    H265702   1.453   4.054   4.978  0.8670  2.4916  0.7905
14763TIP3   OH265703   3.283   0.704  15.776  0.1045 -0.5002 -0.0603
14763TIP3    H165704   3.240   0.743  15.700  0.6300 -0.9073 -0.5739
14763TIP3    H265705   3.351   0.648  15.739  0.6039 -0.4269  0.7206
14764TIP3   OH265706   3.742   4.587  14.245  0.3199 -0.1502 -0.2788
14764TIP3    H165707   3.719   4.576  14.152 -0.8385 -2.1729  0.1936
14764TIP3    H265708   3.698   4.668  14.271  1.6001  1.0811 -1.7377
14765TIP3   OH265709   4.554   2.128   5.992  0.1416 -0.0770  0.0813
14765TIP3    H165710   4.627   2.121   6.053  0.0566 -1.0957  0.0790
14765TIP3    H265711   4.476   2.117   6.046  0.0194  0.1393 -0.0473
14766TIP3   OH265712   1.806   5.721  12.227 -0.3329  0.3473 -0.1288
14766TIP3    H165713   1.865   5.762  12.291 -1.8186  1.5388  0.5437
14766TIP3    H265714   1.722   5.765  12.240 -1.1989 -0.7804 -1.5637
14767TIP3   OH265715   3.011   4.414   3.034 -0.0529 -0.6628 -0.1088
14767TIP3    H165716   2.979   4.331   3.069  1.4170 -0.3634  2.1153
14767TIP3    H265717   2.997   4.406   2.939  0.0962 -3.4719  0.0126
14768TIP3   OH265718   1.794   1.410  13.669 -0.4649 -0.3343 -0.4025
14768TIP3    H165719   1.707   1.375  13.645  0.0398 -1.7649 -0.2677
14768TIP3    H265720   1.788   1.427  13.763 -0.4878 -0.8318 -0.3080
14769TIP3   OH265721   6.156   0.232   5.497 -0.1781  0.1923  0.4748
14769TIP3    H165722   6.169   0.178   5.419 -1.6989  2.2969 -1.3384
14769TIP3    H265723   6.105   0.176   5.556  1.1601 -1.5024  0.1211
14770TIP3   OH265724   6.100   6.228  16.706  0.2272  0.3256  0.1533
14770TIP3    H165725   6.040   6.175  16.758 -1.0441  0.6367 -0.9545
14770TIP3    H265726   6.099   6.314  16.749  0.8572 -0.0227  0.8696
14771TIP3   OH265727   4.604   5.210   5.555  0.1343  0.4343 -0.2495
14771TIP3    H165728   4.509   5.204   5.564 -0.1308  1.6425 -1.7941
14771TIP3    H265729   4.638   5.170   5.635 -1.6976  1.1114  0.9451
14772TIP3   OH265730   5.480   4.437  13.223 -0.3803  0.4525  0.3419
14772TIP3    H165731   5.401   4.491  13.216 -2.0570 -1.7878  1.0106
14772TIP3    H265732   5.483   4.389  13.140 -0.9008 -0.9267  1.0875
14773TIP3   OH265733   3.031   6.325   5.920  0.2313  0.1161  0.6069
14773TIP3    H165734   2.995   6.243   5.954  0.3822 -0.3942 -0.4273
14773TIP3    H265735   3.091   6.355   5.988 -0.0466 -0.4854  1.1212
14774TIP3   OH265736   1.060   1.148   0.894 -0.1799 -0.0407  0.4523
14774TIP3    H165737   1.126   1.098   0.941  0.9173  0.7811 -0.1708
14774TIP3    H265738   0.978   1.126   0.938  0.6667 -0.0429  2.1214
14775TIP3   OH265739   1.208   1.125  10.812  0.3109 -0.0555 -0.5100
14775TIP3    H165740   1.121   1.164  10.814 -0.0702 -0.8908 -0.0837
14775TIP3    H265741   1.241   1.133  10.902  0.5435 -0.0372 -0.5942
14776TIP3   OH265742   0.882   6.457  14.497 -0.1943  0.8905  0.0329
14776TIP3    H165743   0.850   6.411  14.420  0.0187 -2.2254  1.6768
14776TIP3    H265744   0.977   6.454  14.490 -0.1687  0.2511  0.5856
14777TIP3   OH265745   5.326   4.851  11.903 -0.0853  0.8739 -0.3398
14777TIP3    H165746   5.338   4.857  11.808 -2.3307  1.9874 -0.6313
14777TIP3    H265747   5.234   4.873  11.917 -0.1410 -0.4495  2.0198
14778TIP3   OH265748   0.601   3.613   3.949 -0.3395  0.0297 -0.8534
14778TIP3    H165749   0.569   3.692   3.906  1.4269  1.2283 -0.0738
14778TIP3    H265750   0.546   3.604   4.027 -1.5909 -0.4529 -1.7685
14779TIP3   OH265751   3.152   6.001  15.985 -0.0480  0.6388 -0.0232
14779TIP3    H165752   3.157   5.982  15.891 -0.2791  3.4568 -0.6782
14779TIP3    H265753   3.193   5.925  16.026 -0.9454 -1.2159 -2.3107
14780TIP3   OH265754   0.585   5.660  16.744  0.5280 -0.7462  0.3192
14780TIP3    H165755   0.679   5.678  16.736  0.0897  1.4488 -0.4319
14780TIP3    H265756   0.554   5.651  16.654 -0.8862  4.2690  0.0132
14781TIP3   OH265757   0.966   6.047  12.837 -0.4627  0.0422  0.2730
14781TIP3    H165758   0.964   6.089  12.923 -0.8539 -1.7504  1.1911
14781TIP3    H265759   1.037   6.091  12.791 -0.3513  1.1572  1.4540
14782TIP3   OH265760   4.863   4.589  12.757  0.1588 -0.3870 -0.0486
14782TIP3    H165761   4.845   4.605  12.850  2.1785  1.1538  0.1481
14782TIP3    H265762   4.870   4.677  12.718  0.1468 -0.9872 -1.4858
14783TIP3   OH265763   2.595   4.403  14.396  0.0395  0.4435  0.0927
14783TIP3    H165764   2.512   4.367  14.427  0.2267  0.1427  0.2445
14783TIP3    H265765   2.622   4.463  14.465 -0.6623  1.4885 -0.5120
14784TIP3   OH265766   3.748   2.975   6.267 -0.2479 -0.5155  0.3335
14784TIP3    H165767   3.715   3.050   6.317  0.1679 -0.5181  0.6170
14784TIP3    H265768   3.815   3.011   6.211 -0.9295 -0.4587 -0.4663
14785TIP3   OH265769   1.252   0.117  14.968  0.0121 -0.0108  0.2371
14785TIP3    H165770   1.165   0.087  14.994 -0.6346  1.7797  0.2979
14785TIP3    H265771   1.311   0.049  14.999 -1.4158 -1.7101 -0.5793
14786TIP3   OH265772   3.565   2.379  12.407  0.0904 -0.6202 -0.2966
14786TIP3    H165773   3.547   2.286  12.421  2.0071 -0.9760  0.0629
14786TIP3    H265774   3.588   2.385  12.314  0.8439 -0.6852 -0.1221
14787TIP3   OH265775   1.864   6.466   5.672  0.8166 -0.2325  0.2185
14787TIP3    H165776   1.949   6.510   5.679  0.5330  1.0184 -2.8145
14787TIP3    H265777   1.870   6.393   5.734  3.8492  0.1867  0.5798
14788TIP3   OH265778   5.455   2.604   0.595 -0.6306  0.7993  0.2726
14788TIP3    H165779   5.514   2.528   0.592 -1.3990  0.2092 -0.6460
14788TIP3    H265780   5.485   2.655   0.669  1.4247  0.8349 -0.5227
14789TIP3   OH265781   4.301   0.844   0.835 -0.2611 -0.5266  0.1324
14789TIP3    H165782   4.241   0.908   0.874 -0.7344 -0.0209 -1.3722
14789TIP3    H265783   4.362   0.823   0.906 -0.1342  1.5264  0.7120
14790TIP3   OH265784   3.232   0.658  14.492  0.2209  0.2296 -0.3371
14790TIP3    H165785   3.303   0.594  14.488  1.2297  1.0525  2.1389
14790TIP3    H265786   3.158   0.609  14.528  0.2460 -0.1074 -0.7484
14791TIP3   OH265787   0.756   5.113   2.376  0.4536  0.3087 -0.3107
14791TIP3    H165788   0.846   5.136   2.353  0.3955  0.7671 -0.0830
14791TIP3    H265789   0.704   5.190   2.353  0.2519  0.3904  0.4133
14792TIP3   OH265790   3.545   2.248   0.461 -0.4638 -0.5021 -0.2202
14792TIP3    H165791   3.637   2.226   0.475  0.0482  2.1411  1.2645
14792TIP3    H265792   3.496   2.190   0.519  0.5867  0.4479  1.6742
14793TIP3   OH265793   3.026   4.812  15.953  0.3414 -0.3033 -0.3796
14793TIP3    H165794   3.089   4.882  15.971  0.9869 -0.8167 -0.5802
14793TIP3    H265795   3.069   4.758  15.886 -0.6643 -0.2041 -1.1169
14794TIP3   OH265796   5.931   0.652  12.648  0.2492 -0.2803  0.1053
14794TIP3    H165797   5.842   0.617  12.654  0.5453 -1.2902 -1.1092
14794TIP3    H265798   5.978   0.609  12.719 -0.0282 -0.3354  0.2583
14795TIP3   OH265799   3.278   4.848   0.290  0.2749 -0.0535  0.5590
14795TIP3    H165800   3.281   4.942   0.276  0.3219 -0.1102  0.1776
14795TIP3    H265801   3.344   4.812   0.231 -0.8118 -0.4450 -0.4533
14796TIP3   OH265802   1.421   3.837  16.141 -0.2641  0.5033  0.6210
14796TIP3    H165803   1.329   3.852  16.117 -0.7817  1.2484  2.8636
14796TIP3    H265804   1.446   3.915  16.191  1.4156  0.0415  0.5477
14797TIP3   OH265805   3.511   2.439  15.580  1.0878 -0.1112 -0.0221
14797TIP3    H165806   3.513   2.469  15.671 -0.2079 -1.6497  0.5546
14797TIP3    H265807   3.590   2.477  15.541  0.7044  2.1288  1.2163
14798TIP3   OH265808   5.445   3.655  13.885  0.4973  0.2525 -0.1916
14798TIP3    H165809   5.512   3.604  13.931 -0.1678  0.4711  1.0506
14798TIP3    H265810   5.369   3.596  13.881  0.7616 -0.0285 -1.6730
14799TIP3   OH265811   4.064   1.197  14.508 -0.0971  0.4298 -0.2059
14799TIP3    H165812   4.151   1.238  14.518 -0.1228  0.2622  0.8268
14799TIP3    H265813   4.075   1.110  14.547 -0.0554 -0.5759 -2.3349
14800TIP3   OH265814   4.304   5.616   3.705 -0.0368  0.0789 -0.2022
14800TIP3    H165815   4.223   5.571   3.681 -0.6986 -0.7014  2.9972
14800TIP3    H265816   4.348   5.555   3.764  0.7405  2.2104  1.5350
14801TIP3   OH265817   3.318   0.009  15.897  0.7745 -0.2962  0.3570
14801TIP3    H165818   3.343   0.054  15.816 -1.4208  1.7645  0.7427
14801TIP3    H265819   3.304  -0.082  15.870  1.1948  0.0981 -1.3229
14802TIP3   OH265820   0.093   5.961   4.429 -0.2192  0.9164  0.5171
14802TIP3    H165821   0.139   5.918   4.501 -2.0684 -1.5020  0.4077
14802TIP3    H265822   0.133   5.925   4.350 -1.4727 -0.4097  0.4260
14803TIP3   OH265823   1.270   3.161   2.567 -0.1136 -0.0702  0.1258
14803TIP3    H165824   1.356   3.129   2.596 -0.1004 -0.4108 -0.2849
14803TIP3    H265825   1.279   3.256   2.567  0.0024 -0.0780  0.8804
14804TIP3   OH265826   5.154   5.493  15.412  0.7693 -0.3963 -0.1041
14804TIP3    H165827   5.123   5.469  15.499  0.2279 -1.5280 -0.5865
14804TIP3    H265828   5.209   5.570  15.426 -0.9098  0.6691  0.9907
14805TIP3   OH265829   4.050   5.441  13.278 -0.0967 -0.3780 -0.3433
14805TIP3    H165830   4.029   5.348  13.271 -1.1133 -0.1527 -0.3444
14805TIP3    H265831   4.025   5.478  13.194  2.9710 -0.5661 -1.4869
14806TIP3   OH265832   1.470   2.449  12.992 -0.6141  0.0901 -0.1973
14806TIP3    H165833   1.492   2.374  12.937 -1.6111  0.7254 -1.5476
14806TIP3    H265834   1.378   2.467  12.970 -0.0027  2.5812 -1.0421
14807TIP3   OH265835   5.767   0.310   3.304 -0.4813  0.8657 -0.2205
14807TIP3    H165836   5.729   0.269   3.226 -0.1000  2.0656 -1.0588
14807TIP3    H265837   5.717   0.390   3.316 -1.9023 -0.2523  2.0133
14808TIP3   OH265838   0.695   5.439  17.459  0.1922  0.1866 -0.3567
14808TIP3    H165839   0.654   5.525  17.449 -2.2502 -0.8664 -0.1166
14808TIP3    H265840   0.750   5.448  17.536  0.1102  1.5620 -0.4257
14809TIP3   OH265841   4.355   5.267   2.396 -0.1822  0.2052  0.0810
14809TIP3    H165842   4.351   5.363   2.388  0.0121  0.1997 -0.1081
14809TIP3    H265843   4.360   5.236   2.306  1.8007  0.1226  0.1850
14810TIP3   OH265844   2.329   2.346  12.816  0.6587 -0.7045 -0.4158
14810TIP3    H165845   2.362   2.261  12.845 -0.1355 -0.7962  0.2511
14810TIP3    H265846   2.236   2.330  12.799  0.2143  0.3329  0.9511
14811TIP3   OH265847   2.804   2.483   2.025 -0.2546 -0.4610  0.2162
14811TIP3    H165848   2.719   2.469   1.982  0.2925  1.1906 -1.5292
14811TIP3    H265849   2.839   2.563   1.985  1.2155  0.0778  2.3863
14812TIP3   OH265850   6.219   4.037   1.343 -0.4008  0.0439  0.2126
14812TIP3    H165851   6.151   4.064   1.281 -0.8798 -0.6556  0.4205
14812TIP3    H265852   6.182   3.959   1.385  1.1179 -1.2272 -0.6998
14813TIP3   OH265853   0.774   1.654  17.482  0.2853  0.2205 -0.2230
14813TIP3    H165854   0.780   1.703  17.564 -1.5869 -0.3628  0.3077
14813TIP3    H265855   0.684   1.623  17.479  0.1583  0.5992 -2.7321
14814TIP3   OH265856   1.148   5.107   2.415  0.8339  0.5411  0.4321
14814TIP3    H165857   1.145   5.079   2.323  0.9618  1.7566  0.0388
14814TIP3    H265858   1.220   5.171   2.418  0.5005  0.8856  1.2625
14815TIP3   OH265859   3.346   5.011   4.262  0.3243 -0.6186 -0.1342
14815TIP3    H165860   3.282   5.081   4.255  0.0610 -0.8783 -0.4036
14815TIP3    H265861   3.428   5.055   4.284 -0.0993 -0.3617  0.9706
14816TIP3   OH265862   0.422   4.018  16.700 -0.0691  0.2592  0.2733
14816TIP3    H165863   0.354   4.078  16.731  1.0946  0.5439  2.5123
14816TIP3    H265864   0.481   4.009  16.774  0.9994 -1.9645 -0.7543
14817TIP3   OH265865   3.690   5.809   5.015 -0.1312  0.4928 -0.4932
14817TIP3    H165866   3.692   5.716   5.040 -0.9227  0.0866 -1.8727
14817TIP3    H265867   3.738   5.853   5.085  2.4972 -1.2316 -1.0675
14818TIP3   OH265868   6.549   1.766   3.991 -0.5862  0.6120 -0.0680
14818TIP3    H165869   6.597   1.694   3.952 -1.4623  0.6003 -1.1632
14818TIP3    H265870   6.558   1.838   3.929  0.1371  1.4151  0.9310
14819TIP3   OH265871   6.254   5.807   6.168  0.4263  0.6532 -0.1341
14819TIP3    H165872   6.257   5.742   6.099 -0.3170 -1.2819  1.5398
14819TIP3    H265873   6.269   5.757   6.249 -3.9629  1.7022  1.6689
14820TIP3   OH265874   2.033   3.495  12.789  0.7053  0.0281  0.4048
14820TIP3    H165875   1.978   3.456  12.858  0.0138 -0.4346 -0.3860
14820TIP3    H265876   1.974   3.556  12.745 -0.3532 -2.8773 -2.6407
14821TIP3   OH265877   5.929   0.891   1.061 -0.3000 -0.1428  0.0799
14821TIP3    H165878   5.989   0.906   0.987  0.3561  2.4856  1.0429
14821TIP3    H265879   5.986   0.864   1.133 -0.6094 -0.1987  0.3062
14822TIP3   OH265880   0.040   4.629  14.457 -0.2251  0.1711  0.4130
14822TIP3    H165881  -0.036   4.660  14.408  1.1670  0.7144 -1.4845
14822TIP3    H265882   0.031   4.672  14.543 -2.0837  0.1233  0.2998
14823TIP3   OH265883   6.538   5.789   6.112  0.1510 -0.2551  0.4701
14823TIP3    H165884   6.543   5.835   6.028  1.6561 -0.1521  0.6011
14823TIP3    H265885   6.451   5.811   6.146  0.1448  1.0062 -0.3140
14824TIP3   OH265886   0.009   6.604   3.927 -0.0642 -0.1685 -0.0842
14824TIP3    H165887   0.021   6.509   3.933  0.5071 -0.1951 -1.3730
14824TIP3    H265888   0.015   6.635   4.017  3.0507 -0.9948  0.1176
14825TIP3   OH265889   4.809   6.428  16.458  0.2344 -0.1217 -0.5962
14825TIP3    H165890   4.731   6.373  16.459 -0.0731  0.3088 -0.8524
14825TIP3    H265891   4.782   6.510  16.498  0.6409 -0.0750 -0.4014
14826TIP3   OH265892   4.608   0.536   2.330 -0.4595  0.0259 -0.1889
14826TIP3    H165893   4.530   0.586   2.305 -0.6236 -1.2062 -2.3028
14826TIP3    H265894   4.672   0.556   2.262  0.0444 -1.3243 -0.1286
14827TIP3   OH265895   4.923   6.585   2.771  0.3184  0.6012 -0.0656
14827TIP3    H165896   4.961   6.673   2.775  0.7568  0.5186 -1.6515
14827TIP3    H265897   4.987   6.534   2.721  0.3699 -0.8003  1.3703
14828TIP3   OH265898   6.135   0.788  13.233 -0.0616 -0.1293  0.7235
14828TIP3    H165899   6.049   0.765  13.197 -0.3762  0.2452  1.2229
14828TIP3    H265900   6.182   0.825  13.159 -0.1048 -0.9237  0.2923
14829TIP3   OH265901   6.190   0.162   2.249  0.1043  0.0801 -0.5793
14829TIP3    H165902   6.244   0.222   2.301  0.2128 -0.1826 -0.3877
14829TIP3    H265903   6.102   0.199   2.252 -0.2964 -0.9149  1.3557
14830TIP3   OH265904   5.268   2.743   3.473  0.5677 -0.5804  0.1359
14830TIP3    H165905   5.204   2.690   3.426 -0.6058 -0.3171  1.3674
14830TIP3    H265906   5.305   2.683   3.538  2.0870 -0.9093 -0.9640
14831TIP3   OH265907   3.221   6.464  12.435 -0.1239  0.8044  0.5043
14831TIP3    H165908   3.282   6.537  12.426 -0.0329  1.2165  3.4133
14831TIP3    H265909   3.139   6.504  12.461 -1.1467  0.0750 -1.3824
14832TIP3   OH265910   3.892   6.372  14.716  0.5841  0.2779 -0.3103
14832TIP3    H165911   3.823   6.436  14.701  0.3251  0.6756  2.1820
14832TIP3    H265912   3.868   6.330  14.799  1.2362 -2.4115 -1.3807
14833TIP3   OH265913   0.053   3.361  15.140  0.5192  0.0992  0.0426
14833TIP3    H165914   0.013   3.433  15.091 -0.0852 -0.3297 -0.1115
14833TIP3    H265915  -0.006   3.347  15.214  1.1730  0.4270  0.6382
14834TIP3   OH265916   2.010   6.156  14.654  0.3391 -0.2554  0.3106
14834TIP3    H165917   2.022   6.085  14.718 -1.5232 -0.6291  0.2965
14834TIP3    H265918   1.920   6.146  14.624  0.2412  1.7461 -0.1712
14835TIP3   OH265919   1.178   0.014  11.906 -0.0974 -0.1155 -0.2511
14835TIP3    H165920   1.269  -0.003  11.880 -0.1038 -0.2351 -0.1977
14835TIP3    H265921   1.181   0.100  11.948 -0.1405  0.1992 -0.8934
14836TIP3   OH265922   5.616   6.617   0.451  0.0996  0.4200 -0.3503
14836TIP3    H165923   5.538   6.669   0.472 -1.0831 -2.1364  2.1057
14836TIP3    H265924   5.688   6.664   0.493 -0.8752  0.3823  1.4521
14837TIP3   OH265925   3.737   4.909  12.630  0.0350  0.3361 -0.5635
14837TIP3    H165926   3.824   4.898  12.591  1.2423 -0.0463  2.0434
14837TIP3    H265927   3.681   4.850  12.580  1.1186  0.9243 -2.6116
14838TIP3   OH265928   2.363   1.990  15.753 -0.8585 -0.2837 -0.1311
14838TIP3    H165929   2.380   1.999  15.659 -0.4193 -0.0323 -0.0336
14838TIP3    H265930   2.327   1.902  15.763 -0.4424 -0.4992 -0.4748
14839TIP3   OH265931   3.768   2.859   3.938 -0.0723  0.6147 -0.1131
14839TIP3    H165932   3.796   2.892   3.853 -2.6109 -1.4645 -1.9365
14839TIP3    H265933   3.835   2.795   3.963 -0.1260  0.0366 -1.4041
14840TIP3   OH265934   3.394   0.780  16.879  0.5337 -0.2727  0.5035
14840TIP3    H165935   3.404   0.838  16.954  1.6713 -0.5035  0.5529
14840TIP3    H265936   3.482   0.773  16.842  0.2852 -1.3807  0.0620
14841TIP3   OH265937   0.211   2.148  17.366 -0.1802 -0.1021 -0.4878
14841TIP3    H165938   0.252   2.152  17.452  0.6616  1.3516 -0.9188
14841TIP3    H265939   0.225   2.058  17.337  2.8686  0.3175 -0.6369
14842TIP3   OH265940   6.242   3.715  11.112  0.3246 -0.4481  0.0037
14842TIP3    H165941   6.221   3.621  11.114 -0.3276 -0.2971  0.9522
14842TIP3    H265942   6.256   3.735  11.020 -2.8689 -0.7441 -0.6570
14843TIP3   OH265943   1.001   6.348  15.458 -0.7647  0.2705  0.0726
14843TIP3    H165944   0.936   6.347  15.388 -1.6824 -1.4680  0.8717
14843TIP3    H265945   1.021   6.440  15.471 -1.0943  0.6739 -1.9733
14844TIP3   OH265946   5.943   6.290   6.398  0.1536 -0.1299  0.0618
14844TIP3    H165947   5.899   6.372   6.421 -0.3722  0.1238 -1.6457
14844TIP3    H265948   6.032   6.317   6.374  0.1293 -0.1160 -0.0148
14845TIP3   OH265949   5.885   2.649  12.936 -0.1059  0.1934 -0.8699
14845TIP3    H165950   5.824   2.704  12.985  0.6026  1.2212 -1.1179
14845TIP3    H265951   5.872   2.674  12.845  0.0160 -0.2749 -1.0200
14846TIP3   OH265952   1.748   6.056   2.133 -0.3624 -0.0821  0.1069
14846TIP3    H165953   1.760   6.151   2.134 -0.0241 -0.1116 -0.6268
14846TIP3    H265954   1.742   6.032   2.225 -0.0794  0.6029  0.3131
14847TIP3   OH265955   5.140   0.785   3.187  0.0936 -0.0658 -0.2976
14847TIP3    H165956   5.169   0.875   3.176 -1.4381  0.7735  2.0003
14847TIP3    H265957   5.156   0.765   3.279 -2.2764 -1.1079 -0.0401
14848TIP3   OH265958   1.553   0.037   0.277  0.6591 -0.4091  0.1875
14848TIP3    H165959   1.461   0.062   0.289  0.3731 -1.3689  0.1040
14848TIP3    H265960   1.601   0.120   0.280 -0.1062  0.0216  1.2186
14849TIP3   OH265961   5.701   2.087  15.244  0.6327  0.0021 -0.1377
14849TIP3    H165962   5.754   2.166  15.255 -0.4947  0.8613 -0.6078
14849TIP3    H265963   5.613   2.120  15.223 -0.1236 -1.3647  0.7261
14850TIP3   OH265964   1.273   0.956  12.259  0.3848  0.4844 -0.5716
14850TIP3    H165965   1.302   1.029  12.314 -0.7981 -0.3739  1.3164
14850TIP3    H265966   1.210   0.995  12.198 -1.2861  0.9168  1.3090
14851TIP3   OH265967   1.610   0.861   3.910  0.1576  0.1371  0.0855
14851TIP3    H165968   1.526   0.815   3.910  0.7785 -1.0547 -0.8653
14851TIP3    H265969   1.672   0.797   3.874  1.2912  1.3227 -0.1246
14852TIP3   OH265970   6.164   3.505   1.541  0.3773 -0.5435 -0.0435
14852TIP3    H165971   6.232   3.438   1.529 -0.8106 -1.9491  0.6643
14852TIP3    H265972   6.115   3.474   1.617 -1.2285  0.2770 -0.7183
14853TIP3   OH265973   0.522   3.492   6.614  0.1347 -0.1660 -0.3979
14853TIP3    H165974   0.570   3.506   6.532 -1.8860  0.9694 -1.4672
14853TIP3    H265975   0.579   3.530   6.681  0.0029  2.9759 -1.8572
14854TIP3   OH265976   1.037   1.390  12.182 -0.6690 -0.1580  0.5942
14854TIP3    H165977   0.968   1.446  12.216  0.8588  1.8955  0.4862
14854TIP3    H265978   1.111   1.404  12.242  0.5383 -0.1597 -0.8283
14855TIP3   OH265979   5.460   4.203  15.869 -0.2914  0.2436 -0.3155
14855TIP3    H165980   5.446   4.136  15.935  0.2309 -2.1393 -2.4539
14855TIP3    H265981   5.412   4.171  15.792 -2.0155  3.5484 -0.7910
14856TIP3   OH265982   5.160   6.065  13.842  0.2527  0.1981 -0.5671
14856TIP3    H165983   5.078   6.114  13.844  1.1880  1.8859 -1.4391
14856TIP3    H265984   5.180   6.055  13.748  1.0371 -0.1735 -0.3731
14857TIP3   OH265985   2.995   0.204   0.269 -0.0197 -0.6529 -0.5005
14857TIP3    H165986   3.049   0.144   0.217 -2.5412 -0.8821 -3.1249
14857TIP3    H265987   3.022   0.291   0.239  2.1793 -0.4431  1.7926
14858TIP3   OH265988   1.571   1.536   0.958 -0.2949 -0.8359  0.1242
14858TIP3    H165989   1.518   1.602   0.913  0.8262  0.1101  0.1579
14858TIP3    H265990   1.507   1.484   1.007 -1.3355 -0.6438 -0.9835
14859TIP3   OH265991   2.537   6.703   1.942 -0.2942 -0.3329 -0.5847
14859TIP3    H165992   2.542   6.620   1.991 -0.7296  0.7362  1.3820
14859TIP3    H265993   2.612   6.701   1.883 -1.0900 -2.7318 -1.6415
14860TIP3   OH265994   2.357   2.953   5.219 -0.2994 -0.4342  0.3803
14860TIP3    H165995   2.333   2.884   5.281  0.1303 -0.8128  0.1353
14860TIP3    H265996   2.374   2.906   5.137 -1.1427  0.0913 -0.1031
14861TIP3   OH265997   5.469   1.824   0.095 -0.0313  0.9370 -0.4110
14861TIP3    H165998   5.384   1.793   0.063 -1.2022 -0.8777  3.7613
14861TIP3    H265999   5.524   1.827   0.017 -3.1290 -0.4658 -2.9040
14862TIP3   OH266000   1.140   0.713  13.436  0.4575 -0.2148  0.3034
14862TIP3    H166001   1.147   0.697  13.342  0.1210 -1.1236  0.4167
14862TIP3    H266002   1.105   0.631  13.471  0.3965  0.1820  1.1960
14863TIP3   OH266003   6.180   1.054   2.248 -0.3891 -0.1926 -0.1217
14863TIP3    H166004   6.230   1.123   2.204 -0.5656  0.6246  0.9162
14863TIP3    H266005   6.231   0.975   2.233  0.3594  0.3353 -0.4729
14864TIP3   OH266006   1.623   0.652  11.695  0.1928  0.5182 -0.0145
14864TIP3    H166007   1.683   0.716  11.657  1.3606 -0.4988  0.0824
14864TIP3    H266008   1.630   0.576  11.638  1.5223 -0.8134  1.8338
14865TIP3   OH266009   5.336   3.101   2.024  0.3699  0.4942  0.1504
14865TIP3    H166010   5.273   3.173   2.031 -1.8371 -1.0229 -2.2789
14865TIP3    H266011   5.378   3.114   1.939  1.3267 -0.0632  0.5252
14866TIP3   OH266012   6.012   6.072  14.261  0.1666 -0.0204  0.1694
14866TIP3    H166013   6.028   6.003  14.197 -0.4948 -1.7880  1.8248
14866TIP3    H266014   5.943   6.126  14.222  1.3091  0.3007 -1.5296
14867TIP3   OH266015   4.651   5.117   2.291 -0.5926  0.2327  0.3299
14867TIP3    H166016   4.560   5.115   2.261 -0.5819 -0.7787  0.3418
14867TIP3    H266017   4.700   5.154   2.217 -0.6679 -1.5402 -0.6630
14868TIP3   OH266018   4.369   5.087   5.633  0.7797 -0.5801  0.0535
14868TIP3    H166019   4.363   5.083   5.729  1.5591 -0.3911  0.1206
14868TIP3    H266020   4.321   5.010   5.603  0.8185 -0.8332  0.6157
14869TIP3   OH266021   0.412   0.539  16.267  0.3549 -0.1227 -0.3363
14869TIP3    H166022   0.431   0.527  16.174  1.3097 -0.7854 -0.0688
14869TIP3    H266023   0.360   0.463  16.291 -0.5152  0.4167 -0.4860
14870TIP3   OH266024   2.921   5.093  15.818  0.1291  0.2409  0.8991
14870TIP3    H166025   2.922   5.002  15.847  1.1683  0.0267  0.2610
14870TIP3    H266026   2.859   5.095  15.745 -0.2335  0.1383  1.2091
14871TIP3   OH266027   5.560   3.520  15.101 -0.1934  0.0434  0.4988
14871TIP3    H166028   5.505   3.578  15.153 -0.9174 -2.2600  2.4747
14871TIP3    H266029   5.502   3.449  15.074  1.1148 -0.9128  0.0911
14872TIP3   OH266030   5.438   1.392   2.224  0.0322  0.0755  0.1782
14872TIP3    H166031   5.496   1.317   2.211  1.0514  1.1194 -1.6556
14872TIP3    H266032   5.486   1.447   2.286 -0.8845 -0.9016  1.8178
14873TIP3   OH266033   4.360   3.181  15.214  0.0127  0.0323 -0.2327
14873TIP3    H166034   4.297   3.212  15.149  1.1332 -0.4916 -1.6248
14873TIP3    H266035   4.375   3.256  15.272 -2.7133 -0.1678  0.8539
14874TIP3   OH266036   3.377   2.668  16.201  0.4996  0.0919 -0.7250
14874TIP3    H166037   3.438   2.703  16.136 -0.1939  0.1994 -1.3367
14874TIP3    H266038   3.292   2.666  16.156  0.1977 -0.7865 -0.1526
14875TIP3   OH266039   3.576   3.831  15.393  0.0506 -0.4480  0.1140
14875TIP3    H166040   3.630   3.859  15.319 -0.7359 -1.2559 -0.7845
14875TIP3    H266041   3.566   3.737  15.382 -0.2113 -0.5532  1.1639
14876TIP3   OH266042   0.353   0.077  11.266  0.8870  0.7716 -0.1366
14876TIP3    H166043   0.281   0.024  11.300  0.1647  0.8323 -1.5005
14876TIP3    H266044   0.389   0.121  11.343  0.4812 -0.4566  0.7923
14877TIP3   OH266045   5.346   0.789   0.875  0.6225  0.4252 -0.4069
14877TIP3    H166046   5.293   0.742   0.810  2.6357 -0.5503 -1.4315
14877TIP3    H266047   5.401   0.722   0.914  0.3895  1.2411  1.4028
14878TIP3   OH266048   2.171   2.783  13.091 -0.1446 -0.5429  0.5826
14878TIP3    H166049   2.186   2.731  13.012  0.9867  1.0627 -0.3343
14878TIP3    H266050   2.076   2.790  13.098 -0.2653 -0.2515 -0.9982
14879TIP3   OH266051   5.250   2.937   2.847 -0.3382  0.1025  0.3444
14879TIP3    H166052   5.248   2.867   2.912  0.3648 -1.4378 -1.2150
14879TIP3    H266053   5.164   2.934   2.805 -1.1658  1.7516  1.7796
14880TIP3   OH266054   2.998   3.095  11.353  0.1807 -0.3389 -0.1924
14880TIP3    H166055   3.091   3.076  11.343  0.0631 -0.5940 -0.8408
14880TIP3    H266056   2.966   3.107  11.264 -0.1840  0.8457  0.0821
14881TIP3   OH266057   2.099   5.900  10.869 -0.2912  0.1506  0.5144
14881TIP3    H166058   2.040   5.975  10.865 -1.3248 -0.6820 -0.2825
14881TIP3    H266059   2.158   5.911  10.795 -2.7028 -1.5870 -1.8863
14882TIP3   OH266060   3.711   6.407   2.471  0.3593  0.0093 -0.2173
14882TIP3    H166061   3.746   6.327   2.511 -0.2905 -1.2613 -2.0417
14882TIP3    H266062   3.766   6.421   2.394  0.5625  1.4509  0.1704
14883TIP3   OH266063   0.091   5.971   5.277 -0.3079 -0.5189  0.4651
14883TIP3    H166064   0.066   6.063   5.278 -2.0774 -0.8952 -1.3970
14883TIP3    H266065   0.049   5.934   5.355  0.3942  0.2165  1.2101
14884TIP3   OH266066   4.299   4.892  12.115 -0.8787  0.6168 -0.2927
14884TIP3    H166067   4.360   4.933  12.053 -1.0974  0.1189 -0.8556
14884TIP3    H266068   4.248   4.965  12.150 -0.9491  0.8849 -0.9290
14885TIP3   OH266069   3.391   5.913   2.680  0.2356 -0.5722 -0.3855
14885TIP3    H166070   3.320   5.906   2.616 -1.0383  1.5510  0.6667
14885TIP3    H266071   3.346   5.916   2.765  1.7466 -1.3876  0.4870
14886TIP3   OH266072   6.426   5.641  12.327 -0.0262 -0.2336  0.3201
14886TIP3    H166073   6.431   5.700  12.403  0.0763  1.6319 -1.0675
14886TIP3    H266074   6.364   5.683  12.268 -0.0630 -1.6164 -0.6718
14887TIP3   OH266075   2.086   6.591  14.736 -0.1131  0.2522 -0.1484
14887TIP3    H166076   1.995   6.611  14.713 -1.3250 -1.5154  2.4778
14887TIP3    H266077   2.084   6.498  14.759  1.2183  1.0991  4.3647
14888TIP3   OH266078   4.076   3.085   1.761 -0.3780  0.0713 -0.1519
14888TIP3    H166079   4.010   3.019   1.783  0.3986 -1.3188 -1.6952
14888TIP3    H266080   4.083   3.139   1.839 -3.0690  0.0713  0.1977
14889TIP3   OH266081   2.560   1.176   3.085 -0.1425  0.1447  0.4293
14889TIP3    H166082   2.524   1.263   3.069  0.2677  0.1527 -0.5355
14889TIP3    H266083   2.642   1.191   3.130 -0.1125  0.2564  0.3367
14890TIP3   OH266084   3.993   2.002  12.864  0.3701 -0.0150 -0.5695
14890TIP3    H166085   4.022   2.060  12.793 -0.3500  0.4013 -0.5344
14890TIP3    H266086   3.943   2.060  12.923  0.5952 -0.4470  0.0474
14891TIP3   OH266087   5.441   0.347   3.939 -0.2004  0.0048 -0.4721
14891TIP3    H166088   5.439   0.265   3.890  2.7184  0.0480 -0.8434
14891TIP3    H266089   5.512   0.335   4.002 -0.7612  1.6949  0.5437
14892TIP3   OH266090   0.493   4.962  13.121 -0.0743 -0.4369  0.4931
14892TIP3    H166091   0.485   5.057  13.117  1.3196 -0.2444  1.3852
14892TIP3    H266092   0.584   4.947  13.149 -0.0134 -2.0483 -0.4363
14893TIP3   OH266093   4.231   1.033   4.636 -0.1072  0.5711  0.0921
14893TIP3    H166094   4.267   1.088   4.566 -1.2942 -0.4355 -1.3744
14893TIP3    H266095   4.306   1.015   4.693  1.6070 -0.7757 -2.3955
14894TIP3   OH266096   2.677   6.218   0.263 -0.0425  0.8965  0.1112
14894TIP3    H166097   2.609   6.258   0.317  0.3692  0.2220  1.1660
14894TIP3    H266098   2.708   6.144   0.315  0.9331  0.7039 -0.7140
14895TIP3   OH266099   5.625   3.548  13.584  0.1785  0.0562 -0.6858
14895TIP3    H166100   5.603   3.605  13.510 -2.5053 -2.6886 -2.1976
14895TIP3    H266101   5.677   3.477  13.546 -0.8694 -1.1764  0.0853
14896TIP3   OH266102   3.895   2.762  17.259  0.3452 -0.2185 -0.3251
14896TIP3    H166103   3.946   2.843  17.269  1.0622 -0.7124  0.0961
14896TIP3    H266104   3.932   2.720  17.181  1.0795 -0.9222  0.3859
14897TIP3   OH266105   3.061   5.876  11.482  0.1521  0.0394 -0.3250
14897TIP3    H166106   3.152   5.879  11.513 -0.1669 -0.1035  0.6629
14897TIP3    H266107   3.068   5.856  11.389  1.2129  1.7721 -0.6659
14898TIP3   OH266108   0.373   6.427   3.163 -0.0343 -0.1060 -0.0064
14898TIP3    H166109   0.304   6.478   3.120 -1.2667 -0.0111  1.9480
14898TIP3    H266110   0.348   6.336   3.149 -0.4167 -0.0759  0.4638
14899TIP3   OH266111   2.123   1.432   4.963  0.2458 -0.1724  0.6309
14899TIP3    H166112   2.127   1.337   4.952 -0.0312  0.0218 -1.4011
14899TIP3    H266113   2.038   1.447   5.004  0.6446 -0.8314  1.7644
14900TIP3   OH266114   4.048   5.818  15.397  0.3948 -0.4360 -0.1079
14900TIP3    H166115   4.100   5.779  15.468 -0.7438 -0.8900  0.5120
14900TIP3    H266116   4.106   5.816  15.321  0.9598 -1.8453  0.3171
14901TIP3   OH266117   1.455   2.303  13.782 -0.7537  0.5768 -0.0601
14901TIP3    H166118   1.474   2.356  13.859  1.2429  1.0745 -0.8079
14901TIP3    H266119   1.461   2.365  13.709 -0.9280 -0.1892 -0.7339
14902TIP3   OH266120   5.779   3.311   3.739 -0.1008 -0.2220 -0.2648
14902TIP3    H166121   5.720   3.316   3.814 -0.0995 -2.1051 -0.0947
14902TIP3    H266122   5.836   3.236   3.758  1.4086  0.6591 -1.1031
14903TIP3   OH266123   2.737   0.864   3.268 -0.3332  0.2774 -0.1021
14903TIP3    H166124   2.645   0.838   3.273 -0.0535 -0.9134 -0.8131
14903TIP3    H266125   2.778   0.820   3.342 -0.2468  0.4153 -0.0684
14904TIP3   OH266126   1.974   1.841  15.836  0.1515 -0.3358  0.4433
14904TIP3    H166127   1.924   1.898  15.777  1.0261  0.4406  0.4272
14904TIP3    H266128   1.934   1.854  15.922 -0.4084 -0.6134  0.2306
14905TIP3   OH266129   4.164   4.004  15.651 -0.4155  0.4349  0.8509
14905TIP3    H166130   4.095   3.954  15.607  0.2285 -1.0348  1.4514
14905TIP3    H266131   4.136   4.008  15.743 -1.0464  2.2554  0.6276
14906TIP3   OH266132   0.945   5.914  16.935  0.2207 -0.0823 -0.3077
14906TIP3    H166133   0.924   5.901  17.028 -0.8571 -0.5159 -0.6062
14906TIP3    H266134   1.035   5.883  16.927 -0.5583 -2.6215  0.0556
14907TIP3   OH266135   4.624   5.473   2.393  0.3348 -0.0089 -0.2052
14907TIP3    H166136   4.534   5.452   2.417  0.3540  0.9098  0.7390
14907TIP3    H266137   4.677   5.414   2.446  0.3211  0.6012  0.5027
14908TIP3   OH266138   3.916   1.997  12.301  0.0558  0.1512 -0.2484
14908TIP3    H166139   3.980   2.063  12.327 -2.3942  2.2294  0.9720
14908TIP3    H266140   3.894   2.019  12.211 -0.8167  1.1577  0.1801
14909TIP3   OH266141   2.884   5.625   4.387  0.4118 -0.4220 -0.3589
14909TIP3    H166142   2.874   5.659   4.298 -0.4150 -1.3511 -0.6304
14909TIP3    H266143   2.795   5.620   4.421  0.8164  2.2294  1.4567
14910TIP3   OH266144   5.142   3.835   2.030 -0.2949 -0.1197  0.1665
14910TIP3    H166145   5.122   3.919   1.989  0.5903  0.8974  1.7009
14910TIP3    H266146   5.235   3.842   2.054  0.0497 -1.9120 -0.5034
14911TIP3   OH266147   0.663   3.410   2.656 -0.2568 -0.0028  0.7234
14911TIP3    H166148   0.641   3.498   2.687  0.9105  0.5519  0.0487
14911TIP3    H266149   0.645   3.412   2.562 -1.8561 -1.0494  0.9544
14912TIP3   OH266150   0.572   3.603  17.483  0.2571  0.0365  0.4920
14912TIP3    H166151   0.498   3.544  17.472 -1.6976  2.3056  0.4911
14912TIP3    H266152   0.627   3.562  17.549 -2.1822 -0.7437  2.1783
14913TIP3   OH266153   1.162   0.028  15.673  0.4537  0.1710 -0.1645
14913TIP3    H166154   1.124   0.063  15.754  1.5958  4.5268 -1.2269
14913TIP3    H266155   1.253   0.009  15.696  0.0225 -1.5168  0.2310
14914TIP3   OH266156   5.184   1.773   5.650 -0.7303  0.1380 -0.3110
14914TIP3    H166157   5.122   1.725   5.705 -0.2154  0.5339  0.6325
14914TIP3    H266158   5.129   1.834   5.601 -1.2197 -0.3675 -0.4077
14915TIP3   OH266159   2.081   6.255  14.979 -0.2951 -0.3140 -0.4222
14915TIP3    H166160   2.108   6.294  15.062  0.6700 -2.2578  0.2325
14915TIP3    H266161   1.993   6.289  14.964  0.3597  1.8469  0.2102
14916TIP3   OH266162   1.653   0.256   2.116 -0.0803 -0.5029  0.0915
14916TIP3    H166163   1.581   0.319   2.116  3.1248  3.6139 -0.3160
14916TIP3    H266164   1.672   0.241   2.023  0.8411  0.1945  0.1446
14917TIP3   OH266165   3.314   2.906   0.020 -0.0178 -0.0840  0.8017
14917TIP3    H166166   3.408   2.920   0.007 -0.1752 -1.0499 -1.9939
14917TIP3    H266167   3.274   2.989  -0.007 -0.1041 -0.8049 -1.4832
14918TIP3   OH266168   3.788   5.353  10.997 -0.6503  0.0862 -0.0378
14918TIP3    H166169   3.827   5.440  11.006 -1.6475  0.4052  1.5442
14918TIP3    H266170   3.845   5.307  10.935 -0.6918  2.1857 -1.7489
14919TIP3   OH266171   1.797   2.527   6.714 -0.2798 -0.6218  0.0827
14919TIP3    H166172   1.793   2.613   6.756 -0.2375  0.0079 -1.1734
14919TIP3    H266173   1.796   2.465   6.787  1.0770  0.4755  1.0827
14920TIP3   OH266174   4.042   3.467  10.933 -0.6015 -0.0773 -0.1076
14920TIP3    H166175   4.040   3.385  10.982 -2.2318 -1.0758 -1.7042
14920TIP3    H266176   3.976   3.456  10.864  1.2330  1.4038 -2.2682
14921TIP3   OH266177   4.707   4.456   6.086  0.0219  0.4070 -0.6380
14921TIP3    H166178   4.650   4.423   6.017  0.2512 -0.5030 -0.4028
14921TIP3    H266179   4.684   4.404   6.163  0.8883  0.3079 -0.4347
14922TIP3   OH266180   6.199   5.119  11.707  0.0792 -0.6009  0.1987
14922TIP3    H166181   6.290   5.092  11.718  0.3276  0.6180  1.3433
14922TIP3    H266182   6.151   5.067  11.771  0.2145 -0.1018  0.7160
14923TIP3   OH266183   4.222   6.459  17.043 -0.4471  0.5633 -0.0097
14923TIP3    H166184   4.280   6.535  17.044 -1.8631  1.7867 -2.4272
14923TIP3    H266185   4.139   6.492  17.079 -0.1985 -0.7539  1.9408
14924TIP3   OH266186   4.295   1.798   0.739 -0.0753 -0.1877 -0.5617
14924TIP3    H166187   4.356   1.852   0.690 -0.8906  2.1299  0.8435
14924TIP3    H266188   4.348   1.757   0.807  0.1711  0.7203 -0.1986
14925TIP3   OH266189   4.028   1.037  16.988  0.5058 -0.0048 -0.6729
14925TIP3    H166190   4.051   0.984  16.912 -0.2504  0.0276 -0.9384
14925TIP3    H266191   3.951   1.088  16.959  0.8587  0.7974 -0.2377
14926TIP3   OH266192   1.056   0.794   5.196 -0.5642 -0.0918  0.2637
14926TIP3    H166193   1.047   0.746   5.113 -1.2412 -0.8387  0.7615
14926TIP3    H266194   1.130   0.752   5.239 -0.5869 -0.0922  0.3019
14927TIP3   OH266195   3.115   0.306   2.175 -0.0144  0.0799  0.0705
14927TIP3    H166196   3.205   0.318   2.144 -0.2700  1.4199 -0.2035
14927TIP3    H266197   3.122   0.316   2.270 -0.2397  2.9652 -0.1457
14928TIP3   OH266198   6.208   2.356  11.341 -0.1249 -0.0089 -0.0784
14928TIP3    H166199   6.192   2.384  11.251  0.7701  0.5898 -0.0582
14928TIP3    H266200   6.128   2.308  11.366 -0.4414 -0.0366 -1.1249
14929TIP3   OH266201   0.927   4.655   6.025 -0.0087  0.3973  0.6011
14929TIP3    H166202   0.906   4.585   6.088  0.4700 -0.1837  0.1257
14929TIP3    H266203   0.976   4.719   6.077  1.1454 -0.4862  0.6496
14930TIP3   OH266204   3.845   6.458   4.414 -0.0359  0.3561  0.5308
14930TIP3    H166205   3.884   6.402   4.346 -1.7902  0.0633 -0.3177
14930TIP3    H266206   3.841   6.402   4.491 -0.4584 -0.2528  0.0879
14931TIP3   OH266207   0.526   5.977  13.467 -0.6530  0.0927  0.2568
14931TIP3    H166208   0.440   5.948  13.497 -0.1748 -0.3585  1.2360
14931TIP3    H266209   0.528   5.953  13.374 -0.8265 -1.7429  0.6901
14932TIP3   OH266210   1.440   4.542   3.197 -0.1461 -0.2580 -0.4552
14932TIP3    H166211   1.353   4.560   3.233  0.1290  0.9243 -0.3343
14932TIP3    H266212   1.497   4.608   3.237  1.1190 -1.8853  0.5846
14933TIP3   OH266213   3.839   4.911   6.234 -0.3583 -0.4918  0.6559
14933TIP3    H166214   3.830   4.937   6.142  0.7286 -0.1921  0.6189
14933TIP3    H266215   3.796   4.981   6.283  2.3934  1.4408  0.5498
14934TIP3   OH266216   5.003   3.136   6.449 -0.1816  0.6743 -0.7932
14934TIP3    H166217   4.935   3.086   6.404 -0.3465 -0.8693  1.0449
14934TIP3    H266218   5.073   3.073   6.465 -0.7316  0.6955  2.2975
14935TIP3   OH266219   4.257   0.368   4.009 -0.0325  0.2500  0.2030
14935TIP3    H166220   4.284   0.280   3.980 -0.1001  0.1159  0.5370
14935TIP3    H266221   4.288   0.373   4.100  2.3254  1.5477 -0.5823
14936TIP3   OH266222   1.559   3.491  13.164 -0.1475 -0.1652  0.3538
14936TIP3    H166223   1.620   3.473  13.235 -1.7305 -0.4454  1.7240
14936TIP3    H266224   1.473   3.474  13.202 -1.1296  0.8622 -1.2804
14937TIP3   OH266225   1.213   4.928  14.811 -0.4447  0.3953  0.3435
14937TIP3    H166226   1.209   4.892  14.900 -1.4023 -0.6449 -0.0987
14937TIP3    H266227   1.230   4.853  14.755  0.0814  1.0396 -0.3703
14938TIP3   OH266228   3.816   0.090   3.663  0.3501 -0.0780 -0.1729
14938TIP3    H166229   3.776   0.175   3.643  1.4035  0.7105  0.9104
14938TIP3    H266230   3.745   0.028   3.656 -0.2737  0.7769 -1.8073
14939TIP3   OH266231   2.404   6.429   3.631  0.1310  0.4340 -0.5322
14939TIP3    H166232   2.321   6.459   3.594  0.0542 -0.8083 -1.4252
14939TIP3    H266233   2.463   6.504   3.623 -0.6159  0.9995 -0.8150
14940TIP3   OH266234   4.935   5.029  11.872  0.3292 -0.2945  0.4609
14940TIP3    H166235   4.847   5.060  11.892  0.8305  2.7549 -1.2989
14940TIP3    H266236   4.988   5.060  11.946  0.2728  0.0863  0.3485
14941TIP3   OH266237   2.938   4.810  14.750  0.7644  0.4302 -0.1953
14941TIP3    H166238   2.881   4.841  14.681  1.0294  0.0372 -0.5925
14941TIP3    H266239   3.011   4.767  14.705  0.2584 -1.0664  0.3309
14942TIP3   OH266240   3.818   1.002  13.895  0.3167 -0.0648 -0.0871
14942TIP3    H166241   3.811   0.965  13.808 -0.3053 -1.2955  0.4575
14942TIP3    H266242   3.896   0.962  13.933  1.0503  1.0812 -0.3433
14943TIP3   OH266243   0.710   1.419  13.483 -0.4400 -0.1112  0.3179
14943TIP3    H166244   0.733   1.327  13.492  0.0163 -0.1067 -0.6928
14943TIP3    H266245   0.768   1.465  13.543 -1.8150 -0.6044  2.1131
14944TIP3   OH266246   1.543   0.856  16.270  0.3053  0.4679 -0.0788
14944TIP3    H166247   1.572   0.786  16.211  1.4081  1.3651 -0.6209
14944TIP3    H266248   1.511   0.925  16.212 -1.8587  0.0308  0.4668
14945TIP3   OH266249   5.100   1.394  15.034  0.0602  0.3514  0.3127
14945TIP3    H166250   5.111   1.299  15.022  1.1843  0.1100  2.6461
14945TIP3    H266251   5.009   1.404  15.063  0.1797 -0.1294  0.8768
14946TIP3   OH266252   6.451   5.207  11.984 -0.0294  0.2129  0.1523
14946TIP3    H166253   6.490   5.197  12.071  0.8294  0.7873 -0.1498
14946TIP3    H266254   6.451   5.302  11.970 -1.7415  0.2475  0.2241
14947TIP3   OH266255   3.371   0.894  11.717 -0.3039 -0.6662 -0.1159
14947TIP3    H166256   3.281   0.871  11.691  0.4342 -1.4137 -2.2232
14947TIP3    H266257   3.404   0.946  11.643  1.2411 -1.0443  0.2893
14948TIP3   OH266258   5.003   3.621  11.195  0.4611  0.6863 -0.1147
14948TIP3    H166259   5.058   3.692  11.230  1.2787 -0.7847  1.7171
14948TIP3    H266260   5.039   3.541  11.233 -0.7405 -0.7056 -1.7464
14949TIP3   OH266261   5.701   4.449  17.040  0.4775  0.6099  0.3432
14949TIP3    H166262   5.770   4.459  16.975  0.6644  1.2565  0.6224
14949TIP3    H266263   5.655   4.533  17.039  0.0210  0.3670  0.5248
14950TIP3   OH266264   6.242   2.380  16.154  0.2026 -0.2657  0.7934
14950TIP3    H166265   6.305   2.389  16.083 -2.2905  0.7593 -1.4269
14950TIP3    H266266   6.282   2.426  16.228  2.3546 -0.3512 -0.2495
14951TIP3   OH266267   6.572   4.940   1.145 -0.4809 -0.8880 -0.7644
14951TIP3    H166268   6.509   4.944   1.218 -1.0451 -2.1560 -1.1543
14951TIP3    H266269   6.553   5.018   1.093  0.0861  0.1602  0.5450
14952TIP3   OH266270   0.532   2.145   5.485 -0.3034 -0.3060  0.1877
14952TIP3    H166271   0.449   2.148   5.533 -0.1008  0.6600  0.5117
14952TIP3    H266272   0.599   2.136   5.553  0.0335  1.7052  0.1919
14953TIP3   OH266273   1.358   1.298  12.156 -0.5955 -0.1019  0.3634
14953TIP3    H166274   1.410   1.366  12.198 -0.0829  0.7872 -1.6037
14953TIP3    H266275   1.372   1.220  12.210  1.0525  0.6606  1.0877
14954TIP3   OH266276   0.039   2.006  13.567 -0.0315 -0.2354 -0.5743
14954TIP3    H166277   0.063   1.939  13.631  0.1465 -1.1193 -1.5514
14954TIP3    H266278   0.121   2.029  13.523  0.2176  1.7932  0.7932
14955TIP3   OH266279   6.538   2.945   0.150 -0.3488 -0.1499 -0.3344
14955TIP3    H166280   6.575   3.032   0.137 -1.0379  0.3033  0.6427
14955TIP3    H266281   6.481   2.933   0.073 -1.3122  0.8495  0.1857
14956TIP3   OH266282   4.744   4.631  13.974  0.2688 -0.1147 -0.1240
14956TIP3    H166283   4.685   4.560  13.949 -0.8175  0.6607  0.1916
14956TIP3    H266284   4.763   4.676  13.892  0.3995 -0.3462 -0.2214
14957TIP3   OH266285   3.230   0.299   3.156  0.4498 -0.0514  0.2231
14957TIP3    H166286   3.229   0.330   3.066  0.2559  0.8006  0.5105
14957TIP3    H266287   3.323   0.302   3.181  0.7100 -1.6789 -0.3924
14958TIP3   OH266288   5.251   3.994   4.930 -0.0652  0.3800 -0.1012
14958TIP3    H166289   5.301   3.926   4.884  0.9466  0.2336  1.1349
14958TIP3    H266290   5.315   4.064   4.946 -0.2946  0.3057  1.2886
14959TIP3   OH266291   2.993   6.571   2.975 -0.0613  0.4679  0.0748
14959TIP3    H166292   3.078   6.556   2.934  0.6138  0.7251  1.3300
14959TIP3    H266293   2.999   6.529   3.060 -0.7792  1.4595  0.6396
14960TIP3   OH266294   6.522   0.215   1.164  0.1776  0.0165 -0.7766
14960TIP3    H166295   6.599   0.183   1.209 -0.7681 -1.1004  0.0919
14960TIP3    H266296   6.522   0.309   1.181 -0.6995 -0.4705  2.5163
14961TIP3   OH266297   1.033   2.795   0.945  0.5586  0.2162 -0.4997
14961TIP3    H166298   1.125   2.821   0.935  1.0652 -0.4366  1.7544
14961TIP3    H266299   0.985   2.877   0.950  0.9742  0.5648 -1.8438
14962TIP3   OH266300   4.076   4.964   6.037 -0.3069  0.3753  0.5297
14962TIP3    H166301   3.987   4.993   6.015 -0.2873 -0.4831 -0.8212
14962TIP3    H266302   4.086   4.985   6.130 -2.4573 -0.8515  1.1035
14963TIP3   OH266303   2.015   4.455   2.808 -0.0678 -0.1489 -0.0431
14963TIP3    H166304   1.979   4.367   2.795 -0.2885 -0.1942  0.7932
14963TIP3    H266305   1.939   4.508   2.833 -0.0737  0.4693 -1.3086
14964TIP3   OH266306   1.364   3.576   4.685 -0.4982 -0.0481  0.3727
14964TIP3    H166307   1.312   3.557   4.763 -0.4505 -0.6288  0.2726
14964TIP3    H266308   1.454   3.581   4.718 -0.8125  4.4442  1.1752
14965TIP3   OH266309   0.447   1.104  12.100  0.1392  0.2028  0.0962
14965TIP3    H166310   0.431   1.098  12.194  3.8579  2.8031  1.1714
14965TIP3    H266311   0.447   1.198  12.082  2.4376 -0.0485 -1.7639
14966TIP3   OH266312   0.432   4.536   2.453 -0.4112 -0.5797 -0.4951
14966TIP3    H166313   0.398   4.448   2.469  0.5588 -0.8939 -0.1425
14966TIP3    H266314   0.522   4.523   2.424 -0.4699  0.2676 -1.0980
14967TIP3   OH266315   1.597   1.832  14.514  0.0263  0.1048  0.2311
14967TIP3    H166316   1.663   1.767  14.539  0.8742  0.7769 -0.2161
14967TIP3    H266317   1.516   1.799  14.551  0.5353 -0.9600  0.4364
14968TIP3   OH266318   4.081   3.758   0.644 -0.2129 -0.3291 -0.3317
14968TIP3    H166319   4.163   3.730   0.685 -0.6965 -0.2348  0.7181
14968TIP3    H266320   4.037   3.676   0.620 -0.0788 -0.3887 -0.3768
14969TIP3   OH266321   5.773   0.850  14.354  0.4565  0.3458  0.2598
14969TIP3    H166322   5.678   0.840  14.355  0.4207  0.5625 -0.3324
14969TIP3    H266323   5.807   0.763  14.375  0.1445 -0.3130 -1.7889
14970TIP3   OH266324   1.588   4.955   5.609 -0.3646  0.1565 -0.8290
14970TIP3    H166325   1.632   5.000   5.537  2.0024 -0.0165  0.4249
14970TIP3    H266326   1.616   5.001   5.687 -1.2322 -0.9259  0.1637
14971TIP3   OH266327   5.369   2.106  13.020  0.0853 -0.4803 -0.2802
14971TIP3    H166328   5.359   2.020  13.060 -0.7194  0.3871  1.5028
14971TIP3    H266329   5.395   2.163  13.092  1.0173  0.7100 -1.5024
14972TIP3   OH266330   6.126   5.599  12.629  0.1180 -0.1340 -0.4958
14972TIP3    H166331   6.153   5.627  12.542  0.0242 -1.2015 -0.8850
14972TIP3    H266332   6.195   5.540  12.658 -0.4339 -0.7226 -0.3542
14973TIP3   OH266333   2.630   1.314   0.097  0.0866  0.1935 -0.1045
14973TIP3    H166334   2.712   1.266   0.100 -0.0600 -0.0145  0.9881
14973TIP3    H266335   2.562   1.247   0.106 -0.0909  0.6485  2.8021
14974TIP3   OH266336   1.769   1.194   4.558  0.4010 -0.1147  0.5167
14974TIP3    H166337   1.734   1.255   4.494 -3.6673 -1.6287  1.0256
14974TIP3    H266338   1.858   1.226   4.575  0.5239  2.2541 -3.3188
14975TIP3   OH266339   4.148   4.793  17.463  0.4815  0.4683 -0.1419
14975TIP3    H166340   4.174   4.831  17.379  1.3915  1.9963  0.7761
14975TIP3    H266341   4.223   4.809  17.520  0.6992 -2.2964  0.4844
14976TIP3   OH266342   6.001   4.348  13.430 -0.1464  0.0664 -0.5550
14976TIP3    H166343   5.955   4.393  13.358 -3.0332  0.1234  1.1501
14976TIP3    H266344   5.945   4.273  13.451  1.5275 -0.9499  0.5310
14977TIP3   OH266345   0.986   6.696   0.333 -0.1046  0.0444 -0.5106
14977TIP3    H166346   0.974   6.726   0.423 -1.0126 -1.7242  0.0023
14977TIP3    H266347   0.906   6.648   0.312  1.2557 -2.1268 -1.1805
14978TIP3   OH266348   2.977   0.190   5.283  0.1111  0.1459 -0.0782
14978TIP3    H166349   2.884   0.168   5.279 -0.2897  1.9558 -2.1142
14978TIP3    H266350   3.020   0.105   5.298 -1.7619 -0.9461 -0.4945
14979TIP3   OH266351   3.338   6.572   5.033 -0.1665  0.0038  0.3100
14979TIP3    H166352   3.387   6.498   5.069 -1.6057 -1.2563 -0.1981
14979TIP3    H266353   3.397   6.610   4.968 -0.3400 -2.4490 -1.4309
14980TIP3   OH266354   1.814   6.124  11.896 -0.2051  0.2140  0.5067
14980TIP3    H166355   1.812   6.111  11.801  0.2224 -0.8786  0.6373
14980TIP3    H266356   1.722   6.127  11.922 -0.3311 -0.8336  0.2219
14981TIP3   OH266357   6.002   4.090  12.776 -0.4087  0.0563  0.0871
14981TIP3    H166358   5.993   4.184  12.761 -0.7573 -0.0134 -0.1725
14981TIP3    H266359   6.066   4.061  12.711 -1.7104 -0.1987 -1.1326
14982TIP3   OH266360   5.088   6.347   0.950  0.0675 -0.1539 -0.0704
14982TIP3    H166361   5.163   6.407   0.955 -0.4211  0.6141 -1.4881
14982TIP3    H266362   5.128   6.261   0.933  0.6273  0.2447 -0.8207
14983TIP3   OH266363   5.772   2.742   5.693 -0.2866 -0.0363  0.0441
14983TIP3    H166364   5.857   2.778   5.667  0.0259 -0.7129  0.1044
14983TIP3    H266365   5.736   2.706   5.612 -0.7870  0.7655 -0.1024
14984TIP3   OH266366   0.764   1.204   1.390  0.3061 -0.0922 -0.1436
14984TIP3    H166367   0.700   1.140   1.359  0.6588 -0.5635  0.0929
14984TIP3    H266368   0.771   1.267   1.319  1.1042 -1.1578 -1.0528
14985TIP3   OH266369   2.619   5.106   0.641  0.0637 -0.3270 -0.3894
14985TIP3    H166370   2.614   5.199   0.622 -1.6610 -0.6919 -2.0929
14985TIP3    H266371   2.712   5.086   0.640  0.4383  1.2964 -0.4267
14986TIP3   OH266372   1.404   0.543   2.752 -0.1887  0.2542  0.1745
14986TIP3    H166373   1.389   0.635   2.730  1.3012  0.6879  0.8894
14986TIP3    H266374   1.358   0.494   2.684 -3.8593  1.4271  1.5588
14987TIP3   OH266375   3.208   5.722  17.489 -0.4305 -0.4474 -0.1529
14987TIP3    H166376   3.122   5.685  17.506 -1.1964  0.9365 -0.8553
14987TIP3    H266377   3.250   5.726  17.575 -2.1266  1.3700  0.6644
14988TIP3   OH266378   4.524   6.039  16.475 -0.1366  0.8800  0.4987
14988TIP3    H166379   4.603   5.990  16.497 -1.4539 -1.5791  0.0583
14988TIP3    H266380   4.460   6.013  16.541 -1.0911  1.4645 -0.1661
14989TIP3   OH266381   6.565   1.540  16.989  1.4653 -0.2113  0.3666
14989TIP3    H166382   6.509   1.531  17.067  1.8091 -2.2155  0.4303
14989TIP3    H266383   6.520   1.603  16.934  1.3011  1.4201  2.2555
14990TIP3   OH266384   5.692   5.968  11.756 -0.0042 -0.2429 -0.2953
14990TIP3    H166385   5.649   5.912  11.821  0.1407  0.0737  0.0808
14990TIP3    H266386   5.672   6.057  11.786  0.5042 -0.0953 -0.3918
14991TIP3   OH266387   5.197   3.792  17.250  0.3194 -0.1451 -0.0203
14991TIP3    H166388   5.136   3.859  17.280  0.8141 -0.3876  1.6280
14991TIP3    H266389   5.210   3.811  17.157 -2.2776 -0.1221 -0.4388
14992TIP3   OH266390   4.789   0.333  16.741  0.2694 -0.5021 -0.6190
14992TIP3    H166391   4.804   0.414  16.692 -0.0353 -0.5376 -0.7810
14992TIP3    H266392   4.759   0.362  16.827 -0.8333 -0.4354 -1.0057
14993TIP3   OH266393   4.228   4.555  13.565  0.4641  0.1685  0.0295
14993TIP3    H166394   4.135   4.533  13.566  0.3456  0.3593 -2.3399
14993TIP3    H266395   4.231   4.650  13.576  0.2930  0.3033 -1.0228
14994TIP3   OH266396   0.717   5.756   5.693 -0.3801  0.3169  0.7212
14994TIP3    H166397   0.786   5.809   5.733  0.1869 -0.5443  0.9243
14994TIP3    H266398   0.673   5.815   5.633  1.9212  0.3679 -1.0380
14995TIP3   OH266399   1.241   2.111  13.732 -0.1275  0.3002  0.2446
14995TIP3    H166400   1.208   2.171  13.799 -0.3324  1.9757 -1.2827
14995TIP3    H266401   1.330   2.142  13.714  0.3677 -0.8741  0.5215
14996TIP3   OH266402   5.977   1.775   6.187  0.0832  0.2141 -0.6690
14996TIP3    H166403   5.964   1.729   6.270 -0.4559 -0.6744 -1.2284
14996TIP3    H266404   6.000   1.864   6.212  2.9901 -0.7416  0.5201
14997TIP3   OH266405   2.299   3.689  11.893  0.4464  0.0954 -0.0493
14997TIP3    H166406   2.342   3.767  11.928 -0.4978 -0.4910  2.6146
14997TIP3    H266407   2.368   3.622  11.894  0.1018 -0.3115  2.2996
14998TIP3   OH266408   0.687   5.286   6.602 -0.2593  0.4997 -0.2551
14998TIP3    H166409   0.756   5.227   6.633 -3.1320 -1.7493  2.4017
14998TIP3    H266410   0.640   5.236   6.535 -0.7809  1.0579 -0.3152
14999TIP3   OH266411   4.839   2.326  10.620  0.4573  0.3510 -0.5856
14999TIP3    H166412   4.888   2.351  10.541  0.6449  1.3441 -0.1613
14999TIP3    H266413   4.756   2.372  10.613 -0.0430 -0.5718 -0.8236
15000TIP3   OH266414   6.435   4.799   2.768  0.4410 -1.0535 -0.0136
15000TIP3    H166415   6.497   4.742   2.721  1.1196 -0.2414 -0.1258
15000TIP3    H266416   6.472   4.806   2.856  0.0508 -1.2446  0.1652
15001TIP3   OH266417   1.403   5.825   4.650 -0.0027 -0.2162  0.3140
15001TIP3    H166418   1.308   5.811   4.653 -0.1991 -0.4306 -2.9822
15001TIP3    H266419   1.441   5.738   4.652 -0.1703 -0.4068 -2.0193
15002TIP3   OH266420   4.242   1.152  12.302 -0.5029  0.4506 -0.2021
15002TIP3    H166421   4.233   1.213  12.229  0.9110 -0.4416 -1.1921
15002TIP3    H266422   4.326   1.108  12.286 -0.3848 -0.1263  1.7085
15003TIP3   OH266423   3.798   3.143  17.048  0.2045  0.4668 -0.0529
15003TIP3    H166424   3.842   3.154  16.964  0.4733  0.4889  0.0919
15003TIP3    H266425   3.862   3.099  17.103 -0.5071 -0.9282 -0.3103
15004TIP3   OH266426   5.756   4.782  15.274  0.1494 -0.0931 -0.0355
15004TIP3    H166427   5.760   4.796  15.368  0.5801  3.0562 -0.3937
15004TIP3    H266428   5.847   4.772  15.247  0.2897  1.6776 -0.3497
15005TIP3   OH266429   0.590   3.478   5.153 -0.4955 -0.1506 -0.1452
15005TIP3    H166430   0.506   3.433   5.147 -0.5347  0.0606 -1.6433
15005TIP3    H266431   0.651   3.412   5.184 -1.5176  0.1561  2.8002
15006TIP3   OH266432   1.301   4.293   3.494  0.3160 -0.2211  0.1017
15006TIP3    H166433   1.300   4.355   3.568 -1.6322  0.0352 -0.0726
15006TIP3    H266434   1.330   4.211   3.533  0.2867  0.1495  0.9510
15007TIP3   OH266435   2.207   3.136  14.886 -0.2417  0.0823  0.2639
15007TIP3    H166436   2.133   3.075  14.887 -1.7953  1.8737  1.4413
15007TIP3    H266437   2.237   3.139  14.977 -0.7732  1.6816  0.4211
15008TIP3   OH266438   1.533   1.297  13.637 -0.1622 -0.1924 -0.2300
15008TIP3    H166439   1.498   1.305  13.725 -0.0104 -0.0746 -0.1790
15008TIP3    H266440   1.467   1.336  13.580  0.8512  2.1141  0.0632
15009TIP3   OH266441   0.551   3.345  16.451  0.3042  0.2510  0.2280
15009TIP3    H166442   0.493   3.282  16.493  0.7518  0.2211  0.7994
15009TIP3    H266443   0.638   3.306  16.454  0.1451 -0.4394 -2.0754
15010TIP3   OH266444   6.324   0.861  15.492  0.1884  0.1023 -0.4366
15010TIP3    H166445   6.232   0.846  15.472  0.0392  0.2270  0.1420
15010TIP3    H266446   6.370   0.839  15.411 -0.4428  1.1220 -1.0964
15011TIP3   OH266447   2.200   4.788  12.985 -0.0160  0.0818 -0.5722
15011TIP3    H166448   2.265   4.785  13.055 -0.6364 -0.2861  0.0037
15011TIP3    H266449   2.248   4.762  12.906  0.5273 -0.2117 -0.1506
15012TIP3   OH266450   1.808   5.483   3.280  0.1314 -0.4152 -0.0539
15012TIP3    H166451   1.886   5.525   3.315 -0.2692 -1.0162  1.6910
15012TIP3    H266452   1.765   5.551   3.228  0.9437  0.4467  0.3729
15013TIP3   OH266453   0.320   5.217   2.636 -0.6058 -0.0517 -0.1491
15013TIP3    H166454   0.309   5.162   2.558 -2.0690 -0.2995  0.2227
15013TIP3    H266455   0.293   5.304   2.607  2.0354  0.6445 -0.8389
15014TIP3   OH266456   5.625   5.959   5.839 -0.2706  0.0857 -0.2687
15014TIP3    H166457   5.686   6.013   5.788  0.0225 -0.1174 -0.1330
15014TIP3    H266458   5.544   5.961   5.788 -0.5038  1.2880  0.1209
15015TIP3   OH266459   2.838   0.381  15.588 -0.6524 -0.1899 -0.5840
15015TIP3    H166460   2.875   0.443  15.652 -1.5429 -0.2334 -0.0039
15015TIP3    H266461   2.848   0.425  15.504  2.2010 -0.8957 -0.6890
15016TIP3   OH266462   3.731   4.386   6.523  0.1341 -0.0846 -0.4364
15016TIP3    H166463   3.742   4.475   6.488 -0.4149 -0.3521 -1.3264
15016TIP3    H266464   3.772   4.389   6.609  1.5065  0.6178 -1.0793
15017TIP3   OH266465   0.907   5.572  17.207 -0.3329  0.3637 -0.6124
15017TIP3    H166466   0.936   5.481  17.210 -1.7121 -0.0703  0.4897
15017TIP3    H266467   0.850   5.576  17.130  1.6138  0.9497 -2.1213
15018TIP3   OH266468   2.607   4.959  12.659 -0.1294 -0.9220 -0.5158
15018TIP3    H166469   2.675   4.892  12.650 -2.2781 -3.4588  0.8197
15018TIP3    H266470   2.538   4.931  12.599 -2.3620 -1.7850  2.2397
15019TIP3   OH266471   4.624   3.158   1.790  0.0583  0.8640 -0.1925
15019TIP3    H166472   4.583   3.189   1.709  0.4483 -0.4547 -0.9131
15019TIP3    H266473   4.716   3.181   1.781  0.1423  0.5203 -0.2267
15020TIP3   OH266474   1.275   1.602  15.501  0.6435  0.4187  0.0732
15020TIP3    H166475   1.186   1.584  15.532  0.5970  1.6192  0.7199
15020TIP3    H266476   1.287   1.544  15.426 -0.8710  0.5626 -0.3114
15021TIP3   OH266477   1.458   4.994  16.636  0.5291 -0.7097 -0.0190
15021TIP3    H166478   1.418   5.040  16.562  1.3327  1.2838  0.7016
15021TIP3    H266479   1.430   5.044  16.713  2.5606 -0.5497  0.6859
15022TIP3   OH266480   0.444   3.603   4.175 -0.1563  0.7077  0.1197
15022TIP3    H166481   0.363   3.552   4.175 -0.3154  0.8525  2.8274
15022TIP3    H266482   0.450   3.639   4.263  2.2703  1.6743 -0.3729
15023TIP3   OH266483   2.982   4.393  13.967 -0.2123 -0.1183  0.3297
15023TIP3    H166484   2.913   4.420  14.028  0.9979  0.3741  1.5352
15023TIP3    H266485   2.948   4.313  13.926 -2.0155  0.7704 -0.0509
15024TIP3   OH266486   2.331   2.103  12.999  0.3914  0.3668 -0.2195
15024TIP3    H166487   2.323   2.033  12.934 -0.5933 -0.2500  0.5359
15024TIP3    H266488   2.390   2.067  13.066 -0.0128  0.3059  0.1060
15025TIP3   OH266489   6.345   4.937  15.275  0.4619 -0.3849 -0.2901
15025TIP3    H166490   6.377   4.947  15.364 -1.1754  0.5761  0.2365
15025TIP3    H266491   6.252   4.961  15.280 -0.1200 -2.0063 -1.9069
15026TIP3   OH266492   1.634   1.942  12.508 -0.3707 -0.4728  0.3188
15026TIP3    H166493   1.609   2.031  12.534  2.4446  0.2430  0.9873
15026TIP3    H266494   1.676   1.906  12.586  1.7762 -0.9907 -0.9828
15027TIP3   OH266495   3.674   3.926  11.822 -0.0330  0.2916  0.1381
15027TIP3    H166496   3.601   3.983  11.799  0.7384  1.0649 -0.4374
15027TIP3    H266497   3.700   3.886  11.739  1.0233  1.0160  0.1076
15028TIP3   OH266498   0.290   0.078   4.865  0.2943 -0.1196  0.0238
15028TIP3    H166499   0.333  -0.004   4.892  1.6393  1.5240  3.4188
15028TIP3    H266500   0.201   0.070   4.899 -0.2076 -0.8883 -1.3747
15029TIP3   OH266501   2.701   1.942   2.096 -0.5218 -0.3720 -0.4789
15029TIP3    H166502   2.742   1.965   2.012  0.9620 -0.3288  0.2247
15029TIP3    H266503   2.704   2.023   2.147 -0.4854 -0.6548 -0.0278
15030TIP3   OH266504   5.483   0.874   4.416  0.1850  0.1941 -0.0658
15030TIP3    H166505   5.388   0.880   4.408  0.0275 -2.3545 -1.1659
15030TIP3    H266506   5.515   0.887   4.326  0.4651 -2.9055 -0.5502
15031TIP3   OH266507   6.161   4.142  16.941  0.3644  0.5188 -0.0998
15031TIP3    H166508   6.194   4.055  16.919 -0.8024 -0.2116  0.9283
15031TIP3    H266509   6.069   4.141  16.915  0.0127  1.0013  1.0542
15032TIP3   OH266510   3.028   3.989   3.880 -0.1109  0.0482  0.1444
15032TIP3    H166511   3.089   4.032   3.940  0.7243 -0.9928  0.0839
15032TIP3    H266512   3.048   4.025   3.794  0.1044  0.0522  0.1962
15033TIP3   OH266513   4.567   1.834   5.240  0.3212 -0.2097 -0.0401
15033TIP3    H166514   4.595   1.880   5.319 -0.5106 -0.3772  0.3553
15033TIP3    H266515   4.535   1.904   5.182 -0.5127 -0.2380  0.3802
15034TIP3   OH266516   2.308   0.989   2.094 -0.3838  0.0039  0.1494
15034TIP3    H166517   2.372   0.958   2.029 -0.7686  0.9796 -0.7070
15034TIP3    H266518   2.301   1.083   2.079 -2.9089 -0.2313 -0.5870
15035TIP3   OH266519   2.332   0.847   0.719 -0.1549 -0.2285 -0.2079
15035TIP3    H166520   2.425   0.852   0.695  0.0763 -1.2574  0.4150
15035TIP3    H266521   2.297   0.776   0.664 -0.8443  0.8359 -1.2057
15036TIP3   OH266522   1.716   6.389   5.025  0.8144 -0.0569  0.3317
15036TIP3    H166523   1.636   6.416   4.979  1.0536 -1.1295 -0.7817
15036TIP3    H266524   1.685   6.357   5.109  0.0524 -0.4939 -0.0976
15037TIP3   OH266525   5.605   0.334  12.960  0.3835  0.0164  0.7263
15037TIP3    H166526   5.543   0.395  12.920  0.0980 -0.1512  0.9059
15037TIP3    H266527   5.635   0.380  13.039 -0.4551 -0.3969  1.3085
15038TIP3   OH266528   1.370   0.372   1.616  0.3337 -0.0779 -0.4068
15038TIP3    H166529   1.394   0.430   1.543  0.0027  0.6869  0.0749
15038TIP3    H266530   1.275   0.364   1.609  0.2720  0.2048  0.0823
15039TIP3   OH266531   4.974   0.123  16.678 -0.2138  0.1027  0.0812
15039TIP3    H166532   4.903   0.183  16.700 -0.0671 -0.0274  0.9331
15039TIP3    H266533   4.967   0.111  16.583  0.7789  2.7698 -0.4327
15040TIP3   OH266534   4.435   1.958  14.779 -0.4411 -0.4471  0.2594
15040TIP3    H166535   4.351   1.991  14.811 -1.1726 -0.2772 -1.6792
15040TIP3    H266536   4.483   2.037  14.753  0.8405 -0.4509  2.4421
15041TIP3   OH266537   2.059   3.416  15.620  0.3339 -0.1065 -0.4843
15041TIP3    H166538   2.042   3.330  15.581 -1.0317 -0.0047 -0.1296
15041TIP3    H266539   2.140   3.445  15.577  0.0429 -0.9443 -1.6546
15042TIP3   OH266540   5.599   2.921  11.337  0.5236  0.1342 -0.1714
15042TIP3    H166541   5.637   2.855  11.278  1.8348  0.0870  0.6757
15042TIP3    H266542   5.670   2.984  11.351  1.1492 -1.0858  3.1990
15043TIP3   OH266543   1.261   4.184  17.188 -0.1946  0.3182  0.6040
15043TIP3    H166544   1.264   4.257  17.249  1.7996  0.5888  0.2533
15043TIP3    H266545   1.258   4.106  17.243 -0.0348  0.6024  1.0161
15044TIP3   OH266546   3.787   4.233   1.968 -0.0239  0.2082  0.1979
15044TIP3    H166547   3.735   4.155   1.951 -1.0978  0.9177  0.0862
15044TIP3    H266548   3.877   4.203   1.969 -0.2988 -0.7787 -1.3451
15045TIP3   OH266549   2.826   1.428  12.243  0.1937 -0.2392  0.4210
15045TIP3    H166550   2.860   1.390  12.325 -0.0057 -0.1907  0.5274
15045TIP3    H266551   2.827   1.523  12.258  0.9708 -0.1864  0.0428
15046TIP3   OH266552   4.481   4.925  13.599  0.3070 -0.0577 -0.3523
15046TIP3    H166553   4.497   4.831  13.591 -0.1065 -0.0607 -1.3713
15046TIP3    H266554   4.478   4.956  13.508 -0.1794  0.8303 -0.0448
15047TIP3   OH266555   2.702   2.656  16.828 -0.2352  0.5246  0.1225
15047TIP3    H166556   2.688   2.677  16.920  0.6064  1.2945  0.0878
15047TIP3    H266557   2.706   2.741  16.784  0.6206  0.2153 -0.4260
15048TIP3   OH266558   3.068   6.455   2.300  0.2880  0.7906  0.3027
15048TIP3    H166559   3.034   6.447   2.390 -0.4534  1.2198  0.0756
15048TIP3    H266560   3.135   6.523   2.306  1.5754 -0.4896  0.8760
15049TIP3   OH266561   6.074   1.758  12.073 -0.0063  0.3641 -0.2796
15049TIP3    H166562   6.027   1.795  12.148 -0.0540 -0.0521 -0.1019
15049TIP3    H266563   6.008   1.755  12.003 -0.3918 -0.6230  0.0928
15050TIP3   OH266564   5.001   3.822   2.465  0.2510 -0.2201  0.6375
15050TIP3    H166565   5.038   3.903   2.431 -0.5926  0.1007  0.4502
15050TIP3    H266566   4.988   3.840   2.559  0.4531 -0.2910  0.6798
15051TIP3   OH266567   2.039   0.018  15.465  0.2760  0.3070 -0.6593
15051TIP3    H166568   2.067  -0.065  15.504  1.2556  0.4342 -1.0632
15051TIP3    H266569   1.944   0.012  15.460  0.1236  0.1930  1.5446
15052TIP3   OH266570   5.785   1.652   4.927  0.4919 -0.0299 -0.0235
15052TIP3    H166571   5.797   1.665   4.833 -3.8376 -1.6208 -1.0515
15052TIP3    H266572   5.805   1.560   4.941  0.1042 -0.0590  0.3640
15053TIP3   OH266573   2.517   6.400  11.883 -0.0378 -0.3639  0.1423
15053TIP3    H166574   2.461   6.392  11.807 -0.6028  1.2769  0.3463
15053TIP3    H266575   2.600   6.434  11.849 -0.4788  0.9191  0.2985
15054TIP3   OH266576   5.102   5.855  13.312 -0.2054  0.2167 -0.5627
15054TIP3    H166577   5.056   5.937  13.292  1.5289  1.3124 -0.2512
15054TIP3    H266578   5.195   5.876  13.300  0.3392 -1.4661  0.4046
15055TIP3   OH266579   5.836   2.357  13.311  0.1857  0.4910 -0.1611
15055TIP3    H166580   5.883   2.275  13.299 -1.1484 -0.1976 -0.9504
15055TIP3    H266581   5.865   2.412  13.238 -1.0917 -0.3888 -1.4028
15056TIP3   OH266582   5.976   5.342   0.804  0.1498  0.7571 -0.0298
15056TIP3    H166583   6.036   5.404   0.763  0.4448  0.2124 -0.4462
15056TIP3    H266584   5.917   5.315   0.733 -0.8540  1.5842  0.4636
15057TIP3   OH266585   4.090   0.271  10.756  0.0478 -0.1213  0.3788
15057TIP3    H166586   4.019   0.302  10.700 -0.3768 -2.1434 -0.2831
15057TIP3    H266587   4.160   0.248  10.696  0.2309 -0.7168  0.8057
15058TIP3   OH266588   2.801   0.025   0.391 -0.0017  0.3440  0.0213
15058TIP3    H166589   2.890   0.057   0.372  0.1753  0.4773  1.0058
15058TIP3    H266590   2.812  -0.030   0.469 -0.2439 -2.4718 -1.7960
15059TIP3   OH266591   3.355   3.661   2.317  0.5669 -0.8096  0.6908
15059TIP3    H166592   3.356   3.590   2.382 -0.9459 -1.1882  0.3389
15059TIP3    H266593   3.448   3.679   2.300  0.9835 -1.2994  2.2923
15060TIP3   OH266594   4.685   4.805   1.271  0.3807 -0.0076  0.1666
15060TIP3    H166595   4.630   4.781   1.346  1.0068 -1.3879  0.2237
15060TIP3    H266596   4.627   4.798   1.195 -0.3119  1.5986  0.5132
15061TIP3   OH266597   2.317   5.214  12.877 -0.4662 -0.5500 -0.1300
15061TIP3    H166598   2.364   5.271  12.817 -1.0777  1.3418  1.1039
15061TIP3    H266599   2.283   5.272  12.945  0.5862 -2.5825  2.3432
15062TIP3   OH266600   4.424   6.462  15.796 -0.0811 -0.2083  0.1553
15062TIP3    H166601   4.364   6.535  15.781 -1.0188 -1.0272 -0.2162
15062TIP3    H266602   4.452   6.472  15.887 -1.3286 -0.1750  0.5632
15063TIP3   OH266603   2.571   1.848  12.675 -0.1846 -0.1453 -0.3744
15063TIP3    H166604   2.562   1.753  12.676 -0.1510 -0.1554  0.6579
15063TIP3    H266605   2.532   1.876  12.758  0.0337  0.7136 -0.5539
15064TIP3   OH266606   4.227   6.199  12.998 -0.0205  0.1315 -0.4130
15064TIP3    H166607   4.201   6.115  13.036 -1.3764  1.7703  2.5369
15064TIP3    H266608   4.209   6.188  12.904 -2.2088 -2.1409  0.1499
15065TIP3   OH266609   1.389   1.469  13.496  0.0563  0.2461  0.6342
15065TIP3    H166610   1.395   1.542  13.557  1.4814  0.7773 -0.1024
15065TIP3    H266611   1.418   1.505  13.412  0.9261 -1.1766  0.2893
15066TIP3   OH266612   5.610   0.611   1.193 -0.0912  0.2008 -0.3011
15066TIP3    H166613   5.643   0.568   1.114  0.0042 -0.1990 -0.0446
15066TIP3    H266614   5.628   0.704   1.179  0.8241  0.0280 -0.3261
15067TIP3   OH266615   3.478   3.254   3.342 -0.1144  0.3214  0.6430
15067TIP3    H166616   3.427   3.303   3.407 -0.5804 -1.0872  1.3679
15067TIP3    H266617   3.440   3.166   3.342 -1.7620  0.8120 -3.2877
15068TIP3   OH266618   3.666   2.960   1.426 -0.2937  0.0083 -0.2405
15068TIP3    H166619   3.633   2.923   1.508  0.1703  0.5584  0.2065
15068TIP3    H266620   3.673   2.885   1.367  4.7619 -1.6454  1.9218
15069TIP3   OH266621   2.597   6.684   3.703  0.1317 -0.5184 -0.7119
15069TIP3    H166622   2.618   6.723   3.788  1.7499 -0.8500 -0.9276
15069TIP3    H266623   2.543   6.749   3.659 -1.2000 -0.5648  0.7556
15070TIP3   OH266624   4.913   3.126   4.191 -0.0067 -0.1978 -0.5869
15070TIP3    H166625   4.969   3.190   4.235  1.1671 -1.5570 -0.0419
15070TIP3    H266626   4.890   3.169   4.108  1.7672  0.4558 -0.7930
15071TIP3   OH266627   0.197   6.242  12.569  0.5104  0.1311 -0.1593
15071TIP3    H166628   0.260   6.210  12.634  0.9297  1.3497  0.0598
15071TIP3    H266629   0.196   6.175  12.501 -0.2604 -1.3987  1.2900
15072TIP3   OH266630   3.888   5.742   5.320  0.0503 -0.4237 -0.1694
15072TIP3    H166631   3.911   5.791   5.241  1.0072 -0.6826 -0.0615
15072TIP3    H266632   3.893   5.806   5.391  1.6922 -0.7214  0.0299
15073TIP3   OH266633   6.388   1.066  14.815  0.1137  0.1910 -0.2846
15073TIP3    H166634   6.386   1.035  14.905  0.2942  0.2957 -0.2451
15073TIP3    H266635   6.453   1.135  14.814  0.3373 -0.0182 -0.5619
15074TIP3   OH266636   1.784   5.943   0.143  0.0978 -0.1434  0.5911
15074TIP3    H166637   1.707   5.968   0.092 -0.3526  0.7143  1.6416
15074TIP3    H266638   1.754   5.946   0.234  0.6679 -2.3627  0.9038
15075TIP3   OH266639   2.575   1.306   0.444 -0.4149  0.9273  0.1999
15075TIP3    H166640   2.521   1.320   0.367 -0.5742 -0.1103  0.1047
15075TIP3    H266641   2.646   1.371   0.436 -0.6003  1.0354 -0.6527
15076TIP3   OH266642   0.485   6.435   5.292 -0.3612 -0.0681  0.1568
15076TIP3    H166643   0.483   6.342   5.271 -1.3377  0.5053 -2.6300
15076TIP3    H266644   0.577   6.459   5.286  0.3411 -1.2912  3.6137
15077TIP3   OH266645   6.586   5.256  13.374  0.4030 -0.6213 -0.1508
15077TIP3    H166646   6.630   5.276  13.457  0.0381 -2.6367  0.5979
15077TIP3    H266647   6.574   5.161  13.376 -0.0552 -0.6659 -2.3173
15078TIP3   OH266648   2.813   5.931  16.656  0.5541 -0.0726 -0.7665
15078TIP3    H166649   2.891   5.978  16.625  0.2455  1.8352  1.1523
15078TIP3    H266650   2.834   5.905  16.745  0.1417 -2.4278 -1.2867
15079TIP3   OH266651   4.956   5.906   5.037 -0.4963 -0.1772 -0.0808
15079TIP3    H166652   4.923   5.982   4.990 -1.0571  0.1770  0.8546
15079TIP3    H266653   4.880   5.871   5.083 -0.0552 -0.7579  0.2331
15080TIP3   OH266654   3.483   2.473   4.514  0.1481 -0.0006  0.5703
15080TIP3    H166655   3.500   2.534   4.585  0.6538  1.9452 -1.1241
15080TIP3    H266656   3.567   2.466   4.468 -0.6701  0.4680 -1.0550
15081TIP3   OH266657   0.512   5.497   5.129 -0.5691  0.4300 -0.0471
15081TIP3    H166658   0.474   5.531   5.210 -1.4240 -0.5546 -0.0166
15081TIP3    H266659   0.443   5.509   5.064 -0.7740 -0.9355 -0.1009
15082TIP3   OH266660   2.974   3.776   6.308 -0.4816 -0.2971 -0.5123
15082TIP3    H166661   3.013   3.859   6.278 -0.8700  1.0880  2.4928
15082TIP3    H266662   3.042   3.736   6.362 -1.3366 -0.4378  0.4892
15083TIP3   OH266663   1.957   2.646  16.890 -0.1208  0.8155  0.0028
15083TIP3    H166664   1.884   2.699  16.860  0.0621  0.9817 -0.1569
15083TIP3    H266665   2.028   2.665  16.828  0.5989  1.9870  1.1242
15084TIP3   OH266666   2.860   0.490  14.332 -0.0266  0.1191 -0.5521
15084TIP3    H166667   2.908   0.425  14.280  0.7085  2.6051 -3.2765
15084TIP3    H266668   2.894   0.479  14.421  1.8603 -1.5781 -1.3861
15085TIP3   OH266669   3.584   3.698  12.321 -0.0589  0.6028  0.4240
15085TIP3    H166670   3.665   3.701  12.373 -0.1616  0.6349  0.5844
15085TIP3    H266671   3.522   3.651  12.377  0.2717 -0.7441 -0.3006
15086TIP3   OH266672   1.836   5.893   2.974  0.4419  0.0510 -0.1745
15086TIP3    H166673   1.801   5.824   2.917  0.2257 -0.2239  0.2782
15086TIP3    H266674   1.800   5.974   2.939 -0.9273 -0.2518  0.4589
15087TIP3   OH266675   6.146   1.965  15.257  0.4981 -0.3371  0.1356
15087TIP3    H166676   6.219   1.949  15.316  0.6060  1.5778  0.6036
15087TIP3    H266677   6.080   2.008  15.312  0.2832  0.7692 -0.9291
15088TIP3   OH266678   1.491   5.059  15.966 -0.5369  0.0194 -0.5454
15088TIP3    H166679   1.434   5.073  15.891 -0.0992 -3.5990 -1.7917
15088TIP3    H266680   1.432   5.037  16.038 -0.8704  1.1123 -0.4789
15089TIP3   OH266681   6.258   0.520  15.018 -0.0627 -0.2389  0.3643
15089TIP3    H166682   6.342   0.520  15.063 -1.0445  0.8719  2.3140
15089TIP3    H266683   6.255   0.605  14.973 -0.2091 -0.2181  0.4140
15090TIP3   OH266684   1.734   0.992  16.035 -0.3273  0.1017 -0.3156
15090TIP3    H166685   1.708   1.073  16.078  0.3562 -0.1608  0.6195
15090TIP3    H266686   1.764   0.935  16.106  0.6317 -0.4189 -1.1075
15091TIP3   OH266687   5.057   3.703   1.493  0.3157 -0.4274 -0.6307
15091TIP3    H166688   4.987   3.760   1.460 -0.0894 -0.6031 -0.0796
15091TIP3    H266689   5.036   3.690   1.585  1.7296  0.4918 -0.1454
15092TIP3   OH266690   0.629   5.324   2.632 -0.0425  0.7016 -0.6108
15092TIP3    H166691   0.536   5.304   2.645 -0.5707  1.3260 -2.8932
15092TIP3    H266692   0.674   5.272   2.698 -1.8988 -1.2707 -0.7638
15093TIP3   OH266693   6.596   6.528  11.671  0.0422  0.1742 -0.7857
15093TIP3    H166694   6.514   6.574  11.655 -0.9445 -0.7914  1.1195
15093TIP3    H266695   6.637   6.578  11.742 -0.4296 -1.0821  0.4147
15094TIP3   OH266696   3.435   0.204   2.100  0.5855  0.3140 -0.5511
15094TIP3    H166697   3.470   0.184   2.186  0.5903  0.4754 -0.5157
15094TIP3    H266698   3.395   0.122   2.071 -0.7260  0.6445  0.2346
15095TIP3   OH266699   6.641   2.212  15.770 -0.6922  0.2419  0.0800
15095TIP3    H166700   6.565   2.256  15.731 -1.6451  0.7298  2.2971
15095TIP3    H266701   6.603   2.149  15.832  0.7152 -0.1851  0.5484
15096TIP3   OH266702   3.568   1.914   0.452  0.8303  0.0566  0.0630
15096TIP3    H166703   3.589   1.903   0.545  0.9362 -0.1057  0.0207
15096TIP3    H266704   3.636   1.974   0.419  1.3640 -0.6440 -0.1238
15097TIP3   OH266705   0.259   3.730  14.485 -0.6140  0.0508  0.0711
15097TIP3    H166706   0.166   3.753  14.478 -0.9031 -1.3981 -1.5969
15097TIP3    H266707   0.301   3.811  14.514 -2.4457  0.5819  1.4811
15098TIP3   OH266708   0.675   0.121  15.213 -0.3602  0.3466  1.0145
15098TIP3    H166709   0.685   0.058  15.141  0.9767  0.7395  0.8345
15098TIP3    H266710   0.715   0.079  15.288  1.0917  1.1866  0.7498
15099TIP3   OH266711   0.525   1.566   0.050  0.7143  0.2593  0.0541
15099TIP3    H166712   0.517   1.567   0.145 -0.6120  1.4216 -0.0407
15099TIP3    H266713   0.447   1.521   0.019  0.5579  0.9018 -0.5183
15100TIP3   OH266714   5.734   4.918  14.397 -0.0738  0.6626  0.0087
15100TIP3    H166715   5.699   4.900  14.310 -1.0254 -2.2440  0.8559
15100TIP3    H266716   5.827   4.895  14.391 -0.4762 -1.1696  0.0832
15101TIP3   OH266717   0.317   4.809   2.903 -0.5843  0.3369  0.2552
15101TIP3    H166718   0.375   4.882   2.921 -0.3697  0.1060  0.5098
15101TIP3    H266719   0.307   4.808   2.808  1.6724 -1.0211 -0.0337
15102TIP3   OH266720   4.771   6.071  11.348  0.6402  0.1855  0.1097
15102TIP3    H166721   4.853   6.038  11.311  0.7602  1.2570 -0.6168
15102TIP3    H266722   4.739   6.133  11.282  0.0869  1.0156  1.1456
15103TIP3   OH266723   3.751   4.861   2.131 -0.5709 -0.2545  0.0556
15103TIP3    H166724   3.725   4.891   2.044 -3.0838  0.3844  0.9375
15103TIP3    H266725   3.726   4.769   2.133  0.1037 -0.4470 -0.1014
15104TIP3   OH266726   6.097   4.432  15.180 -0.0412 -0.1906 -0.4582
15104TIP3    H166727   6.161   4.465  15.243 -1.1881 -1.0397  1.2484
15104TIP3    H266728   6.148   4.381  15.117  1.1440  0.6618 -0.2068
15105TIP3   OH266729   3.983   6.520  11.079 -0.0758 -0.0501 -0.4058
15105TIP3    H166730   4.007   6.439  11.033 -0.8364  0.1458 -1.1686
15105TIP3    H266731   3.908   6.496  11.132  0.2013 -0.0348 -0.0034
15106TIP3   OH266732   1.387   1.536   2.444  0.3487  0.1746 -0.3485
15106TIP3    H166733   1.323   1.468   2.427 -1.6053  1.7425  0.3377
15106TIP3    H266734   1.426   1.555   2.359 -0.9531 -0.0025 -0.9948
15107TIP3   OH266735   1.859   2.819   2.830 -0.3179  0.2416  0.0003
15107TIP3    H166736   1.869   2.809   2.924 -0.7646 -2.2125 -0.1602
15107TIP3    H266737   1.942   2.859   2.801  0.7800 -1.1070  1.1594
15108TIP3   OH266738   2.075   2.711   5.211  0.3971 -0.1196 -0.8868
15108TIP3    H166739   2.085   2.659   5.291 -0.0069 -0.9239 -1.3403
15108TIP3    H266740   2.154   2.692   5.161  1.1924  1.2658 -0.2160
15109TIP3   OH266741   1.254   4.215   1.282  0.4142  0.1779 -0.3239
15109TIP3    H166742   1.226   4.218   1.191 -0.4353 -0.6361 -0.1128
15109TIP3    H266743   1.350   4.216   1.278  0.4387 -1.5967 -1.3325
15110TIP3   OH266744   3.814   3.382   5.403  0.0643  0.3241  0.3841
15110TIP3    H166745   3.888   3.326   5.426  0.4115 -0.1333 -1.6757
15110TIP3    H266746   3.748   3.363   5.470  1.5463  0.2698  1.8850
15111TIP3   OH266747   2.052   3.953   5.681 -0.2071  0.4748  0.1183
15111TIP3    H166748   2.137   3.937   5.641 -0.0834  0.9206  0.1935
15111TIP3    H266749   2.018   4.030   5.635 -0.5078  0.3847  0.1849
15112TIP3   OH266750   4.385   5.058   2.694 -0.0816 -0.5305  0.0259
15112TIP3    H166751   4.364   4.979   2.744  0.5120  0.0084  1.1552
15112TIP3    H266752   4.303   5.082   2.651 -0.3021 -1.6831 -0.2283
15113TIP3   OH266753   3.215   5.171  15.207  0.0747 -1.0052  0.1894
15113TIP3    H166754   3.259   5.088  15.188  3.3923  0.3141  1.4744
15113TIP3    H266755   3.169   5.155  15.289  0.5721 -1.6348  0.3572
15114TIP3   OH266756   3.463   0.977   1.566  0.4044  0.4641  0.0861
15114TIP3    H166757   3.399   0.924   1.518  0.9913 -0.5902  0.4428
15114TIP3    H266758   3.437   0.969   1.658  0.6455  0.5969  0.1671
15115TIP3   OH266759   1.613   2.662   6.296  0.3454 -0.6942 -0.1270
15115TIP3    H166760   1.624   2.709   6.379 -0.2188 -1.1019  0.1805
15115TIP3    H266761   1.573   2.726   6.238  0.2679 -0.5651  0.0658
15116TIP3   OH266762   3.922   1.097   4.627 -0.1836  0.1280  0.7831
15116TIP3    H166763   4.010   1.070   4.652  0.6436  1.8415 -0.1421
15116TIP3    H266764   3.896   1.033   4.560  0.0364 -0.8273  1.5924
15117TIP3   OH266765   4.405   4.304  17.321  0.3284 -0.1038  0.1764
15117TIP3    H166766   4.406   4.260  17.235  1.7486 -0.6969  0.4630
15117TIP3    H266767   4.448   4.242  17.380 -2.4981 -0.6818  1.8580
15118TIP3   OH266768   5.596   6.387   0.274  0.4607  0.3103  1.1158
15118TIP3    H166769   5.601   6.348   0.187 -3.4911 -0.2077  0.9223
15118TIP3    H266770   5.626   6.477   0.262 -1.1212  0.6131 -1.1442
15119TIP3   OH266771   3.360   1.666  16.394 -0.3921  0.0085  0.0518
15119TIP3    H166772   3.387   1.600  16.331 -0.4203  1.2852 -1.3694
15119TIP3    H266773   3.418   1.741  16.376 -0.6239  0.5266  1.3290
15120TIP3   OH266774   5.971   0.495   0.385  0.1212  0.3529  0.3337
15120TIP3    H166775   5.996   0.415   0.433  2.2903 -2.0599 -4.1346
15120TIP3    H266776   5.889   0.472   0.342 -1.7714  2.4494  2.5987
15121TIP3   OH266777   2.418   5.658  17.051 -0.3307  0.0305 -0.7603
15121TIP3    H166778   2.349   5.634  16.988  0.1956  0.1065 -1.3804
15121TIP3    H266779   2.387   5.739  17.090 -0.9050 -0.2841 -0.5428
15122TIP3   OH266780   2.263   4.179  16.466 -0.1276 -0.4933  0.3516
15122TIP3    H166781   2.224   4.260  16.500  2.3119 -0.1323  2.6554
15122TIP3    H266782   2.223   4.109  16.518 -0.6684 -0.5830 -0.1666
15123TIP3   OH266783   6.256   5.999   0.976 -0.2764 -0.3821 -0.1900
15123TIP3    H166784   6.289   5.910   0.984 -0.1475 -0.3846 -0.6605
15123TIP3    H266785   6.219   6.020   1.061  1.3332 -0.2313  0.5072
15124TIP3   OH266786   0.599   0.972  10.850  0.0600  0.6364 -0.0128
15124TIP3    H166787   0.509   0.941  10.863  0.1702  0.3075 -0.0309
15124TIP3    H266788   0.647   0.938  10.925  0.3567  0.0780 -0.4492
15125TIP3   OH266789   5.752   4.397   4.771  0.2620 -0.0659 -0.5678
15125TIP3    H166790   5.657   4.390   4.760  0.2000 -0.1123  0.0105
15125TIP3    H266791   5.767   4.490   4.787  0.1735 -0.2387  0.6251
15126TIP3   OH266792   1.701   3.717  12.070  0.1508 -0.1159  0.1454
15126TIP3    H166793   1.735   3.735  12.157  1.0657 -0.6405 -0.0877
15126TIP3    H266794   1.722   3.625  12.054  0.8227  0.2111 -0.9798
15127TIP3   OH266795   5.143   2.122  14.897 -0.0355  0.3228 -0.3151
15127TIP3    H166796   5.148   2.214  14.926 -1.3269  0.5129 -0.6641
15127TIP3    H266797   5.058   2.091  14.927  0.4451 -0.8219 -0.0803
15128TIP3   OH266798   5.943   0.926   6.430 -0.1750  0.1590 -0.0800
15128TIP3    H166799   5.917   0.919   6.522 -2.3262 -0.9948 -0.7012
15128TIP3    H266800   6.039   0.924   6.432 -0.1675 -0.4387  2.0972
15129TIP3   OH266801   6.004   5.475   4.118  0.0038  0.4308 -0.7982
15129TIP3    H166802   6.080   5.439   4.072 -0.0356  1.0749 -1.3799
15129TIP3    H266803   6.030   5.478   4.210  0.4169 -0.0224 -0.8976
15130TIP3   OH266804   4.291   4.241  13.777  0.2397  0.1342  0.4486
15130TIP3    H166805   4.222   4.191  13.733  1.2847 -2.7077  1.8357
15130TIP3    H266806   4.260   4.253  13.866  1.9760 -2.3941  1.4983
15131TIP3   OH266807   0.791   1.192  16.473  0.1511  0.2310  0.2306
15131TIP3    H166808   0.801   1.240  16.391  0.1419  0.8342  0.5742
15131TIP3    H266809   0.741   1.251  16.529 -0.2864 -0.3842  0.5007
15132TIP3   OH266810   5.928   2.889  11.924 -0.3987 -0.3202 -0.0172
15132TIP3    H166811   5.923   2.832  12.001  1.1077 -1.2611 -0.5678
15132TIP3    H266812   5.845   2.936  11.924 -1.4285 -2.0112  0.8612
15133TIP3   OH266813   4.727   1.826  14.163  0.1721 -0.2621 -0.3337
15133TIP3    H166814   4.683   1.769  14.225  0.3713 -1.3343 -1.1572
15133TIP3    H266815   4.812   1.843  14.202 -0.2458  0.2991  0.3765
15134TIP3   OH266816   1.407   4.241   2.298 -0.2481  0.4663  0.1878
15134TIP3    H166817   1.323   4.195   2.295  0.5462 -1.1668  1.0856
15134TIP3    H266818   1.429   4.244   2.391  0.4128  1.4217  0.0130
15135TIP3   OH266819   2.278   4.319  16.154  0.6201  0.0848 -0.2582
15135TIP3    H166820   2.262   4.376  16.229 -1.0647 -0.5824 -0.0654
15135TIP3    H266821   2.289   4.232  16.191 -0.7956 -0.3488 -0.7873
15136TIP3   OH266822   4.153   2.589   1.131 -0.0009 -0.4177 -0.5125
15136TIP3    H166823   4.159   2.497   1.159  0.4237 -0.2860 -0.1593
15136TIP3    H266824   4.112   2.634   1.205  1.3501 -0.0217  0.0084
15137TIP3   OH266825   6.025   2.167  12.304 -0.0506  0.0746  0.1524
15137TIP3    H166826   5.931   2.176  12.319 -0.5497 -1.6844 -1.5670
15137TIP3    H266827   6.059   2.125  12.383 -1.0869 -1.1718 -0.0474
15138TIP3   OH266828   1.775   0.875   4.399 -0.1533  0.4420  0.0701
15138TIP3    H166829   1.799   0.910   4.484 -0.1116  2.7748 -0.8411
15138TIP3    H266830   1.844   0.906   4.340 -1.3741  0.8203 -1.2214
15139TIP3   OH266831   1.256   0.937  14.666 -0.3107 -0.1445 -0.3914
15139TIP3    H166832   1.251   0.888  14.748 -1.7286  0.1859 -0.2538
15139TIP3    H266833   1.339   0.984  14.671 -0.4915  0.0573  0.9574
15140TIP3   OH266834   3.560   4.685  15.223  0.0523  0.4708  0.3439
15140TIP3    H166835   3.507   4.708  15.299  0.2237 -0.4808  0.7631
15140TIP3    H266836   3.614   4.762  15.207  0.1262  0.6217  1.2792
15141TIP3   OH266837   3.711   4.120  16.077 -0.0591  0.6105  0.2859
15141TIP3    H166838   3.646   4.088  16.139 -1.4817 -0.5775 -1.6852
15141TIP3    H266839   3.765   4.044  16.056  1.5760  1.4188  1.3519
15142TIP3   OH266840   2.666   3.247   2.791 -0.2634  0.2372  0.2346
15142TIP3    H166841   2.707   3.314   2.737  0.1880  1.6318  2.1758
15142TIP3    H266842   2.579   3.235   2.752  0.2031  0.8388 -1.0490
15143TIP3   OH266843   2.159   3.911  15.455 -0.2836  0.1142  0.4125
15143TIP3    H166844   2.071   3.883  15.430 -0.0591  0.1557 -0.4619
15143TIP3    H266845   2.184   3.974  15.388  0.8811 -0.7972 -0.0560
15144TIP3   OH266846   1.599   5.621  17.128  0.3563  0.2206 -0.5748
15144TIP3    H166847   1.586   5.709  17.163  3.3262  2.0446 -3.5655
15144TIP3    H266848   1.693   5.605  17.136  0.0219 -2.3683 -0.9393
15145TIP3   OH266849   0.053   3.755   6.414  0.3480 -0.0920 -0.2089
15145TIP3    H166850   0.125   3.738   6.474  1.0322  0.6134 -0.8120
15145TIP3    H266851  -0.004   3.816   6.461  1.4479  1.3418 -0.6594
15146TIP3   OH266852   0.961   0.557   2.398  0.2051  0.4026 -0.0681
15146TIP3    H166853   0.996   0.631   2.348  1.7010  0.6537  1.2740
15146TIP3    H266854   0.871   0.583   2.419  1.0006  2.3223  1.2062
15147TIP3   OH266855   1.354   0.429  16.865 -0.6526  0.6996  0.6236
15147TIP3    H166856   1.415   0.502  16.868 -0.2853  0.3988  0.6270
15147TIP3    H266857   1.272   0.467  16.835 -0.2112  0.9445 -0.3183
15148TIP3   OH266858   2.601   5.205   0.936  0.1297 -0.7131  0.2334
15148TIP3    H166859   2.529   5.266   0.923  0.5823  0.4801  2.6264
15148TIP3    H266860   2.608   5.157   0.854 -2.1561  0.4233 -0.7062
15149TIP3   OH266861   6.220   5.127   4.800 -0.0558  0.5844  0.0698
15149TIP3    H166862   6.253   5.111   4.711 -0.9958  1.6056 -0.4767
15149TIP3    H266863   6.242   5.047   4.848  1.9633  0.6727 -0.6227
15150TIP3   OH266864   4.126   6.416   4.053  0.2808 -0.5781  0.5743
15150TIP3    H166865   4.061   6.441   4.119 -0.2390 -0.2179 -0.0502
15150TIP3    H266866   4.206   6.460   4.080 -0.1820  0.3860  0.4477
15151TIP3   OH266867   2.741   3.242  12.107  0.4679  0.5350  0.1417
15151TIP3    H166868   2.836   3.235  12.109  0.5083  0.7972 -0.4622
15151TIP3    H266869   2.711   3.205  12.190  1.1360  1.0948  0.6416
15152TIP3   OH266870   4.691   5.139  11.464  0.0248  0.0626  0.8948
15152TIP3    H166871   4.619   5.155  11.403 -0.6199  0.0998  1.6568
15152TIP3    H266872   4.730   5.226  11.477 -0.1429  0.1340  0.9197
15153TIP3   OH266873   5.256   0.262  15.261 -0.0910 -0.5371 -0.5064
15153TIP3    H166874   5.291   0.265  15.172 -2.2743  1.7101 -1.3944
15153TIP3    H266875   5.276   0.348  15.298  0.1870 -1.2046  0.9699
15154TIP3   OH266876   1.322   2.520   4.821 -0.1813  0.0543 -0.1692
15154TIP3    H166877   1.315   2.611   4.850  0.9880  0.0309  0.2726
15154TIP3    H266878   1.252   2.474   4.866 -1.2032  0.8339 -0.8999
15155TIP3   OH266879   6.279   2.703  11.054  0.4935 -0.4028 -0.1427
15155TIP3    H166880   6.275   2.641  10.982  0.8018  1.2908 -1.6692
15155TIP3    H266881   6.364   2.686  11.096  1.6021  0.3936 -1.9267
15156TIP3   OH266882   2.611   3.220   4.355  0.6051 -0.0700  0.3328
15156TIP3    H166883   2.543   3.287   4.356 -1.6914 -2.2115 -1.2537
15156TIP3    H266884   2.662   3.237   4.434 -2.2980  1.1557  2.1117
15157TIP3   OH266885   6.559   6.602   5.111  0.3015 -0.3275  0.0765
15157TIP3    H166886   6.473   6.561   5.099  1.2148 -1.7037 -2.6129
15157TIP3    H266887   6.607   6.542   5.168 -0.0900 -0.2408  0.4974
15158TIP3   OH266888   1.852   0.467  16.664  0.1446  1.0588 -0.1967
15158TIP3    H166889   1.848   0.551  16.620  1.1652  0.5507 -1.2976
15158TIP3    H266890   1.932   0.470  16.717 -1.6048  2.0854  2.6396
15159TIP3   OH266891   2.509   3.721   0.134  0.0540  0.3418 -0.2566
15159TIP3    H166892   2.524   3.805   0.177 -1.0152  0.6379 -0.4250
15159TIP3    H266893   2.470   3.666   0.202  1.6980 -0.3729  0.1462
15160TIP3   OH266894   6.337   5.709   5.661 -0.6352 -0.0034 -0.7176
15160TIP3    H166895   6.255   5.705   5.710 -0.3214 -0.7248 -0.2374
15160TIP3    H266896   6.399   5.658   5.713  0.6151  1.9998 -0.1430
15161TIP3   OH266897   4.043   0.447   0.899 -0.1520 -0.1396 -0.1343
15161TIP3    H166898   3.985   0.447   0.975 -1.3684  2.4540 -0.9472
15161TIP3    H266899   4.129   0.470   0.934 -0.7855  1.4508  0.4713
15162TIP3   OH266900   1.082   3.654   3.636  0.6556  0.1338  0.1566
15162TIP3    H166901   1.100   3.717   3.567  1.4480 -0.3621 -0.0999
15162TIP3    H266902   1.136   3.578   3.614 -0.7708 -0.9095  0.0863
15163TIP3   OH266903   4.633   5.607   6.168  0.0812 -0.1892  0.2429
15163TIP3    H166904   4.617   5.611   6.263  0.9160 -0.9642  0.4243
15163TIP3    H266905   4.590   5.526   6.141  0.3051 -0.2449  0.0543
15164TIP3   OH266906   4.452   1.024   0.603  0.4548 -0.2746 -0.1899
15164TIP3    H166907   4.391   1.074   0.658  2.4368  1.0246  0.9636
15164TIP3    H266908   4.418   1.036   0.514 -0.5747  0.9910  0.3299
15165TIP3   OH266909   4.216   4.540  17.266 -0.3872  0.7232  0.5033
15165TIP3    H166910   4.206   4.578  17.353 -0.8601 -0.1773  0.8498
15165TIP3    H266911   4.275   4.466  17.278 -0.4244  0.6145  0.0428
15166TIP3   OH266912   3.359   6.048  11.185  0.1859  0.5496  0.1640
15166TIP3    H166913   3.285   6.061  11.126  0.9383  1.8375 -0.5363
15166TIP3    H266914   3.414   6.126  11.172  2.0948 -0.7601  0.0264
15167TIP3   OH266915   6.569   4.039   3.216  0.1931 -0.3495 -0.2611
15167TIP3    H166916   6.578   3.993   3.132  1.8023  0.0465 -0.3350
15167TIP3    H266917   6.514   4.114   3.196  0.3653 -0.3884 -0.9219
15168TIP3   OH266918   1.203   3.174   5.277 -0.3589  0.0581 -0.3205
15168TIP3    H166919   1.237   3.183   5.188 -0.1626 -0.5383 -0.3073
15168TIP3    H266920   1.246   3.245   5.326  0.2657 -0.2029 -0.4838
15169TIP3   OH266921   0.341   2.232   5.855  0.0733  0.0451 -0.5532
15169TIP3    H166922   0.419   2.177   5.859 -0.5709 -0.8620  0.1440
15169TIP3    H266923   0.363   2.309   5.907  1.0411  0.5373 -1.6591
15170TIP3   OH266924   4.543   3.316   5.195 -0.4900 -0.1618 -0.0597
15170TIP3    H166925   4.552   3.396   5.247 -0.9827  0.4512 -0.8726
15170TIP3    H266926   4.615   3.321   5.131 -0.2951 -0.5604  0.1267
15171TIP3   OH266927   5.207   4.398  12.341 -0.2525 -0.4196  0.4667
15171TIP3    H166928   5.298   4.428  12.347  0.7612 -2.5680 -1.9081
15171TIP3    H266929   5.191   4.388  12.247 -2.9390 -0.2259  0.8253
15172TIP3   OH266930   5.020   1.442  14.400 -0.1725  0.3897 -0.0839
15172TIP3    H166931   5.001   1.460  14.308 -1.7579 -0.1875  0.1150
15172TIP3    H266932   4.976   1.513  14.448  1.2246  1.0937  0.2294
15173TIP3   OH266933   3.353   0.727  13.143 -0.4448 -0.0880 -0.2803
15173TIP3    H166934   3.369   0.660  13.077  0.7295 -0.3043  0.2048
15173TIP3    H266935   3.437   0.739  13.187 -0.3191  2.5285 -1.0769
15174TIP3   OH266936   4.063   3.553   2.883 -0.0939  0.1039  0.0448
15174TIP3    H166937   3.998   3.503   2.932  2.0739 -1.0743  1.9450
15174TIP3    H266938   4.143   3.545   2.935  1.2272  2.7330 -1.3903
15175TIP3   OH266939   5.565   5.132   3.151  0.0052  0.6416 -0.1502
15175TIP3    H166940   5.532   5.090   3.071  1.8821  1.0145 -1.1987
15175TIP3    H266941   5.637   5.076   3.179  0.9038  1.7619 -0.1233
15176TIP3   OH266942   3.961   4.944   3.770 -0.0172 -0.3645 -0.0549
15176TIP3    H166943   3.907   4.905   3.839 -0.4438 -0.1360 -0.2583
15176TIP3    H266944   3.968   5.036   3.793 -1.9108  0.1775 -1.3968
15177TIP3   OH266945   5.724   3.067  16.051  0.0444  0.2568  0.7456
15177TIP3    H166946   5.679   3.112  15.980  0.6655  0.3468  0.4069
15177TIP3    H266947   5.746   2.981  16.015 -1.2535 -0.3930  1.4325
15178TIP3   OH266948   1.529   5.609  15.401 -0.0151  0.0544  0.6284
15178TIP3    H166949   1.519   5.570  15.488  1.7398 -1.3289  0.2579
15178TIP3    H266950   1.598   5.675  15.412  0.2682 -0.1820  0.2690
15179TIP3   OH266951   3.672   2.034  16.261  0.6438  0.4607  0.1158
15179TIP3    H166952   3.696   2.019  16.169  0.7346  0.5577  0.1229
15179TIP3    H266953   3.600   2.097  16.257  2.2020  2.3590  0.2005
15180TIP3   OH266954   0.961   4.312   4.091 -0.3957  0.2658 -0.6846
15180TIP3    H166955   0.879   4.357   4.114 -0.1594  0.0853  0.5621
15180TIP3    H266956   0.936   4.250   4.023 -1.4796 -0.3790  0.2713
15181TIP3   OH266957   6.205   3.766  13.068 -0.1162 -0.3926  0.3219
15181TIP3    H166958   6.247   3.796  12.988 -0.4258 -1.6780 -0.3529
15181TIP3    H266959   6.156   3.842  13.100 -1.5857 -0.3726 -1.7693
15182TIP3   OH266960   5.532   3.741  11.342 -0.2116  0.0791 -0.3896
15182TIP3    H166961   5.625   3.763  11.340 -0.2992  0.5783  0.5985
15182TIP3    H266962   5.488   3.826  11.336 -0.5896 -0.0821  0.0927
15183TIP3   OH266963   5.110   5.816   1.013  0.6354 -0.4697  0.1993
15183TIP3    H166964   5.093   5.829   1.106  0.0633  0.3483 -0.0074
15183TIP3    H266965   5.100   5.722   0.999 -0.6605 -0.4252  0.7017
15184TIP3   OH266966   1.598   3.724   2.895  0.0241 -0.6330  0.4226
15184TIP3    H166967   1.632   3.777   2.967  1.7869 -0.3260 -0.5564
15184TIP3    H266968   1.550   3.654   2.938  1.5856 -0.8486  1.9669
15185TIP3   OH266969   6.029   2.040  10.563 -0.7099 -0.0907 -0.1672
15185TIP3    H166970   6.068   2.094  10.495  1.1306 -1.7555 -0.4842
15185TIP3    H266971   5.948   2.007  10.524 -1.2787  1.4487 -0.3729
15186TIP3   OH266972   0.076   3.961   1.724  0.7529  0.1512 -0.3726
15186TIP3    H166973   0.147   4.016   1.691  1.1541 -1.3270 -2.1464
15186TIP3    H266974  -0.004   4.003   1.694  0.9394  0.8515  0.0827
15187TIP3   OH266975   5.664   3.106  12.295 -0.1895 -0.2774  0.4887
15187TIP3    H166976   5.592   3.161  12.263 -1.1835 -0.9730  1.4298
15187TIP3    H266977   5.657   3.111  12.390  0.2458 -1.3356  0.5876
15188TIP3   OH266978   3.773   4.317  15.713 -0.1813  0.3571 -0.6516
15188TIP3    H166979   3.816   4.398  15.686 -0.0871  0.4634 -0.1936
15188TIP3    H266980   3.793   4.255  15.644 -0.4317  0.7846 -1.1133
15189TIP3   OH266981   6.186   2.156  14.598  0.2588 -0.3719 -0.0349
15189TIP3    H166982   6.229   2.178  14.680  0.7328 -1.8736  0.1558
15189TIP3    H266983   6.149   2.069  14.612  0.8198 -0.9081 -1.5672
15190TIP3   OH266984   6.442   1.889   4.226 -0.2400  0.2783 -0.6825
15190TIP3    H166985   6.458   1.830   4.152  0.4769  1.9092 -1.8789
15190TIP3    H266986   6.443   1.832   4.302 -1.8373 -1.5932 -1.9795
15191TIP3   OH266987   3.858   1.865  15.004 -0.2741  0.2356  0.4039
15191TIP3    H166988   3.851   1.803  15.077 -3.0244  0.3496  0.3387
15191TIP3    H266989   3.890   1.812  14.931  0.2080 -0.4265  1.0754
15192TIP3   OH266990   1.612   1.953   5.321 -0.2097 -0.7285  0.4925
15192TIP3    H166991   1.624   1.997   5.237  1.2909  0.4006  1.2525
15192TIP3    H266992   1.538   1.894   5.307 -0.4013 -0.0945 -1.4201
15193TIP3   OH266993   5.578   1.322   0.210  0.3501 -0.4746  0.2778
15193TIP3    H166994   5.539   1.267   0.142  1.1056  0.3476 -0.8717
15193TIP3    H266995   5.542   1.409   0.193  0.4326 -0.2880  1.0417
15194TIP3   OH266996   5.810   4.333   2.864 -0.3724 -0.3141  0.4555
15194TIP3    H166997   5.770   4.419   2.849 -0.2525 -0.3776 -0.2919
15194TIP3    H266998   5.802   4.318   2.958 -1.5733 -0.0571  0.4128
15195TIP3   OH266999   3.426   1.536  12.086 -0.5395  0.2067  0.1458
15195TIP3    H167000   3.444   1.445  12.063 -0.6264  0.9586 -3.3434
15195TIP3    H267001   3.338   1.552  12.054 -0.2785  1.6945  0.1141
15196TIP3   OH267002   6.386   4.826   6.268 -0.6192  0.5637 -0.2579
15196TIP3    H167003   6.418   4.804   6.356 -1.6729  1.9517  0.5161
15196TIP3    H267004   6.383   4.922   6.267  1.0673  0.6656 -2.4649
15197TIP3   OH267005   5.834   2.227  12.074 -0.7327  0.5768 -0.3544
15197TIP3    H167006   5.846   2.141  12.032 -0.4593  0.5399 -0.2011
15197TIP3    H267007   5.836   2.208  12.168  2.1373  1.0842 -0.2145
15198TIP3   OH267008   2.988   6.525  12.571  0.3989  0.7229  0.6286
15198TIP3    H167009   2.966   6.595  12.633 -1.8986 -1.0931  1.9934
15198TIP3    H267010   2.961   6.444  12.614  0.5719 -0.8309 -1.9455
15199TIP3   OH267011   4.770   4.462  11.481  0.4627  0.6731 -0.0684
15199TIP3    H167012   4.696   4.408  11.455  0.6029  0.4217  0.0430
15199TIP3    H267013   4.786   4.520  11.407  1.1657 -0.3659 -0.7582
15200TIP3   OH267014   3.579   6.096  13.266 -0.4659 -0.2924  0.8283
15200TIP3    H167015   3.544   6.182  13.244 -1.1889 -0.5949  0.7668
15200TIP3    H267016   3.594   6.054  13.181 -1.2724 -0.6748  0.8635
15201TIP3   OH267017   0.034   6.212   5.422 -0.5455 -0.4703 -0.1277
15201TIP3    H167018  -0.011   6.266   5.487 -0.9822 -0.1238 -0.7071
15201TIP3    H267019   0.122   6.199   5.458 -1.3427 -1.8903  1.4558
15202TIP3   OH267020   0.172   1.443  12.069 -0.3787 -0.5092  0.4791
15202TIP3    H167021   0.121   1.362  12.062 -0.6694 -0.2989  0.0663
15202TIP3    H267022   0.263   1.415  12.058 -0.5192 -0.7189 -0.2078
15203TIP3   OH267023   3.521   0.622  15.609 -0.1697 -0.2738 -0.0287
15203TIP3    H167024   3.563   0.541  15.640  2.0537  0.1218 -1.7777
15203TIP3    H267025   3.504   0.606  15.516 -2.5686  0.2114  0.2388
15204TIP3   OH267026   2.015   1.674   5.375 -0.1378  0.2864  0.0590
15204TIP3    H167027   1.964   1.744   5.415 -1.3943 -0.6956  0.2333
15204TIP3    H267028   1.953   1.628   5.319  0.9670  0.0481 -1.0188
15205TIP3   OH267029   2.808   4.606   2.226  0.8114 -0.4586  0.2738
15205TIP3    H167030   2.835   4.514   2.224 -1.6261 -1.2943  1.7644
15205TIP3    H267031   2.847   4.640   2.307 -0.7007 -1.0797  1.3126
15206TIP3   OH267032   5.138   2.536  13.690 -0.2144 -0.5899  0.3264
15206TIP3    H167033   5.095   2.622  13.686 -0.3061 -0.6424  0.1851
15206TIP3    H267034   5.130   2.510  13.782 -1.6970 -1.2170  0.0561
15207TIP3   OH267035   1.145   3.787  12.659 -0.2049 -0.5965  0.2281
15207TIP3    H167036   1.081   3.735  12.708  0.0291 -0.7365  0.3915
15207TIP3    H267037   1.159   3.739  12.578 -1.0953 -0.0181 -0.2828
15208TIP3   OH267038   1.874   6.373   2.424 -0.2832  0.7405  0.2028
15208TIP3    H167039   1.839   6.461   2.427  0.8208  1.2794 -1.1643
15208TIP3    H267040   1.967   6.383   2.447 -0.4087 -0.2548  1.2462
15209TIP3   OH267041   1.504   5.307   2.078  0.6007  0.5614 -0.1733
15209TIP3    H167042   1.562   5.239   2.041  0.0424  0.0696 -0.1634
15209TIP3    H267043   1.416   5.271   2.068  0.1975  1.7214 -1.1021
15210TIP3   OH267044   4.107   5.635  15.665  0.0649  0.3480  0.0658
15210TIP3    H167045   4.025   5.600  15.698 -0.0552  0.2992 -0.2852
15210TIP3    H267046   4.151   5.561  15.623 -1.3393  1.0678 -3.0052
15211TIP3   OH267047   5.100   4.981   1.982 -0.5049 -0.5011 -0.6400
15211TIP3    H167048   5.182   4.933   1.990 -0.6787 -0.7876 -0.5655
15211TIP3    H267049   5.075   4.970   1.890  0.5252  1.2111 -1.1714
15212TIP3   OH267050   1.599   4.102  13.922  0.4080 -0.0822 -0.2391
15212TIP3    H167051   1.673   4.123  13.980  0.0049 -1.0338  0.6479
15212TIP3    H267052   1.523   4.100  13.980  0.0346 -1.3463 -0.7416
15213TIP3   OH267053   5.318   3.724   1.389 -0.1607  0.3891  0.2619
15213TIP3    H167054   5.301   3.800   1.333  0.4160  1.1422  1.0768
15213TIP3    H267055   5.234   3.706   1.431  0.3766  2.6715  2.5543
15214TIP3   OH267056   2.191   1.057  11.324 -0.5741 -0.6242  0.0032
15214TIP3    H167057   2.251   0.987  11.350 -1.2512 -1.2141  0.0014
15214TIP3    H267058   2.236   1.137  11.350  0.7628 -0.9722 -1.1156
15215TIP3   OH267059   5.994   0.617  11.510  0.0427 -0.4804  0.0736
15215TIP3    H167060   5.975   0.524  11.503 -0.9995 -0.2501 -0.4498
15215TIP3    H267061   5.951   0.644  11.592 -1.6693 -0.0313 -0.9226
15216TIP3   OH267062   5.219   5.265  11.883 -0.0009 -0.5702  0.1019
15216TIP3    H167063   5.177   5.242  11.965 -0.2049  1.2094  0.5362
15216TIP3    H267064   5.306   5.297  11.908 -0.5449  1.2705 -0.1743
15217TIP3   OH267065   2.682   2.027   6.393  0.1102  0.1679 -0.5051
15217TIP3    H167066   2.600   2.074   6.410  1.4505  2.7249 -0.5373
15217TIP3    H267067   2.689   2.025   6.298  0.0402 -0.1963 -0.5059
15218TIP3   OH267068   1.300   2.497  12.515  0.5776  0.4507 -0.3485
15218TIP3    H167069   1.380   2.542  12.488  0.1601  2.3174  1.3558
15218TIP3    H267070   1.262   2.552  12.583 -0.8271 -1.7072  0.7331
15219TIP3   OH267071   3.500   1.117   6.416  0.5155  1.6021 -0.1187
15219TIP3    H167072   3.427   1.150   6.363  0.5379  1.6183 -0.1391
15219TIP3    H267073   3.545   1.195   6.447  0.2317  1.6036  0.3003
15220TIP3   OH267074   0.674   0.530   2.416 -0.1881 -0.4579  0.0448
15220TIP3    H167075   0.604   0.504   2.356  0.9161 -1.1883 -0.9629
15220TIP3    H267076   0.720   0.449   2.436  0.1238 -0.0494  1.0323
15221TIP3   OH267077   3.511   0.190   4.153 -0.2753 -0.3881  0.3051
15221TIP3    H167078   3.478   0.211   4.066  1.0136  0.9214  0.0980
15221TIP3    H267079   3.439   0.143   4.195 -1.0328 -0.7851 -1.3432
15222TIP3   OH267080   0.785   1.948  12.094 -0.4052 -0.1372  0.1444
15222TIP3    H167081   0.879   1.951  12.077 -0.2593  0.8748  0.9952
15222TIP3    H267082   0.747   1.914  12.014  0.8531 -2.6236  0.4967
15223TIP3   OH267083   0.879   0.337  11.532 -0.5792  0.1247  0.1145
15223TIP3    H167084   0.913   0.426  11.522  0.7785 -0.4172 -0.3815
15223TIP3    H267085   0.922   0.287  11.463 -2.4256 -0.6382 -0.5528
15224TIP3   OH267086   3.091   5.284  16.116  0.5721 -0.5573 -0.2775
15224TIP3    H167087   3.014   5.249  16.160  0.1061  0.1554 -0.5079
15224TIP3    H267088   3.093   5.239  16.032  2.0952 -2.7498  0.8430
15225TIP3   OH267089   6.638   2.525  13.423 -0.7601 -0.1325 -0.0593
15225TIP3    H167090   6.580   2.544  13.496 -0.4622 -0.6459  0.3157
15225TIP3    H267091   6.673   2.437  13.441  0.2492  0.2274 -0.1959
15226TIP3   OH267092   3.102   4.083   1.516 -0.2658 -0.1906 -0.5757
15226TIP3    H167093   3.144   3.998   1.505 -2.2478 -1.3648  0.4670
15226TIP3    H267094   3.088   4.092   1.610  3.3335  3.1240 -0.0845
15227TIP3   OH267095   1.847   4.860  12.642  0.2219 -0.4446 -0.3860
15227TIP3    H167096   1.764   4.875  12.688  0.8013 -1.1615  0.9361
15227TIP3    H267097   1.883   4.948  12.630 -0.9736 -0.0649 -1.5125
15228TIP3   OH267098   2.138   5.653   0.915 -0.1228  1.0170  0.1722
15228TIP3    H167099   2.182   5.709   0.978  1.1558  0.5366 -0.2553
15228TIP3    H267100   2.203   5.637   0.847 -1.2304  0.9316 -0.9164
15229TIP3   OH267101   2.972   4.938  11.483  0.3213  0.4745 -0.9987
15229TIP3    H167102   2.907   4.968  11.420 -1.2505 -4.6172 -2.2694
15229TIP3    H267103   2.920   4.911  11.560  1.1846 -1.1277 -0.9364
15230TIP3   OH267104   4.072   4.288   2.378  0.0020  0.4124  0.2301
15230TIP3    H167105   4.001   4.317   2.434  0.7799  2.5079  0.2281
15230TIP3    H267106   4.147   4.341   2.406  1.1107 -0.4884 -0.9288
15231TIP3   OH267107   6.213   3.229   5.673  0.4155 -0.7675  0.4631
15231TIP3    H167108   6.254   3.270   5.750  1.3101 -3.4419  1.5150
15231TIP3    H267109   6.212   3.136   5.693 -0.4443 -1.4399 -2.2970
15232TIP3   OH267110   6.689   4.824  13.122 -0.3365 -0.2843  0.0204
15232TIP3    H167111   6.654   4.756  13.180 -1.9925 -1.7457 -2.4688
15232TIP3    H267112   6.769   4.785  13.086 -0.3844 -0.2263 -0.1509
15233TIP3   OH267113   1.305   5.157   2.760  0.5961 -0.1438 -0.2300
15233TIP3    H167114   1.372   5.148   2.692  0.1750  1.5792 -0.9267
15233TIP3    H267115   1.274   5.068   2.775 -0.0093 -0.4865 -3.0304
15234TIP3   OH267116   1.855   0.198  15.643 -0.2416 -0.2608 -0.1560
15234TIP3    H167117   1.826   0.243  15.722 -0.7759 -0.6432 -0.1345
15234TIP3    H267118   1.815   0.111  15.649  1.1101 -0.9004  0.0161
15235TIP3   OH267119   2.813   3.960   1.931  0.0527 -0.2872 -0.0502
15235TIP3    H167120   2.770   3.874   1.934  1.8393 -1.2408 -0.2983
15235TIP3    H267121   2.807   3.992   2.021  0.6382 -1.3724  0.4033
15236TIP3   OH267122   5.405   2.506  13.933 -0.6336  0.4467  0.4697
15236TIP3    H167123   5.445   2.420  13.924 -0.2364  0.6800 -0.0377
15236TIP3    H267124   5.458   2.564  13.877  0.1307  1.3706  2.0778
15237TIP3   OH267125   1.304   2.848   5.182  0.1367 -0.0377  0.2385
15237TIP3    H167126   1.220   2.884   5.154  0.1975  1.2566  1.5419
15237TIP3    H267127   1.287   2.815   5.271  0.9947  0.2822  0.5334
15238TIP3   OH267128   4.926   4.407   0.719 -0.1801  0.3106 -0.4116
15238TIP3    H167129   4.889   4.331   0.674  0.1455  0.0480 -0.2431
15238TIP3    H267130   4.972   4.456   0.650 -0.0990  0.1717 -0.4555
15239TIP3   OH267131   0.318   1.738  10.760  0.8310 -0.4602  0.1148
15239TIP3    H167132   0.338   1.672  10.693  1.3092 -0.5958  0.3863
15239TIP3    H267133   0.372   1.814  10.736  1.3854 -0.6849  0.6215
15240TIP3   OH267134   2.425   4.184  11.878 -0.0030 -0.3328  0.3181
15240TIP3    H167135   2.373   4.134  11.941  0.5554  1.1700  2.0671
15240TIP3    H267136   2.366   4.198  11.805 -1.3941 -0.4058  1.3825
15241TIP3   OH267137   5.147   0.027   2.822 -0.2483 -0.2794  0.0952
15241TIP3    H167138   5.217  -0.032   2.794  1.4158  1.5790  0.0850
15241TIP3    H267139   5.181   0.069   2.901 -1.9135 -0.2382  0.8395
15242TIP3   OH267140   2.567   1.777   4.699  0.1219  0.2872  0.1327
15242TIP3    H167141   2.563   1.803   4.607  0.5794  0.5146  0.1738
15242TIP3    H267142   2.488   1.816   4.738  1.0701  2.1541  0.3204
15243TIP3   OH267143   1.686   6.043  15.380  0.2705 -0.5479 -0.1232
15243TIP3    H167144   1.622   6.082  15.440  0.5837 -0.2480  0.0233
15243TIP3    H267145   1.667   6.084  15.295  0.2039 -0.5331 -0.1009
15244TIP3   OH267146   1.852   3.083  17.008  0.0794 -0.0467 -0.1929
15244TIP3    H167147   1.789   3.033  17.061 -0.2094 -2.2677 -2.4485
15244TIP3    H267148   1.799   3.152  16.967 -0.2364  0.0336  0.3405
15245TIP3   OH267149   3.389   2.683   1.429  0.4182 -0.1531  0.3305
15245TIP3    H167150   3.329   2.749   1.464  1.2236  0.3559  0.7790
15245TIP3    H267151   3.418   2.635   1.506  0.1482 -0.7702  0.0485
15246TIP3   OH267152   2.337   0.314  14.511  0.2384 -0.4915 -0.0888
15246TIP3    H167153   2.243   0.327  14.501  0.5952  1.9554 -0.7992
15246TIP3    H267154   2.345   0.251  14.583 -1.9226 -0.9250 -0.1815
15247TIP3   OH267155   1.078   1.243   1.968  0.0670  0.2012  0.1230
15247TIP3    H167156   0.984   1.261   1.976  0.2954  1.5384  0.0765
15247TIP3    H267157   1.084   1.176   1.900 -0.8344  0.2380 -0.0094
15248TIP3   OH267158   4.776   5.719   2.742  0.9401  0.4330 -0.2223
15248TIP3    H167159   4.813   5.758   2.822 -0.8371  2.1031 -0.1358
15248TIP3    H267160   4.757   5.628   2.766  1.3948  0.6221  0.9354
15249TIP3   OH267161   0.644   5.121  16.755  0.2150 -0.1607 -0.3667
15249TIP3    H167162   0.607   5.169  16.829 -0.5619 -2.4462  0.8014
15249TIP3    H267163   0.725   5.082  16.789  0.4759 -0.2658 -1.0855
15250TIP3   OH267164   5.529   6.718   3.683  0.5443  0.3738 -0.5107
15250TIP3    H167165   5.543   6.736   3.590  1.3257  1.5592 -0.1848
15250TIP3    H267166   5.612   6.679   3.712 -0.0700 -0.9827 -0.5310
15251TIP3   OH267167   6.208   2.598   1.151  0.3233 -0.0352 -0.2515
15251TIP3    H167168   6.148   2.572   1.080 -0.5426  3.9018 -1.2134
15251TIP3    H267169   6.160   2.665   1.199  1.8860 -0.7969  2.6111
15252TIP3   OH267170   2.072   3.007   5.311 -0.2980  0.2805 -0.7468
15252TIP3    H167171   2.010   2.947   5.270  0.4438 -0.9099 -0.1822
15252TIP3    H267172   2.158   2.968   5.296  0.0984  0.4554  0.8324
15253TIP3   OH267173   4.337   3.385  13.643 -0.5335  0.1244  0.0497
15253TIP3    H167174   4.290   3.305  13.618 -0.3552  0.4384 -1.3724
15253TIP3    H267175   4.411   3.389  13.583 -0.0964  0.9583  0.6295
15254TIP3   OH267176   2.598   2.722   4.532  0.1831 -0.6777  0.0340
15254TIP3    H167177   2.562   2.638   4.502 -0.8525 -1.1817  2.4610
15254TIP3    H267178   2.533   2.787   4.506 -0.5840 -1.0682  0.9559
15255TIP3   OH267179   1.334   6.401  16.255  0.2331  0.2421  0.2479
15255TIP3    H167180   1.327   6.428  16.346 -1.6706  1.5324 -0.2327
15255TIP3    H267181   1.354   6.307  16.259 -0.7429  0.0714  1.9877
15256TIP3   OH267182   6.600   4.907  17.461  0.0527 -0.6644  0.4093
15256TIP3    H167183   6.593   4.860  17.378  1.1732 -0.6820  0.3147
15256TIP3    H267184   6.600   4.838  17.527  0.1649 -0.7063  0.3657
15257TIP3   OH267185   0.385   3.419   5.400  0.0439  0.2466 -0.0542
15257TIP3    H167186   0.312   3.403   5.459 -1.5899 -0.1220 -2.0857
15257TIP3    H267187   0.402   3.334   5.359  2.0900  0.1612  0.8289
15258TIP3   OH267188   1.424   6.514  14.668  0.1167  0.2649 -0.2261
15258TIP3    H167189   1.405   6.522  14.575  0.7386  0.5715 -0.3313
15258TIP3    H267190   1.451   6.602  14.695 -0.0070  0.1667  0.2330
15259TIP3   OH267191   0.856   1.407  13.908  0.1313 -0.5448  0.2018
15259TIP3    H167192   0.902   1.490  13.914 -2.0556  0.9745 -2.3056
15259TIP3    H267193   0.899   1.360  13.837  0.0297 -0.6767  0.2263
15260TIP3   OH267194   4.842   5.790   1.498  0.2340 -0.2710  0.3828
15260TIP3    H167195   4.786   5.781   1.575  1.0279 -2.9074  0.7512
15260TIP3    H267196   4.888   5.873   1.511 -1.8821  0.8558  1.1721
15261TIP3   OH267197   0.334   2.459  14.891  0.1552 -0.2820 -0.5012
15261TIP3    H167198   0.384   2.540  14.904  0.7592 -0.7050 -0.1926
15261TIP3    H267199   0.325   2.422  14.978 -1.9420  0.4924 -0.3124
15262TIP3   OH267200   1.579   0.657   4.169 -0.0533  0.2125  0.0074
15262TIP3    H167201   1.610   0.628   4.083 -0.0446  2.0784 -0.6646
15262TIP3    H267202   1.541   0.743   4.153 -2.8120 -0.6253  1.3629
15263TIP3   OH267203   3.421   4.854  14.265  0.0618 -0.7134 -0.0360
15263TIP3    H167204   3.497   4.844  14.208 -0.4626 -0.6783 -0.7548
15263TIP3    H267205   3.426   4.945  14.296  1.6671 -1.4041  1.9267
15264TIP3   OH267206   4.350   3.874   3.704 -0.2646  0.3752 -0.1047
15264TIP3    H167207   4.345   3.859   3.610 -1.4730  1.6482 -0.2751
15264TIP3    H267208   4.412   3.947   3.713  0.4634 -0.2620  0.1706
15265TIP3   OH267209   5.358   1.384  15.375  0.4434  0.4094  0.3119
15265TIP3    H167210   5.404   1.351  15.298 -1.0315  0.6734 -0.7388
15265TIP3    H267211   5.374   1.319  15.443  2.4040  0.5450  0.0464
15266TIP3   OH267212   5.201   0.406   0.687 -0.4447 -0.0313  0.1988
15266TIP3    H167213   5.164   0.495   0.689  0.5344  0.3803  1.9447
15266TIP3    H267214   5.292   0.417   0.714  0.0197 -1.4497 -0.6702
15267TIP3   OH267215   6.212   0.548  16.083  0.0902 -0.4157 -0.7194
15267TIP3    H167216   6.288   0.500  16.116  1.8325  2.1281 -0.6983
15267TIP3    H267217   6.208   0.524  15.990 -0.1173 -1.7803 -0.3865
15268TIP3   OH267218   0.931   4.574  15.610  0.3507  0.5894 -0.0190
15268TIP3    H167219   0.993   4.629  15.562 -1.7079  2.6125 -0.5198
15268TIP3    H267220   0.915   4.622  15.691 -1.4468  0.7595 -0.4448
15269TIP3   OH267221   0.747   4.929  13.224  0.0288 -0.1769  0.5427
15269TIP3    H167222   0.699   4.895  13.300  1.3773  1.6826  2.3349
15269TIP3    H267223   0.839   4.925  13.250  0.5062  0.7371 -0.8920
15270TIP3   OH267224   0.998   0.651   1.718 -0.8474 -0.1904 -0.4543
15270TIP3    H167225   0.987   0.566   1.760  1.3544  0.3057  1.3453
15270TIP3    H267226   1.055   0.699   1.777 -0.4813  1.8648 -2.3569
15271TIP3   OH267227   3.975   5.374  11.440  0.0311  1.1302  0.8216
15271TIP3    H167228   4.004   5.405  11.526 -0.6080 -1.2450  1.9722
15271TIP3    H267229   3.935   5.289  11.457 -0.1141  0.5681 -1.8517
15272TIP3   OH267230   0.187   0.331   3.265 -0.5670  0.1885 -0.5112
15272TIP3    H167231   0.175   0.426   3.270 -0.1224  0.2934 -1.2159
15272TIP3    H267232   0.098   0.296   3.257 -0.7160  0.5632 -0.5385
15273TIP3   OH267233   5.885   1.894  15.591  0.0535 -0.9414 -0.1628
15273TIP3    H167234   5.798   1.897  15.629  0.2669 -2.2450  0.4877
15273TIP3    H267235   5.914   1.803  15.603  0.7856 -1.0020 -1.9701
15274TIP3   OH267236   2.714   6.675   1.410  0.6921 -0.6799  0.3677
15274TIP3    H167237   2.661   6.755   1.419  1.0516 -0.0993 -2.0311
15274TIP3    H267238   2.707   6.632   1.495 -3.2019 -0.3959  0.3571
15275TIP3   OH267239   1.457   5.346   2.940  0.3431  0.2449  1.0986
15275TIP3    H167240   1.452   5.321   2.848  1.1682  0.9051  0.8657
15275TIP3    H267241   1.444   5.441   2.940 -1.0144  0.0883  1.7974
15276TIP3   OH267242   2.492   2.251  15.671  0.2154  0.4287  0.0430
15276TIP3    H167243   2.541   2.331  15.688  0.0515  0.8708 -1.4227
15276TIP3    H267244   2.549   2.201  15.612 -0.6619  0.5245 -0.9117
15277TIP3   OH267245   0.538   5.483   2.430  0.4465 -0.7531  0.1499
15277TIP3    H167246   0.596   5.455   2.500  0.8176 -1.1041 -0.2874
15277TIP3    H267247   0.519   5.403   2.381 -1.1494 -0.8137  0.8122
15278TIP3   OH267248   5.243   3.684   3.615  0.6170  0.3160 -0.7080
15278TIP3    H167249   5.236   3.707   3.708 -0.8115 -0.4838 -0.5923
15278TIP3    H267250   5.214   3.763   3.569  0.6463  0.4798 -0.4501
15279TIP3   OH267251   3.595   2.414  15.127  0.3651  0.2352 -0.1411
15279TIP3    H167252   3.545   2.418  15.046  0.0657 -0.5764 -0.0103
15279TIP3    H267253   3.529   2.427  15.196  0.7544  1.8662 -0.0400
15280TIP3   OH267254   5.558   1.514  10.997 -0.7678  0.0997  0.2893
15280TIP3    H167255   5.568   1.419  11.008  0.3415  0.3294  1.4440
15280TIP3    H267256   5.642   1.543  10.963 -0.7457  0.8158  0.9403
15281TIP3   OH267257   4.643   1.961   2.126  0.0586  0.3730 -0.5375
15281TIP3    H167258   4.552   1.963   2.156  1.1172  0.3583  3.1570
15281TIP3    H267259   4.684   1.894   2.179  2.9913  2.8835  0.6639
15282TIP3   OH267260   6.572   0.607   2.788 -0.0043 -0.3293 -0.0247
15282TIP3    H167261   6.544   0.566   2.870  1.3167  3.1234  2.3832
15282TIP3    H267262   6.648   0.555   2.760 -1.8303 -2.9630 -0.5104
15283TIP3   OH267263   4.696   3.107  17.151 -0.7974  0.5091 -0.2578
15283TIP3    H167264   4.735   3.194  17.139 -0.2247  0.4512  1.0170
15283TIP3    H267265   4.607   3.124  17.182 -1.4773  0.6290 -2.1175
15284TIP3   OH267266   6.225   5.216   2.224 -0.9820  0.1592  0.3339
15284TIP3    H167267   6.212   5.309   2.243  1.0996  0.1482  2.2318
15284TIP3    H267268   6.188   5.172   2.301  2.5747 -0.2159  2.0225
15285TIP3   OH267269   0.123   5.541   3.815 -0.0430 -0.0068 -0.3953
15285TIP3    H167270   0.139   5.455   3.854  1.5480 -0.1174 -1.2036
15285TIP3    H267271   0.211   5.577   3.798 -0.5460  2.8363  2.1097
15286TIP3   OH267272   1.864   4.293  13.406  0.8425  0.2236 -0.0343
15286TIP3    H167273   1.893   4.360  13.344 -0.5509 -0.0132 -0.9823
15286TIP3    H267274   1.873   4.211  13.359  0.4528 -0.0369  0.3435
15287TIP3   OH267275   5.617   3.152  15.815 -0.0174  0.1414  0.0164
15287TIP3    H167276   5.680   3.118  15.752 -0.8378 -0.8267 -0.3163
15287TIP3    H267277   5.588   3.235  15.777  1.8796  1.1930  0.7457
15288TIP3   OH267278   4.933   3.890  13.807 -0.2352  0.8417 -0.2531
15288TIP3    H167279   4.908   3.838  13.730  1.4658 -0.6783  0.1545
15288TIP3    H267280   4.853   3.898  13.858 -0.3365 -2.6551  0.3444
15289TIP3   OH267281   0.813   5.888  14.191  0.0696  0.0187  0.4196
15289TIP3    H167282   0.824   5.959  14.255 -0.0714 -0.5058  1.0386
15289TIP3    H267283   0.723   5.899  14.159 -0.0645 -0.0723  0.7567
15290TIP3   OH267284   5.552   5.042  12.307  0.4064  0.0855  0.7670
15290TIP3    H167285   5.587   5.074  12.224  1.8100 -0.6167  1.0696
15290TIP3    H267286   5.509   5.119  12.345 -0.7078  0.3028 -0.7990
15291TIP3   OH267287   1.223   5.888  15.313  0.1190 -0.2722  0.3318
15291TIP3    H167288   1.294   5.849  15.263  0.8846  0.0957  1.1084
15291TIP3    H267289   1.236   5.982  15.305 -0.7354 -0.1841 -0.1416
15292TIP3   OH267290   2.323   1.720   0.830 -0.2369 -0.1645 -0.1838
15292TIP3    H167291   2.237   1.740   0.865 -0.1778  1.0704 -0.6978
15292TIP3    H267292   2.350   1.640   0.876 -1.2312 -0.0141  0.6879
15293TIP3   OH267293   6.696   5.624   0.901 -0.2311 -0.0877 -0.0137
15293TIP3    H167294   6.718   5.681   0.827  2.1803  2.3096  2.2901
15293TIP3    H267295   6.622   5.668   0.944 -0.7844 -0.7638 -0.2570
15294TIP3   OH267296   5.494   0.784   1.486  0.3731  0.2372 -0.1587
15294TIP3    H167297   5.447   0.717   1.436  2.2420 -1.5773  0.3862
15294TIP3    H267298   5.541   0.835   1.419  3.1253 -2.3812 -0.4325
15295TIP3   OH267299   4.157   3.194  15.979  0.0735 -0.2181 -0.1476
15295TIP3    H167300   4.228   3.184  15.915  0.5453  0.1472  0.3122
15295TIP3    H267301   4.138   3.288  15.978  0.1685 -0.1950  0.3388
15296TIP3   OH267302   6.746   5.935   6.777  0.0725  0.1065  0.1362
15296TIP3    H167303   6.841   5.932   6.773  0.0907 -0.2054  0.7455
15296TIP3    H267304   6.725   5.937   6.870 -0.5362 -0.7530  0.0334
15297TIP3   OH267305   2.632   5.420  11.312  0.5510  0.3626 -0.3581
15297TIP3    H167306   2.580   5.366  11.253 -0.6015 -0.4298  1.2874
15297TIP3    H267307   2.584   5.503  11.318  1.9381  1.3656 -2.3234
15298TIP3   OH267308   1.288   2.700   4.377  0.0254 -0.2647  0.6602
15298TIP3    H167309   1.377   2.668   4.363  0.6926  1.4253  0.9124
15298TIP3    H267310   1.291   2.744   4.461 -0.8655  0.4301  0.3441
15299TIP3   OH267311   6.087   3.194   3.335 -0.3972  0.0770  0.0151
15299TIP3    H167312   6.000   3.170   3.368 -0.0427 -1.6887 -0.2387
15299TIP3    H267313   6.148   3.147   3.391  0.2998 -0.7931 -1.4201
15300TIP3   OH267314   2.284   0.726   2.676  0.0334 -0.0268 -0.1880
15300TIP3    H167315   2.313   0.679   2.755  1.0885 -0.5568 -0.8643
15300TIP3    H267316   2.194   0.752   2.695 -0.3535 -1.7199  0.4985
15301TIP3   OH267317   0.300   3.068  16.133 -0.3683 -0.9383 -0.1461
15301TIP3    H167318   0.271   2.978  16.123  0.2047 -1.0218 -1.2232
15301TIP3    H267319   0.394   3.062  16.144 -0.2819 -0.4540 -0.5960
15302TIP3   OH267320   4.705   2.563  15.912 -0.2146  0.3616  0.1136
15302TIP3    H167321   4.755   2.594  15.836  2.0778 -1.3675  0.7919
15302TIP3    H267322   4.656   2.640  15.942  3.8352  3.0058  0.7633
15303TIP3   OH267323   4.547   4.957  11.626  0.3901  0.3487  0.1910
15303TIP3    H167324   4.608   5.016  11.582 -0.1475  0.6908 -0.1080
15303TIP3    H267325   4.544   4.879  11.570 -1.3347  1.3143 -1.1834
15304TIP3   OH267326   0.670   1.555   5.761  0.2229  0.3866  0.0456
15304TIP3    H167327   0.580   1.523   5.761  0.3254 -0.1153  2.4041
15304TIP3    H267328   0.663   1.644   5.797  0.7472 -0.0756  1.3400
15305TIP3   OH267329   5.002   3.095  12.258 -0.6325 -0.1587 -0.7274
15305TIP3    H167330   5.026   3.055  12.342 -3.2045 -0.5211 -0.0697
15305TIP3    H267331   5.074   3.155  12.239  1.3208 -2.0222  0.3509
15306TIP3   OH267332   2.236   3.412   3.919 -0.7330  0.0261 -0.1226
15306TIP3    H167333   2.205   3.324   3.940  0.5502  0.0522  2.2596
15306TIP3    H267334   2.250   3.410   3.825  1.5444 -3.1932  0.0960
15307TIP3   OH267335   5.177   5.285   4.047 -0.3478 -0.1306 -0.3353
15307TIP3    H167336   5.138   5.286   3.959  2.1013 -0.2539 -1.4969
15307TIP3    H267337   5.217   5.198   4.054  1.0830  0.5279  0.1174
15308TIP3   OH267338   6.589   4.611  11.656  0.4449 -0.9857  0.2313
15308TIP3    H167339   6.627   4.699  11.646  1.7132 -1.3554  1.4470
15308TIP3    H267340   6.596   4.572  11.569  3.7329 -1.3291  0.5328
15309TIP3   OH267341   3.691   0.330  15.358 -0.2390 -0.1264 -0.2740
15309TIP3    H167342   3.660   0.321  15.268 -1.4357 -1.1376  0.2215
15309TIP3    H267343   3.624   0.382  15.402  0.2181  0.1591  0.1050
15310TIP3   OH267344   6.465   5.864   2.863 -0.5409  0.3783 -0.0540
15310TIP3    H167345   6.540   5.855   2.804 -1.3843 -2.2747 -0.8813
15310TIP3    H267346   6.459   5.957   2.881  2.2911  0.7834 -0.8190
15311TIP3   OH267347   5.594   1.369  17.311 -0.2381  0.4382  0.2968
15311TIP3    H167348   5.504   1.350  17.284 -0.0298 -1.2704  0.6639
15311TIP3    H267349   5.614   1.302  17.377  1.2862  0.8253  0.2735
15312TIP3   OH267350   3.140   0.744  11.672  0.5895 -0.4661  0.3210
15312TIP3    H167351   3.182   0.671  11.627 -1.0035 -2.1939  1.4712
15312TIP3    H267352   3.046   0.726  11.666  0.0741  1.8937  0.0426
15313TIP3   OH267353   4.903   5.492  14.653 -0.4957 -0.2258 -0.0948
15313TIP3    H167354   4.858   5.500  14.736 -1.4305  0.7163 -0.6659
15313TIP3    H267355   4.952   5.410  14.659 -1.2709 -0.6209  1.0289
15314TIP3   OH267356   1.400   6.161   3.597 -0.1461  0.6392 -0.3658
15314TIP3    H167357   1.389   6.073   3.560  0.4699 -0.5126  2.0363
15314TIP3    H267358   1.380   6.151   3.690  3.9737  2.0564  0.8887
15315TIP3   OH267359   4.594   4.970   0.748 -0.5379  0.7315 -0.4292
15315TIP3    H167360   4.626   4.994   0.835  0.6184 -1.0154 -0.3200
15315TIP3    H267361   4.667   4.988   0.689 -1.3301  1.9558 -1.1003
15316TIP3   OH267362   3.044   6.551   4.203 -0.1834  0.8979 -0.2920
15316TIP3    H167363   2.982   6.482   4.180 -0.1598  0.9345 -0.4644
15316TIP3    H267364   3.103   6.558   4.128  0.0524  0.8388 -0.1153
15317TIP3   OH267365   3.807   5.270   5.933 -0.1733  0.2282 -0.4873
15317TIP3    H167366   3.888   5.252   5.980 -0.2771  1.7551  0.3385
15317TIP3    H267367   3.760   5.186   5.933  2.0781 -1.1594 -2.4427
15318TIP3   OH267368   0.017   4.780  13.611 -0.0924  0.0502  0.1862
15318TIP3    H167369   0.070   4.727  13.671  1.5317  1.0793 -0.2489
15318TIP3    H267370   0.008   4.725  13.533  1.6041  0.3399 -0.2753
15319TIP3   OH267371   5.112   0.116   4.925  0.1909 -0.1726  0.1455
15319TIP3    H167372   5.100   0.055   4.997 -0.8025  0.1842  0.3014
15319TIP3    H267373   5.169   0.185   4.960 -0.4497  0.1025  0.6589
15320TIP3   OH267374   2.245   4.693  12.401  0.0821 -0.0315  0.7172
15320TIP3    H167375   2.155   4.684  12.434 -0.8122 -2.0875 -1.9793
15320TIP3    H267376   2.296   4.631  12.452 -0.5765 -0.7402  0.5242
15321TIP3   OH267377   1.474   5.027  11.441 -0.5001 -0.2386  0.7038
15321TIP3    H167378   1.433   5.009  11.526 -2.4029  0.2596 -0.0566
15321TIP3    H267379   1.563   4.994  11.450 -0.7976 -0.6265  2.7348
15322TIP3   OH267380   6.372   0.696  17.423 -0.5164  0.9442 -0.0605
15322TIP3    H167381   6.371   0.625  17.487 -0.0021 -2.1923 -3.2391
15322TIP3    H267382   6.457   0.738  17.434 -1.3045  2.0354  2.6944
15323TIP3   OH267383   5.116   6.614  16.209 -0.3267 -0.6418  0.2272
15323TIP3    H167384   5.201   6.610  16.253 -0.1749  0.7651  0.0956
15323TIP3    H267385   5.101   6.524  16.178 -0.2786 -1.6227  2.7930
15324TIP3   OH267386   3.442   4.810   1.725 -0.5135 -0.5255  0.0248
15324TIP3    H167387   3.486   4.893   1.742 -3.1136  1.5762 -2.4043
15324TIP3    H267388   3.469   4.786   1.636 -0.6307 -1.7201  0.2955
15325TIP3   OH267389   1.278   6.328  11.814 -0.3108 -0.1259  0.0599
15325TIP3    H167390   1.227   6.388  11.760 -0.3387 -0.4284 -0.2463
15325TIP3    H267391   1.369   6.350  11.795 -0.2315 -2.0945 -2.2632
15326TIP3   OH267392   3.238   2.694  14.344  0.2508 -0.5217  0.0349
15326TIP3    H167393   3.179   2.755  14.389  2.1169  1.0992  0.3786
15326TIP3    H267394   3.269   2.742  14.268 -0.5736 -2.1987 -1.4510
15327TIP3   OH267395   4.884   1.860   3.948  0.1282 -0.7680 -0.2443
15327TIP3    H167396   4.958   1.881   4.005 -0.4689  0.5011  0.1054
15327TIP3    H267397   4.860   1.771   3.971  0.2189 -0.4470  1.1704
15328TIP3   OH267398   2.278   2.865   1.876  0.3985  0.6343  0.0275
15328TIP3    H167399   2.224   2.789   1.855 -0.0844  0.5162  1.6138
15328TIP3    H267400   2.304   2.900   1.791 -1.9749  0.5552 -0.7814
15329TIP3   OH267401   3.028   5.440   2.265  0.0533  0.3411  0.5738
15329TIP3    H167402   3.069   5.383   2.330 -0.3818 -0.3421  0.2605
15329TIP3    H267403   2.938   5.450   2.295 -0.1039  0.1621  0.1655
15330TIP3   OH267404   6.649   2.297  16.909  0.0915 -0.0628  0.4975
15330TIP3    H167405   6.667   2.230  16.974  1.5979  1.2806  1.5598
15330TIP3    H267406   6.697   2.374  16.940  3.4768 -0.1169 -3.6590
15331TIP3   OH267407   5.664   3.899   2.897 -0.2658  0.0843 -0.4425
15331TIP3    H167408   5.711   3.828   2.854 -0.3676  0.2292 -0.7935
15331TIP3    H267409   5.706   3.979   2.867  0.8420  0.1369  1.1345
15332TIP3   OH267410   4.110   2.810  16.768 -0.1513  0.4815  0.6034
15332TIP3    H167411   4.060   2.786  16.689  2.9430 -0.4979 -1.2280
15332TIP3    H267412   4.138   2.900  16.752  0.6118  0.2288  0.4896
15333TIP3   OH267413   3.792   1.182   3.455  0.0837 -0.2222 -0.4553
15333TIP3    H167414   3.830   1.218   3.535  0.4217 -0.2984 -0.5806
15333TIP3    H267415   3.789   1.088   3.470 -4.0011 -0.0204  1.3068
15334TIP3   OH267416   6.169   2.103   4.766 -0.0738 -0.3488  0.2725
15334TIP3    H167417   6.136   2.160   4.836  0.7566  1.5485 -0.7900
15334TIP3    H267418   6.098   2.102   4.701  0.5918  0.9731 -0.5042
15335TIP3   OH267419   2.323   1.581   4.781 -0.0227  0.5782 -0.2170
15335TIP3    H167420   2.259   1.541   4.840 -0.0200  2.2573  1.0308
15335TIP3    H267421   2.406   1.572   4.827  0.4931 -0.6890 -1.3585
15336TIP3   OH267422   5.173   5.494  12.762 -0.0255  0.4552  0.1726
15336TIP3    H167423   5.261   5.509  12.728 -0.3013 -2.2642 -2.1411
15336TIP3    H267424   5.117   5.501  12.685 -1.4883 -0.2779  1.1335
15337TIP3   OH267425   2.738   5.796  11.580 -0.8634  0.3125 -0.2859
15337TIP3    H167426   2.771   5.730  11.519 -1.0658  0.1788 -0.2515
15337TIP3    H267427   2.680   5.851  11.526 -0.0080  1.0046 -0.5222
15338TIP3   OH267428   3.013   3.670  13.489  0.0900  0.4720 -0.0769
15338TIP3    H167429   3.101   3.638  13.511  0.0483  0.5668  0.2298
15338TIP3    H267430   2.954   3.613  13.537 -0.1283 -1.0985 -2.0704
15339TIP3   OH267431   2.114   1.027  17.378 -0.5451 -0.0498  0.1546
15339TIP3    H167432   2.206   1.039  17.353 -0.6764  0.8264  0.0909
15339TIP3    H267433   2.092   0.940  17.345  0.9364 -1.3150  2.1779
15340TIP3   OH267434   2.927   1.779   0.446 -0.0800  0.0905 -0.2127
15340TIP3    H167435   2.981   1.855   0.467  1.3579 -0.9139 -0.1469
15340TIP3    H267436   2.955   1.712   0.509 -0.0094 -1.0632 -1.4359
15341TIP3   OH267437   1.892   1.967  12.365 -0.1221 -0.2375 -0.0588
15341TIP3    H167438   1.900   1.993  12.274 -0.1291  0.9100  0.2518
15341TIP3    H267439   1.806   2.000  12.392  0.3816  0.5275  0.6807
15342TIP3   OH267440   4.981   0.573  12.181 -0.1580 -0.1881  0.0561
15342TIP3    H167441   5.053   0.513  12.198 -0.4944 -0.2967  1.1362
15342TIP3    H267442   4.905   0.532  12.221 -0.9427 -0.3117 -1.4787
15343TIP3   OH267443   1.875   6.430   3.953 -0.6374 -0.5365 -0.1061
15343TIP3    H167444   1.824   6.387   3.884 -2.1674  0.9685  0.0241
15343TIP3    H267445   1.819   6.501   3.984  1.4478  1.1080  0.2054
15344TIP3   OH267446   0.337   3.766  11.632 -0.0088  0.4541  0.6623
15344TIP3    H167447   0.369   3.832  11.694 -1.5605  2.3339 -0.4015
15344TIP3    H267448   0.385   3.785  11.551  1.2236 -1.2868  0.9341
15345TIP3   OH267449   6.441   0.294  12.016 -0.2393  0.3481  0.1949
15345TIP3    H167450   6.440   0.387  11.993  0.7769 -0.2041 -2.4121
15345TIP3    H267451   6.533   0.272  12.025 -0.4425 -0.5363  0.2124
15346TIP3   OH267452   5.511   2.351   4.042  0.7050  0.0770  0.1048
15346TIP3    H167453   5.509   2.419   4.109  2.4374 -0.4182  0.7265
15346TIP3    H267454   5.531   2.271   4.090  1.9417 -0.2997 -0.9749
15347TIP3   OH267455   5.171   6.094   0.935  0.3569 -0.2971 -0.6146
15347TIP3    H167456   5.248   6.098   0.877  1.6460  2.5217  1.0670
15347TIP3    H267457   5.160   6.001   0.953  2.3758 -0.9294 -2.2101
15348TIP3   OH267458   6.013   4.822   3.849 -0.4192  0.2410  0.6144
15348TIP3    H167459   5.937   4.778   3.810 -1.1645  0.8174  1.3878
15348TIP3    H267460   6.003   4.914   3.826 -0.6177  0.5185  1.7307
15349TIP3   OH267461   4.808   0.548   2.898  0.2293  0.4429  0.0728
15349TIP3    H167462   4.764   0.464   2.911  1.0082 -0.0017 -0.0979
15349TIP3    H267463   4.840   0.571   2.985  0.6070  0.2221 -0.0058
15350TIP3   OH267464   2.369   0.681  10.927  0.4100 -0.0908  0.5763
15350TIP3    H167465   2.279   0.703  10.901  0.6517 -0.5135 -0.6933
15350TIP3    H267466   2.405   0.636  10.851  2.3163  1.7309  0.2993
15351TIP3   OH267467   6.486   0.824  15.253  0.1285  1.1141  0.0251
15351TIP3    H167468   6.568   0.868  15.276  1.0247 -1.6897  2.9351
15351TIP3    H267469   6.508   0.771  15.177  0.9624  0.6376  0.5798
15352TIP3   OH267470   0.801   5.190  15.424 -0.2118  0.9053 -0.0144
15352TIP3    H167471   0.868   5.203  15.491  1.4945  0.4001 -1.5354
15352TIP3    H267472   0.748   5.117  15.457 -0.0244  1.3086  1.2253
15353TIP3   OH267473   4.846   4.542  13.469  0.6034 -0.4169  0.6584
15353TIP3    H167474   4.780   4.543  13.400 -0.1012  1.4715  1.3076
15353TIP3    H267475   4.896   4.462  13.453 -0.4076 -0.7278 -1.2025
15354TIP3   OH267476   2.186   5.073  13.156  0.3316  0.5756 -0.4510
15354TIP3    H167477   2.271   5.030  13.141  0.1546  0.4715 -1.2184
15354TIP3    H267478   2.175   5.072  13.251  1.4118  1.0190 -0.3015
15355TIP3   OH267479   2.156   2.892  15.465  0.3123  0.1823 -0.5136
15355TIP3    H167480   2.211   2.937  15.530 -0.0175 -0.1109 -0.0245
15355TIP3    H267481   2.217   2.841  15.413  0.4467 -0.6779  0.4616
15356TIP3   OH267482   5.938   0.359  11.517 -0.2307  0.2009 -0.3534
15356TIP3    H167483   5.859   0.359  11.464 -2.1410  1.2538  2.2443
15356TIP3    H267484   5.956   0.267  11.534 -1.4789 -0.0414 -0.2599
15357TIP3   OH267485   2.313   4.837   4.612 -0.4416 -0.3886  0.6798
15357TIP3    H167486   2.261   4.758   4.624 -1.6132  0.5219  1.9735
15357TIP3    H267487   2.279   4.877   4.532 -1.8311  0.2324  1.5508
15358TIP3   OH267488   1.852   4.847  15.585 -0.1003  0.9950 -0.0583
15358TIP3    H167489   1.876   4.928  15.540  0.7268  1.2970  0.8938
15358TIP3    H267490   1.933   4.796  15.586 -0.6853  0.0278 -0.8933
15359TIP3   OH267491   6.524   5.719   4.286  0.0589  0.1219 -0.3679
15359TIP3    H167492   6.465   5.788   4.258 -1.6797 -2.2111 -3.0226
15359TIP3    H267493   6.553   5.678   4.204  1.4365 -1.9564  1.0650
15360TIP3   OH267494   4.277   0.053  14.890 -0.2760  0.5509 -0.3176
15360TIP3    H167495   4.302  -0.003  14.816 -0.6205 -0.0267  0.0015
15360TIP3    H267496   4.334   0.026  14.962  1.5133  2.5001 -0.8908
15361TIP3   OH267497   0.077   2.690   1.152 -0.1942 -0.4347  0.0229
15361TIP3    H167498   0.158   2.648   1.182 -0.9180 -1.6670  0.2885
15361TIP3    H267499   0.013   2.672   1.222 -0.7218  0.4919 -0.2004
15362TIP3   OH267500   3.189   3.814   4.471  0.3877 -0.2588  0.3360
15362TIP3    H167501   3.173   3.731   4.426  2.3985 -1.1218  1.0735
15362TIP3    H267502   3.244   3.791   4.545  1.4268  1.8025  0.2877
15363TIP3   OH267503   1.407   5.478  14.992  0.2206  0.2508 -0.0383
15363TIP3    H167504   1.414   5.539  14.919 -1.7556  0.6173  0.0294
15363TIP3    H267505   1.373   5.532  15.064  0.2199 -0.5429  0.5626
15364TIP3   OH267506   3.652   6.608   5.340  0.0805 -0.2493  0.2992
15364TIP3    H167507   3.642   6.593   5.246 -1.8032 -0.1280  0.4373
15364TIP3    H267508   3.573   6.570   5.379  0.1891  0.8636  1.6872
15365TIP3   OH267509   5.758   6.559   6.015 -0.3019 -0.0610  0.1030
15365TIP3    H167510   5.695   6.601   5.956 -1.1226 -0.5133  0.6405
15365TIP3    H267511   5.835   6.545   5.961 -0.3217  1.3163 -0.3433
15366TIP3   OH267512   0.251   2.192  16.293  0.1966 -0.6074 -0.4100
15366TIP3    H167513   0.283   2.109  16.330  2.0425  0.4139  0.4195
15366TIP3    H267514   0.280   2.190  16.202  3.9732  0.7838  0.5767
15367TIP3   OH267515   0.950   5.215   0.932  0.5531  0.1508  0.2912
15367TIP3    H167516   0.941   5.270   0.854  0.9319 -0.1191  0.0542
15367TIP3    H267517   1.008   5.144   0.904 -1.0968 -1.2000  0.1540
15368TIP3   OH267518   4.834   3.396   1.119  0.0739  0.0716 -0.2762
15368TIP3    H167519   4.755   3.427   1.162 -1.4966 -2.5511 -1.0530
15368TIP3    H267520   4.898   3.387   1.190 -0.4715  1.6650  0.4577
15369TIP3   OH267521   4.809   2.516   2.373  0.4809  0.4514  0.3274
15369TIP3    H167522   4.752   2.509   2.450  1.2116 -0.0030  0.8414
15369TIP3    H267523   4.780   2.596   2.329  0.9588  1.5353  1.8642
15370TIP3   OH267524   0.505   1.480  14.573 -0.5548 -0.2126  0.9003
15370TIP3    H167525   0.429   1.510  14.523 -0.0334 -0.5141 -0.1107
15370TIP3    H267526   0.539   1.406  14.522  0.2408 -0.2715  1.4958
15371TIP3   OH267527   2.307   4.989  15.748  0.6382 -0.0572 -0.3845
15371TIP3    H167528   2.384   5.040  15.772  0.8121 -1.1594  1.5304
15371TIP3    H267529   2.340   4.922  15.688  1.7568 -2.1006  2.3292
15372TIP3   OH267530   4.627   1.799  15.307 -0.1322  0.1911  0.0865
15372TIP3    H167531   4.641   1.816  15.214  1.4153 -1.1954  0.0168
15372TIP3    H267532   4.607   1.705  15.311 -2.1501  0.6077  0.9886
15373TIP3   OH267533   2.073   6.165   2.128  0.7490  0.6044 -0.4518
15373TIP3    H167534   2.160   6.196   2.155  1.1500 -1.3073  0.5702
15373TIP3    H267535   2.042   6.112   2.201 -1.1156  0.8727 -0.9935
15374TIP3   OH267536   1.775   6.086  13.260 -0.3945  0.0986  0.5331
15374TIP3    H167537   1.844   6.150  13.278  1.7503 -2.3570  1.6440
15374TIP3    H267538   1.736   6.116  13.177  1.3729  2.0932  0.3327
15375TIP3   OH267539   3.443   3.857  12.150  0.4293  0.4710  0.2774
15375TIP3    H167540   3.488   3.797  12.209  1.3742  0.9947  0.1207
15375TIP3    H267541   3.469   3.944  12.180  1.0000  0.7451 -0.9400
15376TIP3   OH267542   5.208   5.326  15.097 -0.1775  0.2644  0.6774
15376TIP3    H167543   5.254   5.409  15.107 -0.8271  0.6279  0.7281
15376TIP3    H267544   5.209   5.287  15.185 -0.2105  0.4083  0.7431
15377TIP3   OH267545   2.690   2.185   4.000 -0.0333 -0.5706  0.1118
15377TIP3    H167546   2.682   2.248   3.928 -0.2895 -1.6067 -0.7748
15377TIP3    H267547   2.640   2.109   3.972  0.2137 -1.1616  1.2088
15378TIP3   OH267548   4.151   6.395  10.593  0.1780 -0.3770 -0.0815
15378TIP3    H167549   4.223   6.457  10.603  0.6595 -1.1242  1.5053
15378TIP3    H267550   4.083   6.444  10.546  0.3285  1.5561  1.5759
15379TIP3   OH267551   6.674   6.409   0.533 -0.0901  0.0624 -0.6504
15379TIP3    H167552   6.673   6.446   0.445  1.2592  2.4870  0.2670
15379TIP3    H267553   6.636   6.478   0.588  1.8101 -0.1681  1.0468
15380TIP3   OH267554   0.717   0.282   5.034 -0.1742  0.7678  0.3595
15380TIP3    H167555   0.695   0.234   5.113  0.3981 -1.8993 -0.9900
15380TIP3    H267556   0.693   0.373   5.053 -1.1092  0.0189  3.1314
15381TIP3   OH267557   5.230   5.664  15.763  0.7507 -0.0606  0.0987
15381TIP3    H167558   5.136   5.647  15.749  0.5998  0.5900  0.3203
15381TIP3    H267559   5.246   5.749  15.722  1.3910 -0.4595 -0.5021
15382TIP3   OH267560   1.281   3.240   6.210 -0.3850  0.1102 -0.4333
15382TIP3    H167561   1.356   3.280   6.255 -1.1541  0.9399  0.1604
15382TIP3    H267562   1.289   3.271   6.120  0.0577  0.0904 -0.4056
15383TIP3   OH267563   0.072   2.456   4.838  0.2976  0.0791  0.3162
15383TIP3    H167564   0.164   2.449   4.863  0.4927  0.6984 -0.1968
15383TIP3    H267565   0.031   2.378   4.875  1.2054 -0.6536 -0.1778
15384TIP3   OH267566   6.219   1.068  13.059 -0.1864 -0.2299 -0.2300
15384TIP3    H167567   6.257   1.153  13.081  1.2494 -0.1045 -2.8118
15384TIP3    H267568   6.289   1.005  13.073 -0.4943 -0.6566 -0.5497
15385TIP3   OH267569   4.754   4.864  13.286  0.1579 -0.0347  0.2141
15385TIP3    H167570   4.778   4.954  13.309  1.1134 -0.4362  0.8386
15385TIP3    H267571   4.802   4.809  13.348  0.8438 -1.0442 -1.1439
15386TIP3   OH267572   3.742   2.394   2.010 -0.1777 -0.1734 -0.3772
15386TIP3    H167573   3.738   2.489   1.998 -0.8756 -0.0977  0.3143
15386TIP3    H267574   3.756   2.382   2.104  0.4772 -0.7579 -0.5390
15387TIP3   OH267575   1.329   5.607   3.202  0.3321  0.0508  0.4239
15387TIP3    H167576   1.341   5.587   3.109  0.4308  0.8754  0.2505
15387TIP3    H267577   1.354   5.527   3.247 -0.9482 -0.7964 -0.3128
15388TIP3   OH267578   3.297   5.922   5.998 -0.1892  0.3954 -0.3756
15388TIP3    H167579   3.339   5.913   6.083 -0.8620  0.3961 -0.0326
15388TIP3    H267580   3.367   5.909   5.934  0.5682  1.5568  0.1764
15389TIP3   OH267581   4.502   4.491  13.911  0.1906  0.4458 -0.1299
15389TIP3    H167582   4.511   4.524  13.822  0.2970 -0.9352 -0.6662
15389TIP3    H267583   4.506   4.395  13.901 -0.1662  0.2587  1.3131
15390TIP3   OH267584   3.694   2.942  16.723  0.2075 -0.4555  0.2600
15390TIP3    H167585   3.711   2.883  16.797  0.6299  0.2098  0.6956
15390TIP3    H267586   3.651   3.018  16.762 -0.7249 -0.6505 -0.3625
15391TIP3   OH267587   2.290   4.171   5.029  0.0120  0.2370 -0.0769
15391TIP3    H167588   2.210   4.207   5.068  0.9434  1.7218  0.5549
15391TIP3    H267589   2.355   4.174   5.099  1.0265  0.5030 -1.0005
15392TIP3   OH267590   0.197   2.859   2.232 -0.2630  0.3446  0.5439
15392TIP3    H167591   0.135   2.788   2.215 -0.5437  0.7523 -0.2153
15392TIP3    H267592   0.222   2.848   2.323 -0.3881 -0.6616  0.4674
15393TIP3   OH267593   4.554   6.728   0.239  0.5372 -0.1426 -0.3044
15393TIP3    H167594   4.533   6.781   0.316  0.5060  2.8637 -2.2334
15393TIP3    H267595   4.517   6.642   0.258  0.0939  0.6286  2.7887
15394TIP3   OH267596   1.861   4.555   0.063  0.2081 -0.0383  0.4346
15394TIP3    H167597   1.807   4.518  -0.007  0.5288 -1.4088  0.8914
15394TIP3    H267598   1.918   4.617   0.018 -0.9644  0.6271 -0.2137
15395TIP3   OH267599   2.917   1.699  14.519  0.3203 -0.7972  0.4795
15395TIP3    H167600   2.955   1.784  14.496 -0.6569 -0.7161 -0.9377
15395TIP3    H267601   2.856   1.679  14.448  0.1798 -2.4783  1.0199
15396TIP3   OH267602   2.062   5.822   4.749 -0.5167 -0.0826 -0.1978
15396TIP3    H167603   2.129   5.754   4.753  0.2451  0.7124  2.3718
15396TIP3    H267604   2.111   5.905   4.753 -1.3911  0.7562 -3.6312
15397TIP3   OH267605   5.858   6.301   1.336  0.1923 -0.3716  0.4301
15397TIP3    H167606   5.941   6.258   1.356 -0.5634 -0.2852  4.5673
15397TIP3    H267607   5.791   6.246   1.377 -1.5597  0.8723 -0.5878
15398TIP3   OH267608   2.258   3.171   4.225  0.1547  0.1416  0.0432
15398TIP3    H167609   2.344   3.129   4.234  0.8885  1.7939  1.0798
15398TIP3    H267610   2.276   3.265   4.227 -1.4041  0.5877 -2.5777
15399TIP3   OH267611   2.335   2.396  12.422 -0.4417 -0.0422  0.2361
15399TIP3    H167612   2.262   2.335  12.411 -1.0108  0.1852  2.2502
15399TIP3    H267613   2.395   2.351  12.481  0.0816  0.5653  0.1789
15400TIP3   OH267614   2.248   5.888   2.118  0.6172 -0.2892 -0.6333
15400TIP3    H167615   2.276   5.800   2.092  0.7703 -1.4060  2.7941
15400TIP3    H267616   2.157   5.893   2.090  0.6606 -1.4612 -1.0338
15401TIP3   OH267617   1.457   1.783   3.011  0.5053 -0.1866  0.6667
15401TIP3    H167618   1.425   1.848   2.948 -1.5910 -2.4250 -0.7476
15401TIP3    H267619   1.478   1.834   3.089 -0.7972  2.2064 -0.4333
15402TIP3   OH267620   1.178   3.917   2.461 -0.0306  0.0163 -0.3899
15402TIP3    H167621   1.197   4.009   2.477 -0.2695 -0.1954  1.2831
15402TIP3    H267622   1.108   3.896   2.522 -2.4498 -0.4306 -3.1352
15403TIP3   OH267623   4.050   5.776   1.636  0.2113 -0.1625 -0.0714
15403TIP3    H167624   3.999   5.855   1.615 -0.1439 -0.7085 -1.3753
15403TIP3    H267625   4.072   5.786   1.728 -0.5269  1.0691  0.0042
15404TIP3   OH267626   0.635   4.254   6.107 -0.0572 -0.1049  0.0872
15404TIP3    H167627   0.716   4.295   6.079 -0.5742 -0.6233 -2.3963
15404TIP3    H267628   0.586   4.325   6.149  0.6211  0.8716 -0.7142
15405TIP3   OH267629   2.586   1.434   4.581  0.1318 -0.0935  0.2822
15405TIP3    H167630   2.595   1.469   4.670  2.0289  1.9239 -0.5850
15405TIP3    H267631   2.647   1.486   4.529  0.3939 -2.3806 -1.9059
15406TIP3   OH267632   4.092   5.518  15.202  0.4076 -0.2282  0.2781
15406TIP3    H167633   4.131   5.510  15.115 -0.9428 -0.0413 -0.3715
15406TIP3    H267634   4.164   5.502  15.262  1.5811  0.5732 -0.8631
15407TIP3   OH267635   4.320   4.843   0.202  0.3783 -0.0477  0.2814
15407TIP3    H167636   4.352   4.889   0.280 -0.4930 -0.6740  1.0308
15407TIP3    H267637   4.389   4.780   0.181  1.9047  1.9739 -1.1623
15408TIP3   OH267638   2.287   5.125   5.251  0.1109 -0.1694  0.1540
15408TIP3    H167639   2.202   5.164   5.230 -1.3273 -1.8693  2.3464
15408TIP3    H267640   2.331   5.117   5.167 -1.4529  1.7331 -0.9298
15409TIP3   OH267641   1.705   0.119  11.646  0.1720 -0.1433 -0.5584
15409TIP3    H167642   1.746   0.205  11.632  1.3941 -0.5815  0.1388
15409TIP3    H267643   1.613   0.139  11.663  0.5547  1.0993  0.2566
15410TIP3   OH267644   1.518   3.536  15.274  0.1591 -0.1285  0.2792
15410TIP3    H167645   1.610   3.562  15.262  0.0526 -0.5160 -1.7425
15410TIP3    H267646   1.476   3.613  15.311  1.4171 -0.1791  1.9466
15411TIP3   OH267647   4.749   1.193   6.806 -0.3567  0.0043  0.2769
15411TIP3    H167648   4.744   1.287   6.822 -0.9285 -0.0180  0.2433
15411TIP3    H267649   4.838   1.169   6.832 -0.1791  0.5694  0.1933
15412TIP3   OH267650   4.823   3.731   0.752 -0.1047 -0.3648 -0.1425
15412TIP3    H167651   4.840   3.656   0.808 -0.7709 -0.8031 -0.5166
15412TIP3    H267652   4.740   3.712   0.710  0.3428 -0.0192 -1.2354
15413TIP3   OH267653   4.507   3.023   3.384 -0.2109 -0.1599 -0.4581
15413TIP3    H167654   4.530   3.100   3.331  1.6910  0.0923  0.6535
15413TIP3    H267655   4.507   3.056   3.474 -1.2039 -1.0808 -0.0988
15414TIP3   OH267656   3.689   3.954   1.471 -0.0296 -0.7880  0.9792
15414TIP3    H167657   3.673   3.893   1.398 -1.6944  0.5996  0.1003
15414TIP3    H267658   3.707   4.037   1.428 -0.7680 -0.0070  2.1442
15415TIP3   OH267659   6.496   6.505  16.174  0.1772 -0.1186 -0.4222
15415TIP3    H167660   6.408   6.525  16.206  0.0596  0.9679 -1.3852
15415TIP3    H267661   6.549   6.581  16.198  0.6656 -0.3981 -0.5896
15416TIP3   OH267662   0.424   4.850   1.960  0.2929 -0.0121  0.0001
15416TIP3    H167663   0.503   4.888   2.000 -0.0106  0.4910  0.1304
15416TIP3    H267664   0.366   4.925   1.946  0.9993  0.1254 -2.8936
15417TIP3   OH267665   2.643   2.586   1.528  0.3035  0.2432  0.2168
15417TIP3    H167666   2.630   2.550   1.440 -1.0811  0.8346  0.1512
15417TIP3    H267667   2.562   2.566   1.574  0.9164  0.1604  1.3045
15418TIP3   OH267668   6.734   6.592   0.945  0.1800  0.1975  0.1275
15418TIP3    H167669   6.692   6.542   1.015  1.2660 -1.7477 -0.5192
15418TIP3    H267670   6.828   6.582   0.962  0.4715 -0.5535 -1.7363
15419TIP3   OH267671   3.885   2.394  12.064 -0.2875  0.4420  0.2990
15419TIP3    H167672   3.833   2.427  12.138 -2.0501 -0.8022 -0.2950
15419TIP3    H267673   3.867   2.457  11.993 -2.6401 -0.9384 -0.4640
15420TIP3   OH267674   5.107   5.635   4.903 -0.5042  0.9407 -0.0652
15420TIP3    H167675   5.165   5.632   4.978 -0.5739 -1.3149 -0.0155
15420TIP3    H267676   5.165   5.626   4.827 -0.6599  0.0159 -0.0852
15421TIP3   OH267677   6.003   5.308   1.317 -0.1980 -0.1914  0.3146
15421TIP3    H167678   5.987   5.265   1.233 -1.5836 -1.3617  1.1337
15421TIP3    H267679   5.932   5.371   1.325  1.3007  1.7150 -0.4492
15422TIP3   OH267680   4.543   4.735  13.168  0.0665 -0.2966  0.6933
15422TIP3    H167681   4.493   4.791  13.228  0.0019  2.3449 -1.6151
15422TIP3    H267682   4.634   4.745  13.196 -0.1348 -0.4793  1.4131
15423TIP3   OH267683   3.268   6.102  14.489  0.1181 -0.4581 -0.2669
15423TIP3    H167684   3.303   6.116  14.402 -0.7183 -1.4674 -0.7893
15423TIP3    H267685   3.173   6.114  14.479 -0.1779 -2.2025  0.1185
15424TIP3   OH267686   5.460   6.205   4.086  0.4034  0.0446 -0.3858
15424TIP3    H167687   5.521   6.156   4.141 -0.6134 -0.5702  0.2113
15424TIP3    H267688   5.459   6.293   4.125 -0.0074 -0.2772  0.3539
15425TIP3   OH267689   5.903   4.877   3.094  0.6050  0.3367  0.3988
15425TIP3    H167690   5.831   4.908   3.038  0.0744 -0.5308  0.5723
15425TIP3    H267691   5.956   4.955   3.111  2.0643  0.2868 -3.1113
15426TIP3   OH267692   6.726   4.468  10.913 -0.2477 -0.0926  0.4375
15426TIP3    H167693   6.711   4.399  10.848 -0.8930  0.3541  0.0984
15426TIP3    H267694   6.812   4.448  10.950  0.1114 -0.3842 -0.5229
15427TIP3   OH267695   5.886   2.607  10.896  0.2971 -0.3734  0.7528
15427TIP3    H167696   5.918   2.525  10.858  0.5221  0.3762 -0.7543
15427TIP3    H267697   5.954   2.671  10.875 -0.1892  0.3400  1.3179
15428TIP3   OH267698   5.333   6.316   0.437 -0.3610  0.2166 -0.2528
15428TIP3    H167699   5.415   6.300   0.391 -0.1728  1.4919 -0.4197
15428TIP3    H267700   5.272   6.252   0.401  0.1901  0.1906 -1.1798
15429TIP3   OH267701   6.030   6.077   2.047 -0.5790  0.7656 -1.0437
15429TIP3    H167702   6.002   6.044   1.962  0.4651  0.2510 -1.2084
15429TIP3    H267703   6.107   6.025   2.069 -0.4145  1.3692 -0.1079
15430TIP3   OH267704   1.662   0.482  17.326 -0.4693  0.7141  0.4243
15430TIP3    H167705   1.755   0.492  17.347 -0.3965 -0.2479  0.6112
15430TIP3    H267706   1.661   0.430  17.246 -0.8075  2.5401 -0.8346
15431TIP3   OH267707   0.158   4.133  11.372 -0.2574 -0.0161 -0.5049
15431TIP3    H167708   0.154   4.125  11.467  0.8585  1.5790 -0.2781
15431TIP3    H267709   0.109   4.213  11.353 -0.3627 -0.2539 -1.2564
15432TIP3   OH267710   1.827   6.679   3.709  0.2303  0.1688 -0.6598
15432TIP3    H167711   1.880   6.609   3.672  1.3113  0.7400 -0.2337
15432TIP3    H267712   1.872   6.703   3.790 -0.9107  0.3940 -0.0766
15433TIP3   OH267713   2.370   1.459   0.969  0.1482 -0.0952  0.4154
15433TIP3    H167714   2.327   1.430   1.050  0.9241  0.8072  1.1852
15433TIP3    H267715   2.407   1.379   0.932 -0.9669 -0.6572  0.4862
15434TIP3   OH267716   2.219   0.031   1.482  0.4770  0.1275 -0.1139
15434TIP3    H167717   2.213   0.003   1.573  0.4693 -1.7460 -0.6485
15434TIP3    H267718   2.155   0.101   1.474  0.2046  0.0485  1.2313
15435TIP3   OH267719   3.051   6.464   3.502 -0.6411  0.3410  0.3254
15435TIP3    H167720   2.957   6.480   3.506 -0.4392  1.8910 -0.2113
15435TIP3    H267721   3.090   6.539   3.549  0.3908  0.9627 -1.4265
15436TIP3   OH267722   6.235   4.615   1.843  0.0950  0.3669 -0.3063
15436TIP3    H167723   6.257   4.539   1.789 -0.2353  0.6091 -0.7867
15436TIP3    H267724   6.233   4.689   1.782  0.4331  0.7701  0.1617
15437TIP3   OH267725   5.237   5.623   5.983  0.0909  0.2970 -0.3713
15437TIP3    H167726   5.241   5.528   5.986  2.2862  0.2869 -1.6349
15437TIP3    H267727   5.287   5.652   6.059 -1.1858  0.4684  0.4213
15438TIP3   OH267728   4.777   4.302   3.006 -0.5146  0.0717  0.8179
15438TIP3    H167729   4.856   4.339   3.046 -1.1515  1.8150  0.5644
15438TIP3    H267730   4.801   4.286   2.915 -0.1303 -0.4477  1.0108
15439TIP3   OH267731   4.619   0.766  15.478 -0.4803 -0.1024 -0.0690
15439TIP3    H167732   4.715   0.769  15.482 -0.4809 -0.9528  1.1124
15439TIP3    H267733   4.600   0.752  15.385  0.5610 -0.2353 -0.2774
15440TIP3   OH267734   2.791   5.669  13.233  0.0838 -0.1889  1.2113
15440TIP3    H167735   2.740   5.600  13.275 -1.6433  0.5183  0.3768
15440TIP3    H267736   2.726   5.723  13.188  1.5946  0.6572 -0.0784
15441TIP3   OH267737   5.083   1.868  14.156  0.2377  0.1789  0.0662
15441TIP3    H167738   5.081   1.919  14.075  0.2926  0.1193  0.0271
15441TIP3    H267739   5.105   1.779  14.128  1.1511  0.3404  0.2384
15442TIP3   OH267740   5.582   0.810  16.318 -0.5605  0.6553  0.2555
15442TIP3    H167741   5.517   0.846  16.257 -1.7891 -0.7328  0.6612
15442TIP3    H267742   5.651   0.775  16.262  0.0849  2.4842 -0.1732
15443TIP3   OH267743   3.557   6.353  14.737 -0.5293 -0.0242 -0.3236
15443TIP3    H167744   3.587   6.287  14.800 -0.4803 -0.5266 -0.8593
15443TIP3    H267745   3.462   6.345  14.737 -0.4645 -1.2040 -1.5257
15444TIP3   OH267746   5.796   0.411  12.520 -0.5912  0.2828  0.0316
15444TIP3    H167747   5.877   0.368  12.493 -0.9505 -1.1534  1.1242
15444TIP3    H267748   5.735   0.394  12.447 -0.0502  0.9802 -0.5895
15445TIP3   OH267749   4.372   6.526   5.843  0.2525 -0.6349  0.1899
15445TIP3    H167750   4.288   6.521   5.887 -0.9946 -1.3998 -2.1026
15445TIP3    H267751   4.377   6.446   5.791  2.3271 -0.5136  0.1081
15446TIP3   OH267752   4.114   5.110  17.371 -0.2042 -0.4399 -0.8807
15446TIP3    H167753   4.089   5.086  17.460  1.5974 -4.1690 -1.1778
15446TIP3    H267754   4.199   5.154  17.380 -0.5356  0.1619 -0.6950
15447TIP3   OH267755   4.029   0.396  10.984  0.0675  0.1048  0.5499
15447TIP3    H167756   3.965   0.330  11.009  0.3533 -0.7086 -0.7851
15447TIP3    H267757   4.070   0.362  10.905  0.3272  1.8149 -0.0995
15448TIP3   OH267758   1.755   0.067  15.249 -0.1764 -0.0009  0.1745
15448TIP3    H167759   1.770   0.141  15.308  1.8852  0.4999 -0.8785
15448TIP3    H267760   1.753   0.105  15.162  1.3810 -1.1680 -0.4328
15449TIP3   OH267761   6.358   1.857   3.270 -0.2467  0.8588  0.2107
15449TIP3    H167762   6.330   1.839   3.181  0.7420 -1.1446  0.2351
15449TIP3    H267763   6.399   1.943   3.266 -1.4785  1.4153 -0.9373
15450TIP3   OH267764   2.983   2.212   5.114 -0.0143 -0.5334  0.5529
15450TIP3    H167765   3.048   2.272   5.076 -1.1042  1.4977  1.7024
15450TIP3    H267766   2.954   2.158   5.041 -0.3653  1.6693 -1.0317
15451TIP3   OH267767   3.208   5.261  14.430 -0.1683 -0.0036 -0.8819
15451TIP3    H167768   3.292   5.233  14.467 -0.1312 -0.3218 -1.2022
15451TIP3    H267769   3.168   5.180  14.397 -0.6416  0.1308 -0.6520
15452TIP3   OH267770   5.837   4.340   3.663 -0.3694 -0.9666 -0.1709
15452TIP3    H167771   5.800   4.303   3.583 -0.2019  0.6706 -1.0555
15452TIP3    H267772   5.760   4.369   3.713 -0.4155 -0.2189 -0.6589
15453TIP3   OH267773   1.091   4.705   2.816 -0.3084  0.4457 -0.5695
15453TIP3    H167774   1.185   4.720   2.828 -0.6616  1.3647  1.5473
15453TIP3    H267775   1.065   4.769   2.750  0.4581  0.5471 -0.7822
15454TIP3   OH267776   6.410   3.531   2.733  0.1134  0.4093 -0.1953
15454TIP3    H167777   6.396   3.603   2.671 -0.2776 -1.2067 -2.0809
15454TIP3    H267778   6.488   3.486   2.701 -1.5201 -1.9770 -1.1219
15455TIP3   OH267779   0.161   3.500   5.737  0.0555 -0.3616  0.4399
15455TIP3    H167780   0.118   3.573   5.692 -0.0690 -1.7999 -1.9911
15455TIP3    H267781   0.226   3.542   5.793  1.5071  1.6661 -2.4645
15456TIP3   OH267782   1.103   5.642   6.331 -0.5444  0.4758 -0.4449
15456TIP3    H167783   1.115   5.732   6.300 -0.0038  0.2136 -1.0189
15456TIP3    H267784   1.104   5.589   6.251 -1.3185  0.0012 -0.1501
15457TIP3   OH267785   4.845   2.474  13.269  0.0390  0.0141 -0.1226
15457TIP3    H167786   4.902   2.425  13.210  0.6698  1.1416 -0.4799
15457TIP3    H267787   4.758   2.469  13.229  0.3534  0.2943 -0.8490
15458TIP3   OH267788   6.536   1.936   3.785  0.0271 -0.3286 -0.1859
15458TIP3    H167789   6.488   1.913   3.706  0.6358  0.5559 -0.8242
15458TIP3    H267790   6.525   2.030   3.793  1.8025 -0.0661 -0.4588
15459TIP3   OH267791   5.034   1.980   5.561 -0.0217 -0.4885  0.0996
15459TIP3    H167792   5.101   2.038   5.597  0.2129 -1.6643  1.6916
15459TIP3    H267793   4.951   2.017   5.592 -0.0051  0.0559 -0.4990
15460TIP3   OH267794   3.055   1.398  12.685  0.1560  0.2906  0.3669
15460TIP3    H167795   3.146   1.427  12.682 -0.0120  0.8028  0.1165
15460TIP3    H267796   3.014   1.454  12.751  0.4815 -1.3008  1.9925
15461TIP3   OH267797   5.282   5.136   6.166  0.3656  0.8209  0.3687
15461TIP3    H167798   5.219   5.064   6.163  0.1094  1.0650 -1.9394
15461TIP3    H267799   5.332   5.121   6.246  0.3099 -1.9125 -0.0305
15462TIP3   OH267800   5.120   2.115   2.826 -0.1760 -0.0666 -0.7297
15462TIP3    H167801   5.199   2.075   2.788  0.7583  0.5331  0.5076
15462TIP3    H267802   5.049   2.058   2.798  1.0570 -2.5132  0.8044
15463TIP3   OH267803   6.076   1.754  16.588 -0.4417  0.5599  0.1888
15463TIP3    H167804   6.110   1.685  16.645 -0.2674  0.6858  0.2354
15463TIP3    H267805   6.034   1.707  16.516  1.8796  0.3957 -1.1312
15464TIP3   OH267806   3.969   0.815  12.094 -0.0791  0.4312 -0.8532
15464TIP3    H167807   4.020   0.743  12.057 -1.4028 -0.4205 -1.0908
15464TIP3    H267808   3.885   0.811  12.048 -1.2028  0.3507  1.1235
15465TIP3   OH267809   1.574   1.807   0.305 -0.2781  0.2910  0.0435
15465TIP3    H167810   1.488   1.790   0.266  0.1094 -0.2946 -0.5803
15465TIP3    H267811   1.570   1.767   0.391  0.3187 -2.3274 -1.0642
15466TIP3   OH267812   4.837   2.771   4.874  0.0696 -0.2010  0.2424
15466TIP3    H167813   4.880   2.825   4.807 -0.2375 -0.9631 -0.6002
15466TIP3    H267814   4.881   2.686   4.868 -1.0161 -0.7705 -0.1286
15467TIP3   OH267815   3.822   3.503   6.259 -0.4622 -0.0959  0.2957
15467TIP3    H167816   3.838   3.539   6.172 -2.2804  0.2654  0.0805
15467TIP3    H267817   3.857   3.568   6.319 -0.9120  0.5615 -0.1447
15468TIP3   OH267818   1.705   2.583  17.391 -0.0948 -0.2467  0.1981
15468TIP3    H167819   1.624   2.534  17.406  0.6141 -0.6195  3.9653
15468TIP3    H267820   1.676   2.669  17.360 -1.6767 -1.3032 -1.4406
15469TIP3   OH267821   0.373   5.116  11.961 -0.3460 -0.3644 -0.5968
15469TIP3    H167822   0.408   5.198  11.996 -0.1999 -0.5627 -0.2760
15469TIP3    H267823   0.401   5.049  12.024 -0.6525 -0.6300 -0.7406
15470TIP3   OH267824   3.969   5.190  16.282 -0.2138 -0.3569 -0.2234
15470TIP3    H167825   3.954   5.124  16.214 -1.0653  0.5875 -0.9841
15470TIP3    H267826   3.893   5.182  16.340 -0.0078 -0.4583  0.0323
15471TIP3   OH267827   5.512   0.180   3.183  0.0514  0.0786 -0.6351
15471TIP3    H167828   5.574   0.120   3.141 -0.9606 -0.2565 -1.7208
15471TIP3    H267829   5.451   0.204   3.113  0.5030  2.5143 -0.2875
15472TIP3   OH267830   6.058   0.021  11.830 -0.0694 -0.5939 -0.3706
15472TIP3    H167831   6.026  -0.044  11.892  0.3215  0.0306  0.4990
15472TIP3    H267832   6.151   0.031  11.852 -0.3714  1.0792  0.2712
15473TIP3   OH267833   6.339   4.328   6.198  0.4501 -0.1541 -0.1126
15473TIP3    H167834   6.402   4.277   6.249  0.2379 -0.0203  0.2923
15473TIP3    H267835   6.301   4.266   6.137  1.7202 -0.0127 -1.0802
15474TIP3   OH267836   0.079   2.117   3.827  0.0993 -0.8321  0.2761
15474TIP3    H167837  -0.001   2.139   3.874  0.6725  0.9387  0.4579
15474TIP3    H267838   0.149   2.124   3.892  0.8261  1.1091 -0.6357
15475TIP3   OH267839   1.010   1.526  15.608  0.3457 -0.0427 -0.1571
15475TIP3    H167840   1.042   1.557  15.693 -0.6684  0.9102 -0.0997
15475TIP3    H267841   0.944   1.590  15.583 -1.3844 -1.8110 -0.3573
15476TIP3   OH267842   1.504   5.284  15.150 -0.1555 -0.0046 -0.4828
15476TIP3    H167843   1.598   5.287  15.135 -0.3593  0.7004 -1.7453
15476TIP3    H267844   1.468   5.352  15.093 -1.5356 -1.0543 -0.9089
15477TIP3   OH267845   5.564   5.964  12.614  0.5012  0.4392 -0.0077
15477TIP3    H167846   5.488   5.952  12.671 -0.7722 -0.5238 -1.7863
15477TIP3    H267847   5.542   6.039  12.559  0.7120  0.0193 -0.6868
15478TIP3   OH267848   1.597   5.602  16.723  0.1867 -0.0147 -0.1888
15478TIP3    H167849   1.659   5.555  16.667  0.1810 -0.3885  0.1078
15478TIP3    H267850   1.552   5.533  16.772  0.2726  0.3044  0.3559
15479TIP3   OH267851   6.403   2.264  12.594  0.0137 -0.1639 -0.3604
15479TIP3    H167852   6.343   2.306  12.656  0.2479 -0.5237  0.1174
15479TIP3    H267853   6.449   2.336  12.552  1.7592  0.0556  1.7759
15480TIP3   OH267854   2.267   0.739  17.090 -0.5146 -0.0396 -0.0253
15480TIP3    H167855   2.261   0.644  17.099  0.6775 -0.1214 -0.0020
15480TIP3    H267856   2.349   0.754  17.044 -1.4174  0.9254 -1.3716
15481TIP3   OH267857   4.535   4.327  16.114 -0.8369 -0.1296 -0.3075
15481TIP3    H167858   4.546   4.418  16.142 -1.5137 -0.7322  2.2168
15481TIP3    H267859   4.440   4.316  16.108 -0.7365 -0.4745 -1.4076
15482TIP3   OH267860   0.765   1.689  13.061  0.5220  0.0473 -0.4901
15482TIP3    H167861   0.805   1.683  13.148 -0.5242  0.1799  0.0266
15482TIP3    H267862   0.719   1.606  13.050 -1.6229  1.0591  0.2897
15483TIP3   OH267863   5.456   5.296   5.831 -0.0909  0.2803 -0.3396
15483TIP3    H167864   5.482   5.309   5.739 -0.3568 -0.3322 -0.5031
15483TIP3    H267865   5.491   5.373   5.876 -1.5037  1.5079 -1.2556
15484TIP3   OH267866   0.674   5.142   4.455 -0.3809  0.4226 -0.4260
15484TIP3    H167867   0.581   5.154   4.473 -0.3159 -0.1344  0.3400
15484TIP3    H267868   0.719   5.199   4.517 -0.1802 -0.7503  0.5550
15485TIP3   OH267869   3.118   6.218  15.673  0.4244  0.1358  0.3893
15485TIP3    H167870   3.161   6.162  15.738 -0.2964 -1.6030 -0.5569
15485TIP3    H267871   3.147   6.184  15.588 -2.4825 -0.9176 -0.2788
15486TIP3   OH267872   5.943   5.473  13.473 -0.3590 -0.2782 -0.0420
15486TIP3    H167873   5.989   5.528  13.537 -1.4761 -0.9667  1.4187
15486TIP3    H267874   5.956   5.384  13.506  0.0933 -0.7725 -1.4931
15487TIP3   OH267875   1.901   1.849   4.097  0.5459 -0.1689  0.3744
15487TIP3    H167876   1.869   1.762   4.075  0.7451 -0.5216  1.4318
15487TIP3    H267877   1.869   1.905   4.025 -0.9990 -0.7985  0.5239
15488TIP3   OH267878   4.396   2.449  14.969  0.0784 -0.2241 -0.0262
15488TIP3    H167879   4.371   2.379  15.029  1.1688 -1.1283 -0.5725
15488TIP3    H267880   4.492   2.446  14.967  0.1255  0.9366 -0.4794
15489TIP3   OH267881   1.697   5.818  12.890  0.0690  0.1903 -0.3327
15489TIP3    H167882   1.685   5.732  12.850 -2.5705 -0.3718  1.4152
15489TIP3    H267883   1.775   5.808  12.944  0.2335 -0.8480 -0.7272
15490TIP3   OH267884   4.292   5.086   5.949 -0.2785  0.3144 -0.1544
15490TIP3    H167885   4.216   5.037   5.979  0.5656 -1.8826 -1.4136
15490TIP3    H267886   4.359   5.070   6.016  0.3119 -1.1705 -1.0556
15491TIP3   OH267887   6.429   3.500  11.975  0.0025 -0.1443 -0.1392
15491TIP3    H167888   6.473   3.530  12.055  0.6287 -0.3138 -0.4185
15491TIP3    H267889   6.481   3.426  11.945 -0.8912 -0.8075 -0.0772
15492TIP3   OH267890   6.639   6.151   2.621 -0.8666  0.7179 -0.0253
15492TIP3    H167891   6.593   6.151   2.538  0.7759  0.4472 -0.9748
15492TIP3    H267892   6.728   6.181   2.600 -0.0814 -0.4321  1.4303
15493TIP3   OH267893   0.579   0.789  11.921  0.1968 -0.7737 -0.3612
15493TIP3    H167894   0.609   0.705  11.885 -2.5083 -2.6385  1.2965
15493TIP3    H267895   0.498   0.767  11.967 -1.1123  2.9505 -0.5526
15494TIP3   OH267896   4.842   0.903   0.246  0.0247  0.1347  0.4202
15494TIP3    H167897   4.767   0.960   0.230  0.7186  2.4118  4.0778
15494TIP3    H267898   4.820   0.858   0.328  0.4604 -3.3611 -1.2123
15495TIP3   OH267899   5.285   3.817  15.426 -0.4369  0.1526  0.1077
15495TIP3    H167900   5.233   3.766  15.488 -0.4067 -2.0382 -1.5571
15495TIP3    H267901   5.225   3.837  15.355  0.7303 -1.9768 -1.5972
15496TIP3   OH267902   4.139   4.986   5.248  0.3336  1.0269 -0.1899
15496TIP3    H167903   4.223   5.028   5.229  0.2608  0.8205 -0.9891
15496TIP3    H267904   4.079   5.059   5.262  0.3316  1.1896 -1.0227
15497TIP3   OH267905   5.087   6.708  14.516 -0.3392  0.9432  0.4315
15497TIP3    H167906   5.086   6.661  14.600  1.4085 -0.1015 -0.0721
15497TIP3    H267907   5.155   6.663  14.465 -1.5677  1.3653 -1.6610
15498TIP3   OH267908   5.635   1.570   4.228  0.5674 -0.2592  0.4112
15498TIP3    H167909   5.593   1.605   4.150  2.2117 -1.7986 -1.2822
15498TIP3    H267910   5.566   1.519   4.272 -0.7948  1.8664  0.8932
15499TIP3   OH267911   2.318   3.484  13.143  0.0260 -0.2702 -0.0533
15499TIP3    H167912   2.295   3.577  13.155  0.5132  0.0232 -1.2880
15499TIP3    H267913   2.236   3.437  13.156 -0.1777  0.3056  0.8457
15500TIP3   OH267914   2.900   6.142  15.130 -0.3764 -1.0135 -0.4085
15500TIP3    H167915   2.883   6.234  15.112  3.5846  0.2839  1.2999
15500TIP3    H267916   2.891   6.098  15.045 -2.3537  0.8603 -1.2489
15501TIP3   OH267917   6.083   2.461  14.038  0.5718  0.1568 -0.2187
15501TIP3    H167918   6.028   2.531  14.003 -0.2949  0.4260  1.5427
15501TIP3    H267919   6.090   2.482  14.131  2.2687 -0.8270 -0.0950
15502TIP3   OH267920   6.439   0.157  12.820 -0.1529 -0.8686 -0.2433
15502TIP3    H167921   6.481   0.095  12.761  0.0758 -0.1148 -0.8895
15502TIP3    H267922   6.482   0.143  12.905  1.3707 -0.1736 -0.8683
15503TIP3   OH267923   4.427   6.491  15.365 -0.1202  0.1110 -0.1338
15503TIP3    H167924   4.404   6.582  15.348  0.8946  0.7572  1.6647
15503TIP3    H267925   4.491   6.495  15.436 -0.7982 -2.0459  0.7061
15504TIP3   OH267926   1.150   3.046  11.711  0.0875 -0.1103 -0.1415
15504TIP3    H167927   1.064   3.029  11.675  0.1274 -0.4611 -0.0765
15504TIP3    H267928   1.135   3.111  11.780  0.1253  1.2102 -1.3264
15505TIP3   OH267929   3.243   1.915  12.735  0.1867 -0.5362  0.1410
15505TIP3    H167930   3.295   1.905  12.655  0.8078  0.1085  0.4543
15505TIP3    H267931   3.227   1.826  12.765  1.6504 -0.7328  0.3792
15506TIP3   OH267932   0.141   6.414  13.020 -0.1304 -0.7089  0.1229
15506TIP3    H167933   0.197   6.465  13.078  1.0879  0.1722 -1.6990
15506TIP3    H267934   0.200   6.352  12.977 -1.2184 -2.2203  0.7184
15507TIP3   OH267935   5.944   4.758   4.397  0.1703  0.0168 -0.1778
15507TIP3    H167936   5.851   4.773   4.379 -0.4155  0.8613  3.0201
15507TIP3    H267937   5.990   4.820   4.341 -1.2726  0.5536 -0.8081
15508TIP3   OH267938   2.249   1.255   2.095  0.8012  0.8523  0.3423
15508TIP3    H167939   2.341   1.271   2.072  1.0043 -0.1642  0.4101
15508TIP3    H267940   2.201   1.324   2.049  1.6501  1.7868  0.8129
15509TIP3   OH267941   2.431   5.320  15.993 -0.2906  0.3403 -0.5499
15509TIP3    H167942   2.420   5.409  15.960 -0.1113  0.6306  0.1566
15509TIP3    H267943   2.503   5.284  15.941  0.9084  1.2530  0.4114
15510TIP3   OH267944   5.695   1.824   2.238  0.5559  0.0819 -0.8960
15510TIP3    H167945   5.633   1.792   2.173 -1.7746  1.9049  0.2433
15510TIP3    H267946   5.696   1.757   2.306 -0.2485  0.0415 -0.9131
15511TIP3   OH267947   3.062   4.333   5.499  0.1316 -0.3240 -0.0389
15511TIP3    H167948   3.015   4.254   5.473  1.5799 -0.4448 -2.6841
15511TIP3    H267949   3.154   4.313   5.483  0.7857  1.0926  1.6048
15512TIP3   OH267950   3.777   2.564  16.681  0.1805 -0.9814 -0.1739
15512TIP3    H167951   3.865   2.589  16.652  0.4330 -2.3487 -0.6542
15512TIP3    H267952   3.743   2.511  16.609 -0.5634 -1.4688  0.5318
15513TIP3   OH267953   3.205   1.561  14.193 -0.3241  0.6818  0.3886
15513TIP3    H167954   3.159   1.486  14.155  0.8533  0.0112  0.2453
15513TIP3    H267955   3.177   1.562  14.284  0.4829 -0.6094  0.6682
15514TIP3   OH267956   6.518   2.576   4.705  0.9568  0.0764 -0.4095
15514TIP3    H167957   6.457   2.636   4.663  1.9356  1.3357 -0.0857
15514TIP3    H267958   6.472   2.492   4.706 -0.3107  0.7329 -1.1694
15515TIP3   OH267959   1.235   5.210  13.760 -0.0032  0.3452  0.3850
15515TIP3    H167960   1.261   5.207  13.852 -0.9297 -0.9231  0.6219
15515TIP3    H267961   1.271   5.130  13.722 -0.9172  0.1023  0.0089
15516TIP3   OH267962   6.576   6.662   5.687  0.1754  0.5157  0.2499
15516TIP3    H167963   6.507   6.716   5.648 -2.2623 -0.5007  2.7830
15516TIP3    H267964   6.591   6.702   5.773 -0.5341 -1.7897  1.5371
15517TIP3   OH267965   1.741   3.379  16.551  0.2614 -0.0682  0.2602
15517TIP3    H167966   1.766   3.287  16.563  1.9518  0.6340  3.0331
15517TIP3    H267967   1.757   3.397  16.459  0.3336 -2.4118 -0.2429
15518TIP3   OH267968   2.950   6.464  15.733 -0.2471 -0.5023  0.0354
15518TIP3    H167969   2.912   6.541  15.775  1.4339  0.5380 -0.2419
15518TIP3    H267970   2.909   6.459  15.647 -1.3103 -0.7077  0.5424
15519TIP3   OH267971   1.520   0.672  16.837  0.1832  0.0756 -0.0097
15519TIP3    H167972   1.525   0.695  16.744  0.6831 -1.3369 -0.3472
15519TIP3    H267973   1.610   0.652  16.862 -0.0253 -0.0496  0.6512
15520TIP3   OH267974   1.055   3.580  13.943 -0.0402  0.1575  0.5313
15520TIP3    H167975   0.987   3.526  13.901  0.2185 -0.3405  0.7474
15520TIP3    H267976   1.026   3.588  14.034  0.9591 -1.3591  1.0189
15521TIP3   OH267977   6.554   0.252  15.466 -0.0562  0.3673 -0.0397
15521TIP3    H167978   6.621   0.275  15.531 -0.8121  0.9222  0.5541
15521TIP3    H267979   6.588   0.172  15.424  1.4630  1.1967 -0.4596
15522TIP3   OH267980   3.582   2.210  11.817 -0.4715  0.9320 -0.2914
15522TIP3    H167981   3.523   2.143  11.782 -1.0807  0.4130  1.6067
15522TIP3    H267982   3.649   2.222  11.750 -0.5937 -1.2814 -0.8526
15523TIP3   OH267983   5.176   3.833  11.305 -0.1539  0.0974 -0.1982
15523TIP3    H167984   5.241   3.816  11.238 -1.5201 -0.9164 -1.3151
15523TIP3    H267985   5.154   3.926  11.294  0.2884  0.1648 -0.5376
15524TIP3   OH267986   6.705   0.167   1.386  0.8343 -0.5670  0.2838
15524TIP3    H167987   6.724   0.259   1.403 -0.1984 -0.1682 -0.6229
15524TIP3    H267988   6.791   0.127   1.371  1.2581  0.3552  0.1862
15525TIP3   OH267989   5.541   4.979   4.073 -0.4030 -0.1293  0.4051
15525TIP3    H167990   5.618   5.009   4.023 -0.4589 -1.7834 -0.7708
15525TIP3    H267991   5.510   5.057   4.118  0.9109  0.9841 -0.5156
15526TIP3   OH267992   5.698   0.302  11.422  0.0512 -0.0772 -0.0933
15526TIP3    H167993   5.641   0.377  11.441  1.6946  1.1694  0.1359
15526TIP3    H267994   5.673   0.275  11.334 -0.1071  1.2014 -0.4643
15527TIP3   OH267995   1.419   1.197  15.434  0.0286 -0.2131 -0.1649
15527TIP3    H167996   1.442   1.238  15.351  0.6048  0.1090  0.1473
15527TIP3    H267997   1.323   1.199  15.435  0.0092  1.9579  0.2169
15528TIP3   OH267998   4.849   2.867   4.034  0.0622 -0.4063  0.5958
15528TIP3    H167999   4.867   2.926   4.108 -0.0852 -0.3577  0.5930
15528TIP3    H268000   4.933   2.825   4.017 -0.0723 -0.9510  1.2534
15529TIP3   OH268001   5.063   2.459  16.521 -0.3942 -0.2725 -0.0688
15529TIP3    H168002   5.052   2.542  16.473  0.2387  0.8621  1.6451
15529TIP3    H268003   5.152   2.464  16.556  0.1391 -2.3101 -0.9830
15530TIP3   OH268004   0.451   3.162  11.351  0.2548 -0.2564 -0.7476
15530TIP3    H168005   0.470   3.210  11.270  0.3711  0.7514 -0.1403
15530TIP3    H268006   0.537   3.141  11.387  0.2096 -1.3795 -1.2569
15531TIP3   OH268007   4.135   0.780  17.207 -0.2161 -0.4434  0.2238
15531TIP3    H168008   4.186   0.810  17.282 -0.6788  1.1806 -0.0640
15531TIP3    H268009   4.073   0.717  17.244  1.6409 -2.1154  0.6436
15532TIP3   OH268010   2.702   0.970  13.728 -0.1737 -0.4911 -0.2651
15532TIP3    H168011   2.726   1.063  13.720 -2.1253  0.0897  0.2644
15532TIP3    H268012   2.651   0.952  13.649  0.4102 -1.2256 -0.4930
15533TIP3   OH268013   0.845   3.404  11.405 -0.2931 -0.3571 -0.3929
15533TIP3    H168014   0.918   3.429  11.349  0.3513 -1.4051 -0.0621
15533TIP3    H268015   0.881   3.334  11.460 -1.2249 -0.1076  0.5625
15534TIP3   OH268016   3.340   5.502   1.812  0.3664  0.1245 -0.2077
15534TIP3    H168017   3.345   5.471   1.903  2.9019  1.0781  0.0535
15534TIP3    H268018   3.367   5.427   1.760 -0.0491 -0.0984 -0.1100
15535TIP3   OH268019   3.538   4.423   6.777 -0.0869 -0.3222  0.5424
15535TIP3    H168020   3.499   4.502   6.815  1.9597  0.4450  1.1847
15535TIP3    H268021   3.630   4.446   6.763 -0.2950 -1.0977 -3.3833
15536TIP3   OH268022   4.185   6.458   5.307  0.0086  0.8241  0.4512
15536TIP3    H168023   4.092   6.482   5.303 -0.0718  0.4506 -0.2207
15536TIP3    H268024   4.216   6.470   5.217  0.2755 -0.3421  0.3766
15537TIP3   OH268025   3.984   3.185   2.694 -0.4362 -0.5844 -0.0814
15537TIP3    H168026   4.027   3.270   2.698 -0.5221 -0.4415 -1.6645
15537TIP3    H268027   3.915   3.190   2.761  0.4888  0.0301  0.8507
15538TIP3   OH268028   1.603   5.062   3.967  0.2165  0.3769  0.1007
15538TIP3    H168029   1.529   5.030   3.914 -1.7167  2.2739  1.5095
15538TIP3    H268030   1.634   5.140   3.920  0.6248  0.2200  0.1022
15539TIP3   OH268031   1.438   5.547   4.618  0.5599 -0.0100  0.0479
15539TIP3    H168032   1.513   5.540   4.559  0.3061  0.2384 -0.3091
15539TIP3    H268033   1.461   5.493   4.693  1.3579  0.5537  0.2125
15540TIP3   OH268034   6.491   3.341   2.952  0.1396 -0.1958  0.3079
15540TIP3    H168035   6.456   3.430   2.956  0.5738  0.1545 -2.1629
15540TIP3    H268036   6.413   3.286   2.939  0.0938  0.1707 -1.1634
15541TIP3   OH268037   1.832   0.283   4.875  0.4153  0.4005  0.0141
15541TIP3    H168038   1.897   0.214   4.888  0.0670  0.3549  1.7402
15541TIP3    H268039   1.798   0.268   4.787  2.7238  0.4450 -0.9474
15542TIP3   OH268040   0.927   1.507  13.640  0.2407  0.2334 -0.0659
15542TIP3    H168041   0.974   1.548  13.713  0.2161 -0.4229  0.3251
15542TIP3    H268042   0.983   1.522  13.564  0.7381  0.0877  0.2663
15543TIP3   OH268043   3.321   3.926   3.166 -0.1622 -0.3118 -0.2174
15543TIP3    H168044   3.363   3.994   3.219  2.0904 -4.2389  3.6777
15543TIP3    H268045   3.347   3.946   3.077  0.4621  3.7452  0.6732
15544TIP3   OH268046   0.877   3.482   1.923 -0.0414 -0.1875  0.1656
15544TIP3    H168047   0.878   3.575   1.903 -0.2734  0.1681  1.7246
15544TIP3    H268048   0.800   3.448   1.876 -0.7952  0.6910  0.7314
15545TIP3   OH268049   2.348   4.070  14.528 -0.5310 -0.2138  0.5315
15545TIP3    H168050   2.368   4.105  14.615 -1.6859 -0.3195  0.8534
15545TIP3    H268051   2.302   4.141  14.484 -1.2025 -0.6518  0.5161
15546TIP3   OH268052   5.294   5.787  11.478 -0.2867  0.1006 -0.0258
15546TIP3    H168053   5.301   5.717  11.413 -0.5507  1.6708 -1.8477
15546TIP3    H268054   5.253   5.860  11.430 -0.7315  1.2583  1.9889
15547TIP3   OH268055   0.468   5.100  12.288  0.4540  0.0184  0.1911
15547TIP3    H168056   0.477   5.121  12.381  1.4418  1.4185 -0.1886
15547TIP3    H268057   0.498   5.179  12.243 -1.1679 -0.1776 -1.3243
15548TIP3   OH268058   6.090   1.019   4.653 -0.1319  0.3198  0.3422
15548TIP3    H168059   6.136   0.962   4.715  2.5944 -0.1748 -1.8915
15548TIP3    H268060   6.059   0.960   4.584 -2.0461  0.9808  0.5900
15549TIP3   OH268061   4.392   4.764   5.924  0.2317  0.2444 -0.0161
15549TIP3    H168062   4.305   4.725   5.934  1.3172 -2.1660  0.9170
15549TIP3    H268063   4.398   4.828   5.994 -1.1901  1.3398 -0.8408
15550TIP3   OH268064   5.226   3.569   4.622 -0.4053  0.3940  0.8534
15550TIP3    H168065   5.179   3.499   4.577  0.1430 -0.2618  1.2730
15550TIP3    H268066   5.287   3.523   4.680  0.3317  1.2169  0.7589
15551TIP3   OH268067   4.791   4.521  10.846 -0.0280 -0.3903  0.8357
15551TIP3    H168068   4.738   4.600  10.857 -1.4695 -1.3134  0.7618
15551TIP3    H268069   4.842   4.538  10.767 -0.1766  0.5399  0.9264
15552TIP3   OH268070   6.627   5.751   1.397  0.2618 -0.2602 -0.3424
15552TIP3    H168071   6.623   5.808   1.475  1.2565 -2.6212  1.5754
15552TIP3    H268072   6.710   5.704   1.407 -0.8022 -2.5025 -1.4379
15553TIP3   OH268073   1.705   2.147   0.263  0.4782  0.1291  0.3352
15553TIP3    H168074   1.745   2.069   0.301  1.8472  0.8281  0.3849
15553TIP3    H268075   1.647   2.180   0.331  2.3129  0.9262  1.5718
15554TIP3   OH268076   3.473   6.580  14.919 -0.2923 -0.4148  0.5251
15554TIP3    H168077   3.521   6.498  14.927 -0.5812 -0.5321  1.1235
15554TIP3    H268078   3.434   6.577  14.831 -1.3021 -1.4766  0.9884
15555TIP3   OH268079   1.009   6.056  11.609  0.3323 -0.6707 -0.8078
15555TIP3    H168080   1.022   6.091  11.697 -2.2153  0.4622 -0.7992
15555TIP3    H268081   1.070   6.107  11.555  1.6895 -1.1517  0.2036
15556TIP3   OH268082   2.279   5.883  11.345 -0.4109  0.2002  0.0866
15556TIP3    H168083   2.196   5.894  11.391  0.1566  1.0266  0.9582
15556TIP3    H268084   2.286   5.960  11.288 -0.6544 -0.3275 -0.6705
15557TIP3   OH268085   6.149   6.216  10.674  0.0999 -0.2975  0.0088
15557TIP3    H168086   6.061   6.205  10.710  0.4000 -1.1484  0.5261
15557TIP3    H268087   6.150   6.159  10.597  0.3494 -0.6946  0.2987
15558TIP3   OH268088   1.263   4.329  16.483  0.3774 -0.4211  0.3942
15558TIP3    H168089   1.314   4.367  16.412 -0.4365  0.2313  0.1490
15558TIP3    H268090   1.327   4.278  16.534  0.7511 -1.9813 -1.5084
15559TIP3   OH268091   4.277   3.966  17.392 -0.2369  0.3255 -0.2016
15559TIP3    H168092   4.351   4.013  17.430  0.2887 -0.1882 -0.5819
15559TIP3    H268093   4.272   3.997  17.302 -0.9661  0.9240  0.0330
15560TIP3   OH268094   5.365   0.586   1.336 -0.1134 -0.3503 -0.5970
15560TIP3    H168095   5.439   0.571   1.278 -0.8430  0.3136 -1.7305
15560TIP3    H268096   5.375   0.519   1.404  1.0422 -0.8196 -1.1854
15561TIP3   OH268097   5.974   0.155   5.137 -0.2670 -0.3469 -0.7658
15561TIP3    H168098   5.919   0.138   5.214  0.4587  0.1945 -0.1053
15561TIP3    H268099   5.994   0.069   5.102  2.1971 -0.9466  1.6799
15562TIP3   OH268100   1.613   3.079  13.580  0.1817 -0.1924 -0.3551
15562TIP3    H168101   1.629   3.050  13.669  1.4260 -0.2222 -0.5666
15562TIP3    H268102   1.698   3.069  13.536 -0.5221 -0.6475 -1.6688
15563TIP3   OH268103   4.541   0.394   5.669 -0.1243  0.2143 -0.1180
15563TIP3    H168104   4.529   0.378   5.575  0.0828  0.1676 -0.1377
15563TIP3    H268105   4.620   0.343   5.692  0.5343  1.1836 -0.1739
15564TIP3   OH268106   5.009   3.579  10.662  0.2363  0.2866  0.5533
15564TIP3    H168107   5.002   3.636  10.738  1.5096 -0.3315  1.1565
15564TIP3    H268108   5.071   3.624  10.604  3.0018 -1.3840  1.9786
15565TIP3   OH268109   5.460   3.845   0.191  0.2207 -0.4481 -0.0564
15565TIP3    H168110   5.489   3.888   0.110  0.4341 -1.0855 -0.3242
15565TIP3    H268111   5.390   3.901   0.224  2.4751  1.7963  1.2486
15566TIP3   OH268112   6.540   2.542   1.955 -0.3008  0.0947 -0.1127
15566TIP3    H168113   6.633   2.523   1.940 -0.7057 -1.1236 -1.3979
15566TIP3    H268114   6.503   2.458   1.984 -1.3117  0.0721 -1.3776
15567TIP3   OH268115   3.896   0.138   5.508 -0.8591  0.4790  0.0009
15567TIP3    H168116   3.962   0.111   5.571 -0.1482  1.4308 -0.3175
15567TIP3    H268117   3.920   0.093   5.427 -0.7857  0.5708 -0.0288
15568TIP3   OH268118   5.538   1.370  15.115 -0.7209  0.4896  0.1355
15568TIP3    H168119   5.570   1.460  15.108 -2.5139  1.0548 -1.6451
15568TIP3    H268120   5.599   1.319  15.061 -1.2996  1.1420 -1.1829
15569TIP3   OH268121   4.866   3.348  12.259  0.7346  0.2489 -0.2259
15569TIP3    H168122   4.865   3.255  12.284  1.7857  0.4221  0.5630
15569TIP3    H268123   4.931   3.353  12.189  2.4833  0.7031  1.3225
15570TIP3   OH268124   3.614   6.199  16.854 -0.0286  0.0308 -0.7209
15570TIP3    H168125   3.609   6.128  16.918 -0.2656  1.2044  0.6306
15570TIP3    H268126   3.524   6.208  16.822 -0.2440  0.4409 -0.0365
15571TIP3   OH268127   3.788   6.508  11.270 -0.2512  0.4026  0.0732
15571TIP3    H168128   3.703   6.546  11.292 -0.1783  0.3057  0.5278
15571TIP3    H268129   3.769   6.415  11.256 -0.5110  0.6564 -1.4843
15572TIP3   OH268130   5.648   5.604  17.161  0.2642  0.0199 -0.2560
15572TIP3    H168131   5.733   5.572  17.190  1.7898  2.0537 -2.1396
15572TIP3    H268132   5.641   5.691  17.200 -2.3217 -1.1172  2.1518
15573TIP3   OH268133   0.949   1.647   3.403 -0.1593 -0.4138 -0.3131
15573TIP3    H168134   0.966   1.582   3.334  1.0570 -0.8301  0.3432
15573TIP3    H268135   0.862   1.625   3.437 -0.6943 -0.3197 -1.5678
15574TIP3   OH268136   1.248   0.468   4.842  0.2698  0.1280 -0.2974
15574TIP3    H168137   1.276   0.521   4.916  1.8291 -0.5810 -0.3388
15574TIP3    H268138   1.327   0.457   4.789 -0.1064 -1.7914 -0.5336
15575TIP3   OH268139   6.487   1.016  11.775 -0.3898  0.2229 -0.3476
15575TIP3    H168140   6.471   0.924  11.797  1.7353 -0.4074 -1.1334
15575TIP3    H268141   6.483   1.062  11.858  1.5298 -1.1275  0.5705
15576TIP3   OH268142   1.088   6.569   4.330 -0.1494 -0.0012  0.3452
15576TIP3    H168143   1.073   6.507   4.258  0.4551 -0.1632  0.3516
15576TIP3    H268144   1.074   6.517   4.409 -1.9771  0.4587  0.3775
15577TIP3   OH268145   5.717   0.504  11.725 -0.2687 -0.0087 -0.0498
15577TIP3    H168146   5.769   0.569  11.771 -2.5824  0.5491  2.0200
15577TIP3    H268147   5.670   0.554  11.658 -1.2493  0.3088  0.8481
15578TIP3   OH268148   3.694   5.118   3.472  0.0591  0.2627 -0.4004
15578TIP3    H168149   3.660   5.042   3.519  1.1513  0.4866  0.8096
15578TIP3    H268150   3.728   5.175   3.541  0.3284  1.3057 -1.3738
15579TIP3   OH268151   0.438   5.890  14.710  0.2807  0.4421  0.0570
15579TIP3    H168152   0.419   5.812  14.658 -3.2700 -1.0610  3.0934
15579TIP3    H268153   0.369   5.953  14.686 -1.2373 -0.1668  2.4481
15580TIP3   OH268154   2.711   6.389   3.824 -0.2127  0.4754  0.5186
15580TIP3    H168155   2.711   6.300   3.789 -2.8589  0.7031 -0.2993
15580TIP3    H268156   2.630   6.427   3.791  0.3948  2.9036  1.6210
15581TIP3   OH268157   3.046   3.536   3.972 -0.2114 -0.1227  0.9278
15581TIP3    H168158   3.012   3.603   3.913 -0.3179  0.3770  1.5327
15581TIP3    H268159   3.015   3.563   4.059 -0.8961 -1.3814  1.0901
15582TIP3   OH268160   5.006   6.017   1.565  0.0909 -0.2806  0.2375
15582TIP3    H168161   4.958   6.084   1.615 -0.3101 -0.5892  0.2704
15582TIP3    H268162   5.072   6.066   1.516  0.4660  0.0365  1.0344
15583TIP3   OH268163   0.983   1.172  16.812 -0.0765  0.0156 -0.0927
15583TIP3    H168164   1.072   1.205  16.797 -0.4977  0.6173 -1.4554
15583TIP3    H268165   0.986   1.134  16.900  1.0770  1.5377  0.5745
15584TIP3   OH268166   6.264   4.748   3.930 -0.2341 -0.3454  0.1747
15584TIP3    H168167   6.182   4.797   3.937 -0.8883 -1.3822  0.0208
15584TIP3    H268168   6.240   4.658   3.951  0.6807 -0.8403 -0.8023
15585TIP3   OH268169   0.733   3.718  15.933  0.3589  0.3549  0.2869
15585TIP3    H168170   0.708   3.770  15.856  0.1339 -1.1818 -0.7249
15585TIP3    H268171   0.764   3.783  15.996 -3.2739  2.1343  0.5094
15586TIP3   OH268172   2.088   5.425  11.598 -0.7810 -0.3869 -0.1548
15586TIP3    H168173   2.028   5.364  11.556 -1.2328 -1.3129  1.7513
15586TIP3    H268174   2.112   5.486  11.528 -0.7924 -2.3504 -1.9741
15587TIP3   OH268175   0.203   2.828  12.745 -0.0579  0.3941 -0.4289
15587TIP3    H168176   0.119   2.865  12.772  0.1624 -0.7522  2.1193
15587TIP3    H268177   0.185   2.736  12.728  0.2491  0.6458 -2.3894
15588TIP3   OH268178   5.373   2.415  14.997  0.1123  0.5393  0.0671
15588TIP3    H168179   5.433   2.342  14.984  0.4825  1.1518 -2.1033
15588TIP3    H268180   5.418   2.491  14.960 -0.7586  1.6478  1.1649
15589TIP3   OH268181   4.453   2.677   5.746 -0.5723 -0.4473 -0.0704
15589TIP3    H168182   4.454   2.624   5.666 -2.3043 -0.0004 -0.4264
15589TIP3    H268183   4.439   2.613   5.816  0.1492 -0.7515 -0.1943
15590TIP3   OH268184   3.060   4.069   2.354  0.5334  0.1796 -0.0351
15590TIP3    H168185   3.117   4.005   2.396  1.1181  1.8012  1.7537
15590TIP3    H268186   3.091   4.154   2.384 -1.5409  1.2391 -0.6443
15591TIP3   OH268187   6.023   3.855   0.649  0.0168 -0.3019  0.5478
15591TIP3    H168188   6.071   3.876   0.568 -0.9639  1.2841  0.3479
15591TIP3    H268189   6.004   3.762   0.641  0.2883 -0.2628 -0.8778
15592TIP3   OH268190   4.260   0.557  11.050 -0.1392 -0.0619  0.9751
15592TIP3    H168191   4.182   0.506  11.028 -0.2734 -0.0536  1.4111
15592TIP3    H268192   4.333   0.497  11.037 -0.4625 -1.3674  4.2063
15593TIP3   OH268193   6.381   1.294   5.697  0.1192  0.2233  0.2657
15593TIP3    H168194   6.424   1.326   5.776  1.6188 -1.4253  0.2079
15593TIP3    H268195   6.453   1.284   5.634 -0.3375 -2.3695  0.0520
15594TIP3   OH268196   6.272   3.733  15.652  0.1497  0.0879  0.1955
15594TIP3    H168197   6.348   3.674  15.659  0.7398  0.6664 -1.0192
15594TIP3    H268198   6.274   3.785  15.733  0.0455 -1.0440  0.9477
15595TIP3   OH268199   4.481   1.157   1.016  0.4605 -0.0070  0.7328
15595TIP3    H168200   4.521   1.239   0.987 -1.2715  0.8961  0.8062
15595TIP3    H268201   4.505   1.151   1.109  0.6741  0.3739  0.7070
15596TIP3   OH268202   1.976   0.434   6.162  0.3077  0.0977  0.3880
15596TIP3    H168203   2.045   0.443   6.096  0.9322 -2.0864  0.6646
15596TIP3    H268204   2.014   0.375   6.228 -1.6840 -0.8678  0.7322
15597TIP3   OH268205   3.069   1.565   5.309 -0.0523 -0.0198  0.3009
15597TIP3    H168206   3.057   1.492   5.248  0.3133 -0.5889  0.8933
15597TIP3    H268207   2.982   1.604   5.317 -0.3029 -0.5369  0.1572
15598TIP3   OH268208   0.594   1.048   6.091  0.0053 -0.5449 -0.8670
15598TIP3    H168209   0.582   0.954   6.084  0.6432 -0.5741 -1.6689
15598TIP3    H268210   0.564   1.070   6.179 -0.4816 -1.4375 -0.8066
15599TIP3   OH268211   4.902   2.463  12.429  0.2290  0.3211 -0.5285
15599TIP3    H168212   4.879   2.533  12.368  2.8029  2.3867  0.6921
15599TIP3    H268213   4.968   2.412  12.383 -0.4681 -0.3377 -0.8074
15600TIP3   OH268214   5.686   6.112   1.437  0.1341 -0.3999  0.4838
15600TIP3    H168215   5.619   6.166   1.478  1.5428  1.7866  0.1189
15600TIP3    H268216   5.638   6.056   1.376 -1.3467  1.6310 -0.3515
15601TIP3   OH268217   0.665   3.313  12.213 -0.3386  0.1748 -0.0881
15601TIP3    H168218   0.752   3.323  12.251 -0.3541  2.7590 -0.5392
15601TIP3    H268219   0.604   3.333  12.284 -0.6077 -1.2844  0.1335
15602TIP3   OH268220   0.319   5.209  15.380  0.3605  0.1297 -0.7214
15602TIP3    H168221   0.399   5.241  15.338  1.1472 -0.8738 -0.0106
15602TIP3    H268222   0.271   5.289  15.403  0.0865  0.7352 -3.0941
15603TIP3   OH268223   4.744   0.058   3.240  0.1553 -0.2169  0.3375
15603TIP3    H168224   4.697   0.118   3.298  1.0000  0.8858 -0.0782
15603TIP3    H268225   4.676   0.016   3.188 -0.4986 -0.1024  1.0875
15604TIP3   OH268226   1.394   6.426  13.639 -0.0894  0.3659  0.6423
15604TIP3    H168227   1.303   6.411  13.613  0.1525  0.1119 -0.0766
15604TIP3    H268228   1.397   6.517  13.668 -0.7776  0.1132  1.5831
15605TIP3   OH268229   3.486   3.146   1.027  0.0694  0.7169 -0.9485
15605TIP3    H168230   3.512   3.054   1.029 -0.5374  0.5444  0.6068
15605TIP3    H268231   3.434   3.158   1.107  0.4724  2.5051 -0.9138
15606TIP3   OH268232   2.945   2.808  11.903 -0.0853  0.0136  0.3717
15606TIP3    H168233   2.876   2.874  11.910 -0.8084 -0.4777 -1.5393
15606TIP3    H268234   2.935   2.772  11.815  1.5181 -1.3058  0.6806
15607TIP3   OH268235   2.431   0.352   6.551  0.2332  0.1088  0.2969
15607TIP3    H168236   2.527   0.355   6.556  0.3699 -2.1952 -0.0962
15607TIP3    H268237   2.406   0.275   6.602 -1.2674 -0.3258 -1.0137
15608TIP3   OH268238   1.231   0.959  16.348 -0.4573 -0.2064 -0.0547
15608TIP3    H168239   1.145   0.971  16.387 -0.1080  0.6962  0.4621
15608TIP3    H268240   1.275   1.043  16.360  0.5563 -0.7093 -0.1638
15609TIP3   OH268241   5.149   3.418  15.155 -0.4945 -0.0762  0.5731
15609TIP3    H168242   5.097   3.422  15.075 -0.0436  1.1970  0.3065
15609TIP3    H268243   5.189   3.505  15.161 -0.3882 -0.2097  2.0996
15610TIP3   OH268244   3.225   5.672  15.831 -0.1490  0.8182  0.0547
15610TIP3    H168245   3.162   5.674  15.903  1.6873  0.6346  1.7503
15610TIP3    H268246   3.227   5.581  15.803 -0.8089  0.8782 -0.2193
15611TIP3   OH268247   5.073   0.664   4.249 -0.2515  0.3985 -0.0808
15611TIP3    H168248   5.135   0.591   4.244 -0.9135 -0.1233 -0.9411
15611TIP3    H268249   5.010   0.639   4.316 -0.0747  0.5006  0.1231
15612TIP3   OH268250   1.724   2.028  16.495 -0.4956 -0.0442  0.6832
15612TIP3    H168251   1.771   1.990  16.569 -0.0339 -1.1958 -0.1762
15612TIP3    H268252   1.792   2.064  16.438 -0.8787  1.3651  1.0762
15613TIP3   OH268253   2.211   3.849  14.538 -0.1257 -0.0614  0.1016
15613TIP3    H168254   2.189   3.860  14.631  0.8095  0.0247  0.3219
15613TIP3    H268255   2.287   3.905  14.525  0.3506 -0.8397 -0.4814
15614TIP3   OH268256   6.251   4.660   5.983  0.5376 -0.5185 -0.7606
15614TIP3    H168257   6.186   4.719   5.947  1.1282 -0.0611 -1.0989
15614TIP3    H268258   6.257   4.589   5.918 -0.5058 -1.1972 -0.1275
15615TIP3   OH268259   1.668   3.969  12.519  0.5913 -0.0065 -0.2551
15615TIP3    H168260   1.650   4.025  12.443  0.1065  1.0044  0.5836
15615TIP3    H268261   1.602   3.899  12.512  0.5909  0.0402 -0.7942
15616TIP3   OH268262   3.266   0.808   2.164  0.1703  0.0304  0.4330
15616TIP3    H168263   3.188   0.785   2.215  0.8385 -2.3557  0.5053
15616TIP3    H268264   3.269   0.904   2.167 -2.6863  0.2162  0.4878
15617TIP3   OH268265   2.452   4.925  15.313  0.2081 -0.3638  0.1991
15617TIP3    H168266   2.503   4.920  15.394 -0.6425  2.4867  1.0124
15617TIP3    H268267   2.363   4.944  15.342 -0.3290 -0.2854 -1.3996
15618TIP3   OH268268   5.749   0.903   6.095 -0.4894 -0.5641  0.0372
15618TIP3    H168269   5.818   0.836   6.095 -0.8159 -0.9042 -0.5350
15618TIP3    H268270   5.763   0.951   6.177  1.1890  0.1775 -0.6459
15619TIP3   OH268271   2.187   5.387  14.181  0.0647 -0.0632 -0.3993
15619TIP3    H168272   2.140   5.322  14.129  0.6722 -0.1768 -0.8194
15619TIP3    H268273   2.142   5.469  14.163  0.2233 -0.1130 -1.0585
15620TIP3   OH268274   5.521   0.825  16.794  0.4575  0.2578  0.1538
15620TIP3    H168275   5.458   0.753  16.787  1.1133 -0.2201 -1.3393
15620TIP3    H268276   5.519   0.850  16.886  1.1753 -2.5568  1.0362
15621TIP3   OH268277   5.425   1.776   3.504  0.6199 -0.0783  0.1430
15621TIP3    H168278   5.412   1.687   3.470  1.1283 -0.1146  0.0393
15621TIP3    H268279   5.490   1.766   3.574 -1.5443 -0.2593  2.2722
15622TIP3   OH268280   4.224   3.060   3.638 -1.0657 -0.1505  0.0669
15622TIP3    H168281   4.277   2.982   3.620 -0.6038  0.6127 -2.2687
15622TIP3    H268282   4.134   3.032   3.623 -1.3975 -1.2491  3.3111
15623TIP3   OH268283   3.681   1.191   1.542 -0.3870  0.0672 -0.5872
15623TIP3    H168284   3.621   1.265   1.556  0.6895  0.6048  1.5313
15623TIP3    H268285   3.624   1.120   1.511 -1.9312  0.9170  0.1668
15624TIP3   OH268286   1.358   2.907  12.915  0.5159  0.4397 -0.0775
15624TIP3    H168287   1.307   2.866  12.985 -0.2734  0.4152 -0.6527
15624TIP3    H268288   1.432   2.848  12.901 -0.6200 -0.8345 -0.9117
15625TIP3   OH268289   5.297   1.058   2.471 -0.3516  0.0910 -0.2036
15625TIP3    H168290   5.320   1.119   2.541 -0.9377 -1.3492  1.3178
15625TIP3    H268291   5.256   1.113   2.404 -1.7193  1.2684  1.4947
15626TIP3   OH268292   2.494   1.808  14.381  0.4546  0.3708  0.2131
15626TIP3    H168293   2.574   1.831  14.430 -0.0304  4.4567 -0.5884
15626TIP3    H268294   2.527   1.774  14.298  1.3701  0.7530  0.3989
15627TIP3   OH268295   2.805   0.316  13.368  0.5892 -0.0085 -0.0121
15627TIP3    H168296   2.783   0.409  13.377  0.6472 -0.0388  0.4517
15627TIP3    H268297   2.726   0.276  13.331  0.4068  0.1462  0.2092
15628TIP3   OH268298   5.340   1.710  16.515  0.5356 -0.2955 -0.3165
15628TIP3    H168299   5.360   1.761  16.593  0.1655  0.2412 -0.5640
15628TIP3    H268300   5.333   1.774  16.445 -0.6088 -0.6033 -0.5065
15629TIP3   OH268301   1.566   5.066  15.331  0.1756 -0.3104  0.1116
15629TIP3    H168302   1.653   5.077  15.294  0.6447  2.0844  1.7293
15629TIP3    H268303   1.515   5.140  15.296 -1.2566 -1.6386 -0.7731
15630TIP3   OH268304   1.832   2.354   2.584 -0.0945 -0.1003  0.0568
15630TIP3    H168305   1.761   2.322   2.639  1.0082 -1.4414  0.7581
15630TIP3    H268306   1.885   2.408   2.643 -0.6785  1.1634 -0.5425
15631TIP3   OH268307   2.547   0.106  11.084 -0.4540 -0.1135  0.0928
15631TIP3    H168308   2.540   0.170  11.014 -1.2563 -0.9924 -0.6613
15631TIP3    H268309   2.457   0.098  11.118 -0.1468  0.0115  0.9463
15632TIP3   OH268310   3.388   2.905  12.797  0.1130  0.6191  0.4756
15632TIP3    H168311   3.455   2.923  12.732 -0.7219  1.5946 -0.1555
15632TIP3    H268312   3.338   2.987  12.803 -1.3097 -0.2174  0.5726
15633TIP3   OH268313   6.078   6.210   3.482  0.5205 -0.0039 -0.0352
15633TIP3    H168314   6.068   6.118   3.506  0.7432  0.3737  1.6370
15633TIP3    H268315   6.159   6.237   3.525 -1.5627  1.9943  3.0333
15634TIP3   OH268316   0.284   0.857   6.779 -0.7962  0.1209  0.0504
15634TIP3    H168317   0.290   0.930   6.717 -0.3109 -1.4469 -1.8630
15634TIP3    H268318   0.376   0.836   6.800 -0.8447 -0.9500 -0.7193
15635TIP3   OH268319   1.672   0.314  13.872  0.7785  0.0019 -0.2638
15635TIP3    H168320   1.691   0.377  13.803 -0.5542  0.9607  0.1922
15635TIP3    H268321   1.755   0.300  13.916  0.9701  2.1335  0.1492
15636TIP3   OH268322   0.366   3.787   0.617  0.1401  0.0346  0.1315
15636TIP3    H168323   0.311   3.857   0.581 -0.4998 -0.6168 -0.1785
15636TIP3    H268324   0.449   3.830   0.637 -0.1934  0.8525 -0.1872
15637TIP3   OH268325   3.257   3.756  16.676  0.9708 -0.4528  0.3846
15637TIP3    H168326   3.165   3.749  16.651  1.1348 -0.0587 -0.3302
15637TIP3    H268327   3.292   3.668  16.664  1.1856 -0.1580 -1.3435
15638TIP3   OH268328   0.696   1.616   3.506  0.2198  0.1581 -0.1737
15638TIP3    H168329   0.657   1.667   3.577  0.7887 -2.2854  2.0487
15638TIP3    H268330   0.626   1.557   3.478  0.3624  0.2946 -0.8266
15639TIP3   OH268331   1.796   1.730   1.277  0.3470 -0.1534  0.7543
15639TIP3    H168332   1.854   1.805   1.285 -0.8327  0.7274  1.5116
15639TIP3    H268333   1.814   1.693   1.191  2.7229 -0.5466  1.3609
15640TIP3   OH268334   0.626   6.689  12.903  0.4439  0.2630  0.7615
15640TIP3    H168335   0.624   6.704  12.808  1.1826  1.4189  0.9063
15640TIP3    H268336   0.666   6.603  12.912 -0.9542 -0.5089 -0.0129
15641TIP3   OH268337   0.134   1.324  16.525  0.1066 -0.0899 -0.0531
15641TIP3    H168338   0.219   1.346  16.563  0.7286 -2.8163  0.3157
15641TIP3    H268339   0.082   1.292  16.599 -0.7987  0.3209 -0.4968
15642TIP3   OH268340   3.203   2.422  16.448  0.0362  0.6621 -0.0863
15642TIP3    H168341   3.228   2.490  16.511  1.4973  0.0235  0.0648
15642TIP3    H268342   3.237   2.341  16.486 -0.2762  0.0701 -1.0430
15643TIP3   OH268343   4.233   4.845  13.628 -0.0684  0.4946  0.0279
15643TIP3    H168344   4.325   4.867  13.645 -0.3049  0.3082  1.8129
15643TIP3    H268345   4.187   4.929  13.627  0.0681  0.5644 -0.5200
15644TIP3   OH268346   5.443   4.941  16.767  0.1745 -0.1624 -0.1320
15644TIP3    H168347   5.428   4.938  16.862  0.4390 -2.6220 -0.1027
15644TIP3    H268348   5.538   4.940  16.758  0.1490  0.0312 -0.4217
15645TIP3   OH268349   0.889   2.947   3.412  0.0657 -0.1680  0.3892
15645TIP3    H168350   0.918   2.895   3.337  2.0113 -0.4976  1.2876
15645TIP3    H268351   0.796   2.964   3.396  0.1177 -1.3341 -1.4244
15646TIP3   OH268352   6.657   5.664   3.717  0.1746 -0.1731  0.1564
15646TIP3    H168353   6.624   5.623   3.636 -1.2112 -1.9915  1.5521
15646TIP3    H268354   6.734   5.613   3.740 -0.2402 -0.5722  0.6931
15647TIP3   OH268355   0.604   4.468  16.213 -0.5559 -0.6727 -0.5021
15647TIP3    H168356   0.548   4.417  16.271  0.2050  0.4982  1.3764
15647TIP3    H268357   0.652   4.403  16.162 -1.3260 -1.7514  0.1099
15648TIP3   OH268358   5.990   5.541  15.012 -0.3514 -0.2551  0.0634
15648TIP3    H168359   6.055   5.611  15.003  0.5913 -1.0039  0.8435
15648TIP3    H268360   5.977   5.509  14.922  0.3038 -0.0391 -0.1144
15649TIP3   OH268361   0.354   4.759   2.302  0.4105 -0.3783 -0.2087
15649TIP3    H168362   0.398   4.676   2.323 -0.5629 -0.4289  1.8630
15649TIP3    H268363   0.291   4.736   2.233 -0.3967 -1.5630  0.8822
15650TIP3   OH268364   2.897   6.417  16.761  0.4063  0.5196 -0.3295
15650TIP3    H168365   2.819   6.378  16.721  1.6067 -1.6633 -0.7178
15650TIP3    H268366   2.928   6.480  16.696 -0.3270  0.4968 -0.7176
15651TIP3   OH268367   0.957   2.881  13.982  0.4431  0.4780  0.6908
15651TIP3    H168368   0.930   2.882  13.890  1.8025 -1.8487  0.1805
15651TIP3    H268369   0.878   2.859  14.030  0.1333 -0.2489 -0.1369
15652TIP3   OH268370   6.618   4.724  15.779  0.6229  0.4481  0.2143
15652TIP3    H168371   6.578   4.799  15.823  1.3236  0.3644  1.0184
15652TIP3    H268372   6.631   4.753  15.689 -0.2499  0.8462  0.2108
15653TIP3   OH268373   1.309   5.198  13.309  0.1261  0.9639 -0.4230
15653TIP3    H168374   1.399   5.175  13.335 -0.3563 -0.3155  0.1831
15653TIP3    H268375   1.276   5.249  13.384 -0.1048  0.2568 -0.0390
15654TIP3   OH268376   5.623   0.728  13.236  0.3261 -0.6273 -0.0585
15654TIP3    H168377   5.656   0.811  13.270 -0.6802  0.1411 -0.8937
15654TIP3    H268378   5.700   0.672  13.233  1.3702  0.7893 -1.0217
15655TIP3   OH268379   2.531   6.604  15.915  0.2672  0.3080 -0.1255
15655TIP3    H168380   2.501   6.676  15.858 -0.6271  0.3039  0.3268
15655TIP3    H268381   2.511   6.525  15.865  0.3452  0.3380 -0.2046
15656TIP3   OH268382   1.180   5.426   5.328 -0.3838 -0.2948  0.1718
15656TIP3    H168383   1.089   5.394   5.332  0.2350 -2.0522  2.2510
15656TIP3    H268384   1.233   5.348   5.346  1.4131  1.1339  1.3475
15657TIP3   OH268385   2.271   6.597  11.538  0.3035 -0.2661  0.5077
15657TIP3    H168386   2.206   6.574  11.604  0.4422 -0.4298  0.5876
15657TIP3    H268387   2.272   6.522  11.478  0.0038 -0.0158  0.1812
15658TIP3   OH268388   0.283   6.195  11.024  0.0057 -0.1035 -0.1848
15658TIP3    H168389   0.242   6.115  11.057  2.6860 -1.2129  0.7428
15658TIP3    H268390   0.325   6.234  11.101 -0.2653  1.5917 -0.8552
15659TIP3   OH268391   4.658   6.263  12.722  0.0833  0.0019  0.0266
15659TIP3    H168392   4.632   6.189  12.667  0.0782  0.6409 -0.8594
15659TIP3    H268393   4.579   6.317  12.727  1.2940  2.4049 -3.4131
15660TIP3   OH268394   4.951   3.696  13.238  0.3318 -0.3553  0.1177
15660TIP3    H168395   4.912   3.652  13.163 -1.2156 -1.0011  1.2522
15660TIP3    H268396   4.961   3.628  13.304 -1.0067  0.6925  1.4921
15661TIP3   OH268397   4.694   5.008   1.000 -0.2224 -0.1711 -0.3879
15661TIP3    H168398   4.701   4.915   1.021 -0.5436 -0.1434 -0.1523
15661TIP3    H268399   4.638   5.044   1.069 -1.2699 -0.0693 -1.2712
15662TIP3   OH268400   5.410   6.411  11.613 -0.0335  0.0628  0.2066
15662TIP3    H168401   5.327   6.457  11.621 -0.4287 -0.3982 -1.0363
15662TIP3    H268402   5.413   6.381  11.522  0.8089 -1.2173  0.6144
15663TIP3   OH268403   6.537   5.048   5.468  0.4175  0.2173 -0.3057
15663TIP3    H168404   6.625   5.019   5.444 -0.3733 -0.7613 -2.2352
15663TIP3    H268405   6.488   5.047   5.385 -2.2430 -2.3199  1.1181
15664TIP3   OH268406   1.989   0.730   5.338 -0.0574  0.3009  0.3907
15664TIP3    H168407   1.955   0.812   5.375  1.6954  0.9292  0.6965
15664TIP3    H268408   2.033   0.756   5.258 -0.8019 -0.5841 -0.3304
15665TIP3   OH268409   6.424   2.917  12.668  0.0753 -0.5327 -0.3011
15665TIP3    H168410   6.398   2.861  12.595  0.4020 -1.1956  0.0851
15665TIP3    H268411   6.517   2.899  12.680  0.1982  0.1422 -0.2149
15666TIP3   OH268412   1.405   4.832   1.923 -0.6203  0.2873  0.6293
15666TIP3    H168413   1.357   4.860   1.846  1.4211 -0.4642 -1.0018
15666TIP3    H268414   1.394   4.737   1.925  0.6714  0.1180  0.2943
15667TIP3   OH268415   2.550   3.399   6.756  0.0291 -0.5893 -0.4157
15667TIP3    H168416   2.480   3.432   6.700 -1.2637  0.0955  1.4825
15667TIP3    H268417   2.538   3.304   6.757 -0.7821 -0.4932 -0.2496
15668TIP3   OH268418   0.303   1.144  14.230 -0.2611  0.2183  0.5663
15668TIP3    H168419   0.370   1.203  14.195  1.7640 -0.6125  2.8216
15668TIP3    H268420   0.308   1.066  14.174 -0.0475  0.5453  0.1272
15669TIP3   OH268421   1.748   5.352   1.914 -0.6208  0.1106 -0.0545
15669TIP3    H168422   1.724   5.262   1.893  0.5097 -0.2125 -0.0241
15669TIP3    H268423   1.807   5.345   1.990  0.6246  0.7315 -0.9189
15670TIP3   OH268424   6.077   4.440   4.819 -0.0204  0.4166 -0.1018
15670TIP3    H168425   6.168   4.429   4.849 -0.1192 -1.8925 -0.4436
15670TIP3    H268426   6.028   4.374   4.867 -1.7158  2.1005  0.6072
15671TIP3   OH268427   0.289   1.263  16.269 -0.0366  0.3706  0.5413
15671TIP3    H168428   0.239   1.275  16.349 -0.8510 -0.9470  0.2668
15671TIP3    H268429   0.267   1.174  16.240  0.7538  0.5712 -0.7775
15672TIP3   OH268430   0.443   3.661  13.620  0.1239  0.7701 -0.5574
15672TIP3    H168431   0.442   3.630  13.711 -0.1271  0.6460 -0.6012
15672TIP3    H268432   0.515   3.613  13.579 -0.5267 -0.0962 -0.7361
15673TIP3   OH268433   2.315   5.488  14.434 -0.4310 -0.2541 -0.0609
15673TIP3    H168434   2.253   5.495  14.506  0.1117  0.0962  0.3851
15673TIP3    H268435   2.276   5.424  14.375 -1.1759 -0.0935  0.2432
15674TIP3   OH268436   2.107   6.312  16.787  0.4944  0.5035  0.0361
15674TIP3    H168437   2.112   6.217  16.797  1.0047  0.5023 -0.1961
15674TIP3    H268438   2.190   6.344  16.822  0.6643  0.7965 -0.6103
15675TIP3   OH268439   3.332   3.953  12.706 -0.0436  0.0758 -0.1935
15675TIP3    H168440   3.417   3.920  12.733  0.3840  1.1754 -0.1880
15675TIP3    H268441   3.284   3.965  12.788 -0.1579 -0.4002 -0.1872
15676TIP3   OH268442   3.848   6.696   1.717 -0.1766  0.1078 -0.3753
15676TIP3    H168443   3.753   6.687   1.724 -0.0780  0.2366  1.6818
15676TIP3    H268444   3.866   6.781   1.758  0.8356  0.0917 -0.7766
15677TIP3   OH268445   1.504   3.497   6.530  0.3786 -0.0891  0.0472
15677TIP3    H168446   1.510   3.447   6.448 -0.7822 -0.5315  0.2090
15677TIP3    H268447   1.492   3.588   6.503 -1.4664 -0.4082 -0.3203
15678TIP3   OH268448   3.742   5.592  11.190  0.1957  1.1211 -0.7265
15678TIP3    H168449   3.779   5.606  11.277  0.9524  0.8878 -1.0007
15678TIP3    H268450   3.651   5.570  11.206  0.2144  1.5197 -0.0174
15679TIP3   OH268451   1.586   3.083  13.298  0.2026 -0.1487  0.2998
15679TIP3    H168452   1.527   3.073  13.373  0.7774  0.6656  0.8766
15679TIP3    H268453   1.529   3.113  13.227 -0.4208 -1.3144  0.2826
15680TIP3   OH268454   6.495   3.294  12.367  0.7112  0.0345  0.2588
15680TIP3    H168455   6.405   3.263  12.376  1.1148 -1.0017  0.8284
15680TIP3    H268456   6.538   3.228  12.312  0.7633  1.2890 -1.2986
15681TIP3   OH268457   6.199   4.029  14.791  0.6129 -1.1435  0.5541
15681TIP3    H168458   6.165   3.977  14.719 -0.4095  0.2159 -0.0014
15681TIP3    H268459   6.243   4.103  14.749  0.1429 -0.4171  1.3091
15682TIP3   OH268460   5.412   5.137   4.991 -0.0963 -0.1126 -0.0199
15682TIP3    H168461   5.377   5.151   5.079  0.0787 -0.8829  0.1808
15682TIP3    H268462   5.339   5.097   4.943 -0.9012  2.1471 -0.8481
15683TIP3   OH268463   2.340   4.865   1.069  0.1363  0.1443 -0.4254
15683TIP3    H168464   2.268   4.881   1.009  0.4543  1.2647 -0.5355
15683TIP3    H268465   2.302   4.813   1.140 -0.2662 -1.1117 -1.5282
15684TIP3   OH268466   2.077   4.288  15.946 -0.1934  0.0691  0.0088
15684TIP3    H168467   2.107   4.352  15.882 -0.2153  1.7870  1.6537
15684TIP3    H268468   2.141   4.292  16.017  0.3516 -2.4597 -0.2303
15685TIP3   OH268469   0.243   4.106  14.841 -0.3142 -0.0182 -0.1082
15685TIP3    H168470   0.226   4.155  14.922  0.5245  1.2466 -0.6528
15685TIP3    H268471   0.156   4.090  14.804 -0.6320  1.3833 -0.0559
15686TIP3   OH268472   3.453   6.691   4.003  0.7241  0.2154  0.0841
15686TIP3    H168473   3.472   6.626   4.072 -0.4638  1.4579  1.6638
15686TIP3    H268474   3.503   6.768   4.028 -0.3506  0.9530  0.0293
15687TIP3   OH268475   3.256   5.884   6.537  0.4052 -0.0828  0.2035
15687TIP3    H168476   3.176   5.831   6.536 -0.3566  1.0348  0.3905
15687TIP3    H268477   3.278   5.892   6.630  0.2308  0.3319  0.2126
15688TIP3   OH268478   0.141   2.471   2.245  0.2280  0.1680 -0.4202
15688TIP3    H168479   0.113   2.423   2.323 -0.7266 -1.1371 -1.4962
15688TIP3    H268480   0.102   2.558   2.255  2.0200  0.8158  1.5940
15689TIP3   OH268481   4.703   5.283  10.973  0.1725 -0.1434 -0.2368
15689TIP3    H168482   4.679   5.265  10.882 -2.3448 -2.7985  0.7580
15689TIP3    H268483   4.782   5.231  10.988  0.6239  0.3401 -0.8942
15690TIP3   OH268484   5.131   4.456  16.485  0.2889 -0.1560 -0.1917
15690TIP3    H168485   5.143   4.515  16.559  2.3928 -0.1144 -0.5152
15690TIP3    H268486   5.074   4.504  16.425 -2.9568 -0.8779  2.0402
15691TIP3   OH268487   5.237   6.731  14.981  0.1970  0.3573 -0.0665
15691TIP3    H168488   5.287   6.692  15.052  1.1333  0.2679 -0.7621
15691TIP3    H268489   5.146   6.709  15.001  0.4718  0.0987  0.9481
15692TIP3   OH268490   6.041   6.547  17.023 -0.1168  0.0843  0.5116
15692TIP3    H168491   6.073   6.598  16.949  0.7724 -0.1831  0.6979
15692TIP3    H268492   6.092   6.579  17.098  0.8577 -1.4153  0.5416
15693TIP3   OH268493   6.052   3.793   1.434 -0.4264  0.3130  0.2059
15693TIP3    H168494   6.074   3.700   1.437  0.2818  0.4135 -1.0726
15693TIP3    H268495   5.986   3.800   1.365  1.0191  1.0000 -1.1617
15694TIP3   OH268496   4.952   3.750   4.198 -0.1648 -1.1257 -0.6212
15694TIP3    H168497   4.898   3.827   4.215  0.7584  0.7385 -4.9586
15694TIP3    H268498   5.014   3.748   4.270  1.1374  3.6049 -1.3218
15695TIP3   OH268499   6.680   1.428   6.126 -0.3376  0.5758  0.0618
15695TIP3    H168500   6.699   1.405   6.217 -1.0971 -0.3293  0.0099
15695TIP3    H268501   6.711   1.518   6.116  0.9600  0.2442  0.8468
15696TIP3   OH268502   5.813   0.922  13.302  0.0256 -0.0745 -0.6139
15696TIP3    H168503   5.865   0.973  13.364  0.0186 -0.9179  0.1130
15696TIP3    H268504   5.864   0.924  13.221  1.4382 -1.2179  0.1917
15697TIP3   OH268505   4.197   2.858   4.860 -0.4629 -0.2910 -0.4183
15697TIP3    H168506   4.175   2.839   4.951 -0.4557  0.0357 -0.3496
15697TIP3    H268507   4.290   2.838   4.852  0.3751  2.7363  0.4804
15698TIP3   OH268508   1.702   5.170  12.034 -0.1851 -0.5281 -0.0557
15698TIP3    H168509   1.728   5.228  11.961  0.4468 -0.0749  0.5190
15698TIP3    H268510   1.652   5.101  11.992 -2.0517  1.0824 -0.6318
15699TIP3   OH268511   5.897   2.796   2.842 -0.0380  1.3178 -0.4875
15699TIP3    H168512   5.822   2.843   2.877  0.0120  0.9662  0.0966
15699TIP3    H268513   5.913   2.725   2.904  1.8190  2.3863  0.3401
15700TIP3   OH268514   6.673   4.434  17.111  0.3841  0.5820  0.2923
15700TIP3    H168515   6.729   4.357  17.096  0.9899  0.8685  1.0017
15700TIP3    H268516   6.659   4.470  17.024  1.9048  0.8951  0.1435
15701TIP3   OH268517   4.576   2.545  11.473 -0.8159 -0.2746 -0.3171
15701TIP3    H168518   4.503   2.585  11.520  0.0599 -0.3691  1.1704
15701TIP3    H268519   4.595   2.607  11.402 -0.2987  1.3676  1.1825
15702TIP3   OH268520   3.540   6.389   5.138 -0.7312  0.0569  0.3621
15702TIP3    H168521   3.465   6.336   5.168  0.3027 -3.3479 -2.3959
15702TIP3    H268522   3.616   6.346   5.178 -0.0104  1.3609  0.4215
15703TIP3   OH268523   6.550   2.537  12.788  0.2534 -0.1639  0.2853
15703TIP3    H168524   6.573   2.602  12.855  1.7682 -1.9797  1.6671
15703TIP3    H268525   6.462   2.560  12.761  0.5110  2.0948  1.1247
15704TIP3   OH268526   3.937   5.255   6.435 -0.2068  0.6919 -0.4296
15704TIP3    H168527   3.906   5.193   6.501 -0.6414  2.1751  0.8190
15704TIP3    H268528   4.031   5.237   6.427 -0.3539 -0.2155 -0.2062
15705TIP3   OH268529   0.932   4.098   1.085  0.1219  0.3818 -0.1759
15705TIP3    H168530   0.836   4.098   1.084  0.0546  2.6659 -0.0761
15705TIP3    H268531   0.958   4.078   0.995 -0.5550  2.2995 -0.8472
15706TIP3   OH268532   1.981   5.250   1.419 -0.5546  0.0385  0.1902
15706TIP3    H168533   1.902   5.262   1.367 -0.0029 -0.7133 -0.8649
15706TIP3    H268534   1.987   5.156   1.433  1.4467 -0.2439 -1.9342
15707TIP3   OH268535   3.792   6.486  15.606  0.5851  0.3029  0.0267
15707TIP3    H168536   3.804   6.391  15.608  0.7807  0.3050 -0.8733
15707TIP3    H268537   3.881   6.522  15.613  0.5936  0.4051 -0.5920
15708TIP3   OH268538   1.441   0.709   2.052  0.4853  0.3815 -0.3432
15708TIP3    H168539   1.531   0.681   2.066  0.6420  0.9824 -0.0978
15708TIP3    H268540   1.389   0.629   2.062  0.9044  0.1983  0.4695
15709TIP3   OH268541   3.078   0.299   0.821  0.1052  0.2030 -0.2792
15709TIP3    H168542   3.102   0.330   0.734  1.7941  2.7071  0.9615
15709TIP3    H268543   3.118   0.212   0.828  0.6402  0.3163 -1.6978
15710TIP3   OH268544   0.107   2.690  12.347  0.1388 -0.0944  0.1381
15710TIP3    H168545   0.181   2.748  12.364  0.7534 -0.4164 -1.2422
15710TIP3    H268546   0.094   2.694  12.252  0.1570 -2.1063 -0.0088
15711TIP3   OH268547   3.106   4.943   0.542 -0.0074 -0.8001  0.0921
15711TIP3    H168548   3.098   4.879   0.613 -2.3296 -0.2136  0.4590
15711TIP3    H268549   3.192   4.982   0.555 -0.4823 -0.4406  2.8894
15712TIP3   OH268550   1.111   4.490  14.564 -0.0555 -0.8573  0.3335
15712TIP3    H168551   1.062   4.461  14.487  0.8142 -0.7936 -0.2576
15712TIP3    H268552   1.203   4.476  14.540  0.3406  1.1146  0.5473
15713TIP3   OH268553   4.507   3.201  16.218  0.6291  0.6617  0.6966
15713TIP3    H168554   4.600   3.180  16.210  0.7888  1.4129  0.4400
15713TIP3    H268555   4.463   3.117  16.227  1.2994  0.2774  0.4171
15714TIP3   OH268556   6.384   4.249  11.200  0.1826  0.0202  0.1427
15714TIP3    H168557   6.478   4.256  11.214  0.1156  1.0767  0.1812
15714TIP3    H268558   6.353   4.340  11.199 -0.6050 -0.2257 -1.4136
15715TIP3   OH268559   6.412   5.983   0.331 -0.0110  0.1004  0.3831
15715TIP3    H168560   6.337   6.038   0.306  0.7621  0.7330 -0.6214
15715TIP3    H268561   6.440   5.941   0.249  0.9564  0.1579  0.6698
15716TIP3   OH268562   0.175   3.793  10.856 -0.3338  0.1191 -0.0033
15716TIP3    H168563   0.156   3.834  10.940  0.2905 -0.0308  0.2143
15716TIP3    H268564   0.266   3.763  10.863  0.2468  1.4589 -1.2748
15717TIP3   OH268565   0.886   0.549  15.175  0.2237 -0.3217  0.0684
15717TIP3    H168566   0.955   0.601  15.215  0.4917  0.6114 -1.5448
15717TIP3    H268567   0.915   0.458  15.187  2.3202  0.0652 -1.5339
15718TIP3   OH268568   0.372   1.947   6.522 -0.2358 -0.2169  0.2126
15718TIP3    H168569   0.347   1.926   6.612  0.2387 -0.6302  0.2555
15718TIP3    H268570   0.290   1.944   6.473 -0.5304  0.2523  0.6722
15719TIP3   OH268571   2.932   4.377   3.457  0.1949  0.0742  0.2322
15719TIP3    H168572   3.022   4.351   3.479  0.4739  1.6080  1.0564
15719TIP3    H268573   2.877   4.312   3.501  0.8748  0.2186  1.3338
15720TIP3   OH268574   5.806   4.776  13.331  0.1463  0.4605  0.6584
15720TIP3    H168575   5.774   4.725  13.405 -1.2604 -0.0999 -0.3016
15720TIP3    H268576   5.732   4.781  13.271  0.9791  1.6544 -0.3271
15721TIP3   OH268577   0.675   0.231   3.553 -0.5764  0.1440  0.0503
15721TIP3    H168578   0.636   0.229   3.465 -0.3679 -1.7865 -0.0431
15721TIP3    H268579   0.769   0.220   3.538 -0.7912 -3.4265  0.5605
15722TIP3   OH268580   2.713   0.313  16.895  0.1915 -0.2113 -0.9152
15722TIP3    H168581   2.703   0.227  16.935 -2.4600 -0.1139 -1.1798
15722TIP3    H268582   2.703   0.375  16.967 -0.2809 -0.1057 -1.0655
15723TIP3   OH268583   0.380   4.840  12.902 -0.0365  0.4043 -0.7789
15723TIP3    H168584   0.447   4.812  12.840  0.8461 -0.4040  0.4903
15723TIP3    H268585   0.429   4.866  12.980 -1.1447  0.7993 -0.1931
15724TIP3   OH268586   0.226   0.673   3.972  0.4368  0.4264  0.0774
15724TIP3    H168587   0.221   0.636   4.060  2.3002 -1.5495 -0.5486
15724TIP3    H268588   0.178   0.612   3.917  1.4709  0.2189 -0.6263
15725TIP3   OH268589   2.859   1.745   6.307 -0.1273 -0.3267  0.5086
15725TIP3    H168590   2.792   1.801   6.267 -0.7542 -1.0587  0.5057
15725TIP3    H268591   2.843   1.753   6.401  0.6735  0.5694  0.5844
15726TIP3   OH268592   6.220   3.400   0.927 -0.5149 -0.2983  0.4165
15726TIP3    H168593   6.214   3.318   0.879  0.2185 -0.6079  0.8374
15726TIP3    H268594   6.307   3.399   0.966  0.1406  1.3998 -0.8721
15727TIP3   OH268595   0.851   4.495  15.964  0.0515 -0.1263 -0.2416
15727TIP3    H168596   0.878   4.425  16.023  4.3824 -0.6927 -2.4923
15727TIP3    H268597   0.793   4.452  15.901 -1.3963 -0.3967  1.1955
15728TIP3   OH268598   6.133   3.133  16.359  0.5973 -0.1284 -0.1187
15728TIP3    H168599   6.065   3.083  16.315  0.0624  0.0771  0.4575
15728TIP3    H268600   6.211   3.077  16.356  0.1334 -0.7859  0.0917
15729TIP3   OH268601   2.716   5.187  12.792 -0.5811  0.8173 -0.1518
15729TIP3    H168602   2.674   5.114  12.746 -0.1750 -0.8081  1.9113
15729TIP3    H268603   2.809   5.176  12.774 -0.2986 -0.4543  1.7208
15730TIP3   OH268604   0.401   1.894  14.868  0.8977 -0.0323  0.2643
15730TIP3    H168605   0.359   1.835  14.805 -1.8244  2.2033 -0.1947
15730TIP3    H268606   0.426   1.837  14.940  0.7899 -2.1128 -1.2415
15731TIP3   OH268607   5.054   3.138  14.502  0.1221 -0.3735 -0.1623
15731TIP3    H168608   5.082   3.067  14.559  1.1028  0.2866  0.1947
15731TIP3    H268609   5.092   3.117  14.416  2.4123  0.8537  0.4654
15732TIP3   OH268610   3.185   2.314   1.424 -0.3135 -0.1629  0.0554
15732TIP3    H168611   3.090   2.317   1.437 -0.4036  0.6551 -0.6524
15732TIP3    H268612   3.205   2.395   1.377  0.1384 -2.1721 -3.6067
15733TIP3   OH268613   0.818   4.561  14.193  0.3322 -0.0282 -0.5298
15733TIP3    H168614   0.889   4.579  14.131  0.1629 -0.8224 -0.9642
15733TIP3    H268615   0.842   4.477  14.232  1.0807  1.0369  1.4124
15734TIP3   OH268616   2.884   3.282  15.621  0.5914 -0.1416  0.1115
15734TIP3    H168617   2.890   3.249  15.532  0.7048  2.3606 -0.9000
15734TIP3    H268618   2.956   3.345  15.628  0.3918 -0.0451  1.8842
15735TIP3   OH268619   6.140   5.936  14.041 -0.2975 -0.6734  0.6539
15735TIP3    H168620   6.070   5.879  14.012  0.4324 -0.9972 -0.5401
15735TIP3    H268621   6.165   5.986  13.963  1.1279 -0.9255  0.9113
15736TIP3   OH268622   0.111   6.394   4.068 -0.2047  0.1567 -0.5655
15736TIP3    H168623   0.042   6.350   4.119 -0.1335 -1.1673 -1.5500
15736TIP3    H268624   0.186   6.335   4.075 -0.0480  0.1966 -1.7883
15737TIP3   OH268625   3.317   0.273   5.942  0.3716 -0.3994 -0.8920
15737TIP3    H168626   3.296   0.179   5.943  2.3477 -0.9603 -3.0864
15737TIP3    H268627   3.394   0.280   5.999 -1.3715  0.4627  1.5303
15738TIP3   OH268628   1.887   6.091   3.694 -0.2729 -0.2620 -0.1518
15738TIP3    H168629   1.856   6.129   3.612  0.9175  0.3877 -0.3254
15738TIP3    H268630   1.913   6.001   3.670  1.2327  0.3083 -0.8039
15739TIP3   OH268631   2.046   0.386   5.304 -0.1197  0.5545  0.7663
15739TIP3    H168632   2.128   0.412   5.262 -0.9144  2.2249  0.1424
15739TIP3    H268633   2.049   0.290   5.307  0.4146  0.3866 -2.2657
15740TIP3   OH268634   4.119   0.988   1.459 -0.1273 -0.2040  0.1516
15740TIP3    H168635   4.108   1.074   1.500  0.2601 -1.1149  2.3214
15740TIP3    H268636   4.201   0.995   1.411 -0.3059  0.7532 -0.0356
15741TIP3   OH268637   5.649   1.320  11.534  0.2473 -0.3881 -0.3802
15741TIP3    H168638   5.683   1.232  11.518  2.4398  0.2340  0.5017
15741TIP3    H268639   5.627   1.321  11.627 -1.5149 -0.5088 -0.7531
15742TIP3   OH268640   1.305   0.195  12.070 -0.2577 -0.5065  0.4039
15742TIP3    H168641   1.297   0.264  12.003 -0.3790  0.4068  1.3366
15742TIP3    H268642   1.385   0.218  12.118 -1.3727  0.1835  2.0213
15743TIP3   OH268643   4.985   3.865   5.080  0.8674  0.0805  0.4865
15743TIP3    H168644   4.966   3.941   5.134 -0.4617  0.5575 -0.6167
15743TIP3    H268645   5.067   3.887   5.036  0.1098  1.2091 -0.4015
15744TIP3   OH268646   2.307   2.958   2.899 -0.0160  0.3811 -0.0871
15744TIP3    H168647   2.300   3.026   2.967  0.5420 -0.4872  0.8657
15744TIP3    H268648   2.358   2.888   2.940  0.5871 -0.0517 -1.5152
15745TIP3   OH268649   5.048   1.612   0.921 -0.0885  0.3723  0.0925
15745TIP3    H168650   5.026   1.695   0.962  3.7615  1.7313 -0.2029
15745TIP3    H268651   4.973   1.555   0.939 -2.4445  3.5529  1.1657
15746TIP3   OH268652   1.069   3.540   4.340 -0.9126  0.1352  0.1697
15746TIP3    H168653   1.010   3.547   4.264  0.0016  0.9119 -0.4860
15746TIP3    H268654   1.065   3.447   4.364  1.3997 -0.9645 -3.0115
15747TIP3   OH268655   3.610   6.404   0.880 -0.1959  0.9426  0.1062
15747TIP3    H168656   3.516   6.387   0.879  0.1890 -1.4289 -0.5434
15747TIP3    H268657   3.646   6.347   0.813  1.9732  0.0864  1.8602
15748TIP3   OH268658   3.558   3.448   0.935  0.2530 -0.3433  0.1557
15748TIP3    H168659   3.527   3.361   0.962 -1.2029  0.0420 -0.2061
15748TIP3    H268660   3.488   3.483   0.881  0.9572  0.9465  0.0425
15749TIP3   OH268661   0.223   1.811   3.241 -0.2845  0.2536  0.0140
15749TIP3    H168662   0.317   1.797   3.247 -0.3427  0.4276  2.6115
15749TIP3    H268663   0.198   1.843   3.328 -2.8857 -0.7025 -0.2887
15750TIP3   OH268664   0.810   3.184  13.208 -0.4022  0.0424  0.0588
15750TIP3    H168665   0.793   3.103  13.255  2.2288 -0.6289 -0.0299
15750TIP3    H268666   0.868   3.234  13.265  0.1525  0.6724 -1.0156
15751TIP3   OH268667   5.631   5.104   0.253  0.6177 -0.7504 -0.4414
15751TIP3    H168668   5.726   5.101   0.264  0.5647 -0.4828  0.1174
15751TIP3    H268669   5.618   5.136   0.163  1.0569 -0.0402 -0.2616
15752TIP3   OH268670   4.270   4.120  12.793 -0.7538  0.6502 -0.2891
15752TIP3    H168671   4.177   4.132  12.813 -1.0341 -1.0920 -0.3855
15752TIP3    H268672   4.273   4.110  12.698 -0.5175  0.3606 -0.2535
15753TIP3   OH268673   2.162   2.474   2.461 -0.1634 -0.3394  0.4817
15753TIP3    H168674   2.183   2.489   2.553  0.0973 -1.1342  0.5591
15753TIP3    H268675   2.244   2.441   2.423 -0.4522 -0.6563  0.1240
15754TIP3   OH268676   1.812   1.680   0.921 -0.5992 -0.1637  0.7055
15754TIP3    H168677   1.764   1.755   0.887 -0.6839 -1.1364 -1.5637
15754TIP3    H268678   1.749   1.608   0.918  0.4100 -1.0498 -0.5494
15755TIP3   OH268679   1.641   6.598  11.342  0.0746 -0.0942  0.1034
15755TIP3    H168680   1.621   6.592  11.248  0.7199 -1.5799  0.0463
15755TIP3    H268681   1.732   6.629  11.345  0.1215 -0.2431  0.2338
15756TIP3   OH268682   3.795   1.010   0.520  0.0608 -0.2562  0.2929
15756TIP3    H168683   3.810   0.929   0.568 -1.0837 -0.1036  0.9562
15756TIP3    H268684   3.709   1.040   0.551 -1.3053 -0.7594 -2.7290
15757TIP3   OH268685   1.029   2.137  12.224  0.4915  0.3251 -0.1013
15757TIP3    H168686   1.058   2.069  12.163 -1.5813  0.2150 -1.0563
15757TIP3    H268687   1.079   2.120  12.304  1.5432 -1.0168 -0.9838
15758TIP3   OH268688   4.605   0.856  13.967  0.3628  0.2800 -0.4275
15758TIP3    H168689   4.647   0.770  13.962  1.8386  0.8537  1.1272
15758TIP3    H268690   4.640   0.905  13.892  0.9196  0.1151 -0.2714
15759TIP3   OH268691   3.216   5.640  12.518 -0.0161  0.4349 -0.4945
15759TIP3    H168692   3.129   5.603  12.532  0.6701 -0.6245  1.3505
15759TIP3    H268693   3.221   5.713  12.580  0.5853  0.1390 -0.1804
15760TIP3   OH268694   6.014   5.761  11.646  0.1776 -0.5238 -0.7582
15760TIP3    H168695   6.000   5.715  11.729 -2.5251  2.3437  0.5875
15760TIP3    H268696   5.938   5.738  11.593 -0.0112  0.5476 -0.9664
15761TIP3   OH268697   6.143   6.081   6.214  0.0822  0.2037  0.1775
15761TIP3    H168698   6.187   6.001   6.242 -1.9687 -1.3307 -0.7361
15761TIP3    H268699   6.163   6.145   6.283  0.5670 -1.5154  1.6970
15762TIP3   OH268700   6.540   1.860   6.547 -0.2081  0.4603 -0.1138
15762TIP3    H168701   6.610   1.915   6.581 -0.8048 -0.1921  2.3519
15762TIP3    H268702   6.466   1.919   6.536 -0.1636  0.5781  0.2304
15763TIP3   OH268703   1.985   6.323  17.121 -0.5204  0.3117  0.2307
15763TIP3    H168704   2.040   6.397  17.146 -0.1893 -0.7306  2.9576
15763TIP3    H268705   1.937   6.353  17.044  0.1580  3.0546  0.7839
15764TIP3   OH268706   5.834   3.521   1.867 -0.4289  0.2654 -0.3528
15764TIP3    H168707   5.777   3.457   1.910  0.5694 -2.4598 -2.7298
15764TIP3    H268708   5.865   3.476   1.789  1.9645  3.0270 -1.1650
15765TIP3   OH268709   3.630   0.074   5.484  0.2496 -0.2293 -0.0009
15765TIP3    H168710   3.722   0.098   5.494  0.5135 -1.3106  0.2980
15765TIP3    H268711   3.629   0.014   5.410 -0.1292 -0.6578  0.3452
15766TIP3   OH268712   6.583   5.469  12.131  0.4854 -0.2680  0.4918
15766TIP3    H168713   6.560   5.546  12.079 -1.5682 -2.1494 -1.6364
15766TIP3    H268714   6.532   5.479  12.212 -1.8711 -0.5332 -0.8548
15767TIP3   OH268715   2.461   0.353  10.914  0.2718 -0.0528 -0.5610
15767TIP3    H168716   2.512   0.434  10.919 -0.3724  0.3929 -0.9655
15767TIP3    H268717   2.408   0.354  10.994  0.5814 -0.2997 -0.3512
15768TIP3   OH268718   5.886   6.700  17.286  0.1444 -0.1332  0.9111
15768TIP3    H168719   5.852   6.770  17.342  0.4938 -2.6498  4.6162
15768TIP3    H268720   5.981   6.704  17.297  0.3588  0.3661 -0.9393
15769TIP3   OH268721   4.147   1.277  17.334 -0.0278 -0.0652 -0.0064
15769TIP3    H168722   4.095   1.313  17.262 -0.5763 -0.0781  0.3861
15769TIP3    H268723   4.227   1.331  17.335 -0.2596  0.2875 -0.2704
15770TIP3   OH268724   0.984   5.255  12.913 -0.1736 -0.2701 -0.1135
15770TIP3    H168725   1.008   5.290  12.999  2.2552 -1.3022 -0.2941
15770TIP3    H268726   1.067   5.222  12.877 -1.6430 -2.7251 -1.5177
15771TIP3   OH268727   6.304   0.029   0.402 -0.0446 -0.4031 -0.6976
15771TIP3    H168728   6.262   0.113   0.387 -1.3555 -0.7608  0.6812
15771TIP3    H268729   6.233  -0.030   0.427  0.7475 -2.0868 -2.1486
15772TIP3   OH268730   3.813   1.183  15.508 -0.2464 -0.0491  0.4235
15772TIP3    H168731   3.792   1.118  15.575  0.0559 -0.5539  0.0321
15772TIP3    H268732   3.749   1.168  15.439  0.6320 -0.8082 -0.2480
15773TIP3   OH268733   5.096   0.474  16.645  0.0915 -0.2272 -0.4863
15773TIP3    H168734   5.142   0.402  16.688  0.8247 -0.6892 -1.9664
15773TIP3    H268735   5.036   0.431  16.584 -3.6188  0.2971  2.4656
15774TIP3   OH268736   1.018   5.928  13.982 -0.2534 -0.3612  0.0152
15774TIP3    H168737   0.944   5.927  14.043 -0.7932  0.6733 -0.5858
15774TIP3    H268738   1.073   5.856  14.010 -1.0382 -0.5875  1.0485
15775TIP3   OH268739   3.887   6.566  13.327 -0.3974  0.6209  0.3688
15775TIP3    H168740   3.980   6.570  13.304 -1.0239 -0.8902 -3.1489
15775TIP3    H268741   3.859   6.658  13.332  0.9832  1.0789  0.0826
15776TIP3   OH268742   1.173   1.550  14.121 -0.1936 -0.9042  0.2963
15776TIP3    H168743   1.165   1.517  14.210  0.3816 -0.1562  0.6373
15776TIP3    H268744   1.254   1.600  14.121 -1.4915  1.3524  0.0969
15777TIP3   OH268745   6.717   5.254  16.365 -0.1672 -0.5626  0.3402
15777TIP3    H168746   6.642   5.300  16.326 -0.4610  0.8692  2.4212
15777TIP3    H268747   6.679   5.202  16.436  0.6122 -1.2582  0.2663
15778TIP3   OH268748   0.528   0.866  11.354  0.0446 -0.4847  0.1593
15778TIP3    H168749   0.479   0.919  11.290  1.2075  0.7186  0.2338
15778TIP3    H268750   0.462   0.838  11.417 -1.2021 -1.9566 -1.6863
15779TIP3   OH268751   6.693   1.497  15.206 -0.0845 -0.3995 -0.7684
15779TIP3    H168752   6.669   1.492  15.113 -0.6234 -0.7183 -0.6129
15779TIP3    H268753   6.663   1.414  15.243 -0.2883 -0.0815 -0.2083
15780TIP3   OH268754   4.012   3.597   4.638  0.2223 -0.1276 -0.5162
15780TIP3    H168755   3.958   3.675   4.620 -0.7899 -0.6956  0.0034
15780TIP3    H268756   4.019   3.595   4.733  0.5933 -0.4436 -0.5526
15781TIP3   OH268757   6.182   3.025  12.071 -0.7254  0.1668  0.6782
15781TIP3    H168758   6.241   2.957  12.038 -0.5007  0.9168 -0.5129
15781TIP3    H268759   6.101   3.011  12.022 -0.7163  0.6786  0.5103
15782TIP3   OH268760   0.132   5.070   4.523  0.3079 -0.4476 -0.0631
15782TIP3    H168761   0.041   5.059   4.552 -0.3302  0.1732 -1.7122
15782TIP3    H268762   0.148   4.996   4.465  0.9400 -0.6778  0.3965
15783TIP3   OH268763   3.062   3.571  15.113 -0.3684 -0.3984  0.3264
15783TIP3    H168764   3.033   3.576  15.205 -0.0735 -0.6509  0.4338
15783TIP3    H268765   2.986   3.539  15.066 -0.1947 -1.2999  0.6448
15784TIP3   OH268766   6.114   4.956   5.868  0.4677  0.0255  0.5564
15784TIP3    H168767   6.120   5.035   5.921 -0.0880 -1.0131  2.2465
15784TIP3    H268768   6.032   4.966   5.819 -0.3259 -0.1013  1.8200
15785TIP3   OH268769   1.993   6.383   4.920  0.2490  0.3665 -0.4762
15785TIP3    H168770   2.041   6.439   4.981  1.1757  0.8811 -1.6404
15785TIP3    H268771   1.909   6.368   4.963  1.5817 -1.0012  1.8958
15786TIP3   OH268772   3.961   0.593  17.324 -0.3410 -0.0958 -0.5843
15786TIP3    H168773   3.985   0.507  17.289 -1.7087 -1.1076  0.8053
15786TIP3    H268774   3.981   0.586  17.418 -1.5640  0.6700 -0.2473
15787TIP3   OH268775   0.048   0.080   2.737 -0.0079 -0.4405  0.9274
15787TIP3    H168776   0.135   0.104   2.707 -0.0203 -0.6933  0.6778
15787TIP3    H268777  -0.011   0.116   2.670  0.0157 -1.7317  0.1822
15788TIP3   OH268778   3.961   1.882   3.861  0.2714  0.2073 -0.1687
15788TIP3    H168779   4.001   1.798   3.885  1.2578  0.6347 -0.3140
15788TIP3    H268780   3.867   1.868   3.878  0.5079 -0.6734  0.5389
15789TIP3   OH268781   1.360   2.910  15.197 -0.2982 -0.0584  0.3054
15789TIP3    H168782   1.350   2.879  15.287 -0.7506 -0.0655  0.2561
15789TIP3    H268783   1.419   2.985  15.204 -1.5045  0.8786  0.8115
15790TIP3   OH268784   0.582   6.588   3.307 -0.9123 -0.0822  0.5502
15790TIP3    H168785   0.530   6.564   3.231  1.9055 -2.3720 -0.8745
15790TIP3    H268786   0.648   6.648   3.273  0.3565 -1.0938  1.1097
15791TIP3   OH268787   1.891   5.363   3.801  0.0390 -0.3826 -0.6869
15791TIP3    H168788   1.932   5.395   3.720 -0.5010 -1.2528 -1.3090
15791TIP3    H268789   1.908   5.433   3.865 -0.2063  0.6780 -1.7469
15792TIP3   OH268790   1.845   2.277   4.571 -0.4384  0.6031 -0.8512
15792TIP3    H168791   1.789   2.339   4.524 -1.7568 -0.1017 -0.2646
15792TIP3    H268792   1.810   2.276   4.659  0.1399 -0.3181 -0.6244
15793TIP3   OH268793   4.896   2.474   0.401 -0.4902  0.0604  0.0747
15793TIP3    H168794   4.932   2.470   0.489  2.0666  0.0812 -0.9012
15793TIP3    H268795   4.807   2.508   0.413 -0.4994 -0.6934  2.6758
15794TIP3   OH268796   2.022   1.735   0.209  0.0065  0.5144 -0.3523
15794TIP3    H168797   2.047   1.669   0.273  0.9615  2.1213  1.0174
15794TIP3    H268798   2.061   1.705   0.127  1.0571 -0.2469  0.4013
15795TIP3   OH268799   6.394   6.462   0.102  0.0584 -0.4328  0.8822
15795TIP3    H168800   6.316   6.447   0.156 -1.0870 -0.9262 -0.8193
15795TIP3    H268801   6.438   6.377   0.098 -0.6094 -0.7551 -0.0359
15796TIP3   OH268802   4.091   2.842  12.874  0.1655 -0.7269 -0.0939
15796TIP3    H168803   4.004   2.856  12.837 -1.4104 -2.1212  2.6957
15796TIP3    H268804   4.139   2.923  12.856 -1.2235 -0.4007 -2.8125
15797TIP3   OH268805   1.011   3.610   0.119  0.0145  1.3282  0.2110
15797TIP3    H168806   1.045   3.536   0.171 -1.5516 -0.6314 -1.3904
15797TIP3    H268807   1.039   3.688   0.168  2.0737 -0.2659  1.7996
15798TIP3   OH268808   5.092   0.706   4.599 -0.2833  0.1976  0.1729
15798TIP3    H168809   5.073   0.619   4.634  0.9265 -0.5886 -1.0506
15798TIP3    H268810   5.163   0.739   4.654 -0.5960  0.3432  0.4981
15799TIP3   OH268811   5.383   1.533   4.339 -0.1744  0.6821  0.4349
15799TIP3    H168812   5.383   1.486   4.422 -0.1413  2.4637  1.4991
15799TIP3    H268813   5.292   1.559   4.326 -0.5127 -1.0390 -1.0062
15800TIP3   OH268814   3.420   3.668  15.845  0.1163 -0.6576  0.2495
15800TIP3    H168815   3.363   3.731  15.889 -1.2927 -0.6135 -1.5594
15800TIP3    H268816   3.471   3.720  15.783 -2.0948 -1.3475 -2.3229
15801TIP3   OH268817   3.414   4.044   1.209 -0.2100  0.4284 -0.5159
15801TIP3    H168818   3.502   4.017   1.234 -0.4506 -0.2248 -0.3553
15801TIP3    H268819   3.357   3.973   1.239 -0.8352  1.0126 -0.2881
15802TIP3   OH268820   6.148   3.396   4.176  0.3242  0.0413 -0.6461
15802TIP3    H168821   6.233   3.437   4.193 -0.0894  0.0169  1.8002
15802TIP3    H268822   6.128   3.421   4.086  3.4036 -0.8763 -1.7283
15803TIP3   OH268823   3.646   0.092  15.530  0.2520  0.1906  0.0920
15803TIP3    H168824   3.660   0.168  15.473  1.3546 -0.9668 -1.2232
15803TIP3    H268825   3.551   0.090  15.543 -0.1874 -0.1493 -2.6511
15804TIP3   OH268826   1.881   6.420  11.765 -0.2638  0.3122  0.4082
15804TIP3    H168827   1.882   6.355  11.696  1.4293 -1.0823  1.6642
15804TIP3    H268828   1.828   6.492  11.730 -0.8060 -1.0237 -1.6507
15805TIP3   OH268829   1.045   4.649  10.881 -0.0139  0.3260 -0.3367
15805TIP3    H168830   1.018   4.719  10.822 -0.6813  0.7883  0.4933
15805TIP3    H268831   1.095   4.589  10.826 -0.2823  0.9435 -1.2761
15806TIP3   OH268832   6.329   0.042   1.186  0.0219 -1.1848 -0.0946
15806TIP3    H168833   6.388   0.106   1.147 -1.6623  1.7261  1.7324
15806TIP3    H268834   6.373   0.014   1.266 -1.1159  1.4155  1.5684
15807TIP3   OH268835   2.614   4.711   1.243  0.8110 -0.1814 -0.3298
15807TIP3    H168836   2.638   4.745   1.329 -0.1964 -0.4801  0.0812
15807TIP3    H268837   2.526   4.744   1.228  1.7313  1.6750 -2.2107
15808TIP3   OH268838   6.545   3.633  16.148  0.2694 -0.0958 -0.3746
15808TIP3    H168839   6.508   3.710  16.106  0.0309 -1.4379 -2.7614
15808TIP3    H268840   6.470   3.577  16.168  0.2531  0.8888  2.9078
15809TIP3   OH268841   6.140   1.686   4.495  0.4568  0.0576 -0.2722
15809TIP3    H168842   6.096   1.749   4.437 -1.6232 -0.4787  0.6100
15809TIP3    H268843   6.166   1.615   4.437  0.7882  0.7122 -0.9394
15810TIP3   OH268844   4.605   1.971  13.000 -0.1714 -0.1210 -0.4841
15810TIP3    H168845   4.654   2.009  13.073 -0.1206 -0.2942 -0.4253
15810TIP3    H268846   4.647   2.006  12.922  0.3743 -0.6522 -0.4467
15811TIP3   OH268847   3.550   3.316  11.465 -0.6271 -0.4113  0.0742
15811TIP3    H168848   3.563   3.255  11.537  0.8868 -1.1379 -0.7654
15811TIP3    H268849   3.554   3.261  11.386  0.2124  0.6945 -0.6775
15812TIP3   OH268850   0.561   5.478  14.312 -0.0348 -0.4370  0.8503
15812TIP3    H168851   0.520   5.562  14.329 -0.6518 -0.8285  1.3276
15812TIP3    H268852   0.652   5.490  14.340  0.5863  0.8374 -1.4171
15813TIP3   OH268853   3.930   3.084   6.104  0.1375 -0.5561 -0.3985
15813TIP3    H168854   3.910   3.160   6.049  0.0401 -0.7068 -0.5724
15813TIP3    H268855   4.017   3.056   6.075  0.9020  0.4901  0.7949
15814TIP3   OH268856   0.458   0.547   6.904 -0.2782 -0.2833  0.0734
15814TIP3    H168857   0.368   0.553   6.937 -0.3186  0.1926 -0.1123
15814TIP3    H268858   0.487   0.638   6.899  1.4281 -0.4702  3.3998
15815TIP3   OH268859   6.630   1.502  14.726  0.1550  0.1294 -0.0038
15815TIP3    H168860   6.719   1.506  14.690 -0.3927  0.7075 -1.3552
15815TIP3    H268861   6.593   1.589  14.709 -0.9392 -0.3539 -0.1868
15816TIP3   OH268862   1.379   3.888   1.786  0.3048 -0.0685 -0.2824
15816TIP3    H168863   1.330   3.953   1.735 -1.3384 -1.2088 -0.2265
15816TIP3    H268864   1.425   3.836   1.721  0.1294 -0.0110 -0.4538
15817TIP3   OH268865   3.873   4.421  15.439 -0.0211 -0.4776  0.3651
15817TIP3    H168866   3.915   4.447  15.522  1.6654 -0.6736 -0.3750
15817TIP3    H268867   3.933   4.451  15.371 -1.2575 -0.5359 -0.7955
15818TIP3   OH268868   2.169   3.800   4.715  0.6536  0.1045  0.0878
15818TIP3    H168869   2.246   3.779   4.663  0.3855  0.1096 -0.3144
15818TIP3    H268870   2.102   3.823   4.651  0.3406  0.1808  0.4378
15819TIP3   OH268871   5.556   3.574   1.374 -0.0684 -0.0770 -0.2431
15819TIP3    H168872   5.580   3.579   1.282 -0.3472  0.9307 -0.2698
15819TIP3    H268873   5.472   3.620   1.380  1.1927  2.2301  0.9341
15820TIP3   OH268874   1.358   2.525   3.832  0.1078  0.1636 -0.4653
15820TIP3    H168875   1.380   2.481   3.914  0.1702  0.2891 -0.4137
15820TIP3    H268876   1.339   2.454   3.770 -0.3106  0.0725 -0.2378
15821TIP3   OH268877   6.320   5.169  15.899  0.6968  0.3488  0.3131
15821TIP3    H168878   6.317   5.083  15.941  0.6755  0.3077  0.2265
15821TIP3    H268879   6.232   5.204  15.910 -0.5864 -1.3140 -3.2092
15822TIP3   OH268880   4.025   4.695   5.408  0.5919  0.2332  0.3148
15822TIP3    H168881   3.961   4.637   5.367  0.0421  0.1562  1.2477
15822TIP3    H268882   4.108   4.674   5.365  0.3492 -1.0491  0.4384
15823TIP3   OH268883   3.445   2.362  14.362  0.2560 -0.2553  0.1644
15823TIP3    H168884   3.437   2.455  14.340  2.1343 -0.3468 -1.1928
15823TIP3    H268885   3.489   2.362  14.447 -1.1461  0.0649  0.9267
15824TIP3   OH268886   1.602   3.280  13.849 -0.5876 -0.3370 -0.1193
15824TIP3    H168887   1.513   3.245  13.846 -1.4205  1.6789 -1.0654
15824TIP3    H268888   1.609   3.323  13.934 -0.8549  0.2766 -0.4015
15825TIP3   OH268889   5.618   1.458   1.171  0.3766  0.5372 -0.1121
15825TIP3    H168890   5.537   1.440   1.219  0.3784 -1.0160 -0.6358
15825TIP3    H268891   5.589   1.485   1.084  0.4242  0.3173 -0.1952
15826TIP3   OH268892   4.474   6.187   1.253 -0.5591  1.1823  0.2970
15826TIP3    H168893   4.504   6.196   1.163  0.7802  2.3905  0.8373
15826TIP3    H268894   4.546   6.143   1.298 -1.1807  0.6721  0.8097
15827TIP3   OH268895   0.512   0.010  10.953  0.4129  0.7467  0.2779
15827TIP3    H168896   0.585  -0.002  11.015  2.1436  0.3003 -1.7456
15827TIP3    H268897   0.544   0.077  10.892 -1.1632  1.0331 -0.2686
15828TIP3   OH268898   3.949   2.734  13.383  0.7561  0.5277 -0.3496
15828TIP3    H168899   4.028   2.732  13.328 -0.1340  1.2247 -1.6926
15828TIP3    H268900   3.877   2.715  13.323 -0.0433 -1.2080  1.0434
15829TIP3   OH268901   2.822   5.835   1.626  0.3657 -0.1415  0.0911
15829TIP3    H168902   2.860   5.818   1.540  0.7521  0.7034  0.0877
15829TIP3    H268903   2.808   5.748   1.663  3.2540 -0.5367  0.5044
15830TIP3   OH268904   0.926   4.391  17.119 -0.7931 -0.2549  0.3853
15830TIP3    H168905   0.935   4.303  17.155 -0.9595 -0.1545  0.6760
15830TIP3    H268906   0.833   4.401  17.100 -0.7566 -0.1865  0.2425
15831TIP3   OH268907   1.081   3.519  11.960  0.2647  0.1360 -0.2304
15831TIP3    H168908   1.061   3.527  12.053 -0.9899 -0.8107 -0.4051
15831TIP3    H268909   0.996   3.513  11.917  0.8158  1.0794 -1.4998
15832TIP3   OH268910   0.887   5.436  14.340  0.4569  0.0014 -0.2351
15832TIP3    H168911   0.884   5.433  14.436  1.6803  1.9217 -0.0737
15832TIP3    H268912   0.944   5.363  14.315  2.0370  0.8395  0.7200
15833TIP3   OH268913   2.578   3.688  15.195  0.2894  0.1505 -0.7585
15833TIP3    H168914   2.641   3.617  15.212 -0.7471 -1.4594 -3.0370
15833TIP3    H268915   2.493   3.647  15.209 -0.3464  1.8671  0.7859
15834TIP3   OH268916   1.583   4.566   2.181 -0.7059  0.6067  0.5249
15834TIP3    H168917   1.552   4.655   2.200 -2.2201  0.2963 -0.3269
15834TIP3    H268918   1.508   4.522   2.141  0.0493 -1.0304  0.8076
15835TIP3   OH268919   6.052   2.138   2.646  0.0030 -0.2027 -0.1256
15835TIP3    H168920   6.111   2.188   2.588 -0.8397  1.2242  0.1939
15835TIP3    H268921   6.055   2.186   2.729  0.2600 -1.5318  0.6465
15836TIP3   OH268922   2.961   0.402  12.253  0.2058  0.3430  0.2731
15836TIP3    H168923   2.927   0.489  12.235  0.6722  0.2820 -0.9490
15836TIP3    H268924   3.011   0.413  12.334  0.1413  1.1701  0.2086
15837TIP3   OH268925   4.172   0.462  12.945  0.3123  0.6140  0.8272
15837TIP3    H168926   4.218   0.461  12.860 -1.0836 -0.4917  0.0413
15837TIP3    H268927   4.082   0.485  12.923 -0.6610 -2.0208  1.6188
15838TIP3   OH268928   6.135   3.533   2.936  0.2102  1.0489 -0.3241
15838TIP3    H168929   6.191   3.588   2.989  0.8544 -1.2492  1.5485
15838TIP3    H268930   6.192   3.501   2.865  1.0700 -0.4339  0.9677
15839TIP3   OH268931   6.346   4.392  16.976  0.0052  0.6724 -0.3850
15839TIP3    H168932   6.289   4.316  16.983 -1.3999  1.5962 -1.1665
15839TIP3    H268933   6.291   4.466  17.004  0.7058  1.6355 -1.4512
15840TIP3   OH268934   5.659   6.734  15.275 -0.4361 -0.0739  0.1934
15840TIP3    H168935   5.671   6.725  15.181  0.3958 -1.0135  0.3722
15840TIP3    H268936   5.737   6.780  15.306 -0.9256  0.6683  0.3812
15841TIP3   OH268937   1.351   4.495  13.201  0.1613 -0.2426 -0.0170
15841TIP3    H168938   1.406   4.419  13.221  1.1633  0.4686 -0.0074
15841TIP3    H268939   1.333   4.487  13.107 -0.5836 -1.0244  0.1809
15842TIP3   OH268940   2.675   0.182   0.616  0.5069  0.7471 -0.2287
15842TIP3    H168941   2.606   0.186   0.682 -0.1790 -0.3741 -0.8492
15842TIP3    H268942   2.719   0.098   0.631  0.5619  0.6294 -0.9771
15843TIP3   OH268943   4.329   0.268  13.797  0.2961  0.4789  0.7030
15843TIP3    H168944   4.259   0.287  13.860 -0.2856  0.8783 -0.0375
15843TIP3    H268945   4.363   0.355  13.774 -0.9051  0.5415 -1.0730
15844TIP3   OH268946   6.328   6.743  15.579 -0.2009  0.2091 -0.0146
15844TIP3    H168947   6.332   6.824  15.630 -0.2015  1.0197 -1.2504
15844TIP3    H268948   6.413   6.702  15.592 -0.2680  0.3130  0.7689
15845TIP3   OH268949   4.575   0.948  11.813 -0.2037  0.2002  0.4043
15845TIP3    H168950   4.643   0.897  11.769 -0.5404 -0.5248  0.7144
15845TIP3    H268951   4.495   0.929  11.764 -0.1713  1.1747 -0.0592
15846TIP3   OH268952   0.827   3.646  12.044 -0.5376 -0.0302 -0.1283
15846TIP3    H168953   0.809   3.720  12.101 -0.6307 -0.1437 -0.0079
15846TIP3    H268954   0.744   3.598  12.040  0.4194 -2.3654  3.0358
15847TIP3   OH268955   6.416   1.412  17.184 -0.4155  0.3797 -0.3650
15847TIP3    H168956   6.417   1.321  17.211  0.0323  1.0948  2.3078
15847TIP3    H268957   6.335   1.422  17.135 -0.8671 -1.2540  0.0024
15848TIP3   OH268958   6.447   6.278   4.396 -0.1402  0.1837  0.6783
15848TIP3    H168959   6.373   6.320   4.440 -1.2561  0.9062 -1.7268
15848TIP3    H268960   6.453   6.321   4.311  0.8496 -2.1937 -0.5750
15849TIP3   OH268961   1.517   4.109   1.295  0.1944 -0.0664  0.0874
15849TIP3    H168962   1.566   4.159   1.229 -0.5273 -1.0622 -1.2523
15849TIP3    H268963   1.568   4.118   1.375  1.8739 -0.0132 -0.9563
15850TIP3   OH268964   4.965   3.317  13.590 -0.2082  0.0041 -0.0258
15850TIP3    H168965   4.919   3.234  13.600 -1.3029  0.4572 -1.0576
15850TIP3    H268966   5.047   3.304  13.637 -1.3400 -0.8481  1.8188
15851TIP3   OH268967   3.198   5.490   1.509 -0.3402  0.0815  1.2841
15851TIP3    H168968   3.290   5.497   1.536  0.0324  1.3147 -0.1295
15851TIP3    H268969   3.155   5.563   1.553 -0.3653  0.2707  0.9487
15852TIP3   OH268970   4.568   2.381   5.712 -0.1042  0.2051 -0.1691
15852TIP3    H168971   4.516   2.316   5.758  1.3376 -0.4249  0.6353
15852TIP3    H268972   4.638   2.404   5.774  1.3356  0.0542 -1.6685
15853TIP3   OH268973   6.180   0.259   0.333  0.0982  0.3567 -0.2468
15853TIP3    H168974   6.261   0.310   0.337  0.3310 -0.0971  1.9945
15853TIP3    H268975   6.144   0.278   0.246  1.3379  2.4945 -0.3605
15854TIP3   OH268976   5.392   4.718   1.755  0.5040  0.2046  0.5785
15854TIP3    H168977   5.304   4.701   1.789 -0.2555  2.9202  0.2038
15854TIP3    H268978   5.442   4.638   1.775 -2.2065 -1.7404  0.1020
15855TIP3   OH268979   3.818   3.332  14.036  0.0051 -0.3581  0.2222
15855TIP3    H168980   3.825   3.248  14.082  0.4460 -1.1365 -1.2234
15855TIP3    H268981   3.907   3.354  14.010 -0.1757  0.3146  0.1296
15856TIP3   OH268982   1.840   1.920   0.323  0.5527 -0.4248  0.6014
15856TIP3    H168983   1.911   1.869   0.284  0.9049  0.4117  0.1323
15856TIP3    H268984   1.762   1.867   0.307  0.9245 -0.8565  0.1870
15857TIP3   OH268985   1.623   2.486   3.003  0.0501 -0.1882  0.4387
15857TIP3    H168986   1.540   2.449   2.970 -1.0699  0.9914  1.7939
15857TIP3    H268987   1.631   2.569   2.957  0.6069 -0.3852  0.1713
15858TIP3   OH268988   6.244   6.576  14.796  0.1025 -0.0497 -0.0288
15858TIP3    H168989   6.258   6.544  14.885 -0.2420 -0.0522  0.0256
15858TIP3    H268990   6.332   6.590  14.761  0.2869 -1.8554 -0.3538
15859TIP3   OH268991   2.533   2.988  14.920  0.0935 -1.5929 -0.3791
15859TIP3    H168992   2.520   3.010  14.827  0.1901 -3.1373 -0.7882
15859TIP3    H268993   2.627   2.997  14.933 -0.2597  2.6131  0.7138
15860TIP3   OH268994   1.204   0.262  13.636 -0.0443  0.0318  0.4902
15860TIP3    H168995   1.172   0.297  13.719  0.0187  0.9008  0.1615
15860TIP3    H268996   1.129   0.215  13.599 -0.3219  0.3367  0.6630
15861TIP3   OH268997   5.649   6.574   4.473 -0.0980  0.1769 -0.3634
15861TIP3    H168998   5.733   6.616   4.490  0.5702 -1.1916 -0.0890
15861TIP3    H268999   5.622   6.539   4.558 -0.1729 -0.7245 -0.7449
15862TIP3   OH269000   5.730   4.549   0.212 -0.2472 -0.0293 -0.0471
15862TIP3    H169001   5.712   4.628   0.161 -0.1985 -1.6742 -2.8649
15862TIP3    H269002   5.743   4.579   0.301  1.0853  3.2992 -1.2206
15863TIP3   OH269003   2.317   5.758  13.643 -0.2013  0.1154  0.1866
15863TIP3    H169004   2.364   5.835  13.611 -1.1126  0.2360 -0.9491
15863TIP3    H269005   2.335   5.690  13.577 -1.2433  0.0440 -0.0466
15864TIP3   OH269006   5.311   2.346  17.350  0.1265 -0.1873  0.4354
15864TIP3    H169007   5.291   2.335  17.443  1.2547  0.2690  0.7507
15864TIP3    H269008   5.399   2.382  17.349  0.1791 -0.3144 -0.8280
15865TIP3   OH269009   3.542   0.596   4.884  0.0175  0.4697  0.5336
15865TIP3    H169010   3.482   0.644   4.828  0.0322  0.0104  0.1188
15865TIP3    H269011   3.547   0.648   4.965 -3.1695 -0.9249  1.7750
15866TIP3   OH269012   6.065   3.902  14.315  0.2711  0.3240 -0.1897
15866TIP3    H169013   6.139   3.885  14.257  0.1745  0.0130 -0.2260
15866TIP3    H269014   6.097   3.879  14.402  0.2433  0.2611 -0.1953
15867TIP3   OH269015   5.601   0.996   6.418 -0.2443 -0.0842  0.6754
15867TIP3    H169016   5.518   1.041   6.426 -0.5777 -0.3451 -0.8596
15867TIP3    H269017   5.586   0.929   6.351  1.4399  0.5119 -0.3857
15868TIP3   OH269018   1.279   2.062  16.335 -0.5726  0.0542 -0.1233
15868TIP3    H169019   1.364   2.021  16.351 -0.7325  0.1400  1.0021
15868TIP3    H269020   1.287   2.150  16.372 -1.1405  0.0700 -0.0236
15869TIP3   OH269021   5.471   5.194  15.275 -0.2336 -0.5576 -0.0281
15869TIP3    H169022   5.546   5.225  15.224 -0.5476 -0.0869 -0.2072
15869TIP3    H269023   5.426   5.133  15.217  0.2515 -1.1815  0.2382
15870TIP3   OH269024   2.751   6.106   3.065  0.4935 -0.5193 -0.5263
15870TIP3    H169025   2.699   6.084   2.988  0.1750  0.9869 -0.7721
15870TIP3    H269026   2.829   6.150   3.030  0.0194  0.7935  0.0263
15871TIP3   OH269027   5.001   2.716   2.019 -0.2053  0.1280  0.2311
15871TIP3    H169028   5.032   2.669   2.096  1.1279  1.3879  0.5028
15871TIP3    H269029   4.908   2.692   2.012 -0.2671 -0.2891  2.0095
15872TIP3   OH269030   4.083   1.232   1.596 -0.1986  0.3117 -0.2122
15872TIP3    H169031   4.127   1.311   1.567  1.1587  0.3463  1.7232
15872TIP3    H269032   3.994   1.259   1.616  0.1345  1.2578  0.0192
15873TIP3   OH269033   1.721   0.144  12.600 -0.2933  0.5358  0.2621
15873TIP3    H169034   1.763   0.119  12.517 -1.5804  1.1532 -0.5982
15873TIP3    H269035   1.793   0.146  12.663  0.5223 -1.2480 -0.5277
15874TIP3   OH269036   5.178   4.715   4.780 -0.6157 -0.0903 -0.4953
15874TIP3    H169037   5.090   4.677   4.783 -0.0599 -1.4773 -1.1260
15874TIP3    H269038   5.169   4.790   4.720 -1.4951  0.1746 -0.0545
15875TIP3   OH269039   4.617   1.896  16.046  0.4665  0.1276  0.1850
15875TIP3    H169040   4.646   1.959  15.981  0.3998  2.1422  1.9894
15875TIP3    H269041   4.674   1.819  16.032  0.9335  0.7636 -1.7087
15876TIP3   OH269042   3.277   0.025   3.094 -0.0170  0.3736  0.3206
15876TIP3    H169043   3.247   0.104   3.140 -0.0988 -0.0098  0.9397
15876TIP3    H269044   3.245  -0.047   3.148  2.0096 -0.0669  0.9990
15877TIP3   OH269045   4.835   4.508   5.758  0.7162 -0.6852 -0.1775
15877TIP3    H169046   4.803   4.417   5.754 -2.0095  0.2174 -1.1056
15877TIP3    H269047   4.871   4.524   5.670 -1.9047  0.0614 -1.2189
15878TIP3   OH269048   4.476   3.419   0.887 -0.6238 -0.1406 -0.0389
15878TIP3    H169049   4.530   3.385   0.815 -1.2720 -1.1081 -0.0944
15878TIP3    H269050   4.401   3.360   0.890 -1.8560  1.3825 -0.1822
15879TIP3   OH269051   6.288   5.417  13.520  0.4417  0.1154 -0.1503
15879TIP3    H169052   6.275   5.335  13.568 -0.2394 -0.6950 -1.6534
15879TIP3    H269053   6.248   5.484  13.576  0.4951 -0.6444  0.8279
15880TIP3   OH269054   4.109   6.159   1.619 -0.0664  0.1972  0.2373
15880TIP3    H169055   4.106   6.181   1.712 -2.6331 -0.5895  0.4136
15880TIP3    H269056   4.032   6.104   1.605  1.8932 -2.2547 -1.7547
15881TIP3   OH269057   5.251   0.781   1.806 -0.4586  0.3718  0.0670
15881TIP3    H169058   5.161   0.787   1.773 -0.8383 -1.5943  0.6120
15881TIP3    H269059   5.247   0.816   1.895 -1.0651 -1.1450  0.6690
15882TIP3   OH269060   4.688   0.316  13.894 -0.3069 -0.1698 -0.0304
15882TIP3    H169061   4.774   0.274  13.888 -0.2623  0.0899 -1.6700
15882TIP3    H269062   4.654   0.315  13.805 -2.6864 -1.5894  0.7940
15883TIP3   OH269063   0.639   4.981  11.817 -0.2422  0.4727  0.1686
15883TIP3    H169064   0.575   4.952  11.753  0.6656  0.0200 -0.5538
15883TIP3    H269065   0.657   4.903  11.870 -1.7919  1.1036  1.7108
15884TIP3   OH269066   1.130   2.281  15.870  0.4280 -0.6300  0.4511
15884TIP3    H169067   1.075   2.357  15.852  0.2282 -0.8848 -0.0541
15884TIP3    H269068   1.196   2.313  15.932  0.5690  0.0535 -0.0314
15885TIP3   OH269069   4.057   0.068   2.669 -0.3823 -0.3544 -0.4784
15885TIP3    H169070   4.111   0.146   2.667 -0.6953 -0.1241 -0.1837
15885TIP3    H269071   4.006   0.071   2.588 -1.6504  0.6697  0.3144
15886TIP3   OH269072   0.389   3.406   1.638  0.4552 -0.1879 -0.0921
15886TIP3    H169073   0.360   3.424   1.727  0.7512 -0.0038 -0.0299
15886TIP3    H269074   0.402   3.492   1.599  1.7024 -0.2469  0.1480
15887TIP3   OH269075   2.464   2.991   5.636 -0.5208 -0.1239  0.4134
15887TIP3    H169076   2.530   2.937   5.593 -1.7525 -1.7010  0.3870
15887TIP3    H269077   2.510   3.031   5.710  0.8138  0.0144 -0.4691
15888TIP3   OH269078   0.127   5.340   2.063  0.0484 -0.8646 -0.3891
15888TIP3    H169079   0.066   5.315   2.133  1.9426 -1.5036  1.1096
15888TIP3    H269080   0.136   5.435   2.072  1.0305 -1.0671  0.8966
15889TIP3   OH269081   0.324   0.433  14.620 -0.0241  0.4200  0.7170
15889TIP3    H169082   0.252   0.487  14.652 -1.0402 -0.5166  0.0558
15889TIP3    H269083   0.287   0.382  14.548  1.5994  0.7340 -0.3863
15890TIP3   OH269084   4.868   2.487   2.713 -0.5215  0.5522  1.0265
15890TIP3    H169085   4.877   2.422   2.782 -2.4107  1.6078  2.3732
15890TIP3    H269086   4.797   2.454   2.657 -0.9996  1.0789  1.3049
15891TIP3   OH269087   4.733   0.138  14.722 -0.4298 -0.0270  0.1602
15891TIP3    H169088   4.650   0.109  14.759  0.6854 -2.5341  0.9151
15891TIP3    H269089   4.736   0.096  14.636  0.5904 -1.1090  0.6887
15892TIP3   OH269090   3.752   4.449   6.188 -0.2319  0.0613 -0.0142
15892TIP3    H169091   3.822   4.463   6.123 -1.5061  1.5807 -1.1199
15892TIP3    H269092   3.799   4.436   6.270  1.3749  0.2728 -0.8466
15893TIP3   OH269093   4.663   3.386   0.278 -0.3335 -0.0542  0.2186
15893TIP3    H169094   4.705   3.444   0.341  0.3038 -0.1908 -0.0651
15893TIP3    H269095   4.734   3.329   0.248 -0.6123  0.0459 -0.6578
15894TIP3   OH269096   6.562   5.393   0.284 -0.3376 -0.2831  0.7086
15894TIP3    H169097   6.581   5.356   0.370 -1.0909 -2.4979  0.0120
15894TIP3    H269098   6.645   5.389   0.237 -0.0617  0.3631  1.1394
15895TIP3   OH269099   3.575   3.856  12.806 -0.3842 -0.3605 -0.2900
15895TIP3    H169100   3.657   3.840  12.758 -0.1875  1.6373 -0.6896
15895TIP3    H269101   3.592   3.825  12.894  0.9287  0.2799 -0.2954
15896TIP3   OH269102   6.185   6.445  12.428  0.5823 -0.0284  0.1335
15896TIP3    H169103   6.251   6.376  12.424  0.5814 -0.1314  1.3946
15896TIP3    H269104   6.110   6.410  12.379  1.9116  0.6797 -2.6006
15897TIP3   OH269105   3.961   6.433   3.345  0.0565 -0.0093 -0.2040
15897TIP3    H169106   3.941   6.339   3.336 -0.6755  0.2473 -1.7458
15897TIP3    H269107   4.046   6.436   3.387  0.7888 -1.4427 -1.4739
15898TIP3   OH269108   6.424   6.689  11.518 -0.2655  0.1958 -0.7002
15898TIP3    H169109   6.388   6.766  11.563  1.2325 -0.3044  1.5197
15898TIP3    H269110   6.510   6.719  11.486 -0.6200  0.0571 -1.8140
15899TIP3   OH269111   2.218   0.256  17.279 -0.5091 -0.1206 -0.7090
15899TIP3    H169112   2.134   0.230  17.242 -0.2419 -1.9751 -0.1083
15899TIP3    H269113   2.209   0.238  17.373 -0.4688  2.5456 -0.1247
15900TIP3   OH269114   6.685   0.800   5.446 -0.0751 -0.1468 -0.3536
15900TIP3    H169115   6.759   0.773   5.392 -0.0718 -0.8585 -0.0055
15900TIP3    H269116   6.651   0.718   5.482 -0.1534  0.3128  0.6236
15901TIP3   OH269117   1.464   6.168   2.142 -0.6151  0.0979 -0.1550
15901TIP3    H169118   1.472   6.263   2.131 -1.4064  0.1863 -0.0398
15901TIP3    H269119   1.412   6.158   2.222  1.3793 -0.4773  1.1364
15902TIP3   OH269120   3.737   0.354  13.917 -0.4728 -0.3727 -0.0205
15902TIP3    H169121   3.662   0.315  13.962  0.5270 -0.8759  1.2613
15902TIP3    H269122   3.813   0.329  13.970  0.9219 -1.9676 -2.5924
15903TIP3   OH269123   3.049   4.316  12.405 -0.2966  0.3270 -0.9714
15903TIP3    H169124   3.104   4.238  12.409 -0.9828 -0.1448  1.4290
15903TIP3    H269125   3.086   4.369  12.335  1.0855 -1.4904 -1.6926
15904TIP3   OH269126   0.181   0.292  16.205 -0.4387  0.1598 -0.5965
15904TIP3    H169127   0.245   0.220  16.209 -0.6750 -0.0644 -0.8227
15904TIP3    H269128   0.113   0.260  16.146 -0.7928  0.3757 -0.3067
15905TIP3   OH269129   4.588   5.777  14.961 -0.0451 -0.2245  0.2947
15905TIP3    H169130   4.656   5.821  14.910  1.2098 -2.6770 -0.3305
15905TIP3    H269131   4.616   5.787  15.052  0.4760 -0.1396  0.1297
15906TIP3   OH269132   3.071   2.067  16.486  0.3095  0.1007  0.3972
15906TIP3    H169133   3.165   2.049  16.491  0.6445  0.7292 -2.2678
15906TIP3    H269134   3.037   2.003  16.424 -1.1419 -0.3430  1.5705
15907TIP3   OH269135   4.396   6.002   1.972 -0.1666  0.7562  0.1776
15907TIP3    H169136   4.460   6.074   1.978  1.1486 -0.4374  1.2150
15907TIP3    H269137   4.447   5.923   1.991 -1.6074 -0.4537 -0.7582
15908TIP3   OH269138   2.995   6.216  11.765 -0.2048  0.9013 -0.5656
15908TIP3    H169139   3.036   6.302  11.779 -0.0889  1.0507 -1.7121
15908TIP3    H269140   2.922   6.214  11.825 -0.3857  1.9422 -0.7366
15909TIP3   OH269141   5.032   1.035   4.139  0.1316  0.5352 -0.1288
15909TIP3    H169142   5.013   1.052   4.047 -0.1175  2.2013  0.1997
15909TIP3    H269143   4.971   0.965   4.164 -1.5046  1.7491 -0.6188
15910TIP3   OH269144   0.465   6.500  14.265  0.5657 -0.1320 -0.3846
15910TIP3    H169145   0.513   6.542  14.337  0.0067  0.9262 -0.6025
15910TIP3    H269146   0.527   6.498  14.192  0.9524 -0.7028 -0.0490
15911TIP3   OH269147   4.832   2.450  15.574 -0.1367  0.1632  0.0091
15911TIP3    H169148   4.882   2.514  15.624 -0.2915  0.1919  0.1272
15911TIP3    H269149   4.760   2.500  15.534 -0.6049 -0.0396  0.5878
15912TIP3   OH269150   1.725   5.408   0.928  0.1737 -0.1674 -0.0139
15912TIP3    H169151   1.737   5.368   1.014  1.0403  0.0500 -0.0207
15912TIP3    H269152   1.812   5.404   0.888  0.5868  2.5882  0.3719
15913TIP3   OH269153   0.106   3.518  15.757 -0.2828 -0.1523 -0.5618
15913TIP3    H169154   0.054   3.577  15.702 -2.7215 -1.0795  0.5644
15913TIP3    H269155   0.050   3.501  15.833  1.4280 -1.8028  0.4192
15914TIP3   OH269156   6.540   2.964  12.381 -0.1051  0.0868 -0.2550
15914TIP3    H169157   6.543   2.926  12.293 -1.7551 -3.1592  0.9051
15914TIP3    H269158   6.452   3.001  12.388  0.1471  0.6619 -0.0682
15915TIP3   OH269159   5.383   5.449  17.111 -0.2925 -0.3567 -0.2056
15915TIP3    H169160   5.374   5.447  17.016  0.5971  1.0680 -0.3501
15915TIP3    H269161   5.473   5.479  17.126 -1.3168  2.4213  1.0408
15916TIP3   OH269162   2.852   4.962  13.598 -0.6338  0.4274  0.3101
15916TIP3    H169163   2.865   4.884  13.652  1.4575  0.5371  0.0338
15916TIP3    H269164   2.763   4.954  13.565 -0.8303 -1.2886  1.1697
15917TIP3   OH269165   5.601   6.422   2.916 -0.2496 -0.1352  0.5154
15917TIP3    H169166   5.659   6.497   2.923  1.2879 -1.1133 -1.0090
15917TIP3    H269167   5.621   6.369   2.993  1.1625 -0.6201 -0.1585
15918TIP3   OH269168   0.516   4.686  13.399  0.0240  0.2050  0.1702
15918TIP3    H169169   0.504   4.654  13.488 -0.4382 -0.4157 -0.1059
15918TIP3    H269170   0.542   4.778  13.409 -1.2221  0.5003  0.9188
15919TIP3   OH269171   3.067   6.223  15.384  0.5735  0.1325  0.7812
15919TIP3    H169172   3.029   6.143  15.348  0.7914  0.4947 -0.2845
15919TIP3    H269173   2.992   6.279  15.401  0.5718  0.8315 -1.2807
15920TIP3   OH269174   3.149   1.777   3.307  0.3971  0.2772 -0.4851
15920TIP3    H169175   3.169   1.829   3.384  0.6430 -0.8624  0.2536
15920TIP3    H269176   3.126   1.840   3.240 -1.5938  1.2515  1.0145
15921TIP3   OH269177   5.697   5.079   2.873  0.6517  0.3328  0.7734
15921TIP3    H169178   5.752   5.135   2.927  3.1757 -0.7071 -0.5315
15921TIP3    H269179   5.652   5.139   2.813 -0.4663  1.2830  2.4859
15922TIP3   OH269180   1.463   2.793   3.064 -1.0123 -0.7848 -0.1386
15922TIP3    H169181   1.407   2.867   3.085 -0.9521 -0.7012 -0.2707
15922TIP3    H269182   1.454   2.782   2.969  1.0041  0.7302 -0.5774
15923TIP3   OH269183   1.421   4.682  17.241  0.8005 -0.3937  0.0659
15923TIP3    H169184   1.364   4.639  17.177 -0.1155  0.0441  0.5656
15923TIP3    H269185   1.463   4.611  17.288 -0.8215 -0.7967  0.9980
15924TIP3   OH269186   4.475   2.310  12.988 -0.1426  0.3868  0.5290
15924TIP3    H169187   4.382   2.329  12.989 -0.2807 -0.0736 -1.3027
15924TIP3    H269188   4.509   2.354  12.910  0.5769 -1.9314 -0.5633
15925TIP3   OH269189   3.464   5.419  17.467  0.1896  0.0495 -0.0497
15925TIP3    H169190   3.414   5.345  17.432  0.3756  0.5772 -1.5047
15925TIP3    H269191   3.464   5.406  17.561 -0.2282 -1.5258 -0.2434
15926TIP3   OH269192   5.017   4.122  16.811 -0.1069 -0.0163 -0.6026
15926TIP3    H169193   4.958   4.192  16.782 -1.1416 -1.4255 -2.0450
15926TIP3    H269194   5.086   4.120  16.746 -0.1040 -0.3792 -0.5864
15927TIP3   OH269195   2.487   0.116   1.194  0.6121  0.1663  0.2148
15927TIP3    H169196   2.398   0.146   1.180  0.8617  0.9395  0.2356
15927TIP3    H269197   2.497   0.116   1.290  1.1973  1.8307  0.1828
15928TIP3   OH269198   0.353   4.848   3.338  0.0790  0.5168  0.0089
15928TIP3    H169199   0.361   4.925   3.281 -0.5070 -0.1227 -0.9847
15928TIP3    H269200   0.438   4.804   3.331  0.1577  0.6738 -0.0262
15929TIP3   OH269201   4.759   2.465  17.380  0.7563 -0.1203 -0.6235
15929TIP3    H169202   4.853   2.453  17.379  0.7598 -0.7524  1.9181
15929TIP3    H269203   4.724   2.391  17.331  1.5793  1.1234 -3.2528
15930TIP3   OH269204   4.388   0.282  13.172  0.2286  0.1712 -0.0626
15930TIP3    H169205   4.330   0.358  13.159 -0.7987 -0.2309  1.7650
15930TIP3    H269206   4.328   0.209  13.186  1.1594 -0.3459  1.4283
15931TIP3   OH269207   4.922   3.198  10.727  0.1199  0.2275  0.1698
15931TIP3    H169208   4.843   3.241  10.696 -0.1323 -1.0294 -0.9927
15931TIP3    H269209   4.892   3.139  10.796  0.4156  1.5136  1.4764
15932TIP3   OH269210   2.391   6.595   0.837  0.5334  0.5159  0.0434
15932TIP3    H169211   2.447   6.518   0.840  0.1231  0.2303  0.6468
15932TIP3    H269212   2.304   6.562   0.859  0.7856  1.5278  3.1175
15933TIP3   OH269213   1.719   0.515  13.721 -0.4547 -0.0329 -0.1796
15933TIP3    H169214   1.777   0.581  13.684 -0.3577 -0.6396 -1.1279
15933TIP3    H269215   1.631   0.548  13.703 -0.4051 -0.0915 -0.5416
15934TIP3   OH269216   6.395   4.958   5.960 -0.0275 -0.1990 -0.5207
15934TIP3    H169217   6.311   4.971   5.914 -0.9454 -0.4830  0.9979
15934TIP3    H269218   6.408   5.040   6.008  0.1924 -0.4296 -0.1869
15935TIP3   OH269219   6.602   0.283   3.583  0.0813 -0.4953 -0.4268
15935TIP3    H169220   6.612   0.194   3.619  0.2974 -0.0771  0.5782
15935TIP3    H269221   6.613   0.341   3.658 -0.0489  0.3945 -1.0746
15936TIP3   OH269222   0.489   1.107   6.348 -0.2104 -0.8448  0.2075
15936TIP3    H169223   0.576   1.095   6.386  0.9782  2.7008 -0.9435
15936TIP3    H269224   0.435   1.138   6.420  0.2728 -0.3977  0.3872
15937TIP3   OH269225   2.873   3.550  13.732  0.0688 -0.7889  0.6968
15937TIP3    H169226   2.824   3.600  13.797 -0.0974  0.5816 -0.4188
15937TIP3    H269227   2.807   3.526  13.666  0.2603 -2.0034  0.9231
15938TIP3   OH269228   5.109   3.821  13.543  0.2490  0.4262  0.1681
15938TIP3    H169229   5.121   3.894  13.603 -0.8002  0.5415  0.2594
15938TIP3    H269230   5.108   3.861  13.456 -0.1146  0.4963  0.2045
15939TIP3   OH269231   1.455   2.966   4.120  0.7497  0.5044  0.5395
15939TIP3    H169232   1.396   3.002   4.054  0.7014 -0.7558 -0.1223
15939TIP3    H269233   1.537   3.014   4.107 -0.2287  2.7349  1.8911
15940TIP3   OH269234   1.541   3.941  12.250  0.4324 -1.0110  0.1163
15940TIP3    H169235   1.499   3.909  12.169  1.3562 -0.9334 -0.4017
15940TIP3    H269236   1.467   3.959  12.309 -0.2435 -1.3560 -0.5985
15941TIP3   OH269237   4.923   5.434   5.868  0.7180  0.2096 -0.4628
15941TIP3    H169238   5.010   5.427   5.829  0.9693  0.9476 -0.0697
15941TIP3    H269239   4.929   5.385   5.950  0.8477  0.4636 -0.3163
15942TIP3   OH269240   1.730   2.405   5.494  0.5882  0.7876  0.2551
15942TIP3    H169241   1.749   2.395   5.401  0.6832  0.9389  0.2570
15942TIP3    H269242   1.775   2.486   5.519 -2.1634  2.6424 -0.3414
15943TIP3   OH269243   6.217   3.281  10.866  0.4610 -0.1457  0.4620
15943TIP3    H169244   6.234   3.217  10.797 -1.9957  0.7783 -1.0981
15943TIP3    H269245   6.276   3.255  10.937  1.6779 -2.3090 -1.2177
15944TIP3   OH269246   3.164   1.110  15.124 -0.5754  0.2702  0.5394
15944TIP3    H169247   3.139   1.090  15.214 -0.7345  0.8296  0.6251
15944TIP3    H269248   3.089   1.159  15.089  0.6699  2.6939  1.0485
15945TIP3   OH269249   1.829   3.909   4.243  0.0209 -0.1272  0.4530
15945TIP3    H169250   1.847   3.838   4.304 -2.3928 -0.5459  0.7900
15945TIP3    H269251   1.826   3.988   4.298 -0.5676 -0.2682  0.6277
15946TIP3   OH269252   2.832   1.261  16.239 -0.7650 -0.3044  0.0559
15946TIP3    H169253   2.837   1.294  16.329 -2.4381  0.5772 -0.1209
15946TIP3    H269254   2.816   1.167  16.248 -2.0768 -0.0411  0.7353
15947TIP3   OH269255   6.629   3.852   0.994 -0.4241 -0.3264 -0.2364
15947TIP3    H169256   6.709   3.813   1.026 -1.3649 -0.8204  1.6491
15947TIP3    H269257   6.568   3.779   0.984 -1.3598  0.2922  0.6938
15948TIP3   OH269258   4.954   3.035   0.936  0.4011  0.5568  0.4407
15948TIP3    H169259   5.026   3.098   0.942 -0.3568  1.4229  0.4977
15948TIP3    H269260   4.912   3.038   1.022 -0.5663  1.0983 -0.0437
15949TIP3   OH269261   1.034   2.727   1.206  0.3065  0.1835  0.0616
15949TIP3    H169262   1.116   2.777   1.207  0.7032 -0.4340  1.1902
15949TIP3    H269263   0.993   2.749   1.123  2.1162 -0.2587 -1.0134
15950TIP3   OH269264   1.186   5.352  13.523  0.7442 -0.3258 -0.2106
15950TIP3    H169265   1.102   5.398  13.528  0.6751 -0.2797 -1.6301
15950TIP3    H269266   1.192   5.305  13.607 -0.6145 -0.1962 -0.0185
15951TIP3   OH269267   1.521   2.486  15.368 -0.2682  0.1671  0.4508
15951TIP3    H169268   1.609   2.491  15.330 -0.3757 -0.1674  0.1461
15951TIP3    H269269   1.534   2.450  15.456 -0.1498 -0.4015  0.2048
15952TIP3   OH269270   3.536   5.752  17.129 -0.2604  0.1521  0.1175
15952TIP3    H169271   3.500   5.693  17.195 -0.9366 -0.2675 -0.6031
15952TIP3    H269272   3.588   5.815  17.179  0.7772 -1.2396  0.9017
15953TIP3   OH269273   4.798   1.432   5.602 -0.0597 -0.1089  0.6756
15953TIP3    H169274   4.812   1.367   5.671 -0.8691 -0.1795  0.7816
15953TIP3    H269275   4.750   1.503   5.645 -0.2095  0.0297  0.2835
15954TIP3   OH269276   5.227   2.474   0.353  0.1917  0.0863 -0.4116
15954TIP3    H169277   5.287   2.514   0.415 -1.6422 -0.7342  2.0579
15954TIP3    H269278   5.162   2.429   0.407 -1.3805 -0.9591 -2.9451
15955TIP3   OH269279   1.751   3.874  13.813 -0.6780 -0.4303 -0.4092
15955TIP3    H169280   1.694   3.947  13.837  0.6579  0.3631  0.4515
15955TIP3    H269281   1.765   3.885  13.719 -1.5315 -0.3628 -0.5411
15956TIP3   OH269282   0.717   5.916  11.965 -0.3096 -0.9345 -0.6483
15956TIP3    H169283   0.700   6.004  11.932  0.4989 -0.6328 -0.2853
15956TIP3    H269284   0.715   5.925  12.061 -0.3090 -1.3268 -0.6082
15957TIP3   OH269285   3.712   6.278  17.378 -0.0482  0.5042 -0.8849
15957TIP3    H169286   3.748   6.306  17.293  1.3283  0.7478 -0.2493
15957TIP3    H269287   3.698   6.360  17.426  0.4678  0.3058 -0.3849
15958TIP3   OH269288   0.595   0.557  15.779 -0.2295 -0.1543 -0.0889
15958TIP3    H169289   0.544   0.585  15.703 -0.3567  0.9874  0.4021
15958TIP3    H269290   0.668   0.619  15.784 -0.4285  0.0229  0.9337
15959TIP3   OH269291   2.309   0.297  16.897 -0.2321  0.1010  0.3053
15959TIP3    H169292   2.244   0.307  16.828  0.9048 -0.2645 -0.8650
15959TIP3    H269293   2.332   0.386  16.922  1.2984  0.3466 -1.7332
15960TIP3   OH269294   5.703   1.539   5.770  0.6209  0.2258  0.0331
15960TIP3    H169295   5.704   1.613   5.709  2.3048  0.6534  0.5199
15960TIP3    H269296   5.612   1.532   5.799  0.3241  1.7192 -0.4811
15961TIP3   OH269297   2.225   0.779  17.364  0.5946  0.0814 -0.0684
15961TIP3    H169298   2.251   0.774  17.272  1.3010  1.9364 -0.0292
15961TIP3    H269299   2.289   0.839  17.403  0.0197 -0.2952  1.5256
15962TIP3   OH269300   5.329   4.704   5.315 -0.0959 -0.7004 -0.3571
15962TIP3    H169301   5.272   4.768   5.359  2.2555  1.2051  0.1097
15962TIP3    H269302   5.322   4.727   5.222  0.2156 -0.1758 -0.2581
15963TIP3   OH269303   6.133   1.832   1.560  0.7217 -0.0176  0.4755
15963TIP3    H169304   6.099   1.811   1.647 -1.0704  1.3597  0.1631
15963TIP3    H269305   6.056   1.857   1.509  1.7401 -0.6945 -1.5075
15964TIP3   OH269306   5.733   0.742   0.815 -0.0143 -0.1279 -0.9922
15964TIP3    H169307   5.673   0.807   0.778  0.3533 -0.2021 -1.7381
15964TIP3    H269308   5.741   0.765   0.907  2.1857  2.5600 -1.7220
15965TIP3   OH269309   0.585   2.252   4.629  0.1052 -0.0698 -0.5430
15965TIP3    H169310   0.557   2.185   4.567  0.2000 -0.5535 -0.0698
15965TIP3    H269311   0.663   2.215   4.671 -0.2467  0.0329  0.2197
15966TIP3   OH269312   4.333   1.817  12.032 -0.1695 -0.0622 -0.0474
15966TIP3    H169313   4.384   1.801  11.953 -0.1204  1.3522 -0.3196
15966TIP3    H269314   4.246   1.782  12.012  0.6726 -2.7211  0.5075
15967TIP3   OH269315   3.033   5.623  14.098  0.2609 -0.1584  0.0365
15967TIP3    H169316   2.938   5.638  14.097  0.0939 -1.1434 -0.6852
15967TIP3    H269317   3.070   5.705  14.129 -0.5772  1.6673 -3.3689
15968TIP3   OH269318   5.020   3.237   0.158 -0.0025  0.0760 -0.5432
15968TIP3    H169319   5.107   3.267   0.183 -0.4722  0.4048  0.7859
15968TIP3    H269320   5.022   3.142   0.172  0.0327  0.1311 -0.1728
15969TIP3   OH269321   2.052   3.906  14.786  0.0392 -0.3682 -0.1160
15969TIP3    H169322   2.111   3.868  14.851 -1.4528 -0.3173  1.3337
15969TIP3    H269323   1.975   3.849  14.787 -0.5909  0.4420 -0.8192
15970TIP3   OH269324   1.982   3.241  14.609 -0.6925 -0.0854  0.7524
15970TIP3    H169325   2.028   3.310  14.561 -0.8315  1.4340  2.6655
15970TIP3    H269326   1.893   3.243  14.574 -0.4398  0.0150  0.1054
15971TIP3   OH269327   3.171   5.754   1.373 -0.0012 -0.5419  0.3853
15971TIP3    H169328   3.101   5.818   1.359  1.0036  0.1048 -2.4242
15971TIP3    H269329   3.147   5.680   1.317  1.3094 -0.4577 -0.3403
15972TIP3   OH269330   1.861   5.442  12.835  0.6598 -0.4652  0.2781
15972TIP3    H169331   1.780   5.421  12.881 -0.7182 -2.4503 -2.6933
15972TIP3    H269332   1.927   5.383  12.873 -0.2711 -1.6279  0.1223
15973TIP3   OH269333   0.341   1.310   5.145 -0.1419  0.1862  0.0016
15973TIP3    H169334   0.429   1.345   5.134  0.2457 -0.7187  0.1030
15973TIP3    H269335   0.328   1.305   5.240  1.0752 -2.8620  0.1333
15974TIP3   OH269336   5.658   0.940  15.298  0.1452 -0.5418 -0.0250
15974TIP3    H169337   5.744   0.924  15.258  0.0915 -0.2301 -0.2655
15974TIP3    H269338   5.663   1.030  15.330 -0.3180 -0.2974 -0.6175
15975TIP3   OH269339   4.289   5.389  15.634 -0.2014 -0.5621 -0.5783
15975TIP3    H169340   4.373   5.352  15.663 -0.8907 -1.1197  0.8024
15975TIP3    H269341   4.223   5.335  15.678 -1.3729 -1.7672 -3.5958
15976TIP3   OH269342   1.264   0.487   4.548 -0.0439  0.2158 -0.0216
15976TIP3    H169343   1.312   0.439   4.480 -1.3953 -2.3353  0.6917
15976TIP3    H269344   1.326   0.498   4.619  0.5569  0.3842 -0.5617
15977TIP3   OH269345   5.972   2.160  16.418 -0.3887 -0.3275  0.9220
15977TIP3    H169346   5.990   2.121  16.504 -3.0507 -2.2250  0.7224
15977TIP3    H269347   5.891   2.119  16.389 -0.1921  1.1138 -2.0328
15978TIP3   OH269348   1.873   5.972   4.209  0.1677 -0.3968  0.1818
15978TIP3    H169349   1.921   6.027   4.271 -0.5122  1.5698 -0.9306
15978TIP3    H269350   1.938   5.946   4.144  0.0955  1.0360 -0.5134
15979TIP3   OH269351   0.762   5.343  16.173  0.3983  0.3636  0.4431
15979TIP3    H169352   0.682   5.292  16.184  1.9881 -1.9938  2.0059
15979TIP3    H269353   0.735   5.434  16.189 -2.3901  0.0227 -1.6468
15980TIP3   OH269354   0.652   6.402  17.361  0.1203 -0.2271  0.2897
15980TIP3    H169355   0.745   6.425  17.349  0.4545 -1.4420  0.4193
15980TIP3    H269356   0.652   6.307  17.369 -1.1374 -0.2284  0.4248
15981TIP3   OH269357   6.437   3.150  10.972  0.7350 -0.0008  0.1601
15981TIP3    H169358   6.479   3.064  10.961  1.1767 -0.0737  2.1237
15981TIP3    H269359   6.367   3.134  11.035 -0.0156  0.8550 -0.4334
15982TIP3   OH269360   3.003   1.270   0.429  0.6164 -0.1935  0.9006
15982TIP3    H169361   2.939   1.341   0.425  1.8680  1.0016  1.4593
15982TIP3    H269362   3.085   1.309   0.399  0.6590 -2.3010 -2.1233
15983TIP3   OH269363   0.306   4.954  15.862  0.0889 -0.2919 -0.0367
15983TIP3    H169364   0.325   5.034  15.812 -2.8215 -0.6562 -1.9819
15983TIP3    H269365   0.306   4.884  15.797  0.2605 -1.5053  1.2200
15984TIP3   OH269366   2.120   2.883  12.383  0.3199  0.4002  0.5835
15984TIP3    H169367   2.187   2.951  12.378 -0.7433  1.3806 -0.9386
15984TIP3    H269368   2.142   2.823  12.311  0.6513 -0.3367  1.2792
15985TIP3   OH269369   1.196   1.628   5.333 -0.0558 -0.1695 -0.1778
15985TIP3    H169370   1.122   1.568   5.336  0.8309 -1.3585 -1.0482
15985TIP3    H269371   1.157   1.713   5.314 -1.1399 -0.9533 -1.6488
15986TIP3   OH269372   3.511   5.943   0.093  0.4074  0.2849  0.4318
15986TIP3    H169373   3.513   6.038   0.080  1.9266  0.1949 -0.1166
15986TIP3    H269374   3.517   5.907   0.005  0.8647 -0.3272  0.7114
15987TIP3   OH269375   3.219   1.665  12.871  0.3301  0.1091  0.0868
15987TIP3    H169376   3.246   1.660  12.963 -0.3833 -0.1758  0.2936
15987TIP3    H269377   3.271   1.599  12.827  1.0340  0.5890  0.1920
15988TIP3   OH269378   4.150   4.273   2.100 -0.2231 -0.0494 -0.1203
15988TIP3    H169379   4.123   4.196   2.050 -1.3610  0.1573  0.1490
15988TIP3    H269380   4.132   4.250   2.191  2.6515 -0.7613  0.3473
15989TIP3   OH269381   2.134   1.947  14.112 -0.0314  0.3091  0.3846
15989TIP3    H169382   2.048   1.977  14.142 -1.2937 -1.2474 -1.4511
15989TIP3    H269383   2.185   1.936  14.192 -1.4565  1.4856  1.5060
15990TIP3   OH269384   3.741   0.055  16.329  0.3072 -0.2563  0.2462
15990TIP3    H169385   3.788   0.032  16.249 -2.2785  1.3654 -1.9272
15990TIP3    H269386   3.672  -0.011  16.336  0.0908  0.0165  0.7249
15991TIP3   OH269387   5.443   5.061  12.624  0.4498 -0.1651  0.2673
15991TIP3    H169388   5.447   5.131  12.558 -5.1670  2.3908  2.0016
15991TIP3    H269389   5.449   5.106  12.708  1.6137 -2.5324  1.5463
15992TIP3   OH269390   5.983   1.675  11.183 -0.0236 -0.1234  1.0210
15992TIP3    H169391   5.888   1.676  11.168  0.3236  0.7515 -1.8100
15992TIP3    H269392   6.002   1.758  11.225 -0.6264 -0.9890  3.1479
15993TIP3   OH269393   5.399   6.541   2.505  0.1379  0.5074  0.0032
15993TIP3    H169394   5.361   6.473   2.449  1.4107 -1.0502  0.9324
15993TIP3    H269395   5.491   6.542   2.481  0.5483  0.3729  1.4861
15994TIP3   OH269396   5.448   2.084   0.214  0.6759 -0.4168  0.5976
15994TIP3    H169397   5.531   2.124   0.188 -0.3634  1.4838  0.0342
15994TIP3    H269398   5.439   2.007   0.157  1.3436  0.2178 -0.3885
15995TIP3   OH269399   3.420   1.160  14.876 -0.1765 -0.0399  0.4897
15995TIP3    H169400   3.458   1.117  14.799  1.0377  2.6291 -0.5374
15995TIP3    H269401   3.436   1.099  14.948  0.0748 -1.9312 -1.0758
15996TIP3   OH269402   2.141   0.657   0.839 -0.8325  0.4963  0.3750
15996TIP3    H169403   2.186   0.738   0.817 -0.2003 -0.5207 -2.5086
15996TIP3    H269404   2.070   0.650   0.775 -0.3199 -1.6339 -0.0531
15997TIP3   OH269405   1.896   3.722   4.421  0.6196  0.0551 -0.4364
15997TIP3    H169406   1.826   3.657   4.423 -0.2372  0.9643  0.9091
15997TIP3    H269407   1.975   3.672   4.405 -0.0761 -1.2699  0.1343
15998TIP3   OH269408   5.751   1.277   5.824  0.0194  0.1000  0.1261
15998TIP3    H169409   5.738   1.371   5.813  1.4430  0.5758  1.9710
15998TIP3    H269410   5.664   1.242   5.842 -0.3154  1.3427  1.0628
15999TIP3   OH269411   3.526   4.536   0.098  0.3074  0.1331 -0.2266
15999TIP3    H169412   3.523   4.463   0.036  0.4626 -0.3310  0.3099
15999TIP3    H269413   3.467   4.510   0.169  1.4671 -0.1159  0.6633
16000TIP3   OH269414   5.879   0.342  16.077 -0.5067 -0.2192  0.3476
16000TIP3    H169415   5.956   0.346  16.020 -0.6658 -0.0259  0.1452
16000TIP3    H269416   5.907   0.288  16.151 -0.2829 -0.4276  0.1138
16001TIP3   OH269417   4.212   5.064  15.140 -0.3493 -0.0466  0.0395
16001TIP3    H169418   4.304   5.046  15.158 -0.4037  0.5633  1.0400
16001TIP3    H269419   4.189   5.006  15.067  0.8117 -0.2229 -0.1954
16002TIP3   OH269420   3.066   4.872   5.513  0.0252  0.1427 -0.4453
16002TIP3    H169421   3.096   4.789   5.476  0.0102 -1.0898  2.0688
16002TIP3    H269422   3.145   4.912   5.549  0.0022  1.1846 -1.4954
16003TIP3   OH269423   1.517   5.671   3.487 -0.4282 -0.0513 -0.1360
16003TIP3    H169424   1.502   5.724   3.409 -0.9724  1.2702  0.8231
16003TIP3    H269425   1.574   5.725   3.542 -0.5741 -0.6766  0.6522
16004TIP3   OH269426   2.071   4.732   5.120  0.0833  0.2020  0.4681
16004TIP3    H169427   2.019   4.805   5.085  0.8393  0.2441 -0.6385
16004TIP3    H269428   2.013   4.656   5.112  1.1302 -0.4188 -3.8888
16005TIP3   OH269429   3.071   1.336   0.922 -0.2415  0.0605  0.6616
16005TIP3    H169430   3.157   1.328   0.881  0.0386  0.7958  1.0802
16005TIP3    H269431   3.050   1.248   0.953 -0.3831 -0.4760 -0.8815
16006TIP3   OH269432   2.962   2.380  17.440  0.4132 -0.4751  0.4027
16006TIP3    H169433   2.887   2.320  17.441  0.1522 -0.1523  1.6993
16006TIP3    H269434   3.038   2.322  17.446  0.4451 -0.9478 -2.8230
16007TIP3   OH269435   5.697   6.136  11.383 -0.3089  0.3127 -0.2189
16007TIP3    H169436   5.637   6.089  11.441  1.8239 -1.7968  0.4366
16007TIP3    H269437   5.761   6.176  11.441  0.0091  0.9609 -0.9873
16008TIP3   OH269438   0.958   6.575  13.168  0.5057 -1.0393 -0.1514
16008TIP3    H169439   0.929   6.524  13.243 -0.3811  1.5499  1.4026
16008TIP3    H269440   1.037   6.620  13.198  0.3031 -0.1852 -0.8480
16009TIP3   OH269441   4.866   5.568   2.248  0.6654 -0.3017  0.4298
16009TIP3    H169442   4.941   5.573   2.308  0.7593  2.8935  0.2311
16009TIP3    H269443   4.790   5.581   2.304  0.6112  0.6655  0.1523
16010TIP3   OH269444   0.587   2.591   1.252 -0.6186 -0.1113  0.0292
16010TIP3    H169445   0.668   2.552   1.286  0.1341 -0.8418 -2.3999
16010TIP3    H269446   0.604   2.604   1.159 -1.7919  3.7281  0.2102
16011TIP3   OH269447   1.447   4.121   4.633 -0.3922  0.4807 -0.4958
16011TIP3    H169448   1.416   4.114   4.723 -0.4174  0.0192 -0.5377
16011TIP3    H269449   1.523   4.178   4.638 -0.2136  0.2156 -0.1365
16012TIP3   OH269450   1.984   5.814   5.738 -0.1226  0.5649  0.2408
16012TIP3    H169451   2.058   5.808   5.799 -0.6278 -0.1313  0.8008
16012TIP3    H269452   2.015   5.872   5.669  0.6803  0.8915  0.8564
16013TIP3   OH269453   1.170   0.020   0.601 -0.3243  0.1279  0.5291
16013TIP3    H169454   1.174  -0.074   0.585  0.0608  0.0203  1.1968
16013TIP3    H269455   1.178   0.028   0.696  0.1147  0.8594  0.4376
16014TIP3   OH269456   2.138   1.070  14.604  0.2176 -0.0336 -0.0189
16014TIP3    H169457   2.058   1.118  14.581  1.4572  2.1063 -0.1624
16014TIP3    H269458   2.194   1.136  14.646  1.1915 -1.9215  1.7821
16015TIP3   OH269459   2.302   5.073   3.148  0.2117  0.0842 -0.0417
16015TIP3    H169460   2.320   5.080   3.241  0.1305  1.4073 -0.1057
16015TIP3    H269461   2.386   5.054   3.108  0.9640  2.9227 -0.0114
16016TIP3   OH269462   4.637   5.299  16.303 -0.1631  0.0479  0.0990
16016TIP3    H169463   4.584   5.374  16.331  1.4327  0.7499  1.4297
16016TIP3    H269464   4.715   5.338  16.263  0.0886 -0.9354 -0.4088
16017TIP3   OH269465   0.740   1.292   2.890  0.0417  0.1494  0.5669
16017TIP3    H169466   0.707   1.206   2.863  0.4908 -0.0090  0.5163
16017TIP3    H269467   0.687   1.315   2.966 -2.9179  1.6674 -1.7099
16018TIP3   OH269468   4.073   1.621   0.769 -0.7080  0.2152 -0.0874
16018TIP3    H169469   4.067   1.568   0.849 -0.5385  0.4585  0.0883
16018TIP3    H269470   4.151   1.674   0.781 -1.4821  1.3333  0.2519
16019TIP3   OH269471   5.661   0.422   4.121 -0.0974  0.3777 -0.5785
16019TIP3    H169472   5.739   0.460   4.163  1.7615 -1.6117 -1.9897
16019TIP3    H269473   5.645   0.341   4.169 -0.6403  0.2446 -0.9764
16020TIP3   OH269474   2.490   0.621   0.376 -0.4816  0.0292 -0.4650
16020TIP3    H169475   2.516   0.696   0.322  1.0604 -0.3763 -0.3494
16020TIP3    H269476   2.413   0.651   0.424 -0.0561  1.4504 -0.6219
16021TIP3   OH269477   2.585   6.191   1.807  0.0888 -0.0484  0.2670
16021TIP3    H169478   2.502   6.203   1.763 -0.2158  0.3627  0.9329
16021TIP3    H269479   2.649   6.182   1.737  0.0974  3.6051 -0.3887
16022TIP3   OH269480   0.650   3.934  15.782 -0.2643  0.0123 -0.2759
16022TIP3    H169481   0.739   3.960  15.758  0.0341 -0.7216 -0.0324
16022TIP3    H269482   0.597   3.951  15.705  0.4110 -1.0570 -1.0010
16023TIP3   OH269483   2.888   0.716   2.748 -0.2572  0.9747 -0.4236
16023TIP3    H169484   2.816   0.671   2.703 -0.1239  0.2179  0.1091
16023TIP3    H269485   2.862   0.719   2.840 -0.4046  2.2796 -0.4888
16024TIP3   OH269486   5.716   3.717  17.111  0.5628  0.1795 -0.1061
16024TIP3    H169487   5.788   3.655  17.102 -0.2820 -0.5981 -1.9473
16024TIP3    H269488   5.664   3.683  17.184 -0.6281 -2.1342 -1.9147
16025TIP3   OH269489   4.310   6.318   6.480 -0.4105 -1.1382 -0.4168
16025TIP3    H169490   4.226   6.357   6.458  0.9385  1.6762 -0.9583
16025TIP3    H269491   4.302   6.227   6.451 -2.6921 -0.5388 -1.9559
16026TIP3   OH269492   5.507   0.854  13.634 -0.0081  0.6352  0.6859
16026TIP3    H169493   5.550   0.769  13.650  0.8604  0.8914 -0.2267
16026TIP3    H269494   5.414   0.833  13.634  0.1595 -0.1896  1.2406
16027TIP3   OH269495   2.090   6.557  17.152  0.3409 -0.0291 -0.5433
16027TIP3    H169496   2.107   6.609  17.231  0.5974  0.8715 -1.1671
16027TIP3    H269497   2.054   6.621  17.090 -0.6534 -0.8936 -0.8851
16028TIP3   OH269498   0.052   4.722   1.851  0.0002  0.1741 -0.0154
16028TIP3    H169499   0.096   4.644   1.816  3.2457  2.1006 -0.6799
16028TIP3    H269500   0.044   4.780   1.775 -1.3087  0.9386  0.6875
16029TIP3   OH269501   6.627   2.807  14.868 -0.4982 -0.4621 -0.1724
16029TIP3    H169502   6.697   2.804  14.802 -0.1407 -1.9689  0.2239
16029TIP3    H269503   6.568   2.736  14.843  0.1307 -1.6654  1.6149
16030TIP3   OH269504   1.396   1.792  16.989  0.5982 -0.2550 -0.4788
16030TIP3    H169505   1.354   1.751  16.914  1.5434 -1.3032 -0.4594
16030TIP3    H269506   1.325   1.840  17.032 -0.1336 -0.3274 -1.5553
16031TIP3   OH269507   4.223   5.481  14.008  0.2104  0.2457  0.3770
16031TIP3    H169508   4.313   5.461  14.032 -0.2843  1.0459  3.2553
16031TIP3    H269509   4.170   5.434  14.072 -1.4303  0.4355 -0.7690
16032TIP3   OH269510   5.237   1.217  13.829 -0.1952 -0.1888  0.0328
16032TIP3    H169511   5.292   1.235  13.904  1.0157  1.4743 -1.1972
16032TIP3    H269512   5.239   1.121  13.821  0.1739 -0.3527  1.6886
16033TIP3   OH269513   3.134   4.795  11.685  0.1828 -0.2264 -0.4704
16033TIP3    H169514   3.101   4.706  11.674  2.3346 -1.0227 -0.9702
16033TIP3    H269515   3.226   4.784  11.709  0.5065  1.8687 -0.5657
16034TIP3   OH269516   5.555   5.590  16.380 -0.0572  0.3640 -0.5490
16034TIP3    H169517   5.559   5.664  16.441 -1.6824  0.4998 -0.5519
16034TIP3    H269518   5.646   5.567  16.364  0.4549  0.0956  2.2024
16035TIP3   OH269519   5.040   6.528  15.340 -0.2358 -0.0325  0.0858
16035TIP3    H169520   5.092   6.462  15.294  2.0465  0.2833  2.0062
16035TIP3    H269521   5.057   6.609  15.293 -0.1746 -0.1958 -0.1735
16036TIP3   OH269522   1.860   2.044  15.702  0.4843  0.2425 -0.4085
16036TIP3    H169523   1.778   1.997  15.686  1.2225 -1.3356  0.2084
16036TIP3    H269524   1.832   2.127  15.741 -0.8543  0.1587 -1.1192
16037TIP3   OH269525   1.474   2.047  13.122 -0.8160  0.1296  0.1818
16037TIP3    H169526   1.526   2.115  13.165  0.4066  0.1214 -1.1624
16037TIP3    H269527   1.415   2.096  13.064  0.5723  0.1308 -1.3476
16038TIP3   OH269528   6.360   2.343  13.834 -0.1761 -0.1742  0.0513
16038TIP3    H169529   6.304   2.321  13.760 -0.0734 -1.2977  0.2786
16038TIP3    H269530   6.429   2.276  13.832  0.7190  0.7174  0.2348
16039TIP3   OH269531   6.058   5.838   4.472 -0.0219 -0.4262  0.0955
16039TIP3    H169532   6.127   5.790   4.427 -0.6436 -1.0603 -0.2033
16039TIP3    H269533   6.103   5.911   4.515  0.3855  1.4088 -3.1444
16040TIP3   OH269534   2.585   5.804   3.777  0.0696  0.3004 -0.4233
16040TIP3    H169535   2.527   5.818   3.702 -2.8290 -1.9497  1.2283
16040TIP3    H269536   2.647   5.738   3.748  0.7201  1.3889 -1.6197
16041TIP3   OH269537   0.802   0.938  11.055 -0.0786  0.2467  0.2080
16041TIP3    H169538   0.797   0.903  11.145  1.0837  0.5383  0.3963
16041TIP3    H269539   0.892   0.970  11.047 -0.9656  2.9291 -0.0637
16042TIP3   OH269540   2.288   5.243  14.798 -0.0752  0.0907 -0.7089
16042TIP3    H169541   2.301   5.171  14.737 -4.4204 -0.8907 -0.7647
16042TIP3    H269542   2.211   5.218  14.849 -0.4995  3.7487  0.7623
16043TIP3   OH269543   2.527   3.163   5.108  0.0014 -0.4798 -0.1600
16043TIP3    H169544   2.483   3.105   5.170  0.4006 -1.0464 -0.3993
16043TIP3    H269545   2.587   3.214   5.163 -0.1416 -0.4913  0.0102
16044TIP3   OH269546   0.249   6.086   0.821  0.4183  0.3467  0.0418
16044TIP3    H169547   0.167   6.124   0.790 -0.4208 -0.5709  1.0712
16044TIP3    H269548   0.290   6.156   0.872 -0.1591  0.5262  0.2724
16045TIP3   OH269549   1.562   5.934   2.574 -0.0748 -0.4644  0.2995
16045TIP3    H169550   1.517   5.883   2.506 -1.6253  0.7802  0.3146
16045TIP3    H269551   1.621   5.992   2.526 -1.1721  0.4179 -0.0344
16046TIP3   OH269552   1.771   2.312   6.461  0.0257 -0.2098 -0.2097
16046TIP3    H169553   1.690   2.289   6.507 -0.1290  0.2672 -0.2420
16046TIP3    H269554   1.774   2.252   6.387 -0.2501 -0.2937 -0.1556
16047TIP3   OH269555   5.673   5.463   5.962 -0.2830 -0.3169 -0.0678
16047TIP3    H169556   5.606   5.507   6.014  1.5004  1.4339  0.8767
16047TIP3    H269557   5.676   5.512   5.879 -0.7699 -0.9634 -0.4771
16048TIP3   OH269558   4.921   4.768  17.396  0.0674  0.5889  0.2906
16048TIP3    H169559   4.999   4.715  17.413  0.5369  0.7838 -1.1212
16048TIP3    H269560   4.939   4.851  17.441 -1.1466 -0.6951  3.4628
16049TIP3   OH269561   3.612   2.798   2.917  1.0953 -0.3354  0.4590
16049TIP3    H169562   3.580   2.860   2.851  0.9855  0.7937  1.5294
16049TIP3    H269563   3.667   2.737   2.868  1.6599  0.9389 -0.5691
16050TIP3   OH269564   4.018   3.747   5.382 -0.2423 -0.2321 -0.3318
16050TIP3    H169565   4.018   3.715   5.292 -1.3391  0.9658 -0.7943
16050TIP3    H269566   4.016   3.843   5.374  2.3037  0.0259  0.9848
16051TIP3   OH269567   6.561   6.218   3.396  0.0150 -0.0452 -0.3303
16051TIP3    H169568   6.509   6.155   3.345  0.8019 -1.1907  0.2546
16051TIP3    H269569   6.627   6.249   3.334 -0.1249 -0.0828 -0.5035
16052TIP3   OH269570   2.007   0.795   3.657 -0.8380  0.3310 -0.3889
16052TIP3    H169571   2.096   0.761   3.648 -0.2185  2.1566 -1.7457
16052TIP3    H269572   1.963   0.732   3.714  0.6674 -1.7983 -1.4515
16053TIP3   OH269573   2.399   4.598  12.204  0.3000  0.1744  0.3201
16053TIP3    H169574   2.378   4.659  12.134  0.8034 -1.8329 -1.7190
16053TIP3    H269575   2.328   4.609  12.268 -0.1334  2.1239 -0.4410
16054TIP3   OH269576   4.004   5.011   1.663  0.2998 -0.3315  0.1292
16054TIP3    H169577   3.972   5.100   1.676 -0.7026 -0.9001  1.9129
16054TIP3    H269578   3.949   4.975   1.593  1.0545  0.5781 -0.9672
16055TIP3   OH269579   4.590   3.922  16.581  0.3007  0.1980 -0.0235
16055TIP3    H169580   4.564   3.970  16.660  1.7488  1.1017 -0.0740
16055TIP3    H269581   4.685   3.920  16.584  0.3903  0.3316 -1.7911
16056TIP3   OH269582   4.059   0.578   0.653  0.5213  0.2584 -0.7482
16056TIP3    H169583   4.064   0.527   0.734  1.2640 -0.5837 -1.3073
16056TIP3    H269584   4.045   0.668   0.682 -3.2883 -0.4481  0.2479
16057TIP3   OH269585   2.930   5.275   3.025 -0.1293 -0.0741  0.8656
16057TIP3    H169586   2.896   5.345   2.970 -0.3655 -1.4246 -0.8052
16057TIP3    H269587   3.025   5.285   3.023 -0.2001  1.0765  1.9192
16058TIP3   OH269588   0.037   5.493   2.745  0.1851 -0.0121 -0.6409
16058TIP3    H169589  -0.029   5.476   2.677 -0.5621 -3.9736  0.7553
16058TIP3    H269590   0.121   5.479   2.701 -0.2772 -2.1891 -0.9682
16059TIP3   OH269591   6.286   5.988  16.345 -0.4711  0.4940 -0.2183
16059TIP3    H169592   6.303   6.049  16.274  0.9569  2.4925  1.6989
16059TIP3    H269593   6.231   6.038  16.406 -1.1370 -0.9366  0.3962
16060TIP3   OH269594   6.619   3.217  16.126 -1.1910 -0.8400 -0.0786
16060TIP3    H169595   6.652   3.184  16.210  0.8111  0.2376 -0.3990
16060TIP3    H269596   6.691   3.207  16.065 -1.7003  0.8489 -1.0307
16061TIP3   OH269597   2.880   5.838   0.306  0.7334  0.2435  0.3380
16061TIP3    H169598   2.793   5.875   0.317 -0.4180 -1.1003 -3.0259
16061TIP3    H269599   2.926   5.899   0.248  0.7206 -0.7739 -0.7922
16062TIP3   OH269600   3.052   1.622  16.073  0.2550 -0.2967 -0.0701
16062TIP3    H169601   3.077   1.623  16.166 -0.8107 -0.8718  0.2286
16062TIP3    H269602   2.961   1.651  16.072  1.3537  3.8400 -1.3413
16063TIP3   OH269603   1.189   0.959   1.033 -0.3955 -0.1407  0.3554
16063TIP3    H169604   1.158   0.985   1.120  2.0730  2.2767  0.6619
16063TIP3    H269605   1.284   0.954   1.042  0.1446  2.0754 -2.5854
16064TIP3   OH269606   6.717   3.421   6.408 -0.2604  0.3167 -0.4775
16064TIP3    H169607   6.634   3.384   6.378 -0.0618 -0.3464 -0.2244
16064TIP3    H269608   6.768   3.345   6.436 -0.1718  0.8573  0.8983
16065TIP3   OH269609   2.618   1.818  12.966  0.2530 -0.1317  0.7971
16065TIP3    H169610   2.670   1.797  13.044  1.4616 -1.0318 -0.2047
16065TIP3    H269611   2.529   1.827  12.999  0.5328 -1.6793  2.1205
16066TIP3   OH269612   6.139   2.401  12.667 -0.2360 -0.4633  0.2054
16066TIP3    H169613   6.068   2.356  12.713  1.4899 -1.5145  1.9435
16066TIP3    H269614   6.183   2.453  12.733  0.4169  0.4631 -0.9143
16067TIP3   OH269615   2.118   4.275  15.213 -0.8867 -0.5285  0.1381
16067TIP3    H169616   2.088   4.204  15.156  1.2439  0.2569 -2.1070
16067TIP3    H269617   2.098   4.355  15.164  2.4317  0.1150 -0.3624
16068TIP3   OH269618   6.023   1.513  14.006 -0.0483 -0.5750  0.2789
16068TIP3    H169619   6.114   1.538  14.024 -0.0880  0.2575 -0.6326
16068TIP3    H269620   6.014   1.427  14.048  1.3488 -0.9797 -0.1854
16069TIP3   OH269621   2.683   1.229  15.809 -0.0054  0.0438  0.2240
16069TIP3    H169622   2.592   1.258  15.805 -0.3543 -1.0399 -0.2690
16069TIP3    H269623   2.679   1.136  15.786  1.1042 -0.2883  1.2596
16070TIP3   OH269624   2.998   4.741   3.434 -0.5458  0.0880 -0.0620
16070TIP3    H169625   3.023   4.651   3.455 -1.5692 -0.2425 -0.2034
16070TIP3    H269626   2.917   4.733   3.383 -0.2579  1.0602 -0.6988
16071TIP3   OH269627   2.392   4.827  12.028  0.2867  0.1186  0.2853
16071TIP3    H169628   2.411   4.848  11.936 -1.2246  1.8580  0.3193
16071TIP3    H269629   2.462   4.869  12.078 -0.7479  2.1532  0.1088
16072TIP3   OH269630   0.308   3.145   5.840  0.4337 -0.6002  0.2422
16072TIP3    H169631   0.327   3.202   5.766  0.0789  0.4646  0.9585
16072TIP3    H269632   0.339   3.193   5.917  1.6416 -2.0812  0.7320
16073TIP3   OH269633   4.365   0.551   3.431  0.0910  0.2685 -0.4725
16073TIP3    H169634   4.378   0.619   3.498 -0.1024  1.0054 -1.1658
16073TIP3    H269635   4.324   0.479   3.478  2.2593 -0.2477  0.7679
16074TIP3   OH269636   2.162   3.222   0.945 -0.1874  0.1462 -0.4111
16074TIP3    H169637   2.094   3.168   0.985  0.6337  0.3125  1.2761
16074TIP3    H269638   2.195   3.169   0.873 -1.3566 -0.3754 -0.5984
16075TIP3   OH269639   4.071   0.015  12.941  0.0948 -0.0158  0.0032
16075TIP3    H169640   4.064  -0.050  12.872 -1.4953 -0.0566  0.1620
16075TIP3    H269641   3.981   0.031  12.969  0.6689  0.0483  2.0193
16076TIP3   OH269642   0.593   1.557  14.282  0.1750 -0.1269  0.4807
16076TIP3    H169643   0.676   1.592  14.313  1.5975 -2.1318 -0.8021
16076TIP3    H269644   0.585   1.472  14.326  0.3160 -1.2720 -1.5759
16077TIP3   OH269645   3.017   5.932   2.195 -0.2150  0.1022  0.4369
16077TIP3    H169646   3.110   5.932   2.219  0.2341 -0.0329 -1.1586
16077TIP3    H269647   2.979   6.005   2.243  0.9003  0.6686  0.4805
16078TIP3   OH269648   4.722   4.253   3.749 -0.4060  0.0487  0.0868
16078TIP3    H169649   4.755   4.244   3.838  2.3214 -0.9061 -0.9257
16078TIP3    H269650   4.728   4.346   3.730 -1.1192  0.2761  0.8878
16079TIP3   OH269651   3.468   6.225   3.811  0.4519  0.0030 -0.5031
16079TIP3    H169652   3.420   6.223   3.728 -2.1807 -0.7741  0.9188
16079TIP3    H269653   3.539   6.162   3.799  0.1414 -0.0712 -2.1796
16080TIP3   OH269654   0.449   6.013   3.589  0.0704 -0.1629  0.1060
16080TIP3    H169655   0.435   5.983   3.499  1.2757 -0.6062  0.0469
16080TIP3    H269656   0.499   6.093   3.580 -1.7880  1.0815  0.3287
16081TIP3   OH269657   6.215   6.284   6.401  0.2240 -0.3680  0.4815
16081TIP3    H169658   6.300   6.257   6.435  0.4801 -0.3374 -0.1155
16081TIP3    H269659   6.236   6.350   6.334 -0.2790 -0.2034  0.4821
16082TIP3   OH269660   1.803   4.208   0.611  0.3230 -0.0370  0.5378
16082TIP3    H169661   1.819   4.127   0.659  0.2359 -1.3101 -1.4848
16082TIP3    H269662   1.710   4.205   0.590  0.1635  0.9544  1.0675
16083TIP3   OH269663   2.803   4.659  11.904  0.3224  0.1270 -0.7726
16083TIP3    H169664   2.718   4.699  11.916 -0.5113 -1.7614  0.0710
16083TIP3    H269665   2.826   4.677  11.812 -1.8080 -0.7678 -1.5365
16084TIP3   OH269666   2.072   6.645   5.590 -0.4798  0.1228  0.0328
16084TIP3    H169667   2.160   6.627   5.624  0.2555  3.2891  0.1251
16084TIP3    H269668   2.064   6.590   5.512  2.1064  0.6493 -0.6795
16085TIP3   OH269669   1.434   2.383  11.844 -0.6296 -0.4708  0.0831
16085TIP3    H169670   1.366   2.342  11.899  0.2107 -1.2451  0.5652
16085TIP3    H269671   1.431   2.335  11.762 -0.8671 -0.2918 -0.0168
16086TIP3   OH269672   5.735   4.064  12.587 -0.0243  0.4561 -0.4530
16086TIP3    H169673   5.682   4.090  12.663 -0.1359  0.6842 -0.6086
16086TIP3    H269674   5.772   4.147  12.555  1.6367  0.1532  0.5464
16087TIP3   OH269675   4.462   5.317  12.581  0.0283 -0.5434 -0.0519
16087TIP3    H169676   4.368   5.323  12.596  0.2773  1.8175  1.1256
16087TIP3    H269677   4.477   5.226  12.558 -2.3504 -1.3269  1.1642
16088TIP3   OH269678   3.079   1.533  11.585  0.0443 -0.4378  0.1859
16088TIP3    H169679   3.007   1.470  11.593  0.9270 -1.4758  0.1182
16088TIP3    H269680   3.156   1.480  11.567  1.0082  0.5706  1.1517
16089TIP3   OH269681   1.136   1.689   3.062 -0.4256 -0.2230  0.1913
16089TIP3    H169682   1.071   1.619   3.071 -0.7146 -0.0331 -0.3765
16089TIP3    H269683   1.085   1.768   3.047 -0.0569 -0.1151 -0.5302
16090TIP3   OH269684   5.502   5.298   3.889  0.7159 -0.5676 -0.3165
16090TIP3    H169685   5.476   5.274   3.977 -0.6304 -2.8853 -1.2783
16090TIP3    H269686   5.527   5.391   3.896 -2.5423  0.3065  1.8265
16091TIP3   OH269687   3.527   3.079  15.422 -0.5913  0.1486 -0.0141
16091TIP3    H169688   3.463   3.010  15.440 -0.2382 -0.4640 -1.0636
16091TIP3    H269689   3.501   3.151  15.480 -0.7336 -0.9892  1.3898
16092TIP3   OH269690   3.755   1.897  13.593  0.2180 -0.5891  0.0463
16092TIP3    H169691   3.673   1.913  13.547 -0.7998 -1.3761  1.5131
16092TIP3    H269692   3.737   1.822  13.650  1.4523  0.2446  1.6223
16093TIP3   OH269693   5.118   0.440  14.017 -0.0187 -0.2694  0.0433
16093TIP3    H169694   5.167   0.511  13.975 -0.2065  0.4999  1.0967
16093TIP3    H269695   5.035   0.480  14.043  0.8019 -0.1387  2.8511
16094TIP3   OH269696   6.547   6.727   3.469  0.1456 -0.3661 -0.1013
16094TIP3    H169697   6.593   6.743   3.551  0.0285  1.7124 -0.3890
16094TIP3    H269698   6.520   6.635   3.474 -1.4414  0.1330  2.9630
16095TIP3   OH269699   6.245   3.279  11.680 -0.0618  0.5105 -0.5374
16095TIP3    H169700   6.241   3.273  11.585 -0.9360 -0.5166 -0.4483
16095TIP3    H269701   6.220   3.369  11.700 -0.0167  0.6865 -1.2600
16096TIP3   OH269702   1.299   5.244   4.454 -0.3156  0.1030  0.1227
16096TIP3    H169703   1.389   5.234   4.423 -1.1290 -0.2841 -2.2570
16096TIP3    H269704   1.253   5.166   4.423 -1.2322 -0.3525  2.4222
16097TIP3   OH269705   2.783   4.326   4.834  0.1754 -0.7305 -0.3907
16097TIP3    H169706   2.723   4.319   4.760 -1.8624 -1.9673  1.2795
16097TIP3    H269707   2.770   4.416   4.866  2.2064  0.3675 -2.3214
16098TIP3   OH269708   4.620   1.141  13.155  0.2878 -0.2069 -0.1710
16098TIP3    H169709   4.588   1.052  13.148 -0.9682  0.1023  1.1930
16098TIP3    H269710   4.647   1.150  13.247  0.0395  0.9135 -0.1853
16099TIP3   OH269711   3.427   3.999  17.344 -0.2910 -0.2870 -0.1334
16099TIP3    H169712   3.445   4.091  17.323  1.6195 -0.6210 -0.1406
16099TIP3    H269713   3.505   3.952  17.315 -0.6090 -1.7197  1.1996
16100TIP3   OH269714   0.023   5.686  15.300  0.2643  0.3804 -0.0506
16100TIP3    H169715   0.066   5.621  15.246 -1.1898  0.8639 -1.8884
16100TIP3    H269716  -0.071   5.669  15.290 -0.0837  0.6992  2.0980
16101TIP3   OH269717   0.653   5.059  17.386  0.2764  0.5324  0.1857
16101TIP3    H169718   0.675   5.008  17.309  2.2729  1.6562 -0.0556
16101TIP3    H269719   0.607   4.998  17.443  1.1717 -1.0931 -0.7566
16102TIP3   OH269720   5.443   0.359   6.288  0.2736 -0.4289 -0.6916
16102TIP3    H169721   5.443   0.272   6.329  0.7132 -1.3829 -2.5926
16102TIP3    H269722   5.519   0.403   6.326 -0.9112 -0.1834  1.5601
16103TIP3   OH269723   1.443   4.537  12.514  0.6000 -0.1037 -0.4115
16103TIP3    H169724   1.520   4.528  12.570  1.0541 -2.0598 -1.2422
16103TIP3    H269725   1.461   4.480  12.439 -0.6015  1.3336 -1.8632
16104TIP3   OH269726   2.935   1.587  12.876 -0.8556  0.2291 -0.3589
16104TIP3    H169727   2.885   1.662  12.843 -0.9920  1.2877  2.0684
16104TIP3    H269728   3.016   1.626  12.909 -1.1771 -0.5608  1.4657
16105TIP3   OH269729   4.273   3.872   6.554 -0.3903  0.4911 -0.2971
16105TIP3    H169730   4.179   3.882   6.570 -0.2969 -0.0099  0.6221
16105TIP3    H269731   4.315   3.929   6.619 -0.0424 -0.0798 -0.0132
16106TIP3   OH269732   2.874   3.387   4.866  0.8899  0.2883 -0.0519
16106TIP3    H169733   2.892   3.299   4.831  2.9750  0.4855  0.4158
16106TIP3    H269734   2.880   3.444   4.789  0.0824  0.1056 -0.2610
16107TIP3   OH269735   0.532   4.851   2.668 -0.5383  0.4824  0.2227
16107TIP3    H169736   0.496   4.918   2.726 -0.1804 -0.3209  1.3899
16107TIP3    H269737   0.616   4.886   2.639 -0.5784  0.7450  0.4215
16108TIP3   OH269738   6.548   0.584   5.583 -0.5745  0.3617 -0.2852
16108TIP3    H169739   6.561   0.508   5.526  0.3887  0.3227 -0.0415
16108TIP3    H269740   6.455   0.605   5.575 -0.5517  0.0576 -1.4899
16109TIP3   OH269741   2.633   3.350  14.147 -0.5004  0.2063 -0.2916
16109TIP3    H169742   2.694   3.326  14.077 -1.7881  1.2039 -1.8167
16109TIP3    H269743   2.637   3.277  14.208  2.4098  0.3406 -0.1682
16110TIP3   OH269744   5.354   3.275   1.191  0.0258 -0.5927  0.2917
16110TIP3    H169745   5.447   3.256   1.203  0.0156 -0.9110 -0.0923
16110TIP3    H269746   5.352   3.354   1.136  0.0832 -1.4687 -1.0130
16111TIP3   OH269747   6.544   3.506  16.496  0.4074 -0.0578 -0.3136
16111TIP3    H169748   6.633   3.472  16.502  0.5617  0.0238 -1.7980
16111TIP3    H269749   6.503   3.453  16.428  0.2216  1.7522 -1.6880
16112TIP3   OH269750   1.047   2.214   4.011 -0.2067 -0.3825  0.0540
16112TIP3    H169751   0.961   2.202   3.969 -1.3762  1.3807  1.7507
16112TIP3    H269752   1.092   2.131   3.998 -1.5131 -0.8149 -2.2994
16113TIP3   OH269753   3.838   0.090   2.119  0.2237  0.1739  0.0494
16113TIP3    H169754   3.757   0.067   2.165 -2.2818  0.7431 -3.6558
16113TIP3    H269755   3.829   0.183   2.101  1.5069  0.1400 -0.8521
16114TIP3   OH269756   1.750   2.513   2.377 -0.0553 -0.0775  0.1907
16114TIP3    H169757   1.817   2.577   2.399  0.7775 -0.4308 -1.1605
16114TIP3    H269758   1.764   2.441   2.439  0.2614  0.2225  0.4672
16115TIP3   OH269759   5.384   4.926   0.586 -0.7922 -0.5429 -0.5565
16115TIP3    H169760   5.415   4.950   0.499 -1.2125  0.2243 -0.4986
16115TIP3    H269761   5.423   4.840   0.602 -0.4774 -0.5624 -1.3787
16116TIP3   OH269762   5.357   4.326  11.710  0.3988  0.7246 -0.2217
16116TIP3    H169763   5.343   4.245  11.758  1.7783 -0.5744 -1.8925
16116TIP3    H269764   5.290   4.386  11.744 -0.9823 -1.2478  0.7164
16117TIP3   OH269765   2.058   1.620  14.230 -0.1999  0.1812  0.0257
16117TIP3    H169766   2.105   1.679  14.171 -0.2215 -0.6468 -0.8478
16117TIP3    H269767   2.045   1.671  14.310 -0.3134  1.3904 -0.7353
16118TIP3   OH269768   1.306   6.627   2.823 -0.0244  0.2518 -0.1229
16118TIP3    H169769   1.307   6.720   2.844  2.8182  0.1353  0.5518
16118TIP3    H269770   1.230   6.617   2.765 -0.5964  2.8916  0.0479
16119TIP3   OH269771   2.588   4.538   3.908  0.0637  0.6880  0.3776
16119TIP3    H169772   2.544   4.563   3.826  2.1714 -1.9857 -1.7966
16119TIP3    H269773   2.651   4.607   3.924  0.1405  0.8970 -0.7351
16120TIP3   OH269774   2.925   4.423  17.048 -0.2152  0.4197  0.6273
16120TIP3    H169775   2.902   4.331  17.040  0.8476  0.1556  0.5615
16120TIP3    H269776   2.856   4.469  16.999  0.0225 -0.4243 -0.5243
16121TIP3   OH269777   0.408   6.725  16.585  0.1803  0.1788  0.0835
16121TIP3    H169778   0.486   6.698  16.537  0.9850 -0.2512  1.5585
16121TIP3    H269779   0.431   6.711  16.677 -0.8821  2.0370  0.6825
16122TIP3   OH269780   1.307   0.941   4.437  0.0577 -0.4421  0.4027
16122TIP3    H169781   1.373   0.887   4.480 -1.2386 -1.0106  1.7038
16122TIP3    H269782   1.229   0.933   4.491 -0.5596  1.7074 -0.0706
16123TIP3   OH269783   3.862   5.198  15.281 -0.6498  0.4031  0.1640
16123TIP3    H169784   3.952   5.196  15.311 -0.4311  0.0227 -0.4967
16123TIP3    H269785   3.861   5.261  15.209 -0.9984  0.7258  0.4531
16124TIP3   OH269786   2.503   5.231   3.359  0.2359 -0.3007 -0.3184
16124TIP3    H169787   2.423   5.274   3.386  0.8567  1.2386 -0.8152
16124TIP3    H269788   2.516   5.260   3.268  1.8225  0.2419  0.0511
16125TIP3   OH269789   4.377   3.309   1.163 -0.5019 -0.2963  0.0435
16125TIP3    H169790   4.377   3.366   1.087 -2.0225 -0.8274 -0.3871
16125TIP3    H269791   4.356   3.367   1.237 -0.1123  0.0174 -0.0839
16126TIP3   OH269792   0.561   4.201  17.220 -0.2955 -0.4369 -0.2049
16126TIP3    H169793   0.571   4.291  17.188  0.6580 -0.3358  0.3415
16126TIP3    H269794   0.603   4.201  17.306  0.5136 -1.6108 -0.5689
16127TIP3   OH269795   6.641   2.091  14.660 -0.1777 -0.5830  0.2348
16127TIP3    H169796   6.584   2.128  14.593  0.6249  0.2828 -0.0010
16127TIP3    H269797   6.716   2.057  14.610 -0.5855 -1.9465  0.5123
16128TIP3   OH269798   4.487   5.995  17.211 -0.0005  0.3555 -0.3997
16128TIP3    H169799   4.422   5.984  17.280 -0.8414  0.7007 -1.1147
16128TIP3    H269800   4.463   6.078  17.169 -0.2574 -0.4422 -1.8828
16129TIP3   OH269801   6.066   0.348   4.886  1.0118 -0.1934 -0.7366
16129TIP3    H169802   5.973   0.333   4.900  0.6068  2.2126 -0.5597
16129TIP3    H269803   6.109   0.315   4.965  0.0277  1.1598  0.3968
16130TIP3   OH269804   3.303   6.095  17.204 -0.5592  0.5122 -0.1114
16130TIP3    H169805   3.355   6.066  17.129 -0.5560  0.1439  0.0299
16130TIP3    H269806   3.252   6.018  17.229 -1.4997  0.9885 -0.5155
16131TIP3   OH269807   4.248   6.584  16.718  0.3868 -0.1025 -0.3198
16131TIP3    H169808   4.208   6.670  16.702  0.8488  0.0267 -0.8199
16131TIP3    H269809   4.328   6.604  16.768 -0.3637 -0.3919  1.0220
16132TIP3   OH269810   6.582   3.771   4.840 -0.0654  0.0273 -0.5779
16132TIP3    H169811   6.503   3.824   4.829  0.4531  0.7848 -0.7918
16132TIP3    H269812   6.654   3.835   4.838  0.5045 -0.5599  0.3819
16133TIP3   OH269813   2.756   4.591  17.243  0.1820  1.0471  0.0716
16133TIP3    H169814   2.702   4.538  17.301 -0.7985  3.6822  1.7194
16133TIP3    H269815   2.718   4.576  17.156  0.1327 -1.0883  0.4008
16134TIP3   OH269816   0.327   4.216   5.754 -0.0796 -0.0769 -0.4399
16134TIP3    H169817   0.317   4.130   5.795 -1.2199  0.8504  1.3736
16134TIP3    H269818   0.239   4.240   5.726 -0.4819  1.8351  2.0833
16135TIP3   OH269819   5.911   6.344  15.843  0.4068 -0.8939  0.4508
16135TIP3    H169820   5.881   6.271  15.789 -1.4923  0.7354 -0.8556
16135TIP3    H269821   5.850   6.416  15.822  2.8695  1.4459  0.7598
16136TIP3   OH269822   2.625   2.424   4.183  0.1377 -0.6617 -0.5419
16136TIP3    H169823   2.697   2.485   4.201 -0.4660 -0.4643  1.5243
16136TIP3    H269824   2.666   2.350   4.139  1.5765 -0.4454  0.3712
16137TIP3   OH269825   1.826   5.242   6.290  0.2483 -0.6481 -0.3405
16137TIP3    H169826   1.903   5.289   6.324 -0.2447 -0.0489 -0.0372
16137TIP3    H269827   1.820   5.164   6.345 -0.8737  0.5746  1.4141
16138TIP3   OH269828   6.128   2.998  13.960  0.5987  0.0472  0.2440
16138TIP3    H169829   6.046   3.046  13.966  0.2675 -0.6228  1.5190
16138TIP3    H269830   6.142   2.984  13.866 -0.4777  0.6096 -0.0061
16139TIP3   OH269831   3.617   5.119  11.864 -0.0924  0.1574 -0.8269
16139TIP3    H169832   3.703   5.084  11.841  0.0040  0.0825 -0.3771
16139TIP3    H269833   3.578   5.145  11.781  1.2396  2.2066 -0.8896
16140TIP3   OH269834   5.958   2.075  13.312  0.3155  0.5545  0.5429
16140TIP3    H169835   5.942   2.097  13.403  1.5294  1.5791  0.5298
16140TIP3    H269836   5.944   1.981  13.307  0.4663  0.4529  1.8279
16141TIP3   OH269837   3.009   2.732  16.261 -0.0333  0.2421  0.3230
16141TIP3    H169838   2.943   2.779  16.311  0.9546  2.5254 -0.3906
16141TIP3    H269839   3.047   2.798  16.203  2.0399 -1.2573 -0.1507
16142TIP3   OH269840   0.358   3.497   0.249  0.3254  0.0554 -0.1975
16142TIP3    H169841   0.381   3.416   0.203 -1.3896 -0.2561 -0.5696
16142TIP3    H269842   0.263   3.490   0.263  0.6271  0.5513  2.6007
16143TIP3   OH269843   4.552   1.344   3.746  0.7570  0.0563  0.2723
16143TIP3    H169844   4.549   1.427   3.699  1.1499  0.5812  1.1700
16143TIP3    H269845   4.610   1.289   3.693  1.0596  0.5849  0.0566
16144TIP3   OH269846   4.525   3.880   3.242  0.0746  0.4277 -0.4076
16144TIP3    H169847   4.471   3.959   3.250 -0.5604 -0.1618  1.7730
16144TIP3    H269848   4.607   3.902   3.285 -0.3814 -0.3063  0.8779
16145TIP3   OH269849   0.829   5.388   4.523 -0.2961  0.5664  0.3324
16145TIP3    H169850   0.861   5.433   4.444 -0.0142 -1.6536 -0.9196
16145TIP3    H269851   0.905   5.339   4.554 -0.4713  1.2495  1.9017
16146TIP3   OH269852   5.005   5.382   4.925  0.4763  0.0948  0.0035
16146TIP3    H169853   5.012   5.359   5.018 -1.0534  2.1678  0.7131
16146TIP3    H269854   5.047   5.468   4.919  0.1697  0.1732 -1.1404
16147TIP3   OH269855   1.549   2.216   5.612  0.2153 -0.1805 -0.4983
16147TIP3    H169856   1.620   2.258   5.565  1.3466 -0.5103  0.8470
16147TIP3    H269857   1.585   2.131   5.639  0.0239  0.4370  1.8728
16148TIP3   OH269858   2.955   6.500  16.248 -0.2877 -0.0599  0.0684
16148TIP3    H169859   2.899   6.481  16.174 -1.7558  0.5139  0.9856
16148TIP3    H269860   3.031   6.544  16.210  0.8398 -3.1128 -1.4921
16149TIP3   OH269861   5.624   4.174   2.749  0.4164  0.1528  0.3304
16149TIP3    H169862   5.692   4.240   2.763  2.7760 -1.4506 -2.6241
16149TIP3    H269863   5.578   4.204   2.671 -0.3171 -0.3417  0.5593
16150TIP3   OH269864   2.097   0.123  13.823 -0.4423  0.2804 -0.0834
16150TIP3    H169865   2.134   0.193  13.877 -1.2210  0.8074 -0.2219
16150TIP3    H269866   2.084   0.163  13.737  1.1139 -0.6438 -0.8047
16151TIP3   OH269867   1.523   3.608   3.966 -0.1397  0.1743 -0.0871
16151TIP3    H169868   1.498   3.647   3.882 -2.2734 -0.5912  0.1372
16151TIP3    H269869   1.459   3.643   4.028 -0.9684 -2.1914  0.4755
16152TIP3   OH269870   2.042   4.637  11.520  0.4305 -0.0606  0.4056
16152TIP3    H169871   2.105   4.653  11.450  1.2955  2.0788  1.5698
16152TIP3    H269872   2.095   4.626  11.599 -0.5587 -1.5281  0.9241
16153TIP3   OH269873   3.656   0.810   1.420 -0.0578  0.4051 -0.3783
16153TIP3    H169874   3.612   0.879   1.470 -0.9633 -1.3064  1.3203
16153TIP3    H269875   3.711   0.766   1.484  0.0356 -0.8368 -1.2891
16154TIP3   OH269876   4.175   0.899  14.308 -0.1944 -0.3268 -0.4633
16154TIP3    H169877   4.195   0.963  14.376  1.7415 -1.3950  0.0580
16154TIP3    H269878   4.097   0.853  14.340 -1.1910  1.2323 -0.5200
16155TIP3   OH269879   0.096   5.925  16.915  0.2353  0.2750 -0.5722
16155TIP3    H169880   0.056   5.944  16.831  1.4738  1.3127 -0.9672
16155TIP3    H269881   0.108   5.830  16.915 -2.1675 -0.0736 -0.4125
16156TIP3   OH269882   6.663   5.696   4.514  0.2649  0.1734  0.7160
16156TIP3    H169883   6.617   5.712   4.596 -0.2625 -0.0461  0.4717
16156TIP3    H269884   6.611   5.743   4.448  0.4834  0.0585  0.4610
16157TIP3   OH269885   0.035   2.939   1.801  0.4239 -0.1859 -0.3350
16157TIP3    H169886   0.016   2.846   1.797  0.4994 -0.2381  0.4696
16157TIP3    H269887  -0.050   2.981   1.790  0.4992 -0.3147 -1.6092
16158TIP3   OH269888   0.633   5.912  12.454 -0.1988  0.0286  0.3614
16158TIP3    H169889   0.627   5.831  12.505 -1.4348  0.4455  0.9196
16158TIP3    H269890   0.701   5.963  12.499 -1.1798  0.3377  1.5592
16159TIP3   OH269891   6.721   5.150  15.519 -0.3951 -0.2659  0.0700
16159TIP3    H169892   6.712   5.238  15.483 -2.9874 -0.5680 -0.2628
16159TIP3    H269893   6.708   5.160  15.613 -0.2944 -0.2314  0.0795
16160TIP3   OH269894   4.871   4.553   0.196  0.0194  0.2273 -0.0403
16160TIP3    H169895   4.921   4.634   0.209 -0.2970  0.5293 -0.6820
16160TIP3    H269896   4.924   4.485   0.240  0.8426  0.5896 -0.4427
16161TIP3   OH269897   1.179   3.247   1.125  0.6356 -0.2624  0.4088
16161TIP3    H169898   1.133   3.281   1.202 -0.0044 -1.1496  0.4300
16161TIP3    H269899   1.159   3.309   1.056  0.2843 -0.0622  0.6853
16162TIP3   OH269900   1.919   2.315   1.251  0.0382  0.0381 -0.1581
16162TIP3    H169901   1.865   2.383   1.292  0.3591 -0.2473  0.7537
16162TIP3    H269902   1.856   2.260   1.204 -0.4051  0.0637  0.3958
16163TIP3   OH269903   6.287   3.744   2.588 -0.2006  0.1472  0.5668
16163TIP3    H169904   6.279   3.838   2.572  0.6607 -0.0781 -1.5244
16163TIP3    H269905   6.227   3.704   2.525  1.9035 -0.7601 -0.9948
16164TIP3   OH269906   0.568   2.633  17.030 -0.2125  0.1061  0.1445
16164TIP3    H169907   0.601   2.722  17.024 -1.9696  0.7406 -0.8643
16164TIP3    H269908   0.556   2.618  17.124  2.3627  0.0093  0.5069
16165TIP3   OH269909   2.373   5.563   3.687  0.8446  0.5364 -1.1575
16165TIP3    H169910   2.457   5.561   3.732  1.0350  0.5514 -1.5102
16165TIP3    H269911   2.374   5.644   3.637 -0.2768  1.6582  0.5129
16166TIP3   OH269912   0.899   4.819  14.734 -0.2235  0.2012 -0.0495
16166TIP3    H169913   0.837   4.882  14.696 -1.9389 -2.3595 -1.7859
16166TIP3    H269914   0.892   4.834  14.828 -3.5514  0.0767 -0.1563
16167TIP3   OH269915   6.722   1.173  13.936 -0.4625  0.2635  0.5020
16167TIP3    H169916   6.804   1.131  13.909  0.4983  1.9223  0.7616
16167TIP3    H269917   6.734   1.193  14.029 -1.2340  0.3971  0.5818
16168TIP3   OH269918   2.213   0.653   0.179 -0.5678 -0.1220  0.2046
16168TIP3    H169919   2.226   0.697   0.263  1.9681 -0.7442  0.2058
16168TIP3    H269920   2.224   0.722   0.114  0.5042 -0.1857  0.3042
16169TIP3   OH269921   2.697   1.399  15.582  0.1076  0.2808  0.5150
16169TIP3    H169922   2.683   1.337  15.511 -0.6885  0.1297  0.7927
16169TIP3    H269923   2.700   1.345  15.661  0.5748  0.4878  0.6448
16170TIP3   OH269924   0.127   5.629   1.994 -0.1740  0.1257  0.2533
16170TIP3    H169925   0.063   5.686   1.952 -0.0320  0.6939  0.7809
16170TIP3    H269926   0.153   5.677   2.073 -0.8999 -1.1962  1.3322
16171TIP3   OH269927   5.766   1.273   3.133  0.2966  0.2074  0.1970
16171TIP3    H169928   5.849   1.264   3.180 -0.4175  0.4686  1.5602
16171TIP3    H269929   5.706   1.214   3.179 -0.5320  0.7537 -0.1591
16172TIP3   OH269930   1.696   4.139  14.758 -0.5162  0.7857 -0.4091
16172TIP3    H169931   1.629   4.099  14.703 -0.1694  1.2387 -1.1647
16172TIP3    H269932   1.650   4.161  14.839 -1.3688  1.4045 -1.0431
16173TIP3   OH269933   1.333   3.701  10.793 -1.3368  0.1674  0.1628
16173TIP3    H169934   1.286   3.733  10.717 -0.8659 -0.5974 -0.4656
16173TIP3    H269935   1.411   3.756  10.798  0.2564 -1.7623 -1.8245
16174TIP3   OH269936   3.176   0.379   4.694 -0.7237  0.2733 -0.4337
16174TIP3    H169937   3.091   0.354   4.730 -0.3516 -0.0264  0.2499
16174TIP3    H269938   3.171   0.352   4.602 -0.8676 -1.0296 -0.0688
16175TIP3   OH269939   0.631   1.895   1.876  0.0627 -0.3880  0.4788
16175TIP3    H169940   0.602   1.804   1.871  1.5551 -0.8756  0.3409
16175TIP3    H269941   0.598   1.935   1.795  2.0423 -1.6248 -1.0112
16176TIP3   OH269942   1.152   6.009   1.663 -0.2092 -0.3163  0.8270
16176TIP3    H169943   1.206   6.056   1.727 -1.4834  1.4081  0.6996
16176TIP3    H269944   1.063   6.014   1.698 -0.8731  0.2995 -0.8169
16177TIP3   OH269945   0.530   1.115   0.955  0.1146 -0.0537 -0.3667
16177TIP3    H169946   0.480   1.033   0.953  0.9296 -0.5580 -0.7935
16177TIP3    H269947   0.479   1.173   1.012 -0.5667 -0.7942 -0.1998
16178TIP3   OH269948   3.163   4.671   4.910 -0.4515 -0.1777  0.0251
16178TIP3    H169949   3.105   4.744   4.891 -0.2170  0.3671  1.2746
16178TIP3    H269950   3.241   4.711   4.949  1.4145 -0.7626 -2.8084
16179TIP3   OH269951   2.782   1.265  16.870 -0.0007  0.2080  0.5200
16179TIP3    H169952   2.703   1.257  16.924  0.7076 -1.6746  1.4067
16179TIP3    H269953   2.770   1.201  16.800  0.1494  0.8844 -0.1273
16180TIP3   OH269954   1.248   4.792  16.614  0.8194  0.8035 -0.2621
16180TIP3    H169955   1.278   4.733  16.683 -2.9438 -1.9732 -0.6451
16180TIP3    H269956   1.267   4.879  16.646  0.9391 -0.4264  3.4643
16181TIP3   OH269957   3.574   5.103  16.190  0.2407 -0.1368 -0.1269
16181TIP3    H169958   3.610   5.160  16.258  2.0407 -0.2364 -0.9417
16181TIP3    H269959   3.635   5.112  16.116 -1.5926 -0.1003 -1.7225
16182TIP3   OH269960   5.882   0.830  16.148  0.8006 -0.5573 -0.2438
16182TIP3    H169961   5.807   0.871  16.106  0.3562 -1.1233 -0.0047
16182TIP3    H269962   5.958   0.870  16.105  0.3633 -0.7279 -1.2056
16183TIP3   OH269963   5.714   3.811   2.598  0.3667 -0.3672 -0.6237
16183TIP3    H169964   5.692   3.782   2.510 -0.6349 -1.3706 -0.0589
16183TIP3    H269965   5.639   3.788   2.651  0.8936  0.3593  0.4858
16184TIP3   OH269966   4.615   1.013   2.671  0.1908 -0.0473 -0.2445
16184TIP3    H169967   4.543   1.068   2.700  1.3653  0.6072  1.6484
16184TIP3    H269968   4.647   0.971   2.750  2.9905  1.0725 -0.6441
16185TIP3   OH269969   6.111   2.623   4.589 -0.6777  0.2119 -0.4615
16185TIP3    H169970   6.027   2.643   4.629 -0.0476 -0.5529  1.3861
16185TIP3    H269971   6.164   2.702   4.602  0.8884 -1.2892  4.2586
16186TIP3   OH269972   0.328   1.047  11.249  0.3075  0.5463  0.3113
16186TIP3    H169973   0.401   1.077  11.194 -0.2952  1.4201 -0.0310
16186TIP3    H269974   0.269   1.122  11.254 -1.0025 -0.4131 -0.1379
16187TIP3   OH269975   5.947   4.646   4.062  0.1374 -0.2993 -0.0321
16187TIP3    H169976   5.970   4.713   3.997  0.1237  0.2894  0.5537
16187TIP3    H269977   6.008   4.660   4.134  0.0355 -0.8252  0.1622
16188TIP3   OH269978   3.714   2.740   4.458  0.0597 -0.0088 -0.6165
16188TIP3    H169979   3.628   2.764   4.494 -0.2843 -0.1328 -1.3455
16188TIP3    H269980   3.735   2.810   4.397  1.3834  1.0486  0.9495
16189TIP3   OH269981   2.839   5.216  16.682 -0.3455  0.0929 -0.0598
16189TIP3    H169982   2.790   5.143  16.645  1.5529 -0.2655 -2.0099
16189TIP3    H269983   2.838   5.284  16.614 -1.1877  1.5409  1.3098
16190TIP3   OH269984   3.425   4.101   5.225  0.0256 -0.2320 -0.5504
16190TIP3    H169985   3.452   4.077   5.314 -0.5897  0.7591 -0.0690
16190TIP3    H269986   3.437   4.196   5.221 -2.9139  0.2513 -0.3979
16191TIP3   OH269987   1.390   1.002  15.637 -0.0689  0.2918 -0.4646
16191TIP3    H169988   1.479   1.004  15.670 -0.0604 -1.7510 -0.2376
16191TIP3    H269989   1.394   1.050  15.554  1.3135 -0.0935 -0.6403
16192TIP3   OH269990   0.616   6.251  16.174 -0.2684 -0.0327 -0.1499
16192TIP3    H169991   0.701   6.292  16.158 -1.1392  1.3940 -1.3465
16192TIP3    H269992   0.637   6.162  16.203  1.6220  0.2671 -0.5026
16193TIP3   OH269993   5.119   5.554  11.001  0.2330 -0.2308  0.0996
16193TIP3    H169994   5.051   5.514  11.055  0.8833 -1.1431  0.2684
16193TIP3    H269995   5.179   5.482  10.981 -0.4298 -0.1393 -2.5847
16194TIP3   OH269996   0.916   3.724   0.514  0.7404 -0.4395 -0.1909
16194TIP3    H169997   0.966   3.643   0.507 -0.0039 -0.9965  0.6884
16194TIP3    H269998   0.835   3.707   0.465  0.4278 -0.3580  0.2867
16195TIP3   OH269999   6.095   1.620   1.131 -0.1393 -0.6824 -0.2793
16195TIP3    H170000   6.128   1.558   1.195  1.2987  1.4974  1.2419
16195TIP3    H270001   6.020   1.662   1.173  0.2859  0.1616 -0.3275
16196TIP3   OH270002   0.248   0.618   5.443  0.4239 -0.0095  1.0119
16196TIP3    H170003   0.218   0.682   5.378 -0.9539 -1.4395  0.1665
16196TIP3    H270004   0.323   0.576   5.402  0.0534 -0.3510  0.6765
16197TIP3   OH270005   5.817   0.769   6.761 -0.1475 -0.4759  0.2470
16197TIP3    H170006   5.906   0.782   6.792  0.0410  0.1432 -0.5263
16197TIP3    H270007   5.822   0.693   6.703  0.1331  0.3034 -0.7745
16198TIP3   OH270008   2.279   2.800  13.583 -0.0046 -0.2326 -0.1333
16198TIP3    H170009   2.341   2.856  13.535  1.5687 -0.5684  1.4154
16198TIP3    H270010   2.288   2.714  13.542  0.3148 -0.2118 -0.1047
16199TIP3   OH270011   3.559   4.046  16.293  0.1338 -0.0453 -0.4185
16199TIP3    H170012   3.548   4.123  16.349  1.1603 -0.4896  0.4200
16199TIP3    H270013   3.520   3.974  16.343  0.7242 -0.3795 -0.4325
16200TIP3   OH270014   0.957   5.657  12.170 -0.2066  0.4604 -0.3052
16200TIP3    H170015   1.027   5.592  12.178 -0.0359  0.4202 -1.8266
16200TIP3    H270016   0.950   5.695  12.258  0.5943 -0.6757  0.2823
16201TIP3   OH270017   4.555   4.633  12.432  0.5210 -0.7659  0.0112
16201TIP3    H170018   4.630   4.667  12.382  0.1635 -0.7985 -0.5515
16201TIP3    H270019   4.497   4.595  12.366  0.6124 -1.9129  0.5686
16202TIP3   OH270020   0.987   4.120   0.386 -0.1420  0.2487 -0.2652
16202TIP3    H170021   0.996   4.040   0.437 -0.3965 -0.5816 -1.4866
16202TIP3    H270022   1.070   4.166   0.400  0.9867 -1.3429 -1.3674
16203TIP3   OH270023   0.271   1.462   4.312  0.0024 -0.0742 -0.2460
16203TIP3    H170024   0.279   1.485   4.219  1.0145  0.5623 -0.0226
16203TIP3    H270025   0.331   1.389   4.324  0.8731  0.6870  0.1628
16204TIP3   OH270026   6.199   1.481  15.534 -0.3600 -0.3049 -0.4770
16204TIP3    H170027   6.111   1.483  15.497 -2.1268  2.8830  3.1111
16204TIP3    H270028   6.235   1.567  15.515  1.4179 -1.0440 -0.6228
16205TIP3   OH270029   2.927   1.240  15.074 -0.0815  0.1191 -0.1109
16205TIP3    H170030   2.976   1.298  15.015 -0.7439  0.9221  0.0982
16205TIP3    H270031   2.835   1.260  15.056 -0.3102 -0.5655  0.2814
16206TIP3   OH270032   3.340   5.417   3.225  0.3365 -0.2203 -0.0187
16206TIP3    H170033   3.402   5.367   3.278  0.7447  0.9263  0.6361
16206TIP3    H270034   3.395   5.480   3.177 -0.2928  0.9255  0.6994
16207TIP3   OH270035   0.344   3.374  14.849 -0.2647  0.2496 -0.3712
16207TIP3    H170036   0.369   3.343  14.936  0.6970  1.1311 -0.3131
16207TIP3    H270037   0.252   3.399  14.858 -0.3048 -0.1005  0.2665
16208TIP3   OH270038   1.571   2.554   1.504 -0.8666 -0.1194  0.6521
16208TIP3    H170039   1.556   2.608   1.427  0.3572 -2.2414 -1.1983
16208TIP3    H270040   1.640   2.600   1.552 -0.1544  0.2052 -0.6433
16209TIP3   OH270041   6.513   2.119  13.912 -0.2854  0.5192  0.5349
16209TIP3    H170042   6.424   2.084  13.912 -0.8158  1.6375 -2.0619
16209TIP3    H270043   6.569   2.041  13.918 -1.4444 -0.7155 -2.7130
16210TIP3   OH270044   5.337   6.452   2.959  0.5703 -0.2149  0.0094
16210TIP3    H170045   5.425   6.489   2.951 -0.1989  1.6422 -0.4150
16210TIP3    H270046   5.324   6.439   3.053  0.9672  0.3412  0.1437
16211TIP3   OH270047   3.039   2.695   2.236 -0.0824 -0.6242  0.0213
16211TIP3    H170048   3.024   2.646   2.317  0.9576 -1.5907 -0.3480
16211TIP3    H270049   2.952   2.720   2.206 -0.5976 -1.8347  0.4849
16212TIP3   OH270050   3.496   2.011  13.026 -0.4459  0.8231  0.0755
16212TIP3    H170051   3.497   1.917  13.042  0.9902  0.9044  0.7261
16212TIP3    H270052   3.423   2.044  13.078 -1.7061 -0.0420 -1.0913
16213TIP3   OH270053   5.591   5.842   4.521 -0.6567 -0.4570 -0.0057
16213TIP3    H170054   5.629   5.771   4.573  0.2700 -0.1534 -0.2617
16213TIP3    H270055   5.523   5.879   4.578  0.6611  0.1752  1.2058
16214TIP3   OH270056   6.344   5.576  14.310 -1.2595  0.7658  0.2897
16214TIP3    H170057   6.430   5.604  14.340  0.0046 -2.5667  0.1626
16214TIP3    H270058   6.338   5.608  14.220  0.1733  0.4711  0.0684
16215TIP3   OH270059   6.176   0.228  12.857 -0.2516 -0.4693 -0.3455
16215TIP3    H170060   6.268   0.203  12.845 -0.5872 -1.8043 -0.3134
16215TIP3    H270061   6.129   0.145  12.861 -1.0769  0.0094  2.9906
16216TIP3   OH270062   6.563   6.297  15.629 -0.1802  0.3654 -0.3300
16216TIP3    H170063   6.546   6.314  15.722 -2.3673  3.4611 -1.1289
16216TIP3    H270064   6.477   6.280  15.592  0.5952 -0.2752 -1.9012
16217TIP3   OH270065   2.046   3.078  12.893  0.2570 -0.0720  0.0748
16217TIP3    H170066   1.995   3.105  12.817 -0.8620  2.9244  1.7245
16217TIP3    H270067   2.024   2.985  12.904 -0.5319 -0.2795 -2.4454
16218TIP3   OH270068   2.082   4.521   4.136 -0.0016 -0.2649  0.3846
16218TIP3    H170069   2.169   4.551   4.112  0.0285  0.7919  1.6935
16218TIP3    H270070   2.023   4.568   4.076  0.2281  0.2875  0.5851
16219TIP3   OH270071   2.153   3.504   0.865 -0.1176 -0.0070 -0.0449
16219TIP3    H170072   2.088   3.572   0.881  0.2445 -0.2439  3.0468
16219TIP3    H270073   2.113   3.424   0.900  0.6216 -0.7823 -0.9416
16220TIP3   OH270074   0.812   1.518   0.282  0.0784 -0.3432  0.2627
16220TIP3    H170075   0.789   1.477   0.198  1.0895  0.5059 -0.4548
16220TIP3    H270076   0.768   1.464   0.348 -1.5165 -0.4897 -0.8552
16221TIP3   OH270077   4.788   0.836  12.702 -0.5749  0.1007  0.2129
16221TIP3    H170078   4.777   0.911  12.642  1.0329  0.3527  0.1894
16221TIP3    H270079   4.740   0.765  12.660 -1.6419  0.9598 -0.0623
16222TIP3   OH270080   0.947   0.912   1.958  0.2939 -0.3000  0.2581
16222TIP3    H170081   0.966   0.979   1.893  0.1643 -0.0999  0.4278
16222TIP3    H270082   1.013   0.844   1.943  0.7717  0.1201  0.4617
16223TIP3   OH270083   3.840   6.189  13.057  0.7232  0.0244 -1.0372
16223TIP3    H170084   3.851   6.217  12.967  0.6787 -0.3313 -1.1558
16223TIP3    H270085   3.785   6.111  13.051 -0.0872  0.5481 -0.6247
16224TIP3   OH270086   6.436   3.182  11.860 -0.5961  0.0251 -0.1226
16224TIP3    H170087   6.362   3.209  11.806 -0.3337  0.1486 -0.4216
16224TIP3    H270088   6.467   3.101  11.820 -0.7594 -0.1924  0.1848
16225TIP3   OH270089   5.059   2.757  12.638  1.0547  0.8637  0.7095
16225TIP3    H170090   5.134   2.702  12.617  1.2290  1.3430  0.0462
16225TIP3    H270091   5.015   2.771  12.554  2.6176  4.0943  0.2620
16226TIP3   OH270092   6.023   3.956   5.274 -0.3809  0.1792 -0.2614
16226TIP3    H170093   5.947   3.946   5.216  0.2783  0.7402 -1.2586
16226TIP3    H270094   6.097   3.926   5.221 -0.0253 -1.5378  1.1158
16227TIP3   OH270095   4.430   0.848  11.588  0.2304  0.0348 -0.4781
16227TIP3    H170096   4.395   0.760  11.596  1.1260 -0.4237 -1.3247
16227TIP3    H270097   4.356   0.902  11.560 -0.7831 -0.0381  1.8768
16228TIP3   OH270098   1.499   3.832   4.783  0.6001 -0.9411 -0.4056
16228TIP3    H170099   1.446   3.912   4.778  0.7817 -0.8344 -0.6194
16228TIP3    H270100   1.584   3.857   4.747  0.5220 -1.3456 -0.8742
16229TIP3   OH270101   1.041   1.769   0.686  0.0494 -0.2489  0.5682
16229TIP3    H170102   1.019   1.778   0.778  0.0695  0.1416  0.5399
16229TIP3    H270103   0.960   1.793   0.640  0.4383  0.9909  0.4666
16230TIP3   OH270104   5.139   5.555   1.110  0.2348  0.1777  0.1286
16230TIP3    H170105   5.182   5.496   1.048 -1.7883 -0.7770 -0.4707
16230TIP3    H270106   5.133   5.505   1.191  1.5715  0.8836  0.6899
16231TIP3   OH270107   0.468   1.034  17.064  0.4957  0.4695  0.0950
16231TIP3    H170108   0.493   0.949  17.100 -0.7268 -0.2531 -0.6971
16231TIP3    H270109   0.401   1.067  17.124  1.1365  0.9965  0.5335
16232TIP3   OH270110   4.977   5.699   6.760  0.2011 -0.6116  0.3219
16232TIP3    H170111   5.062   5.732   6.790  0.3579 -1.0642  0.3966
16232TIP3    H270112   4.920   5.775   6.759  0.3047 -0.5012  1.3846
16233TIP3   OH270113   5.019   2.732   3.826  0.2622 -0.3035 -0.4529
16233TIP3    H170114   5.111   2.735   3.853 -0.0011  1.1743  0.4154
16233TIP3    H270115   5.015   2.787   3.748  0.0034  0.3232 -0.0149
16234TIP3   OH270116   5.705   3.217  15.492 -0.4565  0.4788 -0.0354
16234TIP3    H170117   5.733   3.258  15.574 -1.3825  0.6937  0.1867
16234TIP3    H270118   5.673   3.289  15.438 -0.5170  0.2555 -0.3027
16235TIP3   OH270119   4.068   2.971  15.456  0.6612 -0.0895  0.5211
16235TIP3    H170120   3.977   2.959  15.482  0.8795  0.7071  1.7560
16235TIP3    H270121   4.078   2.919  15.377 -0.0192 -2.8717  2.1367
16236TIP3   OH270122   4.820   4.864   3.804  0.0920 -0.4037 -0.4262
16236TIP3    H170123   4.838   4.897   3.716 -0.3119  1.6195  0.2105
16236TIP3    H270124   4.903   4.873   3.851  0.4675 -2.0067 -0.6975
16237TIP3   OH270125   5.204   0.497  12.630 -0.2604 -0.2026  0.3396
16237TIP3    H170126   5.126   0.549  12.607  0.3983 -0.3010 -2.5941
16237TIP3    H270127   5.170   0.410  12.650 -1.0731  0.4049  1.7566
16238TIP3   OH270128   1.633   1.956  15.601 -0.2776  0.1269  0.2708
16238TIP3    H170129   1.569   2.013  15.559  0.6037  1.2093  0.3446
16238TIP3    H270130   1.627   1.873  15.554 -0.7326  0.6685 -0.6393
16239TIP3   OH270131   6.562   1.123  12.354  0.6474 -0.1993 -0.0889
16239TIP3    H170132   6.594   1.213  12.341 -1.1719  0.5855  0.5462
16239TIP3    H270133   6.515   1.126  12.437 -0.2330 -1.5156 -0.5050
16240TIP3   OH270134   0.645   0.838   0.538 -0.3044 -0.0205  0.4505
16240TIP3    H170135   0.667   0.899   0.609 -0.4358 -0.5995  0.9996
16240TIP3    H270136   0.585   0.775   0.579  0.1390 -0.7510 -0.0035
16241TIP3   OH270137   4.979   1.359   3.723  0.3455 -0.0338 -0.0800
16241TIP3    H170138   4.904   1.413   3.698 -0.2577 -1.2627 -0.9935
16241TIP3    H270139   4.999   1.308   3.646  1.0080 -1.0092  0.7167
16242TIP3   OH270140   3.917   3.490   5.179  0.4672 -0.2065 -0.5723
16242TIP3    H170141   3.889   3.496   5.270  1.0069  1.1235 -0.4724
16242TIP3    H270142   4.012   3.488   5.182  0.6419  2.5062 -1.1416
16243TIP3   OH270143   1.073   2.600  13.876 -0.2088 -0.7218  0.3193
16243TIP3    H170144   1.125   2.678  13.897 -1.0749  0.0616 -0.3823
16243TIP3    H270145   1.027   2.623  13.795 -1.1740 -1.6321  0.5960
16244TIP3   OH270146   4.747   5.265  15.326  0.0217 -0.3188 -0.4239
16244TIP3    H170147   4.817   5.250  15.261 -0.8335 -0.8242 -1.2582
16244TIP3    H270148   4.781   5.227  15.407  0.7578 -0.4613 -0.7908
16245TIP3   OH270149   4.866   5.405   4.694  0.3676  0.7018  0.1918
16245TIP3    H170150   4.863   5.321   4.649  0.1840  1.1743 -0.7075
16245TIP3    H270151   4.858   5.383   4.787 -1.6742 -0.1671 -0.1350
16246TIP3   OH270152   2.468   1.542  17.045 -0.0515  0.0835 -0.1264
16246TIP3    H170153   2.487   1.522  16.953  0.9489  3.4152 -0.7870
16246TIP3    H270154   2.554   1.539  17.088  0.4118  3.6847 -0.5508
16247TIP3   OH270155   5.117   3.842   6.114 -0.1797  0.0963  0.0920
16247TIP3    H170156   5.051   3.773   6.112  0.6450 -0.7969  1.6621
16247TIP3    H270157   5.184   3.809   6.173  0.1979  2.2799  0.9724
16248TIP3   OH270158   5.233   3.311  12.717  0.1376  0.3882 -0.1080
16248TIP3    H170159   5.260   3.356  12.797 -0.0248 -1.2045  0.8889
16248TIP3    H270160   5.295   3.238  12.709  0.9032  1.1778 -2.1182
16249TIP3   OH270161   6.731   5.733  12.903 -0.2041 -0.3145 -0.1056
16249TIP3    H170162   6.647   5.769  12.874 -0.3640 -0.4484  0.1921
16249TIP3    H270163   6.788   5.809  12.915  0.1693 -0.2972 -1.7008
16250TIP3   OH270164   3.201   4.055   5.570  0.5811 -0.7937 -0.3785
16250TIP3    H170165   3.252   3.976   5.554  2.0151  0.5646 -3.1555
16250TIP3    H270166   3.133   4.054   5.503 -1.5348 -1.2409  1.6495
16251TIP3   OH270167   0.448   1.084  12.993  0.1471 -0.0821  0.4785
16251TIP3    H170168   0.362   1.059  13.027 -0.1459  0.7520  0.3920
16251TIP3    H270169   0.479   1.007  12.946  0.4904 -1.2231  2.4448
16252TIP3   OH270170   5.039   2.518   1.804 -0.4858 -0.5212  0.3326
16252TIP3    H170171   5.062   2.439   1.852 -0.1812  0.2190  1.4363
16252TIP3    H270172   5.012   2.580   1.871  1.1890  0.9696 -0.3137
16253TIP3   OH270173   2.766   2.499   5.365  0.6734 -0.0944  0.5261
16253TIP3    H170174   2.780   2.548   5.283  1.7156 -2.4214 -0.7798
16253TIP3    H270175   2.824   2.541   5.428 -1.9456  3.3738  0.9453
16254TIP3   OH270176   2.547   0.462   4.896  0.1157 -0.0010 -0.4699
16254TIP3    H170177   2.494   0.541   4.882  0.3638  0.1991 -0.2656
16254TIP3    H270178   2.618   0.490   4.954  0.2315 -0.3622 -0.4368
16255TIP3   OH270179   0.560   3.979   1.333  0.1177 -0.2899 -0.6638
16255TIP3    H170180   0.484   4.034   1.355 -0.6436 -1.5199 -0.1575
16255TIP3    H270181   0.524   3.911   1.277  0.7445 -1.1684 -0.0177
16256TIP3   OH270182   5.137   4.609  11.686  0.2514 -0.3233  0.0052
16256TIP3    H170183   5.088   4.647  11.759 -0.2764 -2.8796  1.0815
16256TIP3    H270184   5.208   4.672  11.671 -1.3590  1.7900  0.6411
16257TIP3   OH270185   6.183   1.397  12.966  0.2650  0.2148  0.4815
16257TIP3    H170186   6.192   1.487  12.935 -0.5564  0.0832 -0.1499
16257TIP3    H270187   6.128   1.404  13.044 -0.8619  0.1213 -0.3002
16258TIP3   OH270188   4.110   2.950  16.285 -0.4665 -0.0480  0.0916
16258TIP3    H170189   4.191   2.970  16.239 -0.8678  0.4326 -0.4126
16258TIP3    H270190   4.116   2.856  16.304  0.2768  0.0177  0.2086
16259TIP3   OH270191   2.866   2.309  11.794 -0.1779  0.3476  0.2316
16259TIP3    H170192   2.952   2.351  11.790  0.0363 -0.1632 -1.6351
16259TIP3    H270193   2.866   2.249  11.719 -1.4527 -1.0479  1.3021
16260TIP3   OH270194   1.005   1.985  14.133  0.3020 -0.4435 -0.1484
16260TIP3    H170195   0.984   1.899  14.170 -1.1251 -0.1980 -0.3271
16260TIP3    H270196   1.070   1.967  14.065 -0.6377 -1.5066 -0.7845
16261TIP3   OH270197   6.641   2.639  17.438  0.4365  0.2396 -0.0862
16261TIP3    H170198   6.612   2.626  17.529 -0.4023  0.4420 -0.3198
16261TIP3    H270199   6.689   2.559  17.417  2.0792  0.8615  1.0669
16262TIP3   OH270200   0.411   5.636  11.901  0.3088  0.1126  0.2934
16262TIP3    H170201   0.406   5.700  11.830  0.7636  1.4960  1.4573
16262TIP3    H270202   0.331   5.649  11.951 -0.4214 -1.4397 -0.3921
16263TIP3   OH270203   4.591   3.106   0.465  0.4922  0.2965 -0.3106
16263TIP3    H170204   4.648   3.123   0.540  1.0305  2.6418 -1.1783
16263TIP3    H270205   4.649   3.104   0.389 -0.2618 -0.0472 -0.8975
16264TIP3   OH270206   0.478   6.640  13.687 -0.2060 -0.1132 -0.1576
16264TIP3    H170207   0.489   6.710  13.751  0.5775  2.5202 -2.9393
16264TIP3    H270208   0.554   6.583  13.699 -1.7621 -1.7486  3.3616
16265TIP3   OH270209   3.325   2.984  17.213  0.4131 -0.2639  0.5817
16265TIP3    H170210   3.280   3.056  17.169  1.0727 -1.2080 -1.8085
16265TIP3    H270211   3.256   2.923  17.236  0.2091 -1.0966 -1.8800
16266TIP3   OH270212   1.547   1.278   1.356  0.6677  0.2741  0.2177
16266TIP3    H170213   1.553   1.263   1.450 -1.2569 -0.4638  0.2793
16266TIP3    H270214   1.474   1.340   1.347 -0.3327 -0.9807 -0.8380
16267TIP3   OH270215   4.100   4.762  14.113  0.8857 -0.0758  0.5528
16267TIP3    H170216   4.190   4.735  14.097  1.0694  0.7763  0.0965
16267TIP3    H270217   4.047   4.689  14.080  1.4036 -1.4700  2.5658
16268TIP3   OH270218   4.882   0.352  17.423  0.5742 -1.0304  0.3800
16268TIP3    H170219   4.966   0.360  17.469  0.0568  3.1649  0.9916
16268TIP3    H270220   4.906   0.353  17.330  1.2547 -1.1448  0.5454
16269TIP3   OH270221   5.404   0.032   3.401  0.3150  0.4846 -0.2105
16269TIP3    H170222   5.497   0.012   3.413  0.2918 -0.0099 -0.8059
16269TIP3    H270223   5.401   0.083   3.320 -0.1047 -1.0242 -1.1873
16270TIP3   OH270224   4.082   6.414  15.906  0.1880 -0.1700 -0.7546
16270TIP3    H170225   4.058   6.467  15.830  2.0004 -0.0873 -1.3052
16270TIP3    H270226   4.017   6.344  15.908 -2.2924  1.9733 -0.0232
16271TIP3   OH270227   0.828   6.574   5.563 -0.2258  0.8760 -0.0582
16271TIP3    H170228   0.867   6.637   5.623 -0.6346  0.9622  0.1191
16271TIP3    H270229   0.738   6.563   5.594 -1.1180  2.4831 -1.8505
16272TIP3   OH270230   5.661   0.339   2.855  0.7117 -0.5375  0.0740
16272TIP3    H170231   5.748   0.306   2.837  1.3882 -0.2095  2.4314
16272TIP3    H270232   5.664   0.431   2.826  1.8356  0.0507  1.8847
16273TIP3   OH270233   1.098   6.184   0.792  0.2767  0.6280  0.4479
16273TIP3    H170234   1.107   6.094   0.822  0.0077  1.1210  2.0778
16273TIP3    H270235   1.014   6.186   0.746 -0.1734  0.2692  1.2435
16274TIP3   OH270236   5.862   4.476  13.190 -0.0885  0.0794 -0.8916
16274TIP3    H170237   5.800   4.541  13.156  0.5539  0.3859 -1.5000
16274TIP3    H270238   5.916   4.452  13.114 -0.9431 -1.9190 -0.9497
16275TIP3   OH270239   5.222   0.441   3.819 -0.0849  0.3179 -0.3686
16275TIP3    H170240   5.227   0.524   3.867 -1.6233  0.3449 -0.2147
16275TIP3    H270241   5.286   0.385   3.862  0.9604  1.4094 -0.4588
16276TIP3   OH270242   2.084   2.523  12.595 -0.2290  0.2018 -0.7695
16276TIP3    H170243   2.158   2.553  12.542  0.6440  1.5483  1.1075
16276TIP3    H270244   2.115   2.442  12.636  0.1773  0.6917 -0.0927
16277TIP3   OH270245   0.005   3.291   2.892 -0.5231 -0.4756 -0.6976
16277TIP3    H170246   0.033   3.376   2.925 -0.5750 -0.1220 -1.5397
16277TIP3    H270247  -0.091   3.291   2.902 -0.3367 -1.6927  2.2012
16278TIP3   OH270248   1.837   1.827   0.575  0.4771 -0.7275 -0.3214
16278TIP3    H170249   1.848   1.743   0.533 -1.4587 -0.1473 -2.1529
16278TIP3    H270250   1.819   1.888   0.504 -2.4877  0.3978  1.1993
16279TIP3   OH270251   4.406   5.631  16.742 -0.1618 -0.6281  0.2675
16279TIP3    H170252   4.323   5.606  16.783 -0.1284 -0.7074  0.2896
16279TIP3    H270253   4.381   5.672  16.659 -0.2162 -0.8330  0.1818
16280TIP3   OH270254   0.017   5.669  14.363  0.2878 -0.1901 -0.5952
16280TIP3    H170255   0.031   5.711  14.279 -0.3543  0.2151 -0.5045
16280TIP3    H270256  -0.041   5.729  14.411  0.3814 -0.5699  0.0115
16281TIP3   OH270257   5.908   0.750   1.331  0.2431  0.3297 -0.1571
16281TIP3    H170258   5.821   0.788   1.319  0.4648  0.8540 -0.1122
16281TIP3    H270259   5.892   0.656   1.333 -0.4913  0.4581  1.1795
16282TIP3   OH270260   3.562   3.612   1.665 -0.7312 -0.4179 -0.3503
16282TIP3    H170261   3.618   3.618   1.588 -0.6559  0.3412 -0.2423
16282TIP3    H270262   3.623   3.600   1.738 -0.8688 -3.3250 -0.5796
16283TIP3   OH270263   1.548   2.329   1.884  0.9234  0.4305 -0.9780
16283TIP3    H170264   1.635   2.352   1.850  1.0191 -0.7504 -1.5979
16283TIP3    H270265   1.537   2.237   1.858 -0.2279  0.3748 -0.3075
16284TIP3   OH270266   3.954   4.893  13.780  0.3297 -0.4725 -0.8904
16284TIP3    H170267   4.015   4.821  13.765  2.5558  0.9447  0.7846
16284TIP3    H270268   3.983   4.961  13.719  0.9167  0.4648  0.3986
16285TIP3   OH270269   5.949   5.716  14.477  0.2197  0.8535  0.7241
16285TIP3    H170270   5.875   5.776  14.475 -0.7698 -0.2591  1.9190
16285TIP3    H270271   5.931   5.653  14.407  0.3171  0.8809  0.6731
16286TIP3   OH270272   3.886   5.493  13.903 -0.1357  0.1700  0.3149
16286TIP3    H170273   3.918   5.425  13.963 -2.4404 -1.3338 -0.0424
16286TIP3    H270274   3.966   5.540  13.876  1.0458  0.6321  4.0797
16287TIP3   OH270275   3.994   3.890  15.418  0.4271  0.0055  0.0559
16287TIP3    H170276   3.977   3.929  15.332 -0.2318 -0.7601 -0.1832
16287TIP3    H270277   4.022   3.800  15.398  0.7950 -0.0084  0.6197
16288TIP3   OH270278   5.461   2.874   0.509  0.6447 -0.3394  0.4933
16288TIP3    H170279   5.491   2.922   0.586  0.8473 -0.7425  0.6695
16288TIP3    H270280   5.440   2.787   0.542  1.5014 -0.7626 -0.0431
16289TIP3   OH270281   4.920   0.709  16.883  0.0556  0.2273  0.3279
16289TIP3    H170282   4.870   0.676  16.808 -0.9634  0.3538  0.9276
16289TIP3    H270283   4.989   0.762  16.845  0.8245 -1.3968 -0.6019
16290TIP3   OH270284   1.676   0.627  11.081  0.0284 -0.5998  0.4968
16290TIP3    H170285   1.747   0.663  11.028 -0.5096 -0.7739 -0.3780
16290TIP3    H270286   1.659   0.541  11.042 -0.2352 -0.8240  1.0983
16291TIP3   OH270287   3.722   4.960   1.040  0.2094 -0.4937 -0.0664
16291TIP3    H170288   3.716   4.978   1.134  0.5924  1.0270 -0.3188
16291TIP3    H270289   3.657   5.017   1.000  2.4743  1.6015 -1.0230
16292TIP3   OH270290   4.263   1.296  13.816 -0.2437  0.1439 -0.5180
16292TIP3    H170291   4.238   1.387  13.802  1.2609  0.5984 -0.4570
16292TIP3    H270292   4.214   1.269  13.893 -0.2632  1.0951 -0.1822
16293TIP3   OH270293   3.392   1.350   5.168  0.3309 -0.0803  0.4666
16293TIP3    H170294   3.386   1.421   5.104  0.9483 -0.7481 -0.3617
16293TIP3    H270295   3.483   1.320   5.162  0.8886  0.8894  2.8247
16294TIP3   OH270296   2.557   4.408   1.796  0.1662  0.0608 -0.1021
16294TIP3    H170297   2.583   4.321   1.767 -1.0406 -0.2803 -0.2329
16294TIP3    H270298   2.596   4.468   1.732  0.5977 -0.4175 -0.2919
16295TIP3   OH270299   0.893   1.437   4.997  0.2791 -0.4397 -0.0194
16295TIP3    H170300   0.843   1.511   4.963  0.0910  0.3328  1.8244
16295TIP3    H270301   0.845   1.360   4.968 -0.5607  0.2206 -0.4155
16296TIP3   OH270302   3.823   0.341   0.751  0.0499  0.3848 -0.1517
16296TIP3    H170303   3.777   0.415   0.712  0.7792  0.8742 -0.0948
16296TIP3    H270304   3.908   0.376   0.777  0.9294 -0.7903 -1.3351
16297TIP3   OH270305   1.756   2.153   2.408 -0.3992  0.6924 -0.4047
16297TIP3    H170306   1.833   2.201   2.380 -1.8513  2.2817 -1.9591
16297TIP3    H270307   1.698   2.219   2.446 -1.4993 -0.2121 -0.4371
16298TIP3   OH270308   5.842   5.706   4.611  0.3752  0.2337  0.3263
16298TIP3    H170309   5.909   5.768   4.581  0.7924 -0.2244  0.2855
16298TIP3    H270310   5.835   5.642   4.540 -0.2177  0.3618  0.2688
16299TIP3   OH270311   0.833   6.654   4.888  0.1434  0.5607 -0.2703
16299TIP3    H170312   0.897   6.692   4.947 -0.0258  1.3492 -0.5800
16299TIP3    H270313   0.818   6.722   4.821  1.1869 -0.7269 -1.8806
16300TIP3   OH270314   6.640   6.738   4.163  0.4178  0.0098 -0.0609
16300TIP3    H170315   6.586   6.774   4.234 -0.2256 -1.7870  0.4101
16300TIP3    H270316   6.660   6.814   4.108  0.2723  1.3213  1.5913
16301TIP3   OH270317   2.279   5.887   0.659  0.2531  0.0768 -0.4423
16301TIP3    H170318   2.336   5.964   0.658  0.3323  0.0177 -1.6202
16301TIP3    H270319   2.208   5.909   0.599 -1.8080  0.7337  2.0644
16302TIP3   OH270320   3.530   3.009   4.687  0.2060  0.3357  0.3005
16302TIP3    H170321   3.617   2.996   4.650 -0.5379 -1.8414 -0.8156
16302TIP3    H270322   3.533   2.969   4.773  0.4984  0.9495  0.5842
16303TIP3   OH270323   5.655   4.495  16.361 -0.2093 -0.3956 -0.4134
16303TIP3    H170324   5.599   4.421  16.384  0.4337 -0.2439  1.9126
16303TIP3    H270325   5.740   4.455  16.342  0.4788 -0.2424  2.0661
16304TIP3   OH270326   1.618   0.550  14.086  0.2726  0.6551 -0.1024
16304TIP3    H170327   1.580   0.610  14.150 -0.5029  0.1052 -0.0327
16304TIP3    H270328   1.551   0.544  14.017 -0.3070 -1.2494  0.5846
16305TIP3   OH270329   2.909   3.067   4.448 -0.0550  0.2370  0.3709
16305TIP3    H170330   2.962   3.042   4.524 -2.4495 -0.4143  1.9626
16305TIP3    H270331   2.885   3.158   4.464  0.5639  0.5305 -0.3349
16306TIP3   OH270332   0.669   2.712   3.328 -0.0587 -0.5696 -0.7982
16306TIP3    H170333   0.593   2.655   3.314  1.7535 -3.6568  0.8966
16306TIP3    H270334   0.631   2.797   3.349 -3.1075 -1.9776  0.0270
16307TIP3   OH270335   6.146   4.399   1.274  0.3229 -0.1499  0.1112
16307TIP3    H170336   6.200   4.476   1.255  0.1772 -0.3678 -1.2676
16307TIP3    H270337   6.090   4.426   1.347  0.7806  0.7884  0.1291
16308TIP3   OH270338   3.250   1.526   3.837 -0.8880  0.9858  0.3812
16308TIP3    H170339   3.263   1.620   3.844 -0.6982  0.8824  1.6227
16308TIP3    H270340   3.338   1.490   3.826 -1.0571  1.0242 -1.4061
16309TIP3   OH270341   4.578   6.176   2.747  0.0294  0.1799  0.0845
16309TIP3    H170342   4.618   6.105   2.797  0.3598  0.6735  0.5217
16309TIP3    H270343   4.651   6.218   2.702 -0.2241 -0.0434 -0.5500
16310TIP3   OH270344   4.941   5.612  15.724  0.2516  0.4431  0.1733
16310TIP3    H170345   4.911   5.535  15.675  2.0551  0.5413 -1.2006
16310TIP3    H270346   4.865   5.670  15.727 -0.3252 -0.1949 -1.2805
16311TIP3   OH270347   0.811   1.013   4.676 -0.0084 -0.2638  0.1690
16311TIP3    H170348   0.729   1.052   4.704  0.0628 -0.7459  1.0994
16311TIP3    H270349   0.828   1.050   4.590 -0.9817  0.1617  0.1557
16312TIP3   OH270350   2.676   2.842  14.482  0.0527  0.0425  0.1474
16312TIP3    H170351   2.613   2.777  14.451 -0.1188  0.6202 -0.7505
16312TIP3    H270352   2.758   2.793  14.492  0.2369 -0.0753 -1.7154
16313TIP3   OH270353   5.953   4.929  15.046  0.1445 -0.1724  0.0200
16313TIP3    H170354   6.020   4.916  15.113 -0.8105  1.6756  1.4165
16313TIP3    H270355   5.918   4.842  15.029  0.6544 -0.7295  1.6812
16314TIP3   OH270356   1.543   3.639  17.245 -0.2629 -0.0869  0.4953
16314TIP3    H170357   1.499   3.559  17.273  0.7701 -1.0871 -0.6482
16314TIP3    H270358   1.602   3.611  17.175 -0.6814  1.8376 -0.7134
16315TIP3   OH270359   6.743   1.211   5.214  0.4970 -0.3800  0.1819
16315TIP3    H170360   6.734   1.290   5.160 -0.2860  0.5735  1.6421
16315TIP3    H270361   6.803   1.155   5.165  0.7939  0.9686 -1.0650
16316TIP3   OH270362   6.366   1.121   2.655 -0.3203 -0.3054  0.1617
16316TIP3    H170363   6.418   1.138   2.577  0.4876  0.9268  0.9463
16316TIP3    H270364   6.275   1.131   2.626 -0.0005  1.5187 -0.3474
16317TIP3   OH270365   3.080   4.098  16.426  0.1535  0.3208 -0.6710
16317TIP3    H170366   2.985   4.101  16.435  0.0566  0.1179 -1.5462
16317TIP3    H270367   3.112   4.076  16.513 -0.7719 -2.4551 -0.9110
16318TIP3   OH270368   2.211   0.433  11.140 -0.4998 -0.3097 -0.2204
16318TIP3    H170369   2.198   0.339  11.129  1.0530 -0.3810 -1.9927
16318TIP3    H270370   2.148   0.473  11.081 -1.5322 -0.1987  0.9370
16319TIP3   OH270371   1.899   2.816  14.599  0.1596 -0.4119  0.5230
16319TIP3    H170372   1.943   2.763  14.664 -0.7545 -1.5024  0.2827
16319TIP3    H270373   1.806   2.794  14.608 -0.3227  1.4370  0.6807
16320TIP3   OH270374   4.997   5.654  12.921  0.1308  0.0802  0.0372
16320TIP3    H170375   5.070   5.613  12.875  0.3411  0.7630 -0.2502
16320TIP3    H270376   4.990   5.605  13.003  2.0649  1.1042  0.8853
16321TIP3   OH270377   3.049   3.208   1.790  0.0548 -0.0885 -0.1257
16321TIP3    H170378   2.998   3.246   1.861 -0.8154  1.6041 -1.5831
16321TIP3    H270379   3.032   3.114   1.797 -0.7710  0.1387  1.3039
16322TIP3   OH270380   5.906   2.948   1.701 -0.4522 -0.0315  0.3468
16322TIP3    H170381   5.935   2.859   1.685  1.8540  0.7032  0.1562
16322TIP3    H270382   5.835   2.962   1.638 -1.0523 -1.7724  0.5726
16323TIP3   OH270383   6.421   4.949   1.442  0.2810 -0.1499 -0.6083
16323TIP3    H170384   6.390   5.036   1.416  1.4186  0.6063  0.4421
16323TIP3    H270385   6.508   4.964   1.480  0.8813 -1.8658 -1.1866
16324TIP3   OH270386   6.094   2.835  11.725 -0.1994 -0.0482  0.1524
16324TIP3    H170387   6.041   2.870  11.797 -0.6234  0.8188 -0.5707
16324TIP3    H270388   6.042   2.762  11.691 -0.1705 -0.2241  0.4783
16325TIP3   OH270389   2.275   4.270  11.578 -0.2440 -0.3427 -0.1719
16325TIP3    H170390   2.183   4.247  11.568 -0.0371 -1.8639  0.9527
16325TIP3    H270391   2.274   4.362  11.605 -1.4663 -0.4821  0.3129
16326TIP3   OH270392   4.017   1.763   0.289 -0.2021 -0.5853 -0.4374
16326TIP3    H170393   4.101   1.785   0.331 -0.4777 -0.8571  0.2654
16326TIP3    H270394   4.024   1.802   0.202 -0.1910  1.2897  0.3536
16327TIP3   OH270395   0.933   6.626  17.446  0.2276 -0.0437 -0.1366
16327TIP3    H170396   0.969   6.573  17.517  0.2969 -0.2414 -0.3192
16327TIP3    H270397   1.010   6.662  17.402  0.1829  0.1378 -0.0714
16328TIP3   OH270398   0.804   6.663  10.456  0.6142  0.5794  0.4940
16328TIP3    H170399   0.764   6.602  10.394  1.0119  0.2916  0.5180
16328TIP3    H270400   0.802   6.748  10.412  0.9194  0.3729  0.0805
16329TIP3   OH270401   3.629   3.544  13.812  0.0326  0.5531 -0.2460
16329TIP3    H170402   3.541   3.578  13.795 -1.2230 -1.9992  0.5708
16329TIP3    H270403   3.667   3.530  13.725 -0.7248  0.8311 -0.6285
16330TIP3   OH270404   2.705   3.246  16.567 -0.0862  0.8000 -0.2302
16330TIP3    H170405   2.792   3.277  16.592 -1.1073  2.4742  1.5303
16330TIP3    H270406   2.655   3.247  16.648 -1.5133 -1.1317 -1.0087
16331TIP3   OH270407   6.577   4.091  16.355 -0.2396  0.1956 -0.0239
16331TIP3    H170408   6.498   4.038  16.346 -0.0292 -0.1103 -0.0833
16331TIP3    H270409   6.632   4.042  16.416 -0.5710  0.9786  0.9245
16332TIP3   OH270410   6.263   0.616   5.494 -0.3755  1.0363 -0.6959
16332TIP3    H170411   6.181   0.578   5.527  1.8559 -1.5954  2.5536
16332TIP3    H270412   6.292   0.556   5.426  1.9239 -2.2284  2.7668
16333TIP3   OH270413   4.032   5.234   5.224 -0.4999 -0.1987 -0.2793
16333TIP3    H170414   4.005   5.292   5.152  0.0713 -0.7692 -0.9747
16333TIP3    H270415   4.089   5.288   5.278  0.0081 -0.0986 -0.9098
16334TIP3   OH270416   3.522   0.408  17.025  0.1860 -0.2885  0.2903
16334TIP3    H170417   3.503   0.374  17.112  1.1980  0.5150  0.8469
16334TIP3    H270418   3.449   0.468  17.006 -1.3503 -2.2869 -0.4936
16335TIP3   OH270419   5.317   3.888  14.532 -0.2320 -0.1541  0.1950
16335TIP3    H170420   5.402   3.892  14.576  0.1661  1.2322 -0.6427
16335TIP3    H270421   5.254   3.902  14.602  0.3097  0.4534  0.5740
16336TIP3   OH270422   2.645   5.563   4.098 -0.0458  0.2644 -0.5601
16336TIP3    H170423   2.732   5.603   4.098 -1.2446  3.1566 -0.0200
16336TIP3    H270424   2.633   5.533   4.008  1.6197 -0.5820 -0.5482
16337TIP3   OH270425   1.217   0.389  16.358 -0.4743  0.2926  0.1481
16337TIP3    H170426   1.175   0.365  16.275 -1.0287  2.4849 -0.2741
16337TIP3    H270427   1.276   0.461  16.335  1.0488 -0.5184  1.3238
16338TIP3   OH270428   0.555   3.066  16.194 -0.2602 -0.1497 -0.1690
16338TIP3    H170429   0.635   3.117  16.206 -0.7960  0.6024  0.2698
16338TIP3    H270430   0.573   2.984  16.239 -0.2148  0.5255  1.1012
16339TIP3   OH270431   2.359   6.612  13.899 -0.4203  0.3373  0.3607
16339TIP3    H170432   2.444   6.611  13.855 -0.8170  0.2852 -0.4194
16339TIP3    H270433   2.326   6.523  13.891 -1.4526  0.8164 -1.1715
16340TIP3   OH270434   2.664   0.340  14.113  0.0599 -0.2233 -0.9032
16340TIP3    H170435   2.622   0.370  14.194  0.0291  0.0009 -1.0006
16340TIP3    H270436   2.652   0.245  14.114 -0.1953 -0.1923 -0.7866
16341TIP3   OH270437   3.463   1.169  15.670 -0.0028  0.7731  0.6704
16341TIP3    H170438   3.534   1.223  15.703 -0.2318 -0.7237  3.9967
16341TIP3    H270439   3.492   1.079  15.684 -2.1604  0.1180  1.3564
16342TIP3   OH270440   5.382   0.203   2.493  0.6834 -0.0558  0.8464
16342TIP3    H170441   5.344   0.225   2.579  2.4824  0.0840  1.6485
16342TIP3    H270442   5.476   0.220   2.503  1.0997 -1.1357 -0.8073
16343TIP3   OH270443   4.675   5.113  14.510 -0.0499 -1.1286  0.2678
16343TIP3    H170444   4.673   5.207  14.525  1.9729 -1.2876  1.9327
16343TIP3    H270445   4.742   5.100  14.443 -1.5590 -1.3069 -1.2863
16344TIP3   OH270446   1.011   6.432   2.920 -0.3531  0.2111  0.2200
16344TIP3    H170447   0.945   6.362   2.924 -0.4573  0.2127 -1.0900
16344TIP3    H270448   1.095   6.385   2.915 -0.5005  0.0820 -2.3264
16345TIP3   OH270449   5.102   6.728  14.114 -0.1298 -0.4027  0.3519
16345TIP3    H170450   5.024   6.705  14.063  1.1039 -0.8057 -1.4454
16345TIP3    H270451   5.077   6.808  14.161 -0.7122  1.2681 -2.5590
16346TIP3   OH270452   2.891   4.347   4.226  0.2928  0.0524 -0.2615
16346TIP3    H170453   2.966   4.289   4.242  0.7474  0.0973 -1.9541
16346TIP3    H270454   2.876   4.340   4.131 -0.1132  2.1183 -0.3999
16347TIP3   OH270455   5.335   0.810  11.215 -0.5759  0.3123 -0.1949
16347TIP3    H170456   5.341   0.901  11.244 -2.2215  0.8285 -1.3351
16347TIP3    H270457   5.293   0.764  11.288  0.3930  0.3904  0.4445
16348TIP3   OH270458   3.641   5.534   2.470 -0.1194 -0.2257  0.6201
16348TIP3    H170459   3.606   5.519   2.382 -1.7420  3.6308  0.4029
16348TIP3    H270460   3.736   5.529   2.459 -0.3088 -0.3368 -1.2447
16349TIP3   OH270461   4.720   1.030  15.835  0.3416 -0.5725 -0.0789
16349TIP3    H170462   4.810   1.006  15.814  0.7632  0.5867  0.3428
16349TIP3    H270463   4.692   1.083  15.761  0.5215  0.3050  0.4692
16350TIP3   OH270464   1.974   4.128  15.646 -0.2145  0.3387 -0.1092
16350TIP3    H170465   1.957   4.185  15.572  0.5849  0.9695  0.1754
16350TIP3    H270466   2.063   4.150  15.673  0.8283 -2.2407 -1.0788
16351TIP3   OH270467   4.992   1.004  16.303  0.7665  0.4569  0.2742
16351TIP3    H170468   5.058   0.962  16.249  0.5153  0.2787  0.1074
16351TIP3    H270469   4.973   1.087  16.258  0.4200  0.2227 -0.0108
16352TIP3   OH270470   6.167   2.783  13.735 -0.1319 -0.2537  0.6334
16352TIP3    H170471   6.256   2.802  13.706 -0.3038 -1.8642 -1.1535
16352TIP3    H270472   6.115   2.856  13.701 -0.0278 -1.1763 -1.6338
16353TIP3   OH270473   1.136   0.238  16.805 -0.3025 -0.3980  0.6593
16353TIP3    H170474   1.217   0.216  16.759  0.0252 -0.0397  1.0477
16353TIP3    H270475   1.120   0.330  16.784 -0.1646 -0.2377  1.2182
16354TIP3   OH270476   5.952   4.450   0.822  0.0210 -0.2115  0.1434
16354TIP3    H170477   5.881   4.417   0.766 -0.4635  0.4983  0.3264
16354TIP3    H270478   5.987   4.372   0.865 -0.6756 -0.5652  0.0764
16355TIP3   OH270479   4.366   5.207  17.428  0.2963  0.2165 -0.1926
16355TIP3    H170480   4.437   5.234  17.369  1.2017  2.4231  1.7457
16355TIP3    H270481   4.378   5.261  17.506 -1.7719 -1.4870  1.4193
16356TIP3   OH270482   0.056   6.403   2.094 -0.8964  0.1515 -0.9959
16356TIP3    H170483  -0.013   6.462   2.063 -0.1347  1.8130  0.2796
16356TIP3    H270484   0.009   6.331   2.135 -1.8636  0.5068 -1.4474
16357TIP3   OH270485   4.056   0.737  13.268  0.0804  0.2074  0.1886
16357TIP3    H170486   4.013   0.818  13.297 -0.2754  0.0886 -0.0109
16357TIP3    H270487   4.149   0.752  13.288  0.3321  1.4851 -1.6685
16358TIP3   OH270488   5.022   1.172  11.402 -0.2945  0.0841  0.1031
16358TIP3    H170489   5.059   1.084  11.405  0.8230  0.5427  0.1703
16358TIP3    H270490   5.068   1.214  11.329 -0.7071  0.6631  0.1768
16359TIP3   OH270491   1.569   1.670   2.097  0.0322  0.5213  0.0137
16359TIP3    H170492   1.520   1.589   2.114 -0.6984  1.0579  0.5542
16359TIP3    H270493   1.529   1.706   2.017  1.1915 -0.2746 -0.9414
16360TIP3   OH270494   5.885   2.957   2.504  1.0077 -0.7999 -0.1278
16360TIP3    H170495   5.790   2.968   2.505  1.2125  1.4427  1.2006
16360TIP3    H270496   5.898   2.863   2.516 -1.0625 -0.8473  3.0832
16361TIP3   OH270497   2.171   4.197   4.306  0.4185 -0.3711  0.1263
16361TIP3    H170498   2.264   4.214   4.316  0.3921 -0.2756  0.2185
16361TIP3    H270499   2.129   4.264   4.360  0.2672  0.2292 -0.7171
16362TIP3   OH270500   1.458   3.212  15.552  0.2000  0.5008 -0.7957
16362TIP3    H170501   1.550   3.227  15.527  0.6140 -1.1707 -0.4489
16362TIP3    H270502   1.460   3.208  15.648 -0.1731  0.1004 -0.8040
16363TIP3   OH270503   1.908   1.825  15.221  0.2936  0.0213 -0.4250
16363TIP3    H170504   1.857   1.786  15.292  0.0209  1.1801  0.0251
16363TIP3    H270505   1.856   1.809  15.143 -0.4015  0.5419 -0.0707
16364TIP3   OH270506   4.767   3.271  15.287 -0.0802 -0.3434  0.3233
16364TIP3    H170507   4.848   3.230  15.256 -0.0289  0.1103 -0.1665
16364TIP3    H270508   4.717   3.200  15.326 -0.0427 -0.9078 -0.6232
16365TIP3   OH270509   2.061   5.122   4.241 -0.1204  0.6704  0.3471
16365TIP3    H170510   2.034   5.170   4.162 -1.5280 -0.2527  0.2393
16365TIP3    H270511   1.979   5.093   4.280  0.6416 -0.2688  1.2882
16366TIP3   OH270512   3.843   2.553   3.485 -0.0636  0.0197  0.5205
16366TIP3    H170513   3.807   2.466   3.504 -1.2871  0.6107  1.0274
16366TIP3    H270514   3.853   2.593   3.571 -5.6554  2.7456  0.2996
16367TIP3   OH270515   5.743   4.951   3.590  0.5328  0.5387  0.1372
16367TIP3    H170516   5.686   5.015   3.632 -0.0132  0.6852 -0.7887
16367TIP3    H270517   5.750   4.879   3.652 -0.0455  0.8573  0.5711
16368TIP3   OH270518   1.841   6.471   0.663 -0.4479 -0.9128 -0.0102
16368TIP3    H170519   1.783   6.398   0.639 -1.1831 -0.8362  1.4522
16368TIP3    H270520   1.908   6.431   0.718  0.1012 -0.7487 -0.5434
16369TIP3   OH270521   4.057   4.675  16.540  0.7566  0.2845  0.1947
16369TIP3    H170522   4.043   4.588  16.503 -0.1557  0.2467  0.5944
16369TIP3    H270523   4.035   4.666  16.633  0.7838  0.9104  0.2700
16370TIP3   OH270524   1.785   2.667  11.991 -0.2863  1.1554  0.0501
16370TIP3    H170525   1.763   2.590  12.042 -0.1427  1.1174  0.0562
16370TIP3    H270526   1.875   2.652  11.962 -0.2652  1.3096  0.0328
16371TIP3   OH270527   1.455   4.048  15.434 -0.1766 -0.3245 -1.0069
16371TIP3    H170528   1.389   4.106  15.471 -0.4099  0.1838 -2.1861
16371TIP3    H270529   1.523   4.107  15.400  1.3135 -0.8380  0.8765
16372TIP3   OH270530   3.619   6.021   0.463  0.1240 -0.2387 -0.1460
16372TIP3    H170531   3.653   5.946   0.414 -1.3591 -0.0846 -1.4725
16372TIP3    H270532   3.608   5.988   0.552  0.0968 -1.4234 -0.5621
16373TIP3   OH270533   2.938   3.735   0.044  0.0925 -0.1844 -0.8945
16373TIP3    H170534   2.930   3.722  -0.050 -1.5122  1.1845 -0.9787
16373TIP3    H270535   2.956   3.829   0.054  5.3268 -0.9348 -0.0191
16374TIP3   OH270536   0.980   1.382  15.375  0.3939 -0.5996  0.2079
16374TIP3    H170537   0.982   1.457  15.434  0.7755 -0.2863 -0.1922
16374TIP3    H270538   0.897   1.339  15.394 -0.6416  0.8886 -0.7243
16375TIP3   OH270539   0.688   6.375  11.707  0.1206 -0.6073  0.0618
16375TIP3    H170540   0.768   6.425  11.692  0.8705 -1.4348  1.2277
16375TIP3    H270541   0.700   6.295  11.655 -0.3000 -0.4002 -0.3671
16376TIP3   OH270542   1.581   5.726  11.726  0.3344 -0.0599  0.3773
16376TIP3    H170543   1.630   5.644  11.724 -1.1963 -1.0008 -0.0098
16376TIP3    H270544   1.643   5.792  11.696  1.4336 -1.1603  0.1666
16377TIP3   OH270545   2.226   2.620   3.753  0.0696  0.2261 -0.1276
16377TIP3    H170546   2.158   2.673   3.794 -0.3680 -0.2983 -0.1722
16377TIP3    H270547   2.182   2.574   3.682  0.7650  0.9307 -1.0371
16378TIP3   OH270548   5.401   0.042   5.663  0.1890  0.2646  0.6444
16378TIP3    H170549   5.306   0.031   5.651  0.2881 -0.5242  0.5554
16378TIP3    H270550   5.413   0.137   5.667 -0.1640  0.5623 -2.8280
16379TIP3   OH270551   3.274   5.768  12.282 -0.0312  0.1047 -0.5333
16379TIP3    H170552   3.271   5.716  12.363  1.6704 -2.5289 -2.0226
16379TIP3    H270553   3.198   5.739  12.232  0.4436 -0.3422 -1.0086
16380TIP3   OH270554   3.913   4.003  17.305 -0.6900  0.3355  0.0869
16380TIP3    H170555   3.967   3.943  17.356  0.5798  1.5639  0.2705
16380TIP3    H270556   3.935   3.982  17.214 -2.6892 -1.6136 -0.0279
16381TIP3   OH270557   5.333   0.164  13.471 -0.5889 -0.1630 -0.3094
16381TIP3    H170558   5.289   0.230  13.418 -1.1952 -0.2920  0.0201
16381TIP3    H270559   5.424   0.166  13.442 -0.1384  2.1496  0.9474
16382TIP3   OH270560   0.283   3.111   0.269 -0.1993  0.2029 -0.4631
16382TIP3    H170561   0.256   3.188   0.219  0.8189  0.8002 -0.1203
16382TIP3    H270562   0.378   3.107   0.258 -0.2939 -1.3902 -0.9990
16383TIP3   OH270563   1.797   2.671  12.842 -0.4921  0.9530 -0.0327
16383TIP3    H170564   1.787   2.619  12.921 -2.7139  1.3991  0.0537
16383TIP3    H270565   1.854   2.619  12.786 -0.7600 -0.4603  0.9533
16384TIP3   OH270566   2.672   6.274   0.916  0.3829  0.3863  0.1151
16384TIP3    H170567   2.636   6.324   0.844  2.5588 -0.7059 -1.8763
16384TIP3    H270568   2.614   6.198   0.923  0.1636  0.4839 -0.5343
16385TIP3   OH270569   5.749   2.525   4.343  0.2944 -0.2792 -0.1837
16385TIP3    H170570   5.843   2.507   4.347  0.1819 -0.6408  2.6173
16385TIP3    H270571   5.711   2.476   4.416 -2.0806 -0.0021 -1.1280
16386TIP3   OH270572   6.015   0.149  13.770  0.2175 -0.3664  0.0529
16386TIP3    H170573   6.106   0.142  13.798  0.4106 -0.6662 -0.6362
16386TIP3    H270574   5.995   0.243  13.777  1.2451  0.0226 -1.8082
16387TIP3   OH270575   0.208   5.066   0.743 -0.2859  0.3275 -0.0173
16387TIP3    H170576   0.201   5.161   0.728 -2.6477  0.1584 -0.3157
16387TIP3    H270577   0.129   5.043   0.791 -0.2009 -1.6450 -0.7244
16388TIP3   OH270578   2.123   6.470   3.487  0.7569 -0.1000 -0.1175
16388TIP3    H170579   2.073   6.451   3.408 -0.8151 -1.0582  1.0290
16388TIP3    H270580   2.103   6.397   3.546  2.3001  0.3084  0.9684
16389TIP3   OH270581   6.543   0.015  16.501 -0.0265 -0.0773 -0.0315
16389TIP3    H170582   6.572  -0.003  16.411 -1.6812  0.2670 -0.6596
16389TIP3    H270583   6.477   0.084  16.492 -0.8069 -0.6040  1.3772
16390TIP3   OH270584   5.349   2.357   5.913 -0.5040  0.9318 -0.2853
16390TIP3    H170585   5.436   2.318   5.907  0.1643  1.9868  1.5333
16390TIP3    H270586   5.311   2.319   5.992 -2.0682 -0.1324 -1.4994
16391TIP3   OH270587   6.112   5.307  11.936  0.3993  0.5482 -0.2337
16391TIP3    H170588   6.175   5.279  11.870 -1.2263 -0.1726 -1.5347
16391TIP3    H270589   6.107   5.234  11.997 -1.2882 -0.6514 -1.7350
16392TIP3   OH270590   1.405   0.848  15.996  0.1357  0.1703  0.2967
16392TIP3    H170591   1.336   0.796  16.036 -1.0158  2.0413  0.8766
16392TIP3    H270592   1.404   0.931  16.045  2.5051  0.4123  0.0182
16393TIP3   OH270593   3.960   4.952   5.685 -0.1050 -0.2719 -0.2148
16393TIP3    H170594   4.049   4.939   5.653 -0.6813  0.0056 -2.0409
16393TIP3    H270595   3.946   5.047   5.678 -0.9853 -0.4609 -1.2863
16394TIP3   OH270596   2.738   0.639   5.036  0.2832 -0.2220  0.1337
16394TIP3    H170597   2.813   0.590   5.070 -1.0612 -1.9353  0.8163
16394TIP3    H270598   2.699   0.680   5.113 -0.1414 -0.3188 -0.0245
16395TIP3   OH270599   4.986   3.245  11.711  0.6889  0.5561  0.2848
16395TIP3    H170600   5.011   3.160  11.673  1.9340  0.2116  1.7432
16395TIP3    H270601   4.916   3.223  11.772 -0.4867  0.9296 -0.8958
16396TIP3   OH270602   4.838   5.767  13.752 -0.3587 -0.6493  0.5781
16396TIP3    H170603   4.855   5.673  13.749 -2.0468 -1.0945  2.5587
16396TIP3    H270604   4.858   5.792  13.842 -1.0076  0.6447  0.3828
16397TIP3   OH270605   3.578   4.703   1.475  1.0229  0.0572 -0.1608
16397TIP3    H170606   3.669   4.687   1.503  1.1862 -0.4154 -0.9386
16397TIP3    H270607   3.539   4.616   1.471 -0.6477  0.4037  3.8909
16398TIP3   OH270608   1.197   2.519  12.901  0.4973 -0.0553 -0.3059
16398TIP3    H170609   1.169   2.430  12.878  0.4096  0.0820 -0.7428
16398TIP3    H270610   1.116   2.564  12.923  0.1019  0.7925 -3.0868
16399TIP3   OH270611   2.523   5.247   5.319 -0.5677 -0.3502 -0.3661
16399TIP3    H170612   2.476   5.164   5.319 -0.8683 -0.1885 -0.9312
16399TIP3    H270613   2.463   5.309   5.360 -0.6451 -0.2583 -0.6127
16400TIP3   OH270614   3.794   6.499  12.624 -0.3495  0.1373  0.1786
16400TIP3    H170615   3.880   6.485  12.585 -1.0056 -0.9236 -0.9658
16400TIP3    H270616   3.802   6.464  12.713  0.8865  1.6915  0.7419
16401TIP3   OH270617   0.166   2.968   4.580 -0.4190  0.2916 -0.0438
16401TIP3    H170618   0.093   2.929   4.628 -0.3635 -1.9084 -1.6134
16401TIP3    H270619   0.242   2.917   4.606  0.0943  0.8435 -0.4361
16402TIP3   OH270620   1.043   2.953  16.117 -0.7126 -0.1752 -0.2442
16402TIP3    H170621   1.073   2.919  16.033 -0.0431  0.7291 -0.3920
16402TIP3    H270622   1.035   2.876  16.173  3.4636 -0.4437  0.2952
16403TIP3   OH270623   5.604   2.402  17.317 -0.1860 -0.0445  0.1044
16403TIP3    H170624   5.699   2.400  17.328 -0.2133 -0.8089  0.2386
16403TIP3    H270625   5.580   2.311  17.303 -1.0254 -0.0080  1.1792
16404TIP3   OH270626   1.169   5.017   5.522 -0.0787 -0.3885 -0.1617
16404TIP3    H170627   1.190   4.928   5.550  0.5146 -0.4997 -0.9272
16404TIP3    H270628   1.083   5.035   5.560 -0.0891 -1.1859  0.2097
16405TIP3   OH270629   0.037   0.462   2.688 -0.2891  0.1832  0.2101
16405TIP3    H170630   0.104   0.450   2.756 -1.1698  0.3371  1.1212
16405TIP3    H270631   0.073   0.417   2.611 -0.2184 -1.9226  1.3961
16406TIP3   OH270632   4.319   6.403  14.882 -0.5765  0.4076  0.5450
16406TIP3    H170633   4.240   6.392  14.935 -0.9133  1.0437  0.1810
16406TIP3    H270634   4.290   6.389  14.792  0.1941 -1.7606  0.5614
16407TIP3   OH270635   5.811   3.427  13.115  0.4581 -0.3168 -0.7851
16407TIP3    H170636   5.776   3.494  13.057  1.5383  0.2870 -0.7733
16407TIP3    H270637   5.856   3.476  13.184 -0.7991 -1.0204  0.5851
16408TIP3   OH270638   0.184   4.826  16.066  0.7760 -0.6365  0.0093
16408TIP3    H170639   0.167   4.889  16.137  0.4284 -1.5468  0.7582
16408TIP3    H270640   0.205   4.880  15.991 -0.6273  0.4311  0.3354
16409TIP3   OH270641   3.179   2.428   2.668  0.0534 -0.2716  0.2175
16409TIP3    H170642   3.144   2.414   2.580  4.2101  1.3293 -1.9381
16409TIP3    H270643   3.256   2.371   2.673  0.6698  0.6519  2.3214
16410TIP3   OH270644   2.755   0.893  15.146  0.2561 -0.3576 -0.1598
16410TIP3    H170645   2.737   0.801  15.167  1.1836 -1.0636 -2.1789
16410TIP3    H270646   2.793   0.890  15.058  1.5146  1.8531  0.2433
16411TIP3   OH270647   2.627   0.281   2.906  0.4574 -0.2639  0.4204
16411TIP3    H170648   2.718   0.253   2.913  0.6214 -0.0146 -0.6607
16411TIP3    H270649   2.630   0.377   2.917  0.2534 -0.3073  0.9164
16412TIP3   OH270650   6.125   3.664   2.352  0.1082  0.5934 -0.3901
16412TIP3    H170651   6.096   3.751   2.324 -1.7787  0.9158  2.1999
16412TIP3    H270652   6.071   3.604   2.300 -2.2698  1.1488  1.2386
16413TIP3   OH270653   1.521   1.873   1.262 -0.0444  0.3157  0.6505
16413TIP3    H170654   1.604   1.824   1.266  0.3590  0.8259 -0.9024
16413TIP3    H270655   1.453   1.806   1.272  0.4891 -0.6439 -1.4772
16414TIP3   OH270656   5.856   3.444  15.903 -0.2348  0.2070 -0.6844
16414TIP3    H170657   5.765   3.441  15.931 -0.1683 -0.8779 -0.5276
16414TIP3    H270658   5.872   3.535  15.879 -0.8528  0.7641  0.9507
16415TIP3   OH270659   5.972   5.837   5.028 -0.0651 -0.7543 -0.4581
16415TIP3    H170660   6.049   5.872   4.982  0.0499  1.2417  1.0743
16415TIP3    H270661   6.009   5.783   5.098  0.2265  1.9977  1.7229
16416TIP3   OH270662   2.506   3.598  13.387  0.0143 -0.0305  0.2906
16416TIP3    H170663   2.502   3.615  13.293  0.7966  0.5196  0.3394
16416TIP3    H270664   2.477   3.680  13.427  1.0063  0.2254  0.5238
16417TIP3   OH270665   5.271   3.636   1.845 -0.0194 -0.1972  0.0050
16417TIP3    H170666   5.322   3.656   1.924 -0.3453 -0.0562  0.1836
16417TIP3    H270667   5.304   3.552   1.815 -1.0911 -1.1314  1.3012
16418TIP3   OH270668   5.853   5.634   5.332  0.8943  0.0204  0.2560
16418TIP3    H170669   5.938   5.629   5.287  0.2993  2.1241 -1.2965
16418TIP3    H270670   5.831   5.727   5.331 -1.0245 -0.3585  1.4490
16419TIP3   OH270671   1.367   3.294  11.708  0.2739 -0.1297  0.1974
16419TIP3    H170672   1.288   3.241  11.718 -0.4598  0.5063 -1.7318
16419TIP3    H270673   1.344   3.379  11.745  1.1657 -0.8110  2.5044
16420TIP3   OH270674   4.096   5.238  15.739 -1.1091  0.5809 -0.0079
16420TIP3    H170675   4.086   5.303  15.808  1.7291  1.1409 -0.0183
16420TIP3    H270676   4.010   5.195  15.734 -2.1215  2.1771  2.1317
16421TIP3   OH270677   4.363   2.242  15.123 -0.5312 -0.2297 -0.2973
16421TIP3    H170678   4.329   2.186  15.053 -0.7176 -1.3011  0.6235
16421TIP3    H270679   4.285   2.277  15.167 -0.4202 -0.1243 -0.1797
16422TIP3   OH270680   0.300   6.557   4.746  0.1235 -0.0548 -0.6037
16422TIP3    H170681   0.384   6.574   4.704 -0.1426 -0.1411 -1.1872
16422TIP3    H270682   0.268   6.476   4.706  0.7180 -1.2066  1.1339
16423TIP3   OH270683   1.480   4.284   3.268  0.0426 -0.8688  0.0768
16423TIP3    H170684   1.472   4.362   3.213 -0.5778 -2.0196 -1.5751
16423TIP3    H270685   1.419   4.299   3.340 -1.8524 -0.7477 -1.4408
16424TIP3   OH270686   0.469   2.067   3.653 -0.3778  0.1393 -0.4869
16424TIP3    H170687   0.479   1.978   3.686  0.6221  0.2109 -0.5701
16424TIP3    H270688   0.376   2.074   3.632 -0.5270 -0.7819 -0.1976
16425TIP3   OH270689   4.208   3.972   1.234  0.2804  0.5123 -0.6808
16425TIP3    H170690   4.122   3.952   1.197  0.1485  2.7485 -1.7424
16425TIP3    H270691   4.211   4.067   1.238  2.0029  0.4480  1.1340
16426TIP3   OH270692   6.307   1.153   1.368  0.3664 -0.2948  0.9791
16426TIP3    H170693   6.234   1.092   1.359  0.3438  0.0893 -2.8669
16426TIP3    H270694   6.381   1.109   1.327  1.5982  0.4837  2.2546
16427TIP3   OH270695   1.071   4.501  13.240  0.5492  0.2985 -0.1639
16427TIP3    H170696   1.158   4.472  13.266  0.7694 -0.6478 -1.7861
16427TIP3    H270697   1.071   4.493  13.144 -1.3316  0.2328 -0.1995
16428TIP3   OH270698   4.630   3.129  15.032 -0.2234 -0.1913 -0.0652
16428TIP3    H170699   4.551   3.148  15.082  0.1530  0.2230  0.3862
16428TIP3    H270700   4.667   3.051  15.073  0.5606  0.6620  0.8919
16429TIP3   OH270701   1.431   0.387  13.589  0.1390  0.3134 -0.4041
16429TIP3    H170702   1.466   0.299  13.604  1.5635  1.1217  1.4702
16429TIP3    H270703   1.336   0.377  13.594  0.1852 -1.3409 -1.8634
16430TIP3   OH270704   4.918   2.771   3.351  0.4260  0.2780 -0.1102
16430TIP3    H170705   4.932   2.820   3.270  0.1852  0.1796 -0.2148
16430TIP3    H270706   4.869   2.693   3.323  0.4504  0.1830  0.1120
16431TIP3   OH270707   3.355   3.567   2.649  0.0735  0.1856 -0.2563
16431TIP3    H170708   3.428   3.506   2.652  0.5808  0.7361 -0.9996
16431TIP3    H270709   3.281   3.515   2.618  0.8217  0.2125 -2.2418
16432TIP3   OH270710   6.371   5.456  12.692  0.8092 -0.0991  0.2738
16432TIP3    H170711   6.381   5.421  12.780  1.8553 -0.8632 -0.1334
16432TIP3    H270712   6.383   5.381  12.634  0.9541  0.5371 -0.5466
16433TIP3   OH270713   6.253   1.451  14.328 -0.6678 -0.0820 -0.8655
16433TIP3    H170714   6.229   1.442  14.235 -1.6914 -2.1191 -0.4753
16433TIP3    H270715   6.169   1.446  14.374 -0.2611  1.8332  0.1546
16434TIP3   OH270716   0.849   1.503   3.858 -0.2394  0.2828  0.1906
16434TIP3    H170717   0.938   1.477   3.835  0.4130 -0.0980  2.8727
16434TIP3    H270718   0.854   1.597   3.871 -0.5692  0.4699 -0.9121
16435TIP3   OH270719   5.080   0.193  11.905  0.8632 -0.2674  0.4323
16435TIP3    H170720   5.044   0.272  11.865 -0.4318 -0.9971  0.0953
16435TIP3    H270721   5.082   0.212  11.998 -1.5275 -0.5705  0.6195
16436TIP3   OH270722   0.231   2.313   6.158 -0.1874 -0.3954 -0.1498
16436TIP3    H170723   0.289   2.386   6.179 -0.0284 -0.2979 -0.9055
16436TIP3    H270724   0.193   2.288   6.242  1.1937 -0.6769  0.4207
16437TIP3   OH270725   2.714   5.320   5.844  0.1340 -0.2885 -0.5922
16437TIP3    H170726   2.725   5.308   5.938  2.5422  2.3996 -0.3951
16437TIP3    H270727   2.776   5.259   5.804  1.6723  0.9493 -0.2143
16438TIP3   OH270728   5.020   0.688   4.999  0.2322 -0.4120  0.0686
16438TIP3    H170729   4.989   0.757   5.058  1.1990  0.3291 -0.2665
16438TIP3    H270730   4.960   0.615   5.015 -3.1888  1.5905 -2.0534
16439TIP3   OH270731   4.007   1.143  12.140  0.1596  0.5426 -0.8795
16439TIP3    H170732   3.967   1.056  12.146  0.8780  0.2002 -0.9187
16439TIP3    H270733   4.085   1.138  12.196 -0.7289  1.7215  0.5242
16440TIP3   OH270734   3.026   6.180  14.404 -0.3343 -0.1714  0.5316
16440TIP3    H170735   2.975   6.163  14.483  1.5624  0.8969  2.0762
16440TIP3    H270736   2.960   6.206  14.338 -1.7705  2.3156  2.7406
16441TIP3   OH270737   1.075   3.261   1.872 -0.3253  0.1179 -0.4764
16441TIP3    H170738   1.020   3.336   1.896 -1.4115 -0.5241 -0.8504
16441TIP3    H270739   1.055   3.246   1.780  0.1391 -0.4271 -0.4911
16442TIP3   OH270740   5.360   6.375   3.222 -0.3677 -0.4964 -0.2853
16442TIP3    H170741   5.420   6.417   3.283 -1.8899  0.6197  0.5158
16442TIP3    H270742   5.386   6.283   3.222  0.3845 -0.3094  1.1672
16443TIP3   OH270743   5.599   3.122  13.448  0.2095  0.1921 -0.2768
16443TIP3    H170744   5.508   3.121  13.416 -0.6444 -2.9793  1.8098
16443TIP3    H270745   5.592   3.105  13.542  2.9434  1.7635  0.3206
16444TIP3   OH270746   5.012   6.450  13.647 -0.4060 -0.2045  0.6127
16444TIP3    H170747   5.090   6.404  13.614  0.2948  1.2855  0.0922
16444TIP3    H270748   4.939   6.396  13.618  0.2933 -0.0262 -1.7389
16445TIP3   OH270749   2.856   3.465  14.873  0.1539 -0.4552 -0.0151
16445TIP3    H170750   2.814   3.381  14.856  1.3701 -0.7942 -1.5643
16445TIP3    H270751   2.837   3.517  14.795 -0.7178  0.7992  0.9895
16446TIP3   OH270752   1.992   4.881   2.029  0.0384  0.5731  0.0926
16446TIP3    H170753   1.906   4.847   2.056  1.4758 -2.0844  1.7503
16446TIP3    H270754   1.977   4.975   2.017 -2.4175  0.8802  3.6448
16447TIP3   OH270755   0.497   6.644   6.453 -0.2352 -0.2852 -0.3074
16447TIP3    H170756   0.546   6.562   6.446 -2.3849 -1.7212  0.3033
16447TIP3    H270757   0.534   6.700   6.386  1.0887 -1.8742 -0.9762
16448TIP3   OH270758   6.581   6.014  11.768 -0.6928  0.3127  0.2853
16448TIP3    H170759   6.521   6.038  11.839 -3.1087  1.0608 -1.8432
16448TIP3    H270760   6.562   6.076  11.698 -0.0879 -1.7403 -1.8552
16449TIP3   OH270761   2.559   0.855   0.258 -0.1437  0.3531 -0.1125
16449TIP3    H170762   2.508   0.913   0.316  0.4401 -0.6825  1.5094
16449TIP3    H270763   2.648   0.858   0.295  0.1786 -0.5774 -0.7957
16450TIP3   OH270764   3.642   4.387  14.393 -0.2024 -0.0877 -0.1912
16450TIP3    H170765   3.701   4.314  14.377 -0.9880 -0.4541 -1.5438
16450TIP3    H270766   3.679   4.459  14.341  0.8829  0.7059  1.5572
16451TIP3   OH270767   4.210   4.670   2.586  0.1193 -0.6623 -0.1530
16451TIP3    H170768   4.294   4.708   2.559 -0.8226  1.3344 -0.4068
16451TIP3    H270769   4.235   4.592   2.636  2.4384  2.2850  3.9356
16452TIP3   OH270770   1.143   5.621   3.445 -0.0454 -0.6651 -0.2274
16452TIP3    H170771   1.191   5.636   3.364 -0.1511  0.6634 -0.0544
16452TIP3    H270772   1.051   5.624   3.419 -0.0840  0.0241 -0.0211
16453TIP3   OH270773   5.121   1.710   5.286 -0.1664  0.6985 -0.5650
16453TIP3    H170774   5.061   1.693   5.359  0.5959  2.9347  0.6754
16453TIP3    H270775   5.102   1.640   5.223 -1.8000 -0.5271  1.1638
16454TIP3   OH270776   4.756   5.852   4.224 -0.4574  0.0179  0.3946
16454TIP3    H170777   4.665   5.827   4.240 -1.3323  2.8758  0.3966
16454TIP3    H270778   4.750   5.935   4.177  2.1818 -0.1037 -0.3129
16455TIP3   OH270779   2.123   2.306  11.672 -0.1579  0.0411  0.0105
16455TIP3    H170780   2.137   2.312  11.577  2.0362  0.5770  0.3145
16455TIP3    H270781   2.090   2.217  11.685  2.7663 -1.3162 -0.9966
16456TIP3   OH270782   1.031   0.041   5.400 -0.3685  0.1159  0.1032
16456TIP3    H170783   1.018   0.133   5.376 -1.3962  0.7536  2.7632
16456TIP3    H270784   0.960   0.022   5.460  0.4913 -2.1079  0.4934
16457TIP3   OH270785   4.222   6.148  16.184 -0.5276 -0.1135 -0.3520
16457TIP3    H170786   4.249   6.225  16.134  0.1681 -0.5778 -0.7063
16457TIP3    H270787   4.126   6.153  16.185 -0.6387 -0.5962 -2.5910
16458TIP3   OH270788   3.055   6.249   3.034  0.7897  0.1984 -0.0853
16458TIP3    H170789   3.097   6.184   3.091 -1.0325  0.3624  1.5242
16458TIP3    H270790   3.015   6.311   3.094 -0.6171  0.7798 -1.5661
16459TIP3   OH270791   6.287   0.112   3.386 -0.0819  0.4617 -0.7165
16459TIP3    H170792   6.263   0.024   3.416 -0.7505  0.2916 -1.6926
16459TIP3    H270793   6.382   0.116   3.398 -0.2591  0.2327  0.9053
16460TIP3   OH270794   3.855   0.974   0.079 -0.3188 -0.1189 -0.3848
16460TIP3    H170795   3.907   1.001   0.155 -0.3158 -0.3844 -0.2920
16460TIP3    H270796   3.920   0.957   0.010 -0.3357  0.3383 -0.5147
16461TIP3   OH270797   5.964   3.813   1.983  0.5860  0.4006 -0.5649
16461TIP3    H170798   5.996   3.787   1.897  0.3609  0.2643 -0.6078
16461TIP3    H270799   5.919   3.897   1.967  1.0451  0.6679 -0.4790
16462TIP3   OH270800   2.738   3.439   0.539 -0.5098 -0.2012  0.0273
16462TIP3    H170801   2.715   3.391   0.619 -0.3737  0.3066  0.3782
16462TIP3    H270802   2.674   3.510   0.535  0.5008  0.7800  0.6086
16463TIP3   OH270803   6.401   1.239  13.191 -0.0577  0.2884 -0.0520
16463TIP3    H170804   6.491   1.205  13.192 -0.1578  0.0452  0.7248
16463TIP3    H270805   6.410   1.330  13.219  0.2076  0.9593 -2.1122
16464TIP3   OH270806   1.651   2.732  14.577 -0.1829 -0.1447  0.6387
16464TIP3    H170807   1.577   2.762  14.524  0.9700 -0.1173 -1.0309
16464TIP3    H270808   1.632   2.640  14.595 -0.0279 -0.5075 -0.9131
16465TIP3   OH270809   6.075   5.961  15.895  0.5610  0.2820  0.3884
16465TIP3    H170810   6.130   6.004  15.829  1.0808  0.1855  0.7556
16465TIP3    H270811   6.086   6.014  15.974  0.4438  0.0258  0.5783
16466TIP3   OH270812   3.946   0.317   6.029 -0.0353 -0.7498 -0.0649
16466TIP3    H170813   3.924   0.323   6.122 -4.8604 -0.1259 -1.0179
16466TIP3    H270814   3.985   0.402   6.008  0.6021 -0.6947  1.2124
16467TIP3   OH270815   4.712   6.721  11.040 -0.1157  0.2048 -0.3536
16467TIP3    H170816   4.716   6.647  10.980 -0.3078 -0.5173  0.4928
16467TIP3    H270817   4.792   6.770  11.023  1.1120 -1.3802  0.5179
16468TIP3   OH270818   2.672   2.163  13.387  0.3199  0.1620  0.3187
16468TIP3    H170819   2.651   2.219  13.312 -0.8693  1.1397  1.3281
16468TIP3    H270820   2.678   2.224  13.461 -1.0510 -1.0166  1.4582
16469TIP3   OH270821   5.040   5.974  11.620  0.0063  0.3884  0.2253
16469TIP3    H170822   5.048   5.914  11.694 -0.1817  1.8097  1.4400
16469TIP3    H270823   5.118   5.957  11.567 -0.6140 -1.7275 -0.1190
16470TIP3   OH270824   6.649   4.168  11.740  0.4097  0.3796  0.4498
16470TIP3    H170825   6.612   4.200  11.658  1.3901  1.2859  0.3370
16470TIP3    H270826   6.615   4.079  11.748 -1.4114  0.9922  0.1394
16471TIP3   OH270827   2.072   0.127   5.463  0.2200 -0.2324 -0.0501
16471TIP3    H170828   2.050   0.049   5.515 -2.0080  2.0170  2.7053
16471TIP3    H270829   2.167   0.132   5.465  0.2889 -1.3514  2.1694
16472TIP3   OH270830   0.667   3.279  17.461  0.1798 -0.2849  0.7911
16472TIP3    H170831   0.593   3.341  17.457  0.6626  0.2390 -0.9377
16472TIP3    H270832   0.625   3.193  17.461 -0.4555  0.0035 -0.2282
16473TIP3   OH270833   2.525   1.775   2.576  0.2300 -0.3902 -0.2008
16473TIP3    H170834   2.553   1.683   2.572 -0.4041 -0.5485 -1.9242
16473TIP3    H270835   2.494   1.794   2.488 -1.9283  0.7762  0.7309
16474TIP3   OH270836   3.275   3.682   3.389  0.2923  0.5294 -0.3598
16474TIP3    H170837   3.227   3.609   3.350 -0.5043  0.8628 -0.0274
16474TIP3    H270838   3.256   3.756   3.330 -0.9469  1.0459  0.6374
16475TIP3   OH270839   3.438   2.164   1.213  1.1214 -0.6549 -0.3296
16475TIP3    H170840   3.367   2.100   1.219  0.3724  0.2325  0.6053
16475TIP3    H270841   3.509   2.116   1.170  0.9116 -2.3867  1.1440
16476TIP3   OH270842   4.856   6.550   0.269 -0.0041  0.1057 -0.5479
16476TIP3    H170843   4.936   6.545   0.216 -1.2289  0.0416 -2.4769
16476TIP3    H270844   4.818   6.635   0.248 -0.6013  0.0205  0.1407
16477TIP3   OH270845   5.578   3.353  17.357  0.3290 -0.5280  0.4406
16477TIP3    H170846   5.672   3.363  17.342  0.0476 -0.2163 -1.3266
16477TIP3    H270847   5.563   3.259  17.356  0.4543 -0.5520 -0.6328
16478TIP3   OH270848   4.304   6.198   0.796 -0.7593 -0.3613  0.0250
16478TIP3    H170849   4.396   6.208   0.821 -0.1309 -1.5617 -1.6672
16478TIP3    H270850   4.256   6.249   0.862  1.2394  2.2518 -0.3660
16479TIP3   OH270851   5.505   3.867   4.767  0.0251  0.2018  0.1137
16479TIP3    H170852   5.568   3.919   4.817  1.9468 -1.5210 -0.3824
16479TIP3    H270853   5.464   3.810   4.833 -1.3107  1.5034  0.4802
16480TIP3   OH270854   2.541   2.553   1.900 -0.1852  0.0661  0.8604
16480TIP3    H170855   2.454   2.524   1.873 -1.0759  1.5553  1.9841
16480TIP3    H270856   2.529   2.587   1.989  1.3003  1.3324  0.6305
16481TIP3   OH270857   3.947   3.837  13.276  0.3687 -0.4168 -0.1859
16481TIP3    H170858   3.971   3.869  13.189  0.0861  0.7191  0.1240
16481TIP3    H270859   4.029   3.809  13.316  0.4736 -1.1173 -0.8804
16482TIP3   OH270860   2.394   3.728  16.739  0.2822 -0.0427  0.0656
16482TIP3    H170861   2.444   3.733  16.821 -0.6551  1.5788  0.5810
16482TIP3    H270862   2.310   3.690  16.766  0.2358 -0.1980 -0.2945
16483TIP3   OH270863   3.165   2.801  12.483 -0.1228 -0.3195 -0.3052
16483TIP3    H170864   3.091   2.844  12.439 -0.7503 -0.6811  0.3685
16483TIP3    H270865   3.126   2.724  12.525 -0.4511  1.9652  4.2413
16484TIP3   OH270866   1.751   3.598  12.861  0.5363 -0.0890 -0.2243
16484TIP3    H170867   1.773   3.520  12.912 -0.7223  0.8291  1.8303
16484TIP3    H270868   1.814   3.664  12.888  0.1008  0.2967 -0.1413
16485TIP3   OH270869   3.321   3.286   2.928 -0.7778 -0.4521  0.4618
16485TIP3    H170870   3.273   3.368   2.939 -0.5476  0.0342 -1.6690
16485TIP3    H270871   3.287   3.250   2.846  3.8227  1.0247 -2.4757
16486TIP3   OH270872   5.221   2.230  11.987 -0.4151 -0.4696  0.5035
16486TIP3    H170873   5.270   2.288  11.929 -0.8399  1.2940  1.8491
16486TIP3    H270874   5.279   2.217  12.062 -0.8000 -0.8730  0.7320
16487TIP3   OH270875   3.078   6.116  13.756 -0.0370  0.5480 -0.2737
16487TIP3    H170876   3.043   6.027  13.749  1.2811 -0.2983  2.4110
16487TIP3    H270877   3.163   6.112  13.714 -0.6216  1.0215 -1.5590
16488TIP3   OH270878   4.242   6.398   3.332  0.0895  0.4632  0.2024
16488TIP3    H170879   4.227   6.355   3.248  1.5978 -2.3020  1.2003
16488TIP3    H270880   4.317   6.455   3.317  1.8768 -1.7499  0.0561
16489TIP3   OH270881   0.983   1.934  11.785 -0.1884 -0.2670 -0.3279
16489TIP3    H170882   0.914   1.868  11.791 -0.5129  0.1326  0.4742
16489TIP3    H270883   1.014   1.944  11.874  0.3925  0.1123 -0.5670
16490TIP3   OH270884   0.985   1.137   2.990 -0.1700 -0.4411 -0.3797
16490TIP3    H170885   0.953   1.058   3.034  0.4113 -1.1825 -1.2557
16490TIP3    H270886   0.906   1.179   2.956 -0.6130  0.0455  1.1590
16491TIP3   OH270887   2.235   1.261   3.510  0.3490  0.4606 -0.2944
16491TIP3    H170888   2.287   1.244   3.432 -1.2183  0.3142 -1.3513
16491TIP3    H270889   2.154   1.300   3.477 -1.1031 -1.2547  1.0652
16492TIP3   OH270890   4.070   1.578  12.162 -0.2709 -0.1652  0.1198
16492TIP3    H170891   3.978   1.553  12.152  0.1565 -1.1488 -1.5528
16492TIP3    H270892   4.091   1.626  12.083  1.0764 -1.3023 -0.2477
16493TIP3   OH270893   4.506   5.522  14.785 -0.1580 -0.4813 -0.1873
16493TIP3    H170894   4.461   5.561  14.709  0.7053  0.0197 -0.4531
16493TIP3    H270895   4.554   5.595  14.824  1.4771 -1.2540 -0.6703
16494TIP3   OH270896   1.268   1.440  15.282 -0.0314  0.1288  0.3035
16494TIP3    H170897   1.184   1.430  15.237  0.6368  1.7494 -1.4363
16494TIP3    H270898   1.331   1.398  15.224  1.1419  3.9395 -1.4527
16495TIP3   OH270899   2.391   4.166   1.631  0.3763 -0.7152 -0.1332
16495TIP3    H170900   2.335   4.201   1.700 -1.7687 -0.5544 -1.8438
16495TIP3    H270901   2.463   4.123   1.678 -0.5767  0.0201  2.1524
16496TIP3   OH270902   1.550   6.696  13.120  0.0885 -0.0494 -0.8515
16496TIP3    H170903   1.546   6.709  13.026 -0.4006  1.6398 -0.6310
16496TIP3    H270904   1.575   6.604  13.131 -1.7797 -0.8337 -2.6058
16497TIP3   OH270905   2.135   1.057   0.162  0.6980  0.4949  0.0937
16497TIP3    H170906   2.112   1.040   0.071 -0.9570 -0.4458  0.6406
16497TIP3    H270907   2.070   1.122   0.191  1.0476  0.5869  0.6841
16498TIP3   OH270908   5.210   5.919  13.024  0.1864  0.1661  0.4090
16498TIP3    H170909   5.173   5.846  13.074 -1.2326  0.1353 -0.6190
16498TIP3    H270910   5.135   5.976  13.006  1.4514  2.6879  2.4156
16499TIP3   OH270911   6.684   6.603  11.306 -0.3196 -0.1155 -0.5443
16499TIP3    H170912   6.632   6.618  11.227 -1.1706  0.5400  0.1338
16499TIP3    H270913   6.678   6.684  11.356  1.4396  0.0172 -0.4785
16500TIP3   OH270914   1.987   3.401  11.799  0.4267  0.0724  0.0639
16500TIP3    H170915   1.927   3.355  11.740  1.6616 -0.6072 -0.6898
16500TIP3    H270916   2.023   3.333  11.855 -0.4484  0.6632  1.3952
16501TIP3   OH270917   0.038   1.574   1.851 -0.0723  0.1287  0.0946
16501TIP3    H170918  -0.055   1.583   1.870 -0.2647 -0.1833 -0.6777
16501TIP3    H270919   0.066   1.663   1.827 -0.1277  0.2600  0.5156
16502TIP3   OH270920   6.281   3.457  15.976 -0.2769  0.0173 -0.3911
16502TIP3    H170921   6.224   3.496  16.042 -0.0769 -0.9532  0.3744
16502TIP3    H270922   6.370   3.468  16.012  0.3020  3.0230 -2.3048
16503TIP3   OH270923   2.660   2.349  16.152 -0.2428 -0.7815 -0.1727
16503TIP3    H170924   2.691   2.259  16.164 -2.4425 -1.5768 -0.0957
16503TIP3    H270925   2.566   2.341  16.142 -0.7243  1.6815  1.4858
16504TIP3   OH270926   0.749   0.009  16.707 -0.3021  0.3653 -0.5937
16504TIP3    H170927   0.748  -0.040  16.789 -0.1069  0.3214 -0.6187
16504TIP3    H270928   0.779  -0.054  16.641 -0.5618  0.3704 -0.7163
16505TIP3   OH270929   0.106   3.829   1.474  0.5335  0.3800 -0.1005
16505TIP3    H170930   0.067   3.833   1.560  1.9760 -1.0850  0.6826
16505TIP3    H270931   0.061   3.897   1.423  0.2841  1.8961  2.0408
16506TIP3   OH270932   0.072   5.351  12.192 -0.0447 -0.5058  0.2129
16506TIP3    H170933  -0.002   5.410  12.179  0.4591 -0.2557 -1.9088
16506TIP3    H270934   0.054   5.277  12.134  0.8523 -0.9438  0.4723
16507TIP3   OH270935   0.144   3.576  14.171  0.0594 -0.3015  0.1319
16507TIP3    H170936   0.167   3.626  14.249  0.8791  0.4314 -0.5678
16507TIP3    H270937   0.203   3.608  14.103  0.9940 -2.5820 -0.2194
16508TIP3   OH270938   1.301   6.062   5.848 -0.1208  0.1046 -0.1795
16508TIP3    H170939   1.238   6.013   5.796 -3.5103  2.5663  1.2383
16508TIP3    H270940   1.268   6.057   5.938  2.1151  0.9947  0.7757
16509TIP3   OH270941   6.210   6.396   3.689  0.4423 -0.4167 -0.3382
16509TIP3    H170942   6.273   6.428   3.753  0.7764  0.9346 -1.3026
16509TIP3    H270943   6.148   6.344   3.740  0.9808  0.2219  1.0052
16510TIP3   OH270944   2.403   3.411   4.304  0.6270  0.2625 -0.4211
16510TIP3    H170945   2.377   3.477   4.368 -0.3839 -0.1711 -0.3658
16510TIP3    H270946   2.448   3.460   4.236  0.5924  0.8973  0.0100
16511TIP3   OH270947   0.709   5.651  15.190  0.3531 -0.1059  0.1957
16511TIP3    H170948   0.782   5.701  15.225 -0.5539  0.0570  1.9502
16511TIP3    H270949   0.744   5.563  15.178  0.1194 -0.9231  4.1336
16512TIP3   OH270950   0.368   1.698  17.208 -0.3943 -0.3497  0.1201
16512TIP3    H170951   0.443   1.659  17.161 -1.5390 -1.9561 -0.4840
16512TIP3    H270952   0.331   1.625  17.257 -1.2054  0.5689  0.9084
16513TIP3   OH270953   3.873   0.656  16.204 -0.4943  0.6399 -0.4268
16513TIP3    H170954   3.903   0.580  16.154  1.7356  0.2910  1.2611
16513TIP3    H270955   3.849   0.720  16.138  1.3774 -0.1408 -1.9888
16514TIP3   OH270956   3.076   6.312   4.415 -0.7345 -0.2790  0.0140
16514TIP3    H170957   2.990   6.314   4.373  0.1655 -0.7654 -1.9756
16514TIP3    H270958   3.057   6.323   4.508 -2.8035  1.5432 -0.5308
16515TIP3   OH270959   1.602   5.106  15.585  0.1737 -0.4123 -0.2958
16515TIP3    H170960   1.680   5.160  15.595 -0.3407  0.5801 -1.4770
16515TIP3    H270961   1.594   5.091  15.490  0.4914 -2.8645 -0.0052
16516TIP3   OH270962   0.435   0.479   2.532  0.4667  0.0306 -0.4579
16516TIP3    H170963   0.496   0.552   2.521  0.5641  0.0564  0.2091
16516TIP3    H270964   0.451   0.447   2.621 -2.1615  1.6301  0.7125
16517TIP3   OH270965   0.707   1.054  14.444  0.3093 -0.2271 -0.4015
16517TIP3    H170966   0.783   1.038  14.500  0.5330  0.0239 -0.6308
16517TIP3    H270967   0.693   0.971  14.398 -0.3800 -0.6956  0.6266
16518TIP3   OH270968   5.984   3.455   1.038 -0.4611 -0.6294 -0.3962
16518TIP3    H170969   6.063   3.425   0.994  0.5785 -1.2189  1.7207
16518TIP3    H270970   5.965   3.540   0.998  1.5877 -0.2072 -0.5999
16519TIP3   OH270971   4.006   2.496   0.561 -0.5660  0.8194 -0.0652
16519TIP3    H170972   4.083   2.446   0.587  0.3940  2.2660 -0.0258
16519TIP3    H270973   3.977   2.539   0.641 -1.0785  0.7436 -0.2043
16520TIP3   OH270974   5.616   6.241  11.668 -0.3407 -0.1276 -0.1857
16520TIP3    H170975   5.597   6.172  11.604  0.3971  0.7164 -1.3613
16520TIP3    H270976   5.535   6.291  11.675 -1.2736 -1.7326  1.5636
16521TIP3   OH270977   1.955   4.939  12.237 -0.2155  0.3425 -0.0671
16521TIP3    H170978   2.012   4.961  12.164 -1.1988  0.6328 -0.7721
16521TIP3    H270979   1.956   5.016  12.294 -1.2332  1.0296 -0.9533
16522TIP3   OH270980   1.975   3.298  12.166 -0.0055  0.1030 -0.7514
16522TIP3    H170981   2.045   3.249  12.123  0.5739 -0.1049  0.3856
16522TIP3    H270982   1.901   3.293  12.105 -0.2365 -2.8742 -0.3586
16523TIP3   OH270983   4.108   2.824  15.990  0.0454 -0.0573  0.4294
16523TIP3    H170984   4.062   2.740  15.995 -1.9347  0.5949 -3.2492
16523TIP3    H270985   4.048   2.887  16.028  0.1851  0.0872  0.4127
16524TIP3   OH270986   1.131   4.401   5.948 -0.6899 -0.3062 -0.3921
16524TIP3    H170987   1.090   4.319   5.975 -1.6377  0.4602  0.5388
16524TIP3    H270988   1.086   4.469   5.998  0.9503  0.6826 -0.1725
16525TIP3   OH270989   5.130   3.727   0.836 -0.5242  0.0913 -0.0050
16525TIP3    H170990   5.195   3.666   0.801 -0.2662  0.6629 -0.5420
16525TIP3    H270991   5.047   3.698   0.798 -0.3670  0.2214 -0.4573
16526TIP3   OH270992   2.997   0.798   1.988  0.1686  0.1967  0.0613
16526TIP3    H170993   2.993   0.711   2.027 -0.7705 -0.6955 -1.9065
16526TIP3    H270994   2.942   0.852   2.045 -1.1556 -1.0532  0.0265
16527TIP3   OH270995   1.998   4.392  15.450 -0.1819  1.3920 -0.0787
16527TIP3    H170996   1.920   4.442  15.426  0.2482  1.8585 -0.5382
16527TIP3    H270997   2.024   4.349  15.369 -1.4154 -0.8480  0.6261
16528TIP3   OH270998   1.931   2.529   6.280  1.0096  0.1553 -0.0653
16528TIP3    H170999   1.851   2.511   6.231 -0.9208  2.0557  2.1134
16528TIP3    H271000   1.996   2.552   6.213  0.0785 -2.2584 -1.9598
16529TIP3   OH271001   3.204   4.599  17.447 -0.4498 -0.5405  0.0329
16529TIP3    H171002   3.236   4.686  17.470 -2.2863  0.3133 -0.4530
16529TIP3    H271003   3.254   4.575  17.369 -0.1163  0.1976  0.0114
16530TIP3   OH271004   3.629   3.023   0.680 -0.3528 -0.1270 -0.5450
16530TIP3    H171005   3.698   3.003   0.744  1.8830  1.6857 -2.2134
16530TIP3    H271006   3.580   2.941   0.672 -0.5443 -0.5324  3.1670
16531TIP3   OH271007   3.721   4.569   2.495  0.2346  0.1868  0.6225
16531TIP3    H171008   3.812   4.560   2.524  0.0606 -0.3718  1.0222
16531TIP3    H271009   3.727   4.587   2.401  0.7472 -0.1147  0.5952
16532TIP3   OH271010   4.807   2.389   2.135 -0.1780  0.5818  0.1979
16532TIP3    H171011   4.798   2.430   2.221 -0.7257  1.2975 -0.1980
16532TIP3    H271012   4.734   2.423   2.084 -0.4993 -0.6863 -0.2251
16533TIP3   OH271013   0.710   2.060  13.338 -0.1480 -0.3109 -0.3300
16533TIP3    H171014   0.643   2.121  13.306 -1.1796 -1.0783  0.2922
16533TIP3    H271015   0.686   2.044  13.429  1.6324  0.3648  0.2819
16534TIP3   OH271016   1.149   6.256  12.790  0.3057  0.0120  0.6225
16534TIP3    H171017   1.215   6.302  12.738  0.4290 -0.7191  0.1133
16534TIP3    H271018   1.128   6.316  12.862 -1.8243  2.2563 -1.6549
16535TIP3   OH271019   5.770   3.305   2.458  0.9911 -0.3007 -0.3699
16535TIP3    H171020   5.864   3.299   2.473  1.2700  0.1578 -1.7865
16535TIP3    H271021   5.742   3.215   2.442  0.6048 -0.8940  2.8896
16536TIP3   OH271022   6.540   2.705   5.158  0.1650  0.0435  0.7019
16536TIP3    H171023   6.571   2.792   5.135  0.3103  0.0814  1.0407
16536TIP3    H271024   6.548   2.655   5.076  0.8281  0.1351  0.7018
16537TIP3   OH271025   6.675   1.119   4.646 -0.2934 -0.2501  0.5063
16537TIP3    H171026   6.724   1.162   4.576 -1.4019 -0.7645 -0.6110
16537TIP3    H271027   6.670   1.027   4.619 -1.9526 -0.1948  0.5204
16538TIP3   OH271028   6.205   4.346  15.543 -0.4573 -0.0210  0.8816
16538TIP3    H171029   6.301   4.335  15.546 -0.4011  0.5319  1.2123
16538TIP3    H271030   6.192   4.423  15.488 -0.8233 -1.3757 -1.0321
16539TIP3   OH271031   4.499   5.539  16.419  0.3630 -0.4017 -0.0231
16539TIP3    H171032   4.431   5.581  16.367 -0.1344  0.2241  1.0952
16539TIP3    H271033   4.577   5.592  16.405 -0.2088  0.8406  1.2216
16540TIP3   OH271034   4.465   0.073   3.123 -0.0814  0.3064 -0.9505
16540TIP3    H171035   4.480  -0.020   3.106  0.3092  0.1008  0.4063
16540TIP3    H271036   4.457   0.112   3.036  0.8325 -0.8196 -1.5672
16541TIP3   OH271037   1.499   1.187  11.112  0.4299 -0.0039  0.0680
16541TIP3    H171038   1.569   1.150  11.165  1.3434  1.0685 -0.3512
16541TIP3    H271039   1.518   1.157  11.023 -1.0936 -1.7937  0.2876
16542TIP3   OH271040   6.109   3.866  11.850 -0.6565 -0.1888  0.2889
16542TIP3    H171041   6.198   3.830  11.841 -0.9291 -0.9276  0.4777
16542TIP3    H271042   6.096   3.873  11.944 -0.7031  0.1594  0.2542
16543TIP3   OH271043   2.275   6.382  13.192 -0.5286 -1.0231 -0.6173
16543TIP3    H171044   2.260   6.353  13.282 -3.2697  0.2217 -0.5680
16543TIP3    H271045   2.234   6.314  13.138  2.8648 -2.8408 -1.1740
16544TIP3   OH271046   5.187   3.219   0.991 -0.3615  0.5259 -0.2792
16544TIP3    H171047   5.192   3.247   1.082  0.1830 -0.9873  0.1746
16544TIP3    H271048   5.270   3.248   0.952  0.0524 -0.1331  0.0982
16545TIP3   OH271049   4.385   2.756   2.422 -0.1758 -0.8155  0.0773
16545TIP3    H171050   4.404   2.833   2.369  1.4489 -1.2140  0.0302
16545TIP3    H271051   4.399   2.784   2.512 -1.3257 -0.5895  0.1984
16546TIP3   OH271052   2.034   0.224   2.195  0.0411 -0.0624  0.0996
16546TIP3    H171053   2.035   0.223   2.099  0.7580  4.9389 -0.2460
16546TIP3    H271054   1.951   0.267   2.217  1.3652  2.0273  1.3864
16547TIP3   OH271055   4.285   4.159   4.650 -0.3987 -0.3739 -0.1176
16547TIP3    H171056   4.363   4.169   4.594 -0.1000 -0.8618  0.2113
16547TIP3    H271057   4.316   4.180   4.738 -0.4821 -1.2363  0.1195
16548TIP3   OH271058   1.899   2.838  13.889 -0.0003  0.5848  0.0509
16548TIP3    H171059   1.923   2.831  13.981 -1.1692  1.7264  0.4896
16548TIP3    H271060   1.963   2.899  13.852  0.5074  0.0770  0.0843
16549TIP3   OH271061   4.694   6.734  17.025  0.2914 -0.1323 -0.6461
16549TIP3    H171062   4.779   6.719  16.982  0.1493  1.4822 -1.5665
16549TIP3    H271063   4.709   6.809  17.082 -0.5048  0.1101 -0.7459
16550TIP3   OH271064   0.559   2.789   3.005  0.1997 -0.1787  0.1785
16550TIP3    H171065   0.504   2.795   3.084 -0.2354 -1.2481 -0.0256
16550TIP3    H271066   0.532   2.864   2.952 -1.6153 -1.0708 -0.2391
16551TIP3   OH271067   3.235   2.805   0.475  0.2070 -1.0381 -0.1508
16551TIP3    H171068   3.165   2.752   0.513 -3.1583  2.5419 -0.8020
16551TIP3    H271069   3.211   2.815   0.384  2.7316 -1.2216 -0.9281
16552TIP3   OH271070   2.435   1.422   4.245 -0.5396 -0.3060  0.4340
16552TIP3    H171071   2.410   1.330   4.237  2.2275 -1.6979  4.2694
16552TIP3    H271072   2.501   1.435   4.177 -1.4446 -0.9403 -0.5836
16553TIP3   OH271073   4.647   2.969  13.496 -0.2439  0.0144  0.1359
16553TIP3    H171074   4.563   3.013  13.481 -1.2122 -1.9301 -0.5716
16553TIP3    H271075   4.622   2.883  13.532  1.4417 -0.6251 -0.1514
16554TIP3   OH271076   5.444   3.991  14.275 -0.8018 -0.0538  0.0345
16554TIP3    H171077   5.515   4.052  14.297  1.3990 -1.8935 -1.4983
16554TIP3    H271078   5.433   3.939  14.355  0.2513 -0.3343  0.0209
16555TIP3   OH271079   1.504   6.014   0.096 -0.4996  0.0420 -0.8654
16555TIP3    H171080   1.468   6.071   0.028 -3.7156  2.4898  2.5359
16555TIP3    H271081   1.439   5.944   0.106  0.0285 -0.3927 -0.3999
16556TIP3   OH271082   1.934   3.135  14.044 -0.1873 -0.5773 -0.2412
16556TIP3    H171083   2.028   3.142  14.057 -0.1087 -0.4551 -0.8807
16556TIP3    H271084   1.918   3.169  13.956 -0.9417  0.3085  0.2048
16557TIP3   OH271085   2.206   0.510  15.968 -0.0222  0.3111  0.0142
16557TIP3    H171086   2.270   0.488  16.035 -0.2708  0.2055  0.2184
16557TIP3    H271087   2.179   0.426  15.931  0.8563  0.4271 -0.9177
16558TIP3   OH271088   4.945   6.080   2.522 -0.7993  0.0003  0.0882
16558TIP3    H171089   4.956   5.986   2.532 -0.0894  0.1345  0.6272
16558TIP3    H271090   5.008   6.105   2.455 -1.5291 -0.0138 -0.6243
16559TIP3   OH271091   1.144   6.571  14.413  0.6333 -0.4131  0.4871
16559TIP3    H171092   1.111   6.654  14.377  0.6198  0.2051  1.8795
16559TIP3    H271093   1.236   6.569  14.386  0.2229 -0.7947 -1.0029
16560TIP3   OH271094   4.430   5.777   2.362  0.1507 -0.1182 -0.1701
16560TIP3    H171095   4.386   5.860   2.345  0.4224  0.0072 -0.2730
16560TIP3    H271096   4.459   5.783   2.453  0.1681 -0.1004 -0.1769
16561TIP3   OH271097   3.907   4.756  11.779  0.0680  0.3544 -0.2123
16561TIP3    H171098   3.977   4.699  11.812 -0.0277  1.5248  2.2576
16561TIP3    H271099   3.906   4.741  11.684  2.8718 -0.5417 -0.1862
16562TIP3   OH271100   5.984   4.464   2.598 -0.0109 -0.5451  0.5554
16562TIP3    H171101   5.907   4.434   2.550  0.7319 -0.3405 -0.8116
16562TIP3    H271102   5.959   4.550   2.631 -0.7668 -0.9700  1.1213
16563TIP3   OH271103   0.284   5.479  15.518 -0.2603 -0.2316 -0.2033
16563TIP3    H171104   0.344   5.527  15.461 -0.5150  0.8302  0.3843
16563TIP3    H271105   0.317   5.495  15.606  0.2929 -2.0832 -0.0355
16564TIP3   OH271106   0.590   3.410   0.848 -0.0486 -1.0859 -0.3690
16564TIP3    H171107   0.613   3.370   0.932  0.3069 -1.2173 -0.5276
16564TIP3    H271108   0.537   3.345   0.803  0.5233 -1.3918 -0.6240
16565TIP3   OH271109   1.356   1.173  12.401  0.8052  0.5219 -0.1954
16565TIP3    H171110   1.319   1.258  12.424  2.2099  1.1064 -0.0097
16565TIP3    H271111   1.435   1.165  12.454  1.6073 -0.1551 -1.4131
16566TIP3   OH271112   6.014   4.223   5.362 -0.7542  0.7008 -0.4794
16566TIP3    H171113   5.999   4.147   5.307  0.3248  1.1998 -1.5196
16566TIP3    H271114   6.002   4.298   5.304 -0.3297  1.2653  0.1397
16567TIP3   OH271115   2.313   3.987   5.653 -0.2768  0.0063 -0.0015
16567TIP3    H171116   2.393   4.022   5.614  1.1209 -1.9450  0.9130
16567TIP3    H271117   2.275   4.060   5.702 -0.3411  1.5950 -2.3073
16568TIP3   OH271118   5.230   3.078   6.699 -0.3196  0.5188 -0.2890
16568TIP3    H171119   5.258   3.011   6.636 -0.4964  0.3196 -0.1594
16568TIP3    H271120   5.299   3.144   6.697 -0.2319  0.4207 -0.5534
16569TIP3   OH271121   1.551   2.507  14.276  0.1228  0.5627 -0.3714
16569TIP3    H171122   1.614   2.444  14.312 -0.8246  0.4051  1.1338
16569TIP3    H271123   1.468   2.481  14.316 -0.5273  1.9525 -0.7941
16570TIP3   OH271124   5.521   6.708  14.979 -0.4331  0.8479  0.1301
16570TIP3    H171125   5.524   6.671  14.891 -0.2098  1.1202  0.0227
16570TIP3    H271126   5.459   6.780  14.972 -0.4922  0.8048  0.2197
16571TIP3   OH271127   1.572   0.128  13.621 -0.3256 -0.2833  0.1526
16571TIP3    H171128   1.650   0.091  13.581  0.0027 -0.2471  0.7451
16571TIP3    H271129   1.590   0.126  13.715 -1.0091 -0.2136  0.2915
16572TIP3   OH271130   5.809   0.345   6.791  0.3647  0.2886  0.0891
16572TIP3    H171131   5.888   0.292   6.780 -0.2557 -0.4801 -0.8360
16572TIP3    H271132   5.830   0.405   6.862  1.4609 -0.5133  0.4685
16573TIP3   OH271133   1.659   5.526  11.290 -0.5783 -0.0845 -0.3120
16573TIP3    H171134   1.729   5.536  11.225  0.2685  0.0787  0.5985
16573TIP3    H271135   1.620   5.613  11.296 -2.5756 -0.7043 -2.6371
16574TIP3   OH271136   1.104   1.251   3.448 -0.7328 -0.5209 -0.5717
16574TIP3    H171137   1.025   1.213   3.410 -0.6175 -0.6185 -0.7118
16574TIP3    H271138   1.176   1.202   3.408 -0.5404  0.4224 -1.4157
16575TIP3   OH271139   3.442   0.410   3.303 -0.0815 -0.4200  0.2004
16575TIP3    H171140   3.366   0.454   3.341 -0.6722 -2.2757  1.2979
16575TIP3    H271141   3.461   0.338   3.363  2.1512 -0.4187 -0.4084
16576TIP3   OH271142   3.732   3.157   4.948 -0.3447  0.5375  0.1086
16576TIP3    H171143   3.665   3.195   5.004  0.4297  0.0138  1.4409
16576TIP3    H271144   3.790   3.110   5.008  0.4430 -0.1665 -1.1522
16577TIP3   OH271145   5.370   4.282   5.532 -0.2766 -0.0628  0.6146
16577TIP3    H171146   5.441   4.306   5.591  0.6982 -1.0420 -0.1167
16577TIP3    H271147   5.300   4.253   5.590  0.9310 -1.7509  1.3462
16578TIP3   OH271148   6.439   2.462  11.406  0.3746 -0.1433  0.0745
16578TIP3    H171149   6.355   2.417  11.395  0.7302 -0.9211  0.4237
16578TIP3    H271150   6.449   2.514  11.326  1.0178 -2.5184 -1.5222
16579TIP3   OH271151   5.819   5.872  15.898  0.6404 -0.0770 -0.1553
16579TIP3    H171152   5.793   5.839  15.812 -0.9710 -0.4921  0.4642
16579TIP3    H271153   5.911   5.896  15.887  0.7534 -1.0765 -1.7030
16580TIP3   OH271154   5.225   6.392  13.856 -0.0245  0.6156 -0.3959
16580TIP3    H171155   5.261   6.360  13.772  1.4686 -1.6562  0.9847
16580TIP3    H271156   5.135   6.359  13.857 -0.0617  0.6666 -1.0945
16581TIP3   OH271157   4.987   6.013  12.004 -0.1121  0.0788  0.3990
16581TIP3    H171158   4.906   6.018  11.954 -0.8572 -1.8782  1.3154
16581TIP3    H271159   5.053   5.986  11.939 -1.0399 -2.2963  0.3417
16582TIP3   OH271160   3.484   2.712   3.156 -0.3496  0.2916  0.0740
16582TIP3    H171161   3.541   2.746   3.225 -1.0955  1.2729  0.2193
16582TIP3    H271162   3.525   2.739   3.074  0.5964 -0.9687  0.0984
16583TIP3   OH271163   5.816   6.125  12.698  0.1614  0.4152  0.1667
16583TIP3    H171164   5.851   6.092  12.780  0.9197 -0.2304 -0.4086
16583TIP3    H271165   5.730   6.084  12.690  0.0349  0.5639  0.6717
16584TIP3   OH271166   3.242   4.652  15.986 -0.7571 -0.0002 -0.1963
16584TIP3    H171167   3.312   4.703  16.027  0.1528 -0.5348 -1.0495
16584TIP3    H271168   3.220   4.586  16.051 -1.2323  0.8176  0.5041
16585TIP3   OH271169   0.898   3.804   5.826 -0.5931  0.2162  0.4457
16585TIP3    H171170   0.931   3.879   5.875 -0.6948 -0.4992  1.6286
16585TIP3    H271171   0.883   3.736   5.891 -0.7223 -0.7727 -0.5707
16586TIP3   OH271172   5.288   3.259  17.274 -0.5240  0.0752 -0.5161
16586TIP3    H171173   5.204   3.214  17.275  0.1232 -1.1632 -0.2799
16586TIP3    H271174   5.272   3.341  17.320 -1.7687  0.1916 -1.1033
16587TIP3   OH271175   5.493   6.204   5.641  0.1435  0.0999  0.5846
16587TIP3    H171176   5.495   6.117   5.601  1.0244  0.2744  0.2256
16587TIP3    H271177   5.402   6.232   5.633  0.1912 -0.0737 -0.8739
16588TIP3   OH271178   5.577   2.003  11.577  0.2722 -0.1740  0.5011
16588TIP3    H171179   5.557   2.043  11.493  2.0331 -0.1150  0.0823
16588TIP3    H271180   5.504   1.943  11.592 -1.6880  2.0327  0.4593
16589TIP3   OH271181   1.279   0.150   2.988  0.6719 -0.0606  0.6225
16589TIP3    H171182   1.365   0.192   2.991  0.9225 -0.5907  2.9567
16589TIP3    H271183   1.222   0.216   2.948  2.1659  0.1655 -1.3141
16590TIP3   OH271184   3.684   5.063  13.904 -0.0056 -0.0790 -0.4437
16590TIP3    H171185   3.693   5.073  13.809  1.5132  0.5044 -0.2768
16590TIP3    H271186   3.752   5.000  13.928 -0.5390 -0.4069  0.2300
16591TIP3   OH271187   4.692   1.150  16.148 -0.2057 -0.1511  0.1277
16591TIP3    H171188   4.600   1.174  16.131 -0.6823 -1.8574  0.1133
16591TIP3    H271189   4.688   1.058  16.172  1.3396  0.1984  1.9229
16592TIP3   OH271190   1.540   1.452  12.312 -0.1253 -0.1274  0.5897
16592TIP3    H171191   1.554   1.542  12.341  0.8085  0.0139 -0.2336
16592TIP3    H271192   1.601   1.400  12.365  0.6400 -0.0314 -0.1698
16593TIP3   OH271193   0.450   3.254   5.623 -0.4230 -0.1268 -0.1943
16593TIP3    H171194   0.383   3.215   5.567  0.4620 -0.3393 -1.1339
16593TIP3    H271195   0.525   3.196   5.615  0.4268  0.9684 -0.4613
16594TIP3   OH271196   0.555   2.424  13.877  0.1435 -0.2541  0.2243
16594TIP3    H171197   0.622   2.484  13.910  0.2522  0.0083 -0.4617
16594TIP3    H271198   0.602   2.368  13.815 -0.5239  0.7877 -1.2689
16595TIP3   OH271199   5.741   5.432   1.518 -0.3354  0.2726 -0.1236
16595TIP3    H171200   5.665   5.406   1.570 -0.4910 -0.7702 -0.8394
16595TIP3    H271201   5.707   5.445   1.430  0.2042  0.3837 -0.3209
16596TIP3   OH271202   6.408   1.995  13.190 -0.0485 -0.6870  0.0124
16596TIP3    H171203   6.369   1.919  13.146  0.2294 -0.9455  0.2098
16596TIP3    H271204   6.496   1.966  13.215 -0.0676 -0.4147  0.4008
16597TIP3   OH271205   6.295   4.942  16.335 -0.1825 -0.2251  0.1738
16597TIP3    H171206   6.356   4.926  16.264 -1.7764 -0.0414 -1.3058
16597TIP3    H271207   6.280   4.855  16.374 -0.2629 -0.5314 -0.5319
16598TIP3   OH271208   4.543   2.897  16.298 -0.2624 -0.3601  0.1889
16598TIP3    H171209   4.628   2.853  16.303 -0.1641 -0.1501  0.4227
16598TIP3    H271210   4.496   2.852  16.228  0.0063 -0.5398  0.1233
16599TIP3   OH271211   5.945   1.790  16.927 -0.5372  0.2869  0.3299
16599TIP3    H171212   6.022   1.765  16.978 -1.1168  1.0200  1.5931
16599TIP3    H271213   5.922   1.710  16.878 -0.7725 -0.8690  2.2311
16600TIP3   OH271214   2.380   4.493   1.426 -0.5984 -0.7474 -0.1292
16600TIP3    H171215   2.355   4.401   1.428 -1.6370 -0.5068 -0.7920
16600TIP3    H271216   2.442   4.503   1.498 -1.2322 -1.7507  0.5905
16601TIP3   OH271217   5.551   1.238   1.454  0.3054  0.5327  0.0379
16601TIP3    H171218   5.462   1.203   1.455  0.1681  0.8172 -0.8731
16601TIP3    H271219   5.578   1.231   1.362  1.4935 -0.1973  0.4217
16602TIP3   OH271220   3.682   4.190   0.137  0.2407 -0.0238 -0.2298
16602TIP3    H171221   3.770   4.224   0.124  0.2681  0.7341  1.6031
16602TIP3    H271222   3.626   4.246   0.082  0.7185  0.6142 -0.0810
16603TIP3   OH271223   6.701   0.638   4.789 -0.4770 -0.1676  0.2554
16603TIP3    H171224   6.669   0.550   4.771 -1.3507 -0.0927  1.3626
16603TIP3    H271225   6.635   0.677   4.846  0.5759  0.7201  0.9039
16604TIP3   OH271226   4.943   3.943   3.929 -0.2886  0.0517  0.0106
16604TIP3    H171227   4.924   4.035   3.949  0.0686  0.1822 -0.2507
16604TIP3    H271228   4.861   3.898   3.948 -0.2718  0.3258  0.7634
16605TIP3   OH271229   4.737   3.401   3.639  0.0523 -0.2603  0.3471
16605TIP3    H171230   4.808   3.438   3.586  0.0096 -0.6424  0.0217
16605TIP3    H271231   4.704   3.475   3.689  1.5592 -0.3120  1.5127
16606TIP3   OH271232   2.512   1.792   4.135 -0.2233 -0.9472 -0.7809
16606TIP3    H171233   2.511   1.721   4.070 -0.9626 -0.2973 -1.4957
16606TIP3    H271234   2.503   1.872   4.083  1.0958 -0.2755 -0.0191
16607TIP3   OH271235   3.395   1.047  14.621 -0.4996  0.0689  0.3485
16607TIP3    H171236   3.337   1.108  14.576 -0.5241 -1.5086 -1.9545
16607TIP3    H271237   3.338   0.974  14.646  0.2367 -1.0179 -1.0035
16608TIP3   OH271238   4.058   1.377   4.787  0.6150 -0.2047  0.1594
16608TIP3    H171239   3.977   1.326   4.780  1.3998 -1.7049  1.3513
16608TIP3    H271240   4.117   1.321   4.838  1.6462  1.8009  1.2650
16609TIP3   OH271241   0.532   0.725  17.073  0.2200  0.1178  0.0187
16609TIP3    H171242   0.594   0.665  17.114  1.2963  1.1740 -0.0062
16609TIP3    H271243   0.457   0.726  17.132  1.2239  0.6421  1.3381
16610TIP3   OH271244   4.005   6.194  12.490 -0.3351  0.3681  0.0840
16610TIP3    H171245   4.084   6.215  12.439 -2.1349  1.2676 -2.5419
16610TIP3    H271246   3.991   6.101  12.474 -0.6562  0.5540 -0.7689
16611TIP3   OH271247   2.810   0.239  12.945 -0.1999  0.6625  0.0844
16611TIP3    H171248   2.779   0.187  13.019  0.3571  1.2693  0.7604
16611TIP3    H271249   2.748   0.220  12.875 -0.7518  0.0927  0.7105
16612TIP3   OH271250   4.740   1.809   0.671 -0.4392  0.4495  0.2881
16612TIP3    H171251   4.828   1.846   0.674 -0.3571  0.3408 -0.6878
16612TIP3    H271252   4.746   1.738   0.607 -1.2734  0.5398  0.1032
16613TIP3   OH271253   0.504   3.108   2.562  0.2917  0.5599 -0.8404
16613TIP3    H171254   0.462   3.189   2.534 -1.1424  0.6068  1.2286
16613TIP3    H271255   0.456   3.039   2.516 -0.4334  0.7403 -0.3633
16614TIP3   OH271256   0.442   0.713  16.669  0.5406 -0.1586 -0.0712
16614TIP3    H171257   0.486   0.629  16.680  0.4354 -0.1678  0.2758
16614TIP3    H271258   0.506   0.778  16.695  0.3896 -0.1674  0.3352
16615TIP3   OH271259   4.195   1.131   0.497 -0.4151  0.4858  0.5948
16615TIP3    H171260   4.111   1.168   0.472 -0.6929 -0.5910 -0.1058
16615TIP3    H271261   4.174   1.052   0.547  0.1745  0.3880  0.7059
16616TIP3   OH271262   4.205   1.368   3.101  0.0076 -0.6470 -0.5620
16616TIP3    H171263   4.181   1.418   3.179 -1.4883 -1.3900 -0.5122
16616TIP3    H271264   4.286   1.409   3.071  0.1780  0.1814  0.9027
16617TIP3   OH271265   5.477   6.287   4.524  0.3045  0.1588  0.3588
16617TIP3    H171266   5.568   6.279   4.494 -0.4320  1.9422 -2.8045
16617TIP3    H271267   5.430   6.216   4.481  0.1715 -1.1076  2.4263
16618TIP3   OH271268   1.989   1.115  15.938 -0.3495  0.0882  0.1644
16618TIP3    H171269   1.897   1.110  15.965 -0.6541 -0.8286 -0.9375
16618TIP3    H271270   1.993   1.192  15.881 -0.3690  0.2721  0.4081
16619TIP3   OH271271   4.619   3.388  16.515 -0.5843  0.4639  0.7464
16619TIP3    H171272   4.661   3.315  16.471 -0.7204  0.7724  0.0914
16619TIP3    H271273   4.559   3.424  16.449 -0.2701  1.3708  0.9415
16620TIP3   OH271274   2.825   5.467  12.796  0.2297 -0.2107  0.5519
16620TIP3    H171275   2.879   5.501  12.867 -0.5717 -0.4488  1.2953
16620TIP3    H271276   2.761   5.411  12.839 -0.9976  0.5367 -0.2266
16621TIP3   OH271277   3.189   2.774   5.725 -0.3537  0.0893 -0.1086
16621TIP3    H171278   3.220   2.695   5.681 -0.7810 -0.9207  1.3062
16621TIP3    H271279   3.255   2.790   5.794 -0.1315  1.1348 -0.5396
16622TIP3   OH271280   0.349   6.525   4.271  0.4569 -0.5468  0.0363
16622TIP3    H171281   0.425   6.571   4.307 -0.6997  1.0031  0.6193
16622TIP3    H271282   0.330   6.572   4.189 -0.0443 -0.7309  0.0479
16623TIP3   OH271283   6.464   6.176   2.826 -0.0657 -0.2464 -0.0829
16623TIP3    H171284   6.442   6.264   2.856  0.1827 -0.6472  1.3752
16623TIP3    H271285   6.522   6.189   2.752  2.4089  0.8762  1.9047
16624TIP3   OH271286   6.629   5.055   1.571 -0.4766  0.2197  0.0198
16624TIP3    H171287   6.717   5.065   1.606  0.0975  1.4275 -1.6247
16624TIP3    H271288   6.613   5.137   1.523 -1.0271 -1.3559 -2.7279
16625TIP3   OH271289   2.233   0.411   0.084  0.3356  0.4505 -0.8614
16625TIP3    H171290   2.230   0.490   0.137  0.9015 -0.1912  0.1630
16625TIP3    H271291   2.322   0.409   0.049  0.3993  0.1543 -0.6883
16626TIP3   OH271292   5.373   3.321  15.351 -0.8813 -0.1371 -0.0052
16626TIP3    H171293   5.369   3.313  15.255 -0.8161 -2.5408  0.1263
16626TIP3    H271294   5.283   3.307  15.379 -1.1993  2.1567  0.2526
16627TIP3   OH271295   5.244   0.518   5.728 -0.2946 -0.2677  0.8348
16627TIP3    H171296   5.207   0.532   5.815 -2.0511 -0.1030  0.1127
16627TIP3    H271297   5.250   0.422   5.720 -0.5491 -0.2961  0.9724
16628TIP3   OH271298   6.215   4.870  13.888 -0.3223 -0.1572 -0.7513
16628TIP3    H171299   6.161   4.927  13.942  0.5646  2.3474 -2.3466
16628TIP3    H271300   6.261   4.814  13.951 -1.6745  0.4413  0.8422
16629TIP3   OH271301   5.747   2.316   4.582 -0.5445  0.1074  0.1765
16629TIP3    H171302   5.704   2.240   4.542 -1.8307  0.2787  1.1716
16629TIP3    H271303   5.696   2.334   4.660  0.1019  1.6380  0.2787
16630TIP3   OH271304   1.330   2.475   4.163 -0.4895  0.1651 -0.6044
16630TIP3    H171305   1.379   2.537   4.110 -0.7427  0.7783 -0.1310
16630TIP3    H271306   1.396   2.433   4.218 -0.6267  1.9926  1.0407
16631TIP3   OH271307   6.120   6.655   6.520  0.3983 -0.6763 -0.1248
16631TIP3    H171308   6.156   6.642   6.608 -0.5135  0.0842  0.3831
16631TIP3    H271309   6.062   6.731   6.529 -0.2512 -1.0154 -1.2306
16632TIP3   OH271310   0.985   0.824   5.821 -0.1584  0.5719  0.6017
16632TIP3    H171311   1.017   0.909   5.851 -0.9248  1.1406 -0.1419
16632TIP3    H271312   0.947   0.842   5.735  0.3529 -0.6739  0.0911
16633TIP3   OH271313   0.974   3.424  11.066  0.0009 -0.0231  0.2735
16633TIP3    H171314   0.996   3.332  11.049 -0.2770  0.0435 -0.4679
16633TIP3    H271315   1.053   3.472  11.043 -0.6915  0.1723 -1.9676
16634TIP3   OH271316   0.178   2.254  10.703 -0.3195  0.1113  0.0515
16634TIP3    H171317   0.189   2.344  10.672 -1.1408 -0.2236 -1.2779
16634TIP3    H271318   0.185   2.200  10.624  1.1202 -1.1018  0.9524
16635TIP3   OH271319   1.406   2.356  17.092  0.0776  0.4458  0.2164
16635TIP3    H171320   1.337   2.294  17.066  0.7425  0.2436 -1.1440
16635TIP3    H271321   1.424   2.407  17.013 -0.9155  2.8976  1.4695
16636TIP3   OH271322   2.899   5.348  16.429  0.2370 -0.2521 -0.0714
16636TIP3    H171323   2.968   5.285  16.408  0.5573  0.0341  0.1146
16636TIP3    H271324   2.831   5.331  16.364  0.0141 -1.2709  0.4192
16637TIP3   OH271325   2.159   5.710  16.606 -0.1092 -0.3682  0.1956
16637TIP3    H171326   2.068   5.723  16.580  0.9881  1.4096 -3.4481
16637TIP3    H271327   2.207   5.705  16.523  3.1174 -1.6482  1.9408
16638TIP3   OH271328   1.596   3.720  16.796 -0.3534  0.2542 -0.2207
16638TIP3    H171329   1.666   3.687  16.739  0.7412  0.9558  0.6629
16638TIP3    H271330   1.517   3.674  16.767  0.7142 -1.5638 -0.3788
16639TIP3   OH271331   6.610   6.056   4.170 -0.5449 -0.1296 -0.3387
16639TIP3    H171332   6.673   6.119   4.205 -1.1891  0.7922 -0.7820
16639TIP3    H271333   6.664   5.984   4.137  0.3022  0.7291 -0.8960
16640TIP3   OH271334   5.032   6.039  16.122 -0.5584 -0.4773 -0.1540
16640TIP3    H171335   5.103   6.041  16.187 -0.1894 -1.2631 -0.5295
16640TIP3    H271336   4.965   6.096  16.160 -0.6807 -1.5239  1.3027
16641TIP3   OH271337   2.486   3.797  12.053  0.3619 -0.0241 -0.7432
16641TIP3    H171338   2.502   3.710  12.091 -0.7471 -1.1453 -2.6730
16641TIP3    H271339   2.574   3.831  12.034  0.8215 -0.6286  0.2127
16642TIP3   OH271340   6.198   1.810   6.018 -0.0629  0.3867  0.2380
16642TIP3    H171341   6.176   1.893   6.060 -1.0639 -0.4984  1.5683
16642TIP3    H271342   6.182   1.744   6.086  2.1807 -0.7939 -0.2607
16643TIP3   OH271343   3.998   1.730  14.795  0.1607  0.0609  0.0216
16643TIP3    H171344   4.026   1.821  14.805  0.2563  0.0693 -0.3052
16643TIP3    H271345   4.070   1.679  14.833  1.8196 -0.0267 -2.8887
16644TIP3   OH271346   4.427   4.122   1.116 -0.1538  0.5993  0.8522
16644TIP3    H171347   4.357   4.184   1.138  0.7503  1.6558  0.8629
16644TIP3    H271348   4.396   4.078   1.036 -0.5323  1.5445  0.4647
16645TIP3   OH271349   1.479   0.790  13.335 -0.0202  0.5211 -0.0265
16645TIP3    H171350   1.392   0.776  13.298 -0.4347  0.9522  0.7509
16645TIP3    H271351   1.499   0.882  13.316  1.0637 -0.0350 -1.7944
16646TIP3   OH271352   4.907   2.435   3.100 -0.3941  0.1433 -0.2451
16646TIP3    H171353   4.862   2.482   3.170  0.9119  3.0600 -1.2308
16646TIP3    H271354   4.997   2.425   3.131 -0.6298 -1.8071 -0.0671
16647TIP3   OH271355   0.640   0.542  12.981 -0.6082 -0.1580  0.6190
16647TIP3    H171356   0.570   0.504  12.928  0.6771 -0.1516 -1.1631
16647TIP3    H271357   0.678   0.609  12.925  1.7281 -1.1002  0.9802
16648TIP3   OH271358   3.992   5.738  11.899 -0.3538  0.1441 -0.4854
16648TIP3    H171359   4.030   5.651  11.886  1.5193  0.8873 -0.2805
16648TIP3    H271360   3.900   5.721  11.920  0.1450 -1.8322  0.3363
16649TIP3   OH271361   3.719   4.053  13.326 -0.2458 -0.3091  0.3387
16649TIP3    H171362   3.750   4.137  13.291 -1.6657 -0.5540 -1.7174
16649TIP3    H271363   3.789   3.991  13.305 -0.7479 -0.3050 -1.6034
16650TIP3   OH271364   6.370   4.832   3.399 -0.6075  0.3062 -0.5342
16650TIP3    H171365   6.340   4.922   3.415  1.8498  1.1840 -0.3878
16650TIP3    H271366   6.298   4.791   3.351 -2.9107  1.4978  1.6605
16651TIP3   OH271367   1.534   3.733  14.898  0.7128 -0.1720  0.3185
16651TIP3    H171368   1.496   3.742  14.810  1.2014 -0.2216  0.1003
16651TIP3    H271369   1.479   3.789  14.953  0.4617 -0.0629 -0.0349
16652TIP3   OH271370   2.785   3.961   4.567  0.2683  0.3815 -0.4518
16652TIP3    H171371   2.731   4.013   4.507 -0.4595  1.9924  1.4587
16652TIP3    H271372   2.873   3.998   4.558  0.1709  0.5908 -0.5588
16653TIP3   OH271373   3.113   3.258   0.303 -0.2067 -0.2250 -0.1448
16653TIP3    H171374   3.206   3.237   0.301 -0.2278 -0.3044 -0.2678
16653TIP3    H271375   3.094   3.294   0.217 -1.0886 -3.6285 -1.5399
16654TIP3   OH271376   5.055   3.669  13.975  0.2262 -0.8563  0.1654
16654TIP3    H171377   5.056   3.749  13.923 -0.9680  0.2918  1.8054
16654TIP3    H271378   5.009   3.606  13.920 -0.2910  0.0688 -0.4975
16655TIP3   OH271379   1.224   5.240  11.465  0.0593 -0.4093  0.2095
16655TIP3    H171380   1.287   5.306  11.438 -1.9478  1.1968 -0.8135
16655TIP3    H271381   1.232   5.237  11.561 -0.0421  1.5956  0.3206
16656TIP3   OH271382   3.815   0.779   2.577  0.6713  0.5729  0.0826
16656TIP3    H171383   3.735   0.726   2.583  0.6156  0.3056 -2.0424
16656TIP3    H271384   3.805   0.846   2.644  0.7725 -2.0650  2.9817
16657TIP3   OH271385   2.902   5.990  12.994  0.0477  0.5191  0.1405
16657TIP3    H171386   2.949   6.049  13.053  1.3363 -0.4589  0.1448
16657TIP3    H271387   2.810   5.999  13.019  0.2281  2.2840  0.3195
16658TIP3   OH271388   3.957   6.547   1.489  0.6972 -0.2001 -0.1485
16658TIP3    H171389   3.915   6.608   1.551  1.6979  1.1062 -0.6982
16658TIP3    H271390   3.904   6.467   1.494 -1.2847  1.0295 -0.1108
16659TIP3   OH271391   0.755   2.101  16.115 -0.1665  0.3320 -0.4593
16659TIP3    H171392   0.784   2.052  16.192 -0.3341  1.6066  0.4544
16659TIP3    H271393   0.704   2.173  16.151 -0.6873  0.6624 -1.8107
16660TIP3   OH271394   1.019   0.556  11.441  0.0829  0.2278  0.0940
16660TIP3    H171395   1.044   0.602  11.360 -0.7113  1.2673  0.4213
16660TIP3    H271396   1.100   0.547  11.490  0.3933  0.5057 -0.3628
16661TIP3   OH271397   1.277   5.575   2.925  0.0758  0.4948  0.4686
16661TIP3    H171398   1.239   5.660   2.900  0.9227  0.9984  0.8387
16661TIP3    H271399   1.209   5.511   2.903 -0.3833  1.2152 -0.2870
16662TIP3   OH271400   6.405   2.517   6.732  0.2321  0.4123 -0.5832
16662TIP3    H171401   6.360   2.483   6.810 -0.0279 -0.3752 -1.0693
16662TIP3    H271402   6.361   2.600   6.714 -0.5214  0.0202 -0.6008
16663TIP3   OH271403   2.781   5.415   2.402 -0.0168 -0.3815 -0.3969
16663TIP3    H171404   2.836   5.382   2.473 -1.3199 -0.0340  0.8226
16663TIP3    H271405   2.743   5.336   2.363 -2.0472 -0.4949  1.6190
16664TIP3   OH271406   5.855   1.530  13.566 -0.2228 -0.7226  0.3385
16664TIP3    H171407   5.917   1.460  13.585 -0.3003 -0.9265 -0.1409
16664TIP3    H271408   5.846   1.578  13.649  0.1542 -1.0207  0.5542
16665TIP3   OH271409   5.918   0.734   4.309 -0.1902  0.1234  0.0290
16665TIP3    H171410   5.962   0.674   4.248 -0.6485 -0.3012  0.1156
16665TIP3    H271411   5.911   0.816   4.260 -0.6623 -0.2452 -0.5338
16666TIP3   OH271412   5.777   2.542  13.571  0.0832 -0.2950  1.1268
16666TIP3    H171413   5.771   2.482  13.496  1.2559  1.8253 -0.8204
16666TIP3    H271414   5.859   2.518  13.614  0.2620 -0.4555  0.7010
16667TIP3   OH271415   2.116   1.346   0.299 -0.4125 -0.0841 -0.2498
16667TIP3    H171416   2.108   1.323   0.206 -0.0258 -1.3133  0.0053
16667TIP3    H271417   2.045   1.300   0.342 -0.5136  0.3816  0.0907
16668TIP3   OH271418   4.166   6.332  11.570  0.3800  0.0502  0.7856
16668TIP3    H171419   4.089   6.301  11.522  1.7593 -1.8199 -0.3493
16668TIP3    H271420   4.202   6.402  11.515 -0.7235  1.2783  1.5632
16669TIP3   OH271421   1.278   2.756   2.336  0.2113 -0.2713  0.6546
16669TIP3    H171422   1.205   2.782   2.392 -0.6989 -0.9813 -0.1695
16669TIP3    H271423   1.314   2.839   2.304 -1.0848  0.0828  0.0264
16670TIP3   OH271424   2.348   5.554  12.604  0.6121  0.0698  0.4171
16670TIP3    H171425   2.426   5.520  12.647  1.1907  0.9763  0.1238
16670TIP3    H271426   2.283   5.561  12.674  0.8444 -0.5395  0.6970
16671TIP3   OH271427   3.934   5.024  14.073  0.8437 -0.1119  0.2007
16671TIP3    H171428   3.960   4.942  14.114  1.5989 -0.1064 -0.2522
16671TIP3    H271429   3.958   5.014  13.980  1.1359  0.6913  0.1794
16672TIP3   OH271430   3.491   0.785   1.977 -0.1613 -0.2911 -0.1479
16672TIP3    H171431   3.455   0.782   2.066  0.0324  0.2317 -0.0503
16672TIP3    H271432   3.444   0.857   1.935  1.5744  1.1775  0.3349
16673TIP3   OH271433   0.622   0.363  11.421  0.0891  0.1513  0.2253
16673TIP3    H171434   0.573   0.320  11.491  0.1056 -1.6313 -0.7931
16673TIP3    H271435   0.708   0.379  11.459 -0.9049  2.5122  1.7432
16674TIP3   OH271436   3.242   4.269   1.349  0.4065  0.1474 -0.2098
16674TIP3    H171437   3.313   4.228   1.300 -0.8283 -0.2249 -1.7360
16674TIP3    H271438   3.206   4.199   1.403  0.3581  0.0135 -0.4166
16675TIP3   OH271439   4.386   1.773   4.059  0.4894  0.4828  0.0667
16675TIP3    H171440   4.475   1.797   4.033  0.6426  1.2684  1.2528
16675TIP3    H271441   4.370   1.822   4.140 -0.6506 -0.4250  0.4241
16676TIP3   OH271442   6.385   6.219  12.851  0.1560 -0.4202  0.4251
16676TIP3    H171443   6.365   6.170  12.930  0.6011 -1.1606  0.0877
16676TIP3    H271444   6.452   6.167  12.806  1.2440  0.8861  0.4474
16677TIP3   OH271445   0.782   5.064   6.017  0.4676 -0.0497  0.2996
16677TIP3    H171446   0.691   5.085   5.998  0.5588 -0.9537 -1.3287
16677TIP3    H271447   0.783   5.040   6.110 -1.0519 -0.5142  0.2191
16678TIP3   OH271448   3.709   6.618  12.383 -0.8487 -0.0393 -0.4326
16678TIP3    H171449   3.758   6.698  12.362  0.7960 -1.0807 -0.7999
16678TIP3    H271450   3.745   6.590  12.468 -2.3229  0.2735  0.3164
16679TIP3   OH271451   0.866   6.258   5.123 -0.2241  0.1607 -0.0335
16679TIP3    H171452   0.808   6.245   5.198 -0.0460  0.1687  0.1056
16679TIP3    H271453   0.810   6.242   5.046 -0.1864 -0.7178  0.1156
16680TIP3   OH271454   3.240   3.955  13.665 -0.4229 -0.4810  0.3686
16680TIP3    H171455   3.160   3.955  13.717  0.2388 -1.3033  1.4176
16680TIP3    H271456   3.229   4.029  13.604 -1.5101  0.0664  1.1961
16681TIP3   OH271457   3.056   3.504   5.034 -0.1022  0.0532 -0.6052
16681TIP3    H171458   3.008   3.575   5.077 -1.1384 -0.9799  0.0449
16681TIP3    H271459   2.990   3.462   4.978 -0.7450 -2.8264  2.0250
16682TIP3   OH271460   6.683   6.660  15.111 -0.0543  0.1888  0.5266
16682TIP3    H171461   6.695   6.592  15.177  1.0209 -0.6833 -0.5168
16682TIP3    H271462   6.732   6.628  15.035 -0.6640  1.4956 -0.4504
16683TIP3   OH271463   0.781   5.908   4.813  0.7543  0.4522  0.1249
16683TIP3    H171464   0.752   5.829   4.769 -2.7382  1.1026  0.9539
16683TIP3    H271465   0.860   5.882   4.861  0.6366 -2.0505 -0.9362
16684TIP3   OH271466   4.957   2.401  12.714 -0.1056 -0.5260  0.4197
16684TIP3    H171467   4.968   2.434  12.624 -0.2526  3.5535  1.6618
16684TIP3    H271468   5.047   2.391  12.747 -0.0075  0.9388  0.6698
16685TIP3   OH271469   2.630   6.622   6.042 -0.2696  0.0170 -0.0864
16685TIP3    H171470   2.716   6.581   6.041  0.1774  0.9292 -0.4219
16685TIP3    H271471   2.599   6.613   5.952  0.8506  2.4348 -0.7872
16686TIP3   OH271472   1.769   4.815  15.216 -0.6785 -0.3848  0.8163
16686TIP3    H171473   1.800   4.897  15.177  1.4351 -1.7470 -0.6016
16686TIP3    H271474   1.680   4.834  15.245 -0.4928  2.2063 -0.0600
16687TIP3   OH271475   0.687   3.869   4.878 -0.0175 -0.2060 -0.1367
16687TIP3    H171476   0.716   3.881   4.787 -1.7103 -0.5753 -0.7486
16687TIP3    H271477   0.643   3.785   4.878 -1.0992  0.3426  0.7361
16688TIP3   OH271478   3.419   1.095   3.172  0.2767 -0.0088  0.1499
16688TIP3    H171479   3.420   1.013   3.220 -1.5678  0.7886  1.6532
16688TIP3    H271480   3.340   1.091   3.118  0.0058  0.8800  0.4589
16689TIP3   OH271481   0.230   5.250   6.078  0.2112 -0.1412  0.1374
16689TIP3    H171482   0.139   5.265   6.103 -0.1119 -1.9573  0.1654
16689TIP3    H271483   0.261   5.336   6.049 -1.5698  0.4628 -0.1087
16690TIP3   OH271484   0.485   3.758   0.902  0.4642 -0.1044 -0.6912
16690TIP3    H171485   0.553   3.782   0.838 -1.7726 -0.6534 -3.4767
16690TIP3    H271486   0.417   3.824   0.891 -0.0102 -0.2517  1.1412
16691TIP3   OH271487   4.560   2.143   0.275  0.1136 -0.4379 -0.2669
16691TIP3    H171488   4.583   2.216   0.218 -0.8680  0.5320  0.5325
16691TIP3    H271489   4.483   2.173   0.322  0.5421 -1.4530  1.1328
16692TIP3   OH271490   2.548   1.974  13.566  0.4839 -0.0599  0.7651
16692TIP3    H171491   2.498   2.039  13.615 -1.2386 -1.8745  1.5504
16692TIP3    H271492   2.589   2.024  13.495 -0.3011  1.9516  1.6521
16693TIP3   OH271493   6.405   3.849  16.062  0.0671  0.0682 -0.0152
16693TIP3    H171494   6.332   3.849  16.000 -1.3858  1.3587  1.6058
16693TIP3    H271495   6.457   3.925  16.037  0.1815 -0.1350 -0.4028
16694TIP3   OH271496   4.158   5.358  12.268 -0.1150  0.4766  0.0150
16694TIP3    H171497   4.163   5.445  12.308  1.2947  0.8884 -0.9787
16694TIP3    H271498   4.098   5.309  12.324 -0.0210  1.7361  1.2638
16695TIP3   OH271499   2.693   5.019   0.288 -0.6653  0.6906 -0.5835
16695TIP3    H171500   2.676   5.104   0.247 -2.5861  1.3050  1.3151
16695TIP3    H271501   2.641   4.957   0.236 -1.2022  1.0852 -0.5340
16696TIP3   OH271502   1.710   3.114  11.403  0.0372 -0.5203 -0.7007
16696TIP3    H171503   1.773   3.043  11.414  0.4318 -0.0099  0.4839
16696TIP3    H271504   1.641   3.077  11.349  0.6717 -1.5224 -0.8514
16697TIP3   OH271505   1.117   4.726   5.264  0.1998  0.0353 -0.4495
16697TIP3    H171506   1.061   4.710   5.340 -0.5649  1.6601 -0.6224
16697TIP3    H271507   1.199   4.760   5.300 -0.2522  1.0404 -0.3345
16698TIP3   OH271508   5.711   5.433   0.914 -0.0626 -0.0072 -0.1278
16698TIP3    H171509   5.620   5.446   0.940 -0.3679  0.1311 -1.2409
16698TIP3    H271510   5.723   5.492   0.840  0.5996 -0.8827 -0.7286
16699TIP3   OH271511   5.114   6.024  15.862  0.4763 -0.1923  0.4587
16699TIP3    H171512   5.074   6.013  15.948  0.6885  0.2457  0.6158
16699TIP3    H271513   5.049   6.072  15.811  0.4016 -0.3441  0.4088
16700TIP3   OH271514   4.604   4.223  15.108 -0.0570  0.1266  0.2060
16700TIP3    H171515   4.606   4.242  15.202  0.6752 -1.2270  0.4908
16700TIP3    H271516   4.569   4.303  15.068 -2.3540  0.0197  1.7941
16701TIP3   OH271517   2.025   0.582  12.337 -0.4740 -0.4040  0.3664
16701TIP3    H171518   1.991   0.508  12.287 -1.5856  0.9184 -0.9407
16701TIP3    H271519   2.120   0.581  12.320 -0.6947 -0.6042 -0.9595
16702TIP3   OH271520   6.003   1.065  16.615 -0.6660 -0.4092 -0.4072
16702TIP3    H171521   6.026   0.973  16.626 -0.6819 -0.3476  0.1996
16702TIP3    H271522   5.911   1.064  16.588 -0.8311 -0.5522  0.1545
16703TIP3   OH271523   6.507   3.057   4.602 -0.0135  0.2508  0.0455
16703TIP3    H171524   6.562   2.995   4.648 -0.2686 -0.7961 -1.0103
16703TIP3    H271525   6.558   3.138   4.601  0.5708 -0.0909  0.9318
16704TIP3   OH271526   2.580   2.492   3.539 -0.3621 -0.1552 -0.4150
16704TIP3    H171527   2.670   2.458   3.536  0.2448  1.3606 -3.8016
16704TIP3    H271528   2.533   2.440   3.475 -1.7577 -0.4228  0.7867
16705TIP3   OH271529   1.022   0.081  14.294 -0.1113  0.3549 -0.2525
16705TIP3    H171530   1.041   0.165  14.253  1.0461 -0.9110 -2.5726
16705TIP3    H271531   0.928   0.069  14.282 -0.4242  1.5963  0.7666
16706TIP3   OH271532   3.823   5.258   0.030  0.2068 -0.0638 -0.0591
16706TIP3    H171533   3.912   5.260   0.064  0.4933 -0.4363 -0.7857
16706TIP3    H271534   3.787   5.175   0.062  0.6973 -0.7283 -1.2103
16707TIP3   OH271535   1.476   6.393   2.848 -0.7745  0.1281 -0.3903
16707TIP3    H171536   1.514   6.442   2.920 -0.2299  0.8240 -1.1291
16707TIP3    H271537   1.432   6.459   2.794 -0.2819 -0.2205 -1.2468
16708TIP3   OH271538   0.237   6.620   2.613  0.4225 -0.0321 -0.2887
16708TIP3    H171539   0.248   6.538   2.660  1.2655  0.4551  0.3856
16708TIP3    H271540   0.175   6.670   2.667  0.2620 -0.0461 -0.4600
16709TIP3   OH271541   0.001   3.838  14.512  0.1612 -0.2518  0.6135
16709TIP3    H171542   0.001   3.924  14.554 -2.0780  1.1459 -1.9395
16709TIP3    H271543  -0.085   3.801  14.534  1.1276 -1.9797  1.7606
16710TIP3   OH271544   3.362   6.620   1.551  0.3154 -0.2150  0.3149
16710TIP3    H171545   3.282   6.668   1.533  0.1716 -0.6415 -0.1732
16710TIP3    H271546   3.412   6.625   1.469  0.2272 -1.0375  0.2074
16711TIP3   OH271547   6.632   1.510  16.645  0.0444  0.3762  0.1115
16711TIP3    H171548   6.654   1.595  16.605  1.5203 -0.2557 -0.5130
16711TIP3    H271549   6.667   1.516  16.734  3.5026 -0.7653 -0.9904
16712TIP3   OH271550   6.522   3.198   6.212  0.1877  0.2689 -0.0904
16712TIP3    H171551   6.457   3.189   6.281 -0.3826  1.5008 -0.4336
16712TIP3    H271552   6.595   3.143   6.240 -0.5051 -0.1714  0.9035
16713TIP3   OH271553   0.959   0.146  13.625 -0.7624  0.0233  0.4287
16713TIP3    H171554   0.882   0.150  13.568  0.8885  1.3937 -1.8810
16713TIP3    H271555   0.927   0.106  13.706 -3.3062 -1.9155 -1.3649
16714TIP3   OH271556   3.660   3.934   4.245 -0.1280  0.8228  0.2888
16714TIP3    H171557   3.699   3.867   4.188 -0.8253 -1.9803  2.8558
16714TIP3    H271558   3.713   4.012   4.230  1.2885 -0.4930 -2.2324
16715TIP3   OH271559   3.069   1.725  15.674 -0.6573  0.1650 -0.0715
16715TIP3    H171560   3.057   1.766  15.760 -0.8443 -1.7096  0.8435
16715TIP3    H271561   3.140   1.775  15.634  0.2182  0.3846  1.6355
16716TIP3   OH271562   4.289   4.176  11.366 -0.2623  0.4486 -0.4022
16716TIP3    H171563   4.293   4.081  11.353  0.3555  0.3996  0.0644
16716TIP3    H271564   4.347   4.192  11.441 -1.0614  1.0920  0.0890
16717TIP3   OH271565   4.259   3.641  17.180  0.1197  0.2864  0.2808
16717TIP3    H171566   4.335   3.697  17.193  0.0370  0.5106 -0.1795
16717TIP3    H271567   4.202   3.691  17.121 -0.2968  0.0402  0.4671
16718TIP3   OH271568   6.129   5.151   6.335 -0.4742  0.2725  0.3310
16718TIP3    H171569   6.207   5.195   6.370 -0.3383  1.3302 -1.2162
16718TIP3    H271570   6.065   5.222   6.323 -0.8040 -0.1905 -0.7472
16719TIP3   OH271571   2.830   4.793   1.130 -0.4110  0.2417  0.3069
16719TIP3    H171572   2.899   4.782   1.195  0.8893 -2.2706 -1.3026
16719TIP3    H271573   2.749   4.770   1.176  0.4941 -1.6247  1.0682
16720TIP3   OH271574   6.019   1.414  14.414  0.3936 -0.0900  0.5693
16720TIP3    H171575   6.004   1.332  14.461 -0.7714  0.5699  1.3805
16720TIP3    H271576   5.939   1.429  14.365  0.5946  0.5826  0.4374
16721TIP3   OH271577   6.269   3.416   5.947  0.1614 -0.1968 -0.4622
16721TIP3    H171578   6.275   3.484   6.014  0.0279 -0.3645 -0.2803
16721TIP3    H271579   6.215   3.455   5.878 -0.1025 -0.1997 -0.2587
16722TIP3   OH271580   3.796   2.651   2.783 -0.7048 -0.1248  0.5125
16722TIP3    H171581   3.853   2.695   2.719 -0.4470  0.6283  1.2347
16722TIP3    H271582   3.793   2.560   2.753  1.5464 -0.3939  0.8856
16723TIP3   OH271583   2.914   1.701   3.811  0.0992  0.2827 -0.2999
16723TIP3    H171584   2.870   1.748   3.740 -1.5319 -0.2943  0.2871
16723TIP3    H271585   2.887   1.747   3.890  0.1304 -0.3918  0.1101
16724TIP3   OH271586   1.549   3.236   4.048  0.2507 -0.2947 -0.1426
16724TIP3    H171587   1.563   3.279   4.132 -1.7803 -0.9560  0.5758
16724TIP3    H271588   1.579   3.300   3.983  1.4542  0.3844  1.0402
16725TIP3   OH271589   5.798   1.977   5.648 -0.0802  0.5971  0.0495
16725TIP3    H171590   5.840   1.956   5.732 -0.3348  1.1000  0.3077
16725TIP3    H271591   5.865   2.025   5.599  0.2279 -0.1093 -0.2217
16726TIP3   OH271592   0.272   6.192   2.053 -0.7712 -0.2775  0.3252
16726TIP3    H171593   0.187   6.208   2.093 -1.1630 -2.5938  0.5473
16726TIP3    H271594   0.273   6.098   2.034  2.1627 -0.6045  1.4380
16727TIP3   OH271595   5.537   3.021   6.301  0.4260 -0.2468 -0.0960
16727TIP3    H171596   5.620   2.979   6.324  0.8707  1.1538  0.9813
16727TIP3    H271597   5.546   3.041   6.208  0.8024 -1.1756 -0.2712
16728TIP3   OH271598   3.066   5.593   1.778 -0.0868 -0.1924 -0.1866
16728TIP3    H171599   3.041   5.649   1.851  1.0207 -0.9683  0.8386
16728TIP3    H271600   3.162   5.588   1.783 -0.0566 -0.9903 -1.1488
16729TIP3   OH271601   0.513   2.175   0.366  0.6608  0.1585 -0.2929
16729TIP3    H171602   0.425   2.196   0.335  1.5095  0.2434 -2.8930
16729TIP3    H271603   0.503   2.093   0.414 -0.7449 -0.2657 -1.2472
16730TIP3   OH271604   1.207   4.520   2.152 -0.0964 -0.4029  0.6870
16730TIP3    H171605   1.284   4.506   2.097 -1.1787  1.5784 -1.5082
16730TIP3    H271606   1.167   4.433   2.159 -0.2240 -0.6864 -2.2875
16731TIP3   OH271607   0.197   2.625   6.046  0.3333 -0.0700 -0.1445
16731TIP3    H171608   0.117   2.593   6.087  0.4565  0.3456  0.4177
16731TIP3    H271609   0.173   2.709   6.007 -0.4242 -1.4796 -3.0225
16732TIP3   OH271610   3.723   3.819   2.500  0.4280 -0.0744 -0.9394
16732TIP3    H171611   3.632   3.828   2.527  0.0241 -0.6971 -2.0522
16732TIP3    H271612   3.755   3.742   2.547  0.7493  0.8101  0.3507
16733TIP3   OH271613   4.508   1.462   3.376  0.2550 -0.0183 -0.0565
16733TIP3    H171614   4.474   1.524   3.312  3.3423  1.9645  0.0351
16733TIP3    H271615   4.510   1.510   3.458  2.0880 -0.4093  0.1653
16734TIP3   OH271616   3.634   6.005   3.435 -0.2496  0.0210 -0.0009
16734TIP3    H171617   3.663   5.951   3.362 -0.8792 -1.3528  0.7186
16734TIP3    H271618   3.715   6.030   3.480  0.0204 -1.1649  0.2143
16735TIP3   OH271619   3.716   5.929  14.779  0.1132  0.1230  0.1555
16735TIP3    H171620   3.770   5.877  14.720 -0.1508  0.1239 -0.0892
16735TIP3    H271621   3.632   5.937  14.734 -0.2183 -0.1949  0.6969
16736TIP3   OH271622   5.844   1.851  17.216 -0.0408 -0.0076  0.1840
16736TIP3    H171623   5.825   1.757  17.213  0.0377 -0.0447  0.7683
16736TIP3    H271624   5.895   1.867  17.137  0.2580 -0.5292  0.2603
16737TIP3   OH271625   2.941   6.199   2.766  0.3651  0.5368  0.1206
16737TIP3    H171626   2.958   6.258   2.840 -1.9470  0.2092  0.9799
16737TIP3    H271627   2.959   6.112   2.801 -1.0311  0.3546  0.4483
16738TIP3   OH271628   3.524   3.586  16.577 -0.1197  0.0594  0.4498
16738TIP3    H171629   3.570   3.543  16.649 -1.1440 -1.4042  0.2824
16738TIP3    H271630   3.464   3.519  16.543  1.5953  0.0366 -2.9618
16739TIP3   OH271631   4.513   2.290   2.389 -0.0128 -0.3096  0.1110
16739TIP3    H171632   4.445   2.223   2.401 -1.1470  1.2379  3.1069
16739TIP3    H271633   4.472   2.356   2.334  0.5051 -1.1267 -1.3401
16740TIP3   OH271634   5.782   0.720   5.156 -0.2380  0.7811  0.1799
16740TIP3    H171635   5.833   0.743   5.233  0.9381  1.0697 -0.6694
16740TIP3    H271636   5.798   0.790   5.093  0.4406 -0.4400 -1.0732
16741TIP3   OH271637   6.631   4.356   4.635 -0.2536 -0.1453  0.0565
16741TIP3    H171638   6.539   4.331   4.635 -0.5437  0.8078  1.5096
16741TIP3    H271639   6.641   4.409   4.557 -1.0221  0.0320  0.0682
16742TIP3   OH271640   1.686   3.546  15.021 -0.0444 -0.5588 -0.0819
16742TIP3    H171641   1.609   3.602  15.004  0.7666  0.5111 -0.3595
16742TIP3    H271642   1.750   3.573  14.955  1.2356 -0.1261  1.2862
16743TIP3   OH271643   0.526   5.614  17.304 -0.0336 -0.1460 -0.8993
16743TIP3    H171644   0.490   5.630  17.216  0.1356  0.2563 -0.8945
16743TIP3    H271645   0.464   5.553  17.344 -0.7951  0.6455 -0.8379
16744TIP3   OH271646   2.443   2.764  13.313  0.0372  0.0201  0.0373
16744TIP3    H171647   2.461   2.857  13.326  2.6118 -0.2476 -0.9921
16744TIP3    H271648   2.475   2.746  13.225 -2.7454 -1.3791 -0.8088
16745TIP3   OH271649   0.211   3.538  16.216 -0.0108  0.1386 -0.2650
16745TIP3    H171650   0.268   3.476  16.169  0.5963  1.1159 -0.8593
16745TIP3    H271651   0.136   3.549  16.158  0.8402  1.5143 -1.1730
16746TIP3   OH271652   3.257   5.296   4.315 -0.1102  0.2643 -0.4505
16746TIP3    H171653   3.253   5.281   4.409 -1.6020 -0.3363 -0.5762
16746TIP3    H271654   3.255   5.391   4.306 -0.8078  0.3099  0.1066
16747TIP3   OH271655   3.776   5.884   3.220  0.4601  0.1939 -0.4062
16747TIP3    H171656   3.841   5.954   3.217  1.0588 -0.2920  0.6415
16747TIP3    H271657   3.770   5.853   3.129  0.2663  1.5111 -0.8605
16748TIP3   OH271658   0.760   5.141   1.807 -0.4408 -0.3147  0.4355
16748TIP3    H171659   0.840   5.173   1.848 -0.6139  1.5876 -0.6120
16748TIP3    H271660   0.690   5.169   1.865 -0.3899 -2.5022  1.6714
16749TIP3   OH271661   6.540   6.639   4.531 -0.2059  0.0468 -0.5979
16749TIP3    H171662   6.549   6.568   4.467 -0.3026 -0.3838 -0.1390
16749TIP3    H271663   6.625   6.685   4.528  0.0895 -0.4816 -0.4345
16750TIP3   OH271664   4.559   6.545   5.115  0.0700 -0.1365 -0.4628
16750TIP3    H171665   4.536   6.632   5.148 -1.2121 -0.4268 -0.5330
16750TIP3    H271666   4.563   6.555   5.020  0.7029  0.0170 -0.4213
16751TIP3   OH271667   0.951   5.454  16.597 -0.1787 -0.3633 -0.1521
16751TIP3    H171668   0.904   5.391  16.652 -0.8588 -0.2072 -0.5316
16751TIP3    H271669   0.881   5.499  16.548  0.3828 -0.2609 -0.8800
16752TIP3   OH271670   0.448   0.404  13.792  0.4616 -0.0982  0.0437
16752TIP3    H171671   0.507   0.417  13.717  0.7490 -0.8870  0.1292
16752TIP3    H271672   0.394   0.329  13.767 -1.0333  1.0724 -0.3529
16753TIP3   OH271673   6.620   3.500  15.436  0.3312 -0.3828 -0.2291
16753TIP3    H171674   6.654   3.551  15.362 -0.0374  0.2407  0.0207
16753TIP3    H271675   6.621   3.409  15.405  1.0898 -0.2385 -0.6479
16754TIP3   OH271676   5.369   2.563   2.022  0.2856  0.2227 -0.0827
16754TIP3    H171677   5.424   2.510   1.964  0.3328  1.9810 -1.7704
16754TIP3    H271678   5.413   2.649   2.025  1.7444 -0.3796  4.7630
16755TIP3   OH271679   5.417   1.523   1.975 -0.1223  0.6071 -0.5473
16755TIP3    H171680   5.397   1.491   2.063  1.4466  0.4694 -0.1994
16755TIP3    H271681   5.473   1.455   1.937  0.7926  1.5276 -0.9108
16756TIP3   OH271682   6.148   1.652   4.774  0.3504  0.7359  0.1009
16756TIP3    H171683   6.209   1.587   4.809 -0.3700  0.1443  0.2585
16756TIP3    H271684   6.187   1.677   4.690  0.9986  0.6374  0.3607
16757TIP3   OH271685   2.342   6.634  16.906  1.1646  0.3050 -0.5204
16757TIP3    H171686   2.389   6.571  16.961  2.1186 -0.8125 -2.5095
16757TIP3    H271687   2.372   6.720  16.936  0.7046 -0.2008  1.4905
16758TIP3   OH271688   2.171   5.651   2.954 -0.5387  0.0123  0.0137
16758TIP3    H171689   2.235   5.597   3.000 -0.1175 -0.1457 -0.7516
16758TIP3    H271690   2.113   5.588   2.911 -0.3889  0.1651 -0.4127
16759TIP3   OH271691   6.122   3.081   2.628  0.4420 -0.2870 -0.4788
16759TIP3    H171692   6.046   3.071   2.571  0.6401 -0.5477 -0.7025
16759TIP3    H271693   6.138   2.993   2.662 -0.1337  0.0098  0.5825
16760TIP3   OH271694   3.280   4.850   1.435  0.0762  0.5587 -0.3899
16760TIP3    H171695   3.247   4.867   1.523  1.4320  1.0504  0.0492
16760TIP3    H271696   3.353   4.790   1.448 -0.2095 -0.0071 -1.2743
16761TIP3   OH271697   6.005   5.387   3.558  0.0202  0.3298 -0.7401
16761TIP3    H171698   6.020   5.461   3.617 -1.7130  0.5283 -0.5185
16761TIP3    H271699   5.921   5.351   3.584  0.6126 -1.4630 -1.1484
16762TIP3   OH271700   4.994   3.030  11.026  0.2575 -0.0411 -0.2337
16762TIP3    H171701   5.089   3.023  11.027  0.2208 -0.9174 -0.9011
16762TIP3    H271702   4.968   2.986  10.944 -0.7030  0.3297 -0.1376
16763TIP3   OH271703   3.583   1.469  15.777  0.0778 -0.3831 -0.0957
16763TIP3    H171704   3.558   1.559  15.759  1.5798  0.0367 -0.2118
16763TIP3    H271705   3.630   1.441  15.699  1.0298 -0.7140  0.5786
16764TIP3   OH271706   4.609   6.153  14.444 -0.1028  0.0372 -1.0671
16764TIP3    H171707   4.561   6.199  14.375  0.8721 -1.5686 -2.9130
16764TIP3    H271708   4.579   6.062  14.437 -1.6121  0.1558  2.1592
16765TIP3   OH271709   5.386   4.779  14.587  0.0066  0.2069  0.1126
16765TIP3    H171710   5.435   4.861  14.584  0.9408 -0.1791  2.3189
16765TIP3    H271711   5.323   4.785  14.515 -1.1201  3.6239  1.1914
16766TIP3   OH271712   6.066   4.936  13.682  0.0862 -0.2514 -0.3532
16766TIP3    H171713   6.120   4.986  13.621 -0.5220  0.6793 -0.1502
16766TIP3    H271714   6.129   4.888  13.737  0.6380 -1.7778 -2.2214
16767TIP3   OH271715   3.127   2.234  11.988  0.1276  0.4206 -0.0846
16767TIP3    H171716   3.120   2.326  11.960  1.6937  0.3752 -0.7576
16767TIP3    H271717   3.050   2.192  11.950  0.3486  1.1041 -1.3518
16768TIP3   OH271718   5.072   2.035   4.453 -0.3194  0.3285 -0.1672
16768TIP3    H171719   5.085   2.026   4.547 -0.7338 -1.1387 -0.2256
16768TIP3    H271720   5.052   2.128   4.441 -1.1529  0.3856  1.3159
16769TIP3   OH271721   3.428   6.667   2.013  0.0072 -0.2605  0.0577
16769TIP3    H171722   3.517   6.661   1.979 -0.1347  0.1033 -0.3809
16769TIP3    H271723   3.376   6.609   1.957  0.2790 -1.9111  1.4294
16770TIP3   OH271724   5.237   1.060  16.534 -0.1143  0.1908  0.8080
16770TIP3    H171725   5.322   1.064  16.577  0.5885 -0.8549 -0.4277
16770TIP3    H271726   5.174   1.077  16.604  1.1237  3.1121  1.3953
16771TIP3   OH271727   2.286   4.258   0.185 -0.0236 -0.6452  0.1457
16771TIP3    H171728   2.359   4.218   0.139  0.9132  0.4792  0.5983
16771TIP3    H271729   2.285   4.349   0.153 -0.1197 -0.1829  1.4140
16772TIP3   OH271730   0.879   5.691  16.753 -0.4014 -0.3308  0.3229
16772TIP3    H171731   0.921   5.710  16.669 -0.5554 -0.0456  0.3079
16772TIP3    H271732   0.905   5.763  16.810 -0.6600 -0.2871  0.3878
16773TIP3   OH271733   4.829   2.140  16.123  0.3358 -0.1296 -0.1756
16773TIP3    H171734   4.743   2.182  16.132 -0.6936 -1.5815 -2.3062
16773TIP3    H271735   4.872   2.190  16.054 -0.2773 -1.4648 -1.6101
16774TIP3   OH271736   1.664   0.809   2.749  0.0168 -0.0936  0.1143
16774TIP3    H171737   1.671   0.722   2.708 -1.0486  0.0990 -0.5325
16774TIP3    H271738   1.622   0.793   2.833  0.7751 -0.3153  0.4572
16775TIP3   OH271739   4.960   2.626  15.039  0.4960  0.1971 -0.1524
16775TIP3    H171740   4.983   2.717  15.018 -2.6346  1.0925 -0.2464
16775TIP3    H271741   4.914   2.594  14.962  0.7780 -1.1815  0.2276
16776TIP3   OH271742   3.723   5.594   0.157 -0.2258  0.3119  0.0611
16776TIP3    H171743   3.815   5.594   0.182 -0.3547  0.2608  0.5591
16776TIP3    H271744   3.723   5.584   0.062  0.2693 -0.0816  0.1006
16777TIP3   OH271745   1.934   0.704   1.354  0.2018  0.0644  0.3068
16777TIP3    H171746   1.876   0.757   1.299 -0.9386  0.2336  1.6277
16777TIP3    H271747   2.017   0.752   1.353 -0.0768  0.5643 -0.4844
16778TIP3   OH271748   6.158   5.600  13.660 -0.2839  0.0539 -0.4417
16778TIP3    H171749   6.145   5.694  13.676  1.2048  0.0859  0.8644
16778TIP3    H271750   6.153   5.561  13.747  3.6230 -0.4285 -0.2904
16779TIP3   OH271751   6.453   1.281  16.666  0.2159  0.2012 -0.4420
16779TIP3    H171752   6.412   1.262  16.582 -0.6743  0.6230 -0.1310
16779TIP3    H271753   6.515   1.351  16.648 -1.9820  2.3227 -0.3380
16780TIP3   OH271754   5.899   6.045   2.833  0.7556 -0.1286 -0.0877
16780TIP3    H171755   5.816   6.029   2.878  1.5743  0.6226  1.7652
16780TIP3    H271756   5.920   6.136   2.852  1.2719  0.1549 -1.8308
16781TIP3   OH271757   4.809   5.464   2.861  0.3945  0.9550  0.2637
16781TIP3    H171758   4.758   5.400   2.811  0.6044  1.1321 -0.1806
16781TIP3    H271759   4.852   5.413   2.929  0.8747  0.5529 -0.3241
16782TIP3   OH271760   1.134   4.419  14.289 -0.1963  0.0268  0.3668
16782TIP3    H171761   1.157   4.482  14.220  1.2059 -0.3238  0.5042
16782TIP3    H271762   1.058   4.373  14.254 -0.3353  0.7760 -0.3648
16783TIP3   OH271763   6.449   4.557  16.470 -0.0039  0.5224  0.2752
16783TIP3    H171764   6.517   4.506  16.425  1.2233  1.3470  1.1506
16783TIP3    H271765   6.409   4.495  16.531  0.1180  0.0873 -0.0826
16784TIP3   OH271766   1.444   0.335   1.879  0.2178 -0.3278 -0.1696
16784TIP3    H171767   1.431   0.374   1.793 -1.4791  1.6079  0.8621
16784TIP3    H271768   1.379   0.265   1.884 -0.5842  0.4079 -0.0275
16785TIP3   OH271769   3.175   4.582   6.600 -0.3059 -0.4159 -0.3549
16785TIP3    H171770   3.194   4.518   6.531 -2.5199 -0.1325 -1.3217
16785TIP3    H271771   3.080   4.586   6.603 -0.2827  0.0385  2.3642
16786TIP3   OH271772   1.981   0.701  14.471  0.0658 -0.1347 -0.9000
16786TIP3    H171773   1.964   0.757  14.395 -3.0529  1.2789  0.6262
16786TIP3    H271774   1.913   0.634  14.467  2.0928 -2.3113 -1.1982
16787TIP3   OH271775   4.019   2.484  16.506 -0.4309  0.9040 -1.2070
16787TIP3    H171776   4.086   2.451  16.566  0.2462  0.7718 -2.0188
16787TIP3    H271777   3.982   2.405  16.466 -0.0645  1.0397 -1.8219
16788TIP3   OH271778   2.875   3.603   1.572 -0.1904 -0.6284 -0.1486
16788TIP3    H171779   2.943   3.561   1.519  1.4460 -0.1059  1.4253
16788TIP3    H271780   2.920   3.676   1.615 -1.5355 -0.7649  1.6025
16789TIP3   OH271781   4.981   4.576   6.090  0.3591  0.1854 -0.9629
16789TIP3    H171782   4.993   4.638   6.162  1.7365 -1.9181  0.7420
16789TIP3    H271783   4.888   4.551   6.096  0.7552 -1.0417  1.1169
16790TIP3   OH271784   5.620   4.384  15.072 -0.2724  0.2768  0.2694
16790TIP3    H171785   5.643   4.408  14.982 -0.9320 -0.2513 -0.0470
16790TIP3    H271786   5.602   4.467  15.116 -0.9280  0.4746 -0.3610
16791TIP3   OH271787   3.785   4.108   2.543 -0.4752 -0.4369  0.2020
16791TIP3    H171788   3.773   4.018   2.512 -1.0525 -0.9156  1.7518
16791TIP3    H271789   3.770   4.103   2.637  1.5001  0.9056  0.6445
16792TIP3   OH271790   4.026   0.212  15.637 -0.5095 -0.5971 -0.0208
16792TIP3    H171791   4.006   0.292  15.687 -1.3574 -0.2294 -0.9008
16792TIP3    H271792   4.101   0.174  15.681 -0.1296  0.6583  0.4697
16793TIP3   OH271793   4.112   1.287  16.852  0.1824 -0.5441 -0.1979
16793TIP3    H171794   4.198   1.325  16.832 -0.0782  0.2820  0.2007
16793TIP3    H271795   4.129   1.230  16.927  0.7190 -1.8423 -1.2659
16794TIP3   OH271796   3.958   3.374  14.701 -0.3394 -0.2019  0.2737
16794TIP3    H171797   3.920   3.301  14.652  0.6319 -0.8743  0.4959
16794TIP3    H271798   3.912   3.451  14.668  0.2939 -0.6146 -1.7607
16795TIP3   OH271799   3.417   6.649  13.567  0.1321 -0.5266 -0.0343
16795TIP3    H171800   3.421   6.622  13.658  0.0608  0.2976  0.2283
16795TIP3    H271801   3.359   6.726  13.567 -1.1852 -1.4740 -1.0147
16796TIP3   OH271802   1.388   1.505   1.412  0.1451 -0.3613 -0.5074
16796TIP3    H171803   1.304   1.537   1.445  0.2613  0.0297 -0.5871
16796TIP3    H271804   1.453   1.543   1.471  0.3785  0.6061 -1.3580
16797TIP3   OH271805   0.277   5.900   5.540  0.8754  0.5466  0.0456
16797TIP3    H171806   0.323   5.848   5.474 -0.2390 -0.4246 -0.0109
16797TIP3    H271807   0.285   5.990   5.510 -0.1081  0.0715 -1.7565
16798TIP3   OH271808   5.923   3.775  13.735 -0.0435  0.3781 -0.0239
16798TIP3    H171809   5.883   3.862  13.729 -0.2857  0.3820  1.3698
16798TIP3    H271810   5.968   3.764  13.651 -1.5110  1.0849 -0.9496
16799TIP3   OH271811   4.950   2.870   3.098 -0.1524  0.0079  0.4696
16799TIP3    H171812   4.893   2.803   3.060 -0.2248  1.0350 -1.3313
16799TIP3    H271813   4.941   2.945   3.040 -0.0971  1.6311  2.4288
16800TIP3   OH271814   2.113   2.795   4.617 -0.2657 -0.0269  0.5168
16800TIP3    H171815   2.178   2.774   4.551  0.4889  0.5214  1.0547
16800TIP3    H271816   2.037   2.742   4.595  0.9316 -1.9785  0.8282
16801TIP3   OH271817   1.056   2.011  16.863  0.5590  0.3270 -0.4475
16801TIP3    H171818   1.040   1.965  16.781 -0.4952 -0.5849  0.2434
16801TIP3    H271819   0.997   1.970  16.926  0.7704  1.5385  0.5904
16802TIP3   OH271820   5.346   5.565   5.662  0.1908  0.8373  0.0907
16802TIP3    H171821   5.275   5.589   5.721 -0.5986 -0.3557 -0.3546
16802TIP3    H271822   5.309   5.498   5.605  1.7447 -0.0053  0.0198
16803TIP3   OH271823   3.882   0.442   1.151  0.0900  0.1430  0.1720
16803TIP3    H171824   3.805   0.385   1.142  1.0841 -1.3387  0.6900
16803TIP3    H271825   3.889   0.459   1.245  0.0192  0.8236  0.0577
16804TIP3   OH271826   4.362   0.098   4.902 -0.1966 -0.3628 -0.3220
16804TIP3    H171827   4.333   0.079   4.992 -0.1921 -2.1441 -0.6614
16804TIP3    H271828   4.457   0.093   4.907 -0.1660  0.2394 -0.2865
16805TIP3   OH271829   1.969   1.590   1.454 -0.2540 -0.6093  0.8254
16805TIP3    H171830   1.896   1.629   1.407  0.2999 -2.4525 -1.7502
16805TIP3    H271831   2.046   1.610   1.400  0.3899 -2.9480  0.7885
16806TIP3   OH271832   1.752   5.771  15.425  0.7323  0.1140 -0.5041
16806TIP3    H171833   1.713   5.858  15.412 -0.5474 -0.4627 -0.6623
16806TIP3    H271834   1.772   5.767  15.518 -2.4537 -0.6839  0.2389
16807TIP3   OH271835   2.654   5.502  13.769  0.0820  0.2899 -0.3729
16807TIP3    H171836   2.718   5.511  13.839 -0.6153 -0.9864  0.4594
16807TIP3    H271837   2.570   5.489  13.814 -0.6815  1.2668 -1.4394
16808TIP3   OH271838   0.105   0.458   5.128 -0.2689  0.2552  0.8414
16808TIP3    H171839   0.171   0.402   5.169 -0.1534 -0.0907  0.1869
16808TIP3    H271840   0.022   0.426   5.162 -0.2585 -0.7873 -0.0603
16809TIP3   OH271841   5.991   5.840   0.302 -0.3998 -0.2756  0.5343
16809TIP3    H171842   5.917   5.884   0.262 -1.1617 -2.7476 -0.9481
16809TIP3    H271843   6.030   5.907   0.359 -2.7066  1.6050  0.0654
16810TIP3   OH271844   4.091   1.590  11.625  0.1038 -0.3189  0.2648
16810TIP3    H171845   4.141   1.580  11.544  0.8183  0.6754  0.5576
16810TIP3    H271846   4.115   1.514  11.678  1.4243  0.2009  0.4486
16811TIP3   OH271847   2.663   0.420  14.499 -0.3564  0.2495  0.4565
16811TIP3    H171848   2.641   0.329  14.480 -0.7603  0.2701  0.8245
16811TIP3    H271849   2.734   0.440  14.439 -0.3569 -0.2683  0.2790
16812TIP3   OH271850   1.148   0.075   0.171 -0.0693  0.0219  0.1185
16812TIP3    H171851   1.192   0.098   0.253  0.9064 -1.2445 -0.0196
16812TIP3    H271852   1.056   0.066   0.195 -0.3084  2.5730  0.4444
16813TIP3   OH271853   6.018   3.412   3.921  0.7893 -0.2797 -0.1827
16813TIP3    H171854   5.943   3.363   3.955 -0.1328  1.2873  0.1768
16813TIP3    H271855   6.019   3.493   3.973  3.4827 -0.7529  0.6658
16814TIP3   OH271856   1.572   4.639  16.093 -0.3294  0.0460  0.1053
16814TIP3    H171857   1.563   4.569  16.028 -3.7776  0.1358  0.3253
16814TIP3    H271858   1.567   4.720  16.041  2.2643  0.2415  0.0131
16815TIP3   OH271859   2.514   0.603  16.964  0.2887  0.1672 -0.2225
16815TIP3    H171860   2.552   0.531  17.014 -0.0085  0.7340  0.8455
16815TIP3    H271861   2.565   0.679  16.988 -0.1047  0.5239 -0.4956
16816TIP3   OH271862   4.374   5.930  16.131  0.5116 -0.2436  0.3640
16816TIP3    H171863   4.305   5.995  16.124  0.6909 -0.2176 -1.6199
16816TIP3    H271864   4.455   5.981  16.138  0.5215 -0.2682  0.4304
16817TIP3   OH271865   4.129   5.200  15.387 -0.8147  0.2666 -0.0489
16817TIP3    H171866   4.183   5.208  15.465 -0.5905 -1.5591  0.0179
16817TIP3    H271867   4.191   5.175  15.318 -1.5738 -2.6401  0.1886
16818TIP3   OH271868   0.207   5.411  11.776 -0.3496  0.7156 -0.1790
16818TIP3    H171869   0.175   5.496  11.809 -2.0413  1.6003 -3.6592
16818TIP3    H271870   0.128   5.359  11.766  0.5861 -1.0355  0.9930
16819TIP3   OH271871   1.193   6.290   1.046 -0.0147 -0.6539  1.0178
16819TIP3    H171872   1.164   6.243   0.967 -0.3100 -0.6085  1.0991
16819TIP3    H271873   1.287   6.269   1.053 -0.0046 -0.7261  0.7024
16820TIP3   OH271874   1.895   4.693   4.697  0.1079 -0.5953  0.0418
16820TIP3    H171875   1.985   4.691   4.731 -0.2390  0.4606  1.0673
16820TIP3    H271876   1.882   4.784   4.670 -1.1033 -0.4127  1.1551
16821TIP3   OH271877   3.540   4.047   4.872  0.0423 -0.4782  0.8409
16821TIP3    H171878   3.596   4.125   4.862 -0.2226 -0.3926  0.0150
16821TIP3    H271879   3.451   4.080   4.860  0.0037 -1.1197 -0.8216
16822TIP3   OH271880   2.572   1.111  11.128  0.6364 -0.1358 -0.2636
16822TIP3    H171881   2.572   1.022  11.093 -0.5979 -0.0407 -0.5295
16822TIP3    H271882   2.565   1.099  11.223  0.8751 -0.3179 -0.2669
16823TIP3   OH271883   3.659   5.473  15.061  0.0575 -0.0949  0.6111
16823TIP3    H171884   3.680   5.380  15.048 -0.4646 -0.5600  2.6297
16823TIP3    H271885   3.565   5.479  15.043 -0.2624 -0.3519  2.0173
16824TIP3   OH271886   1.967   0.363  14.004 -0.0363 -0.4646  0.1321
16824TIP3    H171887   2.012   0.408  13.934  0.0736 -0.7368  0.0261
16824TIP3    H271888   1.952   0.430  14.071 -1.6404  0.2051 -0.8459
16825TIP3   OH271889   5.193   3.358   2.943  0.6404  0.1970  0.0247
16825TIP3    H171890   5.226   3.416   3.013 -0.3441  1.1550 -0.2719
16825TIP3    H271891   5.161   3.418   2.876  3.1023 -0.6788 -2.0699
16826TIP3   OH271892   2.502   3.563  12.201  0.2799  0.2119 -0.1217
16826TIP3    H171893   2.528   3.471  12.193  0.3132  0.3728 -2.4764
16826TIP3    H271894   2.430   3.562  12.264  1.4361 -1.1468  1.2911
16827TIP3   OH271895   0.679   1.942   2.413  0.1827  0.1093 -0.4801
16827TIP3    H171896   0.679   1.925   2.319  1.0871  0.0500 -0.4777
16827TIP3    H271897   0.766   1.914   2.443 -0.6399 -1.3553  0.6534
16828TIP3   OH271898   5.268   2.247   1.388  0.2046  0.4347  0.4027
16828TIP3    H171899   5.258   2.152   1.400 -2.7652  0.4903 -0.5678
16828TIP3    H271900   5.219   2.285   1.461  0.5696  1.2058  0.2499
16829TIP3   OH271901   2.581   1.911  15.224  0.5196  0.3781  0.1966
16829TIP3    H171902   2.561   1.820  15.201 -1.6004  0.7648  0.2987
16829TIP3    H271903   2.675   1.920  15.207  1.3766 -2.5059  2.4524
16830TIP3   OH271904   2.868   4.149   6.111  0.2164 -0.0862 -0.3003
16830TIP3    H171905   2.785   4.181   6.147  0.0425 -2.0109  1.1959
16830TIP3    H271906   2.914   4.114   6.187  2.4733  0.9959 -1.0838
16831TIP3   OH271907   5.802   5.270  13.742 -0.4328 -0.6741  0.1679
16831TIP3    H171908   5.714   5.309  13.737 -0.3057 -0.5352 -1.1972
16831TIP3    H271909   5.786   5.181  13.776 -0.8070  0.1797  2.4447
16832TIP3   OH271910   2.687   3.135   2.081  1.0831 -0.5241  0.1887
16832TIP3    H171911   2.670   3.199   2.150  0.4192 -1.0637  0.5413
16832TIP3    H271912   2.702   3.188   2.002  0.1297  0.0611  0.3813
16833TIP3   OH271913   3.202   0.803  16.027  0.0266 -0.2305  0.4779
16833TIP3    H171914   3.202   0.885  15.978 -4.4454 -1.4401 -2.1799
16833TIP3    H271915   3.263   0.746  15.980 -0.0848  0.3132 -0.3428
16834TIP3   OH271916   2.657   1.588   3.705 -0.2990  0.2123  0.5747
16834TIP3    H171917   2.661   1.525   3.634 -0.1572  0.3496  0.4589
16834TIP3    H271918   2.736   1.572   3.757  0.7393  1.5308 -0.5172
16835TIP3   OH271919   5.864   0.165  16.654 -0.6086  0.2884  0.3558
16835TIP3    H171920   5.776   0.157  16.618 -0.4757  0.1442  0.0602
16835TIP3    H271921   5.888   0.256  16.638  0.8032 -0.5307 -3.1058
16836TIP3   OH271922   0.068   5.641   1.168 -0.2580 -0.1495  0.0080
16836TIP3    H171923   0.122   5.717   1.146 -2.4087  1.5370  0.2957
16836TIP3    H271924   0.039   5.606   1.084  0.5874 -0.5794 -0.1168
16837TIP3   OH271925   0.364   6.238  12.995  0.2831  0.3885 -0.5163
16837TIP3    H171926   0.405   6.224  13.080 -1.3839 -0.2563  0.2181
16837TIP3    H271927   0.435   6.269  12.939  1.0055  2.9961  1.6379
16838TIP3   OH271928   1.338   0.674  12.644 -0.9196  0.6628 -0.0846
16838TIP3    H171929   1.392   0.635  12.712 -0.5583  0.1302 -0.6655
16838TIP3    H271930   1.307   0.756  12.682  2.0683  2.1370 -0.4473
16839TIP3   OH271931   1.704   2.274  11.743 -0.0492 -0.1132 -0.6239
16839TIP3    H171932   1.751   2.242  11.820 -0.8088 -0.0577 -0.1278
16839TIP3    H271933   1.703   2.369  11.752 -0.7225 -0.1462 -0.3575
16840TIP3   OH271934   0.508   6.369   2.117  0.2612 -0.2520  0.4778
16840TIP3    H171935   0.490   6.332   2.031 -0.9376  0.0902  0.5692
16840TIP3    H271936   0.452   6.446   2.123  1.1248  0.3437  1.1482
16841TIP3   OH271937   3.131   0.540  15.526 -0.5918  0.3534 -0.2419
16841TIP3    H171938   3.166   0.481  15.593 -3.0581  0.1892  1.0218
16841TIP3    H271939   3.068   0.486  15.478 -2.0543  1.6003  0.1936
16842TIP3   OH271940   1.739   2.592  13.862  0.2574  0.4814  0.5054
16842TIP3    H171941   1.809   2.529  13.878 -0.3691 -0.7502 -1.2317
16842TIP3    H271942   1.784   2.670  13.830  1.0447  0.9735  2.6507
16843TIP3   OH271943   6.477   1.213   2.430  0.3909 -0.0935  0.0268
16843TIP3    H171944   6.500   1.216   2.337  0.4148 -0.8990 -0.0010
16843TIP3    H271945   6.425   1.292   2.444  1.0809  0.4652 -0.4745
16844TIP3   OH271946   1.811   5.760  14.180  0.2209 -0.1283  0.5484
16844TIP3    H171947   1.757   5.790  14.107  0.5902  0.8006  0.6383
16844TIP3    H271948   1.892   5.811  14.173 -0.2191  0.9124  2.3286
16845TIP3   OH271949   1.322   5.801   5.391 -0.4332  0.4209 -1.0177
16845TIP3    H171950   1.232   5.827   5.413 -1.4337 -1.0623 -2.9804
16845TIP3    H271951   1.371   5.813   5.472 -2.6225  0.3525  0.4165
16846TIP3   OH271952   3.138   1.040  14.161  0.3905 -0.1910 -0.1409
16846TIP3    H171953   3.165   0.989  14.237 -1.6646 -0.0136  0.7754
16846TIP3    H271954   3.138   1.131  14.191  1.0201  0.0409 -0.8184
16847TIP3   OH271955   1.008   0.085   1.687  0.2702  0.1678  0.6230
16847TIP3    H171956   1.002   0.165   1.740  0.4127  0.3371  0.3858
16847TIP3    H271957   1.072   0.106   1.619 -0.4906  0.2237 -0.0879
16848TIP3   OH271958   5.580   4.849   2.899  0.4730 -0.2547  0.0292
16848TIP3    H171959   5.628   4.931   2.890 -2.0096  1.5549  1.8001
16848TIP3    H271960   5.568   4.818   2.809  1.8247  1.0827 -0.6556
16849TIP3   OH271961   4.121   4.531   0.085  0.3993  0.5039  0.0210
16849TIP3    H171962   4.044   4.538   0.142 -1.2269 -1.1571 -1.7686
16849TIP3    H271963   4.121   4.613   0.035  1.0282  1.3752  1.4013
16850TIP3   OH271964   4.949   5.523  15.196  0.1072  0.4050  0.3021
16850TIP3    H171965   4.991   5.551  15.115 -0.6316  2.0092  0.4228
16850TIP3    H271966   5.019   5.521  15.261  0.5649 -0.1751 -0.1966
16851TIP3   OH271967   0.687   4.765   0.013 -0.3043  0.8131  0.3595
16851TIP3    H171968   0.632   4.717   0.076  0.4449 -1.3957 -0.5548
16851TIP3    H271969   0.696   4.705  -0.061  0.9820  2.2781 -0.7289
16852TIP3   OH271970   3.961   3.469  12.766 -0.1103 -0.1854  0.6427
16852TIP3    H171971   3.978   3.467  12.672  1.9856  1.5542  0.9141
16852TIP3    H271972   3.866   3.481  12.772 -0.1895  0.4961 -1.2775
16853TIP3   OH271973   2.813   1.645   0.231 -0.1638  0.2857 -0.1250
16853TIP3    H171974   2.867   1.629   0.153 -0.3214  1.7041 -0.5423
16853TIP3    H271975   2.867   1.702   0.286 -1.1159  1.5085 -0.4254
16854TIP3   OH271976   5.377   0.747  17.489 -0.2348 -0.0807  0.4251
16854TIP3    H171977   5.327   0.680  17.535 -0.1725 -0.5705 -0.1997
16854TIP3    H271978   5.366   0.826  17.542 -0.5304 -0.5167  1.0277
16855TIP3   OH271979   4.295   0.566  12.187 -0.1022 -0.7483 -0.0844
16855TIP3    H171980   4.346   0.647  12.192  0.6751 -1.2200 -0.2034
16855TIP3    H271981   4.240   0.567  12.265 -0.1826 -0.0539 -0.1419
16856TIP3   OH271982   4.685   2.716   4.257 -0.4649  0.2329  0.3428
16856TIP3    H171983   4.623   2.785   4.234  1.3155  1.8183  0.0426
16856TIP3    H271984   4.729   2.695   4.175  0.7418  0.5754  0.8729
16857TIP3   OH271985   2.391   6.447   2.174 -0.4203 -0.5286 -0.1423
16857TIP3    H171986   2.464   6.386   2.159 -0.3642 -1.2260  2.5441
16857TIP3    H271987   2.327   6.397   2.225 -1.7665  0.7641 -0.4997
16858TIP3   OH271988   0.257   3.903  16.492 -0.1170  0.2226  0.2458
16858TIP3    H171989   0.331   3.928  16.547 -1.8895 -0.5272  3.2093
16858TIP3    H271990   0.229   3.985  16.452  1.2757  0.8087  0.4161
16859TIP3   OH271991   3.246   1.937   1.155 -0.2194  0.4039 -0.2418
16859TIP3    H171992   3.209   1.865   1.206 -1.0303  0.8741 -0.1567
16859TIP3    H271993   3.283   1.894   1.077  0.8433 -0.2920  0.6135
16860TIP3   OH271994   5.087   1.162  12.613 -0.7192 -0.1504  0.7200
16860TIP3    H171995   5.082   1.246  12.567 -3.6797 -0.1259  0.8656
16860TIP3    H271996   5.120   1.100  12.547 -0.1116  0.8117  0.1074
16861TIP3   OH271997   5.192   4.310  16.014  0.4746 -0.0795 -0.0263
16861TIP3    H171998   5.203   4.376  16.083  1.3463 -0.6697  0.4191
16861TIP3    H271999   5.269   4.322  15.958 -0.7162  1.0677 -1.5161
16862TIP3   OH272000   1.292   2.988  14.784  0.2961  0.4913  0.3126
16862TIP3    H172001   1.386   2.972  14.791  0.4438  1.4017  0.5528
16862TIP3    H272002   1.282   3.081  14.803 -0.5596  0.5903 -0.5477
16863TIP3   OH272003   2.959   0.928   4.064 -0.6413  0.1040 -0.2716
16863TIP3    H172004   3.035   0.871   4.078  0.5616  1.4728 -0.9051
16863TIP3    H272005   2.914   0.891   3.989 -0.7869 -0.9002  0.2976
16864TIP3   OH272006   3.920   5.509   2.396  0.1691  0.4937 -0.2474
16864TIP3    H172007   3.970   5.466   2.327 -1.6579 -1.2173 -0.6143
16864TIP3    H272008   3.983   5.521   2.467  1.4436 -0.1906 -1.2148
16865TIP3   OH272009   5.558   0.935  13.031  0.0682 -0.2615 -0.3712
16865TIP3    H172010   5.603   0.992  13.093 -0.7078 -0.1943  0.1492
16865TIP3    H272011   5.611   0.855  13.029 -0.2420 -0.5182  0.8821
16866TIP3   OH272012   6.612   4.705   0.142 -0.3387 -0.4949  0.0260
16866TIP3    H172013   6.523   4.675   0.125 -0.3050 -0.9401  0.5825
16866TIP3    H272014   6.668   4.647   0.091 -0.3670 -0.2363 -0.2974
16867TIP3   OH272015   1.738   4.606   2.809 -0.0792 -0.3188 -0.3887
16867TIP3    H172016   1.706   4.522   2.776 -0.2432  0.2697 -1.7996
16867TIP3    H272017   1.755   4.658   2.730  0.8369  0.6807  0.4290
16868TIP3   OH272018   0.459   0.384   3.860 -0.2452  0.5651  0.4267
16868TIP3    H172019   0.483   0.301   3.819 -0.1166  0.8404 -0.0644
16868TIP3    H272020   0.523   0.395   3.930 -0.1639  0.3282  0.3900
16869TIP3   OH272021   3.826   3.671  12.430 -0.2780 -0.1150  0.0153
16869TIP3    H172022   3.833   3.580  12.458 -0.5460 -0.0021  0.4554
16869TIP3    H272023   3.911   3.690  12.390 -0.5877 -0.8783 -1.0581
16870TIP3   OH272024   3.793   4.462   5.833 -0.4287  0.1855 -0.5213
16870TIP3    H172025   3.735   4.537   5.847 -0.7568  0.2909 -2.2370
16870TIP3    H272026   3.811   4.462   5.739  3.2520  0.7845  0.0243
16871TIP3   OH272027   3.818   4.707  17.184 -0.0947 -0.1999 -0.1320
16871TIP3    H172028   3.751   4.681  17.247  0.3908 -0.7600  0.1679
16871TIP3    H272029   3.868   4.775  17.229  0.0672 -0.3883 -0.0279
16872TIP3   OH272030   1.112   3.648   3.915 -0.1375 -0.4823 -0.2100
16872TIP3    H172031   1.096   3.692   3.831 -0.7370 -0.4150 -0.0655
16872TIP3    H272032   1.164   3.571   3.891 -0.1105 -0.3455 -0.6148
16873TIP3   OH272033   3.947   5.531   6.908  0.9078  0.3185  0.2584
16873TIP3    H172034   3.932   5.575   6.824  1.6196 -1.3749 -0.8369
16873TIP3    H272035   4.040   5.546   6.926  0.2980  2.4452  1.8739
16874TIP3   OH272036   6.197   5.133   5.547  0.4826  0.8587 -0.3248
16874TIP3    H172037   6.228   5.176   5.467 -0.5221  1.3021 -0.4996
16874TIP3    H272038   6.275   5.092   5.584  1.1076  1.2608 -1.1476
16875TIP3   OH272039   5.677   5.462  12.335  0.0677 -0.0388 -0.3137
16875TIP3    H172040   5.642   5.485  12.249 -0.0670  0.2221 -0.1896
16875TIP3    H272041   5.681   5.545  12.382  1.0985 -0.0221 -0.4066
16876TIP3   OH272042   2.365   4.568   2.677 -0.1366  0.2531 -0.6355
16876TIP3    H172043   2.344   4.626   2.604 -0.5217  0.2997 -0.4898
16876TIP3    H272044   2.309   4.491   2.663  1.3659 -0.7288 -1.6187
16877TIP3   OH272045   5.985   3.436  11.633 -0.0145  0.1048  0.4627
16877TIP3    H172046   5.922   3.505  11.614 -0.5058  0.1088  1.9572
16877TIP3    H272047   6.033   3.424  11.551 -1.4396  0.6301 -0.4941
16878TIP3   OH272048   3.162   0.643   1.854  0.2908  0.4393 -0.5345
16878TIP3    H172049   3.102   0.712   1.882 -0.0077  0.8781 -2.1318
16878TIP3    H272050   3.208   0.617   1.934 -1.5493  0.5398  0.6037
16879TIP3   OH272051   4.538   4.117  12.035  0.5910 -0.4574 -0.0475
16879TIP3    H172052   4.523   4.081  11.948 -1.3777 -4.7713  1.8030
16879TIP3    H272053   4.613   4.069  12.069  0.4310  0.0889  1.1385
16880TIP3   OH272054   4.807   3.783   5.354  0.2533  0.1476 -0.0986
16880TIP3    H172055   4.810   3.748   5.265 -0.7125 -1.0351  0.3050
16880TIP3    H272056   4.855   3.866   5.349  0.1200  0.1604 -1.7341
16881TIP3   OH272057   6.417   3.026   5.037  0.1808 -0.3104  0.2661
16881TIP3    H172058   6.382   3.112   5.012  0.9362 -0.0186  0.1826
16881TIP3    H272059   6.363   2.999   5.112 -0.0956  0.2111  0.2614
16882TIP3   OH272060   2.531   2.970   6.484 -0.0408 -0.2875  0.0194
16882TIP3    H172061   2.582   3.010   6.413 -0.2731 -1.1958 -0.6839
16882TIP3    H272062   2.567   2.882   6.493 -0.5351 -0.4464  0.4994
16883TIP3   OH272063   0.495   4.714   3.886  0.2047 -1.3023 -0.3789
16883TIP3    H172064   0.463   4.788   3.834  0.3619 -1.4119 -0.6324
16883TIP3    H272065   0.504   4.749   3.975  0.2423 -1.0268 -0.4903
16884TIP3   OH272066   3.155   1.460  12.005 -0.5947  0.1664  0.3521
16884TIP3    H172067   3.190   1.403  11.936  0.7377  0.3042  0.8962
16884TIP3    H272068   3.118   1.534  11.958 -1.3926 -0.6159 -0.3043
16885TIP3   OH272069   6.354   1.839   0.507 -0.2442 -0.0145 -0.1134
16885TIP3    H172070   6.419   1.773   0.483 -0.5196  0.0754 -1.1727
16885TIP3    H272071   6.405   1.908   0.549 -0.2686 -2.0084  3.5597
16886TIP3   OH272072   1.272   0.011   3.614  0.5962 -0.4269  0.2663
16886TIP3    H172073   1.272   0.092   3.665  0.8555 -1.1298  1.4314
16886TIP3    H272074   1.179  -0.007   3.597  0.4181 -0.7005  1.3983
16887TIP3   OH272075   5.978   4.167   5.869  0.3313 -0.0591  0.8227
16887TIP3    H172076   5.941   4.168   5.781  1.7732  2.2124  0.1808
16887TIP3    H272077   5.903   4.150   5.926 -0.8380 -0.3266 -0.7401
16888TIP3   OH272078   2.536   0.775  15.878 -0.3016  0.2101 -0.1560
16888TIP3    H172079   2.525   0.722  15.957  0.2027  1.3287  0.6951
16888TIP3    H272080   2.573   0.857  15.909 -0.0140  0.6519 -1.5796
16889TIP3   OH272081   1.792   1.953   1.880  0.0658  0.2142 -0.1356
16889TIP3    H172082   1.805   1.862   1.909 -0.2794  0.0629 -0.4480
16889TIP3    H272083   1.757   1.998   1.957  2.2964  0.6175  0.7161
16890TIP3   OH272084   0.409   5.975   3.295 -0.4096 -0.3773  0.3716
16890TIP3    H172085   0.364   6.037   3.238  0.3598 -1.5159 -1.5420
16890TIP3    H272086   0.345   5.906   3.311 -0.3498 -0.4657  0.2238
16891TIP3   OH272087   2.756   4.274  10.976 -0.3499  0.0712 -0.0006
16891TIP3    H172088   2.806   4.311  11.049 -1.6272 -0.0031  0.9636
16891TIP3    H272089   2.813   4.282  10.900  0.7992  0.6858  0.9007
16892TIP3   OH272090   1.013   6.264  14.199  0.0791 -0.2106  0.2104
16892TIP3    H172091   0.948   6.335  14.199 -1.4316 -1.4356  2.5740
16892TIP3    H272092   0.969   6.192  14.246  2.9454 -1.2948  1.4653
16893TIP3   OH272093   4.414   1.676   0.062  0.3459  0.5308  0.6917
16893TIP3    H172094   4.437   1.767   0.047 -0.2811  0.5012 -0.5741
16893TIP3    H272095   4.323   1.669   0.032 -0.1384 -0.1686  2.2100
16894TIP3   OH272096   6.314   3.751   5.310  0.1991 -0.0451  0.3294
16894TIP3    H172097   6.356   3.664   5.309  1.7682  0.6811 -0.6097
16894TIP3    H272098   6.260   3.750   5.389  1.0603 -1.4873  0.9490
16895TIP3   OH272099   0.956   1.716  14.178  0.2175  0.4681  0.2652
16895TIP3    H172100   0.898   1.672  14.240  0.2967  1.1582  0.8399
16895TIP3    H272101   1.037   1.666  14.181 -0.1658 -0.1999 -0.1663
16896TIP3   OH272102   1.211   4.991  15.325 -0.3525 -0.0461 -0.7289
16896TIP3    H172103   1.238   5.083  15.323  1.8590 -0.5573  1.0866
16896TIP3    H272104   1.125   4.992  15.366 -0.3031  1.2124 -0.6211
16897TIP3   OH272105   5.301   0.956  15.405 -0.2326  0.2697 -0.5588
16897TIP3    H172106   5.253   0.911  15.474  0.7409 -0.4565 -0.3383
16897TIP3    H272107   5.355   1.021  15.451 -0.3307  0.4757 -0.7298
16898TIP3   OH272108   6.531   3.874  15.015  0.1169 -0.6579  0.2374
16898TIP3    H172109   6.581   3.924  15.080  2.0232 -2.4478  0.2273
16898TIP3    H272110   6.448   3.855  15.058  0.5530 -0.1000  1.3718
16899TIP3   OH272111   5.160   2.572  12.277 -0.2893  0.4066  0.0835
16899TIP3    H172112   5.185   2.484  12.305 -0.1758  0.4761  0.2019
16899TIP3    H272113   5.149   2.565  12.182  2.6434  0.9082 -0.4129
16900TIP3   OH272114   5.944   2.338   6.872  0.5883  0.0632  0.7833
16900TIP3    H172115   5.875   2.271   6.871  0.7197 -0.0703 -0.4210
16900TIP3    H272116   5.897   2.420   6.889  0.3712 -0.2584  1.8052
16901TIP3   OH272117   6.394   4.338   0.196 -0.0200  0.2098 -0.2274
16901TIP3    H172118   6.452   4.316   0.269 -0.0776 -0.1977 -0.3000
16901TIP3    H272119   6.452   4.360   0.124  0.1758 -2.7181 -1.1201
16902TIP3   OH272120   3.340   5.257   4.570 -0.2901  0.0430 -0.5256
16902TIP3    H172121   3.430   5.291   4.573  0.2078 -1.2331 -0.3109
16902TIP3    H272122   3.321   5.231   4.660 -0.5704 -0.4454 -0.7226
16903TIP3   OH272123   3.639   0.012  14.035 -0.0126  0.3242  0.0726
16903TIP3    H172124   3.575   0.012  13.964  0.2789  0.6638 -0.1875
16903TIP3    H272125   3.609   0.082  14.093 -1.6767 -1.4975  1.5804
16904TIP3   OH272126   0.369   1.711  13.902  0.0479 -0.2954 -0.2043
16904TIP3    H172127   0.326   1.760  13.972 -0.3815  3.2174 -2.6479
16904TIP3    H272128   0.463   1.720  13.919 -0.0581 -0.8351  0.7109
16905TIP3   OH272129   3.165   0.728   4.119  0.1073 -0.9271 -0.0275
16905TIP3    H172130   3.257   0.740   4.096 -0.3914  2.4229 -0.7398
16905TIP3    H272131   3.167   0.681   4.203  2.4928 -0.1614  0.4084
16906TIP3   OH272132   3.311   1.141  12.799 -0.2018  0.1242  0.1907
16906TIP3    H172133   3.234   1.197  12.797 -0.0875  0.3713  1.4317
16906TIP3    H272134   3.289   1.068  12.742 -2.0111 -0.6016  1.6938
16907TIP3   OH272135   0.917   4.462   6.917  0.0967  0.3359  0.7342
16907TIP3    H172136   1.004   4.438   6.886 -0.4212 -0.8830  0.1525
16907TIP3    H272137   0.866   4.381   6.911 -0.7050  0.6628  2.4200
16908TIP3   OH272138   6.031   1.925   0.879  0.4167  0.3355 -0.0837
16908TIP3    H172139   5.946   1.937   0.837  0.5575 -0.5687 -0.6513
16908TIP3    H272140   6.085   1.882   0.813  1.4390  1.2450  0.1423
16909TIP3   OH272141   0.003   2.746   1.431  0.0825 -0.1640  0.7538
16909TIP3    H172142   0.088   2.748   1.475 -0.6756  2.9124  2.4709
16909TIP3    H272143  -0.040   2.827   1.460 -3.2615 -1.3449 -0.3825
16910TIP3   OH272144   5.137   4.380  10.831 -0.2424  0.2759  0.5029
16910TIP3    H172145   5.232   4.383  10.829 -0.2270  1.0230  1.5149
16910TIP3    H272146   5.113   4.319  10.760  1.0464 -1.5362  1.5458
16911TIP3   OH272147   3.502   5.967  12.801 -0.1016  0.3406 -0.1971
16911TIP3    H172148   3.522   5.873  12.805  1.7483  0.6682 -0.9120
16911TIP3    H272149   3.409   5.970  12.779 -0.1784 -1.3272 -0.2594
16912TIP3   OH272150   5.165   1.415   0.175  0.1623 -0.1545 -0.1569
16912TIP3    H172151   5.100   1.404   0.106 -0.5924 -2.0476  0.7990
16912TIP3    H272152   5.158   1.336   0.228 -0.1876  1.7476  2.8631
16913TIP3   OH272153   4.433   6.244  16.005  0.2034  0.1433 -0.0754
16913TIP3    H172154   4.480   6.316  15.963  0.2487  0.0309 -0.2173
16913TIP3    H272155   4.502   6.192  16.047  0.0367  1.1588  1.5508
16914TIP3   OH272156   4.100   0.852   5.025  0.6984 -0.7268  0.0418
16914TIP3    H172157   4.165   0.826   5.091  0.5562 -0.0459  0.4525
16914TIP3    H272158   4.016   0.824   5.062  0.5144  0.5231  0.6099
16915TIP3   OH272159   1.020   6.677  12.927 -0.3830 -0.4441  0.7125
16915TIP3    H172160   1.090   6.733  12.960 -0.4125 -0.6633  1.1617
16915TIP3    H272161   0.996   6.623  13.003 -2.9760  1.5179  1.4360
16916TIP3   OH272162   2.022   0.092   5.185 -0.1030  0.0276 -0.6040
16916TIP3    H172163   2.025   0.114   5.279  0.8614  0.2447 -0.6771
16916TIP3    H272164   1.965   0.015   5.181 -1.2865  0.8284 -0.0101
16917TIP3   OH272165   2.632   0.132  14.432 -0.2515 -0.0821 -0.0683
16917TIP3    H172166   2.595   0.087  14.356 -1.0180 -0.0904  0.2995
16917TIP3    H272167   2.580   0.100  14.506 -3.0208  3.6027 -0.1132
16918TIP3   OH272168   4.671   1.576  17.331  0.1501 -0.0752  0.1312
16918TIP3    H172169   4.615   1.644  17.367 -1.0400 -0.9253 -0.0560
16918TIP3    H272170   4.702   1.612  17.248  0.1987  0.5474  0.4126
16919TIP3   OH272171   5.375   1.919  12.657  0.2161  0.1386  0.4768
16919TIP3    H172172   5.309   1.937  12.723 -1.4328  0.4338 -1.1651
16919TIP3    H272173   5.393   2.004  12.617  0.7244 -0.1235  0.1426
16920TIP3   OH272174   2.669   3.050  14.297  0.5655  0.1298  0.1314
16920TIP3    H172175   2.661   2.966  14.343  0.9258  0.1202  0.1860
16920TIP3    H272176   2.666   3.115  14.367 -0.8743  0.2397 -0.0099
16921TIP3   OH272177   3.713   5.355   4.731 -0.5253  0.2164 -0.0337
16921TIP3    H172178   3.647   5.412   4.771 -1.3283  0.6814 -1.8949
16921TIP3    H272179   3.766   5.324   4.804 -2.1219  0.7200  1.3922
16922TIP3   OH272180   4.262   0.217   1.892 -0.0349 -0.0501  0.6517
16922TIP3    H172181   4.330   0.269   1.849 -0.0632 -0.1374  0.4991
16922TIP3    H272182   4.250   0.259   1.977  0.1615  0.0070  0.6527
16923TIP3   OH272183   4.649   3.400   5.988  0.0853  0.1887  0.1338
16923TIP3    H172184   4.728   3.403   5.934  0.3426  1.5890  0.5571
16923TIP3    H272185   4.681   3.377   6.076 -0.1812 -0.8284 -0.0261
16924TIP3   OH272186   2.402   2.445   4.045 -0.5261 -0.0063 -0.1999
16924TIP3    H172187   2.479   2.444   4.102 -0.5814  0.7014 -0.1096
16924TIP3    H272188   2.436   2.427   3.957 -0.0493  1.7065 -0.3964
16925TIP3   OH272189   3.449   4.635  16.181 -0.7350  0.1054 -0.1355
16925TIP3    H172190   3.449   4.592  16.267  1.5714 -1.6495 -0.9155
16925TIP3    H272191   3.447   4.729  16.201  1.6064 -0.2028  1.9513
16926TIP3   OH272192   2.097   0.801  12.724 -0.9969 -0.1348 -0.9557
16926TIP3    H172193   2.130   0.793  12.813 -2.1479 -2.0292 -0.6395
16926TIP3    H272194   2.120   0.718  12.682  0.8313  1.2660 -2.9309
16927TIP3   OH272195   0.114   6.030  12.019  0.4431 -0.5686 -0.1586
16927TIP3    H172196   0.041   5.980  12.055  0.6243 -0.2706  0.6640
16927TIP3    H272197   0.076   6.114  11.993  0.5803 -0.1569  0.8829
16928TIP3   OH272198   4.793   4.280  14.001  0.4522 -0.3936  0.1559
16928TIP3    H172199   4.801   4.314  13.912 -0.7587  0.3432  0.3014
16928TIP3    H272200   4.700   4.289  14.021  0.7165 -0.5239  1.5172
16929TIP3   OH272201   4.251   5.960   1.500  0.0868  0.3893  0.2290
16929TIP3    H172202   4.242   6.032   1.562  0.5583  0.5113  0.1568
16929TIP3    H272203   4.163   5.923   1.494  0.0578  0.3139  1.0423
16930TIP3   OH272204   4.041   4.054   5.505  0.5590 -0.0372 -0.5230
16930TIP3    H172205   4.073   4.101   5.428  0.1508 -1.7085 -1.7666
16930TIP3    H272206   3.956   4.094   5.525  1.6612  1.9264  0.5198
16931TIP3   OH272207   2.410   2.159   4.104 -0.0202 -0.2102  0.2707
16931TIP3    H172208   2.390   2.121   4.019 -0.5242 -0.5463  0.5320
16931TIP3    H272209   2.418   2.253   4.088 -0.4748 -0.2307 -0.0780
16932TIP3   OH272210   3.360   2.748   2.481  0.1490 -0.4756  0.7699
16932TIP3    H172211   3.440   2.696   2.472  0.1339 -0.3195 -0.4499
16932TIP3    H272212   3.388   2.828   2.525  1.1457  0.5290 -1.5218
16933TIP3   OH272213   0.828   1.709  14.425  0.3168 -0.5074 -0.0329
16933TIP3    H172214   0.828   1.805  14.428 -1.0857 -0.5055  1.5834
16933TIP3    H272215   0.910   1.684  14.468 -0.1782  0.0022  1.2825
16934TIP3   OH272216   1.903   0.762   0.218  0.2841 -0.3192 -0.4057
16934TIP3    H172217   1.936   0.794   0.302 -0.6123 -3.4235  1.2405
16934TIP3    H272218   1.972   0.704   0.185 -0.4101 -1.0494 -0.5923
16935TIP3   OH272219   1.859   1.096  12.076 -0.1569 -0.0739 -0.3394
16935TIP3    H172220   1.878   1.044  12.153 -0.8837 -0.1280 -0.1888
16935TIP3    H272221   1.853   1.186  12.108  0.2309 -0.0036 -0.4542
16936TIP3   OH272222   0.237   4.946  11.367  0.5213  0.3425  0.4592
16936TIP3    H172223   0.222   5.030  11.325 -0.8295 -0.6154 -1.1169
16936TIP3    H272224   0.330   4.928  11.354  0.2502  0.2980 -1.8136
16937TIP3   OH272225   1.144   1.813  16.415 -0.0266 -0.3393  0.0699
16937TIP3    H172226   1.197   1.743  16.377 -0.8113 -1.3417  0.7539
16937TIP3    H272227   1.194   1.893  16.399  0.2806 -0.8879 -1.8714
16938TIP3   OH272228   1.469   3.749  12.545 -0.3981 -0.2148 -0.2658
16938TIP3    H172229   1.396   3.713  12.495 -1.3417  0.2000  0.7946
16938TIP3    H272230   1.472   3.696  12.625 -0.2152  0.4514  0.1735
16939TIP3   OH272231   4.521   2.970   5.114  0.3362  0.2178  0.1832
16939TIP3    H172232   4.496   2.880   5.093  0.4822  0.0841  0.5825
16939TIP3    H272233   4.455   2.999   5.177  0.3475  0.3529  0.1323
16940TIP3   OH272234   3.942   0.367  16.633  0.1507  0.6039 -0.3826
16940TIP3    H172235   4.031   0.345  16.607  0.3452  2.3302 -1.3740
16940TIP3    H272236   3.934   0.334  16.723  1.3510 -0.6416 -0.7049
16941TIP3   OH272237   2.198   3.343   0.275  0.1513  0.1206  0.5467
16941TIP3    H172238   2.274   3.361   0.219 -0.9836 -0.4247 -1.2174
16941TIP3    H272239   2.175   3.252   0.257 -0.8593  0.2359  1.1599
16942TIP3   OH272240   1.505   2.633   3.507  0.0873 -0.3625 -0.4220
16942TIP3    H172241   1.508   2.597   3.419  2.4088  1.6127 -1.2931
16942TIP3    H272242   1.438   2.701   3.503 -0.4713 -0.9062 -0.3729
16943TIP3   OH272243   2.842   5.187  11.695 -0.2145 -0.2648 -0.3544
16943TIP3    H172244   2.820   5.165  11.605  0.0191 -0.7208 -0.2979
16943TIP3    H272245   2.832   5.105  11.743 -0.6404  0.0440  0.0932
16944TIP3   OH272246   6.490   0.624  13.023 -0.1087  0.0415 -0.1484
16944TIP3    H172247   6.507   0.545  12.971 -0.4466 -1.5317  1.9799
16944TIP3    H272248   6.577   0.656  13.048  0.0105 -1.0774  0.9428
16945TIP3   OH272249   6.604   6.269  10.966 -0.2087  0.0368 -0.5891
16945TIP3    H172250   6.662   6.279  11.042 -1.2975  0.2262  0.2406
16945TIP3    H272251   6.565   6.356  10.955 -2.0278 -0.6207  0.2847
16946TIP3   OH272252   2.791   3.091  14.926 -0.0123 -0.0547  0.4667
16946TIP3    H172253   2.801   3.049  14.840 -1.2868 -0.9428  0.7191
16946TIP3    H272254   2.725   3.159  14.912 -0.6806 -0.6044  0.8464
16947TIP3   OH272255   4.150   1.745  12.877 -0.3357 -0.2640  0.5489
16947TIP3    H172256   4.107   1.830  12.868  0.8509  0.3880  0.7641
16947TIP3    H272257   4.201   1.752  12.957  1.6098 -0.2960 -0.6064
16948TIP3   OH272258   3.456   3.496   0.282 -0.0523 -0.2011 -0.1692
16948TIP3    H172259   3.525   3.555   0.311 -0.3307  0.3524 -0.6202
16948TIP3    H272260   3.385   3.508   0.345  0.0255 -0.3253 -0.0558
16949TIP3   OH272261   3.452   3.771   1.861 -0.0943  0.3206  0.0541
16949TIP3    H172262   3.448   3.720   1.780 -0.2090  0.5666 -0.0964
16949TIP3    H272263   3.474   3.707   1.928  0.7023  0.2306 -0.2784
16950TIP3   OH272264   2.462   2.756   3.553 -0.0904  0.7976  0.4828
16950TIP3    H172265   2.519   2.679   3.547 -0.2422  0.6491  0.9490
16950TIP3    H272266   2.374   2.722   3.536 -0.1045  0.9472  0.2438
16951TIP3   OH272267   5.393   2.673  12.049  0.6775 -0.0150  0.7402
16951TIP3    H172268   5.424   2.616  12.119  0.3591 -0.5242  0.4749
16951TIP3    H272269   5.425   2.760  12.073  0.4839 -0.1643  1.5629
16952TIP3   OH272270   1.103   6.322   1.779  0.8668 -0.2724 -0.1949
16952TIP3    H172271   1.134   6.315   1.689  1.1710  1.7400 -0.2971
16952TIP3    H272272   1.176   6.291   1.832  0.6679 -1.5144 -0.6092
16953TIP3   OH272273   4.241   4.350  13.006 -0.1731  0.2103 -0.7611
16953TIP3    H172274   4.307   4.380  13.069 -0.7135 -0.6908  0.2597
16953TIP3    H272275   4.260   4.257  12.993 -1.9336 -0.3614  0.4670
16954TIP3   OH272276   2.323   5.599   5.261 -0.1080 -0.1792 -0.3808
16954TIP3    H172277   2.349   5.636   5.177  2.5172  0.2613  0.5101
16954TIP3    H272278   2.320   5.674   5.321 -0.3804 -0.6736  0.2407
16955TIP3   OH272279   5.702   0.680   3.493  0.1290  0.0230 -0.5305
16955TIP3    H172280   5.660   0.652   3.411  0.4833 -0.0950 -0.6731
16955TIP3    H272281   5.779   0.729   3.465 -0.3565  0.9493 -0.2768
16956TIP3   OH272282   6.159   1.794   0.074 -0.0119  0.4249 -0.5821
16956TIP3    H172283   6.191   1.762  -0.010  1.1296  0.7367 -0.2859
16956TIP3    H272284   6.234   1.839   0.113 -0.0495 -0.9869  1.2628
16957TIP3   OH272285   1.365   3.439  13.652 -0.4373 -0.2867  0.3619
16957TIP3    H172286   1.299   3.369  13.654  0.3699 -1.0591  1.8340
16957TIP3    H272287   1.353   3.485  13.735 -0.9200  1.3445 -0.5689
16958TIP3   OH272288   1.526   5.542   0.278 -0.6645  0.1435 -0.1440
16958TIP3    H172289   1.579   5.582   0.208 -0.4525  0.2458  0.0711
16958TIP3    H272290   1.482   5.468   0.236  1.7361 -1.6506  0.2517
16959TIP3   OH272291   2.750   5.102  15.387  0.4963  0.2302  1.2248
16959TIP3    H172292   2.824   5.115  15.327  1.0517  0.1588  1.8786
16959TIP3    H272293   2.677   5.148  15.345  0.6388 -0.5567  0.0694
16960TIP3   OH272294   4.165   4.453   1.431  0.6648  0.1066 -0.2897
16960TIP3    H172295   4.187   4.533   1.479 -1.3166  0.2753  0.4281
16960TIP3    H272296   4.092   4.479   1.375  1.0847 -0.8076 -1.2772
16961TIP3   OH272297   3.327   0.793   1.006 -0.2916 -0.0742 -0.0026
16961TIP3    H172298   3.395   0.757   1.062  0.1720  0.5570 -0.1453
16961TIP3    H272299   3.245   0.760   1.042  0.0475 -0.2412  0.6196
16962TIP3   OH272300   2.986   5.588   3.185  0.5328 -0.1437 -0.8793
16962TIP3    H172301   3.043   5.611   3.112  0.8664  1.0591 -0.2634
16962TIP3    H272302   2.899   5.577   3.145  0.2926  2.4715 -1.2129
16963TIP3   OH272303   6.224   6.177  11.593 -0.2136  0.2945  0.1559
16963TIP3    H172304   6.311   6.189  11.631  0.4009 -2.5816 -0.1691
16963TIP3    H272305   6.164   6.192  11.666  0.7271 -0.6571  1.1719
16964TIP3   OH272306   3.236   4.512  14.842 -0.0732  0.1029  0.1931
16964TIP3    H172307   3.330   4.504  14.824 -0.2017 -2.3403  0.2317
16964TIP3    H272308   3.231   4.558  14.926  1.0602  0.5428  0.0381
16965TIP3   OH272309   3.617   5.409   2.224 -0.6134 -0.0619 -0.3882
16965TIP3    H172310   3.563   5.404   2.145  1.1238  0.5078 -1.6957
16965TIP3    H272311   3.686   5.343   2.209 -1.4174 -1.4496  1.6499
16966TIP3   OH272312   4.908   5.625  11.780 -0.2600 -0.5013  0.1049
16966TIP3    H172313   4.842   5.563  11.748  0.4052 -0.7990 -0.7364
16966TIP3    H272314   4.880   5.645  11.869 -1.6624 -0.3681 -0.3355
16967TIP3   OH272315   1.713   1.257   1.132 -0.3401  0.6341  0.0944
16967TIP3    H172316   1.689   1.337   1.084 -1.2466  0.8444  0.8604
16967TIP3    H272317   1.686   1.275   1.222  1.8783  0.4932  0.8451
16968TIP3   OH272318   4.036   5.848  12.181 -0.9394 -0.3761 -0.2878
16968TIP3    H172319   4.028   5.799  12.100  0.5496  0.0568 -0.7187
16968TIP3    H272320   4.002   5.935  12.160 -1.5937 -0.5786 -0.1130
16969TIP3   OH272321   5.418   4.396  10.849 -0.3875  0.4477 -0.2004
16969TIP3    H172322   5.452   4.331  10.910 -1.7047 -0.8863 -0.8149
16969TIP3    H272323   5.487   4.462  10.842  0.2531  0.0570  1.8306
16970TIP3   OH272324   6.397   5.397   2.132  0.2341 -0.2725 -0.1043
16970TIP3    H172325   6.343   5.320   2.147  0.6344 -0.6164 -0.4118
16970TIP3    H272326   6.391   5.446   2.214 -1.1087  0.0599 -0.3794
16971TIP3   OH272327   2.925   1.210   6.397  0.1549 -0.2414 -0.3733
16971TIP3    H172328   2.849   1.161   6.427  0.0616 -0.1334 -0.4313
16971TIP3    H272329   2.998   1.175   6.447 -0.3658  1.7177  1.8999
16972TIP3   OH272330   1.311   3.663   5.275 -0.1795 -0.5789 -0.7421
16972TIP3    H172331   1.271   3.705   5.200 -0.8426 -0.9510 -0.6005
16972TIP3    H272332   1.364   3.732   5.316 -2.0700  0.4501  0.0961
16973TIP3   OH272333   6.592   1.982  11.791 -0.1896  0.1767 -0.6262
16973TIP3    H172334   6.650   2.008  11.719  0.9140 -0.9821 -0.1941
16973TIP3    H272335   6.567   2.065  11.833  0.2446  0.7673 -1.5051
16974TIP3   OH272336   5.972   0.766   5.756 -0.3511 -0.0302  0.1960
16974TIP3    H172337   6.013   0.696   5.807 -1.2405  0.1384  1.1636
16974TIP3    H272338   5.888   0.729   5.727 -0.8471  0.6298  0.7487
16975TIP3   OH272339   6.492   3.821  15.430  0.3777  0.1862 -0.2914
16975TIP3    H172340   6.470   3.733  15.399 -1.5312  0.6877 -0.5101
16975TIP3    H272341   6.526   3.866  15.353 -0.4476  0.1839 -0.6745
16976TIP3   OH272342   3.748   3.579   3.539  0.2629 -0.4764  0.3587
16976TIP3    H172343   3.682   3.577   3.470 -0.7871  0.6723  1.2636
16976TIP3    H272344   3.753   3.672   3.565  0.6347 -0.8632  1.7932
16977TIP3   OH272345   2.844   1.521   5.056  0.0371 -0.2244 -0.0586
16977TIP3    H172346   2.824   1.566   5.139 -0.3011  1.0608 -0.8030
16977TIP3    H272347   2.792   1.440   5.060 -1.8021  0.8872  0.0271
16978TIP3   OH272348   4.472   6.578  14.145 -0.7489  0.2646 -0.4075
16978TIP3    H172349   4.464   6.644  14.214 -2.1174  1.2365 -1.4672
16978TIP3    H272350   4.383   6.551  14.126 -0.1909 -3.1074  1.0585
16979TIP3   OH272351   2.493   4.372   0.918  0.6586  0.0227  0.1345
16979TIP3    H172352   2.406   4.411   0.904  1.0008 -0.0809 -3.1355
16979TIP3    H272353   2.479   4.307   0.986 -1.6437  0.5984  0.3112
16980TIP3   OH272354   2.727   4.827  16.013  0.1023 -0.2931  0.2984
16980TIP3    H172355   2.804   4.781  15.979  0.4285  0.0268  0.6024
16980TIP3    H272356   2.727   4.807  16.106 -1.1762 -1.7287  0.0412
16981TIP3   OH272357   2.417   2.514  15.125  0.8373 -0.5637 -0.2236
16981TIP3    H172358   2.340   2.509  15.181  2.8096 -1.8354  2.6640
16981TIP3    H272359   2.417   2.603  15.091 -1.8992 -0.5694 -0.4569
16982TIP3   OH272360   0.879   1.412  14.659 -0.3177  0.3171  0.0457
16982TIP3    H172361   0.828   1.348  14.609  0.7811  0.3188 -1.1604
16982TIP3    H272362   0.925   1.360  14.725  0.1436 -0.0773 -0.5726
16983TIP3   OH272363   6.435   0.913  13.107 -0.0296  0.2144 -0.2122
16983TIP3    H172364   6.459   0.837  13.054  1.3922  0.3452  0.2165
16983TIP3    H272365   6.473   0.896  13.193 -1.9064  0.2349  0.6670
16984TIP3   OH272366   6.022   1.956   2.377 -0.7389  0.2865  0.2361
16984TIP3    H172367   5.984   1.971   2.464 -0.4698  0.1256  0.3807
16984TIP3    H272368   6.082   2.029   2.364  2.9018 -2.0921  2.2147
16985TIP3   OH272369   2.854   1.453   0.987  0.0109  0.1208 -0.1548
16985TIP3    H172370   2.925   1.416   0.935 -1.1832 -2.3394 -0.1872
16985TIP3    H272371   2.844   1.543   0.954  1.8250 -0.1006 -1.4312
16986TIP3   OH272372   1.172   4.309   1.011 -0.5720 -0.0710 -0.0457
16986TIP3    H172373   1.230   4.290   0.938 -0.3127 -0.9246  0.3728
16986TIP3    H272374   1.201   4.394   1.044 -0.0469 -0.1512 -0.3007
16987TIP3   OH272375   1.162   0.094   3.248  0.1843  0.1250  0.0137
16987TIP3    H172376   1.117   0.014   3.222  0.1576  0.5712 -1.3671
16987TIP3    H272377   1.179   0.140   3.166  1.7136  0.7394  0.6349
16988TIP3   OH272378   5.933   0.671   6.297 -0.5731  0.2535 -0.0356
16988TIP3    H172379   5.919   0.756   6.337 -1.0018 -0.5397  1.5635
16988TIP3    H272380   5.964   0.615   6.368  3.5284 -0.0457 -1.7747
16989TIP3   OH272381   5.683   1.776   5.144 -0.1655 -0.1036  0.4763
16989TIP3    H172382   5.729   1.723   5.079 -0.5074 -2.6255  2.1281
16989TIP3    H272383   5.615   1.821   5.094  1.3844  0.3937 -1.3195
16990TIP3   OH272384   6.429   4.195  15.266  0.1491 -0.1723  0.6338
16990TIP3    H172385   6.341   4.173  15.297 -0.0879  0.0097  0.1020
16990TIP3    H272386   6.423   4.189  15.171  0.1960  1.6782  0.4709
16991TIP3   OH272387   1.383   4.726  13.365 -0.5556  0.3783 -0.6171
16991TIP3    H172388   1.361   4.645  13.319 -0.9228  1.2328 -2.0331
16991TIP3    H272389   1.404   4.788  13.294  4.5363  0.2784  0.4296
16992TIP3   OH272390   1.087   4.186  11.537 -0.1225 -0.1024 -0.0719
16992TIP3    H172391   1.115   4.126  11.468  1.1423 -1.1928  1.3107
16992TIP3    H272392   1.114   4.273  11.507  0.6643 -0.5848 -0.8068
16993TIP3   OH272393   1.482   3.724  14.153 -0.2802 -0.5695  0.7403
16993TIP3    H172394   1.483   3.754  14.062 -0.2888 -0.3156  0.8241
16993TIP3    H272395   1.396   3.751  14.186 -1.0827 -2.3976  0.2478
16994TIP3   OH272396   4.374   5.745  12.516  0.2350 -0.1163  0.6293
16994TIP3    H172397   4.341   5.672  12.464 -0.2491  0.2569  0.4071
16994TIP3    H272398   4.469   5.737  12.510  0.1923 -0.7827  0.6864
16995TIP3   OH272399   0.991   6.614  16.088 -0.3591 -0.3255  0.0136
16995TIP3    H172400   1.084   6.597  16.074  0.4338  2.8430  0.7486
16995TIP3    H272401   0.988   6.680  16.157 -2.8750  2.4364 -2.4330
16996TIP3   OH272402   2.992   4.806   6.342  0.5228 -0.2342  0.0720
16996TIP3    H172403   2.920   4.806   6.405  1.0180 -1.0040  0.6473
16996TIP3    H272404   3.041   4.886   6.361  0.0247  0.1217 -0.1033
16997TIP3   OH272405   3.016   4.983  14.983 -0.1542  0.3042 -0.0245
16997TIP3    H172406   3.055   5.026  14.908  1.1170 -0.0853  0.3830
16997TIP3    H272407   2.990   4.897  14.951  0.9751 -0.1029  0.1176
16998TIP3   OH272408   6.342   4.849  13.264 -0.2034  0.1102  0.0801
16998TIP3    H172409   6.316   4.770  13.312 -1.8706  0.2156 -0.5656
16998TIP3    H272410   6.274   4.914  13.286  1.0300  1.3188  0.4535
16999TIP3   OH272411   0.620   6.264  12.627 -0.3798  0.1610  0.4021
16999TIP3    H172412   0.640   6.280  12.535 -2.0239 -0.1823 -0.0452
16999TIP3    H272413   0.660   6.179  12.646  2.4454  1.4781  0.8628
17000TIP3   OH272414   0.174   4.977  15.249 -0.1415 -0.5082 -0.3085
17000TIP3    H172415   0.184   5.071  15.261 -0.3652 -0.5126 -0.0815
17000TIP3    H272416   0.082   4.965  15.227  0.0951 -0.5764 -1.3193
17001TIP3   OH272417   4.457   4.623   2.963 -0.1213  0.0068 -0.1997
17001TIP3    H172418   4.502   4.554   3.012 -2.9223 -0.6594  1.6603
17001TIP3    H272419   4.428   4.685   3.030  0.8447  2.1855 -1.6751
17002TIP3   OH272420   1.741   2.245   4.825 -0.4284 -0.2136  0.1529
17002TIP3    H172421   1.647   2.244   4.809 -0.3605 -0.7611 -0.2297
17002TIP3    H272422   1.749   2.256   4.920 -0.8950 -1.1606  0.3126
17003TIP3   OH272423   2.587   3.045  16.389  0.2228 -0.7281 -0.1808
17003TIP3    H172424   2.509   3.086  16.426  1.1214  0.6626  0.2740
17003TIP3    H272425   2.660   3.094  16.428  1.2772 -1.0892 -1.6218
17004TIP3   OH272426   0.490   3.424   3.382 -0.0092  0.5868  0.1041
17004TIP3    H172427   0.410   3.451   3.428 -1.0167 -0.7528 -0.7807
17004TIP3    H272428   0.483   3.328   3.377 -0.0284  0.6655 -2.9244
17005TIP3   OH272429   5.290   6.708   1.773 -0.2521  0.3352 -0.7813
17005TIP3    H172430   5.209   6.658   1.786  0.9204 -1.3406  0.5737
17005TIP3    H272431   5.323   6.678   1.688  0.4381 -1.3082  0.0140
17006TIP3   OH272432   0.737   5.166  15.862 -0.1537 -0.0271  0.0588
17006TIP3    H172433   0.671   5.127  15.918 -1.9243  1.8717 -0.5835
17006TIP3    H272434   0.690   5.232  15.811  2.1550  1.1343 -0.7323
17007TIP3   OH272435   1.574   2.969   4.500  0.0386  0.1173  0.5237
17007TIP3    H172436   1.563   2.955   4.406 -1.4077  1.5422  0.4403
17007TIP3    H272437   1.665   2.943   4.517  0.8659  1.3493 -1.5832
17008TIP3   OH272438   0.739   1.303  17.097  0.3126  0.0000  0.3609
17008TIP3    H172439   0.662   1.316  17.042  1.6793 -0.0236 -1.6700
17008TIP3    H272440   0.704   1.289  17.185 -1.9067  1.4775 -0.2226
17009TIP3   OH272441   0.152   0.995   5.539  0.1268  0.8330  0.4196
17009TIP3    H172442   0.158   1.030   5.628 -0.7721 -1.0145  1.2559
17009TIP3    H272443   0.088   0.924   5.545  1.5996 -0.7360 -1.2230
17010TIP3   OH272444   3.625   2.222  16.810 -0.0139 -0.1006  0.5849
17010TIP3    H172445   3.637   2.175  16.728 -1.0267 -2.2237  1.5903
17010TIP3    H272446   3.708   2.212  16.856 -0.1457 -0.7410  0.6933
17011TIP3   OH272447   6.664   4.844  12.215 -0.0667 -0.3693  0.1883
17011TIP3    H172448   6.619   4.927  12.228  1.3602  0.4768 -0.1096
17011TIP3    H272449   6.757   4.864  12.225  0.2288 -2.4718  3.0041
17012TIP3   OH272450   4.799   0.689   2.657 -0.4872 -0.9909 -0.0445
17012TIP3    H172451   4.858   0.764   2.647 -0.7371  0.2372  4.9237
17012TIP3    H272452   4.826   0.648   2.739 -2.3995 -4.5247 -0.9893
17013TIP3   OH272453   5.390   0.474  14.856  0.0546  0.7178 -0.7063
17013TIP3    H172454   5.358   0.444  14.771  0.8962  0.6492 -1.0074
17013TIP3    H272455   5.311   0.492  14.906 -0.5204 -1.7329 -0.6057
17014TIP3   OH272456   6.732   1.263  16.963  0.2815 -0.3789 -0.0494
17014TIP3    H172457   6.746   1.219  17.047  1.0588  1.7079  0.9948
17014TIP3    H272458   6.657   1.321  16.978  2.3726  2.4166  0.3217
17015TIP3   OH272459   5.160   0.548  14.362 -0.5623  0.3825  0.3287
17015TIP3    H172460   5.220   0.621  14.372 -1.8760  1.3440  1.6300
17015TIP3    H272461   5.078   0.578  14.402 -1.9347 -0.8525 -1.3401
17016TIP3   OH272462   0.552   0.515   1.803 -0.2087  0.2964  0.3984
17016TIP3    H172463   0.617   0.544   1.739  1.8210 -1.5398  1.5038
17016TIP3    H272464   0.472   0.504   1.751  0.5578  1.7195 -1.1983
17017TIP3   OH272465   3.088   0.443   1.273 -0.1724 -0.1187  0.7132
17017TIP3    H172466   3.095   0.535   1.297 -2.5830  0.2516  0.2105
17017TIP3    H272467   3.152   0.399   1.328 -0.7180  1.5445  2.7975
17018TIP3   OH272468   3.642   2.138   2.106  0.3897 -0.0275  0.6646
17018TIP3    H172469   3.698   2.130   2.029 -0.7803 -1.7375 -0.0774
17018TIP3    H272470   3.582   2.064   2.100 -1.2697  1.1160  1.9788
17019TIP3   OH272471   6.152   5.408   4.634  0.0729 -0.2493  1.0085
17019TIP3    H172472   6.190   5.320   4.645  1.0123 -0.2409 -1.4438
17019TIP3    H272473   6.220   5.467   4.666  0.7536 -0.3509 -0.1947
17020TIP3   OH272474   0.559   4.621  13.647 -0.0705 -0.4346 -0.0636
17020TIP3    H172475   0.562   4.564  13.723 -0.1665 -0.2725  0.0631
17020TIP3    H272476   0.614   4.696  13.672  0.0953 -0.4965 -0.2462
17021TIP3   OH272477   2.334   6.599   5.601  0.1445 -0.2792  0.3079
17021TIP3    H172478   2.394   6.556   5.541  0.7303 -1.3092  1.5826
17021TIP3    H272479   2.361   6.570   5.688 -3.0486 -1.9047  0.9200
17022TIP3   OH272480   5.398   0.550   3.013  0.3704 -0.1293  0.7215
17022TIP3    H172481   5.357   0.577   2.931  0.0481  0.4094  1.0558
17022TIP3    H272482   5.358   0.464   3.031  1.2269 -0.7497 -0.2172
17023TIP3   OH272483   4.782   5.427  12.747 -0.4828 -0.1973 -0.2604
17023TIP3    H172484   4.792   5.499  12.809 -1.6622 -0.5746  0.3903
17023TIP3    H272485   4.737   5.466  12.672 -2.3911 -0.5342  0.6693
17024TIP3   OH272486   6.240   5.382  16.503  0.0032 -0.5714  0.4980
17024TIP3    H172487   6.302   5.427  16.560  0.1866 -0.8960  0.5559
17024TIP3    H272488   6.238   5.436  16.423  0.0315 -0.3267  0.6595
17025TIP3   OH272489   0.508   3.978   5.294  0.6816  0.1402 -0.6335
17025TIP3    H172490   0.567   3.903   5.296 -1.0451 -1.2648  0.3174
17025TIP3    H272491   0.421   3.940   5.280 -0.1239  2.0730 -1.2660
17026TIP3   OH272492   4.626   0.234   3.417 -0.4932  0.9135 -0.0746
17026TIP3    H172493   4.643   0.279   3.500  2.3808 -0.4287  0.1611
17026TIP3    H272494   4.577   0.298   3.365  0.7207  3.1580  1.3720
17027TIP3   OH272495   1.990   2.146   0.165  0.5058 -0.0459  0.1888
17027TIP3    H172496   1.989   2.071   0.105  0.5656 -2.5565  3.0759
17027TIP3    H272497   1.902   2.148   0.202  0.5673  1.2199  0.3027
17028TIP3   OH272498   5.271   0.319   4.195 -0.0249  0.6425 -0.1040
17028TIP3    H172499   5.211   0.333   4.269  0.9068  1.9306  0.4507
17028TIP3    H272500   5.295   0.407   4.167  1.8437  0.1775 -0.0898
17029TIP3   OH272501   0.275   1.808   6.740 -0.1376  0.3876  0.1617
17029TIP3    H172502   0.183   1.796   6.715  0.1108 -2.4772  0.3455
17029TIP3    H272503   0.291   1.742   6.807  3.0483 -2.1533 -2.7065
17030TIP3   OH272504   0.489   6.622  12.324 -0.3703  0.6057 -0.5024
17030TIP3    H172505   0.498   6.527  12.325  1.9617  0.7690  0.5621
17030TIP3    H272506   0.435   6.642  12.401 -1.1849  0.1424 -0.9436
17031TIP3   OH272507   3.922   4.888   3.385  0.0025 -0.1002 -0.0322
17031TIP3    H172508   4.006   4.923   3.356  0.3228 -2.2257 -1.8583
17031TIP3    H272509   3.857   4.938   3.335  0.1783  0.9847  0.7848
17032TIP3   OH272510   5.388   3.573  10.578  0.6916 -0.3530  0.0374
17032TIP3    H172511   5.322   3.619  10.526  1.0740  0.9495  0.6358
17032TIP3    H272512   5.472   3.603  10.542  0.9706  1.0572  1.7289
17033TIP3   OH272513   0.528   3.287  11.138  0.0103 -0.7353  0.3712
17033TIP3    H172514   0.550   3.359  11.197 -1.5930 -0.0734  0.2039
17033TIP3    H272515   0.612   3.262  11.098  0.4212  1.9986 -0.6568
17034TIP3   OH272516   1.641   3.384  14.750 -1.0509 -0.2264 -0.4138
17034TIP3    H172517   1.639   3.364  14.656 -1.6849  2.2894 -0.9895
17034TIP3    H272518   1.705   3.454  14.759  1.9327 -2.9043  1.6987
17035TIP3   OH272519   1.828   5.284  11.249 -0.5776  0.5250 -0.5509
17035TIP3    H172520   1.896   5.265  11.185  0.8414  1.9158  0.4625
17035TIP3    H272521   1.791   5.368  11.221 -0.5107  0.7415 -0.0002
17036TIP3   OH272522   3.488   4.150  12.877 -0.5273  0.3863  0.2330
17036TIP3    H172523   3.396   4.150  12.848 -0.3409  2.3865 -0.5301
17036TIP3    H272524   3.537   4.176  12.799  0.6603 -0.1084  0.7887
17037TIP3   OH272525   4.704   0.591  13.943 -0.1420  0.1065  0.0510
17037TIP3    H172526   4.795   0.597  13.916  0.0735 -0.7413  0.5221
17037TIP3    H272527   4.686   0.497  13.945 -0.8325  0.2391  0.5702
17038TIP3   OH272528   1.550   5.019  11.866  0.0965  0.0378  0.4165
17038TIP3    H172529   1.534   5.086  11.800  0.3493  1.1901  1.4951
17038TIP3    H272530   1.576   4.942  11.815  0.3051  0.8886 -0.8217
17039TIP3   OH272531   4.551   2.182  13.359 -0.1835  0.2504 -0.2088
17039TIP3    H172532   4.461   2.208  13.377 -0.1751 -0.2688  0.6231
17039TIP3    H272533   4.544   2.102  13.307 -0.2330 -1.2316  1.9857
17040TIP3   OH272534   0.619   5.369   0.910 -0.7333  0.1024 -0.1758
17040TIP3    H172535   0.553   5.412   0.855  0.1532 -1.5986 -2.7457
17040TIP3    H272536   0.613   5.276   0.888  0.6097 -0.4940  1.6564
17041TIP3   OH272537   3.785   4.450  12.403 -0.0742  0.2147 -0.0101
17041TIP3    H172538   3.691   4.461  12.391  0.0967  2.5790  0.4005
17041TIP3    H272539   3.821   4.457  12.315 -0.3264 -1.8515 -0.3222
17042TIP3   OH272540   6.398   4.681  12.637 -0.3888 -0.5847  0.1968
17042TIP3    H172541   6.424   4.599  12.594  0.6057 -2.2898  3.7326
17042TIP3    H272542   6.477   4.734  12.637  0.1856 -1.3843  1.4967
17043TIP3   OH272543   0.116   0.172  17.114 -0.2935 -0.2030 -0.6298
17043TIP3    H172544   0.036   0.209  17.150 -0.2500 -1.2805  0.6479
17043TIP3    H272545   0.086   0.109  17.048 -0.6089 -1.8689  1.0485
17044TIP3   OH272546   6.720   3.751  16.311  0.4603 -0.2063  0.9704
17044TIP3    H172547   6.656   3.711  16.254  0.7612 -0.5875  0.8956
17044TIP3    H272548   6.770   3.678  16.348 -1.6886 -0.2467  4.1574
17045TIP3   OH272549   5.726   2.473   5.863  1.0132 -0.1887  0.4212
17045TIP3    H172550   5.661   2.531   5.902  1.7785  0.0037  1.4334
17045TIP3    H272551   5.755   2.519   5.784 -1.1561 -0.9624 -0.9301
17046TIP3   OH272552   2.808   0.162  16.243  0.2430  0.0865 -0.0739
17046TIP3    H172553   2.728   0.130  16.200 -0.4366  2.2883 -0.5588
17046TIP3    H272554   2.787   0.158  16.336  0.3292 -1.1973 -0.0890
17047TIP3   OH272555   2.754   2.882   1.235 -0.2789 -0.1195  0.0329
17047TIP3    H172556   2.795   2.813   1.182 -0.6316  0.2072 -0.6793
17047TIP3    H272557   2.671   2.900   1.191  0.3122  1.5643 -0.4645
17048TIP3   OH272558   2.678   2.839   0.437 -0.9167 -0.5150 -0.7122
17048TIP3    H172559   2.722   2.870   0.516 -3.3668 -1.6356  1.2339
17048TIP3    H272560   2.669   2.745   0.450  0.0616 -1.0210 -3.1651
17049TIP3   OH272561   4.319   5.367  17.039  0.2982  0.0096 -0.3581
17049TIP3    H172562   4.239   5.343  17.085 -0.1866 -0.0301 -1.1938
17049TIP3    H272563   4.328   5.461  17.055  0.0948  0.0110 -0.2473
17050TIP3   OH272564   5.456   6.363  16.973  0.2124 -0.0747  0.1276
17050TIP3    H172565   5.374   6.352  16.925  0.1938  0.6511 -0.0306
17050TIP3    H272566   5.453   6.297  17.042 -2.3238  2.3573  2.6061
17051TIP3   OH272567   0.185   6.235  16.263 -0.4289  0.0392  0.5287
17051TIP3    H172568   0.189   6.303  16.330  0.3901  0.9163 -0.3871
17051TIP3    H272569   0.178   6.282  16.180 -0.4153 -1.0046 -0.0908
17052TIP3   OH272570   0.469   5.726  14.365  0.2644 -0.3554 -0.0608
17052TIP3    H172571   0.402   5.793  14.383  0.3625 -0.5504  1.1642
17052TIP3    H272572   0.525   5.728  14.443  0.6258 -1.4422 -0.2825
17053TIP3   OH272573   3.986   0.642  12.623  0.1979 -0.0022  0.0552
17053TIP3    H172574   3.986   0.683  12.710 -0.9004  0.6399 -0.2190
17053TIP3    H272575   3.957   0.712  12.564  1.7501 -0.1784 -0.9691
17054TIP3   OH272576   4.444   1.073   4.147 -0.2855  0.6492 -0.9884
17054TIP3    H172577   4.403   1.011   4.087  0.2405 -0.2626 -0.4210
17054TIP3    H272578   4.477   1.143   4.091  0.5324 -0.3716 -1.8121
17055TIP3   OH272579   6.052   3.954  15.583 -1.0134 -0.2315  0.4139
17055TIP3    H172580   6.097   3.874  15.559  0.3138  1.0516 -1.6739
17055TIP3    H272581   5.959   3.933  15.575 -0.6721 -1.1709 -1.4970
17056TIP3   OH272582   4.398   2.881   6.547  0.7473  0.3910 -0.7818
17056TIP3    H172583   4.456   2.927   6.607 -0.2151 -0.8786  1.2509
17056TIP3    H272584   4.423   2.789   6.556 -0.8169 -0.0529 -0.7008
17057TIP3   OH272585   2.136   6.599   0.439 -0.2365  0.3388  1.0116
17057TIP3    H172586   2.150   6.505   0.448  1.6077  0.4033 -0.5514
17057TIP3    H272587   2.123   6.612   0.345 -0.0606  1.6923  1.1552
17058TIP3   OH272588   1.287   5.794   1.828 -0.4663  0.6680 -0.6767
17058TIP3    H172589   1.266   5.863   1.766  0.0521  1.2951 -0.1771
17058TIP3    H272590   1.334   5.728   1.777 -1.6760  0.2932 -1.3283
17059TIP3   OH272591   2.847   0.109  14.620  0.3164  0.7669  0.4334
17059TIP3    H172592   2.905   0.054  14.568  0.5634 -0.4469  1.9363
17059TIP3    H272593   2.761   0.096  14.582  0.2184 -1.3600  1.2495
17060TIP3   OH272594   0.088   3.321   0.508  0.0568 -0.1616  0.0418
17060TIP3    H172595   0.079   3.416   0.520  0.6884  0.0279 -0.8533
17060TIP3    H272596   0.135   3.291   0.586 -1.9994 -0.0972  1.3757
17061TIP3   OH272597   1.831   4.157  11.743  0.2297  0.0065 -0.5008
17061TIP3    H172598   1.810   4.226  11.680 -0.2406 -0.3066 -0.6896
17061TIP3    H272599   1.863   4.204  11.820  0.3612  0.4130 -0.8032
17062TIP3   OH272600   0.908   1.200  13.668  0.2717  0.1784 -0.0848
17062TIP3    H172601   0.932   1.120  13.715  1.1351 -0.3191 -1.2910
17062TIP3    H272602   0.992   1.242  13.649 -0.0878  0.6328 -0.6970
17063TIP3   OH272603   2.429   0.954   5.814  0.3830 -0.1567 -0.2572
17063TIP3    H172604   2.472   1.028   5.772 -0.3405  0.1814 -0.4123
17063TIP3    H272605   2.377   0.993   5.885 -1.4740 -0.2697 -1.4861
17064TIP3   OH272606   5.647   4.133  15.652  0.0160  0.3907 -0.1762
17064TIP3    H172607   5.571   4.078  15.633  0.1393  0.0225  0.3688
17064TIP3    H272608   5.616   4.191  15.722  0.9071 -1.3131  1.7139
17065TIP3   OH272609   4.508   4.190   1.730 -0.1104 -0.0509 -0.4653
17065TIP3    H172610   4.474   4.258   1.672 -1.3413  0.8416  1.2395
17065TIP3    H272611   4.493   4.223   1.818 -0.2412 -2.3070  0.4227
17066TIP3   OH272612   5.718   2.127   0.273  0.0812  0.2499  0.1292
17066TIP3    H172613   5.800   2.099   0.231 -1.2439  0.4225 -2.7945
17066TIP3    H272614   5.723   2.222   0.276  0.2221  0.2346  0.5652
17067TIP3   OH272615   4.791   4.279   4.247 -0.8491 -0.4768  0.0861
17067TIP3    H172616   4.746   4.335   4.310 -0.6879 -1.3886  1.0380
17067TIP3    H272617   4.882   4.308   4.251 -0.9127 -0.2547 -0.0456
17068TIP3   OH272618   2.933   2.650   2.492 -0.2420  0.6371 -0.6203
17068TIP3    H172619   2.964   2.698   2.568 -0.4147  1.3652 -1.0070
17068TIP3    H272620   2.838   2.659   2.495 -0.3240 -0.2389 -0.3298
17069TIP3   OH272621   2.970   0.134  14.847  0.2775  0.9585  0.0804
17069TIP3    H172622   2.950   0.111  14.756 -0.8929  1.8585  0.0750
17069TIP3    H272623   3.019   0.060  14.881 -0.0929  0.1868 -1.0123
17070TIP3   OH272624   6.116   6.313   6.905  0.3937 -0.6156  0.1240
17070TIP3    H172625   6.092   6.332   6.814  1.3540 -1.7450 -0.3860
17070TIP3    H272626   6.211   6.313   6.905  0.5130  2.0743  1.7456
17071TIP3   OH272627   0.681   3.300  15.978 -0.0737  0.5431 -0.1640
17071TIP3    H172628   0.699   3.220  16.027  0.3071 -0.1058 -1.3104
17071TIP3    H272629   0.760   3.353  15.988  0.9748 -0.5647 -1.8698
17072TIP3   OH272630   4.575   5.398  16.702 -0.3417 -0.0968  0.3335
17072TIP3    H172631   4.580   5.430  16.612  0.5634  2.2796  1.1469
17072TIP3    H272632   4.512   5.456  16.745  0.4848 -0.0921  1.6091
17073TIP3   OH272633   5.585   5.241  14.562  0.6337  0.2976  0.1256
17073TIP3    H172634   5.658   5.210  14.510 -0.1211  2.0314 -2.1551
17073TIP3    H272635   5.620   5.315  14.612  0.2291  2.2006 -2.1944
17074TIP3   OH272636   3.376   1.445   0.527 -0.3762  0.1196  0.1259
17074TIP3    H172637   3.359   1.533   0.562 -0.9221 -0.2513  0.8366
17074TIP3    H272638   3.453   1.455   0.471  0.2078  0.8467  1.0332
17075TIP3   OH272639   0.838   3.113   0.170  0.4066  0.6824 -0.0897
17075TIP3    H172640   0.843   3.175   0.098  2.5356 -0.6056 -1.1498
17075TIP3    H272641   0.914   3.134   0.225 -0.1491  0.4640  0.7730
17076TIP3   OH272642   5.881   6.380   5.275 -0.4890  0.0624 -0.1119
17076TIP3    H172643   5.941   6.311   5.249 -0.0072 -0.3764  1.9389
17076TIP3    H272644   5.849   6.418   5.193  1.2279 -0.8629 -1.2536
17077TIP3   OH272645   4.403   2.564   2.685 -0.3506 -0.5965  0.1222
17077TIP3    H172646   4.383   2.654   2.712 -1.5162 -0.0188 -2.2862
17077TIP3    H272647   4.425   2.518   2.766  1.4514  2.1074  1.3133
17078TIP3   OH272648   3.125   0.387  11.604 -1.0728  0.0547 -0.2807
17078TIP3    H172649   3.062   0.366  11.535 -0.3126 -0.4016 -0.8562
17078TIP3    H272650   3.183   0.451  11.563  0.6337 -1.7355 -0.8012
17079TIP3   OH272651   3.472   5.316   2.497  0.0068 -0.0031  0.3839
17079TIP3    H172652   3.430   5.341   2.415  0.7061 -1.2982 -0.4018
17079TIP3    H272653   3.544   5.378   2.507  1.2804 -1.1538 -1.1554
17080TIP3   OH272654   5.843   6.018  12.341  0.0688 -0.0249 -0.2995
17080TIP3    H172655   5.872   5.962  12.269  0.5709  1.9472 -1.7331
17080TIP3    H272656   5.897   5.992  12.415  1.4425 -0.3392 -1.3632
17081TIP3   OH272657   2.929   2.895   4.658 -0.0901  0.2843  0.2217
17081TIP3    H172658   2.911   2.829   4.591 -1.2384  0.8467 -0.0458
17081TIP3    H272659   3.013   2.868   4.695 -0.5867 -1.4163  0.2265
17082TIP3   OH272660   5.520   5.261  14.874 -0.4675 -0.5098  0.5821
17082TIP3    H172661   5.533   5.166  14.879 -0.3871 -0.4798  0.9862
17082TIP3    H272662   5.570   5.296  14.948 -1.1439 -0.2221  0.9111
17083TIP3   OH272663   4.769   1.735   4.854 -0.0494 -0.0866  0.4087
17083TIP3    H172664   4.772   1.661   4.915  1.2253 -0.3163  0.0909
17083TIP3    H272665   4.860   1.761   4.843 -0.4783  1.5438  0.5075
17084TIP3   OH272666   1.896   1.722  13.686 -0.1064 -0.3735  0.4339
17084TIP3    H172667   1.893   1.627  13.674 -1.2252 -0.4704  1.2191
17084TIP3    H272668   1.922   1.733  13.778  0.3045  0.0901  0.2643
17085TIP3   OH272669   3.398   3.314   5.061 -0.2285 -0.5544  0.0737
17085TIP3    H172670   3.394   3.383   4.994  1.1948 -0.9135 -0.4119
17085TIP3    H272671   3.472   3.340   5.117 -1.1480 -0.4730  1.2855
17086TIP3   OH272672   6.150   1.358   4.587 -0.2459 -0.3118  0.3860
17086TIP3    H172673   6.109   1.435   4.548  1.0828  0.7248  0.9672
17086TIP3    H272674   6.169   1.383   4.678 -0.2031 -1.4811  0.7189
17087TIP3   OH272675   0.889   5.187   0.041  0.1209 -0.0085 -0.0659
17087TIP3    H172676   0.858   5.099   0.062 -1.1141  0.9205  2.3428
17087TIP3    H272677   0.817   5.227  -0.008 -1.0139  0.8509  2.1575
17088TIP3   OH272678   3.752   3.518  14.330 -0.0931  0.2374  0.6058
17088TIP3    H172679   3.678   3.570  14.298 -1.5808 -0.9811  1.9188
17088TIP3    H272680   3.818   3.526  14.261  0.1926  4.6219  1.1129
17089TIP3   OH272681   2.661   0.616  17.388 -0.2401 -0.2094  0.3569
17089TIP3    H172682   2.724   0.546  17.374 -1.0144 -1.0930  1.1770
17089TIP3    H272683   2.576   0.573  17.383 -0.8357  1.0545 -1.2924
17090TIP3   OH272684   0.570   3.079  14.313 -0.1100  0.7826  0.0121
17090TIP3    H172685   0.508   3.006  14.313 -0.7428  1.2665  1.6676
17090TIP3    H272686   0.531   3.144  14.256  0.3544 -0.0464 -1.3055
17091TIP3   OH272687   5.434   5.612   1.840  0.4414 -0.4989  0.3176
17091TIP3    H172688   5.380   5.553   1.893  0.5994 -1.0774 -0.1599
17091TIP3    H272689   5.524   5.587   1.860  0.5074 -1.9291 -1.5255
17092TIP3   OH272690   1.588   4.118  15.695 -0.1659  0.5007 -0.1476
17092TIP3    H172691   1.559   4.153  15.611  0.7458 -0.6377 -0.9631
17092TIP3    H272692   1.587   4.023  15.684  0.5521  0.3441  0.9159
17093TIP3   OH272693   5.353   5.032   2.952 -0.2919 -0.4167 -0.1472
17093TIP3    H172694   5.268   4.994   2.930  0.0307 -0.4084 -1.4758
17093TIP3    H272695   5.413   4.958   2.954  0.0257 -0.1951 -1.1168
17094TIP3   OH272696   0.144   4.147  16.385  0.6386  0.3038 -0.2459
17094TIP3    H172697   0.186   4.233  16.394  1.3220  0.0595 -1.0484
17094TIP3    H272698   0.115   4.144  16.294 -2.2477  0.9463  0.5508
17095TIP3   OH272699   3.145   5.505  14.328  0.4367 -0.1582  0.2494
17095TIP3    H172700   3.155   5.511  14.233 -1.0404 -1.3060 -0.0323
17095TIP3    H272701   3.180   5.419  14.350  0.4314 -0.0491  0.6779
17096TIP3   OH272702   6.648   3.916   2.751 -0.8504  0.0641  0.4611
17096TIP3    H172703   6.676   3.884   2.665 -1.0807  2.4947 -0.6064
17096TIP3    H272704   6.573   3.973   2.732 -0.9993  0.5396  2.2961
17097TIP3   OH272705   0.870   6.060   0.113  0.1122  0.1041 -0.1659
17097TIP3    H172706   0.958   6.037   0.143 -0.1432  0.1243  0.6135
17097TIP3    H272707   0.858   6.151   0.141 -0.5312 -0.2133  0.6377
17098TIP3   OH272708   5.088   1.612   4.386 -0.3796 -0.0531  0.1453
17098TIP3    H172709   5.043   1.598   4.469  1.0237 -0.0016  0.9490
17098TIP3    H272710   5.035   1.565   4.322 -1.0901 -0.7302  1.1965
17099TIP3   OH272711   6.391   1.506   3.854 -0.0071 -0.3896 -0.0670
17099TIP3    H172712   6.297   1.511   3.835  0.2972 -0.2953 -1.7006
17099TIP3    H272713   6.426   1.451   3.784  1.3959  0.8798 -0.3938
17100TIP3   OH272714   4.909   5.590   1.321 -0.3282 -0.0175 -0.4005
17100TIP3    H172715   4.944   5.629   1.241 -0.3598 -0.9766 -0.8834
17100TIP3    H272716   4.884   5.666   1.375 -1.8212  0.6384 -1.9413
17101TIP3   OH272717   4.277   4.492   2.791  0.7893  0.6361  0.0410
17101TIP3    H172718   4.351   4.508   2.850  0.3907  1.3853  0.3588
17101TIP3    H272719   4.275   4.398   2.780  1.4370  0.5599  0.5010
17102TIP3   OH272720   2.541   0.849  12.197 -0.1612 -0.1574  0.1114
17102TIP3    H172721   2.487   0.774  12.223  1.2747 -0.6941  1.6860
17102TIP3    H272722   2.532   0.912  12.269  0.8922 -0.0397  0.1559
17103TIP3   OH272723   3.283   0.807   5.418  0.1348 -0.2457  0.0453
17103TIP3    H172724   3.257   0.877   5.358  0.0746  0.3225  0.7091
17103TIP3    H272725   3.266   0.726   5.370  0.9628  0.1990 -1.0416
17104TIP3   OH272726   6.480   2.454   3.343 -0.2328  0.0356  0.1982
17104TIP3    H172727   6.390   2.450   3.378 -0.1748 -0.8304  0.2680
17104TIP3    H272728   6.518   2.531   3.385 -0.5646 -0.2823  1.1060
17105TIP3   OH272729   4.200   6.708  10.356  0.5035 -0.3481  0.4487
17105TIP3    H172730   4.291   6.680  10.347 -0.0513 -1.9798 -0.4438
17105TIP3    H272731   4.148   6.630  10.335 -1.1389  1.1529 -1.4368
17106TIP3   OH272732   5.016   0.846  11.631 -0.3424 -0.1712  0.0037
17106TIP3    H172733   5.013   0.866  11.725  0.0012 -2.6596  0.6246
17106TIP3    H272734   4.938   0.888  11.595 -0.3706  1.0002  1.3468
17107TIP3   OH272735   0.235   5.708   3.172 -0.4518  0.4582 -0.1487
17107TIP3    H172736   0.301   5.688   3.106  0.8259  0.1937  1.1562
17107TIP3    H272737   0.152   5.684   3.131  0.4183 -0.9669 -1.1796
17108TIP3   OH272738   0.898   4.738   4.800 -0.7173  0.0470  0.0258
17108TIP3    H172739   0.939   4.757   4.885 -0.4073 -2.0887  0.4189
17108TIP3    H272740   0.957   4.674   4.760 -1.4243  0.2374 -1.3442
17109TIP3   OH272741   2.317   1.459   5.171  0.0902  0.6304  0.9178
17109TIP3    H172742   2.374   1.385   5.189  2.7071  2.5914  1.1613
17109TIP3    H272743   2.265   1.432   5.095  1.0253 -1.3805  0.9516
17110TIP3   OH272744   4.678   2.769   1.726 -0.6182  0.4635  0.3811
17110TIP3    H172745   4.591   2.766   1.687  0.1973 -1.0391 -1.5034
17110TIP3    H272746   4.718   2.848   1.689 -0.8772  0.7084  0.6124
17111TIP3   OH272747   0.075   2.078  15.452  0.3158 -0.1102 -0.1627
17111TIP3    H172748   0.081   2.013  15.522  0.3655  0.0462 -0.0226
17111TIP3    H272749   0.163   2.117  15.448  0.1220  0.3729  0.1624
17112TIP3   OH272750   1.517   4.664  14.105 -0.4028  0.0003 -0.0745
17112TIP3    H172751   1.476   4.665  14.018  1.1824  0.6584 -0.8547
17112TIP3    H272752   1.605   4.628  14.089  0.1539  0.7777  1.1363
17113TIP3   OH272753   6.626   5.627   4.839 -0.1597  0.0018  0.2694
17113TIP3    H172754   6.707   5.580   4.858  0.0102  0.6491  1.2395
17113TIP3    H272755   6.648   5.719   4.856 -0.7396  0.3281 -0.6998
17114TIP3   OH272756   2.936   1.999  14.578 -0.1649 -0.0217 -0.2471
17114TIP3    H172757   2.987   2.036  14.506 -1.0982  2.4410  0.2247
17114TIP3    H272758   3.000   1.989  14.649  0.3773 -0.6171 -0.8071
17115TIP3   OH272759   0.388   0.793   1.562  0.0229 -0.3056  0.2722
17115TIP3    H172760   0.390   0.751   1.476 -0.2703  1.4001 -0.6099
17115TIP3    H272761   0.296   0.787   1.589 -0.6643  2.2100 -1.1853
17116TIP3   OH272762   5.743   5.750   4.873 -0.0887  0.4114 -0.4391
17116TIP3    H172763   5.772   5.728   4.785  1.4521 -3.6457  0.7986
17116TIP3    H272764   5.821   5.787   4.915  0.3396 -1.0295  0.1097
17117TIP3   OH272765   5.926   4.916   5.320  0.1510 -0.2808  0.6248
17117TIP3    H172766   5.944   4.968   5.242 -0.4109  0.4608  0.9796
17117TIP3    H272767   5.838   4.943   5.347 -0.5787 -2.1054  0.2652
17118TIP3   OH272768   5.264   6.546  14.401 -0.3064 -0.3525 -0.2673
17118TIP3    H172769   5.264   6.549  14.305  0.8031  0.8474 -0.2608
17118TIP3    H272770   5.355   6.527  14.424 -0.5463 -0.5279  0.5519
17119TIP3   OH272771   4.598   5.217   2.755  0.3491 -0.3227  0.3525
17119TIP3    H172772   4.546   5.148   2.713 -0.5112  1.7884 -2.3399
17119TIP3    H272773   4.568   5.217   2.846 -0.8926 -2.2907  0.0163
17120TIP3   OH272774   1.576   4.756  16.716  0.0542  0.0145 -0.8690
17120TIP3    H172775   1.519   4.681  16.699  1.3369 -1.0596 -0.6179
17120TIP3    H272776   1.535   4.829  16.670 -1.3346 -0.7852 -0.9540
17121TIP3   OH272777   3.990   6.370  12.022 -0.2834 -0.1196  0.0722
17121TIP3    H172778   4.020   6.413  11.942 -0.8217  1.2769  0.5727
17121TIP3    H272779   4.038   6.415  12.092 -0.2867 -0.8853  0.5758
17122TIP3   OH272780   5.860   4.099  11.816  0.4609  0.1971  0.0841
17122TIP3    H172781   5.925   4.029  11.811  0.7621  0.4386  0.5387
17122TIP3    H272782   5.852   4.131  11.727 -1.9950 -2.4739 -0.7983
17123TIP3   OH272783   1.066   1.512   0.590 -1.2237 -0.1707  0.0298
17123TIP3    H172784   1.045   1.602   0.614 -1.3969  0.6476 -2.8873
17123TIP3    H272785   0.989   1.462   0.617 -1.3894  0.6243  1.1079
17124TIP3   OH272786   1.841   5.664  17.373  0.2942  1.3378 -0.4842
17124TIP3    H172787   1.751   5.691  17.355 -0.1492  1.0948  1.1822
17124TIP3    H272788   1.879   5.737  17.422  0.8206  1.2069 -0.6976
17125TIP3   OH272789   3.456   1.751   4.651 -0.1821  0.7897  0.1026
17125TIP3    H172790   3.444   1.657   4.668  0.5892  0.7455  0.4296
17125TIP3    H272791   3.376   1.791   4.685  0.3232  0.4545  1.8067
17126TIP3   OH272792   5.601   0.261  16.037 -0.1310 -0.2674  0.1768
17126TIP3    H172793   5.600   0.218  15.951 -1.0202  0.1497 -0.0344
17126TIP3    H272794   5.691   0.291  16.047 -0.1233  0.0959 -0.8290
17127TIP3   OH272795   2.064   6.565  12.039  0.0495 -0.0687  0.4072
17127TIP3    H172796   2.160   6.565  12.035  0.0555 -1.4661 -0.0185
17127TIP3    H272797   2.038   6.636  11.980  0.7925 -2.1088 -2.6794
17128TIP3   OH272798   4.234   3.767   5.851 -0.0314 -0.2539  0.3124
17128TIP3    H172799   4.265   3.841   5.903  0.3427  1.4366 -2.1490
17128TIP3    H272800   4.297   3.697   5.868  0.4709  0.4702  1.5364
17129TIP3   OH272801   0.653   6.147   0.301  0.0862 -0.7872 -0.1975
17129TIP3    H172802   0.613   6.095   0.232 -0.9697 -0.1501 -0.0936
17129TIP3    H272803   0.603   6.229   0.301  0.4129 -0.5718  0.9590
17130TIP3   OH272804   3.051   4.115   5.344 -0.0548  0.1129 -0.0810
17130TIP3    H172805   2.956   4.110   5.353 -0.0791 -0.5645 -0.6638
17130TIP3    H272806   3.065   4.167   5.265  0.0902  1.3262  0.7144
17131TIP3   OH272807   4.456   2.854   1.572 -0.2113  0.3192  0.6510
17131TIP3    H172808   4.457   2.909   1.494 -0.3135 -0.0157  0.4123
17131TIP3    H272809   4.416   2.908   1.639  2.8162  1.8564  1.3992
17132TIP3   OH272810   4.844   2.627  12.817 -0.0507 -0.5775  0.7370
17132TIP3    H172811   4.824   2.674  12.736 -0.6886 -0.2900  1.0535
17132TIP3    H272812   4.858   2.537  12.790  1.5648 -0.1577  0.0705
17133TIP3   OH272813   5.546   2.581   0.003  0.2625 -0.8322  0.0437
17133TIP3    H172814   5.615   2.594   0.068 -0.8523 -1.7731  1.4761
17133TIP3    H272815   5.578   2.509  -0.051  0.9731 -0.3889 -0.1417
17134TIP3   OH272816   3.839   5.221  12.974 -0.3420 -0.6826  0.3747
17134TIP3    H172817   3.819   5.192  13.063 -2.7120  1.1440  0.5348
17134TIP3    H272818   3.792   5.160  12.918  0.7969 -1.5666  0.3303
17135TIP3   OH272819   6.171   5.135  17.137 -0.4589 -0.3473 -0.0660
17135TIP3    H172820   6.238   5.067  17.139  0.3644  0.4001 -0.9654
17135TIP3    H272821   6.100   5.101  17.191  0.4422 -1.3760  0.5105
17136TIP3   OH272822   4.659   2.373  15.018  0.0679  0.1359 -0.1880
17136TIP3    H172823   4.628   2.414  15.098  1.1696 -0.7535  0.7224
17136TIP3    H272824   4.754   2.381  15.022  0.1866 -0.7496 -0.9561
17137TIP3   OH272825   1.842   0.423   3.329 -0.8189  0.0387 -0.3270
17137TIP3    H172826   1.888   0.459   3.253 -1.5404  1.7584  0.0013
17137TIP3    H272827   1.750   0.419   3.302 -0.9452 -0.2448  0.1302
17138TIP3   OH272828   6.007   0.853   3.578 -0.3257 -0.9591 -0.2838
17138TIP3    H172829   6.046   0.873   3.663 -0.7718 -2.2802  0.2493
17138TIP3    H272830   6.079   0.864   3.516  0.1726 -0.6413  0.3393
17139TIP3   OH272831   4.427   6.691  14.384 -0.3974 -0.1064  0.1066
17139TIP3    H172832   4.395   6.778  14.410 -1.6415 -0.3321 -0.5629
17139TIP3    H272833   4.369   6.630  14.429 -2.2909 -0.5124 -2.6192
17140TIP3   OH272834   0.746   2.499  14.193 -0.1112 -0.0374  0.6266
17140TIP3    H172835   0.681   2.472  14.258 -2.2813 -1.0709 -1.8153
17140TIP3    H272836   0.775   2.418  14.152  0.0199  0.6802 -0.7539
17141TIP3   OH272837   3.150   5.053   6.437 -0.7181 -0.0877  0.0323
17141TIP3    H172838   3.132   5.005   6.518 -0.1224 -2.9330 -1.4030
17141TIP3    H272839   3.241   5.080   6.445  0.1647 -2.5828 -0.6226
17142TIP3   OH272840   6.205   2.628   1.917  0.0431 -0.4855 -0.3303
17142TIP3    H172841   6.182   2.578   1.996 -0.2155  0.3951  0.1620
17142TIP3    H272842   6.210   2.719   1.947 -0.4841 -0.0834 -1.4080
17143TIP3   OH272843   3.125   1.002  16.469  0.5791 -0.0366 -0.0246
17143TIP3    H172844   3.171   0.982  16.387  1.9704 -0.3802  0.7936
17143TIP3    H272845   3.096   1.092  16.459 -1.3681 -0.7717 -1.7981
17144TIP3   OH272846   0.047   3.302  12.616  0.6496  0.1384  0.3781
17144TIP3    H172847   0.086   3.324  12.531 -0.8189 -0.0026 -0.3554
17144TIP3    H272848   0.121   3.305  12.677  1.9682 -0.8894 -1.0864
17145TIP3   OH272849   0.920   3.093   5.783 -0.2278 -0.0296  0.2912
17145TIP3    H172850   0.941   3.053   5.867 -0.9182  0.3870  0.6770
17145TIP3    H272851   0.896   3.183   5.805 -0.9832 -0.0809 -0.2817
17146TIP3   OH272852   4.695   6.706  12.545 -0.1099  0.1947 -0.1762
17146TIP3    H172853   4.739   6.771  12.600 -0.3068  0.1823 -0.0071
17146TIP3    H272854   4.603   6.730  12.548  0.1174  1.7958 -2.5615
17147TIP3   OH272855   6.352   5.022  13.053  0.2287  0.2549  0.7373
17147TIP3    H172856   6.435   5.067  13.069 -0.0875  0.9233  0.5199
17147TIP3    H272857   6.341   4.965  13.129  1.1773 -0.2943  0.4882
17148TIP3   OH272858   3.069   1.627   1.559  0.2439 -0.3738  0.2519
17148TIP3    H172859   3.108   1.688   1.622 -1.5913  1.5109 -0.3365
17148TIP3    H272860   3.113   1.646   1.477 -1.0435  0.9585 -0.1628
17149TIP3   OH272861   0.762   3.300  11.857 -0.1079 -0.0164 -0.2731
17149TIP3    H172862   0.721   3.375  11.900  0.6328  1.0766 -1.4141
17149TIP3    H272863   0.700   3.276  11.788 -0.1079 -0.1407 -0.2301
17150TIP3   OH272864   1.707   0.514   4.855 -0.2666 -0.0764 -0.7779
17150TIP3    H172865   1.779   0.569   4.825 -0.3959  0.0737 -0.8145
17150TIP3    H272866   1.750   0.435   4.889 -0.0092  0.4471  0.1666
17151TIP3   OH272867   3.169   1.591  14.454 -0.0027 -0.4279  0.1832
17151TIP3    H172868   3.192   1.506  14.490 -0.3331 -0.8160 -0.5024
17151TIP3    H272869   3.084   1.612  14.493  0.2851 -0.1992  0.6972
17152TIP3   OH272870   0.805   3.780   0.004 -0.1180  0.0203  0.3097
17152TIP3    H172871   0.729   3.759   0.059 -2.3772 -0.0873 -2.5768
17152TIP3    H272872   0.832   3.695  -0.032 -0.0029  0.3139 -0.3093
17153TIP3   OH272873   5.965   3.263  11.828  0.4726  0.0133 -0.2463
17153TIP3    H172874   5.979   3.318  11.750  0.2841 -0.7741 -0.8471
17153TIP3    H272875   6.041   3.206  11.831  1.2998  1.1267  1.1050
17154TIP3   OH272876   4.657   1.306  11.551 -0.2107 -0.1246 -0.6323
17154TIP3    H172877   4.698   1.392  11.549 -2.1635  0.8966  0.7217
17154TIP3    H272878   4.721   1.251  11.597 -0.7688  1.7480  2.7293
17155TIP3   OH272879   4.895   0.733   5.951 -0.4231 -0.4179  0.5123
17155TIP3    H172880   4.861   0.746   6.039 -2.4886 -2.1081  0.0370
17155TIP3    H272881   4.862   0.647   5.924  3.7267 -1.9966 -0.3337
17156TIP3   OH272882   5.529   2.183  16.104  0.0156 -0.0208 -0.6000
17156TIP3    H172883   5.470   2.207  16.176  0.8573 -1.6298  0.6871
17156TIP3    H272884   5.616   2.199  16.139  0.4204  0.2742 -1.7131
17157TIP3   OH272885   3.865   1.920   0.982 -0.4264 -0.7944  0.5068
17157TIP3    H172886   3.843   1.899   0.891 -1.2902  0.1916  0.4762
17157TIP3    H272887   3.955   1.952   0.977 -1.8197  3.5826 -0.7698
17158TIP3   OH272888   6.205   5.543   2.264  0.0735  0.2895  0.4776
17158TIP3    H172889   6.188   5.632   2.296 -1.3111  0.8645 -1.6521
17158TIP3    H272890   6.138   5.489   2.306  0.5220  0.3406  1.2823
17159TIP3   OH272891   1.356   3.450  15.869  0.0117 -0.8157 -0.0967
17159TIP3    H172892   1.404   3.427  15.790  0.5463 -0.7817  0.2169
17159TIP3    H272893   1.419   3.498  15.923  0.4799 -3.0172  1.4803
17160TIP3   OH272894   6.370   3.110  17.120 -0.1783  0.2741  0.5717
17160TIP3    H172895   6.462   3.135  17.111 -0.5698  1.1490 -1.7717
17160TIP3    H272896   6.321   3.188  17.091 -1.5931 -0.8589 -0.2217
17161TIP3   OH272897   2.112   3.033   4.992  0.0134 -0.0265 -0.0664
17161TIP3    H172898   2.074   3.045   4.905 -0.2953  1.1200  0.2157
17161TIP3    H272899   2.207   3.036   4.978  0.0413  3.5389 -0.0063
17162TIP3   OH272900   6.373   4.044  13.545 -0.3884 -0.4565  0.6154
17162TIP3    H172901   6.363   3.990  13.624  0.0601 -1.6198 -0.0881
17162TIP3    H272902   6.294   4.099  13.543 -2.2715 -2.9746 -0.0222
17163TIP3   OH272903   0.203   0.052   3.077  0.3894  0.5078  0.4924
17163TIP3    H172904   0.246   0.126   3.119 -0.2087  1.3457 -0.3246
17163TIP3    H272905   0.134   0.025   3.138  0.9431  0.2759  1.0246
17164TIP3   OH272906   1.188   3.329  14.460  0.7039  0.2746 -0.2919
17164TIP3    H172907   1.098   3.336  14.490 -0.1334 -0.1539 -2.5110
17164TIP3    H272908   1.199   3.236  14.438  2.3364 -0.0835  1.6783
17165TIP3   OH272909   2.575   6.373  15.655 -0.1432  0.0950  0.7170
17165TIP3    H172910   2.648   6.317  15.682 -0.4665 -0.4094  0.5543
17165TIP3    H272911   2.617   6.448  15.613  0.3029  0.0862  1.1354
17166TIP3   OH272912   3.603   0.800  13.981  0.3582  0.3163  0.1508
17166TIP3    H172913   3.590   0.893  13.964 -1.0217 -0.1133 -1.2662
17166TIP3    H272914   3.609   0.759  13.895  0.5829 -0.9767  0.7471
17167TIP3   OH272915   3.321   5.129   5.275 -0.0698  0.3486  0.0250
17167TIP3    H172916   3.376   5.052   5.288 -0.4610  0.2964  1.5118
17167TIP3    H272917   3.295   5.125   5.183  1.2481 -0.3901 -0.3406
17168TIP3   OH272918   3.556   4.616  15.916  0.4644  0.5948 -0.1830
17168TIP3    H172919   3.575   4.523  15.903  1.0224  0.7053 -0.2106
17168TIP3    H272920   3.527   4.622  16.007 -0.5554  0.2537 -0.4733
17169TIP3   OH272921   1.332   5.575  12.938 -0.3469 -0.1263 -0.1803
17169TIP3    H172922   1.397   5.584  12.867 -1.3347 -1.8628 -1.3995
17169TIP3    H272923   1.379   5.527  13.007 -0.2495 -1.2908 -1.0161
17170TIP3   OH272924   6.007   3.498   3.359 -0.5480  0.5308 -0.0440
17170TIP3    H172925   5.956   3.442   3.417 -0.6836  1.5483  0.8452
17170TIP3    H272926   6.023   3.444   3.281  0.9383 -1.4598  1.5108
17171TIP3   OH272927   3.454   0.842   4.525  0.2537  0.1401  1.0053
17171TIP3    H172928   3.421   0.853   4.614 -1.7875 -0.2411  0.3477
17171TIP3    H272929   3.433   0.751   4.502  0.7791  0.2193  0.1422
17172TIP3   OH272930   3.677   1.021  11.992  0.0988 -0.3763 -0.0740
17172TIP3    H172931   3.736   1.094  11.969  0.2287 -0.6067 -0.4716
17172TIP3    H272932   3.711   0.947  11.943 -1.4469 -0.1546 -1.5479
17173TIP3   OH272933   2.872   6.237   5.516  0.0540  0.0539 -0.2893
17173TIP3    H172934   2.819   6.268   5.589  0.0793  1.9303 -1.0157
17173TIP3    H272935   2.962   6.255   5.543  0.1799 -0.7943 -0.1124
17174TIP3   OH272936   1.863   1.540   3.044 -0.4051 -0.3183 -0.1529
17174TIP3    H172937   1.784   1.497   3.076  1.0869 -2.3129  1.1302
17174TIP3    H272938   1.896   1.482   2.976 -0.7423  1.2336 -1.7222
17175TIP3   OH272939   6.010   4.493   4.526 -0.3797 -0.1335 -0.1358
17175TIP3    H172940   5.971   4.580   4.522 -0.7630 -0.3357 -1.0460
17175TIP3    H272941   5.945   4.440   4.571 -0.6132 -0.1904 -0.5400
17176TIP3   OH272942   2.947   0.136   1.321 -0.1835 -0.1318  0.3429
17176TIP3    H172943   2.894   0.066   1.282 -1.0829  0.4290  0.5156
17176TIP3    H272944   2.992   0.176   1.247 -0.4584 -0.2449  0.1107
17177TIP3   OH272945   1.942   4.753  13.394 -0.3779  0.1941  0.3060
17177TIP3    H172946   1.853   4.784  13.411 -0.3341 -0.5092  2.0410
17177TIP3    H272947   1.998   4.814  13.441  0.1166  0.8447 -1.0763
17178TIP3   OH272948   4.108   1.384  15.221 -0.0018 -0.3371 -0.0990
17178TIP3    H172949   4.166   1.320  15.261 -0.2737 -0.1334  0.6367
17178TIP3    H272950   4.136   1.389  15.130 -0.4186 -1.9854 -0.3383
17179TIP3   OH272951   4.469   2.936   1.323 -0.2673  0.2282  0.0079
17179TIP3    H172952   4.509   3.012   1.280  1.8750 -1.6844 -1.5687
17179TIP3    H272953   4.424   2.889   1.253 -0.3807 -0.7146  0.6869
17180TIP3   OH272954   4.227   4.310  14.258  0.2400 -0.0425  0.2465
17180TIP3    H172955   4.298   4.357  14.301  2.3007 -3.1547  0.5527
17180TIP3    H272956   4.168   4.286  14.329  0.0845  0.5771  0.3318
17181TIP3   OH272957   2.926   0.189   1.042 -0.8155  0.7851 -0.4409
17181TIP3    H172958   2.990   0.241   0.992  1.5237  0.7379  2.2530
17181TIP3    H272959   2.892   0.126   0.979  1.5856  1.0318 -2.1188
17182TIP3   OH272960   4.992   3.552  17.202  0.6303  0.4096  0.2822
17182TIP3    H172961   5.021   3.580  17.288  0.0882  1.5155  0.1159
17182TIP3    H272962   5.045   3.603  17.141  0.2431  0.4385 -0.0329
17183TIP3   OH272963   5.197   0.474   1.027  0.1479  0.1067  0.6923
17183TIP3    H172964   5.170   0.536   1.095 -0.9817  0.5566 -0.1256
17183TIP3    H272965   5.116   0.452   0.982  0.7759 -0.7486 -0.0523
17184TIP3   OH272966   2.793   6.092   0.636  0.0238 -0.2888  0.5922
17184TIP3    H172967   2.797   6.101   0.731  1.8803  2.3417  0.3892
17184TIP3    H272968   2.884   6.098   0.608 -0.6362  1.5890 -1.4676
17185TIP3   OH272969   2.887   5.243  14.072  0.0133 -0.1115  0.2903
17185TIP3    H172970   2.893   5.150  14.092 -0.7500  0.1138  1.7283
17185TIP3    H272971   2.978   5.274  14.075  0.1936 -0.6535  0.6637
17186TIP3   OH272972   1.226   3.925  11.625 -0.0873  0.0764  0.4761
17186TIP3    H172973   1.190   3.841  11.595  0.6352 -0.4457  1.0294
17186TIP3    H272974   1.207   3.986  11.554 -0.8270 -0.5020  0.1633
17187TIP3   OH272975   3.019   4.753   0.903  0.2957  0.2418  0.0733
17187TIP3    H172976   2.962   4.744   0.827 -0.2294 -0.9187  0.5770
17187TIP3    H272977   2.961   4.746   0.978  0.8084  1.3917  0.5981
17188TIP3   OH272978   2.720   1.135   5.471  0.0396  0.0153 -0.3916
17188TIP3    H172979   2.797   1.179   5.505  1.1007 -1.1039 -1.2620
17188TIP3    H272980   2.728   1.141   5.376 -2.2863  2.0983 -0.5519
17189TIP3   OH272981   4.671   2.792   0.652 -0.4248  0.0535  0.5470
17189TIP3    H172982   4.682   2.883   0.625 -1.0492  0.1477  0.6010
17189TIP3    H272983   4.688   2.793   0.746 -0.1237  0.0595  0.4926
17190TIP3   OH272984   5.924   0.972  15.211 -0.6839 -0.2747  0.2062
17190TIP3    H172985   5.976   1.040  15.168 -0.5085 -0.7381 -0.3336
17190TIP3    H272986   5.966   0.890  15.186 -1.7159 -0.6680 -0.3197
17191TIP3   OH272987   3.470   2.874   0.936  0.6811 -0.0198  0.2437
17191TIP3    H172988   3.405   2.892   0.868  1.4859  2.5585  0.0450
17191TIP3    H272989   3.531   2.812   0.895  0.6871  0.8415 -1.1105
17192TIP3   OH272990   2.792   3.400   2.563  0.4672  0.4588  0.0043
17192TIP3    H172991   2.728   3.459   2.523  1.6475  0.5154 -1.9547
17192TIP3    H272992   2.850   3.459   2.612  1.0493  0.8393 -1.1104
17193TIP3   OH272993   4.573   1.429   2.913  0.3494 -0.4057  0.0739
17193TIP3    H172994   4.542   1.415   2.824  1.6636 -0.3563 -0.4188
17193TIP3    H272995   4.630   1.354   2.931 -0.0609 -0.5173  0.9506
17194TIP3   OH272996   3.700   3.760  15.821  0.6344  0.5945 -0.0256
17194TIP3    H172997   3.774   3.821  15.822  2.6056 -1.6311  0.2540
17194TIP3    H272998   3.628   3.810  15.783  2.1136  3.0491  0.1516
17195TIP3   OH272999   3.040   3.433  14.183 -0.2089  0.1903 -0.1025
17195TIP3    H173000   3.114   3.380  14.214 -0.7400  0.2106  1.2689
17195TIP3    H273001   2.963   3.395  14.226 -0.6954  1.6141  0.3582
17196TIP3   OH273002   0.716   4.332  11.029  0.3396  0.8200  0.7331
17196TIP3    H173003   0.809   4.327  11.052  0.2218 -0.8067  1.0049
17196TIP3    H273004   0.713   4.319  10.935  0.1856 -4.9059  1.1914
17197TIP3   OH273005   0.103   0.166  14.484  0.3564 -0.3820 -0.3179
17197TIP3    H173006   0.193   0.136  14.480  0.2507 -0.6100 -0.9616
17197TIP3    H273007   0.067   0.149  14.397  0.2398  1.4100 -0.6596
17198TIP3   OH273008   6.709   2.196  16.517  0.1278  0.1153 -0.0463
17198TIP3    H173009   6.696   2.139  16.593 -1.1009  1.0904  0.5186
17198TIP3    H273010   6.706   2.137  16.442 -0.3950 -0.6636  0.5675
17199TIP3   OH273011   6.658   1.064   1.698  0.8239  0.1781  0.1600
17199TIP3    H173012   6.657   1.139   1.758 -2.3080  1.1116 -0.8736
17199TIP3    H273013   6.690   1.100   1.615  0.8033 -0.0298  0.0611
17200TIP3   OH273014   6.103   1.137   4.049 -0.0628  0.3064  0.0178
17200TIP3    H173015   6.081   1.229   4.037 -1.0601 -0.0690 -1.2118
17200TIP3    H273016   6.178   1.122   3.991 -0.4261  0.1677 -0.4285
17201TIP3   OH273017   0.762   5.575   2.216  0.5834  0.5500 -0.0007
17201TIP3    H173018   0.782   5.495   2.264  0.5953 -0.9825 -2.3970
17201TIP3    H273019   0.676   5.601   2.248 -0.2033 -1.4290 -0.3526
17202TIP3   OH273020   6.572   1.403   4.414  0.1678  0.4188 -0.2743
17202TIP3    H173021   6.649   1.433   4.366  0.8105 -0.1511  0.3799
17202TIP3    H273022   6.511   1.477   4.410  0.9581  1.0809 -0.3424
17203TIP3   OH273023   5.268   5.444   0.655 -0.5360 -0.1017 -0.4435
17203TIP3    H173024   5.317   5.381   0.602 -0.0464 -0.7694  0.7611
17203TIP3    H273025   5.237   5.393   0.730 -1.2198  0.8090 -0.0903
17204TIP3   OH273026   3.620   1.112   2.989 -0.3024 -0.3286 -1.0088
17204TIP3    H173027   3.548   1.100   3.050 -1.0716 -0.5250 -1.9300
17204TIP3    H273028   3.599   1.192   2.942 -0.4467 -0.8967 -1.9565
17205TIP3   OH273029   5.766   2.087  16.674 -0.5125  0.0710 -0.5689
17205TIP3    H173030   5.855   2.052  16.683 -1.1310 -1.0368  3.2800
17205TIP3    H273031   5.713   2.011  16.649 -0.8540 -0.2582  1.0183
17206TIP3   OH273032   2.328   4.225  14.978 -0.0181  0.2420  0.3860
17206TIP3    H173033   2.405   4.273  15.008  0.7167  0.4656 -1.7049
17206TIP3    H273034   2.254   4.277  15.009  0.6608  0.4021  1.8190
17207TIP3   OH273035   4.460   4.569  15.719  0.4525 -0.5001  0.2125
17207TIP3    H173036   4.494   4.595  15.805  0.9243 -0.4587  0.0181
17207TIP3    H273037   4.400   4.497  15.738 -0.8284  0.6585  0.7572
17208TIP3   OH273038   2.596   4.255   0.683 -0.8323 -0.1750 -0.7529
17208TIP3    H173039   2.509   4.267   0.644 -1.0299  2.1984  0.1817
17208TIP3    H273040   2.588   4.296   0.770  1.8314  2.4140 -1.5558
17209TIP3   OH273041   4.758   1.400  13.150 -0.2533 -0.4763 -0.8058
17209TIP3    H173042   4.680   1.350  13.125  0.6777 -2.7232  0.5469
17209TIP3    H273043   4.783   1.446  13.070 -2.0189 -0.9684 -1.6996
17210TIP3   OH273044   0.129   0.387   1.069  0.2879 -0.1806 -0.1812
17210TIP3    H173045   0.105   0.309   1.019  0.9338 -0.1626 -0.5291
17210TIP3    H273046   0.204   0.360   1.122 -0.0001 -0.0234  0.3129
17211TIP3   OH273047   3.206   1.998   5.458 -0.4652 -0.0159  0.1626
17211TIP3    H173048   3.230   1.912   5.423  2.1327  1.0003 -0.8027
17211TIP3    H273049   3.257   2.006   5.538 -0.0913  0.8896 -0.1548
17212TIP3   OH273050   2.508   4.198   0.010 -0.2818 -0.0034 -0.2897
17212TIP3    H173051   2.497   4.112  -0.029 -0.9064  1.2321 -3.1121
17212TIP3    H273052   2.572   4.242  -0.045  0.0400  1.3646  1.0896
17213TIP3   OH273053   1.251   3.841   5.057  0.0351 -0.2415 -0.5026
17213TIP3    H173054   1.343   3.853   5.082 -0.1353 -1.9726  1.1498
17213TIP3    H273055   1.246   3.875   4.967  1.8482  1.5816  0.0052
17214TIP3   OH273056   1.169   5.625  17.047 -0.3961  0.2898  0.2609
17214TIP3    H173057   1.237   5.589  17.105 -0.1182  0.3119 -0.0448
17214TIP3    H273058   1.088   5.584  17.076 -0.3133  0.5418  0.8769
17215TIP3   OH273059   0.135   6.655  15.549 -0.5396 -0.3941  0.2893
17215TIP3    H173060   0.124   6.731  15.606  0.4249  0.0869 -0.1366
17215TIP3    H273061   0.193   6.686  15.479  0.4250 -1.7055  0.4575
17216TIP3   OH273062   2.219   2.687   3.180  0.6909 -0.1402  0.2299
17216TIP3    H173063   2.187   2.600   3.157 -1.2738  0.7766 -0.7076
17216TIP3    H273064   2.262   2.719   3.101 -2.9048  1.5857 -1.2376
17217TIP3   OH273065   2.036   3.673   1.725  0.5004 -0.1415  0.7196
17217TIP3    H173066   1.959   3.714   1.767 -0.2475 -1.3793  0.6082
17217TIP3    H273067   2.061   3.603   1.785  0.2256 -1.0934 -0.2396
17218TIP3   OH273068   4.043   6.013  11.792 -0.1747 -0.1565  0.1235
17218TIP3    H173069   3.974   6.046  11.735 -1.5944  0.7449  2.2412
17218TIP3    H273070   4.016   5.924  11.815 -0.0989 -0.1677  0.1703
17219TIP3   OH273071   0.225   3.964  12.618 -0.2883  0.2851  0.2408
17219TIP3    H173072   0.234   3.925  12.705 -0.6077 -2.6882 -0.9584
17219TIP3    H273073   0.304   3.936  12.571 -1.7906 -1.3266 -1.4804
17220TIP3   OH273074   1.998   1.718  12.418 -0.2661 -0.3744 -0.3786
17220TIP3    H173075   1.970   1.809  12.423 -0.8782 -0.6354  1.2266
17220TIP3    H273076   2.077   1.721  12.363 -1.8456  0.7162 -2.7348
17221TIP3   OH273077   0.485   0.866   2.602  0.3135  0.4613 -0.5466
17221TIP3    H173078   0.413   0.814   2.638  1.1459  0.3977  1.1225
17221TIP3    H273079   0.488   0.842   2.509 -1.3689 -0.0301 -0.5059
17222TIP3   OH273080   2.068   3.752   1.004  0.0807  0.7301  0.1108
17222TIP3    H173081   2.158   3.784   1.005  0.0244  0.9415 -0.7415
17222TIP3    H273082   2.066   3.683   1.069  1.3798 -0.6501 -1.2305
17223TIP3   OH273083   2.079   2.973   2.679  0.3923 -0.7098  0.8398
17223TIP3    H173084   2.139   2.999   2.749  1.6836  0.0922 -0.5111
17223TIP3    H273085   2.117   2.894   2.642  1.2894  0.4021 -0.7396
17224TIP3   OH273086   5.607   4.559   3.548 -0.1081  0.0359 -0.0269
17224TIP3    H173087   5.602   4.594   3.459  0.3505 -0.1772 -0.1410
17224TIP3    H273088   5.516   4.541   3.573 -0.5680  2.8425  0.6535
17225TIP3   OH273089   5.714   3.383  15.276  0.2578  0.0765  0.4869
17225TIP3    H173090   5.670   3.441  15.214 -1.2189 -0.5262  0.9263
17225TIP3    H273091   5.711   3.296  15.236  1.4620  0.0858  0.3339
17226TIP3   OH273092   2.729   5.680   2.499 -0.0261 -0.0932  0.3166
17226TIP3    H173093   2.674   5.618   2.451 -0.7468  0.0867  0.8925
17226TIP3    H273094   2.805   5.694   2.442 -0.6767 -0.1801 -0.5940
17227TIP3   OH273095   1.577   5.825   4.341  0.7320 -0.2431  0.4822
17227TIP3    H173096   1.631   5.880   4.398  0.0617  0.0437  0.8533
17227TIP3    H273097   1.639   5.784   4.281  1.5710 -1.1372  1.8774
17228TIP3   OH273098   1.624   5.220  11.679  0.1546 -0.0436 -0.1639
17228TIP3    H173099   1.683   5.296  11.674 -0.3314  0.3644  0.2243
17228TIP3    H273100   1.674   5.149  11.639  1.1753  0.1230  0.7618
17229TIP3   OH273101   1.104   3.353   4.055  0.0084  0.5986  0.4652
17229TIP3    H173102   1.167   3.370   3.986  0.4225  0.8206  0.8901
17229TIP3    H273103   1.045   3.428   4.053 -1.4700 -0.5268 -1.2325
17230TIP3   OH273104   4.023   3.942  12.625 -0.1246 -0.5068 -0.5753
17230TIP3    H173105   3.992   4.009  12.566 -0.9198 -0.8151 -0.5211
17230TIP3    H273106   4.117   3.958  12.633 -0.4413  1.1702  0.1715
17231TIP3   OH273107   2.129   1.423  16.650 -0.7842  0.3835  0.3418
17231TIP3    H173108   2.074   1.353  16.615  1.0014 -0.0509 -1.8628
17231TIP3    H273109   2.218   1.400  16.622  0.0197  2.9558  0.4837
17232TIP3   OH273110   3.654   3.247   1.915 -0.7500  0.1173 -0.1210
17232TIP3    H173111   3.619   3.240   2.004  2.0018 -0.7546  0.9762
17232TIP3    H273112   3.690   3.160   1.897  2.0281  1.2521 -0.5592
17233TIP3   OH273113   2.083   2.490   0.477 -0.0249 -0.6017  0.2477
17233TIP3    H173114   2.087   2.585   0.475 -1.6367 -0.4688  1.6352
17233TIP3    H273115   2.079   2.464   0.384  1.1769  0.5949 -0.1733
17234TIP3   OH273116   0.855   6.150   3.973 -0.4282  0.4437 -0.5966
17234TIP3    H173117   0.836   6.178   3.883 -0.9447  1.1716 -0.2738
17234TIP3    H273118   0.798   6.205   4.027  0.2096  0.3333  0.2021
17235TIP3   OH273119   0.598   5.412   1.761 -0.1290 -0.7096 -0.5094
17235TIP3    H173120   0.657   5.408   1.836 -0.6405  1.4158  0.0740
17235TIP3    H273121   0.656   5.408   1.685  0.9374  2.0253  0.0441
17236TIP3   OH273122   4.735   1.905  16.778  0.4134  0.7124  0.7426
17236TIP3    H173123   4.724   2.000  16.768 -1.1086  0.4973  0.0363
17236TIP3    H273124   4.820   1.887  16.739 -0.3677  1.5028 -1.5413
17237TIP3   OH273125   4.501   4.593  15.982 -0.3728 -0.0727 -0.5093
17237TIP3    H173126   4.407   4.579  15.992 -0.5948 -0.1950 -2.4938
17237TIP3    H273127   4.534   4.594  16.072 -2.0785 -1.2227  0.1825
17238TIP3   OH273128   6.584   4.094   1.557  0.3705  0.2995  0.0364
17238TIP3    H173129   6.619   4.162   1.615 -0.0977  0.2635  0.3718
17238TIP3    H273130   6.503   4.131   1.523  0.9142  0.5357 -1.0401
17239TIP3   OH273131   6.544   6.326   3.838  0.4371  0.1187  0.0186
17239TIP3    H173132   6.503   6.309   3.923  0.2829  0.4098  0.0034
17239TIP3    H273133   6.579   6.241   3.811 -0.5371 -0.2295 -0.1692
17240TIP3   OH273134   6.594   5.890  11.305 -1.0237  0.2386  0.1473
17240TIP3    H173135   6.529   5.875  11.373 -1.4457  0.9834 -0.0716
17240TIP3    H273136   6.543   5.894  11.224 -0.7349  0.9894 -0.0071
17241TIP3   OH273137   3.216   6.515  13.781  0.3755 -0.2424  0.2304
17241TIP3    H173138   3.306   6.544  13.798  0.4886 -0.8188  0.6508
17241TIP3    H273139   3.223   6.462  13.702  0.2539  0.4398 -0.2443
17242TIP3   OH273140   0.798   4.870   2.873  0.0800 -0.0996  0.3569
17242TIP3    H173141   0.754   4.862   2.789  0.8749  1.5237 -0.2550
17242TIP3    H273142   0.868   4.805   2.870 -0.6398 -0.8914  0.2898
17243TIP3   OH273143   6.500   2.046   2.686  0.0726  0.1461  0.2005
17243TIP3    H173144   6.591   2.073   2.698 -0.1763  0.1228  2.7591
17243TIP3    H273145   6.452   2.093   2.755 -1.6498 -0.7685 -0.3110
17244TIP3   OH273146   4.377   6.565  12.233 -0.0131  0.2226  0.0196
17244TIP3    H173147   4.463   6.563  12.190  0.1758 -1.4525  0.4251
17244TIP3    H273148   4.315   6.576  12.161  0.5283  1.7573 -0.2492
17245TIP3   OH273149   2.217   0.148  13.196 -0.5500 -0.3887  0.7347
17245TIP3    H173150   2.125   0.176  13.195 -0.1211  1.0884  0.2467
17245TIP3    H273151   2.266   0.225  13.169  1.0745 -0.4073  3.3227
17246TIP3   OH273152   0.790   3.909   5.122 -0.4793  0.3948  0.5144
17246TIP3    H173153   0.858   3.842   5.113  1.4970  2.2731  0.6135
17246TIP3    H273154   0.740   3.903   5.041  1.1585  0.3262 -0.5597
17247TIP3   OH273155   4.392   1.073   3.204 -0.4962  0.2270  0.0995
17247TIP3    H173156   4.387   1.105   3.294 -0.5079  1.4959 -0.3346
17247TIP3    H273157   4.302   1.080   3.172 -0.6416 -0.9448  0.2118
17248TIP3   OH273158   4.785   6.372  11.739 -0.1497  0.2328  0.3498
17248TIP3    H173159   4.852   6.310  11.711 -0.3226 -1.2492  2.9700
17248TIP3    H273160   4.708   6.348  11.687  0.7546  0.7039 -1.2891
17249TIP3   OH273161   5.227   5.080   0.356  0.2578  0.1846 -0.1049
17249TIP3    H173162   5.288   5.145   0.392 -0.8349  1.0081  0.3246
17249TIP3    H273163   5.148   5.130   0.335 -0.1575 -0.7987 -0.9753
17250TIP3   OH273164   1.000   6.376   5.518 -0.2565  0.3744 -0.1061
17250TIP3    H173165   0.952   6.317   5.460 -0.9978 -0.7994  1.6288
17250TIP3    H273166   0.937   6.443   5.542 -0.4983 -0.1555  0.7550
17251TIP3   OH273167   1.886   5.576   2.685 -0.3319  0.3260 -0.0496
17251TIP3    H173168   1.826   5.502   2.668 -1.5737  1.4002 -0.5303
17251TIP3    H273169   1.970   5.547   2.649 -0.5323 -1.2278  0.6306
17252TIP3   OH273170   5.278   3.569   2.198 -0.1489  0.5718  0.4434
17252TIP3    H173171   5.307   3.479   2.190  0.6947  0.7968  0.8400
17252TIP3    H273172   5.202   3.576   2.140  0.0918 -0.2523  0.0258
17253TIP3   OH273173   4.333   6.179  14.285 -0.0082 -0.0506  0.5591
17253TIP3    H173174   4.270   6.237  14.328 -0.4150  0.4300 -0.6480
17253TIP3    H273175   4.325   6.096  14.333 -0.1513  0.5821  1.6536
17254TIP3   OH273176   4.811   5.167  16.584 -0.2544  0.0648  0.1674
17254TIP3    H173177   4.733   5.169  16.640  0.3944 -0.1780  1.0943
17254TIP3    H273178   4.777   5.142  16.498 -0.8546 -3.0716  1.2027
17255TIP3   OH273179   6.441   4.009   2.404 -0.5170 -0.3603  0.1592
17255TIP3    H173180   6.491   3.927   2.396  0.2129  0.0676  0.1962
17255TIP3    H273181   6.489   4.060   2.469 -0.1100  0.6889 -0.9106
17256TIP3   OH273182   0.087   5.188  14.385 -0.2140 -0.0384  0.0443
17256TIP3    H173183   0.023   5.240  14.434 -0.0959  0.5370 -0.4011
17256TIP3    H273184   0.055   5.189  14.295  0.9968  1.2043 -0.4066
17257TIP3   OH273185   4.957   3.311  12.801 -0.4472 -0.2684  0.7831
17257TIP3    H173186   4.899   3.284  12.729 -2.1103  0.5878  1.7286
17257TIP3    H273187   5.043   3.318  12.760 -0.7612 -2.5860 -0.4637
17258TIP3   OH273188   5.952   1.557  14.647 -0.0049 -0.0668 -0.3489
17258TIP3    H173189   5.992   1.482  14.604 -2.8245 -2.4123  0.8317
17258TIP3    H273190   5.923   1.613  14.575  0.8869 -0.7952 -1.2985
17259TIP3   OH273191   0.905   5.013  13.580  0.1384 -0.8866 -0.6958
17259TIP3    H173192   0.862   5.096  13.559  0.0945 -0.5422  0.7148
17259TIP3    H273193   0.979   5.010  13.520  0.5629  0.5205 -0.2857
17260TIP3   OH273194   2.754   0.855   0.838 -0.6270  0.4468 -0.6481
17260TIP3    H173195   2.662   0.882   0.835 -1.0242 -0.5539 -5.1517
17260TIP3    H273196   2.753   0.762   0.816  1.4452 -0.1575  1.3506
17261TIP3   OH273197   2.373   5.203   3.678 -0.3025  0.0324 -0.1002
17261TIP3    H173198   2.400   5.261   3.749 -2.1812  0.7061  0.1250
17261TIP3    H273199   2.349   5.121   3.721 -1.4144  0.4315  0.0717
17262TIP3   OH273200   0.915   2.290  11.563  0.5752 -0.6939 -0.1133
17262TIP3    H173201   0.969   2.365  11.538 -0.4909 -0.2206 -1.0922
17262TIP3    H273202   0.835   2.330  11.599  0.8592 -1.3736  1.3380
17263TIP3   OH273203   2.941   3.149   2.875  0.1457 -0.0666  0.0200
17263TIP3    H173204   2.860   3.195   2.852  0.7761  0.4721 -1.2586
17263TIP3    H273205   3.004   3.219   2.892  0.8071 -0.4445 -0.7892
17264TIP3   OH273206   0.279   4.850  14.265 -0.1397 -0.2020 -0.0455
17264TIP3    H173207   0.364   4.806  14.269  0.0759  0.0820 -1.3208
17264TIP3    H273208   0.290   4.921  14.202 -1.5086 -0.6076 -0.8022
17265TIP3   OH273209   1.835   5.791  13.611 -0.3021 -0.2539 -0.3914
17265TIP3    H173210   1.759   5.831  13.570  0.4040  0.2703 -1.2310
17265TIP3    H273211   1.853   5.713  13.558 -0.1624 -0.2901 -0.2914
17266TIP3   OH273212   3.000   4.683   0.196  0.0871 -0.1034  0.2099
17266TIP3    H173213   2.924   4.704   0.143  0.6278 -0.0150 -0.5453
17266TIP3    H273214   3.010   4.588   0.188 -0.6506 -0.2898  1.2942
17267TIP3   OH273215   6.718   4.752  14.984  0.1308 -0.1768 -0.0468
17267TIP3    H173216   6.657   4.796  15.044 -1.6408 -0.7153 -1.3482
17267TIP3    H273217   6.785   4.817  14.965 -0.0030  0.4348  1.4774
17268TIP3   OH273218   3.927   6.245   1.223  0.1096 -0.2777 -0.0788
17268TIP3    H173219   4.018   6.213   1.228  0.1104 -0.1640  0.8622
17268TIP3    H273220   3.935   6.338   1.203  0.2328 -0.1218  0.6650
17269TIP3   OH273221   4.126   2.035   3.717 -0.0622  0.6740 -0.4959
17269TIP3    H173222   4.072   1.983   3.776 -0.1036  1.6875  0.4136
17269TIP3    H273223   4.117   1.993   3.632 -0.2526 -0.6535  0.1505
17270TIP3   OH273224   5.661   2.693   0.944 -0.5978 -0.0446  0.2743
17270TIP3    H173225   5.616   2.655   1.020 -2.7097 -1.3321 -1.4787
17270TIP3    H273226   5.695   2.617   0.896  2.3595  0.8339  0.7922
17271TIP3   OH273227   3.846   2.917  12.795  0.1644 -0.5210  0.1016
17271TIP3    H173228   3.780   2.978  12.827  0.7842  0.1767  0.0665
17271TIP3    H273229   3.839   2.922  12.699  0.3543 -0.3579  0.0972
17272TIP3   OH273230   2.003   3.637   2.656 -0.6322  0.1385 -0.3985
17272TIP3    H173231   1.939   3.671   2.594  1.1044  0.1460 -2.2735
17272TIP3    H273232   2.088   3.663   2.620  0.4948 -0.4295  1.6519
17273TIP3   OH273233   3.353   4.809  17.135 -0.3598 -0.2609  0.0584
17273TIP3    H173234   3.307   4.861  17.069 -0.6284 -0.6651 -0.0778
17273TIP3    H273235   3.397   4.873  17.191  0.3156  0.0746 -0.8299
17274TIP3   OH273236   3.772   3.836  12.638  0.4441 -0.1856 -0.3558
17274TIP3    H173237   3.792   3.779  12.564  2.8344 -0.8800  0.7059
17274TIP3    H273238   3.853   3.886  12.652  0.2057 -0.3422  1.9926
17275TIP3   OH273239   6.527   1.853  12.122 -0.1845 -0.3847  0.4589
17275TIP3    H173240   6.465   1.880  12.054 -0.1912 -0.6921  0.3432
17275TIP3    H273241   6.587   1.794  12.078  0.3950  0.1668  0.4902
17276TIP3   OH273242   0.101   4.215  17.112  0.3247 -0.3773 -0.1102
17276TIP3    H173243   0.068   4.126  17.105  1.9120 -1.0426  0.5931
17276TIP3    H273244   0.188   4.206  17.150  0.7431  1.4374 -0.5538
17277TIP3   OH273245   1.054   6.193  13.922  0.3291  0.3798  0.1504
17277TIP3    H173246   1.036   6.099  13.927  0.0357  0.3643 -0.8548
17277TIP3    H273247   1.048   6.224  14.012  0.1560 -0.5202  0.4549
17278TIP3   OH273248   2.935   1.063   0.910 -0.1761  0.2559 -0.0996
17278TIP3    H173249   2.869   0.994   0.909 -1.8781  1.7380  1.4826
17278TIP3    H273250   2.916   1.116   0.833 -1.3555  1.0622  0.7053
17279TIP3   OH273251   0.510   3.647  15.038 -0.2673  0.8284 -0.5110
17279TIP3    H173252   0.506   3.628  14.944 -0.0469  0.0666 -0.3725
17279TIP3    H273253   0.539   3.566  15.078 -2.3125  0.4827  0.4320
17280TIP3   OH273254   3.863   5.384   2.979  0.4504 -0.1313 -0.2316
17280TIP3    H173255   3.861   5.380   2.883  2.7566  1.7331 -0.4566
17280TIP3    H273256   3.924   5.455   2.999 -0.3947 -0.0811  2.6522
17281TIP3   OH273257   3.528   1.522  15.354 -0.1144 -0.1851  0.2461
17281TIP3    H173258   3.454   1.470  15.384 -0.8643  0.5603 -0.2337
17281TIP3    H273259   3.489   1.608  15.333  0.8707  0.1923 -0.0883
17282TIP3   OH273260   1.916   3.113   1.025  0.3828  0.1717 -0.0271
17282TIP3    H173261   1.952   3.070   1.103  0.2274  0.3288  0.1307
17282TIP3    H273262   1.931   3.050   0.954  2.3093  0.8182 -0.2584
17283TIP3   OH273263   5.796   2.510  15.404 -0.3479 -0.5486  0.0789
17283TIP3    H173264   5.758   2.577  15.460 -1.7806 -2.0964  1.0308
17283TIP3    H273265   5.727   2.488  15.342  0.4105 -0.5594 -0.7911
17284TIP3   OH273266   1.052   1.005  15.349 -0.1329 -0.2095  0.0485
17284TIP3    H173267   1.128   1.060  15.331 -0.8847  0.0591 -3.0151
17284TIP3    H273268   1.026   1.028  15.438  2.2728  0.9969  0.5265
17285TIP3   OH273269   1.741   3.310   1.301  0.2529  0.2860 -0.1383
17285TIP3    H173270   1.722   3.306   1.207 -1.3937  1.4879  0.1197
17285TIP3    H273271   1.682   3.245   1.340 -0.3723  1.0697  0.2397
17286TIP3   OH273272   4.925   6.062  13.265  0.4678 -0.3336 -0.5398
17286TIP3    H173273   4.965   6.120  13.201  1.0330  0.8685  0.8433
17286TIP3    H273274   4.878   6.120  13.325  0.7250 -1.3118  0.6679
17287TIP3   OH273275   0.632   2.780  15.703  0.1142 -0.0913 -0.3146
17287TIP3    H173276   0.573   2.796  15.629  0.8034 -2.7157 -1.5686
17287TIP3    H273277   0.578   2.794  15.781 -1.2751  0.5314 -1.3400
17288TIP3   OH273278   5.548   5.719  14.271  0.2318 -0.1965  0.3543
17288TIP3    H173279   5.474   5.675  14.228  0.4353  0.0481 -0.2533
17288TIP3    H273280   5.550   5.681  14.359 -0.1465 -0.7616  0.1278
17289TIP3   OH273281   5.843   1.920   4.063  0.2742  0.2340 -0.2072
17289TIP3    H173282   5.871   2.003   4.023  0.0943  0.0746 -0.6744
17289TIP3    H273283   5.845   1.937   4.157  0.7640  0.6002 -0.2781
17290TIP3   OH273284   5.607   4.813   4.324  0.0915  0.0782 -0.0634
17290TIP3    H173285   5.529   4.763   4.302 -0.3417 -0.2215  2.0330
17290TIP3    H273286   5.577   4.904   4.329 -0.1008 -0.0204  0.6083
17291TIP3   OH273287   3.712   3.844  13.652  0.1255 -0.9217  0.2320
17291TIP3    H173288   3.722   3.936  13.626 -0.6456 -0.6393  0.8880
17291TIP3    H273289   3.620   3.836  13.676  0.5935 -1.3889  2.0126
17292TIP3   OH273290   3.433   0.900  15.395 -0.1605  0.8367  0.3852
17292TIP3    H173291   3.341   0.927  15.388  0.1368  1.6994 -0.3355
17292TIP3    H273292   3.431   0.806  15.377 -1.1536  0.3797  2.5075
17293TIP3   OH273293   5.525   4.029  12.290  0.3497  0.0550 -0.1839
17293TIP3    H173294   5.475   3.951  12.266 -0.4292  0.6881 -0.6519
17293TIP3    H273295   5.487   4.100  12.238  1.6768  0.5758 -0.5029
17294TIP3   OH273296   1.533   3.291  16.093  0.5754 -0.0382  0.3228
17294TIP3    H173297   1.482   3.324  16.167 -0.7448 -0.6321 -0.2735
17294TIP3    H273298   1.598   3.359  16.077 -2.7948  3.1538 -1.6643
17295TIP3   OH273299   6.548   3.248   0.777  0.0675 -0.5138 -0.0500
17295TIP3    H173300   6.533   3.334   0.737 -0.4996 -1.1925 -1.3554
17295TIP3    H273301   6.576   3.268   0.867  0.4652  1.0368 -0.4885
17296TIP3   OH273302   1.641   0.053  14.430  0.2939 -0.2991 -0.1325
17296TIP3    H173303   1.645   0.134  14.379  2.3566 -1.3445 -1.7808
17296TIP3    H273304   1.597   0.078  14.510 -0.0571  2.2263 -1.0128
17297TIP3   OH273305   4.019   1.994   0.514  0.0041  0.0892 -0.2592
17297TIP3    H173306   4.075   1.966   0.442 -0.3421 -2.2644  0.2975
17297TIP3    H273307   4.078   2.041   0.573  0.7999 -0.0579 -0.9131
17298TIP3   OH273308   0.695   2.519  12.061 -0.6455  0.3375  0.5012
17298TIP3    H173309   0.727   2.557  11.980  0.3047 -1.2045  0.1160
17298TIP3    H273310   0.773   2.483  12.104 -1.3779 -0.4610  1.2144
17299TIP3   OH273311   0.127   2.651  14.828 -0.1037 -0.0646  0.2210
17299TIP3    H173312   0.080   2.661  14.911  1.4589 -0.1455  1.1535
17299TIP3    H273313   0.184   2.576  14.841  0.3249  0.0527 -0.8608
17300TIP3   OH273314   3.798   3.841  11.578 -0.1158 -0.1322 -0.4187
17300TIP3    H173315   3.858   3.820  11.506  1.0680 -0.5252  0.6556
17300TIP3    H273316   3.791   3.936  11.577  0.3578 -0.0994 -0.6856
17301TIP3   OH273317   5.803   4.114  17.475 -0.0413 -0.4847  0.5630
17301TIP3    H173318   5.796   4.018  17.476  2.1977 -0.7114  1.8867
17301TIP3    H273319   5.819   4.138  17.566  0.1901  1.0817  0.1401
17302TIP3   OH273320   0.275   1.959   4.288 -0.5602 -0.4806 -0.0909
17302TIP3    H173321   0.290   1.969   4.382 -0.4094 -0.7944 -0.0801
17302TIP3    H273322   0.277   2.049   4.254 -0.3252 -0.3882  0.1616
17303TIP3   OH273323   3.650   1.195   4.514 -0.2087  0.1904  0.7394
17303TIP3    H173324   3.677   1.269   4.460  0.6475 -1.5649 -1.3653
17303TIP3    H273325   3.570   1.225   4.558 -0.6016  1.9027 -1.0096
17304TIP3   OH273326   0.261   1.926  14.107  0.7408  0.3503  0.2346
17304TIP3    H173327   0.275   1.836  14.137 -0.2235  0.1124  0.0207
17304TIP3    H273328   0.218   1.969  14.182  2.4909  1.0616  0.8887
17305TIP3   OH273329   2.804   1.588   1.411  0.3415  0.4089  0.8154
17305TIP3    H173330   2.777   1.673   1.446 -3.1461 -0.1549 -0.1538
17305TIP3    H273331   2.727   1.556   1.364  2.5917 -1.8680 -1.6256
17306TIP3   OH273332   5.241   2.106   1.107  0.5587  0.3598  0.1721
17306TIP3    H173333   5.241   2.132   1.014  2.1492  0.3814  0.1582
17306TIP3    H273334   5.272   2.184   1.153  2.6384 -0.5517  0.4049
17307TIP3   OH273335   5.660   0.938   4.779 -0.2470  0.7006 -0.5884
17307TIP3    H173336   5.702   0.969   4.859 -0.4718 -1.2670  0.3302
17307TIP3    H273337   5.733   0.911   4.723 -0.0922 -2.6872  0.9936
17308TIP3   OH273338   0.423   4.599  12.123 -0.0450 -0.1834 -0.3727
17308TIP3    H173339   0.497   4.568  12.176  0.2368  0.0585 -0.6134
17308TIP3    H273340   0.345   4.565  12.166  0.2010 -0.2717  0.0023
17309TIP3   OH273341   2.877   2.857  12.407  1.0453 -0.4779 -0.4028
17309TIP3    H173342   2.803   2.916  12.400  0.5465 -0.7910  1.4906
17309TIP3    H273343   2.841   2.770  12.390  1.9192 -0.2932 -3.9338
17310TIP3   OH273344   2.650   3.219  12.945  0.4467  0.1345  0.1511
17310TIP3    H173345   2.623   3.282  13.011  0.5198  0.3951 -0.0656
17310TIP3    H273346   2.698   3.152  12.994 -0.2925 -0.1573  0.4900
17311TIP3   OH273347   6.052   5.466   4.389 -0.0457 -0.3769 -0.0637
17311TIP3    H173348   6.078   5.435   4.476  0.1073 -1.3138 -0.4377
17311TIP3    H273349   6.123   5.525   4.362  0.0665 -0.3432  0.3009
17312TIP3   OH273350   2.530   3.838  16.412 -0.9314 -0.1073  0.2493
17312TIP3    H173351   2.587   3.805  16.482 -0.1735  1.5730  0.4581
17312TIP3    H273352   2.563   3.796  16.333  0.0518  0.1568  0.4991
17313TIP3   OH273353   4.820   6.485  12.713  0.0111 -0.3794 -0.0998
17313TIP3    H173354   4.758   6.415  12.731 -0.1066 -0.7716 -1.8553
17313TIP3    H273355   4.781   6.534  12.641  0.4721  1.0283  0.5772
17314TIP3   OH273356   5.178   3.295   3.634  0.5703 -0.3222 -0.0506
17314TIP3    H173357   5.211   3.210   3.608 -0.3153 -0.2512 -1.5631
17314TIP3    H273358   5.109   3.314   3.570 -0.1645  0.9261  1.0605
17315TIP3   OH273359   5.609   0.679   2.897 -0.4926 -0.0464  0.5138
17315TIP3    H173360   5.594   0.706   2.806 -0.8850  0.7029  0.7914
17315TIP3    H273361   5.537   0.619   2.917 -0.1632 -0.5579  0.2025
17316TIP3   OH273362   4.525   2.454   4.154  0.4403 -0.5766 -0.0590
17316TIP3    H173363   4.540   2.422   4.065  3.3683  0.5463 -0.0742
17316TIP3    H273364   4.596   2.415   4.205 -0.8829 -0.7869  1.7228
17317TIP3   OH273365   5.273   5.222   5.236  0.4924  0.0313 -0.7243
17317TIP3    H173366   5.196   5.256   5.190 -0.3636 -1.8989 -0.7978
17317TIP3    H273367   5.279   5.276   5.315  0.3599  1.5892 -1.7403
17318TIP3   OH273368   1.240   5.982  17.057 -0.2255 -0.7777 -0.1946
17318TIP3    H173369   1.262   5.895  17.091 -1.8337 -1.3259 -0.4559
17318TIP3    H273370   1.245   5.972  16.962  2.0706  0.1490 -0.2428
17319TIP3   OH273371   5.840   6.264   0.941  0.7690 -0.0385 -0.5170
17319TIP3    H173372   5.793   6.307   1.013 -2.3424 -0.7896 -1.9733
17319TIP3    H273373   5.845   6.172   0.967 -0.1085 -0.2606 -1.1185
17320TIP3   OH273374   1.380   1.870  11.439 -0.2527 -0.6883 -0.1382
17320TIP3    H173375   1.412   1.791  11.395 -0.0539 -0.8571  0.3019
17320TIP3    H273376   1.318   1.837  11.504 -0.5380 -0.4423 -0.2833
17321TIP3   OH273377   1.151   0.077   2.652 -0.4815 -0.0758  0.0469
17321TIP3    H173378   1.118   0.119   2.732 -0.1200 -0.6776  0.5141
17321TIP3    H273379   1.233   0.123   2.633 -0.5624  0.0602  0.0240
17322TIP3   OH273380   2.102   6.557   5.906  0.3469  0.6018 -0.1496
17322TIP3    H173381   2.153   6.636   5.926 -0.4353  0.7082  1.5929
17322TIP3    H273382   2.029   6.559   5.969  1.3794 -2.5256  1.3510
17323TIP3   OH273383   4.241   5.087  16.308 -0.0675  0.5965  0.1183
17323TIP3    H173384   4.155   5.125  16.328 -0.1343 -0.1714  1.3140
17323TIP3    H273385   4.254   5.109  16.215 -1.8799  0.1019 -0.3083
17324TIP3   OH273386   4.889   3.037  13.622  0.5716 -0.5489 -0.5393
17324TIP3    H173387   4.805   3.015  13.583  0.0302 -1.7926  1.1913
17324TIP3    H273388   4.927   2.953  13.647  1.5173  0.0961  0.2924
17325TIP3   OH273389   6.092   3.422  15.012 -0.8705 -0.0552 -0.3267
17325TIP3    H173390   6.009   3.378  15.029 -0.2926 -0.8991  0.4708
17325TIP3    H273391   6.089   3.502  15.063 -0.4622 -1.0030  1.2502
17326TIP3   OH273392   1.509   1.612  14.112 -0.4293  0.4565  0.3678
17326TIP3    H173393   1.574   1.571  14.169  1.2456  1.9310 -0.3800
17326TIP3    H273394   1.508   1.704  14.139 -3.6567  0.1854  1.6246
17327TIP3   OH273395   0.657   4.867   4.766 -0.4817 -0.0655 -0.1651
17327TIP3    H173396   0.693   4.955   4.754 -0.2719 -0.1833 -0.3914
17327TIP3    H273397   0.733   4.812   4.782 -0.6209 -0.1947  0.0507
17328TIP3   OH273398   0.199   0.144  13.330  0.3821 -0.0833 -0.6500
17328TIP3    H173399   0.141   0.136  13.254 -0.9735  0.8052  0.2282
17328TIP3    H273400   0.165   0.079  13.392 -0.5878  1.3685  0.3984
17329TIP3   OH273401   4.348   0.389  17.395 -0.1271 -0.3680 -0.5863
17329TIP3    H173402   4.443   0.403  17.400 -0.4253  1.7857 -0.2184
17329TIP3    H273403   4.310   0.455  17.453 -1.8273 -2.3028  0.6487
17330TIP3   OH273404   4.712   5.084   5.800  0.2075 -0.0297  0.0518
17330TIP3    H173405   4.654   5.038   5.861  0.2612  2.3914  2.0543
17330TIP3    H273406   4.778   5.019   5.776  0.4943 -0.9445  3.0178
17331TIP3   OH273407   0.170   5.786   0.770  0.1771 -0.0417  0.3016
17331TIP3    H173408   0.221   5.862   0.798 -1.1838  1.0839 -0.1828
17331TIP3    H273409   0.145   5.806   0.680 -0.3030 -1.0118  0.2092
17332TIP3   OH273410   1.211   2.339  14.338  0.0070  0.0126 -0.0644
17332TIP3    H173411   1.291   2.298  14.372 -1.9324 -4.1964  0.0518
17332TIP3    H273412   1.224   2.342  14.244  0.3247 -0.6032 -0.0466
17333TIP3   OH273413   0.075   2.672   1.813  0.3157 -0.1962  0.4422
17333TIP3    H173414   0.062   2.587   1.856 -0.1240 -0.4869 -0.2523
17333TIP3    H273415   0.170   2.680   1.806  0.3635 -1.8663 -1.8460
17334TIP3   OH273416   4.292   5.356  11.924  0.0184 -0.4217  0.3364
17334TIP3    H173417   4.343   5.414  11.867  0.1517 -0.9370 -0.0727
17334TIP3    H273418   4.210   5.403  11.939 -0.2586 -0.5345 -0.7622
17335TIP3   OH273419   0.830   4.291   0.602 -0.6127  0.6352 -0.1543
17335TIP3    H173420   0.912   4.320   0.563 -0.5231  2.3226  1.1519
17335TIP3    H273421   0.762   4.332   0.547 -0.5887 -0.3776 -0.9562
17336TIP3   OH273422   5.184   1.484  13.893 -0.2390  0.1346  0.5419
17336TIP3    H173423   5.168   1.519  13.805 -0.3416 -0.9618  0.1048
17336TIP3    H273424   5.190   1.390  13.880 -0.2592 -0.0426  1.7213
17337TIP3   OH273425   4.479   5.016   0.352 -0.0083  0.4042 -0.4289
17337TIP3    H173426   4.491   5.106   0.386 -1.2193  1.0558 -1.6622
17337TIP3    H273427   4.537   4.963   0.407  1.8025  2.1242 -0.5353
17338TIP3   OH273428   3.258   3.837   1.436 -0.1335 -0.0141 -0.7356
17338TIP3    H173429   3.207   3.766   1.476  0.5042  0.2759  0.6438
17338TIP3    H273430   3.280   3.804   1.348 -1.8090 -0.5580 -0.9874
17339TIP3   OH273431   2.449   3.248   3.339  0.6718 -0.4138 -0.1505
17339TIP3    H173432   2.398   3.174   3.370 -0.3691  0.7386  1.0415
17339TIP3    H273433   2.440   3.247   3.244 -1.0195 -0.6550 -0.0150
17340TIP3   OH273434   6.073   6.020  15.465 -0.3207 -0.3257  0.0411
17340TIP3    H173435   6.121   6.103  15.465 -0.7737 -0.0506  0.8356
17340TIP3    H273436   6.126   5.962  15.411  0.6360  0.1252  0.4639
17341TIP3   OH273437   6.055   3.150  17.061  0.1933 -0.3739  0.3397
17341TIP3    H173438   6.102   3.142  16.978  0.4624 -0.5326  0.5042
17341TIP3    H273439   5.965   3.125  17.041  0.2996 -0.5977  0.1355
17342TIP3   OH273440   5.825   1.274  12.024 -0.0416  0.6207  0.4000
17342TIP3    H173441   5.914   1.297  12.052 -0.1197 -1.0414  2.2089
17342TIP3    H273442   5.768   1.308  12.093 -0.5505 -0.6623  0.6441
17343TIP3   OH273443   3.130   2.655  13.544  0.2835 -0.1614  0.1216
17343TIP3    H173444   3.100   2.579  13.594 -1.1253  1.2384  1.4876
17343TIP3    H273445   3.090   2.730  13.587  2.0528  1.4415 -0.8582
17344TIP3   OH273446   1.943   4.082  16.786 -0.0474  0.0860 -0.6067
17344TIP3    H173447   1.859   4.053  16.820 -0.8777  1.0923 -1.7164
17344TIP3    H273448   1.925   4.166  16.743  1.4285  0.1208 -1.2532
17345TIP3   OH273449   1.587   3.294   3.038  0.1377  0.7589  0.8410
17345TIP3    H173450   1.547   3.234   3.100 -3.4990  1.3075 -0.7095
17345TIP3    H273451   1.631   3.359   3.092 -1.6619  0.4329  2.8440
17346TIP3   OH273452   2.443   2.862   0.267  0.0046  0.0850  0.0029
17346TIP3    H173453   2.489   2.940   0.234 -0.0524 -0.5077 -1.5145
17346TIP3    H273454   2.502   2.827   0.333 -0.2005  1.6884  1.1056
17347TIP3   OH273455   3.612   6.288  11.401  0.0901  0.1720  0.5671
17347TIP3    H173456   3.582   6.200  11.380 -0.8173  0.6732 -0.2904
17347TIP3    H273457   3.542   6.346  11.372  1.3833  1.3104 -0.4363
17348TIP3   OH273458   5.140   0.897   1.543 -0.1094 -0.3337  0.7068
17348TIP3    H173459   5.052   0.917   1.576 -0.1207  0.9412 -0.0629
17348TIP3    H273460   5.127   0.820   1.488 -0.8026  0.0078  0.3739
17349TIP3   OH273461   4.550   6.070   4.585  0.0442  0.3281  0.1865
17349TIP3    H173462   4.579   6.020   4.661 -1.2595  1.6451  1.6204
17349TIP3    H273463   4.610   6.144   4.581  0.0843  0.2844 -0.0517
17350TIP3   OH273464   4.457   4.722  12.682  0.0999 -0.5023 -0.4277
17350TIP3    H173465   4.472   4.680  12.597 -1.3571  1.6204 -1.8488
17350TIP3    H273466   4.381   4.675  12.718 -0.3353 -0.3502 -1.1161
17351TIP3   OH273467   5.116   6.722   2.514 -0.5279 -0.4701  0.1969
17351TIP3    H173468   5.065   6.789   2.560  0.0146  0.7730 -0.9302
17351TIP3    H273469   5.205   6.735   2.545 -0.4416 -0.7796  0.0832
17352TIP3   OH273470   1.149   6.473   1.388  0.7455  0.1354  0.5645
17352TIP3    H173471   1.113   6.533   1.454 -1.2007  1.3920 -1.4747
17352TIP3    H273472   1.102   6.391   1.402 -0.0126  0.5416  0.4401
17353TIP3   OH273473   0.099   4.932   2.492 -0.0137  0.3452  0.0403
17353TIP3    H173474   0.040   4.878   2.440  1.6299 -0.1711 -1.3847
17353TIP3    H273475   0.178   4.879   2.501  0.7946  1.5982  0.6123
17354TIP3   OH273476   3.308   0.142   4.532  0.0426  0.8041 -0.1117
17354TIP3    H173477   3.252   0.089   4.588 -0.2491 -2.4186 -3.1635
17354TIP3    H273478   3.397   0.124   4.563 -0.1186 -0.8291 -0.5261
17355TIP3   OH273479   0.190   0.146   0.547  0.0774 -0.0676 -0.0279
17355TIP3    H173480   0.214   0.237   0.561  0.5859 -0.2174  0.0949
17355TIP3    H273481   0.107   0.135   0.594  0.0921  0.2938  0.0809
17356TIP3   OH273482   1.596   1.437   1.662 -0.3606 -0.7213  0.3847
17356TIP3    H173483   1.686   1.403   1.665 -0.7380 -1.7409  0.2464
17356TIP3    H273484   1.547   1.382   1.722 -1.2128 -1.1322 -0.6607
17357TIP3   OH273485   6.261   6.050  15.709 -0.2238  0.4039  0.2414
17357TIP3    H173486   6.352   6.049  15.737 -0.3160 -0.6906  0.5640
17357TIP3    H273487   6.257   6.116  15.640  0.5996  1.1663  0.9156
17358TIP3   OH273488   2.328   2.618   0.265 -0.1160 -0.1952 -0.3268
17358TIP3    H173489   2.393   2.547   0.262 -1.3501 -1.3361 -1.0173
17358TIP3    H273490   2.380   2.697   0.254  1.1180 -1.1178 -1.6246
17359TIP3   OH273491   5.224   0.086   6.170  0.1429  0.2225  0.2825
17359TIP3    H173492   5.158   0.056   6.233  0.1244 -0.0722  0.1260
17359TIP3    H273493   5.176   0.148   6.114 -0.1329 -0.3478 -0.1275
17360TIP3   OH273494   5.413   0.385   1.498 -0.1714 -0.0811 -0.0436
17360TIP3    H173495   5.373   0.363   1.582 -0.3165 -0.1542 -0.1307
17360TIP3    H273496   5.504   0.355   1.505 -0.8380 -2.4948 -0.8527
17361TIP3   OH273497   6.386   3.286   6.456  0.0154  0.2260 -0.4723
17361TIP3    H173498   6.327   3.324   6.390 -1.7306  0.3583  1.0984
17361TIP3    H273499   6.350   3.316   6.540  1.1162 -1.4228  0.6218
17362TIP3   OH273500   4.047   5.713  13.905  0.2813 -0.4493 -0.1545
17362TIP3    H173501   4.093   5.668  13.976 -0.5323  1.1012  1.4208
17362TIP3    H273502   4.058   5.806  13.924 -0.7261 -0.0103 -1.5690
17363TIP3   OH273503   5.037   6.591   1.759  0.1968 -0.1559 -0.5189
17363TIP3    H173504   5.001   6.558   1.841  1.4779 -0.8259 -0.1960
17363TIP3    H273505   5.076   6.514   1.718 -1.1125 -0.0047 -2.1654
17364TIP3   OH273506   4.522   5.049  16.236 -0.0887 -0.0585  0.2229
17364TIP3    H173507   4.553   5.134  16.268  1.5263 -0.8691  0.9570
17364TIP3    H273508   4.436   5.037  16.277  0.1290  0.7720  0.9562
17365TIP3   OH273509   5.811   0.098  17.046  0.8231  0.2550  0.4139
17365TIP3    H173510   5.824   0.041  17.122  0.0268  1.0721  1.1918
17365TIP3    H273511   5.728   0.142  17.064 -0.1581 -0.6153 -1.6426
17366TIP3   OH273512   3.061   2.912  13.026 -0.1462 -0.0304  0.2302
17366TIP3    H173513   3.130   2.864  13.071  0.0155 -1.1625 -1.1819
17366TIP3    H273514   3.105   2.988  12.988 -0.2508  0.8372  1.7539
17367TIP3   OH273515   5.140   4.624   6.532  0.0022  0.1299 -0.0448
17367TIP3    H173516   5.089   4.680   6.474 -2.6083  1.0639  2.8655
17367TIP3    H273517   5.085   4.547   6.546  1.5600 -1.1232 -0.4437
17368TIP3   OH273518   0.866   1.673  16.858  0.0624 -0.7208 -0.1155
17368TIP3    H173519   0.903   1.640  16.775  1.1443 -1.6805  0.7130
17368TIP3    H273520   0.777   1.700  16.836  1.0514  1.2611 -2.1220
17369TIP3   OH273521   1.059   0.468  15.889  0.5040 -0.6032 -0.8067
17369TIP3    H173522   0.994   0.526  15.850 -0.6536 -0.0850  1.6959
17369TIP3    H273523   1.017   0.382  15.889  0.1182 -0.4217  0.0975
17370TIP3   OH273524   6.660   5.240   0.505  0.3068  0.6466 -0.2092
17370TIP3    H173525   6.636   5.183   0.578  1.1533  2.2400  1.4068
17370TIP3    H273526   6.747   5.210   0.479  0.9772  1.4696  0.9856
17371TIP3   OH273527   2.120   1.047  15.217 -0.2202  0.6701 -0.0510
17371TIP3    H173528   2.068   1.059  15.138  0.3096 -0.6074 -0.6289
17371TIP3    H273529   2.133   1.136  15.251 -1.4828  1.1302 -0.7150
17372TIP3   OH273530   5.564   3.808   5.676  0.1507  0.0312  0.0694
17372TIP3    H173531   5.595   3.898   5.674  0.6399 -0.1272  0.3392
17372TIP3    H273532   5.590   3.776   5.762 -1.0746 -0.0032  0.4469
17373TIP3   OH273533   4.659   5.916  12.686 -0.1089 -0.4050  0.3152
17373TIP3    H173534   4.580   5.884  12.730 -0.1767 -0.0340  0.4614
17373TIP3    H273535   4.628   5.986  12.629 -0.0405 -0.9660 -0.4221
17374TIP3   OH273536   2.046   1.408  14.907  0.0809 -0.2665  0.2113
17374TIP3    H173537   2.130   1.427  14.947  0.1184 -1.9197  1.0020
17374TIP3    H273538   2.067   1.349  14.834 -0.3144  0.0620 -0.1782
17375TIP3   OH273539   5.441   2.841  17.423 -0.1233 -0.1862 -0.6221
17375TIP3    H173540   5.449   2.754  17.461  1.5973  0.9604  1.8870
17375TIP3    H273541   5.352   2.869  17.443 -0.5189 -1.1271 -1.0070
17376TIP3   OH273542   5.687   5.931   1.753 -0.4952  0.5969  0.7050
17376TIP3    H173543   5.655   5.848   1.786  0.3837  0.1711  0.5039
17376TIP3    H273544   5.712   5.913   1.662  0.1352  0.9567  0.7983
17377TIP3   OH273545   2.009   0.174  12.646  0.2429  0.0390 -0.6373
17377TIP3    H173546   2.088   0.156  12.594 -0.2873 -1.0023 -1.1273
17377TIP3    H273547   2.040   0.182  12.736  0.9343 -0.1516 -0.8530
17378TIP3   OH273548   6.250   3.466  15.365 -0.0297 -0.2121  0.4793
17378TIP3    H173549   6.272   3.385  15.411  0.7867  0.6163  1.5742
17378TIP3    H273550   6.155   3.461  15.351  0.1544 -1.8479 -0.4731
17379TIP3   OH273551   6.222   4.247  16.545  0.5867  0.2513  0.0097
17379TIP3    H173552   6.287   4.278  16.607 -0.0312 -0.0454  0.8258
17379TIP3    H273553   6.147   4.306  16.558  0.8990  0.9925 -1.3635
17380TIP3   OH273554   5.100   3.974   4.641 -0.2648 -0.0294  0.7077
17380TIP3    H173555   5.083   3.917   4.717  1.3908 -0.5994  0.6788
17380TIP3    H273556   5.102   4.063   4.678 -2.8138  0.0720  0.7601
17381TIP3   OH273557   1.942   4.040  13.308  0.0867 -0.1502  0.1269
17381TIP3    H173558   1.997   4.080  13.240  0.2593 -0.8094 -0.1271
17381TIP3    H273559   2.003   3.989  13.361 -0.2904 -0.9806 -0.2264
17382TIP3   OH273560   1.621   6.594  11.075 -0.7542 -0.2728  0.0540
17382TIP3    H173561   1.716   6.581  11.079 -0.5835 -0.2617 -2.3174
17382TIP3    H273562   1.592   6.534  11.006 -2.2563  0.7512 -0.2473
17383TIP3   OH273563   3.728   3.530  16.359 -0.4495  0.3703  0.0613
17383TIP3    H173564   3.674   3.535  16.438 -0.5072 -0.5381  0.0977
17383TIP3    H273565   3.768   3.443  16.364  0.0482  0.5564 -0.5914
17384TIP3   OH273566   3.714   4.890   4.641  0.7552  0.0132  0.4196
17384TIP3    H173567   3.767   4.827   4.592 -0.0251 -0.4757  0.1843
17384TIP3    H273568   3.735   4.975   4.601 -0.8996 -0.5217 -1.7519
17385TIP3   OH273569   2.811   3.526  12.498  0.3436  0.2239  0.3523
17385TIP3    H173570   2.717   3.509  12.500  0.2766  0.6151  0.5364
17385TIP3    H273571   2.826   3.566  12.412  0.2317  0.7920  0.5955
17386TIP3   OH273572   2.702   4.288   1.415 -0.3667  0.1809  0.1753
17386TIP3    H173573   2.732   4.337   1.339  3.2473 -1.2038  0.4975
17386TIP3    H273574   2.630   4.234   1.382  1.0668 -0.3784 -2.3074
17387TIP3   OH273575   0.651   4.298  14.048  0.0673 -0.3444  0.0438
17387TIP3    H173576   0.727   4.299  14.106  0.6269  0.4929 -0.6675
17387TIP3    H273577   0.576   4.312  14.105  0.5816  0.1839  0.6014
17388TIP3   OH273578   0.751   0.466   3.713  1.2888  0.5900  0.1670
17388TIP3    H173579   0.705   0.418   3.644 -0.2407  0.7532  1.0303
17388TIP3    H273580   0.730   0.558   3.697  1.4918  0.6866  0.4399
17389TIP3   OH273581   3.567   1.976  14.986  0.2394 -0.2920  0.0495
17389TIP3    H173582   3.660   1.985  14.965 -0.4703  1.6399 -2.8866
17389TIP3    H273583   3.557   2.017  15.072  2.3277 -2.3212  1.3656
17390TIP3   OH273584   6.550   5.716  13.617  0.5758 -0.1157  1.2508
17390TIP3    H173585   6.463   5.735  13.652  0.0083  1.7164 -0.9736
17390TIP3    H273586   6.610   5.757  13.679 -0.1932 -0.1383  2.0354
17391TIP3   OH273587   3.322   3.701  13.392  0.1406  0.5912 -0.0768
17391TIP3    H173588   3.340   3.668  13.479  0.5530  0.0689 -0.3567
17391TIP3    H273589   3.265   3.777  13.406 -1.1276 -0.4295  0.5624
17392TIP3   OH273590   1.029   3.251   2.302 -0.6765  1.0225 -0.0348
17392TIP3    H173591   1.056   3.170   2.259 -2.0741  0.2474  0.4732
17392TIP3    H273592   0.971   3.294   2.238 -0.5754  1.2295  0.0117
17393TIP3   OH273593   0.546   4.320   4.305 -0.0908 -0.1739 -0.0688
17393TIP3    H173594   0.638   4.347   4.301  0.2026 -1.0462  0.4234
17393TIP3    H273595   0.504   4.368   4.234  0.4856  1.2129  0.4786
17394TIP3   OH273596   0.744   1.213   3.777 -0.0692  0.2317  0.0092
17394TIP3    H173597   0.808   1.277   3.808  1.5137 -1.4401  0.4442
17394TIP3    H273598   0.683   1.202   3.850 -0.2478  1.0893 -0.0046
17395TIP3   OH273599   2.739   4.362   5.619  0.7475 -0.3083  0.0509
17395TIP3    H173600   2.825   4.400   5.633  0.4413  0.7898 -0.8598
17395TIP3    H273601   2.680   4.438   5.611 -0.2624 -1.0269  0.4351
17396TIP3   OH273602   5.649   5.443   1.261 -0.1863  0.0941  0.1855
17396TIP3    H173603   5.585   5.511   1.280  1.6503  2.0135  0.0072
17396TIP3    H273604   5.641   5.428   1.166 -0.1830  0.5469  0.1109
17397TIP3   OH273605   4.959   4.021  15.430  0.2068  0.7309  0.1870
17397TIP3    H173606   4.884   3.997  15.484 -0.0825  0.0754 -0.4952
17397TIP3    H273607   5.002   4.091  15.479 -0.2955  0.4488  1.0532
17398TIP3   OH273608   2.552   3.194   1.265 -0.3683 -0.4390 -0.4305
17398TIP3    H173609   2.508   3.207   1.180  3.1495  1.2663 -2.2296
17398TIP3    H273610   2.531   3.104   1.289 -1.3918 -1.0749 -3.2351
17399TIP3   OH273611   5.846   6.491  15.233  0.3937  0.4747 -0.0591
17399TIP3    H173612   5.787   6.553  15.275 -0.7379  0.4463 -1.5236
17399TIP3    H273613   5.866   6.530  15.148  0.6382 -0.5830 -0.5087
17400TIP3   OH273614   4.171   4.080  11.879  0.0548  0.4125 -0.0612
17400TIP3    H173615   4.167   4.135  11.957 -2.2216  2.0394 -1.1988
17400TIP3    H273616   4.080   4.054  11.863  0.7761 -1.8508 -0.8727
17401TIP3   OH273617   3.431   3.644   4.269 -0.4388 -0.0537  0.9297
17401TIP3    H173618   3.501   3.632   4.205  0.1756  0.2965  1.5173
17401TIP3    H273619   3.364   3.694   4.222  0.1892  0.5724  0.6814
17402TIP3   OH273620   0.680   2.810   1.634 -0.3333  0.0634 -0.5013
17402TIP3    H173621   0.764   2.846   1.606 -0.5472  1.4600  0.5461
17402TIP3    H273622   0.616   2.847   1.573 -0.1873 -1.2208 -1.4724
17403TIP3   OH273623   1.013   6.233  15.884 -0.4816 -0.4139  0.4556
17403TIP3    H173624   0.967   6.293  15.826 -0.8851 -2.1801 -1.1733
17403TIP3    H273625   1.031   6.156  15.830  2.7462 -0.5877  1.5504
17404TIP3   OH273626   3.720   5.443  17.343 -0.1435  0.0443  0.3869
17404TIP3    H173627   3.625   5.444  17.354 -0.3659 -0.6802 -1.1962
17404TIP3    H273628   3.751   5.380  17.408 -0.7835 -0.0273  0.6317
17405TIP3   OH273629   3.256   2.563   3.066  0.0804  0.0867 -0.8599
17405TIP3    H173630   3.342   2.604   3.066 -0.3226  0.9833 -1.5638
17405TIP3    H273631   3.194   2.636   3.063 -0.6704 -0.5528 -1.9104
17406TIP3   OH273632   0.438   0.278  13.333  0.2485  0.2599  0.1476
17406TIP3    H173633   0.347   0.248  13.329 -0.1519  0.7965  2.8667
17406TIP3    H273634   0.488   0.212  13.285 -1.5723  0.1573 -1.7480
17407TIP3   OH273635   1.981   2.179   2.972 -0.4164 -0.0461 -0.1949
17407TIP3    H173636   1.911   2.116   2.954  0.3482 -0.6467 -1.1943
17407TIP3    H273637   2.061   2.127   2.969  0.2455  1.0003 -1.2687
17408TIP3   OH273638   4.607   1.145   2.424  0.2343  0.1942  0.2152
17408TIP3    H173639   4.622   1.107   2.510  1.1916  0.0777  0.0107
17408TIP3    H273640   4.673   1.103   2.368 -1.2457 -0.7762 -0.8922
17409TIP3   OH273641   1.878   5.570  17.125  0.1268  0.4982  0.0398
17409TIP3    H173642   1.936   5.638  17.092 -0.6086  1.2976  0.3484
17409TIP3    H273643   1.876   5.584  17.220 -1.6184  1.3859 -0.0837
17410TIP3   OH273644   3.814   0.666   1.022 -0.3400  0.0050 -0.1607
17410TIP3    H173645   3.850   0.581   1.046  0.1190 -0.3039 -1.7781
17410TIP3    H273646   3.738   0.644   0.966 -1.8070  0.6626  1.4887
17411TIP3   OH273647   3.831   0.686   2.316 -0.1704 -0.0736 -0.4205
17411TIP3    H173648   3.846   0.765   2.263  0.8280  0.1064  0.1058
17411TIP3    H273649   3.823   0.718   2.406  0.8416 -0.6151 -0.1265
17412TIP3   OH273650   3.505   4.082  16.778  0.6469  0.0435 -0.5591
17412TIP3    H173651   3.424   4.078  16.726  0.6751 -0.0555 -0.5967
17412TIP3    H273652   3.496   4.162  16.830 -0.0626 -0.6263  0.3908
17413TIP3   OH273653   4.294   1.725  12.646 -0.2015 -0.5658  0.0038
17413TIP3    H173654   4.224   1.701  12.585 -0.0245 -0.8643 -0.0832
17413TIP3    H273655   4.247   1.756  12.724 -0.4232 -0.0249 -0.3460
17414TIP3   OH273656   6.154   0.593  16.528  0.0971 -0.5193  0.3088
17414TIP3    H173657   6.247   0.574  16.523  1.1154  3.1463  2.3162
17414TIP3    H273658   6.138   0.656  16.458 -0.2018  0.9663  1.6672
17415TIP3   OH273659   2.200   4.304  17.105 -0.2184 -0.5177  0.2188
17415TIP3    H173660   2.161   4.300  17.192  0.9606  2.1551  0.9827
17415TIP3    H273661   2.146   4.367  17.058  1.3511  0.9927  0.3412
17416TIP3   OH273662   5.169   4.898  16.768 -0.3737  0.3280 -0.4794
17416TIP3    H173663   5.116   4.978  16.762  0.3868  1.1073  2.0548
17416TIP3    H273664   5.254   4.923  16.731 -0.5030  0.3235 -0.7825
17417TIP3   OH273665   2.238   1.506   6.319 -0.2774 -0.2540 -0.0188
17417TIP3    H173666   2.243   1.556   6.400  0.6438 -1.3903  0.6575
17417TIP3    H273667   2.145   1.487   6.308 -0.5407  0.9133  0.1252
17418TIP3   OH273668   3.437   0.819  17.456 -1.0272  0.1780  0.3220
17418TIP3    H173669   3.501   0.765  17.409 -1.8156 -1.0594  0.6098
17418TIP3    H273670   3.464   0.814  17.548 -1.7647 -0.7059  0.5012
17419TIP3   OH273671   2.147   5.241   0.715  0.0600  0.1908  0.0647
17419TIP3    H173672   2.185   5.162   0.678 -0.7318 -1.4610  2.5242
17419TIP3    H273673   2.207   5.267   0.784 -0.7031  0.5559  0.6112
17420TIP3   OH273674   0.620   4.474   2.890 -0.6538 -0.3902 -0.4954
17420TIP3    H173675   0.667   4.527   2.826  0.3288  1.1494  1.4015
17420TIP3    H273676   0.675   4.476   2.968 -1.3846 -2.8954  0.1973
17421TIP3   OH273677   5.416   5.673   2.192 -0.2967  0.1344  0.1826
17421TIP3    H173678   5.384   5.587   2.164 -0.3821  0.1509  0.2312
17421TIP3    H273679   5.508   5.658   2.215 -0.7938 -0.3529  1.9978
17422TIP3   OH273680   2.353   0.650  14.656  0.2436 -0.1015  0.4149
17422TIP3    H173681   2.394   0.566  14.674 -0.8221 -1.1713 -1.7745
17422TIP3    H273682   2.325   0.644  14.565  1.6169  3.2554 -0.3905
17423TIP3   OH273683   5.375   1.082  11.460 -0.3886 -0.7058 -0.2543
17423TIP3    H173684   5.455   1.039  11.492 -1.0599 -1.9782 -0.2483
17423TIP3    H273685   5.396   1.108  11.371  0.4624  0.1344  0.1725
17424TIP3   OH273686   1.985   4.723   1.287 -0.7002 -0.1243 -0.0541
17424TIP3    H173687   2.074   4.733   1.319 -0.0857  0.5534 -1.8655
17424TIP3    H273688   1.946   4.810   1.294 -0.7881 -0.1278 -0.4607
17425TIP3   OH273689   4.915   1.783  12.557 -0.1848  0.2507 -0.8725
17425TIP3    H173690   4.844   1.814  12.613 -0.1436 -0.6191 -0.3245
17425TIP3    H273691   4.971   1.732  12.615  2.2109  2.8145 -0.7001
17426TIP3   OH273692   0.070   1.801  16.861 -0.6010 -0.1953 -0.2570
17426TIP3    H173693   0.162   1.781  16.845 -0.0866  1.0028  0.9746
17426TIP3    H273694   0.045   1.741  16.932 -0.7816 -0.5120 -0.5814
17427TIP3   OH273695   2.652   1.930   0.059 -1.5259  0.0617  0.0512
17427TIP3    H173696   2.724   1.988   0.080  1.3726 -3.3267  0.4848
17427TIP3    H273697   2.639   1.878   0.139  1.0219 -4.5096 -2.1175
17428TIP3   OH273698   3.026   2.936  13.603 -0.1301  0.1804  0.5985
17428TIP3    H173699   2.936   2.966  13.597 -0.4004 -0.7085  0.1197
17428TIP3    H273700   3.066   2.961  13.520  1.1208  3.7569  2.0376
17429TIP3   OH273701   6.318   5.647  14.036 -0.3250 -0.3521  0.9179
17429TIP3    H173702   6.336   5.733  13.998 -1.3595 -0.7728 -0.5996
17429TIP3    H273703   6.388   5.591  14.003 -0.2815 -0.3539  1.0108
17430TIP3   OH273704   1.960   1.243  13.100  0.0211 -0.1884 -0.1375
17430TIP3    H173705   1.993   1.219  13.014 -0.1972 -2.2637  0.3000
17430TIP3    H273706   2.037   1.248  13.156 -0.0714 -2.1592  0.2402
17431TIP3   OH273707   2.217   4.236   4.008 -0.1473  0.2255  1.0512
17431TIP3    H173708   2.209   4.173   3.936 -1.0383 -0.3050  1.5981
17431TIP3    H273709   2.183   4.190   4.084 -1.9503  1.7605  1.2472
17432TIP3   OH273710   2.566   5.996  15.684  0.1931  0.0063 -0.5595
17432TIP3    H173711   2.633   5.969  15.746 -0.2851  2.2461  1.0644
17432TIP3    H273712   2.597   5.963  15.599  2.4085 -0.5421  0.3930
17433TIP3   OH273713   5.862   5.733  12.545  0.1562  0.5979 -0.6547
17433TIP3    H173714   5.868   5.690  12.630 -0.1119  0.6906 -0.5877
17433TIP3    H273715   5.772   5.719  12.517 -0.1890  1.8654 -0.2244
17434TIP3   OH273716   6.565   2.588  11.987  0.1670 -0.2211  0.3098
17434TIP3    H173717   6.503   2.586  11.914  1.0537 -0.9329 -0.4571
17434TIP3    H273718   6.517   2.551  12.061 -0.4523 -0.3668 -0.1648
17435TIP3   OH273719   0.600   2.254   1.281 -0.3492  0.1090 -0.2882
17435TIP3    H173720   0.686   2.252   1.238 -0.5297 -1.2403 -0.6188
17435TIP3    H273721   0.537   2.260   1.210 -0.5946 -0.8271 -0.1621
17436TIP3   OH273722   5.981   5.859  12.879  0.6091 -0.1347  0.5086
17436TIP3    H173723   5.887   5.871  12.871  0.2349 -1.9467  1.6522
17436TIP3    H273724   6.013   5.939  12.920 -0.5289  0.2141  0.7290
17437TIP3   OH273725   3.620   1.251  10.853  0.5078  0.2378 -0.5199
17437TIP3    H173726   3.553   1.230  10.788  0.2816 -0.3373 -0.1023
17437TIP3    H273727   3.608   1.344  10.870 -1.5528 -0.2410  1.0627
17438TIP3   OH273728   1.611   5.109   2.308 -0.5118 -0.4479  0.0450
17438TIP3    H173729   1.669   5.183   2.324 -1.6432  0.2213  1.1865
17438TIP3    H273730   1.668   5.042   2.270  0.5131  1.0173 -1.0881
17439TIP3   OH273731   3.907   5.628  10.920  0.4503  0.0214 -0.1376
17439TIP3    H173732   3.919   5.632  11.014 -1.7203 -1.5356  0.2920
17439TIP3    H273733   3.920   5.718  10.889 -0.4109  0.8911  1.8757
17440TIP3   OH273734   5.184   5.041  14.830  0.4659  0.0376 -0.0055
17440TIP3    H173735   5.246   5.073  14.766 -0.5972 -1.8020 -2.0854
17440TIP3    H273736   5.116   4.997  14.779 -1.3122 -0.1270  2.2902
17441TIP3   OH273737   4.407   0.926  14.989 -0.8074  0.0557  0.0888
17441TIP3    H173738   4.487   0.890  15.025 -0.6846 -1.1595 -1.3101
17441TIP3    H273739   4.340   0.860  15.007 -0.9886 -0.0159 -0.7948
17442TIP3   OH273740   5.906   1.408   4.379 -0.4210  0.3116 -0.7748
17442TIP3    H173741   5.849   1.332   4.365  3.7838 -3.4976  0.4831
17442TIP3    H273742   5.913   1.416   4.474  0.7640  1.0132 -0.9019
17443TIP3   OH273743   6.159   1.148  15.388  0.0929 -0.2827  0.2031
17443TIP3    H173744   6.104   1.190  15.454  0.7840 -0.1476  0.7022
17443TIP3    H273745   6.173   1.059  15.422  2.4773  0.5198  1.5179
17444TIP3   OH273746   5.029   1.932  11.549  0.4019  0.0855  0.4489
17444TIP3    H173747   4.962   1.990  11.513  1.5239  1.2285  0.0964
17444TIP3    H273748   4.988   1.890  11.624 -0.2290  1.9727  1.2237
17445TIP3   OH273749   4.105   4.487  12.266 -0.0592  0.0558  0.4139
17445TIP3    H173750   4.059   4.405  12.250 -3.3073  1.2612  2.5998
17445TIP3    H273751   4.093   4.538  12.185 -0.0209 -0.7422 -0.1035
17446TIP3   OH273752   2.069   2.652   1.912 -0.0448  0.0521  0.1108
17446TIP3    H173753   2.043   2.594   1.983 -0.9011 -0.0112 -0.2494
17446TIP3    H273754   2.010   2.727   1.919  0.6108  0.5724  0.1550
17447TIP3   OH273755   0.339   2.542   4.903 -0.3218 -0.0719  0.1891
17447TIP3    H173756   0.434   2.528   4.900 -0.4141 -0.7103  0.1672
17447TIP3    H273757   0.324   2.583   4.988  0.1151  1.1819 -0.3177
17448TIP3   OH273758   0.481   6.351   4.649 -0.4615  0.0967 -0.0877
17448TIP3    H173759   0.502   6.279   4.590  0.0564  0.7915 -0.7705
17448TIP3    H273760   0.541   6.339   4.723 -1.8464 -1.3974  0.8507
17449TIP3   OH273761   3.720   2.246  14.871  1.2109  0.3005  0.4794
17449TIP3    H173762   3.639   2.296  14.866  1.2160  0.2283 -0.3766
17449TIP3    H273763   3.741   2.245  14.965  0.6325  0.9579  0.6249
17450TIP3   OH273764   1.813   4.558  11.243 -0.5019 -0.2323  0.0258
17450TIP3    H173765   1.872   4.488  11.272  2.4854  2.4327  0.9310
17450TIP3    H273766   1.834   4.571  11.151  0.6922  0.9381  0.4287
17451TIP3   OH273767   5.031   4.178   4.962  0.5510 -0.1730 -0.6222
17451TIP3    H173768   5.115   4.131   4.965  0.7001  0.0867 -0.6813
17451TIP3    H273769   5.041   4.249   5.025 -0.1434 -0.9701  0.4276
17452TIP3   OH273770   1.534   2.788  15.031 -0.0392  0.2640  0.5450
17452TIP3    H173771   1.467   2.808  15.096 -0.2248 -0.0354  0.4482
17452TIP3    H273772   1.492   2.727  14.971  0.8668 -1.4590  1.5574
17453TIP3   OH273773   5.197   4.769   4.229 -0.2377 -0.2285 -0.2041
17453TIP3    H173774   5.254   4.695   4.252  0.0612 -0.2139 -0.8848
17453TIP3    H273775   5.108   4.736   4.246 -0.0255 -0.0036  1.5827
17454TIP3   OH273776   3.565   0.453   1.831 -0.5672  0.3451  0.5219
17454TIP3    H173777   3.644   0.477   1.879  0.0695  2.1153 -1.2568
17454TIP3    H273778   3.494   0.495   1.879  0.1030  2.4725 -0.2309
17455TIP3   OH273779   1.721   5.749   4.104  0.5975  0.4969  0.0370
17455TIP3    H173780   1.763   5.829   4.134 -2.1412  1.3020  2.2334
17455TIP3    H273781   1.684   5.770   4.019 -0.4607  1.8033  0.7783
17456TIP3   OH273782   0.798   3.870  15.096  0.6078  0.4026  0.2292
17456TIP3    H173783   0.835   3.918  15.022 -0.7822 -0.8160 -1.3685
17456TIP3    H273784   0.723   3.923  15.124 -0.5146 -0.3979 -1.0902
17457TIP3   OH273785   2.073   3.814  10.931  0.0489 -0.2784  0.2756
17457TIP3    H173786   2.047   3.752  10.863 -1.1996  1.6368 -1.1000
17457TIP3    H273787   1.992   3.861  10.953  1.1242  1.5406  0.5175
17458TIP3   OH273788   1.054   1.721   4.161  0.3235  0.3299  0.4168
17458TIP3    H173789   1.126   1.679   4.114  0.6167  2.6913 -1.4459
17458TIP3    H273790   1.075   1.708   4.254  2.1802 -0.5798 -0.0870
17459TIP3   OH273791   1.235   2.296   2.030 -0.4528  0.4687  0.5509
17459TIP3    H173792   1.160   2.283   1.971  0.1248 -0.1892 -0.0532
17459TIP3    H273793   1.197   2.295   2.118 -1.1937  0.4387  0.2348
17460TIP3   OH273794   5.052   6.633  12.034 -0.1007 -0.0891  0.4001
17460TIP3    H173795   5.102   6.714  12.030 -0.2131 -0.0389 -0.0050
17460TIP3    H273796   5.060   6.605  12.125 -1.6303  1.3730  1.0352
17461TIP3   OH273797   4.829   4.730  12.345 -0.0497 -0.3363 -0.2792
17461TIP3    H173798   4.879   4.738  12.427  0.1399  0.3648 -0.4507
17461TIP3    H273799   4.847   4.642  12.314  1.1980 -0.0540 -0.4117
17462TIP3   OH273800   1.499   4.053  14.554 -0.2959 -0.0836  0.0312
17462TIP3    H173801   1.412   4.074  14.519 -1.5555 -1.1754  2.3162
17462TIP3    H273802   1.493   3.962  14.580  0.9264  0.3255  1.9325
17463TIP3   OH273803   1.216   2.268  16.723 -0.4306  0.0147  0.3650
17463TIP3    H173804   1.268   2.289  16.800  1.9761 -0.9146 -0.9039
17463TIP3    H273805   1.174   2.185  16.743  0.7087 -0.5557  0.4835
17464TIP3   OH273806   3.284   2.163   2.879  0.7040 -0.1161 -0.5138
17464TIP3    H173807   3.261   2.221   2.951 -0.8275 -2.5423  1.1377
17464TIP3    H273808   3.215   2.176   2.814 -0.5783 -1.1610  0.5772
17465TIP3   OH273809   3.570   5.502  14.222  0.4112  0.4179 -0.1193
17465TIP3    H173810   3.637   5.437  14.199 -0.8796 -0.8334 -0.4725
17465TIP3    H273811   3.497   5.483  14.164 -0.5540  1.2393  0.7935
17466TIP3   OH273812   0.782   1.646   2.992 -0.3301 -0.4727 -0.2113
17466TIP3    H173813   0.691   1.673   3.003  0.1536  1.4250 -0.5574
17466TIP3    H273814   0.783   1.596   2.910 -1.3137 -1.9582  0.6284
17467TIP3   OH273815   5.213   0.241  16.735  0.1286  0.2559 -0.6042
17467TIP3    H173816   5.260   0.183  16.795 -0.3247  0.5717  0.0648
17467TIP3    H273817   5.127   0.202  16.725 -0.8649  1.7550  1.3565
17468TIP3   OH273818   2.330   4.613  15.448  0.0121 -0.1308  0.2591
17468TIP3    H173819   2.299   4.576  15.531 -0.7183 -0.0137  0.0437
17468TIP3    H273820   2.415   4.651  15.470 -0.7568  1.0706  1.2753
17469TIP3   OH273821   2.266   5.988   5.901  0.2180 -0.6025 -0.2117
17469TIP3    H173822   2.221   5.904   5.890 -0.3568 -0.6529  2.0420
17469TIP3    H273823   2.196   6.052   5.907  0.6576  0.1123 -1.9472
17470TIP3   OH273824   0.071   0.460   1.486  0.4954 -0.1096  0.0225
17470TIP3    H173825   0.015   0.515   1.541  0.9197  0.6327 -0.2713
17470TIP3    H273826   0.091   0.384   1.540  0.4132  0.3244  0.6760
17471TIP3   OH273827   2.891   0.016  12.727  0.2530 -0.3168 -0.0240
17471TIP3    H173828   2.813   0.054  12.687  1.0489  0.8177 -0.5698
17471TIP3    H273829   2.860  -0.028  12.806 -1.2557 -1.9111 -1.4344
17472TIP3   OH273830   1.190   0.056  11.251 -0.9899  0.3379  0.3265
17472TIP3    H173831   1.123   0.024  11.190  0.5226 -2.0499 -0.2167
17472TIP3    H273832   1.182  -0.000  11.328 -0.3234  0.7361  0.6942
17473TIP3   OH273833   6.317   0.654  17.138  0.1782 -0.4706 -0.1704
17473TIP3    H173834   6.328   0.644  17.233 -1.4462  0.4644  0.1518
17473TIP3    H273835   6.224   0.642  17.124  0.3509 -0.2373 -1.6213
17474TIP3   OH273836   3.644   4.355  15.951  0.6583  0.4207 -0.5624
17474TIP3    H173837   3.662   4.278  16.005 -0.2100  0.4468 -0.2264
17474TIP3    H273838   3.691   4.338  15.869 -1.3885 -1.5683 -1.4169
17475TIP3   OH273839   4.441   0.330  17.138  0.0258 -0.2861  0.4832
17475TIP3    H173840   4.387   0.325  17.217  1.6855  1.7951  1.8578
17475TIP3    H273841   4.388   0.378  17.076  0.0152  1.2593  1.6294
17476TIP3   OH273842   5.373   0.225   1.766  0.3463  0.3163  0.5468
17476TIP3    H173843   5.310   0.153   1.778 -1.1389  1.2669 -1.0276
17476TIP3    H273844   5.365   0.277   1.846 -0.9571  0.4551  0.3452
17477TIP3   OH273845   6.055   2.792   1.252 -0.6760 -0.0055  0.4253
17477TIP3    H173846   6.074   2.885   1.242  1.7419 -0.0858  3.0027
17477TIP3    H273847   5.960   2.787   1.258 -0.8177  2.4112  0.8693
17478TIP3   OH273848   5.020   6.669  13.812 -0.3939 -0.0102  0.3139
17478TIP3    H173849   5.103   6.716  13.804 -0.3143 -0.2414 -0.3215
17478TIP3    H273850   5.029   6.594  13.753 -1.7683  1.0133 -1.3378
17479TIP3   OH273851   3.531   1.475  14.635 -0.0432 -0.3729 -0.2116
17479TIP3    H173852   3.479   1.462  14.714 -1.2920 -0.0726 -0.9515
17479TIP3    H273853   3.612   1.515  14.665 -0.1501 -1.0306  1.0006
17480TIP3   OH273854   1.461   3.381  14.328 -0.9409  0.2134  1.4952
17480TIP3    H173855   1.371   3.351  14.339 -1.1857 -0.3043 -1.1863
17480TIP3    H273856   1.510   3.301  14.306 -0.5630  0.9587 -0.5510
17481TIP3   OH273857   1.515   3.855   2.250  0.4688  0.3845 -0.3028
17481TIP3    H173858   1.485   3.915   2.181  0.7808  0.9079  0.0075
17481TIP3    H273859   1.452   3.867   2.321 -1.0554 -1.6463 -1.2189
17482TIP3   OH273860   0.546   4.186  12.113 -0.1929 -0.2438  0.3295
17482TIP3    H173861   0.466   4.147  12.148 -0.3955 -0.4617 -0.3591
17482TIP3    H273862   0.599   4.110  12.086  0.6207 -0.1375  1.5783
17483TIP3   OH273863   1.007   4.222  16.454 -0.0130 -0.6122 -0.0474
17483TIP3    H173864   1.100   4.245  16.461 -0.0240 -1.0238  1.6822
17483TIP3    H273865   0.993   4.158  16.523 -1.8408  0.2200  0.3842
17484TIP3   OH273866   2.059   5.205   0.086 -0.2060 -0.1180  0.1738
17484TIP3    H173867   2.039   5.251   0.004 -0.5013 -1.3183 -0.4663
17484TIP3    H273868   1.988   5.228   0.145 -1.0514 -0.7485 -0.5670
17485TIP3   OH273869   2.101   3.186  13.504 -0.0430 -0.5503  0.5240
17485TIP3    H173870   2.040   3.256  13.482 -2.2659 -2.4981  0.1581
17485TIP3    H273871   2.188   3.225  13.488 -1.1411  2.0795  0.3536
17486TIP3   OH273872   2.819   0.978   4.956  0.4392 -0.3507 -0.6551
17486TIP3    H173873   2.811   0.926   4.876  0.3307 -0.8071 -0.3489
17486TIP3    H273874   2.902   0.951   4.995  0.3953 -0.2760 -0.5077
17487TIP3   OH273875   4.664   1.189  13.437 -0.0622  0.4469 -0.3996
17487TIP3    H173876   4.608   1.266  13.441  0.5927  0.9115  0.0094
17487TIP3    H273877   4.730   1.203  13.504 -0.3918 -0.8516  0.2257
17488TIP3   OH273878   2.110   6.284   3.719  0.1246  0.1900 -0.2780
17488TIP3    H173879   2.066   6.224   3.780 -1.6435  1.2435 -0.4559
17488TIP3    H273880   2.202   6.258   3.722 -0.3602 -1.5423  0.7779
17489TIP3   OH273881   4.078   6.520   0.423  0.0516  0.0125 -0.2111
17489TIP3    H173882   4.149   6.461   0.397  0.7481 -0.0122  1.5730
17489TIP3    H273883   4.014   6.462   0.464 -0.4247  0.1976 -0.6875
17490TIP3   OH273884   4.606   3.092   5.659 -0.4162 -0.1014 -0.1030
17490TIP3    H173885   4.664   3.117   5.587  0.5615 -1.0538  0.3216
17490TIP3    H273886   4.587   3.000   5.644 -0.6565 -0.1655  0.5446
17491TIP3   OH273887   4.773   2.534   3.319 -0.1775  0.1954 -0.0161
17491TIP3    H173888   4.718   2.612   3.312 -1.8907 -0.9639 -0.1149
17491TIP3    H273889   4.786   2.522   3.413 -0.4054  0.2914  0.0298
17492TIP3   OH273890   3.057   2.952  16.098  0.1939 -0.8292 -0.0938
17492TIP3    H173891   2.968   2.987  16.090  0.5635 -0.1018 -1.1878
17492TIP3    H273892   3.099   3.010  16.162 -0.1255 -1.1937  0.4490
17493TIP3   OH273893   2.801   1.571   3.085 -0.4825 -0.8983 -0.2118
17493TIP3    H173894   2.777   1.625   3.160  2.2003  0.0856  0.0721
17493TIP3    H273895   2.861   1.506   3.121  0.9936 -0.3037 -1.4575
17494TIP3   OH273896   2.239   1.639  11.780 -0.7470  0.0788 -0.2541
17494TIP3    H173897   2.239   1.555  11.733  1.8229  1.1488 -2.4700
17494TIP3    H273898   2.183   1.696  11.726  1.2875  0.9976 -1.4994
17495TIP3   OH273899   6.133   5.818   2.367  0.4109  0.1861  0.3579
17495TIP3    H173900   6.042   5.806   2.341  0.7858  1.3851 -1.7276
17495TIP3    H273901   6.134   5.900   2.416  0.5651  0.9632 -0.9111
17496TIP3   OH273902   2.916   5.515   0.907 -0.2108 -0.1926  0.2280
17496TIP3    H173903   2.979   5.468   0.852  1.1001  2.0297 -0.2890
17496TIP3    H273904   2.865   5.446   0.949  1.0620 -2.0355 -1.0873
17497TIP3   OH273905   0.679   3.858   0.753  0.3074  0.3255  0.1835
17497TIP3    H173906   0.734   3.780   0.747  0.8690  0.4059  2.8611
17497TIP3    H273907   0.739   3.928   0.779 -0.0074  1.9883 -3.0208
17498TIP3   OH273908   0.578   3.893   1.786  0.2798  0.6620 -0.1592
17498TIP3    H173909   0.536   3.903   1.701  2.1944 -0.8226 -1.3696
17498TIP3    H273910   0.531   3.821   1.828 -1.2954  2.0237  0.5185
17499TIP3   OH273911   5.773   1.182  15.028 -0.1593  0.2811 -0.2274
17499TIP3    H173912   5.799   1.142  15.111  1.4538 -0.3825 -1.0195
17499TIP3    H273913   5.751   1.109  14.972 -2.5396  0.7771 -0.0342
17500TIP3   OH273914   6.453   3.872  13.865 -0.0156 -0.6067  1.0748
17500TIP3    H173915   6.509   3.818  13.921  1.5950 -0.9882 -0.8154
17500TIP3    H273916   6.485   3.856  13.776 -1.4358  1.2132  0.1789
17501TIP3   OH273917   0.000   4.106  14.577  0.2512 -0.3556 -0.5532
17501TIP3    H173918  -0.096   4.108  14.578  0.2539  0.0265 -0.8955
17501TIP3    H273919   0.027   4.194  14.601  0.4827  0.2292 -2.7425
17502TIP3   OH273920   1.514   0.538  15.081 -0.7859 -0.4848 -0.0921
17502TIP3    H173921   1.499   0.629  15.055 -2.9324 -0.9933 -0.8183
17502TIP3    H273922   1.594   0.513  15.033 -0.2005  0.9623  0.0690
17503TIP3   OH273923   4.700   5.933   4.826  0.0066  0.5754  0.3944
17503TIP3    H173924   4.751   6.013   4.838  0.8236  0.1074  0.1780
17503TIP3    H273925   4.761   5.863   4.847 -0.8927  0.0189  1.2216
17504TIP3   OH273926   1.851   5.256   4.045 -0.5976 -0.5463  0.1029
17504TIP3    H173927   1.869   5.260   3.951 -0.6408 -3.7731 -0.1227
17504TIP3    H273928   1.769   5.305   4.055  0.9569  2.5762 -0.9252
17505TIP3   OH273929   4.556   0.241  15.445 -0.1077  0.3383 -0.3510
17505TIP3    H173930   4.584   0.303  15.379 -0.4271 -0.4420 -1.2398
17505TIP3    H273931   4.504   0.293  15.507  0.2203  1.0742 -0.6833
17506TIP3   OH273932   2.739   1.561   4.394 -0.1569  0.2590  0.4351
17506TIP3    H173933   2.806   1.532   4.331  1.0755  1.9401  0.8882
17506TIP3    H273934   2.661   1.574   4.341  0.0377 -1.1076 -0.2374
17507TIP3   OH273935   6.646   0.154   2.160 -0.2452 -0.1251  0.4023
17507TIP3    H173936   6.615   0.064   2.164  1.0308 -0.6589 -0.7500
17507TIP3    H273937   6.626   0.183   2.071  2.5121 -0.5580 -0.4675
17508TIP3   OH273938   4.629   2.200  15.571 -0.2748  0.4655  0.1645
17508TIP3    H173939   4.677   2.126  15.607  0.7383  1.1483  0.2654
17508TIP3    H273940   4.673   2.219  15.487 -1.2897  0.2006 -0.4425
17509TIP3   OH273941   5.002   3.731   1.761 -0.5517 -0.2502  0.3205
17509TIP3    H173942   5.081   3.727   1.816  0.1345  1.0288 -0.5366
17509TIP3    H273943   4.962   3.815   1.783  1.1392  1.5735 -2.9199
17510TIP3   OH273944   1.899   0.379  12.158 -0.2286 -0.1671 -0.5380
17510TIP3    H173945   1.945   0.356  12.078 -0.6679 -1.0150 -0.5623
17510TIP3    H273946   1.899   0.298  12.209  0.2141  0.4120  0.4052
17511TIP3   OH273947   2.589   5.800  13.125  0.2736 -0.4264  0.0533
17511TIP3    H173948   2.538   5.814  13.045  1.1552 -1.3388 -0.7062
17511TIP3    H273949   2.624   5.887  13.145 -0.5750 -0.0359 -0.1112
17512TIP3   OH273950   0.886   0.017   1.363 -0.3247  0.2326  0.4004
17512TIP3    H173951   0.914   0.103   1.330  0.7786 -0.5477 -0.8133
17512TIP3    H273952   0.841   0.036   1.444 -2.4583  2.2052 -1.1297
17513TIP3   OH273953   6.186   4.550  17.402  0.9963 -0.5381 -0.3564
17513TIP3    H173954   6.100   4.574  17.437  1.3268 -0.0321  0.1329
17513TIP3    H273955   6.168   4.483  17.337 -0.0478  1.4134 -2.1914
17514TIP3   OH273956   6.658   0.382  17.140 -0.2181  0.2915 -0.5231
17514TIP3    H173957   6.594   0.387  17.069  0.5441  1.0361 -1.1897
17514TIP3    H273958   6.738   0.419  17.102  0.5876 -0.5427  0.3105
17515TIP3   OH273959   0.260   2.280   4.226  0.2106 -0.1487 -0.1044
17515TIP3    H173960   0.249   2.368   4.190  1.6857 -0.1964 -0.7171
17515TIP3    H273961   0.349   2.278   4.259 -0.0944 -1.1485  0.7006
17516TIP3   OH273962   1.867   6.346   2.141  0.0308  0.3459 -0.6560
17516TIP3    H173963   1.872   6.363   2.235 -0.1921 -2.2260 -0.0980
17516TIP3    H273964   1.954   6.367   2.108  0.0205  1.5827  0.0293
17517TIP3   OH273965   4.868   0.986  12.252  0.7231 -0.1168 -0.3926
17517TIP3    H173966   4.851   1.068  12.204  1.0496 -0.2080 -0.6647
17517TIP3    H273967   4.786   0.937  12.244  0.2591  0.4952  0.4065
17518TIP3   OH273968   6.718   4.973  14.516 -0.1445 -0.2739  0.5999
17518TIP3    H173969   6.676   4.906  14.461  0.5284 -0.9383  0.8771
17518TIP3    H273970   6.784   5.012  14.459 -1.0799  0.7479  0.1752
17519TIP3   OH273971   1.818   4.591  14.632  0.3138 -0.3555 -0.2270
17519TIP3    H173972   1.795   4.660  14.694  1.7294 -1.1168  1.1914
17519TIP3    H273973   1.894   4.625  14.585 -0.8672  0.3013 -1.7679
17520TIP3   OH273974   4.710   5.732  11.976 -0.3281 -0.5422  0.5071
17520TIP3    H173975   4.688   5.803  11.916 -1.8299 -0.2262  1.3669
17520TIP3    H273976   4.739   5.776  12.056 -0.5879 -0.9017  0.8044
17521TIP3   OH273977   4.351   3.303  10.597 -0.1316 -0.1280  0.4366
17521TIP3    H173978   4.347   3.368  10.668  1.9608  1.4052 -0.7322
17521TIP3    H273979   4.439   3.314  10.560 -0.5325 -2.1176 -1.2717
17522TIP3   OH273980   3.785   5.883   1.277  0.2757 -0.2933  0.2728
17522TIP3    H173981   3.850   5.818   1.303 -0.4929 -1.5253 -0.7247
17522TIP3    H273982   3.794   5.953   1.341  2.4220 -0.5045  0.2822
17523TIP3   OH273983   3.628   5.374  16.581  0.0337  0.0924 -0.4550
17523TIP3    H173984   3.716   5.404  16.604 -0.8416  0.9017  2.1245
17523TIP3    H273985   3.584   5.452  16.547 -0.8338  0.7699  1.9964
17524TIP3   OH273986   3.557   6.721   6.521  0.0733 -0.2858 -0.3907
17524TIP3    H173987   3.493   6.650   6.526 -0.6794  0.4525  0.9020
17524TIP3    H273988   3.510   6.793   6.480  0.1234  0.1798  0.3439
17525TIP3   OH273989   5.280   2.822   1.052  0.3072  0.5425 -0.0327
17525TIP3    H173990   5.254   2.914   1.054 -3.1633 -0.3072  0.9358
17525TIP3    H273991   5.239   2.787   0.973 -0.2788 -0.5912  0.7465
17526TIP3   OH273992   6.349   0.827  12.407  0.0777  0.2474  0.0901
17526TIP3    H173993   6.308   0.897  12.457 -0.3946  0.4933 -0.6360
17526TIP3    H273994   6.276   0.781  12.366  0.5075  0.6692 -1.1885
17527TIP3   OH273995   5.451   0.569   0.680 -0.2493  0.2251  0.6776
17527TIP3    H173996   5.541   0.541   0.664 -0.2181  1.8896 -3.0836
17527TIP3    H273997   5.446   0.658   0.645 -3.9322 -0.7377 -1.9057
17528TIP3   OH273998   1.762   2.325  17.263 -0.0499  0.1482 -0.2765
17528TIP3    H173999   1.799   2.401  17.308 -0.0592 -0.1831  0.2995
17528TIP3    H274000   1.671   2.323  17.291  0.1418 -0.5190  0.3154
17529TIP3   OH274001   3.145   0.298   5.539  0.0249 -0.5730  0.5062
17529TIP3    H174002   3.239   0.284   5.548  0.1778 -0.2131 -0.3685
17529TIP3    H274003   3.126   0.373   5.594  0.8294  1.2848 -1.5756
17530TIP3   OH274004   6.319   4.720  11.745 -0.0278 -0.5012  0.2112
17530TIP3    H174005   6.338   4.740  11.653  0.4239  1.8075  0.7190
17530TIP3    H274006   6.224   4.730  11.753 -0.1368 -1.2369 -0.0974
17531TIP3   OH274007   5.858   5.584  12.783 -0.4872 -0.4899  0.4718
17531TIP3    H174008   5.924   5.639  12.824  0.1427  0.8396 -2.1571
17531TIP3    H274009   5.907   5.509  12.750 -0.6955 -0.6544  0.5345
17532TIP3   OH274010   5.726   1.858   4.345  0.2684 -0.6102 -0.2083
17532TIP3    H174011   5.766   1.944   4.353  0.0886 -0.4553 -0.8787
17532TIP3    H274012   5.798   1.800   4.318  0.2454 -0.5261 -0.4535
17533TIP3   OH274013   1.401   0.149   2.621 -0.3993 -0.2122 -0.2070
17533TIP3    H174014   1.463   0.192   2.680  1.2419 -2.0143 -0.5252
17533TIP3    H274015   1.373   0.217   2.560 -0.9450  1.3158  1.6474
17534TIP3   OH274016   4.529   0.296  12.884  0.2077 -0.3926  0.0470
17534TIP3    H174017   4.617   0.319  12.854 -1.1298  0.2179 -4.0406
17534TIP3    H274018   4.487   0.380  12.902 -0.3273 -0.4899 -0.7016
17535TIP3   OH274019   5.008   0.952  11.180 -0.1164 -0.3290  0.0780
17535TIP3    H174020   4.921   0.989  11.162  0.3191  1.1381  0.8564
17535TIP3    H274021   4.997   0.904  11.262 -0.1433 -0.0029  0.2642
17536TIP3   OH274022   5.588   5.233  13.329 -0.3591 -0.0523  0.0607
17536TIP3    H174023   5.660   5.181  13.366 -1.3019 -1.7971 -0.4594
17536TIP3    H274024   5.571   5.299  13.395 -0.0884 -1.3145  1.4607
17537TIP3   OH274025   2.020   6.212   4.669 -0.0868  0.2201  0.2125
17537TIP3    H174026   2.004   6.275   4.739  1.0533  0.4517  0.2742
17537TIP3    H274027   1.960   6.238   4.599 -1.3180 -0.0735  1.1101
17538TIP3   OH274028   6.530   5.829   2.483 -0.1979 -0.4564 -0.0944
17538TIP3    H174029   6.582   5.794   2.556  0.5421  2.8929  1.1801
17538TIP3    H274030   6.440   5.807   2.505  0.1242 -0.5161  1.2560
17539TIP3   OH274031   4.677   3.724   3.412 -0.3310 -0.0499  0.4324
17539TIP3    H174032   4.650   3.726   3.320 -2.2663  0.8410  0.9662
17539TIP3    H274033   4.702   3.814   3.433 -0.0124 -0.2223  0.8130
17540TIP3   OH274034   0.811   1.078  12.643 -0.0583  0.0444  0.6464
17540TIP3    H174035   0.844   1.058  12.730  0.8340 -1.1259  0.0715
17540TIP3    H274036   0.884   1.058  12.584 -1.1382 -0.6926 -0.5073
17541TIP3   OH274037   0.493   1.975   1.279  0.1189 -0.1450 -0.3221
17541TIP3    H174038   0.524   1.923   1.204  0.8932 -0.8738  0.4850
17541TIP3    H274039   0.515   2.065   1.257 -1.5196 -0.0636 -1.8921
17542TIP3   OH274040   4.697   5.259  15.931  0.7301  0.1869 -0.6024
17542TIP3    H174041   4.605   5.262  15.957  0.6997  0.6519 -0.7704
17542TIP3    H274042   4.745   5.279  16.011  0.6587  0.8393 -0.7205
17543TIP3   OH274043   2.643   6.080   5.441  0.2340  0.4463 -0.4658
17543TIP3    H174044   2.716   6.134   5.473  0.9016 -0.1212 -1.0103
17543TIP3    H274045   2.582   6.077   5.514  1.0565  0.3840  0.2303
17544TIP3   OH274046   5.538   3.918  14.699  0.4153 -0.0402 -0.3413
17544TIP3    H174047   5.529   3.844  14.759  0.9855 -0.1740 -0.4188
17544TIP3    H274048   5.631   3.939  14.700  0.4587 -0.1544 -1.3064
17545TIP3   OH274049   4.368   2.178  15.591 -0.0361 -0.0900  0.1280
17545TIP3    H174050   4.459   2.196  15.611 -0.1359  0.0673  0.4500
17545TIP3    H274051   4.320   2.203  15.670 -0.3716 -0.0508 -0.0841
17546TIP3   OH274052   0.292   3.186  16.903 -0.7167  0.0931 -0.0809
17546TIP3    H174053   0.286   3.112  16.843 -4.2155 -1.0494  1.3770
17546TIP3    H274054   0.325   3.258  16.850  0.3367 -1.8458 -2.2324
17547TIP3   OH274055   0.613   4.435  17.099 -0.7396  0.3501 -0.6041
17547TIP3    H174056   0.573   4.455  17.015  0.6443 -0.5197 -1.4997
17547TIP3    H274057   0.619   4.520  17.144 -2.3015  0.6917 -0.9746
17548TIP3   OH274058   4.275   3.826  11.787  0.2166 -0.2413  0.1181
17548TIP3    H174059   4.277   3.916  11.819 -0.0250 -0.2615  0.1971
17548TIP3    H274060   4.205   3.826  11.721 -1.6788 -0.9787  2.0073
17549TIP3   OH274061   3.623   1.654   0.858  0.2548 -0.0739  0.0339
17549TIP3    H174062   3.674   1.608   0.792 -0.1561 -1.9939  0.9776
17549TIP3    H274063   3.685   1.668   0.930  0.1004 -0.1585  0.1843
17550TIP3   OH274064   4.242   3.864   5.565 -0.0098 -0.6284 -0.1399
17550TIP3    H174065   4.175   3.931   5.555 -0.8852 -1.6702 -1.5834
17550TIP3    H274066   4.222   3.822   5.648 -1.8505 -1.6363 -1.0374
17551TIP3   OH274067   0.010   2.408   4.581 -0.4126 -0.2332  0.6141
17551TIP3    H174068   0.019   2.444   4.669 -1.1378 -0.5796  0.8374
17551TIP3    H274069   0.003   2.313   4.595 -0.1971 -0.3186  0.1549
17552TIP3   OH274070   3.977   4.323   3.935 -0.5292  0.5949 -0.0524
17552TIP3    H174071   3.982   4.384   3.862 -0.5470  1.6227  0.7812
17552TIP3    H274072   3.967   4.237   3.894 -0.4711  1.1404 -1.2489
17553TIP3   OH274073   1.378   1.264  11.849 -0.2943 -0.1256  0.6037
17553TIP3    H174074   1.371   1.266  11.944  1.2815 -3.5215  0.9505
17553TIP3    H274075   1.471   1.273  11.831 -0.6361  1.1022 -0.6913
17554TIP3   OH274076   1.320   3.730   4.172  0.3176  0.0230  0.1135
17554TIP3    H174077   1.391   3.788   4.198  0.1878 -0.7979  2.5640
17554TIP3    H274078   1.301   3.679   4.251 -2.7478 -0.0534 -0.5781
17555TIP3   OH274079   2.664   4.063  11.710 -0.2504  0.4061  0.2800
17555TIP3    H174080   2.581   4.083  11.754  0.5022  1.6096  1.2088
17555TIP3    H274081   2.638   4.028  11.625 -1.7153  0.5238  0.6543
17556TIP3   OH274082   6.573   2.266  12.892  0.0633 -0.2585  0.4669
17556TIP3    H174083   6.642   2.227  12.838 -0.6493 -0.8580 -0.0391
17556TIP3    H274084   6.560   2.353  12.854  0.7808 -0.0065  0.7887
17557TIP3   OH274085   0.648   6.413  16.593 -0.0959  0.1152  0.0492
17557TIP3    H174086   0.580   6.364  16.548 -0.1709 -0.8657  1.1905
17557TIP3    H274087   0.730   6.373  16.563 -0.1394 -0.4369  0.6547
17558TIP3   OH274088   4.466   5.591   4.938  0.2355 -0.2263  0.3135
17558TIP3    H174089   4.478   5.534   4.863  1.3583  0.8245 -0.3446
17558TIP3    H274090   4.372   5.610   4.940  0.2662  0.2174 -1.2120
17559TIP3   OH274091   1.416   2.995   2.350 -0.2724 -0.6328  0.5484
17559TIP3    H174092   1.351   3.066   2.352 -0.6065 -0.9342  0.7423
17559TIP3    H274093   1.469   3.010   2.428  1.4429  1.0052 -0.8568
17560TIP3   OH274094   2.489   0.801  16.553  0.1150 -0.3482 -0.4201
17560TIP3    H174095   2.445   0.753  16.483 -1.1419 -1.9395  1.3534
17560TIP3    H274096   2.542   0.735  16.598  1.7932  0.8670 -0.4942
17561TIP3   OH274097   1.702   1.597   5.283  0.1786 -0.1761 -0.2921
17561TIP3    H174098   1.628   1.598   5.223  0.5184 -1.5811 -0.7821
17561TIP3    H274099   1.668   1.637   5.363 -0.2874  1.7003 -1.3732
17562TIP3   OH274100   0.751   1.637  14.811  0.0410  0.2086  0.1380
17562TIP3    H174101   0.665   1.648  14.770 -0.9695  0.6124  2.2334
17562TIP3    H274102   0.792   1.565  14.762 -0.2984  1.8106 -2.7095
17563TIP3   OH274103   2.253   2.310  13.499 -0.6043 -0.0149  0.5826
17563TIP3    H174104   2.245   2.393  13.453 -1.3464  0.1211  0.9452
17563TIP3    H274105   2.226   2.244  13.435 -0.4882  0.0661  0.4494
17564TIP3   OH274106   0.379   2.049  15.576  0.3282  0.1285  0.3830
17564TIP3    H174107   0.400   2.018  15.488 -0.8682  0.0200  0.1239
17564TIP3    H274108   0.402   2.142  15.575  0.7926  0.0128  0.1160
17565TIP3   OH274109   4.761   4.640  11.798  0.2706 -0.6296  0.2405
17565TIP3    H174110   4.763   4.652  11.703  0.0234 -0.1583  0.2933
17565TIP3    H274111   4.853   4.647  11.825  0.2583  0.0017  0.1268
17566TIP3   OH274112   4.211   2.064  14.872  0.5085 -0.3056  0.2902
17566TIP3    H174113   4.202   1.989  14.931 -2.9339  2.3398  3.6253
17566TIP3    H274114   4.133   2.060  14.816  1.8668 -0.7299 -1.6900
17567TIP3   OH274115   1.369   4.511   5.648 -0.4920  0.1550 -0.3113
17567TIP3    H174116   1.355   4.606   5.652 -1.0677  0.0387  0.7761
17567TIP3    H274117   1.464   4.501   5.636  0.3279  0.8720  4.0095
17568TIP3   OH274118   5.397   0.867  15.159  0.1615 -0.1985 -0.3866
17568TIP3    H174119   5.477   0.918  15.145  0.4727 -0.9406 -1.4386
17568TIP3    H274120   5.360   0.902  15.239  1.4370  0.3059  0.0077
17569TIP3   OH274121   5.214   1.245  13.326 -0.2128 -0.2237  0.2218
17569TIP3    H174122   5.136   1.296  13.305  0.3574  0.7128  0.3102
17569TIP3    H274123   5.196   1.158  13.290 -1.2516 -0.0008  0.1670
17570TIP3   OH274124   2.900   4.579   4.669  0.6621 -0.2086  0.1503
17570TIP3    H174125   2.929   4.596   4.758 -0.8001  0.6993  0.4961
17570TIP3    H274126   2.805   4.592   4.672  0.3493 -1.8534 -1.1590
17571TIP3   OH274127   1.919   6.413   3.027  0.2602  0.2790 -0.2995
17571TIP3    H174128   1.912   6.501   2.989 -0.4143 -0.2712 -1.5080
17571TIP3    H274129   1.921   6.355   2.951 -0.9683 -0.8577  0.5068
17572TIP3   OH274130   0.037   2.847  15.826 -0.1506  0.5898  0.2236
17572TIP3    H174131  -0.004   2.934  15.830  0.2988  0.8612 -0.7254
17572TIP3    H274132   0.017   2.815  15.738 -0.1023 -0.1604  0.4860
17573TIP3   OH274133   0.208   1.751   1.090  0.1269  0.2483  0.2520
17573TIP3    H174134   0.232   1.729   1.000  1.4153  0.9192  0.4205
17573TIP3    H274135   0.231   1.843   1.100 -2.3895  0.9254  0.5037
17574TIP3   OH274136   6.196   2.039   1.314  0.3271 -0.3070 -0.4365
17574TIP3    H174137   6.121   1.987   1.286 -1.1575 -0.1651  2.8190
17574TIP3    H274138   6.237   1.987   1.383  2.7495  0.0468 -1.5049
17575TIP3   OH274139   0.723   2.854  14.115 -0.2140 -0.1679  0.5601
17575TIP3    H174140   0.635   2.829  14.145 -0.9456  1.7015  0.1339
17575TIP3    H274141   0.772   2.869  14.196 -0.4353 -0.7269  0.8027
17576TIP3   OH274142   0.690   5.933   3.279  0.7753 -0.0901  0.3897
17576TIP3    H174143   0.711   6.026   3.275  0.5532  0.0827  2.3295
17576TIP3    H274144   0.595   5.930   3.289  0.8717 -0.4549  1.3433
17577TIP3   OH274145   4.537   3.455  14.638 -0.0063 -0.3236  0.5361
17577TIP3    H174146   4.452   3.442  14.595 -1.0926  2.0620  1.7633
17577TIP3    H274147   4.559   3.370  14.674 -2.2399 -0.8658  0.7562
17578TIP3   OH274148   1.148   1.937   5.382  0.5323  0.0412 -0.2334
17578TIP3    H174149   1.231   1.981   5.362  2.6818 -2.8769  1.4344
17578TIP3    H274150   1.123   1.971   5.468 -0.2968  1.2372 -0.9226
17579TIP3   OH274151   4.414   2.777  16.621 -0.0929 -0.0097 -0.3631
17579TIP3    H174152   4.427   2.721  16.544  1.9165 -0.5935  0.3266
17579TIP3    H274153   4.346   2.733  16.672  1.3874 -1.8635  0.1242
17580TIP3   OH274154   3.946   3.789  11.333 -0.2522 -0.2316  0.1681
17580TIP3    H174155   3.863   3.779  11.286 -0.6048  1.5356  0.3738
17580TIP3    H274156   4.011   3.751  11.273 -1.0071 -0.3112 -0.6354
17581TIP3   OH274157   5.653   2.519   6.682  0.4679 -0.5995  0.5648
17581TIP3    H174158   5.639   2.448   6.745  0.0709 -0.3661  0.7385
17581TIP3    H274159   5.589   2.586   6.706 -0.1309 -0.7724 -0.4731
17582TIP3   OH274160   1.166   1.896  14.478 -0.0195  0.3462  0.0259
17582TIP3    H174161   1.180   1.880  14.385  0.3117 -1.8813  0.4163
17582TIP3    H274162   1.253   1.894  14.517 -0.2307  0.3894  0.5151
17583TIP3   OH274163   5.225   1.556  12.892  0.7889 -0.1982 -0.0087
17583TIP3    H174164   5.156   1.504  12.934 -0.1336 -0.1265 -1.3599
17583TIP3    H274165   5.295   1.493  12.875  0.9085 -0.3590  1.0244
17584TIP3   OH274166   5.167   1.040  10.937  0.5671 -0.3220  0.1720
17584TIP3    H174167   5.076   1.050  10.909  0.3884 -0.9207  0.5291
17584TIP3    H274168   5.207   1.126  10.920 -0.0856 -0.0286  0.1025
17585TIP3   OH274169   3.942   2.835  15.727 -0.7490 -0.1567  0.1382
17585TIP3    H174170   3.894   2.899  15.779 -0.1772 -3.3235  5.2241
17585TIP3    H274171   4.034   2.860  15.736 -0.7024 -0.1669 -0.2663
17586TIP3   OH274172   3.668   5.423   1.636  0.2720 -0.4020  0.1330
17586TIP3    H174173   3.577   5.400   1.618  0.3661 -0.8060  0.1473
17586TIP3    H274174   3.671   5.518   1.630  0.2007 -0.4763 -1.4863
17587TIP3   OH274175   6.538   0.819   1.001  0.1373  0.0385  1.1328
17587TIP3    H174176   6.604   0.761   1.039  2.3547  1.1703 -0.7456
17587TIP3    H274177   6.514   0.776   0.918 -1.7194 -0.4632  1.8855
17588TIP3   OH274178   6.643   2.614   2.955 -0.4165  0.2108 -0.2754
17588TIP3    H174179   6.640   2.707   2.976 -0.7322 -0.2128  1.8071
17588TIP3    H274180   6.551   2.588   2.948 -0.4816 -0.4587  2.0538
17589TIP3   OH274181   6.475   2.223   1.805 -0.1979 -0.5013  0.0076
17589TIP3    H174182   6.527   2.203   1.882  0.3711  1.7299  0.2796
17589TIP3    H274183   6.394   2.261   1.840  0.2887  1.0421 -0.4292
17590TIP3   OH274184   2.157   4.149   0.610 -0.0190  0.3784  0.2215
17590TIP3    H174185   2.096   4.181   0.543 -0.0312 -0.0850  0.0058
17590TIP3    H274186   2.210   4.084   0.564  0.7346  0.8857  0.3739
17591TIP3   OH274187   6.431   4.413  12.843 -0.0869  0.1487  0.2533
17591TIP3    H174188   6.435   4.431  12.749  2.1785  1.6146  0.5695
17591TIP3    H274189   6.455   4.496  12.884  0.1828 -0.8002  2.1006
17592TIP3   OH274190   5.177   0.006   6.475  0.0624  0.3676  0.2964
17592TIP3    H174191   5.135  -0.008   6.560 -1.2430  3.1260  0.2240
17592TIP3    H274192   5.112  -0.023   6.411  0.6281 -0.7375  0.2075
17593TIP3   OH274193   4.214   2.507  11.352 -0.0541 -0.3808 -0.0586
17593TIP3    H174194   4.133   2.457  11.343 -2.1010  2.7219 -0.6099
17593TIP3    H274195   4.233   2.539  11.264  0.2980  0.9526  0.4691
17594TIP3   OH274196   4.819   3.060   3.467  0.3397  0.2054 -0.3938
17594TIP3    H174197   4.770   2.996   3.416  0.3416  0.7736 -1.1353
17594TIP3    H274198   4.756   3.096   3.528  0.1592  0.0045 -0.4623
17595TIP3   OH274199   0.551   3.208  10.792  0.1916 -0.0477  0.0339
17595TIP3    H174200   0.619   3.191  10.858 -1.8879 -1.1072  2.0707
17595TIP3    H274201   0.571   3.147  10.721  0.1644 -2.0417  1.6141
17596TIP3   OH274202   1.296   5.868   2.105 -0.1261 -0.1900  0.2574
17596TIP3    H174203   1.281   5.832   2.018 -2.2086  0.3039  0.3529
17596TIP3    H274204   1.237   5.819   2.162  1.5230 -0.8178  1.5108
17597TIP3   OH274205   0.388   3.146  11.951  0.6568  0.3432 -0.0425
17597TIP3    H174206   0.334   3.080  11.909 -0.4603  0.9945  0.3320
17597TIP3    H274207   0.436   3.099  12.020 -1.9784  0.2733  1.8992
17598TIP3   OH274208   5.415   1.538   0.149 -0.1012  0.2722  0.3122
17598TIP3    H174209   5.386   1.564   0.062 -0.6576  0.3846  0.5276
17598TIP3    H274210   5.349   1.476   0.179  0.8231 -0.8445  0.0995
17599TIP3   OH274211   5.706   5.281  15.092 -0.2438  0.3459  0.3267
17599TIP3    H174212   5.747   5.233  15.163 -0.6589 -1.3772 -0.5427
17599TIP3    H274213   5.776   5.296  15.028 -0.3169  0.0770  0.1839
17600TIP3   OH274214   4.585   3.113  15.492  0.8230 -0.3948 -0.1684
17600TIP3    H174215   4.512   3.055  15.514  1.3339 -0.9061  0.2072
17600TIP3    H274216   4.544   3.198  15.477 -0.0867 -1.0808 -1.8766
17601TIP3   OH274217   5.099   3.973  11.819 -0.3878  0.0521 -0.3247
17601TIP3    H174218   5.171   3.955  11.759  0.7370 -0.0694  1.0056
17601TIP3    H274219   5.037   3.902  11.805 -0.3367  0.2372 -1.5918
17602TIP3   OH274220   6.160   2.265  13.620  0.3903 -0.0090 -0.2171
17602TIP3    H174221   6.202   2.222  13.546  1.7782  0.0759  0.4908
17602TIP3    H274222   6.073   2.225  13.624  1.0893 -1.6720 -0.5118
17603TIP3   OH274223   0.242   0.779  15.568  0.1569 -0.5079 -0.3251
17603TIP3    H174224   0.191   0.699  15.556  0.1564 -0.4849 -0.4846
17603TIP3    H274225   0.249   0.816  15.480  0.0359 -0.2593 -0.2309
17604TIP3   OH274226   2.889   5.557  11.409 -0.4027 -0.1911  0.2488
17604TIP3    H174227   2.983   5.558  11.427 -0.1493  1.0328 -0.9431
17604TIP3    H274228   2.864   5.465  11.417  0.7286 -0.4448  1.3128
17605TIP3   OH274229   1.997   4.353   0.491  0.1812 -0.3040 -0.1171
17605TIP3    H174230   1.916   4.314   0.525 -1.0989  3.4665  1.7825
17605TIP3    H274231   1.975   4.382   0.403 -0.2501 -0.1469  0.0397
17606TIP3   OH274232   3.175   4.421   6.039  0.1301  0.2951 -0.6812
17606TIP3    H174233   3.081   4.428   6.021 -0.0313 -0.8557 -0.3857
17606TIP3    H274234   3.198   4.333   6.008  1.5566  1.3115 -2.6665
17607TIP3   OH274235   0.965   3.534  16.660  0.1837  0.3727  0.8086
17607TIP3    H174236   0.916   3.564  16.583  0.4812 -0.4014  0.2957
17607TIP3    H274237   0.945   3.441  16.666  1.2404  0.1294  0.8324
17608TIP3   OH274238   6.383   4.951  11.078  0.0269  0.1174  0.6160
17608TIP3    H174239   6.294   4.917  11.087 -0.5106  1.7802  2.5629
17608TIP3    H274240   6.435   4.875  11.052 -1.6486 -1.3623  1.3074
17609TIP3   OH274241   3.060   2.477   5.728 -0.9637 -0.8524  0.3163
17609TIP3    H174242   3.137   2.424   5.705 -0.5242 -0.1157  0.0730
17609TIP3    H274243   3.068   2.490   5.823  0.0664  0.5199  0.0704
17610TIP3   OH274244   1.710   3.594  17.028  0.1088 -0.0070  0.2096
17610TIP3    H174245   1.794   3.638  17.026  1.0092 -1.6450 -1.9964
17610TIP3    H274246   1.666   3.623  16.948 -0.6280 -0.6002  0.3882
17611TIP3   OH274247   1.656   4.347   5.526  0.5464 -0.2403 -0.2760
17611TIP3    H174248   1.591   4.291   5.485  0.5733 -1.2887  1.0319
17611TIP3    H274249   1.640   4.338   5.620  0.6765  1.8109  0.0053
17612TIP3   OH274250   3.288   1.869  15.061 -0.4552  0.0970 -0.1635
17612TIP3    H174251   3.240   1.864  15.144  0.3055 -2.1396  0.2008
17612TIP3    H274252   3.247   1.802  15.006 -0.2790  0.8626 -1.2598
17613TIP3   OH274253   1.439   1.453   2.172  0.1082 -0.1357  0.1938
17613TIP3    H174254   1.347   1.427   2.177  0.2989 -1.4255 -1.9035
17613TIP3    H274255   1.481   1.383   2.124  2.2026  0.5006  1.0047
17614TIP3   OH274256   1.862   2.694  11.118 -0.4878 -0.9750 -0.2952
17614TIP3    H174257   1.838   2.785  11.099 -1.0858 -1.4621 -2.0222
17614TIP3    H274258   1.827   2.678  11.206  1.1235  0.9566  0.7748
17615TIP3   OH274259   5.071   1.003   4.974  0.1584  0.0778  0.5061
17615TIP3    H174260   5.117   0.968   5.050 -0.4231 -0.7206  0.5002
17615TIP3    H274261   5.135   0.998   4.902  1.1977  2.1449  1.2071
17616TIP3   OH274262   4.863   5.100   2.047 -0.4710 -0.4117 -0.2672
17616TIP3    H174263   4.941   5.046   2.058 -0.3916 -0.2595 -0.0783
17616TIP3    H274264   4.896   5.189   2.037 -0.4533 -0.6474 -2.9316
17617TIP3   OH274265   3.199   4.132  16.201 -0.5005  0.4710  0.2236
17617TIP3    H174266   3.152   4.100  16.278  0.4449  0.0032  0.6128
17617TIP3    H274267   3.286   4.154  16.233  0.1478 -0.4537 -0.8505
17618TIP3   OH274268   6.488   2.205   3.741  0.3858 -0.2110  0.5460
17618TIP3    H174269   6.397   2.233   3.737  0.2694 -0.2951  2.0646
17618TIP3    H274270   6.517   2.230   3.829  1.2547 -1.8649  0.7741
17619TIP3   OH274271   3.191   5.114   0.811 -0.8643 -0.6188 -0.3547
17619TIP3    H174272   3.254   5.104   0.740  1.5395 -0.5003  1.5937
17619TIP3    H274273   3.178   5.025   0.845 -0.0045 -0.4087  0.5850
17620TIP3   OH274274   5.256   5.008  12.947 -0.2689  0.0354  0.6273
17620TIP3    H174275   5.350   5.017  12.961 -0.0907 -0.0054 -0.4430
17620TIP3    H274276   5.233   5.082  12.891 -0.8618  0.0071  0.8303
17621TIP3   OH274277   3.892   3.767  12.946 -0.0593 -0.1382 -0.2351
17621TIP3    H174278   3.856   3.704  12.884  0.2415  0.3806 -0.9393
17621TIP3    H274279   3.826   3.837  12.951 -1.4995 -1.4893  2.2479
17622TIP3   OH274280   0.883   6.511   6.075  0.0982  0.4431  0.8425
17622TIP3    H174281   0.945   6.582   6.061  0.8073  0.2109  2.5762
17622TIP3    H274282   0.922   6.458   6.144 -1.8285  0.0397  1.6972
17623TIP3   OH274283   2.287   6.277  17.235  0.4577  0.3674  0.3950
17623TIP3    H174284   2.238   6.197  17.218  0.5684  0.4399 -0.2929
17623TIP3    H274285   2.257   6.306  17.321 -0.2628  0.0867  0.2414
17624TIP3   OH274286   2.959   3.080   1.345  0.2575 -0.2438  0.0257
17624TIP3    H174287   2.969   3.016   1.416  1.0748 -0.2906 -0.1213
17624TIP3    H274288   2.888   3.045   1.291 -1.7060  0.7395  1.8239
17625TIP3   OH274289   0.792   2.476  16.446 -0.0581  0.3117  0.0543
17625TIP3    H174290   0.723   2.457  16.510 -0.4533 -1.9385 -0.9385
17625TIP3    H274291   0.872   2.484  16.498 -0.6060  0.0928  0.9616
17626TIP3   OH274292   2.452   1.473   0.218  0.2346  0.2153  0.1559
17626TIP3    H174293   2.380   1.425   0.178 -0.9696 -0.4306  2.8467
17626TIP3    H274294   2.530   1.437   0.178 -0.8631  0.0148 -1.9220
17627TIP3   OH274295   3.482   5.752   1.713 -0.4476  0.3679  0.2067
17627TIP3    H174296   3.419   5.800   1.658  1.4117  1.9643 -0.6399
17627TIP3    H274297   3.499   5.672   1.665 -1.6601 -0.0079  0.3582
17628TIP3   OH274298   4.766   1.657   0.166 -0.0715 -0.2000  0.0231
17628TIP3    H174299   4.806   1.578   0.203 -1.6016 -1.2765 -0.4842
17628TIP3    H274300   4.673   1.648   0.187 -0.1964  1.8466  0.5565
17629TIP3   OH274301   1.102   2.217  15.576  0.1527  0.0637 -0.2317
17629TIP3    H174302   1.094   2.312  15.587 -2.2410 -0.2058  1.1378
17629TIP3    H274303   1.130   2.185  15.662  0.3082 -0.5227 -0.4942
17630TIP3   OH274304   1.338   2.863   3.625  0.1571  1.0077 -0.3873
17630TIP3    H174305   1.325   2.832   3.715  0.5479  0.2443 -0.5812
17630TIP3    H274306   1.262   2.918   3.607 -0.9647 -0.4479 -0.2656
17631TIP3   OH274307   1.173   1.135   2.792  0.4665 -0.3879  0.1484
17631TIP3    H174308   1.093   1.127   2.844  0.2171 -0.5502 -0.2625
17631TIP3    H274309   1.183   1.050   2.750  0.4772 -0.1424 -0.3535
17632TIP3   OH274310   4.183   6.079  10.774 -0.3631  0.2957 -0.8165
17632TIP3    H174311   4.261   6.118  10.736  0.0408 -0.7671 -1.1369
17632TIP3    H274312   4.212   5.994  10.807 -1.1296  0.3856  0.1487
17633TIP3   OH274313   5.590   4.240  13.811  0.3475  0.1394 -0.0065
17633TIP3    H174314   5.631   4.324  13.833  1.4019 -0.4204  0.2284
17633TIP3    H274315   5.567   4.201  13.895  1.0975 -0.3922 -0.0306
17634TIP3   OH274316   0.318   0.989   2.016 -1.2134  0.0430 -0.1531
17634TIP3    H174317   0.277   0.918   2.066 -1.7316  1.4299  1.4889
17634TIP3    H274318   0.267   0.993   1.934 -0.6680 -1.9456 -0.6466
17635TIP3   OH274319   6.072   5.217   1.980  0.3572 -0.3042 -0.3056
17635TIP3    H174320   6.022   5.298   1.981  2.6570  1.1922  0.8148
17635TIP3    H274321   6.101   5.205   2.070  0.8505 -1.8588 -0.6338
17636TIP3   OH274322   4.789   5.023  16.364  0.1969  1.1962 -0.0518
17636TIP3    H174323   4.722   5.072  16.317  0.0332  1.7897  0.7645
17636TIP3    H274324   4.871   5.047  16.321  0.1393  2.3749  0.4564
17637TIP3   OH274325   6.271   5.369   3.627 -0.2094  0.6073 -0.0400
17637TIP3    H174326   6.184   5.385   3.592 -0.4189 -0.2320  0.0821
17637TIP3    H274327   6.321   5.447   3.604 -0.5687  0.4356 -1.4706
17638TIP3   OH274328   0.357   5.144  16.850  0.5658 -0.2983  0.1260
17638TIP3    H174329   0.308   5.063  16.834 -0.2511 -0.0102  1.0967
17638TIP3    H274330   0.394   5.133  16.937  1.5184 -0.1404 -0.2432
17639TIP3   OH274331   0.427   0.018   5.166 -0.1787  0.3892  0.1201
17639TIP3    H174332   0.436  -0.040   5.091 -1.9135  1.1211 -0.7157
17639TIP3    H274333   0.447  -0.037   5.242 -0.9297 -1.0744 -0.6982
17640TIP3   OH274334   4.707   5.866  15.435  0.2862  0.1261  0.0715
17640TIP3    H174335   4.685   5.957  15.420  1.1194  0.4784  0.8700
17640TIP3    H274336   4.802   5.862  15.426  0.1044 -1.0693 -1.9417
17641TIP3   OH274337   2.973   4.035   2.881 -0.2426 -0.2725  0.2197
17641TIP3    H174338   2.931   4.007   2.800  0.3349 -2.3267  0.5723
17641TIP3    H274339   3.037   4.100   2.854  0.1404 -1.1392 -1.0256
17642TIP3   OH274340   2.239   1.133   3.740 -0.1668  0.4830 -0.2362
17642TIP3    H174341   2.246   1.186   3.661 -0.8608 -0.0218 -0.6400
17642TIP3    H274342   2.302   1.062   3.727  0.6531  1.0986  0.2394
17643TIP3   OH274343   6.165   6.465   1.365 -0.2961  0.1742 -0.0933
17643TIP3    H174344   6.122   6.473   1.451 -2.8926 -0.4122 -1.2392
17643TIP3    H274345   6.106   6.510   1.305  0.4481 -1.1312 -1.8780
17644TIP3   OH274346   4.347   1.215   3.439 -0.0879  0.6706  0.2497
17644TIP3    H174347   4.380   1.301   3.414  2.0967  0.1280  1.0142
17644TIP3    H274348   4.409   1.185   3.506  0.0087 -2.0435 -0.9323
17645TIP3   OH274349   2.251   3.944   4.414  0.3234  0.0017 -0.2019
17645TIP3    H174350   2.181   3.994   4.371 -0.1290  0.6963  1.2746
17645TIP3    H274351   2.281   4.001   4.484  1.0752 -1.0757  0.3715
17646TIP3   OH274352   3.119   2.162   0.440  0.5484 -0.4267  0.2293
17646TIP3    H174353   3.141   2.077   0.480 -1.0346 -1.1319 -0.3069
17646TIP3    H274354   3.030   2.179   0.470  0.4351  0.4847 -0.6164
17647TIP3   OH274355   3.739   6.695   0.097  0.7031  0.2305 -0.5204
17647TIP3    H174356   3.745   6.762   0.165 -1.6071  0.5385 -0.5383
17647TIP3    H274357   3.771   6.615   0.139 -2.0837  0.0439  1.5575
17648TIP3   OH274358   6.226   5.365  16.972  0.1882  0.0137 -0.5769
17648TIP3    H174359   6.168   5.380  16.897 -0.2384 -0.9792 -0.4571
17648TIP3    H274360   6.185   5.295  17.021  0.2957  0.8653  0.7917
17649TIP3   OH274361   3.412   5.447  13.966  0.0083  0.3117  0.0464
17649TIP3    H174362   3.324   5.450  13.929 -0.5455  0.3172  1.3184
17649TIP3    H274363   3.470   5.459  13.891 -1.1079  1.5251 -0.6583
17650TIP3   OH274364   2.721   2.648   5.752 -0.0878 -0.3083  0.1598
17650TIP3    H174365   2.814   2.652   5.773 -0.1745  1.6676  0.4196
17650TIP3    H274366   2.678   2.686   5.829 -1.1385 -1.4031  0.1380
17651TIP3   OH274367   3.735   0.239   0.999 -0.1739 -0.0326 -0.1330
17651TIP3    H174368   3.763   0.249   0.908  0.5046  1.3483  0.1875
17651TIP3    H274369   3.653   0.287   1.005 -0.2355 -0.1498 -0.0374
17652TIP3   OH274370   0.458   6.119   2.236  0.1966  0.2959  0.1585
17652TIP3    H174371   0.540   6.150   2.275  1.9352 -1.7257 -1.6481
17652TIP3    H274372   0.437   6.184   2.169  0.7545  0.4417  0.1194
17653TIP3   OH274373   2.096   0.234  14.236  0.4304 -0.5181  0.0118
17653TIP3    H174374   2.182   0.261  14.204 -0.1574  0.5968 -0.7149
17653TIP3    H274375   2.060   0.182  14.164 -0.2482  0.6446 -0.5348
17654TIP3   OH274376   1.926   2.731   3.741  0.4251  0.3659 -0.1119
17654TIP3    H174377   1.915   2.728   3.836  0.6714  0.3630 -0.0835
17654TIP3    H274378   1.874   2.657   3.709 -0.4676  0.9601 -0.0567
17655TIP3   OH274379   5.966   6.210  13.332 -0.4272  0.2247  0.1964
17655TIP3    H174380   5.886   6.228  13.281 -0.0731 -0.0656 -0.4767
17655TIP3    H274381   5.951   6.122  13.368 -0.3532  0.1153 -0.0398
17656TIP3   OH274382   2.448   3.163  14.698  0.5156  0.0328  0.2462
17656TIP3    H174383   2.427   3.157  14.604  0.3548 -2.2188  0.3835
17656TIP3    H274384   2.366   3.141  14.742  1.0920 -0.8616  0.8881
17657TIP3   OH274385   2.708   0.583   0.534  0.1305 -0.3137  0.7283
17657TIP3    H174386   2.746   0.496   0.521  0.7638  0.3287 -2.5420
17657TIP3    H274387   2.628   0.583   0.482 -0.7294  0.5703  2.0020
17658TIP3   OH274388   2.503   5.131   1.605 -0.0908 -0.3229  0.1805
17658TIP3    H174389   2.414   5.137   1.572  0.0909 -0.5838 -0.3714
17658TIP3    H274390   2.553   5.194   1.552  0.2362 -0.8691 -0.1799
17659TIP3   OH274391   1.694   6.599  11.638 -0.3768 -0.4199 -0.3522
17659TIP3    H174392   1.693   6.694  11.626 -3.5227 -0.4265 -0.8004
17659TIP3    H274393   1.671   6.564  11.552 -0.8144 -1.5259  0.1996
17660TIP3   OH274394   2.144   2.377   1.654  0.6161  0.8447 -0.1439
17660TIP3    H174395   2.069   2.432   1.631  0.1016 -0.2973 -1.3434
17660TIP3    H274396   2.215   2.408   1.597  0.8710  1.4652  0.4972
17661TIP3   OH274397   6.193   6.228   5.458  0.6743 -0.4686  0.6140
17661TIP3    H174398   6.221   6.194   5.373 -0.7299 -1.1774  0.4078
17661TIP3    H274399   6.169   6.150   5.508 -0.9447  0.0848  0.7514
17662TIP3   OH274400   4.960   1.510  12.381 -0.6123  0.5709  1.1130
17662TIP3    H174401   4.949   1.469  12.467 -2.5467 -0.3682  0.4603
17662TIP3    H274402   5.016   1.586  12.398  2.3204 -1.7057  2.5372
17663TIP3   OH274403   0.222   1.684   2.894 -0.4519 -0.0837  0.4085
17663TIP3    H174404   0.253   1.645   2.812 -1.6846 -0.0054 -0.1178
17663TIP3    H274405   0.179   1.611   2.939  1.3536 -0.4587  1.6246
17664TIP3   OH274406   5.699   4.189   6.678 -0.1031  0.1608  0.3194
17664TIP3    H174407   5.628   4.253   6.682 -0.9896 -0.8443  2.7986
17664TIP3    H274408   5.659   4.113   6.636  0.3349  0.4980 -0.7329
17665TIP3   OH274409   3.903   2.133  13.885  0.0361  0.1533  0.0018
17665TIP3    H174410   3.815   2.144  13.921  0.7754  3.3144  1.1208
17665TIP3    H274411   3.895   2.164  13.795  0.1201  1.1059  0.3129
17666TIP3   OH274412   3.554   0.662   0.872  0.0987  0.0107  0.3596
17666TIP3    H174413   3.516   0.576   0.891  1.5822 -0.1995  2.7338
17666TIP3    H274414   3.503   0.723   0.925  0.5462  0.2582  0.5126
17667TIP3   OH274415   5.405   1.454   4.058  0.3372 -0.1410  0.0178
17667TIP3    H174416   5.370   1.527   4.109 -0.0427  0.0707 -0.5395
17667TIP3    H274417   5.328   1.407   4.027  0.5718 -0.4454 -0.1028
17668TIP3   OH274418   1.395   6.632   1.079  0.0990  0.9872  0.3850
17668TIP3    H174419   1.479   6.616   1.122  0.6640 -0.2932 -1.0965
17668TIP3    H274420   1.356   6.545   1.070 -0.2311  1.2728 -1.1587
17669TIP3   OH274421   4.646   2.785  13.018 -0.3262 -0.1406 -0.0267
17669TIP3    H174422   4.727   2.743  12.988 -0.8987 -2.6998  1.7276
17669TIP3    H274423   4.643   2.767  13.112 -2.7804  0.1573  0.0096
17670TIP3   OH274424   0.245   3.158   4.093  0.0749 -0.2346  0.0538
17670TIP3    H174425   0.211   3.087   4.148 -1.1246  1.4460  1.5933
17670TIP3    H274426   0.216   3.238   4.137  0.9977  1.2215 -1.8663
17671TIP3   OH274427   2.332   2.858   5.895 -0.5727  0.1024  0.1567
17671TIP3    H174428   2.337   2.929   5.830 -0.9380 -1.3451 -1.5379
17671TIP3    H274429   2.274   2.892   5.963 -1.1120  1.2554 -0.8446
17672TIP3   OH274430   3.425   3.238   1.779 -0.7921  0.0700  0.4301
17672TIP3    H174431   3.421   3.148   1.811  2.0014 -0.0817  0.5855
17672TIP3    H274432   3.513   3.268   1.801 -1.5758  2.8191  0.2499
17673TIP3   OH274433   2.328   6.725  12.264 -0.0302 -0.0840  0.0700
17673TIP3    H174434   2.284   6.810  12.270  0.5703  0.1781  0.9972
17673TIP3    H274435   2.400   6.731  12.327  0.9537 -0.7291 -0.9541
17674TIP3   OH274436   2.407   0.917   0.021  0.4713 -0.6213 -0.7171
17674TIP3    H174437   2.463   0.943  -0.052  2.0145 -0.1695  0.5730
17674TIP3    H274438   2.466   0.872   0.081  0.0482  1.9343  1.8159
17675TIP3   OH274439   2.436   6.062  14.402 -0.2836  0.3466  0.3104
17675TIP3    H174440   2.458   6.109  14.481  0.7487  1.3256 -0.5238
17675TIP3    H274441   2.354   6.100  14.372  0.0511  0.9666  0.1642
17676TIP3   OH274442   1.323   4.106   0.784 -0.0796 -0.1804  0.3307
17676TIP3    H174443   1.374   4.036   0.743 -0.5756  0.0060 -0.6325
17676TIP3    H274444   1.389   4.162   0.825  0.4026 -0.6184  0.1714
17677TIP3   OH274445   4.189   3.067   1.053  0.0771 -0.2251  0.1141
17677TIP3    H174446   4.211   2.999   0.989  0.8117 -0.0885  0.2154
17677TIP3    H274447   4.274   3.104   1.078 -0.2858  0.3976  0.4234
17678TIP3   OH274448   2.966   2.960   3.548  0.6693 -0.6653  0.4426
17678TIP3    H174449   2.907   2.970   3.623 -0.8868 -3.4888 -0.2626
17678TIP3    H274450   2.911   2.980   3.472  1.4538 -0.5686 -0.1096
17679TIP3   OH274451   4.774   3.641  14.128 -0.2155 -0.3300  0.0054
17679TIP3    H174452   4.833   3.591  14.072  1.6525  1.6849  0.0332
17679TIP3    H274453   4.821   3.649  14.211 -0.1746  1.8467 -0.1707
17680TIP3   OH274454   2.669   2.326  11.958 -0.7190  0.1825  0.5269
17680TIP3    H174455   2.730   2.325  11.885  0.5943  1.9283  1.5364
17680TIP3    H274456   2.584   2.305  11.918 -0.0065  0.8378 -1.4554
17681TIP3   OH274457   3.599   4.275  12.663 -0.1834 -0.2267 -0.3904
17681TIP3    H174458   3.653   4.351  12.685 -0.3541  0.1885 -1.3390
17681TIP3    H274459   3.576   4.288  12.571 -0.9109 -1.0058 -0.3325
17682TIP3   OH274460   2.800   1.635   5.304 -0.1644  0.0045  0.4555
17682TIP3    H174461   2.803   1.728   5.325  0.9392  0.4068 -1.2523
17682TIP3    H274462   2.742   1.597   5.369 -0.7562  1.9129  1.0970
17683TIP3   OH274463   1.914   4.246   4.900 -0.0750 -0.0023 -0.0378
17683TIP3    H174464   1.868   4.313   4.848  0.4514  0.4175  0.0331
17683TIP3    H274465   1.975   4.206   4.839  0.6656  0.6091  0.2944
17684TIP3   OH274466   5.364   3.157  10.794  0.3328  0.3195  0.3580
17684TIP3    H174467   5.440   3.163  10.736  0.2240  0.1943  0.2007
17684TIP3    H274468   5.313   3.236  10.776 -0.7594 -0.6799 -1.2344
17685TIP3   OH274469   5.161   2.891  17.396 -0.0746  0.7825  0.0521
17685TIP3    H174470   5.164   2.974  17.347 -1.0294  1.4845  1.1162
17685TIP3    H274471   5.078   2.852  17.370 -0.5534  1.1264  1.0307
17686TIP3   OH274472   1.054   4.168  15.116  0.5057  0.0281  0.2029
17686TIP3    H174473   1.039   4.118  15.196  0.3578  0.6844  0.5968
17686TIP3    H274474   1.010   4.118  15.047  1.0411 -0.7918  0.4392
17687TIP3   OH274475   1.311   1.955   5.021  0.0006  0.3650 -0.6718
17687TIP3    H174476   1.260   2.036   5.032  1.2291  1.3004 -1.5221
17687TIP3    H274477   1.253   1.886   5.051 -1.0058  1.5891  0.3290
17688TIP3   OH274478   0.760   3.104   4.782 -0.3916 -0.1235 -0.3401
17688TIP3    H174479   0.850   3.120   4.753 -0.1901 -0.6326 -0.0229
17688TIP3    H274480   0.762   3.119   4.876 -0.3602 -1.2285 -0.1482
17689TIP3   OH274481   4.476   5.987  11.874 -0.7670  0.9552 -0.0531
17689TIP3    H174482   4.417   5.942  11.934 -0.7924 -0.2340 -0.9240
17689TIP3    H274483   4.419   6.018  11.803 -0.1517 -3.1082 -2.6609
17690TIP3   OH274484   5.228   4.730  12.846 -0.4176 -0.4706 -0.4787
17690TIP3    H174485   5.174   4.708  12.770 -2.4122  0.0881  0.7344
17690TIP3    H274486   5.211   4.823  12.861  0.7790 -0.3167  0.0506
17691TIP3   OH274487   0.358   0.161  13.659 -0.9854  0.6467  0.8490
17691TIP3    H174488   0.285   0.106  13.686 -0.6276 -1.1820 -1.6283
17691TIP3    H274489   0.366   0.147  13.565  2.8321  0.3707  1.0551
17692TIP3   OH274490   3.574   0.052   4.621  0.2125 -0.2113 -0.3258
17692TIP3    H174491   3.598   0.006   4.541  0.4110  1.1451 -1.0779
17692TIP3    H274492   3.608   0.141   4.609  1.5184 -0.3386  1.8738
17693TIP3   OH274493   3.952   4.928  15.252  0.2605 -0.3801  0.6394
17693TIP3    H174494   3.957   4.905  15.159  2.0129 -1.2967  0.8993
17693TIP3    H274495   3.919   5.018  15.253  0.8316 -0.1113 -0.9247
17694TIP3   OH274496   3.078   6.608   4.500  0.2681 -0.2424  0.3379
17694TIP3    H174497   3.109   6.570   4.418  0.7537  0.0050  0.4055
17694TIP3    H274498   3.066   6.533   4.558  0.8327 -0.3296  0.3416
17695TIP3   OH274499   4.110   2.721  17.070  0.0442  0.4843  0.6375
17695TIP3    H174500   4.189   2.771  17.091  0.4515 -0.4264  1.3295
17695TIP3    H274501   4.083   2.754  16.984  1.5018  0.4062  0.1220
17696TIP3   OH274502   0.291   4.514   4.877  0.7277  0.4332 -0.2895
17696TIP3    H174503   0.342   4.463   4.814 -0.0638  0.5540 -1.0513
17696TIP3    H274504   0.328   4.492   4.962  1.3157 -0.3239 -0.7303
17697TIP3   OH274505   1.265   6.582  16.058 -0.4164  0.5501  0.5650
17697TIP3    H174506   1.346   6.631  16.049 -0.5157  1.1645  2.5734
17697TIP3    H274507   1.287   6.510  16.117 -0.7466 -0.7681 -0.8535
17698TIP3   OH274508   3.389   1.054  13.047  0.2455 -0.7984  0.1767
17698TIP3    H174509   3.373   1.115  12.975  1.9096 -2.6045 -1.8202
17698TIP3    H274510   3.302   1.035  13.082 -0.5592  0.4362 -1.0671
17699TIP3   OH274511   1.062   0.211  17.309 -0.1461 -0.0142  0.7347
17699TIP3    H174512   1.030   0.184  17.223 -1.4002  2.2261  0.4050
17699TIP3    H274513   1.020   0.151  17.371 -0.4337 -0.6945 -0.1031
17700TIP3   OH274514   0.309   5.112   2.041 -0.5340  0.2403  0.0013
17700TIP3    H174515   0.223   5.152   2.027 -0.4451  0.2778 -0.4411
17700TIP3    H274516   0.301   5.069   2.127 -0.5356  1.4207  0.6037
17701TIP3   OH274517   2.641   3.294   5.747  0.2810 -0.5846  0.1281
17701TIP3    H174518   2.594   3.377   5.736  2.1510  0.3744 -1.0870
17701TIP3    H274519   2.651   3.260   5.658 -0.8305 -2.3925  0.6269
17702TIP3   OH274520   1.577   0.833  14.057  0.0728  0.7639 -0.2119
17702TIP3    H174521   1.631   0.889  14.002  1.3686 -1.2533 -1.0963
17702TIP3    H274522   1.537   0.770  13.997  0.1146 -0.3920  0.9143
17703TIP3   OH274523   2.624   1.808  10.867  0.2697 -0.3807  0.0167
17703TIP3    H174524   2.643   1.714  10.871 -1.0064 -0.7069 -1.0454
17703TIP3    H274525   2.698   1.849  10.913  0.4666 -1.9290  1.1638
17704TIP3   OH274526   5.735   1.527  11.920  0.5239  0.6531 -0.2986
17704TIP3    H174527   5.655   1.551  11.873 -0.5987 -0.0305  1.1732
17704TIP3    H274528   5.730   1.431  11.927  1.0970  0.6648  0.4311
17705TIP3   OH274529   3.126   6.311  14.647 -0.1282  0.2702 -0.8836
17705TIP3    H174530   3.190   6.247  14.615 -0.4646 -0.3170 -0.4096
17705TIP3    H274531   3.144   6.318  14.740 -1.0281 -0.2285 -0.6608
17706TIP3   OH274532   4.188   1.230  14.118 -0.2107  0.1004 -1.3451
17706TIP3    H174533   4.132   1.158  14.147 -0.0444  0.8408  1.0760
17706TIP3    H274534   4.277   1.201  14.136  0.2231 -0.6938 -4.3103
17707TIP3   OH274535   2.009   6.075   5.327 -0.7476  0.0761  0.5317
17707TIP3    H174536   2.004   6.001   5.267  0.6200  1.5694 -1.5531
17707TIP3    H274537   2.065   6.139   5.282  0.8261  1.0777  3.6492
17708TIP3   OH274538   1.365   5.303   6.310 -0.2270 -0.0260  0.0767
17708TIP3    H174539   1.370   5.367   6.239 -0.0371  0.2866  0.3657
17708TIP3    H274540   1.366   5.356   6.390 -1.1711 -0.3279  0.3006
17709TIP3   OH274541   3.744   6.455   2.189  0.3949  0.0279 -0.1108
17709TIP3    H174542   3.829   6.454   2.144  0.2544 -1.2237 -0.3792
17709TIP3    H274543   3.679   6.458   2.119  0.2031  0.7173  0.0881
17710TIP3   OH274544   2.846   6.023   0.889  0.6768 -0.2353  0.0494
17710TIP3    H174545   2.880   5.940   0.923  0.5434 -0.6148 -0.7180
17710TIP3    H274546   2.884   6.090   0.946  1.0729 -0.8010  0.4576
17711TIP3   OH274547   4.294   4.675   6.252  0.1915 -0.0152  0.8437
17711TIP3    H174548   4.334   4.761   6.238 -0.8226  0.6401  1.7721
17711TIP3    H274549   4.207   4.695   6.286 -0.1913 -1.4167  0.7352
17712TIP3   OH274550   4.497   0.564  12.867 -0.0381  0.6280  0.4331
17712TIP3    H174551   4.500   0.599  12.778  1.8349  2.9685  1.3076
17712TIP3    H274552   4.430   0.615  12.912  0.4047  0.8366  0.8680
17713TIP3   OH274553   1.556   0.862  12.193  0.7231  0.3468 -0.6729
17713TIP3    H174554   1.461   0.851  12.201  0.7363 -0.7962 -1.8162
17713TIP3    H274555   1.586   0.873  12.283 -0.4870  0.6843 -0.2894
17714TIP3   OH274556   1.899   1.394   2.046  0.1798  0.3314 -0.3470
17714TIP3    H174557   1.920   1.478   2.005  0.9744  0.6567  0.6794
17714TIP3    H274558   1.909   1.330   1.975  1.2510  0.9094 -0.7494
17715TIP3   OH274559   5.914   3.620  15.678  0.6241 -0.2396  0.3619
17715TIP3    H174560   5.999   3.575  15.675  0.9253  0.3628 -0.9650
17715TIP3    H274561   5.864   3.582  15.606  0.2540  0.3127  0.3210
17716TIP3   OH274562   0.773   0.305  17.136  0.1358  0.1028  0.1873
17716TIP3    H174563   0.715   0.381  17.128 -0.4595 -0.4627 -1.1396
17716TIP3    H274564   0.746   0.263  17.218 -0.7107  0.3555  0.0483
17717TIP3   OH274565   2.505   1.701   1.112  0.3294  0.1789 -0.1293
17717TIP3    H174566   2.425   1.682   1.063  0.1513  0.3529  0.0933
17717TIP3    H274567   2.558   1.752   1.052  0.4764 -0.3359 -0.4499
17718TIP3   OH274568   6.036   2.505   4.363  0.2393  0.3261 -0.5790
17718TIP3    H174569   6.044   2.412   4.386 -1.3121  0.0450 -1.0553
17718TIP3    H274570   6.062   2.551   4.443  1.0104 -0.5069 -0.3270
17719TIP3   OH274571   1.033   0.624   4.641  0.2974 -0.1552 -0.2605
17719TIP3    H174572   1.068   0.693   4.697 -0.6944  2.2374 -2.4064
17719TIP3    H274573   1.110   0.587   4.598  0.7649  0.3663  0.1033
17720TIP3   OH274574   4.857   4.904   5.444  0.2191  0.1154 -0.2720
17720TIP3    H174575   4.776   4.873   5.485 -0.0967  1.3549  0.0653
17720TIP3    H274576   4.834   4.916   5.352  0.5418 -1.2956 -0.5631
17721TIP3   OH274577   3.582   4.531   4.659 -0.4001 -0.2644  0.4213
17721TIP3    H174578   3.508   4.512   4.601  0.2054 -0.6385 -0.2599
17721TIP3    H274579   3.552   4.602   4.715 -1.0498  0.0327 -0.2842
17722TIP3   OH274580   5.650   1.793  15.454 -0.1260  0.3570 -0.0860
17722TIP3    H174581   5.589   1.867  15.451  0.5187  0.9472  0.8802
17722TIP3    H274582   5.618   1.738  15.525  0.1900  0.4355  0.1207
17723TIP3   OH274583   5.577   0.969   0.741 -0.1104 -0.5554 -0.5719
17723TIP3    H174584   5.489   0.996   0.718 -0.0235  0.5659  0.3221
17723TIP3    H274585   5.634   1.024   0.687  0.0455 -0.4438 -0.2977
17724TIP3   OH274586   2.394   0.763   2.258 -0.1847 -0.3284 -0.0805
17724TIP3    H174587   2.319   0.822   2.266  0.6993  0.7552  0.4554
17724TIP3    H274588   2.471   0.821   2.260  0.6654 -1.3634 -1.0443
17725TIP3   OH274589   0.010   2.925  13.086 -0.1044 -0.1257 -0.4834
17725TIP3    H174590   0.089   2.970  13.058 -0.0170 -0.0624 -0.1458
17725TIP3    H274591  -0.041   2.992  13.132  0.8551 -0.7758  1.6499
17726TIP3   OH274592   6.511   4.465  10.516  0.0482  0.1944 -0.1805
17726TIP3    H174593   6.427   4.462  10.561  0.4888  0.0532  0.6517
17726TIP3    H274594   6.557   4.540  10.556  0.1462  0.5490 -0.9389
17727TIP3   OH274595   4.309   4.831   2.828  0.3872  0.1063 -0.2324
17727TIP3    H174596   4.231   4.826   2.773  0.9117  1.2740 -1.1130
17727TIP3    H274597   4.335   4.739   2.841 -0.5123 -0.2404 -0.8185
17728TIP3   OH274598   1.895   3.121  12.669  0.1319  0.3870 -0.1125
17728TIP3    H174599   1.854   3.205  12.648  1.6902  1.3639  0.5566
17728TIP3    H274600   1.863   3.062  12.601 -1.5513  1.3182 -0.2027
17729TIP3   OH274601   1.701   4.226   0.168  0.0679 -0.3693  0.2538
17729TIP3    H174602   1.712   4.188   0.081 -1.5271 -0.0861 -0.1097
17729TIP3    H274603   1.790   4.239   0.200  0.7252  0.3491 -1.7017
17730TIP3   OH274604   4.979   0.986  15.728  0.2132  0.7257  0.1177
17730TIP3    H174605   5.007   0.896  15.745 -0.0098  0.7883  0.8598
17730TIP3    H274606   5.018   1.008  15.643  2.4769  0.8469  1.1198
17731TIP3   OH274607   6.395   5.830  11.466  0.1272 -0.0382 -0.2644
17731TIP3    H174608   6.355   5.744  11.478 -1.5384  0.5418 -1.3369
17731TIP3    H274609   6.341   5.889  11.518 -1.2402  0.9386 -2.6248
17732TIP3   OH274610   0.170   1.990  14.981 -0.1078 -0.0733 -0.1409
17732TIP3    H174611   0.257   1.965  14.949  0.1228 -0.8593  1.0232
17732TIP3    H274612   0.136   1.911  15.023  0.2737  1.2142  2.8951
17733TIP3   OH274613   0.884   0.584   1.061 -0.7529 -0.1765  0.0603
17733TIP3    H174614   0.793   0.566   1.087 -0.4519 -0.0359  1.2619
17733TIP3    H274615   0.892   0.679   1.066 -0.0700 -0.2840  1.6874
17734TIP3   OH274616   5.902   6.640  13.717 -0.6658 -0.6510  0.3257
17734TIP3    H174617   5.952   6.719  13.739 -0.0417 -0.6594 -0.9465
17734TIP3    H274618   5.872   6.606  13.801  0.7775 -0.1816  1.0715
17735TIP3   OH274619   4.570   6.718  16.060  0.8050  0.4586  0.2694
17735TIP3    H174620   4.624   6.669  15.998 -1.5057 -1.3375 -0.4480
17735TIP3    H274621   4.569   6.664  16.139 -0.5687  0.0403 -0.0139
17736TIP3   OH274622   5.734   2.296  16.852 -0.2691 -0.2123 -0.1807
17736TIP3    H174623   5.729   2.244  16.772 -3.9407 -1.2658  0.5210
17736TIP3    H274624   5.739   2.231  16.922  0.1720  0.5849  0.5365
17737TIP3   OH274625   2.311   1.350   3.041 -0.7978 -0.3634 -0.1379
17737TIP3    H174626   2.261   1.414   2.990 -1.0107 -0.5279 -0.1379
17737TIP3    H274627   2.252   1.275   3.048 -0.9459 -0.1757  0.7342
17738TIP3   OH274628   5.509   3.839  12.543  0.3719  0.0047  0.3740
17738TIP3    H174629   5.453   3.916  12.552 -0.5398 -0.5753 -0.1966
17738TIP3    H274630   5.587   3.871  12.498  2.7437  1.8922  5.1008
17739TIP3   OH274631   2.802   1.744  11.908 -0.2683  0.0744  0.1754
17739TIP3    H174632   2.723   1.779  11.866 -1.0597 -0.4909  1.1553
17739TIP3    H274633   2.769   1.687  11.977  1.0072 -0.7393  0.1406
17740TIP3   OH274634   0.578   6.726  13.402  0.6261  0.2372  0.1096
17740TIP3    H174635   0.513   6.713  13.470  1.1616  1.0726  0.8044
17740TIP3    H274636   0.555   6.663  13.334 -0.3389 -0.1201  0.7488
17741TIP3   OH274637   5.906   3.311  15.692  0.1361 -0.5659 -0.2499
17741TIP3    H174638   5.870   3.342  15.775  0.3485 -0.4430 -0.2016
17741TIP3    H274639   5.994   3.349  15.689  0.6909 -1.7744  0.1685
17742TIP3   OH274640   2.069   4.513  14.092  0.8346 -0.0845  0.6328
17742TIP3    H174641   2.154   4.531  14.130  0.9794 -1.1508  0.8240
17742TIP3    H274642   2.052   4.589  14.036  2.6648 -0.6118 -0.7344
17743TIP3   OH274643   4.963   4.074   6.112  0.3087 -0.2145  0.1542
17743TIP3    H174644   4.997   3.989   6.137  0.9201 -0.0085  0.0317
17743TIP3    H274645   4.952   4.121   6.194  0.1816 -0.3272  0.2032
17744TIP3   OH274646   0.281   2.029  17.051 -0.4699  0.0843 -0.1038
17744TIP3    H174647   0.192   2.030  17.085  0.1739 -1.0162  1.7327
17744TIP3    H274648   0.284   1.952  16.994 -0.3815 -0.5728  0.7767
17745TIP3   OH274649   4.664   2.621  12.582  0.3050  0.2917  0.2077
17745TIP3    H174650   4.617   2.595  12.503 -0.0398 -0.8945  0.7840
17745TIP3    H274651   4.727   2.686  12.552 -0.4736  0.5692 -0.8794
17746TIP3   OH274652   0.557   0.663  12.379  0.3859 -0.5727 -0.5642
17746TIP3    H174653   0.629   0.666  12.442  0.4957  0.1276 -0.7215
17746TIP3    H274654   0.576   0.586  12.325  0.0108 -1.4902  0.5735
17747TIP3   OH274655   0.649   3.035   0.810 -0.6425 -0.1175  0.3970
17747TIP3    H174656   0.692   2.987   0.739  0.4065 -0.6412  1.3536
17747TIP3    H274657   0.585   3.091   0.766  1.0707  0.7671 -1.1057
17748TIP3   OH274658   4.014   5.729  13.644 -0.4403 -0.5164 -0.1618
17748TIP3    H174659   4.001   5.726  13.739  0.2355 -1.5231 -0.0741
17748TIP3    H274660   4.017   5.822  13.622  0.0941 -0.2683  0.9157
17749TIP3   OH274661   2.443   3.573   4.014 -0.5138 -0.5165  0.6485
17749TIP3    H174662   2.445   3.616   3.929  2.4120  0.4750  1.0829
17749TIP3    H274663   2.370   3.512   4.009 -0.1632 -0.8398 -2.7392
17750TIP3   OH274664   4.347   2.913  12.032  0.6588 -0.2853 -0.2528
17750TIP3    H174665   4.261   2.923  11.992  1.0180 -0.3550 -1.0550
17750TIP3    H274666   4.385   2.837  11.988  0.9115 -0.6049  0.4982
17751TIP3   OH274667   0.115   5.463   0.438 -0.3527 -0.8026  0.0810
17751TIP3    H174668   0.085   5.446   0.349  0.5483 -1.1560 -0.1631
17751TIP3    H274669   0.190   5.521   0.428 -0.9987  0.1657  0.6901
17752TIP3   OH274670   2.790   1.520  10.570 -0.4401  0.0744  0.6706
17752TIP3    H174671   2.787   1.457  10.642 -0.5905 -0.3903  0.2591
17752TIP3    H274672   2.856   1.583  10.597 -2.0905  1.2287  2.3001
17753TIP3   OH274673   2.895   4.607   1.494  0.3609  0.1680  0.0541
17753TIP3    H174674   2.802   4.602   1.470  0.2291  0.1152  0.5788
17753TIP3    H274675   2.913   4.522   1.535  0.5231  0.3572  0.3718
17754TIP3   OH274676   4.090   2.978  12.563  0.2464  0.1018  0.4355
17754TIP3    H174677   4.153   3.017  12.624 -1.4804  3.4289  0.3607
17754TIP3    H274678   4.138   2.968  12.481  0.9865  1.5904  0.6581
17755TIP3   OH274679   2.366   3.799  14.780  0.0026  0.3204  0.0146
17755TIP3    H174680   2.458   3.773  14.785  0.0751  0.4773 -0.4637
17755TIP3    H274681   2.341   3.820  14.870  0.2769 -0.2630  0.2282
17756TIP3   OH274682   4.338   6.347   2.119  0.0326 -0.4609 -0.0517
17756TIP3    H174683   4.372   6.428   2.082 -0.4845 -0.3270 -0.2367
17756TIP3    H274684   4.381   6.278   2.069 -2.7030 -0.3126 -2.9088
17757TIP3   OH274685   3.321   4.542  17.210  0.0702 -0.9499 -0.5227
17757TIP3    H174686   3.278   4.495  17.138 -1.4170  0.0507 -0.3310
17757TIP3    H274687   3.353   4.622  17.170  0.2391 -0.9024 -0.2932
17758TIP3   OH274688   3.435   5.936   1.151  0.2030  0.7006 -0.2790
17758TIP3    H174689   3.344   5.964   1.138  0.2813  0.9098 -0.3779
17758TIP3    H274690   3.480   5.960   1.070  0.6335  1.7498  0.2566
17759TIP3   OH274691   5.689   5.303  14.232 -0.0074 -0.3246  0.0158
17759TIP3    H174692   5.635   5.247  14.176  0.1980 -2.1356  1.5390
17759TIP3    H274693   5.774   5.307  14.187 -0.2872 -0.5190 -0.5333
17760TIP3   OH274694   1.610   3.903  16.440 -0.7105 -0.2061  0.0462
17760TIP3    H174695   1.576   3.956  16.368  0.6757  0.2261 -0.3345
17760TIP3    H274696   1.666   3.963  16.489 -0.6182 -0.8357  0.7309
17761TIP3   OH274697   5.830   5.351  10.823 -0.6941  0.0299 -0.3765
17761TIP3    H174698   5.861   5.434  10.787 -0.2371 -0.4672 -1.1674
17761TIP3    H274699   5.741   5.369  10.854 -0.0448  1.1981  0.8903
17762TIP3   OH274700   6.392   5.230   0.555 -0.4397 -0.6193  0.1629
17762TIP3    H174701   6.401   5.274   0.640 -1.4650  3.1287 -1.4769
17762TIP3    H274702   6.480   5.198   0.535  1.0032  2.6971  0.6083
17763TIP3   OH274703   0.269   3.540  10.681 -0.0202  0.1286  0.3062
17763TIP3    H174704   0.275   3.613  10.743 -0.1075  0.1828  0.2505
17763TIP3    H274705   0.244   3.581  10.599  0.9445  0.1754  0.0167
17764TIP3   OH274706   3.283   0.429   3.760 -0.3149  0.0971  0.5430
17764TIP3    H174707   3.252   0.432   3.670  0.6069 -0.5137  0.1855
17764TIP3    H274708   3.337   0.507   3.770  1.3406 -0.8862 -0.1469
17765TIP3   OH274709   3.688   3.086  12.944  0.6389 -0.2953  0.0785
17765TIP3    H174710   3.761   3.121  12.995  1.0822 -0.7448 -0.2435
17765TIP3    H274711   3.633   3.163  12.927  1.1352  0.0843  0.1520
17766TIP3   OH274712   4.963   6.323   1.612  0.4324 -0.3074 -0.5693
17766TIP3    H174713   5.005   6.290   1.533  1.6299  0.2976 -0.2156
17766TIP3    H274714   4.904   6.392   1.580 -2.7989 -3.1589 -1.4182
17767TIP3   OH274715   5.143   3.308   2.044 -0.0075 -0.1120  0.0246
17767TIP3    H174716   5.111   3.398   2.051 -1.7257 -0.6529 -0.4051
17767TIP3    H274717   5.087   3.257   2.102 -0.8147 -1.2956 -1.6754
17768TIP3   OH274718   2.090   1.105   2.265  0.6909 -0.5624  0.0091
17768TIP3    H174719   2.140   1.179   2.230 -0.4784  0.9609  1.4167
17768TIP3    H274720   2.092   1.040   2.195  3.8079 -0.2207 -0.3448
17769TIP3   OH274721   1.469   0.674  13.867  0.1839 -0.3165  0.6356
17769TIP3    H174722   1.377   0.697  13.853  0.3125 -0.6472 -0.9233
17769TIP3    H274723   1.506   0.668  13.779  1.5231 -0.9229  1.2109
17770TIP3   OH274724   0.569   0.175  13.105 -0.3070 -0.6770 -0.0592
17770TIP3    H174725   0.485   0.192  13.062  0.2525  0.8421 -0.6161
17770TIP3    H274726   0.627   0.147  13.034  0.2435  0.4677 -0.0821
17771TIP3   OH274727   5.512   1.743  13.802  0.9712  0.1003 -0.2911
17771TIP3    H174728   5.458   1.688  13.745  1.6501  0.7407 -1.5908
17771TIP3    H274729   5.491   1.713  13.891  0.2007 -1.2099 -0.8845
17772TIP3   OH274730   1.872   2.864   1.889  0.2300  0.1349 -0.3958
17772TIP3    H174731   1.885   2.949   1.847 -0.4629  0.1007 -0.7026
17772TIP3    H274732   1.800   2.824   1.840 -0.6484  0.1216  0.8424
17773TIP3   OH274733   2.021   3.505  13.760  0.0251  0.1704  0.4047
17773TIP3    H174734   1.987   3.565  13.693  1.5082 -0.6298 -1.1414
17773TIP3    H274735   1.985   3.539  13.842 -0.3879  2.2890 -0.5709
17774TIP3   OH274736   0.400   4.664  16.091  0.3584  0.1913  0.2539
17774TIP3    H174737   0.345   4.742  16.086  0.0912 -0.0646 -2.4154
17774TIP3    H274738   0.344   4.598  16.133 -0.6115  0.5536 -0.4169
17775TIP3   OH274739   3.909   6.702   0.868 -0.1233 -0.1583  0.2976
17775TIP3    H174740   3.919   6.697   0.963  1.3931 -0.4686  0.1504
17775TIP3    H274741   3.959   6.628   0.835 -0.0874  0.3294 -0.7800
17776TIP3   OH274742   2.183   5.547  15.734  0.0258  0.1866  0.0355
17776TIP3    H174743   2.161   5.632  15.695 -0.7001 -0.1332 -0.2754
17776TIP3    H274744   2.176   5.562  15.828 -0.6557  0.3366 -0.0319
17777TIP3   OH274745   1.390   0.197  15.236  0.4999  0.0257 -0.0177
17777TIP3    H174746   1.429   0.199  15.324  1.3859 -0.7624 -0.3745
17777TIP3    H274747   1.349   0.283  15.226 -2.1374 -0.8336  2.2662
17778TIP3   OH274748   1.840   5.756  16.820 -1.1260  0.5733 -0.0968
17778TIP3    H174749   1.855   5.793  16.733  0.2020 -1.5127 -0.8306
17778TIP3    H274750   1.788   5.678  16.804 -0.1078 -0.3352  0.8554
17779TIP3   OH274751   3.158   6.681   1.846  0.5458  0.2422  0.0411
17779TIP3    H174752   3.084   6.719   1.892  1.6087 -0.7975  2.8338
17779TIP3    H274753   3.221   6.753   1.837 -0.0695  0.6993 -0.7997
17780TIP3   OH274754   2.073   4.183   3.272 -0.3308  0.0812 -0.4964
17780TIP3    H174755   2.003   4.224   3.221 -1.1721 -0.5965  0.0727
17780TIP3    H274756   2.027   4.137   3.342  0.6613 -0.8554 -0.4405
17781TIP3   OH274757   5.616   4.958  11.775  0.4729  0.0780  0.3113
17781TIP3    H174758   5.622   4.907  11.694  0.3226  0.5900 -0.0276
17781TIP3    H274759   5.522   4.969  11.790  0.4928  1.1380 -0.1978
17782TIP3   OH274760   0.984   1.986  13.786 -0.1540 -0.3583 -0.0273
17782TIP3    H174761   0.957   1.930  13.713  1.9119 -1.5289  0.0129
17782TIP3    H274762   1.035   2.056  13.745 -0.0920 -0.2835  0.1739
17783TIP3   OH274763   4.668   5.350  12.215 -0.3296  0.0398 -0.2905
17783TIP3    H174764   4.580   5.332  12.247 -0.5564  2.3886  0.6201
17783TIP3    H274765   4.655   5.392  12.130 -0.3455  2.5957  0.8593
17784TIP3   OH274766   5.113   4.334   6.166 -0.7498  0.3495  0.0169
17784TIP3    H174767   5.039   4.311   6.223 -0.7420  0.7754  0.1936
17784TIP3    H274768   5.082   4.410   6.117 -1.5189 -1.1452 -1.9787
17785TIP3   OH274769   0.297   4.581  13.263 -0.1002 -0.2513 -0.1276
17785TIP3    H174770   0.368   4.621  13.314 -1.0305  0.1964  0.8737
17785TIP3    H274771   0.234   4.552  13.329 -0.7634 -0.8050 -0.9825
17786TIP3   OH274772   4.850   6.612  13.082 -0.1976 -0.0356 -0.3161
17786TIP3    H174773   4.778   6.676  13.078 -0.5833 -0.2952  1.5014
17786TIP3    H274774   4.856   6.589  13.175  0.8493 -1.6196 -0.7439
17787TIP3   OH274775   2.191   5.043   2.644 -0.5203 -0.4582 -0.3091
17787TIP3    H174776   2.255   5.115   2.643 -0.8864 -0.1293 -0.8650
17787TIP3    H274777   2.164   5.034   2.553  0.7732 -2.4552 -0.5478
17788TIP3   OH274778   5.052   3.579   2.052  0.2972 -0.6394  0.8722
17788TIP3    H174779   5.077   3.671   2.042  1.8887 -0.8150  2.7463
17788TIP3    H274780   4.971   3.571   2.001  1.3355  1.2142 -1.2667
17789TIP3   OH274781   1.680   4.497   6.104  0.5051  0.6394 -0.4962
17789TIP3    H174782   1.594   4.478   6.067  0.7798  0.9948 -1.3611
17789TIP3    H274783   1.663   4.556   6.177 -0.1662 -1.0722  0.7874
17790TIP3   OH274784   5.200   1.856   6.013  0.4027 -0.0047 -0.1600
17790TIP3    H174785   5.192   1.914   6.088  3.4404  1.1367 -0.5926
17790TIP3    H274786   5.197   1.767   6.050  1.0069  0.5251  1.2003
17791TIP3   OH274787   4.304   3.240   0.249 -0.1553 -0.0946 -0.1854
17791TIP3    H174788   4.224   3.229   0.198  0.1463 -0.9285 -0.4985
17791TIP3    H274789   4.274   3.246   0.340 -0.4719 -2.8571 -0.0209
17792TIP3   OH274790   3.374   1.254   1.967  0.3333 -0.2765 -0.4772
17792TIP3    H174791   3.331   1.337   1.987  1.6787  0.7373 -1.5910
17792TIP3    H274792   3.363   1.202   2.047  0.9069  1.6044  0.9080
17793TIP3   OH274793   0.656   2.605  16.776 -0.1950  0.1313 -0.6271
17793TIP3    H174794   0.602   2.569  16.705 -0.0608 -0.1039 -0.6126
17793TIP3    H274795   0.603   2.591  16.855 -0.9534  1.6626 -0.8403
17794TIP3   OH274796   2.938   5.960  16.139 -0.0502 -0.6528  0.2435
17794TIP3    H174797   3.012   5.986  16.084 -0.2480 -1.0293 -0.2157
17794TIP3    H274798   2.917   6.038  16.190  0.4561 -0.4455  0.1443
17795TIP3   OH274799   6.142   2.803   2.315 -0.2919 -0.8162 -0.5052
17795TIP3    H174800   6.148   2.727   2.374 -1.9704  0.7044  1.8064
17795TIP3    H274801   6.049   2.807   2.292 -0.5306  1.3025  0.6105
17796TIP3   OH274802   0.958   5.230   1.966 -0.6322 -0.3433  0.3660
17796TIP3    H174803   1.000   5.200   2.047  0.6812  0.2060 -0.0770
17796TIP3    H274804   1.031   5.257   1.910 -1.5986  0.8580 -0.3714
17797TIP3   OH274805   2.776   4.742   4.060 -0.3983  0.3268 -0.1075
17797TIP3    H174806   2.806   4.804   3.993 -0.6574  2.7588  1.8821
17797TIP3    H274807   2.857   4.706   4.096 -0.2496 -0.7324 -1.4308
17798TIP3   OH274808   3.606   0.900  12.611 -0.8275 -0.0862 -0.6320
17798TIP3    H174809   3.572   0.856  12.688 -1.1836  0.5184 -0.4408
17798TIP3    H274810   3.618   0.830  12.547 -0.4209 -0.6092  0.0034
17799TIP3   OH274811   0.879   6.159  14.669 -0.3175  0.0794 -0.0068
17799TIP3    H174812   0.928   6.093  14.718  0.0804 -0.5735 -1.2402
17799TIP3    H274813   0.943   6.199  14.611 -0.8606  0.5326 -0.3034
17800TIP3   OH274814   5.016   2.879   2.607 -0.1284  0.1495  0.7135
17800TIP3    H174815   5.060   2.894   2.523 -0.9168 -0.0651  0.2517
17800TIP3    H274816   4.963   2.958   2.620 -1.8427 -0.7946 -0.1748
17801TIP3   OH274817   4.681   0.828   1.178 -0.4217 -0.7801  0.1458
17801TIP3    H174818   4.732   0.867   1.106  2.4609  1.0893  2.9048
17801TIP3    H274819   4.626   0.900   1.210  0.3052 -0.7222  1.3658
17802TIP3   OH274820   3.361   2.909  15.236 -0.1007 -0.0645 -0.2159
17802TIP3    H174821   3.352   2.969  15.162 -1.2882 -2.6029 -2.3116
17802TIP3    H274822   3.446   2.867  15.223 -0.7574 -1.2695 -0.8350
17803TIP3   OH274823   1.719   3.225  15.463 -0.2365  0.3497  0.1015
17803TIP3    H174824   1.785   3.165  15.498  1.1287  0.5034 -2.0511
17803TIP3    H274825   1.748   3.312  15.492 -1.9846  0.1316  2.8606
17804TIP3   OH274826   5.321   0.513  15.271  0.3689  0.5693 -0.5224
17804TIP3    H174827   5.381   0.542  15.339 -0.4629 -0.3195  0.6327
17804TIP3    H274828   5.254   0.582  15.267  0.3615  0.5728 -0.3516
17805TIP3   OH274829   3.771   1.507  17.345 -0.0681 -0.2699 -0.2391
17805TIP3    H174830   3.813   1.582  17.301  0.4899  0.8323  2.0326
17805TIP3    H274831   3.677   1.523  17.335  0.0191  1.4377  1.2135
17806TIP3   OH274832   1.689   3.159  14.220  0.1555 -0.1066  0.0766
17806TIP3    H174833   1.775   3.163  14.178  0.2604 -0.0189  0.2955
17806TIP3    H274834   1.644   3.086  14.177  1.0161 -1.3353  1.2126
17807TIP3   OH274835   4.173   4.892  15.762 -0.1883  0.0427 -0.1769
17807TIP3    H174836   4.191   4.868  15.671 -0.6807 -0.6816 -0.0814
17807TIP3    H274837   4.244   4.851  15.812 -0.7054 -0.7493 -0.0797
17808TIP3   OH274838   3.458   1.516   4.955  0.0503 -0.6180  0.4828
17808TIP3    H174839   3.431   1.608   4.946 -0.6252 -0.2300  4.4802
17808TIP3    H274840   3.397   1.468   4.898 -3.2913  1.0537  2.3337
17809TIP3   OH274841   6.375   5.199   1.303  0.4487 -0.6902  0.6901
17809TIP3    H174842   6.314   5.196   1.229 -0.7585  0.2449  1.6049
17809TIP3    H274843   6.449   5.250   1.270 -0.7437  1.0335  0.5411
17810TIP3   OH274844   4.283   0.981  13.084 -0.4089 -0.3558 -0.0738
17810TIP3    H174845   4.357   0.921  13.081 -0.9710 -1.2103  1.6566
17810TIP3    H274846   4.312   1.051  13.143 -0.9065 -0.6440  0.5333
17811TIP3   OH274847   6.466   1.970  16.902  0.4836 -0.4814 -0.3678
17811TIP3    H174848   6.420   1.887  16.914 -1.9457  0.5887 -1.7168
17811TIP3    H274849   6.398   2.034  16.882  2.4622  1.4242 -1.5446
17812TIP3   OH274850   0.142   0.124   4.288 -0.1460  0.1203  0.0146
17812TIP3    H174851   0.220   0.109   4.340 -0.1115  2.1943  0.6136
17812TIP3    H274852   0.175   0.144   4.200 -0.0980 -0.6734 -0.1569
17813TIP3   OH274853   6.083   4.685  14.372  0.3182  0.3225  0.1289
17813TIP3    H174854   6.052   4.750  14.309  0.1695 -0.7649 -0.9460
17813TIP3    H274855   6.117   4.613  14.319  0.9062 -0.2968  1.2904
17814TIP3   OH274856   4.053   5.391  16.572  0.5886 -0.2021 -0.4045
17814TIP3    H174857   4.138   5.403  16.530  0.4637 -0.6054 -0.7684
17814TIP3    H274858   4.048   5.297  16.591  0.9781  0.0693  1.2161
17815TIP3   OH274859   4.139   2.340   1.244 -0.0360  0.5772  0.4205
17815TIP3    H174860   4.217   2.365   1.294 -1.1580  1.1827  1.9439
17815TIP3    H274861   4.118   2.251   1.274  0.3902  0.1666 -0.4440
17816TIP3   OH274862   0.980   2.665   4.368  0.2844 -0.3834  0.0167
17816TIP3    H174863   0.946   2.627   4.287  0.7256  1.1360 -0.9272
17816TIP3    H274864   1.075   2.652   4.362  0.1586 -2.3433  1.4361
17817TIP3   OH274865   5.677   1.197   2.250 -0.4587 -0.2491  0.0929
17817TIP3    H174866   5.752   1.138   2.248  0.5963  0.9463  1.5093
17817TIP3    H274867   5.711   1.280   2.215 -0.5874  0.7784  2.2170
17818TIP3   OH274868   4.443   0.381   1.087  0.1740  0.1594 -0.1829
17818TIP3    H174869   4.496   0.437   1.143 -2.2215  3.4005 -0.8539
17818TIP3    H274870   4.434   0.299   1.137  1.8645  1.1857  1.9921
17819TIP3   OH274871   6.357   2.382   4.182 -0.0974 -0.3405  0.1529
17819TIP3    H174872   6.374   2.295   4.147  1.1381 -0.3663  0.7577
17819TIP3    H274873   6.404   2.384   4.266  1.6814  1.5849 -0.7786
17820TIP3   OH274874   2.649   3.335   0.132  0.0906  0.2405  0.2998
17820TIP3    H174875   2.668   3.418   0.176 -2.0048  0.1318  1.5307
17820TIP3    H274876   2.604   3.360   0.052 -1.0940  0.3171  0.9668
17821TIP3   OH274877   4.045   4.350   4.886 -0.4730  0.7119  0.2025
17821TIP3    H174878   3.994   4.342   4.805  1.4268 -0.7545 -0.9334
17821TIP3    H274879   4.128   4.389   4.858  0.6239 -0.7809  1.2249
17822TIP3   OH274880   4.689   5.545  13.683  1.3029  0.4259  0.0372
17822TIP3    H174881   4.615   5.576  13.735 -0.3432 -0.5157 -1.6434
17822TIP3    H274882   4.706   5.615  13.621 -0.4741 -0.6974 -1.8106
17823TIP3   OH274883   4.394   5.355  14.405  0.7941  0.0576 -0.4164
17823TIP3    H174884   4.490   5.349  14.407  0.8253 -1.2768 -2.7609
17823TIP3    H274885   4.364   5.264  14.400 -0.6367  0.4515  0.3421
17824TIP3   OH274886   4.768   5.285   2.521 -0.2660  0.4082 -0.1684
17824TIP3    H174887   4.740   5.238   2.600 -0.9671  0.8186 -0.1635
17824TIP3    H274888   4.740   5.228   2.448 -0.7358  0.6129 -0.1511
17825TIP3   OH274889   2.504   3.492   1.035  0.0849  0.6974 -0.2111
17825TIP3    H174890   2.497   3.514   0.942  1.0451  0.6513 -0.3079
17825TIP3    H274891   2.472   3.402   1.041 -0.1058  0.7479 -0.4804
17826TIP3   OH274892   2.473   4.172   1.121 -0.1763  0.5025 -0.3254
17826TIP3    H174893   2.519   4.089   1.128 -0.1202  0.4676 -0.9889
17826TIP3    H274894   2.464   4.203   1.211 -0.2281 -0.2321 -0.0740
17827TIP3   OH274895   1.807   4.562  10.967 -0.3549  0.1767 -0.2792
17827TIP3    H174896   1.894   4.546  10.930 -0.3932  2.1680 -1.4041
17827TIP3    H274897   1.788   4.653  10.943 -1.2188  1.0174  3.0838
17828TIP3   OH274898   6.067   0.414   3.887 -0.0314  0.4639  0.1392
17828TIP3    H174899   6.051   0.427   3.980 -0.5609 -0.1036  0.1330
17828TIP3    H274900   6.025   0.489   3.845 -2.2855 -0.7119  0.1707
17829TIP3   OH274901   4.332   0.961  17.291  0.4682  0.2951  0.3153
17829TIP3    H174902   4.402   1.007  17.338 -0.4350  1.8171  0.2464
17829TIP3    H274903   4.276   0.926  17.360  0.2847  0.7056  0.3769
17830TIP3   OH274904   5.830   5.855   5.605  0.3185  0.0008  0.1780
17830TIP3    H174905   5.912   5.813   5.580 -0.2671 -1.0588 -0.0267
17830TIP3    H274906   5.849   5.949   5.602  1.3566 -0.2134 -0.4172
17831TIP3   OH274907   1.652   1.100   5.554 -0.3905  0.1766 -0.3126
17831TIP3    H174908   1.557   1.094   5.543 -0.5155  0.8558  0.3144
17831TIP3    H274909   1.671   1.048   5.632  0.0289 -1.6380 -1.5715
17832TIP3   OH274910   2.114   5.895   6.544  0.2514  0.1651  0.5822
17832TIP3    H174911   2.071   5.860   6.623  0.4986  2.1610  1.6567
17832TIP3    H274912   2.204   5.863   6.550 -0.1898 -1.2545  0.0767
17833TIP3   OH274913   3.322   1.754  13.402  0.1561  0.0242 -0.1156
17833TIP3    H174914   3.374   1.819  13.449  2.2000 -0.9033 -0.9619
17833TIP3    H274915   3.352   1.670  13.436 -2.4327 -0.5763  0.9635
17834TIP3   OH274916   1.821   2.329  12.918  0.7453  0.3644  0.1294
17834TIP3    H174917   1.789   2.371  12.997 -1.7946  0.5681 -0.9095
17834TIP3    H274918   1.888   2.267  12.948  1.2399  1.8162  2.1678
17835TIP3   OH274919   0.460   1.095   0.677 -0.3162 -0.4383 -0.9002
17835TIP3    H174920   0.393   1.083   0.744  0.7322 -1.9980 -0.0724
17835TIP3    H274921   0.427   1.048   0.601 -0.4282 -0.6989 -0.6925
17836TIP3   OH274922   0.437   0.888  13.839  0.2627  0.3400 -0.7689
17836TIP3    H174923   0.529   0.907  13.852  0.5398 -1.3895  0.0700
17836TIP3    H274924   0.436   0.807  13.787 -0.7664  0.2475 -0.6345
17837TIP3   OH274925   5.899   5.291  14.064  0.1404  0.6347  0.1329
17837TIP3    H174926   5.906   5.364  14.003 -0.7936  0.4666 -0.1797
17837TIP3    H274927   5.944   5.219  14.019 -1.3922  0.2333 -0.8172
17838TIP3   OH274928   5.951   4.444  14.881  0.4713  0.5071  0.1176
17838TIP3    H174929   6.041   4.413  14.867  0.5381  1.4059 -1.8389
17838TIP3    H274930   5.915   4.385  14.947  2.1540 -0.5502  0.1491
17839TIP3   OH274931   5.404   1.663   4.832  0.2223 -0.3353  0.5517
17839TIP3    H174932   5.379   1.739   4.781  2.4515  0.3702  0.4231
17839TIP3    H274933   5.469   1.618   4.778 -1.2420 -2.5437  0.4879
17840TIP3   OH274934   6.274   3.676   1.854  0.4717 -0.3436  0.1621
17840TIP3    H174935   6.345   3.729   1.817  0.5480  0.3885  1.2951
17840TIP3    H274936   6.198   3.699   1.801  0.7633 -0.0109 -0.1252
17841TIP3   OH274937   0.293   2.197   4.904  0.2952  0.4777  0.2311
17841TIP3    H174938   0.262   2.247   4.829 -1.4054  1.0589  1.2613
17841TIP3    H274939   0.379   2.233   4.923  0.3859  0.9082 -0.9016
17842TIP3   OH274940   2.967   5.006   1.441 -0.2587  0.1603  0.2813
17842TIP3    H174941   2.971   4.920   1.482  0.4154 -0.3264 -0.7592
17842TIP3    H274942   2.990   4.990   1.349  1.9872  1.7116  0.4885
17843TIP3   OH274943   3.768   2.712  13.157 -0.4056  0.6343  0.0566
17843TIP3    H174944   3.746   2.725  13.065  1.0050 -0.1227 -0.4306
17843TIP3    H274945   3.684   2.703  13.202 -1.1216 -1.1904 -1.5033
17844TIP3   OH274946   4.901   2.967  12.054  0.5227 -0.1979  0.0919
17844TIP3    H174947   4.811   2.937  12.071 -0.3423  2.1776  0.1282
17844TIP3    H274948   4.926   3.012  12.134  0.5241  1.8005 -0.9688
17845TIP3   OH274949   6.321   3.006   5.801  0.5315 -0.6839 -0.1697
17845TIP3    H174950   6.367   2.947   5.741  1.4504  0.7121 -0.8983
17845TIP3    H274951   6.259   2.950   5.848  3.5788 -2.8762  1.5704
17846TIP3   OH274952   5.237   4.831   5.042  0.3930  0.3972  0.2699
17846TIP3    H174953   5.206   4.910   5.085  1.3258  0.8557  0.1385
17846TIP3    H274954   5.158   4.782   5.020 -0.1489  0.8385  1.2029
17847TIP3   OH274955   5.390   6.383  11.323  0.0090 -0.0778  0.0013
17847TIP3    H174956   5.327   6.456  11.329  0.5751  0.5075 -0.9986
17847TIP3    H274957   5.409   6.375  11.230  0.5680 -0.9914  0.1841
17848TIP3   OH274958   6.632   0.382   4.761  0.1468 -0.0496  0.0022
17848TIP3    H174959   6.691   0.364   4.688 -0.7872 -1.2586 -0.5021
17848TIP3    H274960   6.594   0.297   4.782 -2.8702  0.9158 -0.9964
17849TIP3   OH274961   2.763   3.443  17.045  0.1862  0.1465  0.3742
17849TIP3    H174962   2.670   3.457  17.028  0.5369  1.2742 -0.7749
17849TIP3    H274963   2.786   3.366  16.993 -0.6131 -1.7046  2.6220
17850TIP3   OH274964   2.513   1.032  15.997 -0.1922  0.2673  0.0579
17850TIP3    H174965   2.421   1.026  15.971 -0.6961  2.9585  0.9306
17850TIP3    H274966   2.512   1.020  16.092  0.4430 -0.0941  0.0276
17851TIP3   OH274967   3.131   4.512   0.827 -0.3893 -0.4290  0.2149
17851TIP3    H174968   3.066   4.473   0.885 -2.3943  1.1785 -0.8712
17851TIP3    H274969   3.108   4.604   0.822  2.3911  0.3544  0.2851
17852TIP3   OH274970   2.501   3.687  12.488 -0.0795  0.7301  0.1987
17852TIP3    H174971   2.498   3.623  12.559  0.0595  1.4474  0.8636
17852TIP3    H274972   2.501   3.772  12.532 -0.6600  1.2036 -0.6791
17853TIP3   OH274973   3.004   3.745  12.842 -0.7231  0.0647 -0.6982
17853TIP3    H174974   2.925   3.694  12.824 -1.6726  1.2165  0.1139
17853TIP3    H274975   3.076   3.682  12.829 -1.8317 -1.4160  0.0113
17854TIP3   OH274976   4.423   6.716   3.391  0.0596 -1.1658  0.2792
17854TIP3    H174977   4.447   6.654   3.322 -0.0518 -0.8568 -0.0384
17854TIP3    H274978   4.494   6.780   3.392 -1.0918  0.2009 -1.2021
17855TIP3   OH274979   0.968   4.704   0.994  0.3134 -0.4608  0.2122
17855TIP3    H174980   0.884   4.744   1.012  0.6519 -0.5083  2.1440
17855TIP3    H274981   0.959   4.614   1.027  0.5456 -1.0484 -1.2523
17856TIP3   OH274982   1.852   5.467   4.754  0.2990  0.7178 -0.3804
17856TIP3    H174983   1.821   5.547   4.797 -2.1010 -1.9253  3.5160
17856TIP3    H274984   1.941   5.456   4.787 -0.1977  0.6803  1.0449
17857TIP3   OH274985   1.516   0.439   3.800 -0.2029  0.5653  0.2817
17857TIP3    H174986   1.612   0.440   3.796 -0.2308  0.6245 -0.4124
17857TIP3    H274987   1.490   0.377   3.731 -0.6450  0.1495  0.8138
17858TIP3   OH274988   1.667   2.129  11.998 -0.2906 -0.0151 -0.1518
17858TIP3    H174989   1.602   2.195  12.020 -1.1236 -1.3681  1.7209
17858TIP3    H274990   1.636   2.094  11.914 -0.4135  1.2351 -0.6439
17859TIP3   OH274991   5.871   1.751  16.178  0.2780 -0.3421 -0.3893
17859TIP3    H174992   5.915   1.704  16.249  2.0140 -2.6973 -2.7624
17859TIP3    H274993   5.815   1.815  16.221 -0.5826 -3.1602  3.1293
17860TIP3   OH274994   5.941   1.000  13.068 -0.2696  0.3824 -0.3675
17860TIP3    H174995   6.025   1.045  13.069 -0.4930  0.8681  1.4630
17860TIP3    H274996   5.959   0.914  13.030  1.0516  0.5058 -0.0559
17861TIP3   OH274997   5.329   4.487  15.141  0.1804 -0.2365 -0.1122
17861TIP3    H174998   5.361   4.446  15.061 -0.9823 -0.8589 -0.2800
17861TIP3    H274999   5.386   4.563  15.154 -0.5606  0.7809 -2.3717
17862TIP3   OH275000   6.467   6.695  14.657 -0.2809  0.3627  0.3084
17862TIP3    H175001   6.453   6.758  14.587 -2.0744  0.2494  0.5164
17862TIP3    H275002   6.505   6.746  14.729 -0.5124  0.9327  0.0247
17863TIP3   OH275003   2.498   1.008   5.338 -0.2423 -0.3466  0.3399
17863TIP3    H175004   2.503   0.918   5.304  0.3740 -0.2648  0.2024
17863TIP3    H275005   2.577   1.017   5.392  0.1378  0.3795 -0.3228
17864TIP3   OH275006   5.927   3.070  16.629 -0.0376  0.3074  0.9828
17864TIP3    H175007   5.862   3.117  16.682 -1.1989 -0.7024  0.4954
17864TIP3    H275008   5.888   2.984  16.613  1.4518 -0.3541  0.7066
17865TIP3   OH275009   1.921   4.284   3.991  0.0882 -0.2503 -0.4232
17865TIP3    H175010   2.014   4.293   4.012  0.1127 -1.0819 -0.1526
17865TIP3    H275011   1.876   4.290   4.075  0.0870 -2.2146 -0.2429
17866TIP3   OH275012   1.985   5.732  12.430  0.0352  0.1889  0.2519
17866TIP3    H175013   2.004   5.824  12.452 -1.0195  0.5548 -0.3138
17866TIP3    H275014   2.061   5.704  12.379 -0.7257  1.5591 -1.7882
17867TIP3   OH275015   0.249   1.667   5.850 -0.2033  0.1435 -0.5913
17867TIP3    H175016   0.281   1.754   5.828  1.7134  0.4028  2.5701
17867TIP3    H275017   0.318   1.608   5.821 -1.4195 -0.4050 -2.5712
17868TIP3   OH275018   1.315   3.886  13.913  0.3280 -0.1961 -0.9668
17868TIP3    H175019   1.345   3.967  13.955 -1.7539  0.0512  0.1914
17868TIP3    H275020   1.287   3.913  13.826  0.8381  0.0687 -1.0523
17869TIP3   OH275021   1.657   6.343  16.092  0.3654 -0.1393  0.1302
17869TIP3    H175022   1.712   6.420  16.078  0.2462  0.0882  0.8780
17869TIP3    H275023   1.622   6.323  16.006  0.3277  0.7009 -0.0590
17870TIP3   OH275024   5.671   5.528  15.661  0.3792  0.6745  0.1399
17870TIP3    H175025   5.749   5.473  15.669  0.1768  0.2903 -0.4315
17870TIP3    H275026   5.644   5.545  15.751  0.3710 -0.2768  0.3318
17871TIP3   OH275027   1.419   2.146  15.126 -0.0375 -0.7395 -0.1219
17871TIP3    H175028   1.406   2.235  15.094  2.6137 -0.2254  0.0230
17871TIP3    H275029   1.369   2.142  15.208 -1.8854 -0.1116 -1.1640
17872TIP3   OH275030   4.907   1.821  15.394 -0.5404  0.3083  0.1265
17872TIP3    H175031   4.851   1.806  15.318 -0.4847 -1.5625  0.3975
17872TIP3    H275032   4.874   1.760  15.460  0.4566  0.7181  1.0267
17873TIP3   OH275033   3.562   1.461   1.380  0.0908 -0.9023 -0.1830
17873TIP3    H175034   3.591   1.551   1.394 -0.4555 -0.6453 -0.6503
17873TIP3    H275035   3.480   1.455   1.431 -0.3308 -0.8652 -0.8409
17874TIP3   OH275036   3.988   6.133   2.752  0.0766  0.0719  0.2820
17874TIP3    H175037   3.967   6.171   2.837 -1.1782  0.8383 -0.3256
17874TIP3    H275038   4.068   6.083   2.766 -0.3066 -0.1128  1.9858
17875TIP3   OH275039   1.873   5.798  14.930  0.1987 -0.5327  0.4836
17875TIP3    H175040   1.813   5.837  14.993  0.2791 -1.3142  1.0543
17875TIP3    H275041   1.870   5.704  14.949  0.6166 -0.7222 -0.3378
17876TIP3   OH275042   0.473   1.954  13.765 -0.1587 -0.5247  0.2520
17876TIP3    H175043   0.552   1.957  13.819 -0.5941  0.1017  0.8705
17876TIP3    H275044   0.500   1.907  13.686  1.2909  1.1056 -0.2776
17877TIP3   OH275045   0.410   1.810   0.800 -0.4302  0.5269  0.3527
17877TIP3    H175046   0.470   1.790   0.872 -0.6128  0.1192  0.3949
17877TIP3    H275047   0.337   1.856   0.842 -0.3610  0.6173  0.3727
17878TIP3   OH275048   6.717   4.403  15.037  0.1125  0.1671 -0.1039
17878TIP3    H175049   6.734   4.484  14.988 -0.3143  0.6993  0.6142
17878TIP3    H275050   6.639   4.422  15.088  0.1788 -0.6092  0.2938
17879TIP3   OH275051   2.810   6.098  17.104 -0.2844  0.3385 -0.6527
17879TIP3    H175052   2.798   6.066  17.194  0.0301  0.9119 -0.4001
17879TIP3    H275053   2.897   6.137  17.104  0.1529 -0.6014 -1.5027
17880TIP3   OH275054   5.788   4.563  17.417  0.0372  0.1929 -0.0809
17880TIP3    H175055   5.848   4.635  17.436 -1.2212  1.3344 -0.2253
17880TIP3    H275056   5.801   4.501  17.489  1.9494 -0.0038 -0.5489
17881TIP3   OH275057   2.298   1.497  14.961  0.3473 -0.2278 -0.3404
17881TIP3    H175058   2.294   1.575  14.905  1.0961 -0.2310 -0.4112
17881TIP3    H275059   2.326   1.530  15.046 -0.4148 -0.2768 -0.0589
17882TIP3   OH275060   5.082   3.719  16.191 -0.1499  0.0783  0.5113
17882TIP3    H175061   5.009   3.778  16.174 -0.7351 -0.9500 -0.6928
17882TIP3    H275062   5.122   3.705  16.105 -0.0702 -1.3111  0.7429
17883TIP3   OH275063   5.106   4.933   2.896  0.5948  0.0368  0.2515
17883TIP3    H175064   5.110   4.926   2.800  0.2215  0.6219  0.1922
17883TIP3    H275065   5.017   4.960   2.915 -0.3405 -3.1494  0.9859
17884TIP3   OH275066   2.345   2.316   0.924 -0.7102 -0.5404  0.2702
17884TIP3    H175067   2.376   2.329   0.835 -2.0143 -1.4955 -0.3501
17884TIP3    H275068   2.249   2.323   0.917 -0.8182 -0.3895  1.6352
17885TIP3   OH275069   5.080   2.721  14.322 -0.4022 -0.3073 -0.1007
17885TIP3    H175070   4.992   2.736  14.288 -0.1551  0.8826 -0.2878
17885TIP3    H275071   5.134   2.787  14.278  0.5187 -0.7907  0.2678
17886TIP3   OH275072   4.312   5.107   0.679 -0.3228  0.4660  0.3745
17886TIP3    H175073   4.274   5.034   0.632 -1.1878  0.4519  1.0597
17886TIP3    H275074   4.407   5.097   0.669 -0.4800  0.6996 -1.6725
17887TIP3   OH275075   3.874   5.141  17.023 -0.0055 -0.0090  0.2310
17887TIP3    H175076   3.924   5.221  17.041 -1.8557  1.1951  0.2604
17887TIP3    H275077   3.842   5.153  16.934 -1.4432 -0.0525  0.7203
17888TIP3   OH275078   5.619   0.617  13.657  0.8546 -0.7323  0.1671
17888TIP3    H175079   5.681   0.550  13.627  0.9199 -0.6025  0.0075
17888TIP3    H275080   5.584   0.583  13.740  0.4053 -1.2648 -0.2319
17889TIP3   OH275081   1.752   2.187  11.487  0.0931  0.0756  0.7037
17889TIP3    H175082   1.737   2.237  11.567 -1.0787  0.8585  0.0346
17889TIP3    H275083   1.799   2.248  11.429 -0.8333  0.2267  0.0897
17890TIP3   OH275084   1.828   3.556  12.562 -0.3371  0.1824 -0.4774
17890TIP3    H175085   1.859   3.466  12.557  0.2147  0.3779 -0.5952
17890TIP3    H275086   1.740   3.549  12.599  0.4000 -0.2492  1.2910
17891TIP3   OH275087   2.671   3.612   2.929 -0.1871 -0.1165  0.0516
17891TIP3    H175088   2.674   3.703   2.959 -1.5174 -0.1320  0.2519
17891TIP3    H275089   2.746   3.605   2.869 -0.2354  1.1831 -0.1921
17892TIP3   OH275090   3.559   0.396  12.918 -0.5334 -0.0659  0.8058
17892TIP3    H175091   3.469   0.420  12.941 -0.6970 -1.1031  1.3267
17892TIP3    H275092   3.549   0.317  12.865  0.0646 -0.0252  0.6280
17893TIP3   OH275093   3.120   1.622   5.803  0.1233 -0.3090  0.3944
17893TIP3    H175094   3.139   1.632   5.896  1.3637  1.5312  0.0079
17893TIP3    H275095   3.206   1.607   5.763  0.0011  1.5644 -0.6927
17894TIP3   OH275096   1.278   1.674  14.816  0.6915 -0.2535  0.0514
17894TIP3    H175097   1.289   1.632  14.730  0.1589 -2.4903  1.0107
17894TIP3    H275098   1.263   1.602  14.876 -3.4788  1.4299  1.4059
17895TIP3   OH275099   1.556   1.404  11.259  0.0133 -0.0329  0.3459
17895TIP3    H175100   1.520   1.359  11.183  1.2990 -0.9650  0.2679
17895TIP3    H275101   1.622   1.344  11.294  1.2266  1.4482  0.6979
17896TIP3   OH275102   3.165   5.287   1.096  0.2848  0.4773 -0.0558
17896TIP3    H175103   3.216   5.313   1.019  2.2839  1.4516  1.5140
17896TIP3    H275104   3.189   5.195   1.110  2.2099  1.0845  1.0196
17897TIP3   OH275105   4.327   4.461   0.249 -0.0028  0.0912 -0.1833
17897TIP3    H175106   4.246   4.482   0.204 -0.5263 -2.1907 -0.4280
17897TIP3    H275107   4.388   4.438   0.178  0.1392 -0.3918  0.0877
17898TIP3   OH275108   0.571   6.360  12.337 -0.1788  0.4146  0.5712
17898TIP3    H175109   0.642   6.366  12.273  1.1634  2.0936  2.1154
17898TIP3    H275110   0.538   6.271  12.327  0.8672  0.1886 -1.4938
17899TIP3   OH275111   6.004   3.282   0.669 -0.5778 -0.3182  0.3204
17899TIP3    H175112   6.058   3.203   0.672  2.5658  1.6484  3.1041
17899TIP3    H275113   6.042   3.334   0.598  0.5123  0.5510  1.4910
17900TIP3   OH275114   6.126   2.992  12.980 -0.0983  0.0284  0.0498
17900TIP3    H175115   6.044   3.032  12.952  1.1378  1.4141 -1.7634
17900TIP3    H275116   6.170   3.061  13.030  1.6429  0.7822 -2.3290
17901TIP3   OH275117   5.885   1.923   1.476 -0.8049 -0.3325  1.0987
17901TIP3    H175118   5.837   1.918   1.393  2.7966 -0.3861 -1.2167
17901TIP3    H275119   5.871   2.013   1.506 -1.0015  0.1670 -0.3870
17902TIP3   OH275120   2.045   1.241   5.488  0.1498  0.0353 -0.3485
17902TIP3    H175121   2.113   1.305   5.469  0.4303 -1.0038 -3.4596
17902TIP3    H275122   1.964   1.292   5.488  0.7160  1.0738  2.1262
17903TIP3   OH275123   2.874   0.802  12.403 -0.1572 -0.5476  0.0280
17903TIP3    H175124   2.916   0.807  12.489 -0.6747 -3.3249  0.5385
17903TIP3    H275125   2.941   0.765  12.346  0.0855  1.0002 -0.7394
17904TIP3   OH275126   3.083   2.072   3.581  0.1666 -0.2447 -0.2090
17904TIP3    H175127   3.091   1.978   3.563 -0.1215 -0.4256  0.5786
17904TIP3    H275128   3.024   2.077   3.656  0.0538  0.5787 -0.3434
17905TIP3   OH275129   4.416   5.897   4.245  0.2794  0.3086 -0.1767
17905TIP3    H175130   4.323   5.914   4.231  0.4052  0.5017 -0.7716
17905TIP3    H275131   4.460   5.978   4.221  0.4737  0.8748  1.8669
17906TIP3   OH275132   4.152   5.230  16.804  0.1438 -0.4220  0.3688
17906TIP3    H175133   4.181   5.165  16.740  1.3909  2.0171 -1.7552
17906TIP3    H275134   4.205   5.213  16.881  1.2269 -1.2346 -0.5230
17907TIP3   OH275135   5.553   0.729  17.294 -0.1228  0.0347 -0.7335
17907TIP3    H175136   5.499   0.674  17.237 -1.3507  0.0713  0.3455
17907TIP3    H275137   5.502   0.738  17.374  1.6935 -0.3052  0.5351
17908TIP3   OH275138   1.082   6.166  12.484 -0.0041  0.7821  0.3591
17908TIP3    H175139   1.054   6.252  12.514 -0.7187  0.5248  0.4458
17908TIP3    H275140   1.165   6.150  12.529  0.6081  1.8163 -0.3693
17909TIP3   OH275141   6.550   0.026  17.177  0.1418  0.2252  0.1221
17909TIP3    H175142   6.610  -0.008  17.243 -0.4686 -1.1577  0.0119
17909TIP3    H275143   6.594   0.009  17.094  0.4176  0.9283  0.1246
17910TIP3   OH275144   0.095   4.273   4.842 -0.2946  0.1867 -1.1971
17910TIP3    H175145   0.070   4.364   4.854 -3.7018 -0.6313 -0.9701
17910TIP3    H275146   0.145   4.251   4.921  3.2982  2.5217 -2.6155
17911TIP3   OH275147   5.476   4.811   1.354 -0.1018  0.2590  0.1162
17911TIP3    H175148   5.434   4.737   1.399  0.7333 -0.1642  0.2217
17911TIP3    H275149   5.565   4.813   1.390  0.4377  0.2151 -1.1629
17912TIP3   OH275150   5.332   4.643   2.972 -0.6829  0.5173  0.4083
17912TIP3    H175151   5.373   4.727   2.953 -1.9496  1.1531  0.3503
17912TIP3    H275152   5.257   4.639   2.912  2.0295 -2.9057 -3.2689
17913TIP3   OH275153   2.569   1.012  13.082 -0.4645 -0.0780 -0.1465
17913TIP3    H175154   2.510   1.060  13.023  0.1139 -0.3171 -0.9405
17913TIP3    H275155   2.625   0.961  13.023  0.2829 -0.1435  0.6057
17914TIP3   OH275156   2.829   4.373  11.588 -0.3171 -0.1610 -0.0163
17914TIP3    H175157   2.763   4.386  11.520 -2.0493 -0.6500  1.4832
17914TIP3    H275158   2.892   4.444  11.574  2.4607 -3.0667 -5.3240
17915TIP3   OH275159   3.923   2.639  16.164 -0.0511  0.5972 -0.2866
17915TIP3    H175160   4.007   2.627  16.209 -0.6814 -0.0648  0.7610
17915TIP3    H275161   3.887   2.718  16.203 -1.0351 -0.4997  1.1448
17916TIP3   OH275162   1.173   0.848  17.251  0.1218 -0.0905  0.2943
17916TIP3    H175163   1.201   0.795  17.176  0.3497  3.3783 -2.3138
17916TIP3    H275164   1.255   0.871  17.295  0.5912  1.8833 -1.4444
17917TIP3   OH275165   5.796   3.814  11.310 -0.1657  0.1128  0.8658
17917TIP3    H175166   5.792   3.838  11.218 -2.1212  1.0897  1.1491
17917TIP3    H275167   5.867   3.867  11.346 -0.4482  0.9497  0.2192
17918TIP3   OH275168   2.700   6.269   2.492  0.2699 -0.3915 -0.0297
17918TIP3    H175169   2.670   6.178   2.485  1.6993 -0.9190  0.3024
17918TIP3    H275170   2.704   6.285   2.586 -2.4002  0.9022 -0.0630
17919TIP3   OH275171   4.571   5.656   0.686 -0.3837 -0.7219 -0.0002
17919TIP3    H175172   4.551   5.746   0.660  0.8060 -0.8552 -1.5484
17919TIP3    H275173   4.524   5.602   0.622 -1.5216 -1.2549  1.2324
17920TIP3   OH275174   6.165   3.810  10.497  0.2067 -0.4872 -0.6375
17920TIP3    H175175   6.154   3.859  10.578  0.1332 -0.0356 -0.9204
17920TIP3    H275176   6.239   3.852  10.453 -0.9634  0.5253 -1.7165
17921TIP3   OH275177   2.795   4.259   5.338  0.0962  0.5695  0.1235
17921TIP3    H175178   2.762   4.315   5.408 -0.6305  1.3044 -0.7760
17921TIP3    H275179   2.724   4.195   5.323  0.6865 -0.2612  0.7586
17922TIP3   OH275180   5.628   0.784  12.111 -0.3687 -0.1913 -0.5462
17922TIP3    H175181   5.554   0.803  12.053 -2.5257 -0.1610  2.0165
17922TIP3    H275182   5.680   0.865  12.111 -2.0080  0.9183 -0.1583
17923TIP3   OH275183   6.301   6.176   2.240  0.3852  0.1370  0.2293
17923TIP3    H175184   6.218   6.208   2.277  1.0064  0.2680  1.5994
17923TIP3    H275185   6.315   6.230   2.163  0.2533  1.6428  1.2117
17924TIP3   OH275186   4.425   6.541  11.611  0.4508  0.4634 -0.4705
17924TIP3    H175187   4.390   6.622  11.648  1.1772  0.1933  0.8614
17924TIP3    H275188   4.434   6.560  11.517 -0.6728  1.4463 -0.3975
17925TIP3   OH275189   2.750   0.240  13.790 -0.2398  0.6923 -0.2367
17925TIP3    H175190   2.681   0.189  13.748  0.4657 -1.9711  1.5746
17925TIP3    H275191   2.724   0.331  13.777 -2.5707 -0.1328 -2.0465
17926TIP3   OH275192   0.991   6.641   4.647  0.2420 -0.3945 -0.7396
17926TIP3    H175193   0.993   6.649   4.742  0.7937  0.4976 -0.8127
17926TIP3    H275194   1.065   6.583   4.627  0.8420  0.3394 -0.6921
17927TIP3   OH275195   4.230   1.373   4.480  0.1216  0.1125  0.0221
17927TIP3    H175196   4.229   1.384   4.575 -1.6601 -1.1784  0.1962
17927TIP3    H275197   4.139   1.386   4.454  0.3692 -0.8067 -1.3489
17928TIP3   OH275198   3.669   6.417   5.833  0.6770 -0.1904  0.4083
17928TIP3    H175199   3.700   6.362   5.762 -0.5904  0.2427 -0.5134
17928TIP3    H275200   3.690   6.506   5.806  0.6284 -0.0562  0.8078
17929TIP3   OH275201   2.259   0.473  17.120  0.5798  0.0608 -0.3029
17929TIP3    H175202   2.276   0.387  17.158  0.1506 -0.9151 -2.1909
17929TIP3    H275203   2.168   0.470  17.092  0.3321  1.4248  0.2859
17930TIP3   OH275204   0.212   0.088   1.228 -0.3850  0.0113  0.4021
17930TIP3    H175205   0.240   0.002   1.260 -1.1814 -0.5389 -0.3455
17930TIP3    H275206   0.293   0.128   1.196 -0.2411 -1.1352 -0.7632
17931TIP3   OH275207   3.505   0.350   5.459  0.1444 -0.1202 -0.3745
17931TIP3    H175208   3.579   0.292   5.478  0.3393 -0.0238 -0.8285
17931TIP3    H275209   3.462   0.362   5.544  0.3378 -0.6021 -0.2040
17932TIP3   OH275210   6.718   2.708  16.211 -0.2683  0.2755 -0.0095
17932TIP3    H175211   6.715   2.707  16.307  1.7088  1.4097  0.1245
17932TIP3    H275212   6.667   2.786  16.187  1.4356  1.5551  0.3285
17933TIP3   OH275213   2.531   1.442  12.215  0.2851  0.5151  0.9041
17933TIP3    H175214   2.495   1.456  12.302  0.1058  2.3116  0.5872
17933TIP3    H275215   2.625   1.431  12.229  0.4297  1.9653  1.2686
17934TIP3   OH275216   3.008   4.042   6.590  0.3232 -0.4490  0.6734
17934TIP3    H175217   2.987   4.029   6.498 -0.7434 -0.1093  0.8610
17934TIP3    H275218   2.960   4.121   6.615  0.0197 -0.9436  1.7061
17935TIP3   OH275219   6.135   5.350   0.496  0.8016  0.0250  0.0211
17935TIP3    H175220   6.150   5.328   0.404  2.7840 -0.8390  0.4860
17935TIP3    H275221   6.219   5.330   0.539 -0.1642  0.1078  2.0630
17936TIP3   OH275222   5.488   2.350   1.117 -0.0259 -0.4979 -0.0354
17936TIP3    H175223   5.531   2.277   1.072  0.0937 -1.1183  1.0616
17936TIP3    H275224   5.547   2.372   1.189 -0.9374 -0.5200  0.7258
17937TIP3   OH275225   3.766   5.800  12.598  0.1226  0.3076 -0.8045
17937TIP3    H175226   3.714   5.764  12.670  0.9882  0.5434 -0.0362
17937TIP3    H275227   3.739   5.750  12.521 -2.2739  1.4010 -0.7330
17938TIP3   OH275228   4.343   3.636   0.600 -0.2082  0.3216  0.2908
17938TIP3    H175229   4.375   3.548   0.583 -1.5068  0.0052 -0.6451
17938TIP3    H275230   4.381   3.660   0.685  1.0206 -0.7051  0.0554
17939TIP3   OH275231   4.338   1.891   4.317 -0.0986 -0.1241  0.0462
17939TIP3    H175232   4.301   1.810   4.353 -0.3228  0.0352  0.1787
17939TIP3    H275233   4.273   1.958   4.337 -0.5649 -0.1485 -1.2665
17940TIP3   OH275234   1.345   1.559  17.399  0.5805  0.0751 -0.6140
17940TIP3    H175235   1.413   1.608  17.354 -0.4073  0.1818 -2.0449
17940TIP3    H275236   1.274   1.550  17.335 -0.9766  0.4106  0.9774
17941TIP3   OH275237   2.463   3.065   0.512  0.7370 -0.2163 -0.7942
17941TIP3    H175238   2.526   3.061   0.440  2.9666 -0.9593  1.0908
17941TIP3    H275239   2.451   2.974   0.538  0.9893  0.1202  0.5733
17942TIP3   OH275240   1.927   3.689   0.656  0.0837 -0.3557 -0.0035
17942TIP3    H175241   1.848   3.700   0.602  0.0862  1.0535  0.2394
17942TIP3    H275242   1.895   3.696   0.746  0.2704 -1.4072  0.1615
17943TIP3   OH275243   0.572   2.484   2.715  0.4217 -0.3531  0.0515
17943TIP3    H175244   0.573   2.389   2.717 -0.6998 -0.3692  0.6997
17943TIP3    H275245   0.489   2.506   2.674  0.3651  0.3425  0.5170
17944TIP3   OH275246   1.894   1.240   5.220 -0.3278  0.1655  0.3765
17944TIP3    H175247   1.832   1.176   5.185  0.8373 -0.2618 -0.9882
17944TIP3    H275248   1.864   1.255   5.310 -0.8865 -1.9941  0.6142
17945TIP3   OH275249   3.932   6.438  15.354  0.4696 -0.9933 -0.6230
17945TIP3    H175250   3.858   6.486  15.392 -1.9829 -3.4409 -1.9040
17945TIP3    H275251   3.984   6.505  15.310 -0.9266  0.8785  0.4244
17946TIP3   OH275252   5.701   2.053  12.950 -0.6583 -0.2037 -0.1837
17946TIP3    H175253   5.628   2.102  12.911 -1.7707  0.8049  2.8646
17946TIP3    H275254   5.659   1.988  13.005  0.6021  1.0345  2.4361
17947TIP3   OH275255   2.642   0.298  11.961  0.1692  0.1678  0.4947
17947TIP3    H175256   2.648   0.372  12.020  0.2111 -1.1618  2.2442
17947TIP3    H275257   2.666   0.222  12.015 -1.9266 -1.4006 -0.6093
17948TIP3   OH275258   2.114   5.353   2.863  0.3536  0.3962 -0.1844
17948TIP3    H175259   2.065   5.371   2.943 -1.3726  2.8051 -1.6376
17948TIP3    H275260   2.089   5.264   2.840  0.8276 -0.3131  1.8837
17949TIP3   OH275261   5.275   1.800  12.993  0.1345 -0.9436 -0.1025
17949TIP3    H175262   5.280   1.731  12.927 -3.7799 -1.2631 -0.2950
17949TIP3    H275263   5.231   1.759  13.067 -0.3592  0.7930  0.6236
17950TIP3   OH275264   5.987   4.676   2.948  0.6489 -0.0973 -0.2947
17950TIP3    H175265   6.021   4.611   3.010 -3.7614 -1.5709  1.0185
17950TIP3    H275266   5.949   4.744   3.004  1.5012  1.4910 -1.5879
17951TIP3   OH275267   3.613   5.105   4.288 -0.2502 -0.4132  0.3627
17951TIP3    H175268   3.618   5.010   4.287 -2.7683 -0.6628  2.0512
17951TIP3    H275269   3.660   5.131   4.367  2.0320 -0.0023 -1.0241
17952TIP3   OH275270   6.003   6.604   4.310  0.2480  0.1698  0.4545
17952TIP3    H175271   6.043   6.554   4.239 -1.4848  0.8649 -1.1279
17952TIP3    H275272   6.033   6.694   4.295 -0.3723  0.3702  0.3837
17953TIP3   OH275273   5.652   3.643  12.253 -0.4623 -0.1734 -0.0025
17953TIP3    H175274   5.644   3.702  12.178 -0.8209  2.2693  1.8508
17953TIP3    H275275   5.562   3.634  12.285 -0.2591 -0.8956  0.3767
17954TIP3   OH275276   1.507   3.232   5.190 -0.9955  0.1437  0.2904
17954TIP3    H175277   1.513   3.198   5.101 -0.1575 -3.3189  1.4831
17954TIP3    H275278   1.588   3.283   5.201 -1.6479  1.5812 -1.2063
17955TIP3   OH275279   0.147   3.257   2.081 -0.1956  0.2892  0.3070
17955TIP3    H175280   0.209   3.248   2.154 -1.5745  0.7209  1.5673
17955TIP3    H275281   0.113   3.168   2.068  0.5587  0.0761 -0.3020
17956TIP3   OH275282   3.100   4.210   2.014  0.4466 -0.2989  0.0205
17956TIP3    H175283   3.172   4.271   2.028 -0.4632  0.9120 -0.3671
17956TIP3    H275284   3.055   4.205   2.098 -0.7451  1.3157 -0.4507
17957TIP3   OH275285   3.795   3.066   4.685  0.0738 -0.0182  0.1317
17957TIP3    H175286   3.868   3.004   4.685  1.7767  1.8376  2.1736
17957TIP3    H275287   3.776   3.081   4.777 -1.4563  1.2057 -0.3408
17958TIP3   OH275288   0.180   5.115  17.441 -0.0719 -0.2132  0.6512
17958TIP3    H175289   0.106   5.157  17.396  0.7809  1.5879  0.8125
17958TIP3    H275290   0.210   5.047  17.380  0.9996  2.0851 -1.6135
17959TIP3   OH275291   4.077   1.813   2.335 -0.2329  0.5817  0.0492
17959TIP3    H175292   4.131   1.750   2.287 -0.2147 -0.1161  0.9818
17959TIP3    H275293   4.063   1.883   2.271  2.0641  0.9784 -0.1287
17960TIP3   OH275294   6.739   2.410  17.357 -0.3621 -0.2916 -0.9075
17960TIP3    H175295   6.679   2.398  17.283  2.7292 -0.6796 -3.6123
17960TIP3    H275296   6.797   2.334  17.353  0.6051  0.2590  1.2534
17961TIP3   OH275297   6.614   1.416  11.569 -0.2582 -0.3316 -0.0200
17961TIP3    H175298   6.621   1.505  11.534  0.9062 -1.0465 -1.7882
17961TIP3    H275299   6.702   1.396  11.601 -1.0326 -0.1227  2.3915
17962TIP3   OH275300   3.056   5.718  10.936 -0.3286 -0.4593  0.3150
17962TIP3    H175301   2.977   5.678  10.971 -0.3246 -0.7365  0.0146
17962TIP3    H275302   3.122   5.649  10.942  0.3023  0.2564  2.0119
17963TIP3   OH275303   2.197   1.568  15.940  0.1406 -0.2272  0.0761
17963TIP3    H175304   2.244   1.490  15.968 -1.3502 -0.7852  1.1503
17963TIP3    H275305   2.137   1.537  15.872 -1.1257 -0.2401  1.1658
17964TIP3   OH275306   3.485   0.327  17.270  0.2365  0.5770 -0.3882
17964TIP3    H175307   3.527   0.365  17.348 -3.2073  0.6917  1.6022
17964TIP3    H275308   3.488   0.233  17.285 -0.7932  0.6162  0.1427
17965TIP3   OH275309   1.179   3.623  11.028 -0.0222 -0.3295  0.3919
17965TIP3    H175310   1.214   3.659  10.947 -0.2850 -0.3589  0.2631
17965TIP3    H275311   1.249   3.635  11.092 -0.4350  1.2281  0.5813
17966TIP3   OH275312   3.327   4.032   2.905  0.4890  0.6615  0.4665
17966TIP3    H175313   3.296   4.107   2.854  2.9388  2.6651  1.7013
17966TIP3    H275314   3.372   3.977   2.841 -0.5654  0.6444 -0.2993
17967TIP3   OH275315   0.572   5.911   2.016 -0.1891 -0.1651 -0.0646
17967TIP3    H175316   0.479   5.921   1.998  0.0385 -0.2828 -1.3519
17967TIP3    H275317   0.585   5.816   2.027 -0.2644 -0.1245  0.4000
17968TIP3   OH275318   0.306   1.100   3.442  0.5007 -0.1464  0.4217
17968TIP3    H175319   0.310   1.109   3.537  1.1039  0.8835  0.3069
17968TIP3    H275320   0.242   1.165   3.414  0.3493 -0.4247  0.1162
17969TIP3   OH275321   4.675   3.347  12.737 -0.6272 -0.3799 -0.0118
17969TIP3    H175322   4.647   3.345  12.829 -0.2961  0.0978  0.1067
17969TIP3    H275323   4.731   3.424  12.731 -2.4205  0.9176 -1.1254
17970TIP3   OH275324   0.911   5.140  10.777 -0.4449 -0.2565  0.3143
17970TIP3    H175325   0.842   5.074  10.777 -1.4140  0.6281  2.5985
17970TIP3    H275326   0.873   5.214  10.824  1.9024  0.4432  1.2768
17971TIP3   OH275327   4.816   1.319  13.993 -0.1292 -0.1694  0.1658
17971TIP3    H175328   4.774   1.374  13.926  1.1128  0.8121  0.1583
17971TIP3    H275329   4.846   1.382  14.059  0.1727 -0.9701  0.7989
17972TIP3   OH275330   1.976   5.165  16.791 -0.4817 -0.1990 -0.6410
17972TIP3    H175331   1.983   5.240  16.850  0.7502 -0.7170 -0.0928
17972TIP3    H275332   1.883   5.162  16.766 -0.7903  0.7296  0.3366
17973TIP3   OH275333   2.851   4.908   0.742 -0.0931 -0.3913 -0.3218
17973TIP3    H175334   2.775   4.879   0.793 -0.4214 -0.9423 -1.0965
17973TIP3    H275335   2.866   4.998   0.770  1.2550 -1.3958  2.5510
17974TIP3   OH275336   1.072   2.782   4.733  0.0590 -0.8291  0.3931
17974TIP3    H175337   1.024   2.864   4.725 -0.0917 -1.0673 -1.8451
17974TIP3    H275338   1.152   2.795   4.682  1.2486 -1.2444  2.1009
17975TIP3   OH275339   4.746   2.779   0.984 -0.0784  0.0633  0.5803
17975TIP3    H175340   4.833   2.819   0.983  0.9716 -2.0946 -0.0860
17975TIP3    H275341   4.742   2.732   1.067  0.1187 -1.2814 -0.1503
17976TIP3   OH275342   4.977   1.712  13.148  0.2563 -0.0803  0.1738
17976TIP3    H175343   4.956   1.772  13.077  0.7365 -0.8639 -0.6444
17976TIP3    H275344   4.974   1.766  13.227  2.2920  1.4277 -0.6881
17977TIP3   OH275345   0.634   5.612  12.160  0.1441 -0.5588  0.2024
17977TIP3    H175346   0.678   5.582  12.080 -0.5647  0.6102 -0.6575
17977TIP3    H275347   0.598   5.698  12.137  1.3983  0.6009  2.3217
17978TIP3   OH275348   6.588   1.229   2.160 -1.0352  0.7585  0.4381
17978TIP3    H175349   6.680   1.247   2.140 -0.9332  1.0217  1.1139
17978TIP3    H275350   6.540   1.258   2.082 -0.6254  1.4999  0.4562
17979TIP3   OH275351   5.086   4.370  14.754  0.1237  0.1527  0.6181
17979TIP3    H175352   4.994   4.364  14.728  0.1228  0.4405  0.5496
17979TIP3    H275353   5.095   4.458  14.791  0.8168  0.9159 -1.2020
17980TIP3   OH275354   1.132   0.752   2.662  0.3157 -0.4538 -0.1804
17980TIP3    H175355   1.106   0.808   2.589 -0.5059 -0.1060  0.3585
17980TIP3    H275356   1.066   0.682   2.663  0.0394 -0.1994  0.4957
17981TIP3   OH275357   3.836   5.475   5.410  0.2615 -0.2892  0.3526
17981TIP3    H175358   3.758   5.483   5.465  1.0499  1.4097  1.2765
17981TIP3    H275359   3.840   5.558   5.363  1.5235 -0.3618  0.3153
17982TIP3   OH275360   2.851   5.756  13.601 -0.5939 -0.0612 -0.7026
17982TIP3    H175361   2.859   5.670  13.559 -0.8521 -0.6140  0.3420
17982TIP3    H275362   2.938   5.772  13.639 -1.0524 -0.7272  0.6853
17983TIP3   OH275363   2.257   1.431  12.945  0.0960 -0.8491  0.0300
17983TIP3    H175364   2.169   1.469  12.948  0.7519  1.0939 -2.0959
17983TIP3    H275365   2.312   1.495  12.990  0.3838 -2.4180  2.0344
17984TIP3   OH275366   5.452   3.235  11.552 -0.1359  0.1143  0.0130
17984TIP3    H175367   5.403   3.218  11.471 -1.9886  1.9848  0.6440
17984TIP3    H275368   5.467   3.149  11.590  0.5950 -0.7875 -2.1928
17985TIP3   OH275369   5.519   4.893  13.592  0.0866  0.0650  0.2943
17985TIP3    H175370   5.515   4.828  13.522 -1.8759  0.2442  0.1862
17985TIP3    H275371   5.613   4.909  13.605  0.5060 -0.2128 -2.0521
17986TIP3   OH275372   4.201   1.316  12.711 -0.6736 -0.6975  0.4329
17986TIP3    H175373   4.117   1.306  12.755 -0.5635 -0.6831  0.6499
17986TIP3    H275374   4.179   1.330  12.619 -1.0348  1.8636  0.8183
17987TIP3   OH275375   2.421   2.007   0.916  0.2392 -0.5948  0.1984
17987TIP3    H175376   2.383   2.088   0.882 -0.8816 -0.9615  0.5207
17987TIP3    H275377   2.440   1.955   0.838 -2.4065 -1.4692  0.0187
17988TIP3   OH275378   3.185   1.711  14.835  0.1470 -0.2743  0.1912
17988TIP3    H175379   3.223   1.745  14.753 -1.6984  1.4465 -0.0107
17988TIP3    H275380   3.091   1.714  14.821 -0.1819 -2.9836  1.2584
17989TIP3   OH275381   4.844   0.389   3.894  0.4329  0.1921 -0.0622
17989TIP3    H175382   4.923   0.335   3.888  0.0024 -0.4571 -0.0673
17989TIP3    H275383   4.872   0.468   3.939  0.5979 -1.0281  2.0996
17990TIP3   OH275384   0.607   3.640   3.535  0.0028 -0.1795 -0.1503
17990TIP3    H175385   0.677   3.612   3.595  1.0847  0.1871 -1.1944
17990TIP3    H275386   0.583   3.561   3.487 -0.5146 -0.3694  0.4183
17991TIP3   OH275387   3.155   4.113   3.654 -0.5685 -0.7808 -0.3806
17991TIP3    H175388   3.173   4.158   3.571  0.2494 -0.1165  0.1275
17991TIP3    H275389   3.207   4.032   3.649  0.7275 -0.0178  0.0815
17992TIP3   OH275390   5.043   2.312   4.414 -0.2223  0.6826  0.2196
17992TIP3    H175391   5.005   2.293   4.328  1.0355 -0.1185 -0.1957
17992TIP3    H275392   5.079   2.400   4.404  1.7829 -0.1854 -0.8272
17993TIP3   OH275393   3.871   1.865   4.420 -0.1864 -0.0254  0.0069
17993TIP3    H175394   3.943   1.883   4.481 -0.1186  0.7590 -0.2996
17993TIP3    H275395   3.792   1.872   4.473 -0.1337  0.7478 -0.0130
17994TIP3   OH275396   3.995   1.913   6.122 -0.1055 -0.4376 -0.5890
17994TIP3    H175397   4.007   1.847   6.054  0.3040 -1.2493  0.2538
17994TIP3    H275398   4.079   1.914   6.168 -0.1264  0.6452 -0.5592
17995TIP3   OH275399   0.234   1.863   0.603  0.0415  0.5338 -0.2558
17995TIP3    H175400   0.295   1.916   0.552 -0.3756  2.9152  1.5623
17995TIP3    H275401   0.290   1.810   0.659  0.4602  0.8067 -0.4094
17996TIP3   OH275402   0.059   0.943  11.219 -0.3390 -0.1893 -0.2445
17996TIP3    H175403   0.139   0.938  11.272 -1.3947 -1.9448  1.3212
17996TIP3    H275404   0.075   0.884  11.145 -0.0867 -0.3528 -0.0617
17997TIP3   OH275405   0.598   3.053   4.554 -0.1693 -0.4260  0.2380
17997TIP3    H175406   0.678   3.082   4.596  1.0181 -1.0640 -1.4729
17997TIP3    H275407   0.602   2.957   4.557 -0.0982 -0.4904 -1.1588
17998TIP3   OH275408   4.332   5.809   3.969  0.7719 -0.2609 -0.5642
17998TIP3    H175409   4.424   5.785   3.978  0.3403 -2.2579 -1.0115
17998TIP3    H275410   4.291   5.733   3.928 -1.1519  0.4368 -0.0521
17999TIP3   OH275411   6.233   6.051  11.362  0.6903  0.2001 -0.5839
17999TIP3    H175412   6.229   6.094  11.448  0.2250 -0.4840 -0.2545
17999TIP3    H275413   6.311   6.088  11.321  0.7367  0.7809  0.0013
18000TIP3   OH275414   5.662   4.422   3.949 -0.0207 -0.3312 -0.3762
18000TIP3    H175415   5.664   4.518   3.953  0.7414 -0.3144 -0.9464
18000TIP3    H275416   5.692   4.393   4.035  0.9364 -0.0522 -0.6122
18001TIP3   OH275417   3.131   2.495   3.679 -0.2258  0.4074  0.2437
18001TIP3    H175418   3.147   2.456   3.593  0.5584  0.3825  0.3924
18001TIP3    H275419   3.104   2.584   3.660 -0.2842  0.3319 -0.0398
18002TIP3   OH275420   6.189   6.450  16.093 -0.1580  0.0081  0.1021
18002TIP3    H175421   6.139   6.532  16.089  0.9369  0.6969  0.3314
18002TIP3    H275422   6.194   6.421  16.002  0.1019  0.5895 -0.0683
18003TIP3   OH275423   2.816   4.029  14.179  0.0225  0.2460  0.2705
18003TIP3    H175424   2.827   4.037  14.274 -0.8968  0.7294  0.3390
18003TIP3    H275425   2.896   3.984  14.150  0.1299 -0.2707  1.3192
18004TIP3   OH275426   1.414   5.446  12.019 -0.0784  0.0333  0.7492
18004TIP3    H175427   1.439   5.530  11.979 -0.2387 -0.4166 -0.3334
18004TIP3    H275428   1.479   5.432  12.087  1.6696 -0.2891 -0.8894
18005TIP3   OH275429   1.579   3.011   1.071 -0.4792  0.6919  0.0260
18005TIP3    H175430   1.569   3.102   1.099  0.1622  0.6628  0.3734
18005TIP3    H275431   1.641   3.015   0.998  2.7119  0.2020  2.4758
18006TIP3   OH275432   4.236   3.370   5.519 -1.0422 -0.1362  0.2533
18006TIP3    H175433   4.254   3.284   5.484 -0.8642 -0.4869  1.1738
18006TIP3    H275434   4.303   3.384   5.586 -1.1591  0.6472  0.2197
18007TIP3   OH275435   5.109   6.017  17.029  0.2133  0.4225  0.4233
18007TIP3    H175436   5.047   5.945  17.036  0.9221 -0.4704 -1.6038
18007TIP3    H275437   5.072   6.086  17.084 -2.7483  0.0298 -0.8916
18008TIP3   OH275438   2.663   5.724   1.119  0.2454  0.5882 -0.1052
18008TIP3    H175439   2.649   5.733   1.214  2.4418 -0.6704  0.3890
18008TIP3    H275440   2.756   5.743   1.106  0.2385 -0.4049 -1.8544
18009TIP3   OH275441   5.065   5.562   4.592 -0.4826 -0.1837 -0.5884
18009TIP3    H175442   5.013   5.638   4.564 -2.3141 -0.1583  2.4453
18009TIP3    H275443   5.001   5.502   4.630  1.3329 -1.7978  0.0625
18010TIP3   OH275444   2.311   3.741   1.671 -0.1788 -0.1469 -0.3123
18010TIP3    H175445   2.367   3.699   1.737  0.4719  1.2449  0.0757
18010TIP3    H275446   2.224   3.707   1.688 -0.3484  1.3502  2.3709
18011TIP3   OH275447   6.126   2.417   6.002 -0.1194 -0.2221  0.3616
18011TIP3    H175448   6.096   2.392   5.915  0.0259  1.2799 -0.1510
18011TIP3    H275449   6.078   2.360   6.062 -1.6534  0.0067 -0.6064
18012TIP3   OH275450   1.972   0.497   1.976 -0.2122 -0.3712 -0.1700
18012TIP3    H175451   1.922   0.528   1.901 -0.8338 -0.2353  0.2958
18012TIP3    H275452   2.049   0.454   1.937 -0.0289  0.5405 -0.8532
18013TIP3   OH275453   1.929   0.693  14.164 -0.5145  0.0405  0.1690
18013TIP3    H175454   1.917   0.786  14.186 -2.7490 -0.3155  0.7017
18013TIP3    H275455   1.877   0.680  14.085 -0.9746 -0.9408  0.6195
18014TIP3   OH275456   0.374   4.276  12.447 -0.1506  0.2182 -0.1739
18014TIP3    H175457   0.403   4.186  12.464 -0.1164  0.1892 -0.3770
18014TIP3    H275458   0.453   4.321  12.416  0.3010  0.8358  1.7716
18015TIP3   OH275459   4.534   1.298  13.749  0.1357 -0.0061  0.5286
18015TIP3    H175460   4.455   1.272  13.797  0.1840  0.4898  0.8774
18015TIP3    H275461   4.503   1.314  13.660 -0.3167  0.9884  0.8488
18016TIP3   OH275462   5.340   2.500   0.891 -0.6494 -0.4735  0.2532
18016TIP3    H175463   5.273   2.432   0.884  0.1896 -1.4866  1.6071
18016TIP3    H275464   5.396   2.472   0.963  0.8647  0.6747 -0.4087
18017TIP3   OH275465   6.373   5.265  13.768 -0.1850 -0.0614  0.0823
18017TIP3    H175466   6.428   5.189  13.751  0.2901  0.4903 -0.9561
18017TIP3    H275467   6.421   5.338  13.729 -1.8497  0.3726 -1.2938
18018TIP3   OH275468   6.196   4.009   2.628  0.1296 -0.0693  0.3963
18018TIP3    H175469   6.180   4.057   2.547  0.7879 -2.8583 -1.5342
18018TIP3    H275470   6.112   4.009   2.673 -0.3819  1.0980 -0.5199
18019TIP3   OH275471   6.453   0.822  12.121 -0.4733 -0.5545 -0.2817
18019TIP3    H175472   6.464   0.855  12.210 -0.0527 -1.4858  0.0311
18019TIP3    H275473   6.379   0.871  12.086  0.0385  0.5993  0.1908
18020TIP3   OH275474   0.338   3.993  13.993 -0.2922  0.6008 -0.5186
18020TIP3    H175475   0.265   4.034  13.947 -0.5001  3.5285  2.1270
18020TIP3    H275476   0.301   3.913  14.031 -1.6883  1.2333 -0.5018
18021TIP3   OH275477   4.969   0.638  15.858 -0.2580 -0.7106 -0.1929
18021TIP3    H175478   5.014   0.615  15.777 -0.2705 -0.5407 -0.2489
18021TIP3    H275479   4.952   0.554  15.901  2.6165 -0.7200  1.1758
18022TIP3   OH275480   2.525   4.228  15.644 -0.0300 -0.1335  0.1932
18022TIP3    H175481   2.543   4.138  15.671 -0.2176 -0.0325  0.6637
18022TIP3    H275482   2.490   4.271  15.722  0.6568  0.5255  0.1562
18023TIP3   OH275483   0.274   2.869   3.532  0.1347 -0.3830 -0.0487
18023TIP3    H175484   0.219   2.796   3.558  0.8687 -0.5353  1.1494
18023TIP3    H275485   0.263   2.875   3.437 -1.2760 -0.9327  0.0582
18024TIP3   OH275486   2.792   2.818   1.518  0.0989 -0.8720  0.0848
18024TIP3    H175487   2.714   2.763   1.528 -0.7949  0.2847 -0.3092
18024TIP3    H275488   2.789   2.846   1.427  0.6468 -0.3187  0.2367
18025TIP3   OH275489   4.286   1.352  14.506 -0.1120 -0.0964 -0.0042
18025TIP3    H175490   4.321   1.329  14.420 -1.1847  1.7888 -1.0059
18025TIP3    H275491   4.341   1.424  14.536 -1.8700  1.6781 -0.7921
18026TIP3   OH275492   0.773   6.595  16.953 -0.0834 -0.2091  0.2790
18026TIP3    H175493   0.708   6.637  17.010  0.6230  1.1393  0.1170
18026TIP3    H275494   0.751   6.502  16.957 -1.5228  0.1296  0.8618
18027TIP3   OH275495   4.383   1.054   4.888 -0.1753  0.3606  0.6964
18027TIP3    H175496   4.431   0.993   4.943  0.2146  0.4517  0.4636
18027TIP3    H275497   4.448   1.120   4.863 -0.9842  1.9150  2.4244
18028TIP3   OH275498   3.558   6.243  16.285  0.8585 -0.3765  0.5758
18028TIP3    H175499   3.551   6.323  16.336  2.5910  1.8639 -2.3314
18028TIP3    H275500   3.519   6.264  16.200  1.6190 -2.4907 -0.3993
18029TIP3   OH275501   0.438   0.625  14.336 -0.1462  0.0488 -0.6677
18029TIP3    H175502   0.411   0.538  14.367  0.1846  0.3574  0.5454
18029TIP3    H275503   0.376   0.685  14.376  0.6592  0.5173 -0.0953
18030TIP3   OH275504   3.189   5.328   2.752  0.1203 -0.1023 -0.2076
18030TIP3    H175505   3.213   5.243   2.716 -0.0137 -0.7355  1.1509
18030TIP3    H275506   3.188   5.315   2.847 -0.4781  1.2633 -0.0022
18031TIP3   OH275507   0.360   4.023  11.230 -0.1085  0.6499 -0.3810
18031TIP3    H175508   0.415   4.101  11.223 -0.4577  0.9101 -0.2641
18031TIP3    H275509   0.288   4.050  11.288 -0.4462  0.3677 -0.6648
18032TIP3   OH275510   3.372   2.775  11.751  0.1750 -0.1001  0.1523
18032TIP3    H175511   3.388   2.755  11.843  2.7256  0.2787 -0.1412
18032TIP3    H275512   3.292   2.827  11.751  0.4914  0.4726  2.2494
18033TIP3   OH275513   4.795   1.548  15.939 -0.1499 -0.0598 -0.0964
18033TIP3    H175514   4.880   1.505  15.939  0.9711  1.9996 -0.1035
18033TIP3    H275515   4.749   1.512  16.015  1.0821 -0.5578  0.4323
18034TIP3   OH275516   3.701   3.250   6.308 -0.0800  0.3387  0.2086
18034TIP3    H175517   3.755   3.329   6.313  0.4764 -0.1352  2.3820
18034TIP3    H275518   3.624   3.270   6.361 -1.5270  0.5354 -1.8243
18035TIP3   OH275519   2.174   4.673   2.852  0.8305 -0.3356 -0.1931
18035TIP3    H175520   2.252   4.642   2.808  0.0290 -1.2299 -1.0306
18035TIP3    H275521   2.119   4.595   2.861  0.4628  0.0668  1.3143
18036TIP3   OH275522   1.663   1.619  16.730 -0.1060  0.6623  0.4000
18036TIP3    H175523   1.644   1.684  16.798 -1.8654 -0.7009  1.2869
18036TIP3    H275524   1.643   1.535  16.771 -0.3995 -0.2632 -1.5373
18037TIP3   OH275525   4.213   5.572   5.237  0.1930  0.5462  0.4515
18037TIP3    H175526   4.299   5.613   5.239  0.5279 -0.1878  1.2687
18037TIP3    H275527   4.182   5.586   5.147  1.4272  0.2651 -0.0291
18038TIP3   OH275528   0.970   5.307  17.131  0.7758  0.2508 -0.1520
18038TIP3    H175529   0.888   5.265  17.156 -0.3382  1.8450 -0.9728
18038TIP3    H275530   1.011   5.245  17.070  0.2267 -0.5765  0.2970
18039TIP3   OH275531   4.020   5.430  15.911 -0.6032 -0.8656  0.1506
18039TIP3    H175532   3.926   5.416  15.896 -0.3709 -1.2417 -0.9797
18039TIP3    H275533   4.026   5.449  16.005 -1.8812 -0.2423  0.1308
18040TIP3   OH275534   2.930   6.689  15.429  0.3684  0.8862  0.3258
18040TIP3    H175535   2.939   6.771  15.476  0.0454  1.3457 -0.3923
18040TIP3    H275536   3.002   6.689  15.366 -1.6734  2.3620 -2.1822
18041TIP3   OH275537   4.864   2.436   0.889 -0.0522 -0.1347  0.2841
18041TIP3    H175538   4.930   2.366   0.884  0.4155  0.2915  0.4436
18041TIP3    H275539   4.871   2.470   0.978 -0.3268  0.0760  0.2271
18042TIP3   OH275540   6.102   3.857  16.885  0.8179 -0.8497  0.1119
18042TIP3    H175541   6.163   3.800  16.839 -0.0524 -0.5613 -1.4517
18042TIP3    H275542   6.040   3.886  16.818 -1.9223 -2.2506  1.8607
18043TIP3   OH275543   4.486   0.023  11.410 -0.2854  0.1796 -0.1109
18043TIP3    H175544   4.536   0.100  11.438  0.8110  0.0801 -1.6850
18043TIP3    H275545   4.446  -0.009  11.490 -0.7703  2.3822  0.5931
18044TIP3   OH275546   0.067   0.716   5.098 -0.2596 -0.0350 -0.1726
18044TIP3    H175547   0.091   0.765   5.177 -0.5290 -0.2007  0.0144
18044TIP3    H275548   0.101   0.628   5.113  1.2821  0.3744 -1.0199
18045TIP3   OH275549   6.557   4.629  13.312 -0.2683 -0.1577 -0.4881
18045TIP3    H175550   6.475   4.661  13.351 -0.4141 -2.4345  1.3096
18045TIP3    H275551   6.534   4.544  13.274  0.4634  0.8999 -3.5363
18046TIP3   OH275552   6.434   2.095  12.205  0.2766 -0.3333  0.2847
18046TIP3    H175553   6.446   2.016  12.152 -0.6428 -0.5296  0.3554
18046TIP3    H275554   6.381   2.153  12.151  2.4281  1.0211 -0.5140
18047TIP3   OH275555   2.523   5.839  12.420  0.3073 -0.0599  0.0807
18047TIP3    H175556   2.545   5.747  12.437  1.4547  0.5210  2.1678
18047TIP3    H275557   2.436   5.850  12.458  0.3016 -0.2315  0.1177
18048TIP3   OH275558   0.727   0.444   4.752 -0.3479 -0.1033 -0.1808
18048TIP3    H175559   0.760   0.432   4.841  1.0579  2.5255 -0.2278
18048TIP3    H275560   0.643   0.488   4.763  0.0474  0.6576 -0.1194
18049TIP3   OH275561   3.398   4.829  14.917  0.2821 -0.5248 -0.2096
18049TIP3    H175562   3.400   4.780  14.835  4.0169 -1.5814  0.2846
18049TIP3    H275563   3.394   4.761  14.985  1.5182  0.0378  0.4612
18050TIP3   OH275564   1.649   2.237  16.262 -0.0261 -0.0795  0.2377
18050TIP3    H175565   1.620   2.154  16.301 -0.2322 -0.3482 -0.4899
18050TIP3    H275566   1.610   2.304  16.318 -1.8699 -0.4256 -0.5624
18051TIP3   OH275567   2.805   2.250  14.598  0.3971  0.4489  0.0181
18051TIP3    H175568   2.845   2.166  14.576  0.4071  0.7434 -1.1743
18051TIP3    H275569   2.712   2.239  14.577  0.6012  1.1035 -1.3489
18052TIP3   OH275570   1.987   5.132   4.991 -0.3344 -0.3421  0.0479
18052TIP3    H175571   1.899   5.165   4.975 -1.3830 -0.7502  3.9453
18052TIP3    H275572   1.980   5.037   4.981 -0.9322 -0.5742  2.1791
18053TIP3   OH275573   1.780   4.557  14.093 -0.0500 -0.3876 -0.1125
18053TIP3    H175574   1.794   4.487  14.030  2.1319 -0.7349  0.6542
18053TIP3    H275575   1.816   4.635  14.051 -1.2175  0.0112 -0.4118
18054TIP3   OH275576   6.583   0.343   5.451 -0.1535 -0.1677 -0.2209
18054TIP3    H175577   6.575   0.345   5.356 -0.1694  0.6928 -0.2113
18054TIP3    H275578   6.678   0.337   5.467 -0.1885 -0.9776 -0.2882
18055TIP3   OH275579   4.107   1.504  14.041  0.0472  0.0784  0.3825
18055TIP3    H175580   4.016   1.498  14.011  1.3443 -0.7745 -3.9227
18055TIP3    H275581   4.130   1.415  14.067  0.1799 -0.0782 -0.2715
18056TIP3   OH275582   3.239   0.571   0.757  0.2705 -0.6192 -0.0549
18056TIP3    H175583   3.191   0.516   0.695 -0.3273 -0.7180  0.4758
18056TIP3    H275584   3.204   0.545   0.843  0.4120  0.1657  0.2478
18057TIP3   OH275585   4.741   2.435  14.605  0.0587 -0.5916  0.1906
18057TIP3    H175586   4.652   2.450  14.638  0.2096 -0.3700  0.4970
18057TIP3    H275587   4.729   2.420  14.511 -0.3084 -0.5989  0.2365
18058TIP3   OH275588   6.062   5.837  11.268  0.6334 -0.3755  0.0620
18058TIP3    H175589   5.981   5.831  11.318 -0.2657 -0.7517 -1.3866
18058TIP3    H275590   6.122   5.886  11.325  0.7422 -3.4142  2.8679
18059TIP3   OH275591   1.351   3.566  16.673  0.7091 -0.8422 -0.0126
18059TIP3    H175592   1.269   3.542  16.630  1.7164 -0.5326 -2.2492
18059TIP3    H275593   1.379   3.485  16.717 -1.5857 -0.4996  2.3346
18060TIP3   OH275594   3.505   4.261  13.150 -0.2954 -0.4382  0.2723
18060TIP3    H175595   3.527   4.204  13.076  2.1789  0.1913  0.4346
18060TIP3    H275596   3.544   4.345  13.127 -0.1536 -0.0139  1.9367
18061TIP3   OH275597   0.027   0.215  11.907 -0.7009  0.5473  0.1418
18061TIP3    H175598  -0.008   0.295  11.868  1.1911  0.7046 -1.3946
18061TIP3    H275599   0.061   0.242  11.992 -1.6854  0.9527  0.4263
18062TIP3   OH275600   4.188   5.777  16.593  0.2202  0.1953  0.1225
18062TIP3    H175601   4.178   5.817  16.507 -0.5721  0.7122  0.4458
18062TIP3    H275602   4.101   5.743  16.614 -0.0685  1.6873  1.5002
18063TIP3   OH275603   5.424   0.853  11.936 -0.0658  0.9316  0.4185
18063TIP3    H175604   5.421   0.929  11.878  0.9851  1.1307  0.6147
18063TIP3    H275605   5.421   0.778  11.876 -3.9713  0.9650  0.2781
18064TIP3   OH275606   2.837   0.188  12.137  0.2911  0.3456  0.0619
18064TIP3    H175607   2.865   0.275  12.166  1.5151  0.2950 -0.8788
18064TIP3    H275608   2.859   0.130  12.209 -0.6468  0.8281  0.7473
18065TIP3   OH275609   5.707   5.838   1.243  0.7805  0.0021  0.4366
18065TIP3    H175610   5.620   5.876   1.252  0.7457 -0.0292  0.2313
18065TIP3    H275611   5.751   5.894   1.178  0.8189 -0.1496  0.3328
18066TIP3   OH275612   4.934   6.515   3.840 -0.1190  0.4065 -0.5087
18066TIP3    H175613   4.973   6.469   3.914 -0.5808 -1.1500 -1.1871
18066TIP3    H275614   4.999   6.582   3.816 -0.1617  1.2413  1.5310
18067TIP3   OH275615   1.992   4.152  14.722  0.5876 -0.3382 -0.4118
18067TIP3    H175616   2.018   4.066  14.756 -0.0096 -0.5330 -0.4290
18067TIP3    H275617   1.903   4.165  14.755  1.0938  0.8130  0.5931
18068TIP3   OH275618   2.818   5.459   1.312  0.0721  0.1445  0.0739
18068TIP3    H175619   2.814   5.412   1.228  2.9051 -0.2522  0.0622
18068TIP3    H275620   2.891   5.520   1.302  0.6961 -0.1476  2.3431
18069TIP3   OH275621   5.818   5.553  16.338  0.2882  0.3072 -0.6117
18069TIP3    H175622   5.888   5.580  16.398 -0.6449  2.0095 -0.2465
18069TIP3    H275623   5.812   5.625  16.275 -1.9521  0.8229  0.0988
18070TIP3   OH275624   5.298   0.723  15.905 -0.5933  0.2283  0.1387
18070TIP3    H175625   5.345   0.671  15.971  0.5944  1.0993  0.0148
18070TIP3    H275626   5.363   0.739  15.837 -0.6892  2.4452  0.4942
18071TIP3   OH275627   2.806   1.829  15.680  0.4739 -0.0510  0.3176
18071TIP3    H175628   2.750   1.753  15.692  0.9184 -0.1027  2.2858
18071TIP3    H275629   2.895   1.794  15.682  0.6675  0.4452  0.6096
18072TIP3   OH275630   0.186   0.655   6.923  0.1226 -0.3273  0.1133
18072TIP3    H175631   0.106   0.644   6.871  0.3823 -0.0709 -0.3442
18072TIP3    H275632   0.230   0.731   6.884 -0.1361  0.4594  1.2827
18073TIP3   OH275633   4.855   5.693   4.793  0.0374 -1.0450  0.0524
18073TIP3    H175634   4.822   5.614   4.749  2.8197 -1.6178 -1.2575
18073TIP3    H275635   4.944   5.669   4.821  0.3882  1.1455  1.0232
18074TIP3   OH275636   0.130   0.380  13.833 -0.3170  0.1688 -0.3541
18074TIP3    H175637   0.188   0.438  13.783  0.0197  0.0700 -0.0794
18074TIP3    H275638   0.090   0.435  13.900 -0.8150  0.3150 -0.7614
18075TIP3   OH275639   3.448   4.815  16.456  0.3920 -0.2039  0.1133
18075TIP3    H175640   3.433   4.857  16.372  0.2440  1.3757  0.8985
18075TIP3    H275641   3.397   4.866  16.519  0.5921 -1.2752  1.1873
18076TIP3   OH275642   2.335   0.376  16.491  0.2545  0.1121 -0.1663
18076TIP3    H175643   2.304   0.288  16.513 -0.8688  0.7126  0.8456
18076TIP3    H275644   2.422   0.382  16.530 -1.0020  0.5395  2.8624
18077TIP3   OH275645   6.052   0.101   4.744 -0.1717 -1.0020  0.4549
18077TIP3    H175646   6.081   0.188   4.774  0.2550 -0.6703 -0.8431
18077TIP3    H275647   6.098   0.040   4.801  1.3042 -0.4144 -0.0406
18078TIP3   OH275648   6.617   2.213   4.004  0.3287 -0.6073 -0.0303
18078TIP3    H175649   6.526   2.192   4.026 -0.5132  1.6185 -1.1046
18078TIP3    H275650   6.659   2.229   4.088 -0.3882 -1.1352  0.4431
18079TIP3   OH275651   4.948   5.913  12.727  0.1099  0.9285 -0.1500
18079TIP3    H175652   4.952   5.917  12.823  0.8057 -2.6889  0.1001
18079TIP3    H275653   4.855   5.907  12.707  0.0137  0.4593  0.4136
18080TIP3   OH275654   4.505   5.251   3.398 -0.4320  0.3581 -0.1067
18080TIP3    H175655   4.473   5.304   3.325 -1.2444 -0.9291 -0.7250
18080TIP3    H275656   4.576   5.198   3.361 -1.9586 -1.5520 -0.4936
18081TIP3   OH275657   4.895   1.006   1.339 -0.2190 -0.2982 -0.1255
18081TIP3    H175658   4.831   1.049   1.283  0.1850 -0.4735 -0.7358
18081TIP3    H275659   4.973   0.997   1.284 -0.5012 -2.4462 -0.2795
18082TIP3   OH275660   3.723   4.697   0.841  0.0421  0.1393  0.3369
18082TIP3    H175661   3.696   4.787   0.860 -1.4870 -0.3359  0.4868
18082TIP3    H275662   3.642   4.651   0.820  0.9499 -0.9107 -1.0178
18083TIP3   OH275663   0.895   4.023  17.438 -0.7765 -0.2357  0.4746
18083TIP3    H175664   0.867   3.935  17.464 -1.5297 -0.0121  0.4404
18083TIP3    H275665   0.971   4.041  17.493  0.6875 -1.7186 -0.9542
18084TIP3   OH275666   3.932   3.171  16.810 -0.3176 -0.0482 -0.1940
18084TIP3    H175667   4.006   3.117  16.782 -0.2428 -0.0455 -0.0021
18084TIP3    H275668   3.917   3.231  16.736  0.5499  0.6634  0.1801
18085TIP3   OH275669   2.546   2.165  14.592  0.0143 -0.8038 -0.3979
18085TIP3    H175670   2.484   2.181  14.663 -0.4746 -0.6059 -0.8642
18085TIP3    H275671   2.510   2.214  14.517  0.6732 -0.7773 -0.7023
18086TIP3   OH275672   6.366   0.554  16.867 -0.7925 -0.6029 -0.3304
18086TIP3    H175673   6.436   0.612  16.836 -1.9575  0.2595 -1.4460
18086TIP3    H275674   6.336   0.594  16.949 -1.4739  0.3302 -1.0072
18087TIP3   OH275675   3.412   0.117  14.642 -0.0988 -0.1520 -0.5237
18087TIP3    H175676   3.381   0.040  14.689  1.2210 -0.1755  0.3825
18087TIP3    H275677   3.485   0.085  14.589  0.3412  0.4129 -0.2766
18088TIP3   OH275678   0.151   4.615  11.945  0.7122  0.0010  0.7965
18088TIP3    H175679   0.216   4.680  11.919 -0.2733 -0.3742 -3.1281
18088TIP3    H275680   0.192   4.531  11.923  0.0197 -0.4100  1.0513
18089TIP3   OH275681   5.922   4.757   0.803  0.0593  0.1952  0.1633
18089TIP3    H175682   5.925   4.730   0.895 -0.4370 -2.3181 -0.4737
18089TIP3    H275683   5.854   4.824   0.800 -0.5477 -0.3192  1.5049
18090TIP3   OH275684   6.227   3.643  13.920 -0.4253  0.6111 -0.7938
18090TIP3    H175685   6.285   3.719  13.916 -0.5846  0.8515  0.7510
18090TIP3    H275686   6.286   3.569  13.935 -0.3586  0.5850 -1.1868
18091TIP3   OH275687   0.907   0.127  12.679 -0.1511 -0.1513 -0.1580
18091TIP3    H175688   1.001   0.126  12.658  0.1207  1.1003  0.8531
18091TIP3    H275689   0.898   0.062  12.749 -0.1988 -0.8581 -0.8086
18092TIP3   OH275690   5.377   5.597  11.233  0.2024  0.2538  0.0794
18092TIP3    H175691   5.291   5.574  11.269  0.0459  0.1363 -0.3635
18092TIP3    H275692   5.419   5.512  11.218  1.4267  0.3124  2.7021
18093TIP3   OH275693   1.589   4.372  14.643 -0.4236 -0.1477 -0.0371
18093TIP3    H175694   1.648   4.320  14.698  0.1000 -0.1531 -0.5941
18093TIP3    H275695   1.592   4.460  14.682 -0.1305 -0.1739  0.0044
18094TIP3   OH275696   0.771   0.154  13.433  0.4303 -0.6363 -0.1531
18094TIP3    H175697   0.699   0.091  13.434 -1.1434  1.0854  0.5065
18094TIP3    H275698   0.736   0.231  13.389  0.8122  1.3319  2.6847
18095TIP3   OH275699   1.440   0.764   4.772  0.4522  0.0732  0.7261
18095TIP3    H175700   1.397   0.850   4.776  0.5287  0.0603  2.1212
18095TIP3    H275701   1.465   0.755   4.680  1.1012  1.8779  0.6771
18096TIP3   OH275702   5.111   1.572  13.515 -0.1226 -0.3025  0.0320
18096TIP3    H175703   5.119   1.478  13.527  2.1074 -0.4508 -1.8873
18096TIP3    H275704   5.065   1.582  13.432 -0.3290  0.3026  0.2106
18097TIP3   OH275705   1.315   2.182   0.099 -0.0439  0.5472  0.2067
18097TIP3    H175706   1.235   2.132   0.083  0.2967  0.2123 -0.5071
18097TIP3    H275707   1.341   2.158   0.188  1.2250 -2.1878 -0.7877
18098TIP3   OH275708   5.009   6.156  17.221  0.0051 -0.2128  0.2399
18098TIP3    H175709   4.929   6.117  17.257  0.1057  0.4259  1.1960
18098TIP3    H275710   4.993   6.251  17.224  1.5460  0.0538  2.3754
18099TIP3   OH275711   0.540   3.140   0.208 -0.2834 -0.3578 -0.1321
18099TIP3    H175712   0.590   3.154   0.288  1.0436 -1.4978 -0.7215
18099TIP3    H275713   0.606   3.116   0.142 -1.6226 -2.7676 -0.7400
18100TIP3   OH275714   0.787   4.772   2.235  0.2287  0.4967 -0.2392
18100TIP3    H175715   0.741   4.810   2.160 -2.3130 -0.0276  0.9127
18100TIP3    H275716   0.803   4.847   2.293 -0.6996  0.5005  0.0429
18101TIP3   OH275717   2.662   2.534  16.377  0.0438 -0.0953  0.2156
18101TIP3    H175718   2.697   2.472  16.314  1.1448  0.0156  0.6974
18101TIP3    H275719   2.702   2.618  16.353  0.5580 -0.0729  1.1093
18102TIP3   OH275720   3.278   1.079   2.169 -0.2110 -1.0877  0.3526
18102TIP3    H175721   3.233   1.162   2.153  0.8969 -0.5062  0.1413
18102TIP3    H275722   3.308   1.085   2.260 -1.1516 -1.7688  0.7196
18103TIP3   OH275723   3.939   6.128   0.515 -0.2360  0.3698  0.2439
18103TIP3    H175724   3.887   6.080   0.579 -0.3044  0.3693  0.1890
18103TIP3    H275725   3.934   6.220   0.543  2.8120  0.0142  2.4303
18104TIP3   OH275726   3.606   5.079  12.837 -0.7644  0.5891  0.5609
18104TIP3    H175727   3.531   5.126  12.801 -0.5027  0.5349 -0.0575
18104TIP3    H275728   3.631   5.016  12.769  0.8032  1.6393  0.0967
18105TIP3   OH275729   3.364   4.481  13.046 -0.2881  0.3871 -0.4111
18105TIP3    H175730   3.353   4.386  13.050  0.0932  0.3533  0.0058
18105TIP3    H275731   3.292   4.516  13.099 -0.5256  0.3400 -0.7006
18106TIP3   OH275732   5.123   2.302  11.707  0.0590 -0.0706  0.1473
18106TIP3    H175733   5.185   2.364  11.745  0.0937 -0.0916  0.1255
18106TIP3    H275734   5.049   2.301  11.768 -0.4283  0.8296 -0.4086
18107TIP3   OH275735   1.858   0.907  13.366 -0.0099 -0.2389 -0.3699
18107TIP3    H175736   1.812   0.832  13.328  3.1234 -1.9753 -1.0891
18107TIP3    H275737   1.833   0.981  13.311 -0.7817 -1.3877 -1.6260
18108TIP3   OH275738   5.625   2.581  16.152 -0.3743  0.1363 -0.1654
18108TIP3    H175739   5.661   2.492  16.152 -2.5287 -0.8018 -0.7621
18108TIP3    H275740   5.632   2.609  16.243 -0.4618 -0.9950  0.2095
18109TIP3   OH275741   2.073   5.371  16.570  0.3871 -0.5710  0.3309
18109TIP3    H175742   2.024   5.320  16.505  1.0814  0.2068 -0.8605
18109TIP3    H275743   2.108   5.445  16.520  1.2348 -0.1263  1.5390
18110TIP3   OH275744   6.365   3.101   4.263  0.2757 -0.0916  0.5553
18110TIP3    H175745   6.447   3.092   4.311  0.7977 -1.0367 -0.4832
18110TIP3    H275746   6.356   3.020   4.214 -1.8257 -0.4728  1.4336
18111TIP3   OH275747   0.898   3.625  15.593  0.4919 -0.0282  0.2467
18111TIP3    H175748   0.954   3.560  15.636  1.3208  1.1232  0.9687
18111TIP3    H275749   0.809   3.604  15.623  0.6366 -1.3218 -0.1907
18112TIP3   OH275750   1.481   2.073   3.250  0.6789  0.6765  0.0269
18112TIP3    H175751   1.422   2.126   3.303  1.9446  0.3186  1.8664
18112TIP3    H275752   1.552   2.133   3.225  0.3751  0.6987 -0.8241
18113TIP3   OH275753   3.011   3.079  14.656 -0.7737 -0.7906 -0.0934
18113TIP3    H175754   3.030   3.128  14.736  0.0251  0.6677 -1.1376
18113TIP3    H275755   2.917   3.091  14.642 -1.2675 -2.3932  1.4373
18114TIP3   OH275756   0.195   5.889   1.124 -0.1610  0.3163 -1.0114
18114TIP3    H175757   0.164   5.979   1.120 -0.6042  0.2373  0.3636
18114TIP3    H275758   0.289   5.896   1.105  0.4531  1.4851  1.9084
18115TIP3   OH275759   0.762   0.166  14.145 -0.1655  0.7852 -0.4329
18115TIP3    H175760   0.723   0.103  14.084 -0.9724  0.2180  0.6233
18115TIP3    H275761   0.820   0.219  14.091  0.5276 -0.8577 -1.3812
18116TIP3   OH275762   5.674   6.268   4.862  0.2528 -0.0161 -0.2018
18116TIP3    H175763   5.600   6.224   4.821 -0.5881  1.4355 -0.3085
18116TIP3    H275764   5.726   6.302   4.788 -0.7037  1.6947 -0.1397
18117TIP3   OH275765   5.322   3.554   3.089  0.0726  0.3039  0.0446
18117TIP3    H175766   5.269   3.631   3.072 -1.1758 -0.5093  0.1740
18117TIP3    H275767   5.328   3.549   3.184  1.3632  1.0315  0.0207
18118TIP3   OH275768   6.058   4.696   4.775 -0.0861  0.6585  0.0373
18118TIP3    H175769   6.059   4.601   4.775 -1.0936  0.5435  3.0664
18118TIP3    H275770   6.137   4.721   4.727  0.2799 -1.6797 -0.6753
18119TIP3   OH275771   2.437   5.792  14.331  0.0428 -0.6058 -0.0891
18119TIP3    H175772   2.371   5.730  14.363 -0.7577 -0.7646 -1.8905
18119TIP3    H275773   2.411   5.876  14.369 -0.0150 -1.0160  0.8052
18120TIP3   OH275774   5.745   5.759   1.504 -0.2227 -0.1923  0.2159
18120TIP3    H175775   5.742   5.769   1.409 -1.2711  0.3104  0.2790
18120TIP3    H275776   5.668   5.706   1.525 -0.6119  0.5883  0.8543
18121TIP3   OH275777   1.676   0.960   3.483  0.2252 -0.0238 -0.1621
18121TIP3    H175778   1.663   1.004   3.567 -0.2452 -2.2578  1.0160
18121TIP3    H275779   1.763   0.920   3.491  0.3963  0.1784 -0.9572
18122TIP3   OH275780   1.502   2.686   4.056 -0.1972  0.6561  0.4693
18122TIP3    H175781   1.468   2.768   4.093  0.7131  1.3297 -0.1384
18122TIP3    H275782   1.542   2.712   3.973 -0.8683 -0.5925 -0.2750
18123TIP3   OH275783   3.377   2.126   0.641  0.0289  0.3735  0.2574
18123TIP3    H175784   3.393   2.032   0.630  0.8206  0.4903  0.3419
18123TIP3    H275785   3.354   2.135   0.733  0.9477  0.3810  0.5005
18124TIP3   OH275786   1.660   5.421   2.603  0.2112  0.1226 -0.2511
18124TIP3    H175787   1.594   5.481   2.639  0.7679  0.1631  0.7588
18124TIP3    H275788   1.643   5.338   2.647  0.3819 -0.0570 -0.5262
18125TIP3   OH275789   3.797   6.040   0.728  0.2439 -0.1544  0.0043
18125TIP3    H175790   3.751   6.123   0.738  2.2986  1.1734 -0.8439
18125TIP3    H275791   3.854   6.035   0.805 -0.3399 -1.1352  0.3913
18126TIP3   OH275792   3.668   4.407  17.071  0.2327  0.1622  0.2884
18126TIP3    H175793   3.672   4.474  17.139  0.1484  0.5573 -0.0862
18126TIP3    H275794   3.682   4.324  17.117  0.8125  0.4755  0.6912
18127TIP3   OH275795   3.315   4.280   4.814 -0.7097 -0.6091  0.1819
18127TIP3    H175796   3.233   4.310   4.774  0.5218  2.2666 -0.4421
18127TIP3    H275797   3.314   4.319   4.901 -0.1642 -0.8168  0.2832
18128TIP3   OH275798   3.059   0.798  15.532 -0.4655 -0.4217 -0.4362
18128TIP3    H175799   2.963   0.803  15.524 -0.5901  0.4495  1.2757
18128TIP3    H275800   3.079   0.706  15.514 -1.7794 -0.9338  0.5231
18129TIP3   OH275801   4.327   0.113   5.826 -0.8077 -0.3689  0.2410
18129TIP3    H175802   4.339   0.098   5.732  0.8814  2.0172 -0.0170
18129TIP3    H275803   4.396   0.061   5.867 -1.2536 -1.0525  0.1291
18130TIP3   OH275804   1.258   4.786  15.853 -1.2303  0.3018 -0.2002
18130TIP3    H175805   1.183   4.782  15.912 -0.3888  1.3709  1.0009
18130TIP3    H275806   1.331   4.815  15.909  0.3250 -1.6069 -1.0780
18131TIP3   OH275807   0.121   0.102  15.737 -0.4609 -0.0038  0.3700
18131TIP3    H175808   0.122   0.178  15.678 -0.1760 -0.6422 -0.4742
18131TIP3    H275809   0.193   0.118  15.798  0.6603 -0.3268 -0.8045
18132TIP3   OH275810   0.570   2.844   5.058 -0.3212 -0.4557 -0.4851
18132TIP3    H175811   0.587   2.790   4.982 -0.3743  0.2634 -1.0212
18132TIP3    H275812   0.474   2.844   5.067 -0.3997  0.4603 -1.1803
18133TIP3   OH275813   3.183   4.423  16.949 -0.1169  0.6816  0.3860
18133TIP3    H175814   3.104   4.383  16.985 -0.3408 -0.4097 -1.2002
18133TIP3    H275815   3.151   4.503  16.906 -0.3376  0.3344 -0.1038
18134TIP3   OH275816   6.066   1.337   0.363 -0.2236 -0.8076 -0.6603
18134TIP3    H175817   6.067   1.430   0.341 -0.3722 -0.0483  2.1501
18134TIP3    H275818   5.995   1.300   0.310 -0.4569  0.7446 -1.4846
18135TIP3   OH275819   3.913   3.862   4.558 -0.6278  0.7269  0.4430
18135TIP3    H175820   3.903   3.889   4.649  0.8721  2.6155  0.1182
18135TIP3    H275821   3.998   3.895   4.532 -0.3281 -1.1352 -1.2297
18136TIP3   OH275822   0.714   1.889   0.128 -0.1783  0.3586  0.9297
18136TIP3    H175823   0.791   1.906   0.181  2.0210  1.6707 -2.3638
18136TIP3    H275824   0.693   1.974   0.089 -1.0319 -0.6999 -1.0492
18137TIP3   OH275825   2.034   5.546   1.136  0.2634 -0.3617 -0.3953
18137TIP3    H175826   2.112   5.591   1.169 -0.0898 -0.1601  0.1748
18137TIP3    H275827   2.039   5.557   1.041  1.2052 -0.8006 -0.4122
18138TIP3   OH275828   5.103   5.806   4.322 -0.2232 -0.0495 -0.1303
18138TIP3    H175829   5.171   5.802   4.389 -0.0633  1.2248 -0.1875
18138TIP3    H275830   5.022   5.783   4.368  0.1132 -0.7678  0.1208
18139TIP3   OH275831   0.657   0.614   0.335 -0.2233 -0.7144  0.5022
18139TIP3    H175832   0.677   0.573   0.251 -2.0015  1.0747 -0.8921
18139TIP3    H275833   0.728   0.676   0.350  0.5569 -1.6506  0.8080
18140TIP3   OH275834   2.263   1.133  12.336  0.4280 -0.5305  0.8942
18140TIP3    H175835   2.249   1.057  12.393 -0.9182 -1.7426 -0.9148
18140TIP3    H275836   2.287   1.095  12.251 -0.0381  1.0758  0.0006
18141TIP3   OH275837   4.839   4.515   3.703 -0.4045 -0.4493 -0.6590
18141TIP3    H175838   4.797   4.572   3.639  0.3740 -0.0308 -0.8115
18141TIP3    H275839   4.889   4.574   3.759 -0.1724 -0.9180 -0.3592
18142TIP3   OH275840   4.136   4.235  14.026  1.3256 -0.8001  0.5906
18142TIP3    H175841   4.061   4.180  14.048  0.3601  1.1684  2.6300
18142TIP3    H275842   4.170   4.264  14.111  1.4387  2.1012 -0.3390
18143TIP3   OH275843   4.286   1.595  15.292 -0.0974  0.2459 -0.1247
18143TIP3    H175844   4.270   1.650  15.215 -0.7605 -0.0035 -0.1716
18143TIP3    H275845   4.225   1.522  15.282 -0.3891  0.3564  0.7784
18144TIP3   OH275846   2.577   0.530  12.122 -0.1801 -0.0217  0.0061
18144TIP3    H175847   2.617   0.582  12.192  0.7586  1.4095 -1.5160
18144TIP3    H275848   2.519   0.591  12.078 -2.1391 -1.3942  0.5734
18145TIP3   OH275849   3.131   0.211  12.738  0.6573  0.0134 -0.3921
18145TIP3    H175850   3.041   0.178  12.733  0.4679  0.5388 -0.5699
18145TIP3    H275851   3.140   0.242  12.828  0.7976 -0.4229 -0.2575
18146TIP3   OH275852   0.808   4.844  11.574  0.3101  0.1635 -0.4670
18146TIP3    H175853   0.813   4.778  11.644  0.1597  0.9351  0.2780
18146TIP3    H275854   0.791   4.792  11.495  3.0389 -1.0022 -0.4013
18147TIP3   OH275855   0.240   1.565   2.656 -0.3545 -0.1790 -0.2155
18147TIP3    H175856   0.155   1.522   2.657 -0.8001  0.6900  0.4914
18147TIP3    H275857   0.255   1.585   2.563 -0.8348 -0.4917 -0.3670
18148TIP3   OH275858   6.736   1.338  14.435 -0.2405  0.0683  0.1040
18148TIP3    H175859   6.663   1.399  14.445 -1.3044 -1.1652  0.1330
18148TIP3    H275860   6.724   1.274  14.505  1.0823  0.0320  0.3257
18149TIP3   OH275861   0.387   0.206   5.523 -0.0264  0.1588  0.3076
18149TIP3    H175862   0.433   0.139   5.574 -1.8362 -1.7796 -0.4619
18149TIP3    H275863   0.452   0.238   5.460  0.9429 -0.6767  0.8602
18150TIP3   OH275864   0.760   0.197  16.446 -0.2189  0.2180 -0.0234
18150TIP3    H175865   0.708   0.132  16.493  2.0475 -1.1604  0.7278
18150TIP3    H275866   0.721   0.281  16.469 -0.0663 -0.4907  3.2764
18151TIP3   OH275867   1.829   1.297  11.524  0.0995  0.1800 -0.2575
18151TIP3    H175868   1.871   1.218  11.492  0.6585  0.1237  0.5699
18151TIP3    H275869   1.742   1.269  11.552  1.0429 -0.6622  2.1201
18152TIP3   OH275870   5.084   4.804   0.483  0.9140  0.2635  0.2378
18152TIP3    H175871   5.030   4.809   0.404  1.5563 -0.3307 -0.2550
18152TIP3    H275872   5.144   4.879   0.475  1.4278 -0.1807 -0.1962
18153TIP3   OH275873   1.355   6.390  12.663  0.4420  0.1763  1.1047
18153TIP3    H175874   1.411   6.384  12.586 -1.1866  0.7547 -0.2044
18153TIP3    H275875   1.407   6.438  12.728  1.6296  0.2138  0.1490
18154TIP3   OH275876   1.569   3.572   5.838 -0.3939 -0.6161 -0.3866
18154TIP3    H175877   1.639   3.521   5.796  0.8527  0.2002  0.5973
18154TIP3    H275878   1.540   3.633   5.770  1.6781  0.7734 -0.1403
18155TIP3   OH275879   1.850   0.115   1.258 -0.2547 -0.3011 -0.0404
18155TIP3    H175880   1.831   0.186   1.321 -0.1070 -0.2609 -0.0398
18155TIP3    H275881   1.797   0.137   1.181  1.0109  0.7023 -0.6641
18156TIP3   OH275882   2.777   0.757   1.706  0.2360 -0.0853 -0.2210
18156TIP3    H175883   2.763   0.757   1.612 -0.6694  2.0489 -0.1452
18156TIP3    H275884   2.799   0.848   1.728  1.6019 -0.7601  1.4855
18157TIP3   OH275885   3.994   5.802   2.272  0.1662 -0.1211 -0.1589
18157TIP3    H175886   3.966   5.892   2.290 -0.9349 -0.8890  2.4085
18157TIP3    H275887   3.914   5.750   2.278  0.9448 -1.4088 -0.5674
18158TIP3   OH275888   5.799   4.150   3.995 -0.5292 -0.1276  0.4804
18158TIP3    H175889   5.796   4.237   3.955 -0.7510 -0.3436  0.0200
18158TIP3    H275890   5.782   4.089   3.922  1.6325 -0.6873  0.3894
18159TIP3   OH275891   3.436   2.376  16.194 -0.0573 -0.2737  0.0839
18159TIP3    H175892   3.386   2.457  16.177 -0.9214 -0.5641  1.1603
18159TIP3    H275893   3.528   2.405  16.196 -0.3677  0.7263  0.6537
18160TIP3   OH275894   3.863   3.001  16.497  0.4534  0.6881 -0.6437
18160TIP3    H175895   3.876   3.092  16.523  1.6060  0.2615  0.4142
18160TIP3    H275896   3.812   2.962  16.568  0.8836  0.2659 -0.5564
18161TIP3   OH275897   4.956   4.965   1.712 -0.5281  0.9879 -0.3142
18161TIP3    H175898   4.946   5.061   1.714 -0.9557  0.9844 -1.3852
18161TIP3    H275899   4.869   4.932   1.734 -0.2398  0.8328  0.6076
18162TIP3   OH275900   4.881   2.522   3.576 -0.3152  0.3582 -0.2112
18162TIP3    H175901   4.969   2.498   3.606  0.0276 -1.0994 -2.2064
18162TIP3    H275902   4.823   2.483   3.641  0.4297 -2.0791 -0.8815
18163TIP3   OH275903   0.747   6.557   4.488  0.6303  0.3373  0.6165
18163TIP3    H175904   0.819   6.610   4.523  1.0416 -0.8755  1.6557
18163TIP3    H275905   0.670   6.612   4.500  1.2605  1.3586  0.1609
18164TIP3   OH275906   0.571   3.887  16.228  0.9594  0.3016  0.3479
18164TIP3    H175907   0.608   3.821  16.286 -0.1998 -1.2156 -0.5676
18164TIP3    H275908   0.483   3.855  16.208  0.8052  1.5153 -1.0763
18165TIP3   OH275909   2.270   6.565  16.596  0.5539 -0.1725  0.2023
18165TIP3    H175910   2.251   6.474  16.572  0.6874  0.1644 -1.3277
18165TIP3    H275911   2.188   6.598  16.632 -0.2304 -0.2732 -1.3785
18166TIP3   OH275912   0.169   0.614  13.652  0.2564  0.0732  0.1007
18166TIP3    H175913   0.127   0.681  13.598  0.2257  0.3520  0.4681
18166TIP3    H275914   0.207   0.553  13.589  0.4237  0.5230 -0.2343
18167TIP3   OH275915   5.357   1.766  15.797  0.4053 -0.1210  0.2910
18167TIP3    H175916   5.268   1.783  15.765  0.2845 -0.7461  0.2737
18167TIP3    H275917   5.345   1.736  15.887  0.8216  2.7718  1.4269
18168TIP3   OH275918   4.688   5.641  16.004  0.5678 -0.4274  0.1974
18168TIP3    H175919   4.764   5.660  16.058 -0.0613  1.0305  0.6382
18168TIP3    H275920   4.615   5.682  16.051 -0.0906  0.3536 -1.4381
18169TIP3   OH275921   3.608   2.800  12.618  0.3614 -0.1693  0.0940
18169TIP3    H175922   3.697   2.819  12.589  0.6913 -1.3725  0.2308
18169TIP3    H275923   3.552   2.830  12.547  1.0498 -1.5616 -1.0940
18170TIP3   OH275924   3.797   4.110   0.812  0.3343 -0.2167 -0.0042
18170TIP3    H175925   3.833   4.060   0.885 -0.2418 -0.7728 -0.0932
18170TIP3    H275926   3.799   4.050   0.738 -0.5878 -0.2089 -0.0561
18171TIP3   OH275927   4.144   1.625   0.068 -0.1096  0.1239  0.5367
18171TIP3    H175928   4.137   1.613   0.162 -0.2480 -0.2366  0.4790
18171TIP3    H275929   4.100   1.549   0.030 -0.6817  0.6298  0.1766
18172TIP3   OH275930   6.255   0.223   5.075  0.2707  0.5446  0.0160
18172TIP3    H175931   6.182   0.164   5.097 -0.8480  2.0829  0.6568
18172TIP3    H275932   6.332   0.167   5.071 -1.1220 -1.4026 -2.0448
18173TIP3   OH275933   5.817   6.666  14.175  0.1273 -0.2104 -0.5319
18173TIP3    H175934   5.727   6.693  14.153  0.5926  1.3760 -0.6407
18173TIP3    H275935   5.842   6.607  14.104 -1.1641 -1.4994  0.0335
18174TIP3   OH275936   5.319   6.395   4.314  0.7464 -0.1004 -0.4077
18174TIP3    H175937   5.335   6.470   4.257  2.3248 -0.6610 -0.7790
18174TIP3    H275938   5.400   6.387   4.365 -0.4416  0.0886  1.5786
18175TIP3   OH275939   0.762   5.117  11.515 -0.5234 -0.0424 -0.0195
18175TIP3    H175940   0.744   5.030  11.551  1.8002 -0.7618 -0.3845
18175TIP3    H275941   0.802   5.164  11.587 -1.8318  0.7890  0.1928
18176TIP3   OH275942   0.653   3.582   3.202  0.5799 -0.4432  0.1898
18176TIP3    H175943   0.715   3.527   3.155  0.2926 -0.7158  0.1309
18176TIP3    H275944   0.617   3.526   3.271  0.0679 -0.4215 -0.0554
18177TIP3   OH275945   4.714   0.776  11.668 -0.5906 -0.6981 -0.2401
18177TIP3    H175946   4.671   0.768  11.583  0.4575 -3.8279 -0.6272
18177TIP3    H275947   4.725   0.685  11.697  1.7897  0.1587  1.8387
18178TIP3   OH275948   2.188   4.475  16.388 -0.2115  0.3179  0.1417
18178TIP3    H175949   2.195   4.568  16.410  1.1489  0.0984  0.7208
18178TIP3    H275950   2.102   4.449  16.422  0.3587  0.8206  2.1249
18179TIP3   OH275951   1.406   0.204  11.658 -0.0749  0.0352  0.4136
18179TIP3    H175952   1.438   0.155  11.734 -1.2278  0.3936  1.1627
18179TIP3    H275953   1.363   0.137  11.604 -2.0538  0.2188  1.6606
18180TIP3   OH275954   3.496   3.144  11.864  0.0323 -0.3364  0.4224
18180TIP3    H175955   3.508   3.209  11.795 -0.6941 -1.5403 -0.8813
18180TIP3    H275956   3.412   3.166  11.903 -0.5134 -0.8410 -0.4379
18181TIP3   OH275957   6.122   0.961  16.123 -0.3334 -0.3358 -0.2497
18181TIP3    H175958   6.167   0.921  16.198 -0.6136  0.5599  0.4158
18181TIP3    H275959   6.191   0.973  16.058 -0.3071 -2.2296 -0.6493
18182TIP3   OH275960   1.329   2.608  16.528  0.0129  0.8726 -0.3871
18182TIP3    H175961   1.340   2.676  16.461 -0.9049  0.7620 -0.6663
18182TIP3    H275962   1.413   2.563  16.530  0.0802  0.9290 -1.4204
18183TIP3   OH275963   5.657   2.747  13.455  0.4007 -0.1252  0.0524
18183TIP3    H175964   5.570   2.780  13.477  0.9928  0.4537  1.6749
18183TIP3    H275965   5.655   2.656  13.483  0.1910 -0.2342 -0.3064
18184TIP3   OH275966   2.597   3.712  16.180 -0.2370  0.0488 -0.2964
18184TIP3    H175967   2.505   3.701  16.156 -0.5707  0.7411  0.6153
18184TIP3    H275968   2.627   3.623  16.200 -1.2596  0.0217  1.2633
18185TIP3   OH275969   0.042   5.191  14.874 -0.4653 -0.2568 -0.2167
18185TIP3    H175970   0.029   5.283  14.853 -0.4890 -0.2236 -0.0588
18185TIP3    H275971  -0.045   5.160  14.901 -0.1859  0.0209  1.0586
18186TIP3   OH275972   1.910   4.305  14.006  0.3392 -0.6082 -0.4063
18186TIP3    H175973   1.957   4.370  14.058  1.8250 -1.5556 -0.4853
18186TIP3    H275974   1.908   4.342  13.918  1.6423 -0.8536 -0.5652
18187TIP3   OH275975   5.740   5.050  11.330  0.1815  0.2191  0.4763
18187TIP3    H175976   5.771   5.071  11.418  0.3424  1.0398  0.2282
18187TIP3    H275977   5.798   5.099  11.272 -0.4207  0.3075 -0.0577
18188TIP3   OH275978   4.938   2.319  11.905  0.1295  0.5438  0.0624
18188TIP3    H175979   4.973   2.335  11.993  1.3253  0.2063 -0.3297
18188TIP3    H275980   4.847   2.348  11.910 -0.3237 -0.9400  1.8613
18189TIP3   OH275981   4.272   2.051   0.121 -0.0941 -0.1750  0.4934
18189TIP3    H175982   4.225   2.117   0.069 -0.9457 -1.4696 -0.4538
18189TIP3    H275983   4.280   2.091   0.207  2.4807  2.5925 -0.8452
18190TIP3   OH275984   3.961   2.465  14.940  0.1105  0.1048 -0.2965
18190TIP3    H175985   3.986   2.394  14.999 -3.9391 -0.4141  1.0988
18190TIP3    H275986   3.922   2.420  14.865  2.5280  0.8699 -2.1691
18191TIP3   OH275987   2.105   3.317  16.491  0.3330 -0.0759 -0.2789
18191TIP3    H175988   2.037   3.260  16.528  1.1739  0.6034  2.5614
18191TIP3    H275989   2.151   3.261  16.428 -0.4444 -1.7766  0.5858
18192TIP3   OH275990   4.977   6.303  14.905 -0.7320  0.4723  0.0109
18192TIP3    H175991   5.020   6.379  14.865  0.7207  0.2027  0.9612
18192TIP3    H275992   4.910   6.341  14.962  0.0814  1.0817  0.5987
18193TIP3   OH275993   1.136   0.526  16.722 -0.6209 -0.6699  0.1428
18193TIP3    H175994   1.078   0.474  16.666  0.4484 -1.1882 -0.5196
18193TIP3    H275995   1.167   0.597  16.665  1.1989 -1.7205 -0.2516
18194TIP3   OH275996   2.009   3.252   5.201 -0.3174  0.4126  0.0900
18194TIP3    H175997   2.056   3.177   5.239 -0.2984  0.7917  0.8332
18194TIP3    H275998   2.060   3.274   5.123 -0.8674 -0.9497 -0.6991
18195TIP3   OH275999   0.903   4.923   0.401 -0.0372  0.2874 -0.2559
18195TIP3    H176000   0.912   4.909   0.307  1.2488 -1.4725  0.0690
18195TIP3    H276001   0.809   4.930   0.415 -0.3120 -0.3910 -1.5757
18196TIP3   OH276002   0.307   5.390   0.981 -0.3685 -0.5342 -0.5020
18196TIP3    H176003   0.310   5.485   0.982 -1.6042 -0.4495  2.0457
18196TIP3    H276004   0.266   5.368   0.898 -4.2818  1.4340  0.6945
18197TIP3   OH276005   6.168   4.986  16.637  0.7530 -0.0814  0.1364
18197TIP3    H176006   6.192   4.983  16.545 -1.7615 -0.7060 -0.5612
18197TIP3    H276007   6.244   5.026  16.680  1.4144  1.6027 -2.3798
18198TIP3   OH276008   4.427   6.139   3.119  0.1709 -0.0333 -0.1441
18198TIP3    H176009   4.475   6.190   3.184  0.1859  0.6934 -0.7091
18198TIP3    H276010   4.401   6.203   3.053 -1.3088 -0.4550 -0.0223
18199TIP3   OH276011   4.773   4.836   2.282 -0.5293  0.5102 -0.1013
18199TIP3    H176012   4.743   4.927   2.280  0.6867  0.9843  1.1967
18199TIP3    H276013   4.861   4.841   2.321 -0.0778 -1.1309 -0.8276
18200TIP3   OH276014   2.714   5.077  12.110 -0.1074 -0.1711 -0.7521
18200TIP3    H176015   2.678   5.003  12.160 -2.3986 -0.2564 -2.3656
18200TIP3    H276016   2.795   5.100  12.156  0.2643 -3.1412  0.2867
18201TIP3   OH276017   5.738   2.308  16.214  0.1431  0.0006  0.3384
18201TIP3    H176018   5.734   2.306  16.310  2.0454 -2.0210  0.4549
18201TIP3    H276019   5.831   2.321  16.194 -0.0123 -1.0139 -1.2122
18202TIP3   OH276020   2.906   2.449   4.708  0.1626 -0.6120 -0.1666
18202TIP3    H176021   2.811   2.445   4.705  0.2042 -1.4616 -0.9696
18202TIP3    H276022   2.934   2.433   4.617  1.0652 -0.5276  0.0843
18203TIP3   OH276023   4.847   6.723   2.238 -0.1002 -0.0975 -0.0114
18203TIP3    H176024   4.830   6.736   2.331  1.5171  0.0699  0.3017
18203TIP3    H276025   4.835   6.810   2.199  3.1729  0.8563  0.7862
18204TIP3   OH276026   0.540   0.211   4.113  0.5380 -0.0799 -0.7648
18204TIP3    H176027   0.614   0.217   4.053  0.5425  1.4095 -0.6461
18204TIP3    H276028   0.534   0.297   4.153 -1.2767 -0.1393 -0.7847
18205TIP3   OH276029   4.600   1.201  15.512 -0.7464  0.3999  0.3891
18205TIP3    H176030   4.552   1.244  15.442 -0.0566  1.9347  0.8155
18205TIP3    H276031   4.560   1.114  15.519 -0.7651  0.1686 -1.9437
18206TIP3   OH276032   5.571   5.461   2.930  0.0105  0.2612  0.4503
18206TIP3    H176033   5.586   5.381   2.879 -1.1156  0.8369 -0.8431
18206TIP3    H276034   5.544   5.526   2.865 -0.6826  1.2452  1.6886
18207TIP3   OH276035   4.103   2.929  10.952 -0.1631 -0.1976  0.0909
18207TIP3    H176036   4.020   2.881  10.963 -0.6383  0.3133 -1.0564
18207TIP3    H276037   4.168   2.876  10.997 -0.8762 -1.3460 -0.1967
18208TIP3   OH276038   5.717   1.233   2.863  0.1514  0.3694 -0.4094
18208TIP3    H176039   5.752   1.243   2.952  0.4703 -0.3752 -0.4351
18208TIP3    H276040   5.655   1.305   2.853 -0.3596  0.1041  0.6500
18209TIP3   OH276041   2.389   0.621  11.183 -0.2404 -0.2758  0.1144
18209TIP3    H176042   2.389   0.654  11.094 -1.0735  1.0450  0.5740
18209TIP3    H276043   2.319   0.555  11.184 -0.4877 -0.0164 -0.1108
18210TIP3   OH276044   0.967   5.230   2.607 -0.0351 -0.1364 -0.1282
18210TIP3    H176045   1.012   5.193   2.531  1.1375  1.3637 -0.1996
18210TIP3    H276046   1.033   5.231   2.676 -0.7981 -0.5260  0.6400
18211TIP3   OH276047   3.297   2.607  12.091 -0.5162 -0.5362 -0.3919
18211TIP3    H176048   3.279   2.603  12.185  1.0179  1.2133  0.0530
18211TIP3    H276049   3.379   2.558  12.080  0.7792  1.4565 -0.2776
18212TIP3   OH276050   3.832   4.374   4.164 -0.0165  0.3143  0.0473
18212TIP3    H176051   3.760   4.409   4.111  1.3244  0.5615 -1.7127
18212TIP3    H276052   3.892   4.335   4.100  2.5557  2.1886  1.1384
18213TIP3   OH276053   5.752   5.247   0.577  0.3017 -0.2352 -0.4438
18213TIP3    H176054   5.762   5.152   0.584 -0.1730 -0.2327  0.3178
18213TIP3    H276055   5.771   5.266   0.485  0.8158 -1.0136 -0.5089
18214TIP3   OH276056   0.341   5.857   6.003 -0.1431  0.0526  0.0021
18214TIP3    H176057   0.276   5.825   6.066  2.0019 -0.7104  1.9866
18214TIP3    H276058   0.384   5.930   6.047  0.9300 -0.0226 -0.8664
18215TIP3   OH276059   4.513   3.889   5.558  0.6909  0.0613 -0.5588
18215TIP3    H176060   4.564   3.882   5.478 -0.1874 -0.6280 -1.0700
18215TIP3    H276061   4.423   3.870   5.532  0.3754 -0.1066  0.5744
18216TIP3   OH276062   1.577   2.020  15.892 -0.5491  0.2668  0.3658
18216TIP3    H176063   1.611   2.100  15.932 -0.7215 -0.0067  1.0819
18216TIP3    H276064   1.620   2.016  15.807 -0.7925  1.2912  0.1763
18217TIP3   OH276065   1.522   5.128  12.669 -0.1881 -0.2403  0.1484
18217TIP3    H176066   1.458   5.060  12.690 -1.0964  0.2250 -0.9806
18217TIP3    H276067   1.469   5.203  12.642  0.8227  0.1670 -0.7830
18218TIP3   OH276068   4.018   2.129  15.815 -0.2300  0.1287  0.8269
18218TIP3    H176069   4.060   2.146  15.731  0.0962 -0.9859  0.7497
18218TIP3    H276070   4.000   2.035  15.814  0.9397 -0.1568  2.5205
18219TIP3   OH276071   1.402   6.129   1.520 -0.0261 -0.4048 -0.7753
18219TIP3    H176072   1.382   6.144   1.612 -1.3846 -1.1886 -0.9270
18219TIP3    H276073   1.447   6.045   1.518  0.2497 -0.2587 -0.8057
18220TIP3   OH276074   0.080   3.790  12.269  0.4692  0.6552  0.0214
18220TIP3    H176075   0.081   3.750  12.356 -0.0743  0.9606  0.1726
18220TIP3    H276076   0.096   3.718  12.209  1.0921  0.4831  0.3873
18221TIP3   OH276077   6.074   0.338  16.305 -0.1935  0.6185  0.3349
18221TIP3    H176078   6.110   0.426  16.291 -0.1901  0.7587  1.1980
18221TIP3    H276079   6.112   0.309  16.388  0.0695 -0.3432 -0.1099
18222TIP3   OH276080   1.701   0.910  15.576 -0.2970  0.6165  0.2518
18222TIP3    H176081   1.791   0.940  15.584  0.0500 -0.1836 -0.4465
18222TIP3    H276082   1.697   0.830  15.629 -0.2392 -0.0324 -0.6831
18223TIP3   OH276083   5.386   5.422  15.736 -0.3482  0.4846 -0.1230
18223TIP3    H176084   5.306   5.377  15.708  0.9954 -1.0443 -1.7388
18223TIP3    H276085   5.356   5.510  15.761 -2.2509  0.7299 -2.8462
18224TIP3   OH276086   5.794   5.769  13.626 -0.9507  0.2175 -0.2722
18224TIP3    H176087   5.745   5.796  13.703 -2.1413  0.2638 -1.0149
18224TIP3    H276088   5.747   5.691  13.594  0.8277 -1.1776  0.3007
18225TIP3   OH276089   1.103   5.879  16.031  0.1264 -0.4452 -0.0801
18225TIP3    H176090   1.085   5.845  15.943  1.6095  1.1296 -1.0447
18225TIP3    H276091   1.184   5.835  16.057  1.3289  1.2742 -0.7845
18226TIP3   OH276092   2.084   4.693  16.118 -0.1187  0.0787 -0.5209
18226TIP3    H176093   2.078   4.773  16.170  0.8054 -0.0136 -0.2617
18226TIP3    H276094   2.086   4.724  16.028  0.2832  0.3487 -0.4202
18227TIP3   OH276095   6.598   6.017   5.526 -0.6497  0.2129  0.0927
18227TIP3    H176096   6.647   6.087   5.483 -0.1481  0.0313  0.3624
18227TIP3    H276097   6.577   6.051   5.612 -0.3682  0.0159  0.2393
18228TIP3   OH276098   4.052   2.555   1.829 -0.8359 -0.3668  0.1068
18228TIP3    H176099   4.022   2.610   1.757 -1.5381 -1.4642 -0.4812
18228TIP3    H276100   4.022   2.467   1.806  1.7768 -1.3478  0.1232
18229TIP3   OH276101   0.900   3.138  14.147  0.4151 -0.1273  0.0862
18229TIP3    H176102   0.984   3.112  14.110  0.7164 -0.3187  0.8839
18229TIP3    H276103   0.841   3.143  14.072  1.3428  0.8918 -0.6022
18230TIP3   OH276104   1.108   1.781  15.756 -0.3541 -0.0528  0.1426
18230TIP3    H176105   1.200   1.806  15.745 -0.3210 -0.5398 -0.7214
18230TIP3    H276106   1.065   1.862  15.786  0.3443  0.1806  0.5559
18231TIP3   OH276107   2.457   4.813   1.721  0.1648  0.0867 -0.1762
18231TIP3    H176108   2.524   4.865   1.766  0.9825 -1.0397 -0.0723
18231TIP3    H276109   2.394   4.792   1.790  0.2472  0.2563 -0.0479
18232TIP3   OH276110   3.842   0.141   4.759  0.3972 -0.1944  0.3643
18232TIP3    H176111   3.861   0.229   4.794 -0.6920  0.4469 -0.5912
18232TIP3    H276112   3.780   0.104   4.822  1.0135 -0.3792  0.8781
18233TIP3   OH276113   1.202   4.889   1.714  0.5566  0.0636 -0.4816
18233TIP3    H176114   1.174   4.976   1.683  2.3826 -0.3471 -3.7278
18233TIP3    H276115   1.144   4.828   1.669  1.7186 -0.4748 -1.3060
18234TIP3   OH276116   3.426   5.749   5.171 -0.7597  0.3025  0.3567
18234TIP3    H176117   3.352   5.771   5.227  0.2660 -0.4158  2.0964
18234TIP3    H276118   3.450   5.659   5.197  1.8756  1.1691  1.2827
18235TIP3   OH276119   3.597   3.347   2.666 -0.0340  0.0605  0.4641
18235TIP3    H176120   3.673   3.368   2.611  0.5722 -0.4956  1.0586
18235TIP3    H276121   3.636   3.316   2.748 -0.9064 -0.6461  0.6230
18236TIP3   OH276122   4.173   4.742   4.921 -0.6190 -0.3230 -0.6030
18236TIP3    H176123   4.229   4.665   4.910 -1.1509 -0.5018 -2.4328
18236TIP3    H276124   4.093   4.720   4.873 -2.0607  0.1614  1.4413
18237TIP3   OH276125   4.547   0.322   4.573  0.2958 -0.5999 -0.1353
18237TIP3    H176126   4.540   0.246   4.631  2.5160 -0.6196  0.1774
18237TIP3    H276127   4.456   0.353   4.564 -0.2773 -1.2993  2.3930
18238TIP3   OH276128   3.704   0.313   2.060 -0.3300  0.4156  0.0177
18238TIP3    H176129   3.619   0.296   2.101 -0.5073 -0.6188 -0.7250
18238TIP3    H276130   3.729   0.400   2.091 -0.4935 -0.2568  2.2018
18239TIP3   OH276131   4.498   2.240  16.531  0.0758  0.1722  0.1646
18239TIP3    H176132   4.422   2.279  16.574  0.2572 -1.3764  2.0107
18239TIP3    H276133   4.572   2.291  16.564  0.1297 -0.4439  1.0176
18240TIP3   OH276134   0.496   5.147   4.222 -0.0971 -0.0153  0.3637
18240TIP3    H176135   0.426   5.139   4.157  0.1632 -0.4349  0.1331
18240TIP3    H276136   0.451   5.142   4.306 -0.2539 -1.2409  0.2258
18241TIP3   OH276137   0.186   1.665  12.906 -0.0421  0.5806  0.1184
18241TIP3    H176138   0.104   1.708  12.932 -0.5227 -0.2909  0.0695
18241TIP3    H276139   0.235   1.655  12.988  0.5699  2.1845 -0.0031
18242TIP3   OH276140   0.797   3.524  17.033 -0.3970  0.3185 -0.3956
18242TIP3    H176141   0.749   3.567  17.104  0.8970  1.5861 -0.2444
18242TIP3    H276142   0.753   3.439  17.022 -3.7043  1.9671 -1.3629
18243TIP3   OH276143   0.513   3.099  15.019 -0.1379  0.1865  0.3662
18243TIP3    H176144   0.562   3.131  14.944  0.8261 -1.9824 -0.0062
18243TIP3    H276145   0.580   3.083  15.086 -0.4290 -1.6506  0.2753
18244TIP3   OH276146   1.568   4.836  15.597 -0.4164 -0.5075 -0.0867
18244TIP3    H176147   1.538   4.927  15.605  0.4743 -0.3378  2.0365
18244TIP3    H276148   1.662   4.843  15.580  0.1403 -0.9402  2.3867
18245TIP3   OH276149   1.305   3.353   3.284 -0.2916  0.1530  0.1087
18245TIP3    H176150   1.243   3.335   3.213 -0.6419 -0.0412  0.4554
18245TIP3    H276151   1.380   3.297   3.265 -0.6962 -0.4684  0.2915
18246TIP3   OH276152   5.937   1.491  12.406 -0.1667 -0.0234  0.1232
18246TIP3    H176153   6.018   1.541  12.413  0.7723 -1.4374 -0.1432
18246TIP3    H276154   5.927   1.449  12.492 -0.6128  0.1432  0.1533
18247TIP3   OH276155   6.303   5.866  17.348  0.2236 -0.1484 -0.8130
18247TIP3    H176156   6.221   5.889  17.391  0.7593 -0.3521  0.3580
18247TIP3    H276157   6.286   5.878  17.255 -0.7559  1.0309 -0.5052
18248TIP3   OH276158   6.254   4.252  12.983 -0.2401  0.1593  0.3301
18248TIP3    H176159   6.179   4.311  12.990 -0.5410 -0.0905 -0.6324
18248TIP3    H276160   6.306   4.287  12.911  1.0774  0.8536  1.5713
18249TIP3   OH276161   3.010   5.765   3.687  0.1394 -0.5451 -0.3752
18249TIP3    H176162   3.003   5.738   3.595 -0.6521  1.6245 -1.0126
18249TIP3    H276163   2.929   5.736   3.727 -1.2205  1.6975 -1.3294
18250TIP3   OH276164   5.150   4.610  17.460 -0.2913  0.4199 -0.1036
18250TIP3    H176165   5.240   4.626  17.489 -0.3066 -0.3845  0.4282
18250TIP3    H276166   5.128   4.523  17.496 -2.1997  1.6962  2.1401
18251TIP3   OH276167   5.197   3.060   3.532  0.4036  1.4335 -0.3688
18251TIP3    H176168   5.121   3.004   3.544  0.5900  1.3822  0.7233
18251TIP3    H276169   5.238   3.028   3.451 -1.1563  1.9998 -1.4197
18252TIP3   OH276170   5.590   4.294   1.323  0.6267  0.7248  0.0433
18252TIP3    H176171   5.592   4.331   1.235  0.0625 -1.9806 -1.2103
18252TIP3    H276172   5.662   4.338   1.369  1.6460  1.4370 -2.0859
18253TIP3   OH276173   5.509   0.047   5.375  0.2786  0.4811 -0.0272
18253TIP3    H176174   5.419   0.067   5.401  0.1329  1.9227 -1.4994
18253TIP3    H276175   5.501   0.004   5.290  0.8584 -2.4140  1.2399
18254TIP3   OH276176   6.007   0.452  13.350  0.4780  0.2312  0.2377
18254TIP3    H176177   6.094   0.424  13.379  1.2304  1.4028 -0.7700
18254TIP3    H276178   6.011   0.448  13.255 -0.7682 -0.1954  0.1883
18255TIP3   OH276179   5.515   2.878   0.786 -0.0639  0.2121  0.1068
18255TIP3    H176180   5.577   2.825   0.837  0.9795  1.6186  0.3564
18255TIP3    H276181   5.507   2.960   0.835 -0.6511  0.7899 -0.9233
18256TIP3   OH276182   6.611   4.291  16.608 -0.3462 -0.3774  0.1534
18256TIP3    H176183   6.611   4.341  16.527  2.2373  1.1445  0.9727
18256TIP3    H276184   6.695   4.245  16.607 -0.2385 -0.2836  1.9628
18257TIP3   OH276185   1.208   3.281  11.467 -0.4691 -0.7018 -0.0753
18257TIP3    H176186   1.303   3.272  11.461 -0.2175  1.5313 -0.3707
18257TIP3    H276187   1.173   3.210  11.414  1.0177 -1.7455  0.2840
18258TIP3   OH276188   3.188   4.078  12.908 -0.2725 -0.3444  0.4591
18258TIP3    H176189   3.193   4.114  12.997  2.3348  2.5146 -0.6657
18258TIP3    H276190   3.103   4.107  12.875  0.5474  2.4425  0.6093
18259TIP3   OH276191   2.218   3.848  12.218  0.5516 -0.2308  0.4711
18259TIP3    H176192   2.155   3.903  12.264 -0.2977  1.1118 -2.0725
18259TIP3    H276193   2.178   3.761  12.216 -1.5489  0.6653 -1.4045
18260TIP3   OH276194   6.123   4.292  12.386  0.0017  0.1331  0.5107
18260TIP3    H176195   6.065   4.358  12.349  0.6460  0.7304  0.5279
18260TIP3    H276196   6.128   4.223  12.320 -0.1163  0.4431  0.1766
18261TIP3   OH276197   2.047   0.318   0.852 -0.2430  0.0974 -0.4110
18261TIP3    H176198   2.091   0.248   0.901 -2.3003  0.1444  1.7109
18261TIP3    H276199   2.022   0.382   0.918 -2.0986  0.7931 -1.6937
18262TIP3   OH276200   3.240   2.385   3.906 -0.3405 -0.1252  0.3318
18262TIP3    H176201   3.215   2.454   3.968 -0.8110  1.2503 -1.3005
18262TIP3    H276202   3.194   2.408   3.825  0.3191 -1.8018 -0.5681
18263TIP3   OH276203   6.239   1.415   2.511 -0.0507  0.7068  0.1930
18263TIP3    H176204   6.193   1.330   2.511 -0.2872  0.8222 -0.6378
18263TIP3    H276205   6.259   1.431   2.419  3.0565 -0.0603  0.6176
18264TIP3   OH276206   0.548   1.771   3.714  0.1434 -0.8404 -0.4082
18264TIP3    H176207   0.607   1.817   3.774  0.7072  0.1996 -1.7067
18264TIP3    H276208   0.547   1.681   3.746 -0.0434 -0.2176  1.4926
18265TIP3   OH276209   1.699   5.071  14.209 -0.1092 -0.2662  0.1857
18265TIP3    H176210   1.685   5.127  14.286 -1.0718 -0.2056 -0.0212
18265TIP3    H276211   1.651   4.991  14.229 -0.3818 -0.2401 -0.3576
18266TIP3   OH276212   2.476   5.656  11.397 -0.1647 -0.0341 -0.2782
18266TIP3    H176213   2.404   5.716  11.377  0.2998  0.4861 -0.4112
18266TIP3    H276214   2.470   5.641  11.491 -0.2135  0.3250 -0.2220
18267TIP3   OH276215   0.542   5.272   2.274 -0.0512  0.2983  0.2100
18267TIP3    H176216   0.554   5.266   2.179  0.3180  1.6158  0.1583
18267TIP3    H276217   0.492   5.194   2.297  0.3899 -0.3515 -0.9776
18268TIP3   OH276218   4.310   0.154  16.392  0.2797 -0.2354 -0.2454
18268TIP3    H176219   4.357   0.135  16.473 -0.3950 -0.5859  0.0741
18268TIP3    H276220   4.314   0.073  16.342  0.9539  0.0725 -0.7035
18269TIP3   OH276221   5.785   2.294  14.161 -0.0894  0.4950  0.8329
18269TIP3    H176222   5.864   2.278  14.212  0.3869  0.9969  0.2817
18269TIP3    H276223   5.761   2.385  14.182  0.7806  1.1102 -0.6736
18270TIP3   OH276224   0.198   0.850   5.305 -0.4053  0.5811 -0.7624
18270TIP3    H176225   0.190   0.911   5.378  1.3258  0.9392 -0.8370
18270TIP3    H276226   0.248   0.897   5.239  2.2463 -1.3224 -0.2620
18271TIP3   OH276227   3.664   5.109  15.933  0.3990  0.0464  0.3123
18271TIP3    H176228   3.715   5.159  15.869  1.7356 -0.7474  0.7141
18271TIP3    H276229   3.624   5.039  15.883  0.7049 -0.0382  0.1841
18272TIP3   OH276230   6.337   4.412  12.550 -0.6375  0.4599 -0.0206
18272TIP3    H176231   6.400   4.349  12.517  0.2525 -0.2335  2.7084
18272TIP3    H276232   6.253   4.381  12.519  0.2068  0.9945 -3.1359
18273TIP3   OH276233   5.490   1.612  12.671  0.1027  0.2097 -0.1815
18273TIP3    H176234   5.456   1.691  12.714 -1.9480 -0.2155 -0.9153
18273TIP3    H276235   5.502   1.638  12.579  0.0667 -0.1524 -0.2885
18274TIP3   OH276236   4.894   3.632  12.157 -0.5113  0.6698 -0.0838
18274TIP3    H176237   4.885   3.562  12.223 -1.6477  0.3817 -0.5160
18274TIP3    H276238   4.814   3.626  12.105  0.8588  0.1076 -2.2695
18275TIP3   OH276239   1.860   3.071   2.990  0.4060  0.3884 -0.3676
18275TIP3    H176240   1.797   3.011   3.030 -0.3827  1.4266 -0.0416
18275TIP3    H276241   1.814   3.108   2.914  0.3512  1.6828  0.2735
18276TIP3   OH276242   5.437   4.299   0.428 -0.0848 -0.2534 -0.5363
18276TIP3    H176243   5.471   4.276   0.342 -0.3288 -2.0334 -0.2022
18276TIP3    H276244   5.343   4.307   0.416 -0.1042 -0.3659 -0.4601
18277TIP3   OH276245   0.936   3.529  13.130  0.8806  0.4482  0.3267
18277TIP3    H176246   0.956   3.473  13.205  2.6579 -1.3858 -1.4136
18277TIP3    H276247   0.998   3.601  13.136 -0.5123  1.5994  1.8168
18278TIP3   OH276248   0.410   0.970  14.476  0.1069  0.0855  0.1511
18278TIP3    H176249   0.340   1.003  14.419 -0.4372  0.1679  0.8504
18278TIP3    H276250   0.490   0.982  14.425 -0.1492  1.8541  0.1042
18279TIP3   OH276251   5.985   0.099   4.067  0.1079 -0.2839  0.5395
18279TIP3    H176252   6.073   0.071   4.042  0.5696  0.5299  1.2112
18279TIP3    H276253   5.955   0.153   3.994  0.2149 -0.4498  0.3730
18280TIP3   OH276254   1.112   4.951   3.946  0.2684  0.3055 -0.5850
18280TIP3    H176255   1.133   5.042   3.968 -1.7838  0.5870  0.3961
18280TIP3    H276256   1.171   4.930   3.874  5.0018  0.4974  2.7374
18281TIP3   OH276257   1.340   3.561   4.383  0.0121  0.0779  0.1094
18281TIP3    H176258   1.361   3.558   4.477  0.2804 -1.4519  0.0180
18281TIP3    H276259   1.244   3.556   4.380 -0.0066  0.2818  0.2976
18282TIP3   OH276260   2.921   4.160  16.949  0.9112  0.3811  0.5409
18282TIP3    H176261   2.833   4.133  16.923  1.2715  0.6861 -1.1071
18282TIP3    H276262   2.955   4.086  17.000  0.0717 -0.1443  0.3651
18283TIP3   OH276263   0.790   1.185  15.387  0.3234  0.2477  0.0590
18283TIP3    H176264   0.727   1.143  15.328 -0.0289  0.3201  0.3781
18283TIP3    H276265   0.804   1.120  15.456  1.6148 -0.3044 -0.6906
18284TIP3   OH276266   4.347   6.593   4.050  0.0838 -0.9259  0.2029
18284TIP3    H176267   4.376   6.604   4.141 -0.9587 -1.3408  0.6051
18284TIP3    H276268   4.423   6.557   4.005  0.2968 -1.7137  1.1490
18285TIP3   OH276269   3.445   6.131  14.283 -0.0340 -0.0503  0.2097
18285TIP3    H176270   3.480   6.041  14.279  0.2452  0.0866 -0.8978
18285TIP3    H276271   3.371   6.130  14.223 -0.3051  0.3537  0.5374
18286TIP3   OH276272   3.804   3.843  14.145 -0.3434 -0.5841 -0.1587
18286TIP3    H176273   3.752   3.782  14.093 -0.9122  0.1656 -0.5032
18286TIP3    H276274   3.774   3.930  14.116  0.7505 -0.1369 -0.0066
18287TIP3   OH276275   6.021   3.651  17.048 -0.3723 -0.0388  0.2005
18287TIP3    H176276   5.968   3.590  16.997 -1.7318  0.8431  0.4909
18287TIP3    H276277   6.059   3.711  16.984  4.0016 -3.1524 -0.5694
18288TIP3   OH276278   3.257   3.592  16.976  0.0951 -0.5658 -0.0325
18288TIP3    H176279   3.166   3.617  16.993 -0.3897  0.0128 -2.9499
18288TIP3    H276280   3.307   3.670  16.999 -0.5324  0.2509 -1.2774
18289TIP3   OH276281   2.746   4.352   0.376 -0.1876 -0.0229 -0.2941
18289TIP3    H176282   2.667   4.300   0.391 -0.3618  0.4599  0.5338
18289TIP3    H276283   2.717   4.442   0.381 -0.0047  0.1966 -2.3461
18290TIP3   OH276284   3.869   3.605   2.665  0.1814 -0.1839 -0.4828
18290TIP3    H176285   3.930   3.662   2.618 -0.0261  0.5459  0.0988
18290TIP3    H276286   3.908   3.595   2.752  0.4506 -1.3348 -0.7172
18291TIP3   OH276287   3.536   2.078   2.822 -0.0517 -0.2649  0.0307
18291TIP3    H176288   3.527   1.984   2.809  1.4468 -0.5863  1.0778
18291TIP3    H276289   3.446   2.111   2.826 -0.5934 -1.5238 -1.0703
18292TIP3   OH276290   2.194   3.806   4.079 -0.0337  0.2158  0.0085
18292TIP3    H176291   2.240   3.840   4.003  2.0031 -0.6110  0.8006
18292TIP3    H276292   2.235   3.849   4.154 -1.3727  0.3279  0.7145
18293TIP3   OH276293   6.377   4.012   5.789 -0.1866 -0.3715 -0.5670
18293TIP3    H176294   6.373   4.084   5.852 -0.5738  0.3994 -1.4491
18293TIP3    H276295   6.384   4.055   5.704  0.8876 -1.3975 -1.0230
18294TIP3   OH276296   1.898   5.708   0.783 -0.0394 -0.5642  0.8362
18294TIP3    H176297   1.876   5.794   0.748 -1.9854 -1.8491 -1.4168
18294TIP3    H276298   1.984   5.719   0.823 -0.8163  2.7037  1.8978
18295TIP3   OH276299   0.450   2.346  13.443 -0.6054 -0.1713  0.0241
18295TIP3    H176300   0.505   2.424  13.436 -1.8123  0.9884  2.2922
18295TIP3    H276301   0.492   2.295  13.513 -1.7404  0.1735  0.9772
18296TIP3   OH276302   1.807   2.487   1.017  0.6491  0.3551  0.4455
18296TIP3    H176303   1.901   2.472   1.006  0.7937 -0.7607  2.6205
18296TIP3    H276304   1.772   2.486   0.928  2.5735  0.0605 -0.3687
18297TIP3   OH276305   3.485   2.435   2.146  0.1854  0.3448 -0.5362
18297TIP3    H176306   3.497   2.357   2.092  0.9550 -0.0784  0.2347
18297TIP3    H276307   3.449   2.402   2.228 -0.7648  0.9597 -0.6855
18298TIP3   OH276308   5.685   4.063  16.686 -0.1395 -0.2702 -0.4197
18298TIP3    H176309   5.653   4.089  16.773  0.5589 -0.0039 -0.2289
18298TIP3    H276310   5.609   4.027  16.642  0.0674 -3.3339  1.3840
18299TIP3   OH276311   4.836   1.608   4.557 -0.1051 -0.0763 -0.0436
18299TIP3    H176312   4.748   1.642   4.575  0.3675  1.7592 -0.9335
18299TIP3    H276313   4.882   1.613   4.640 -1.0671 -1.8925  0.6434
18300TIP3   OH276314   5.011   4.324  11.072  0.2823 -0.0944 -0.1509
18300TIP3    H176315   5.043   4.352  10.987 -0.9999  0.1533 -0.5733
18300TIP3    H276316   4.924   4.363  11.079  0.2788 -0.2995  1.1755
18301TIP3   OH276317   2.605   6.415   0.688 -0.2841  0.5935 -0.1465
18301TIP3    H176318   2.689   6.421   0.643 -0.3658 -0.7370 -0.5212
18301TIP3    H276319   2.548   6.476   0.641  0.3814  1.2514 -0.0983
18302TIP3   OH276320   5.361   4.557   5.083 -0.0821 -0.6110 -0.0382
18302TIP3    H176321   5.289   4.515   5.130 -0.1486  0.7353  1.1212
18302TIP3    H276322   5.438   4.502   5.103 -0.6397 -1.6937 -0.7692
18303TIP3   OH276323   6.347   0.155  11.679 -0.5532 -0.1190  0.1509
18303TIP3    H176324   6.329   0.249  11.677 -1.2982 -0.2606 -0.1247
18303TIP3    H276325   6.340   0.131  11.772  0.0338  0.1684  0.2698
18304TIP3   OH276326   1.916   0.647   4.356  0.6970  0.4578 -0.4820
18304TIP3    H176327   1.860   0.724   4.346 -0.7037 -0.3066  0.9288
18304TIP3    H276328   1.929   0.639   4.450  0.6884 -1.0921 -0.5880
18305TIP3   OH276329   4.431   5.152  13.796  0.2212 -0.2395  0.2175
18305TIP3    H176330   4.463   5.085  13.736 -1.4864 -0.6947 -0.2367
18305TIP3    H276331   4.482   5.230  13.774  0.5222 -0.7414 -0.9306
18306TIP3   OH276332   4.297   3.485  16.888 -0.2149 -0.0646 -0.4167
18306TIP3    H176333   4.249   3.403  16.900 -0.5050  0.3929  2.3872
18306TIP3    H276334   4.385   3.466  16.922 -0.8461  1.1950  2.2313
18307TIP3   OH276335   3.304   6.311   1.658 -0.3347 -0.2479  0.1990
18307TIP3    H176336   3.299   6.368   1.735 -2.1436  1.0392 -0.7742
18307TIP3    H276337   3.365   6.356   1.600 -0.4096 -0.2247  0.1381
18308TIP3   OH276338   2.709   4.890   2.421  0.4096  0.1772 -0.0007
18308TIP3    H176339   2.789   4.840   2.409 -0.1255 -0.3318 -1.8415
18308TIP3    H276340   2.737   4.971   2.464  1.4966 -1.0274  1.6806
18309TIP3   OH276341   1.686   6.083  11.618  0.0351 -0.5944  0.0158
18309TIP3    H176342   1.596   6.112  11.604 -1.0764 -2.3588  2.7771
18309TIP3    H276343   1.701   6.016  11.552 -0.9027 -0.7429 -0.0529
18310TIP3   OH276344   4.526   1.975  13.884  0.4842  0.3545  0.4750
18310TIP3    H176345   4.456   1.922  13.922 -0.3624  0.6078 -0.6425
18310TIP3    H276346   4.493   2.065  13.888 -0.0432  0.3092 -1.5706
18311TIP3   OH276347   1.761   0.953   1.413  0.1466  0.1994 -0.2615
18311TIP3    H176348   1.799   1.034   1.378 -0.1543  1.6868  2.5987
18311TIP3    H276349   1.676   0.946   1.370  0.6116  0.8091 -1.3215
18312TIP3   OH276350   0.224   4.669   0.171 -0.2676  0.0532 -0.4707
18312TIP3    H176351   0.150   4.624   0.131 -1.8111  1.7063  0.3651
18312TIP3    H276352   0.210   4.660   0.265  0.6768  0.2590 -0.2987
18313TIP3   OH276353   0.387   5.069   3.585  0.3009  0.2141 -0.4683
18313TIP3    H176354   0.333   5.147   3.580 -1.3711 -0.7163  1.5731
18313TIP3    H276355   0.477   5.102   3.588 -0.3341  2.0159 -0.1538
18314TIP3   OH276356   6.219   5.960   6.546 -0.1269  0.0881 -0.5375
18314TIP3    H176357   6.252   5.979   6.633  0.2816  0.3032 -0.7354
18314TIP3    H276358   6.294   5.923   6.499  0.4512  2.4188 -1.6109
18315TIP3   OH276359   1.349   3.419   0.806 -0.0407 -0.4568  0.0391
18315TIP3    H176360   1.376   3.501   0.849  0.4019 -0.7183  0.2690
18315TIP3    H276361   1.259   3.405   0.835  0.5418 -1.1242  1.6562
18316TIP3   OH276362   4.567   1.640   4.650  0.3151  0.2806  0.1908
18316TIP3    H176363   4.585   1.721   4.697 -0.0086  0.0636  0.6886
18316TIP3    H276364   4.477   1.619   4.672 -0.0642  0.5313 -1.0576
18317TIP3   OH276365   6.093   3.106  14.341 -0.4123 -0.4055  0.0742
18317TIP3    H176366   6.091   3.011  14.348  1.6425 -0.7994 -2.7837
18317TIP3    H276367   6.026   3.127  14.276  1.3525 -0.3545 -1.8254
18318TIP3   OH276368   3.559   5.977  15.645  0.1546 -0.5077  0.0876
18318TIP3    H176369   3.616   5.934  15.582 -0.1891  0.5921 -1.0023
18318TIP3    H276370   3.484   6.007  15.595 -0.7154 -0.6720  1.2436
18319TIP3   OH276371   0.546   3.044   4.140 -1.0348  0.2389  0.1880
18319TIP3    H176372   0.505   3.122   4.178 -0.4829  0.1054  1.0727
18319TIP3    H276373   0.524   3.049   4.047 -2.6432  0.4405  0.5404
18320TIP3   OH276374   1.010   2.030  15.854 -0.2342 -0.3107 -0.4449
18320TIP3    H176375   0.918   2.054  15.852 -0.4173 -0.9289  0.2914
18320TIP3    H276376   1.057   2.113  15.860 -0.8414 -0.0850  1.7913
18321TIP3   OH276377   0.451   4.953  17.079  0.0686  0.0842 -0.0693
18321TIP3    H176378   0.522   4.917  17.132 -1.2289 -1.4826  0.6954
18321TIP3    H276379   0.467   4.918  16.991  0.6251  0.3384 -0.0758
18322TIP3   OH276380   5.712   4.021  16.395  0.2856 -0.0321 -0.4183
18322TIP3    H176381   5.702   4.016  16.300 -2.8319  0.2607 -0.1994
18322TIP3    H276382   5.731   3.931  16.422 -0.7562 -0.4989 -1.1862
18323TIP3   OH276383   1.206   6.596  11.035  0.1811 -0.3783  0.2710
18323TIP3    H176384   1.269   6.610  11.105  0.4242 -0.1946  0.0192
18323TIP3    H276385   1.256   6.614  10.955 -0.0325 -0.7899  0.0413
18324TIP3   OH276386   6.236   2.245  12.098  0.7144 -0.1661 -0.2890
18324TIP3    H176387   6.182   2.229  12.022  1.2985  0.9177 -0.9601
18324TIP3    H276388   6.177   2.234  12.173 -0.0083 -0.6397 -0.9208
18325TIP3   OH276389   4.639   3.687  14.755 -0.7195 -0.2037  0.5705
18325TIP3    H176390   4.723   3.709  14.715 -1.1419  1.4096  0.4821
18325TIP3    H276391   4.617   3.601  14.720  0.2617 -0.0559 -0.4505
18326TIP3   OH276392   2.534   1.347   0.746 -0.0733  0.2247  0.2019
18326TIP3    H176393   2.533   1.329   0.652  0.9663 -0.3174  0.2833
18326TIP3    H276394   2.554   1.441   0.753 -1.8036  0.6508 -0.1363
18327TIP3   OH276395   1.338   2.874   1.073  0.2300  0.1870 -0.4828
18327TIP3    H176396   1.411   2.934   1.089  1.3920 -1.5220  1.0079
18327TIP3    H276397   1.373   2.809   1.011 -0.2894 -0.2013 -0.3802
18328TIP3   OH276398   4.342   3.487   2.841  0.1233 -0.6978 -0.3725
18328TIP3    H176399   4.355   3.394   2.859  1.1214 -0.3137  1.0913
18328TIP3    H276400   4.403   3.506   2.770  1.3525 -0.8014  0.5978
18329TIP3   OH276401   3.160   6.608   0.701 -0.0328  0.4021 -0.1036
18329TIP3    H176402   3.166   6.565   0.787  0.2043 -0.2433 -0.4330
18329TIP3    H276403   3.194   6.697   0.717  2.9961 -0.6202 -0.1340
18330TIP3   OH276404   2.208   4.366  13.068  0.3159  0.1454 -0.6500
18330TIP3    H176405   2.189   4.460  13.066 -2.0212 -0.2971 -1.3136
18330TIP3    H276406   2.264   4.351  12.991  0.0823  0.8555 -0.9653
18331TIP3   OH276407   2.406   6.696  15.674 -0.1861 -0.1755  0.2531
18331TIP3    H176408   2.378   6.767  15.617 -0.5173 -0.5895 -0.1062
18331TIP3    H276409   2.346   6.624  15.654 -1.9958  0.4206  2.8923
18332TIP3   OH276410   0.956   3.365  16.346  0.2737 -0.5521 -1.0967
18332TIP3    H176411   0.900   3.441  16.361 -1.0335 -1.7844  0.8009
18332TIP3    H276412   1.042   3.391  16.380  0.3292  0.6357 -2.0853
18333TIP3   OH276413   1.751   1.400  17.115  0.2024  0.4198  0.6585
18333TIP3    H176414   1.713   1.464  17.175 -0.8058  0.1515  0.3317
18333TIP3    H276415   1.783   1.329  17.172 -0.8742  0.1013  0.8866
18334TIP3   OH276416   6.698   4.927  11.812 -0.5162 -0.1769  0.3031
18334TIP3    H176417   6.692   4.864  11.884 -1.3291  2.1476  2.4071
18334TIP3    H276418   6.792   4.946  11.804 -0.4613 -0.1513  1.0216
18335TIP3   OH276419   5.386   2.613   2.628  0.4179 -0.3956 -0.1714
18335TIP3    H176420   5.383   2.579   2.717  1.0018 -2.5656 -0.9228
18335TIP3    H276421   5.305   2.582   2.587  1.3654 -1.7254 -1.1271
18336TIP3   OH276422   2.590   2.136   5.926 -0.4680 -0.0876 -0.3118
18336TIP3    H176423   2.499   2.113   5.908 -0.1673 -0.4504 -1.4705
18336TIP3    H276424   2.607   2.211   5.868  0.2425 -0.6223 -0.8068
18337TIP3   OH276425   5.556   0.955   2.390 -0.0080  0.6119 -0.4046
18337TIP3    H176426   5.570   1.047   2.367  0.9118  0.6191  0.1312
18337TIP3    H276427   5.472   0.955   2.435  0.6335  1.4486  0.8750
18338TIP3   OH276428   1.493   1.930  16.407  0.0236  0.6343  0.3819
18338TIP3    H176429   1.449   1.884  16.479  0.6661  0.0841  0.4358
18338TIP3    H276430   1.575   1.962  16.445  1.5531 -1.7705 -0.6652
18339TIP3   OH276431   3.499   4.870   2.584 -0.5487  0.0154 -0.2067
18339TIP3    H176432   3.485   4.878   2.490  0.4826 -2.2978 -0.6236
18339TIP3    H276433   3.586   4.830   2.592 -0.7234 -0.0780  1.7261
18340TIP3   OH276434   0.976   1.824  13.557  0.1922 -0.0620  0.2893
18340TIP3    H176435   0.995   1.897  13.498 -2.2866  0.2719 -0.1940
18340TIP3    H276436   1.019   1.749  13.517 -1.7856  0.0562 -2.3195
18341TIP3   OH276437   2.931   4.333   2.214  0.2867  0.0408 -0.2851
18341TIP3    H176438   2.909   4.340   2.307 -0.7904  0.7886 -0.5701
18341TIP3    H276439   3.018   4.372   2.207  0.9533 -1.2441  0.6023
18342TIP3   OH276440   0.230   0.782  11.861  0.7428 -0.1222  0.2375
18342TIP3    H176441   0.243   0.782  11.956 -1.0404  1.3724  0.5257
18342TIP3    H276442   0.256   0.869  11.833  1.3096 -0.5713 -0.6988
18343TIP3   OH276443   3.535   4.392   4.134  0.0697 -0.2646  0.3129
18343TIP3    H176444   3.526   4.308   4.089  1.0284  0.4550 -1.3271
18343TIP3    H276445   3.445   4.424   4.143 -0.4191 -1.9595  2.0506
18344TIP3   OH276446   4.937   4.687   3.184  0.1119 -0.0289 -0.7875
18344TIP3    H176447   4.881   4.763   3.194  1.3288  0.8273 -0.3254
18344TIP3    H276448   5.026   4.720   3.194  0.6112 -1.8582  1.6772
18345TIP3   OH276449   0.157   4.663   6.670  0.4559  0.0720  0.0291
18345TIP3    H176450   0.137   4.720   6.745  0.6449 -0.6431  0.6314
18345TIP3    H276451   0.213   4.595   6.706  1.4909  0.3474 -1.0106
18346TIP3   OH276452   0.195   4.353  13.723 -0.3454 -0.6498  0.4284
18346TIP3    H176453   0.186   4.338  13.628  0.0890 -0.8553  0.4143
18346TIP3    H276454   0.178   4.267  13.762  2.0650 -1.2412  0.3526
18347TIP3   OH276455   3.603   5.282  12.088  0.6270 -0.2072 -0.3110
18347TIP3    H176456   3.634   5.360  12.041 -1.5128  1.0368  0.2017
18347TIP3    H276457   3.584   5.218  12.019  0.3773  0.5195 -0.9349
18348TIP3   OH276458   1.446   3.056  16.785 -0.3575  0.3964 -0.4446
18348TIP3    H176459   1.539   3.034  16.777 -0.4662  0.1611 -1.1456
18348TIP3    H276460   1.442   3.151  16.777 -0.2005  0.3835 -0.6828
18349TIP3   OH276461   2.214   6.348   0.519 -0.1592 -0.0061 -0.1699
18349TIP3    H176462   2.275   6.278   0.543  3.5039  2.6046 -0.9517
18349TIP3    H276463   2.182   6.381   0.603  0.0834 -0.9650  0.3140
18350TIP3   OH276464   4.193   4.248  17.470 -0.0208  0.0260  0.0400
18350TIP3    H176465   4.253   4.255  17.395 -0.7421 -0.3369 -0.5872
18350TIP3    H276466   4.225   4.313  17.533  1.2824 -0.4726 -0.0975
18351TIP3   OH276467   3.196   2.142  15.603  0.2252  0.3965  0.2485
18351TIP3    H176468   3.224   2.132  15.512  0.8776 -2.9972  0.7114
18351TIP3    H276469   3.106   2.175  15.596  0.1858  0.0248 -1.6239
18352TIP3   OH276470   1.161   4.865  15.085  0.3526 -0.1213 -0.8269
18352TIP3    H176471   1.171   4.915  15.167  0.4441 -0.5879 -0.5499
18352TIP3    H276472   1.072   4.886  15.056 -1.1217 -2.7648  1.3241
18353TIP3   OH276473   4.485   3.918   1.325  0.6276 -0.1320  0.1113
18353TIP3    H176474   4.542   3.897   1.252  0.1858 -0.8094 -0.0469
18353TIP3    H276475   4.414   3.969   1.286  0.1979 -0.8075 -0.0050
18354TIP3   OH276476   0.203   2.212  12.883  0.1303 -0.0843 -0.1487
18354TIP3    H176477   0.146   2.196  12.959  0.2047  0.2161 -0.0284
18354TIP3    H276478   0.210   2.307  12.877 -0.9441 -0.0664 -1.3413
18355TIP3   OH276479   3.735   2.184   4.926 -0.4365 -0.2743  0.4846
18355TIP3    H176480   3.721   2.279   4.923 -0.8640 -0.3560 -0.4104
18355TIP3    H276481   3.654   2.149   4.962 -0.7596 -0.3885 -0.3372
18356TIP3   OH276482   5.499   1.412   5.320  0.7961 -0.0967  0.0334
18356TIP3    H176483   5.590   1.421   5.348  0.4161 -2.2346  2.3399
18356TIP3    H276484   5.448   1.430   5.399 -0.6347 -1.7018 -0.4673
18357TIP3   OH276485   6.047   4.676  13.233 -0.3285 -0.4213  0.4175
18357TIP3    H176486   6.007   4.600  13.190 -0.7682  0.7825 -1.4049
18357TIP3    H276487   5.974   4.719  13.277 -0.2745 -0.4843  0.5676
18358TIP3   OH276488   5.919   4.866   2.735  0.0041 -0.6642  0.6580
18358TIP3    H176489   5.957   4.807   2.800  2.0464 -0.0545  0.1120
18358TIP3    H276490   5.851   4.814   2.691  0.0861 -1.7810  1.7991
18359TIP3   OH276491   1.334   2.128  11.546  0.4348  0.5871  0.1420
18359TIP3    H176492   1.239   2.118  11.557  0.5285  0.5932  1.1040
18359TIP3    H276493   1.360   2.054  11.491 -0.1835  0.7998 -0.4394
18360TIP3   OH276494   2.910   1.756   4.535  0.0198 -0.2227  0.8616
18360TIP3    H176495   2.830   1.741   4.485 -0.4769  1.1673  1.1859
18360TIP3    H276496   2.981   1.743   4.472 -0.4940 -0.6866  0.3663
18361TIP3   OH276497   4.823   1.242  11.229 -0.0230  0.0398  0.0427
18361TIP3    H176498   4.887   1.219  11.296 -1.9033 -0.6271  1.6988
18361TIP3    H276499   4.800   1.159  11.188 -1.2889 -0.0498  0.8747
18362TIP3   OH276500   1.960   4.253   1.468  0.2208 -0.5206  0.1437
18362TIP3    H176501   1.903   4.329   1.473 -0.3111 -0.9647  1.0746
18362TIP3    H276502   1.986   4.248   1.375 -0.4508  0.2552 -0.0934
18363TIP3   OH276503   4.338   4.746  11.827  0.8248  0.1337 -0.1594
18363TIP3    H176504   4.368   4.836  11.818  2.3743 -0.3168  0.1213
18363TIP3    H276505   4.410   4.701  11.872  0.4732 -1.4499 -1.0916
18364TIP3   OH276506   3.004   0.157  13.867 -0.5353  0.3255  0.0428
18364TIP3    H176507   2.909   0.164  13.860 -0.6050 -1.0804 -0.6922
18364TIP3    H276508   3.037   0.200  13.788 -0.6197 -0.2460 -0.3084
18365TIP3   OH276509   1.586   1.725  16.241 -0.2335 -0.4136 -0.1493
18365TIP3    H176510   1.649   1.708  16.311  0.8665 -0.5039 -1.1211
18365TIP3    H276511   1.527   1.791  16.277  0.2247 -0.5612  0.9035
18366TIP3   OH276512   2.627   6.052   3.441 -0.7942  0.2304  0.4085
18366TIP3    H176513   2.614   6.020   3.352  1.6389  0.4857 -0.1099
18366TIP3    H276514   2.548   6.101   3.461 -0.6414  1.7996 -2.3660
18367TIP3   OH276515   4.436   2.223  14.021  0.3117  0.1799  0.6940
18367TIP3    H176516   4.501   2.163  14.056  0.0826 -0.0899  0.6635
18367TIP3    H276517   4.372   2.234  14.091 -1.8639 -2.8470 -0.6176
18368TIP3   OH276518   1.230   1.302  11.480 -0.3239  0.4351 -0.0225
18368TIP3    H176519   1.231   1.349  11.564  2.0241  0.6797 -0.1280
18368TIP3    H276520   1.218   1.371  11.415 -0.9194  0.3848  0.0254
18369TIP3   OH276521   0.414   6.694   3.472 -0.0621  0.0260  0.0222
18369TIP3    H176522   0.467   6.648   3.407 -0.0309  0.3508 -0.1839
18369TIP3    H276523   0.415   6.786   3.443 -1.3321 -0.0773 -0.3851
18370TIP3   OH276524   1.046   0.847  16.826  0.3796  0.2351 -0.2099
18370TIP3    H176525   1.005   0.929  16.800 -1.0513 -0.4752 -0.3039
18370TIP3    H276526   0.976   0.782  16.818  0.6778 -0.5438  2.5402
18371TIP3   OH276527   1.157   6.059   0.164  0.7079 -0.1624 -0.2616
18371TIP3    H176528   1.173   6.118   0.090  0.1561  0.0819 -0.1884
18371TIP3    H276529   1.185   6.108   0.241 -0.9908  0.5410 -0.0575
18372TIP3   OH276530   5.340   5.823   0.170  0.5663 -0.0431  0.2919
18372TIP3    H176531   5.263   5.859   0.127  1.0635  0.6276 -0.0466
18372TIP3    H276532   5.354   5.879   0.247  0.7782 -0.0962  0.2946
18373TIP3   OH276533   5.834   3.218  13.728 -0.3397  0.1242  0.1560
18373TIP3    H176534   5.832   3.248  13.637 -0.4610 -2.4898 -0.7944
18373TIP3    H276535   5.752   3.249  13.765 -0.6495  0.5775 -0.8685
18374TIP3   OH276536   4.911   5.272  14.396 -0.0115 -0.5472  0.0040
18374TIP3    H176537   4.984   5.307  14.345  0.0865 -1.4438 -0.5041
18374TIP3    H276538   4.947   5.260  14.484  0.2640 -0.3731 -0.0837
18375TIP3   OH276539   2.814   4.862   0.466  0.2530  0.5109 -0.4051
18375TIP3    H176540   2.754   4.929   0.434  1.0751  0.9048 -1.1726
18375TIP3    H276541   2.828   4.884   0.558  0.5312  1.4210 -0.6546
18376TIP3   OH276542   3.855   0.803  14.119  0.3739  0.3446 -0.0086
18376TIP3    H176543   3.771   0.803  14.073  0.7988  1.1650 -0.8224
18376TIP3    H276544   3.902   0.727  14.084 -0.0437 -0.1542  0.4958
18377TIP3   OH276545   5.841   1.829  11.479  0.3976 -0.9896  0.0980
18377TIP3    H176546   5.929   1.796  11.501  0.1199 -1.2068  0.9331
18377TIP3    H276547   5.853   1.923  11.468  1.0658 -1.2445 -1.5977
18378TIP3   OH276548   2.162   6.718   0.686 -0.5340  0.0519 -0.1749
18378TIP3    H176549   2.137   6.688   0.598 -0.7876 -0.7196  0.1464
18378TIP3    H276550   2.178   6.811   0.676 -2.4841  0.3800 -0.6324
18379TIP3   OH276551   2.400   3.170  15.121  1.0141  0.3627  0.7401
18379TIP3    H176552   2.450   3.156  15.201  1.6339 -0.8913  0.1637
18379TIP3    H276553   2.439   3.109  15.058  1.3753  2.1801 -0.8787
18380TIP3   OH276554   2.085   1.418   2.271 -0.0467 -0.4615  0.2886
18380TIP3    H176555   2.034   1.494   2.299  2.4675  0.6287  2.3888
18380TIP3    H276556   2.069   1.411   2.177  0.0522  3.0890 -0.1385
18381TIP3   OH276557   2.256   5.106  16.033  0.2213  0.7771 -0.0256
18381TIP3    H176558   2.318   5.072  15.968 -0.5337  0.2025 -0.4723
18381TIP3    H276559   2.261   5.201  16.024 -1.0329  0.7039 -2.0852
18382TIP3   OH276560   1.900   3.957   1.134 -0.2420 -0.5431  0.0691
18382TIP3    H176561   1.951   3.996   1.063  0.5142 -0.3197  0.7265
18382TIP3    H276562   1.941   3.871   1.148  0.7118  0.0969  1.3716
18383TIP3   OH276563   0.030   6.725   3.296  0.0484  0.3001 -0.5115
18383TIP3    H176564   0.080   6.661   3.346  0.1197  0.2157 -0.6917
18383TIP3    H276565  -0.031   6.762   3.360 -0.0527 -0.0097 -0.4278
18384TIP3   OH276566   3.043   4.930   5.172  0.6224  1.1995  0.4347
18384TIP3    H176567   2.966   4.890   5.132  0.9288  1.0690 -0.0315
18384TIP3    H276568   3.069   4.869   5.241  0.4570  1.1173  0.4242
18385TIP3   OH276569   5.338   3.869  14.053  0.5139 -0.2484 -0.4835
18385TIP3    H176570   5.389   3.855  14.133 -0.1175 -0.9945 -0.1988
18385TIP3    H276571   5.376   3.810  13.989  0.4551 -0.2972 -0.4741
18386TIP3   OH276572   3.799   5.149  16.482  0.2699 -0.4736  0.0661
18386TIP3    H176573   3.749   5.224  16.514 -0.5814 -0.9671 -0.0803
18386TIP3    H276574   3.835   5.109  16.561 -0.3937 -0.6868  0.2645
18387TIP3   OH276575   1.135   4.768  14.599  0.1888 -0.1822 -0.3502
18387TIP3    H176576   1.050   4.810  14.612  0.6435  1.1202 -1.3895
18387TIP3    H276577   1.114   4.677  14.580 -0.9302 -0.0336  0.0756
18388TIP3   OH276578   3.997   1.404  17.127 -0.3972  0.0216  0.1620
18388TIP3    H176579   4.038   1.487  17.155 -1.7728  0.5401  0.7136
18388TIP3    H276580   4.011   1.402  17.033  0.4792  0.4104  0.2633
18389TIP3   OH276581   2.664   5.757  12.776 -0.6706  0.1799 -0.7084
18389TIP3    H176582   2.587   5.720  12.819 -0.3594 -0.3433 -0.5893
18389TIP3    H276583   2.727   5.685  12.773 -0.3265  0.4906 -1.1554
18390TIP3   OH276584   0.068   5.343  12.684  0.3410  0.0272  0.1954
18390TIP3    H176585   0.095   5.306  12.600  1.8031 -1.2296  1.1754
18390TIP3    H276586  -0.009   5.292  12.709 -0.2379  0.5560 -0.4650
18391TIP3   OH276587   0.417   0.902  12.314 -0.0860 -0.0256 -0.0295
18391TIP3    H176588   0.453   0.932  12.397 -1.2037  0.1247  0.4161
18391TIP3    H276589   0.455   0.815  12.301  0.6917  0.2610  0.2405
18392TIP3   OH276590   6.666   4.526  16.858 -0.0870  0.6294  0.5511
18392TIP3    H176591   6.664   4.591  16.787 -0.3634  0.7690  0.6853
18392TIP3    H276592   6.751   4.483  16.848 -1.4656 -1.8124 -2.0341
18393TIP3   OH276593   4.586   2.142   6.415 -0.1010  0.5029 -0.2678
18393TIP3    H176594   4.508   2.196   6.404  0.2381  0.9301 -0.6231
18393TIP3    H276595   4.552   2.053   6.429 -0.6369  0.5033 -1.4649
18394TIP3   OH276596   5.302   5.636   3.600 -0.2317 -0.0319 -0.0395
18394TIP3    H176597   5.289   5.541   3.611  0.7704 -0.0897  0.7799
18394TIP3    H276598   5.353   5.643   3.520 -1.7133 -0.0527 -1.0333
18395TIP3   OH276599   4.549   0.524   1.295  0.2075 -0.8603  0.3146
18395TIP3    H176600   4.627   0.545   1.346  0.5065 -1.2941  0.0430
18395TIP3    H276601   4.477   0.536   1.356  0.3134  1.2496  0.0977
18396TIP3   OH276602   0.419   1.520  11.713 -0.3675 -0.1086 -0.4969
18396TIP3    H176603   0.344   1.548  11.765  0.1303  2.0093 -0.8249
18396TIP3    H276604   0.471   1.599  11.701  1.7554 -1.4245 -0.5982
18397TIP3   OH276605   1.858   0.878   1.641 -0.1754  0.5237  0.1034
18397TIP3    H176606   1.826   0.886   1.551 -0.6778 -0.1441  0.2185
18397TIP3    H276607   1.952   0.862   1.631 -0.2525  0.3050 -0.3093
18398TIP3   OH276608   0.587   2.492   3.009  0.0541 -0.6486  0.0009
18398TIP3    H176609   0.565   2.520   2.920  0.0626  0.4344  0.3226
18398TIP3    H276610   0.589   2.574   3.059  1.5022 -1.0822  0.6834
18399TIP3   OH276611   5.044   2.678  13.012  0.1434  0.2024 -1.0903
18399TIP3    H176612   5.006   2.705  13.096  1.8609 -1.3710  0.2815
18399TIP3    H276613   4.974   2.693  12.948 -1.6446  0.3835  0.7905
18400TIP3   OH276614   6.116   6.601   2.187 -0.0656  0.4216  0.6952
18400TIP3    H176615   6.159   6.675   2.229  0.7013  0.0973  0.5103
18400TIP3    H276616   6.093   6.633   2.099 -0.1841  0.5891  0.7873
18401TIP3   OH276617   6.108   4.456   2.076  0.1213  0.6990 -0.6022
18401TIP3    H176618   6.177   4.516   2.049  1.1012  0.7484  1.7177
18401TIP3    H276619   6.037   4.514   2.105 -0.5896  0.6518 -2.1475
18402TIP3   OH276620   3.599   0.764  13.711 -0.0054  0.2285 -0.6229
18402TIP3    H176621   3.674   0.813  13.677  0.1949 -1.3126 -2.5629
18402TIP3    H276622   3.523   0.816  13.685  0.2732  0.5134 -0.8761
18403TIP3   OH276623   2.342   6.038   2.761 -0.0782  0.1257  0.4013
18403TIP3    H176624   2.252   6.060   2.737 -1.5587 -3.7781  1.4871
18403TIP3    H276625   2.362   5.959   2.711  1.3780 -1.0923  2.6805
18404TIP3   OH276626   2.969   1.657   2.878  0.1694 -0.1327 -0.1405
18404TIP3    H176627   3.051   1.659   2.928 -0.1010 -1.1018  0.3597
18404TIP3    H276628   2.915   1.592   2.922 -0.0100 -1.1852 -1.8063
18405TIP3   OH276629   2.591   0.874   2.811  0.5247 -0.0007 -0.1208
18405TIP3    H176630   2.632   0.874   2.897 -1.3643  0.1581  0.8419
18405TIP3    H276631   2.556   0.785   2.800  0.0945  0.1910 -0.3628
18406TIP3   OH276632   0.081   1.132   4.864  0.3833  0.4197 -0.1398
18406TIP3    H176633   0.036   1.154   4.782 -1.5222 -0.9873  0.4416
18406TIP3    H276634   0.081   1.036   4.866  1.4213  0.4213  0.9802
18407TIP3   OH276635   2.135   3.625  17.267 -0.1160 -0.0229  0.2260
18407TIP3    H176636   2.181   3.610  17.184  1.1884  1.9083  0.5366
18407TIP3    H276637   2.204   3.636  17.331 -1.0888 -2.8350  1.9518
18408TIP3   OH276638   2.816   0.053   3.462 -0.2440  0.1652  0.1390
18408TIP3    H176639   2.898   0.085   3.424  0.1948 -0.0806  0.8726
18408TIP3    H276640   2.756   0.127   3.453 -0.1674  0.1060 -1.0581
18409TIP3   OH276641   2.379   4.716  12.803 -0.0214  0.0525  0.4838
18409TIP3    H176642   2.434   4.664  12.862  0.3898  1.1239  1.0752
18409TIP3    H276643   2.403   4.807  12.822  0.1018  0.4348 -1.3394
18410TIP3   OH276644   3.754   0.205   5.869  0.5151  0.5734 -0.0464
18410TIP3    H176645   3.832   0.236   5.915  0.6327 -1.2762  1.1149
18410TIP3    H276646   3.687   0.200   5.937  0.6844 -2.1962  0.0421
18411TIP3   OH276647   2.740   1.264   1.881 -0.0164  0.4168  0.4162
18411TIP3    H176648   2.688   1.187   1.904 -1.4420  1.3918  0.5620
18411TIP3    H276649   2.763   1.303   1.966  2.1554 -0.7023  0.4353
18412TIP3   OH276650   2.037   6.224  13.311  0.1015  0.0315 -0.0520
18412TIP3    H176651   2.020   6.268  13.394 -0.0865  0.4623 -0.3176
18412TIP3    H276652   2.072   6.139  13.336  0.0365  0.1550  0.4697
18413TIP3   OH276653   1.211   0.907  14.959  0.2298 -0.0010 -0.2454
18413TIP3    H176654   1.217   0.816  14.928  1.5346 -0.2022  0.5337
18413TIP3    H276655   1.123   0.913  14.997 -0.3306 -0.5649 -1.3882
18414TIP3   OH276656   6.432   0.304   2.330 -0.3094 -0.0814  0.3872
18414TIP3    H176657   6.458   0.395   2.345  1.7474 -0.7728  1.4267
18414TIP3    H276658   6.471   0.281   2.246 -0.9364  0.0242  0.0638
18415TIP3   OH276659   4.700   4.420   5.008  0.0559 -0.3221 -0.0330
18415TIP3    H176660   4.611   4.426   4.973 -0.0792  1.0090  0.4532
18415TIP3    H276661   4.757   4.419   4.931 -0.3752 -1.6592 -0.3636
18416TIP3   OH276662   6.520   1.659  11.852  0.3834 -0.4264  0.3522
18416TIP3    H176663   6.559   1.621  11.774 -0.5397 -0.2555 -0.2039
18416TIP3    H276664   6.556   1.748  11.856 -2.4759  1.0191 -2.1326
18417TIP3   OH276665   1.984   3.947   4.540  0.0113  0.0283  0.1367
18417TIP3    H176666   1.894   3.948   4.574  0.4250  0.3009  1.2740
18417TIP3    H276667   1.989   3.867   4.488 -0.5680 -0.5730  0.9804
18418TIP3   OH276668   5.612   2.615   5.127  0.2165 -0.4536 -0.6435
18418TIP3    H176669   5.522   2.599   5.155 -0.3745  2.4402 -0.6090
18418TIP3    H276670   5.617   2.577   5.040 -0.7589 -1.3717 -0.3219
18419TIP3   OH276671   5.878   3.415  16.964 -0.0113  0.3513 -0.0784
18419TIP3    H176672   5.804   3.378  16.916  0.5752  2.0554 -2.4964
18419TIP3    H276673   5.954   3.391  16.912  0.7347  1.7284  0.3303
18420TIP3   OH276674   4.063   6.434  12.965  0.1046 -0.2030  0.0204
18420TIP3    H176675   4.115   6.440  12.885  0.5098  0.9933  0.3533
18420TIP3    H276676   4.090   6.351  13.005  2.0714  0.5536  0.3848
18421TIP3   OH276677   2.844   4.842  15.385 -0.1896  0.1335  0.2765
18421TIP3    H176678   2.801   4.913  15.433  1.2716  1.3562 -0.1562
18421TIP3    H276679   2.830   4.764  15.439 -1.2363  0.8717  1.1013
18422TIP3   OH276680   5.728   4.010   6.364 -0.9301 -0.4186 -0.8283
18422TIP3    H176681   5.675   4.013   6.444  2.0966  1.1962  1.3291
18422TIP3    H276682   5.793   3.942   6.380  0.1949  0.4386 -1.5743
18423TIP3   OH276683   1.534   0.758   4.455  0.0391 -0.0856  0.0239
18423TIP3    H176684   1.622   0.796   4.462 -0.6873  1.5018  0.9412
18423TIP3    H276685   1.527   0.732   4.363  1.1373  0.6322 -0.2868
18424TIP3   OH276686   0.541   2.902  11.582  0.5271 -0.2076  0.1068
18424TIP3    H176687   0.482   2.830  11.603  1.1220 -0.4218  1.0652
18424TIP3    H276688   0.522   2.922  11.490 -0.8848 -0.4046  0.3414
18425TIP3   OH276689   6.718   1.604  17.368 -0.1430  0.1939  0.2664
18425TIP3    H176690   6.636   1.575  17.407 -0.6840  0.7039 -0.4780
18425TIP3    H276691   6.714   1.699  17.370  0.7581  0.2317  0.8919
18426TIP3   OH276692   0.556   5.396  13.183  0.0775 -0.0278 -0.2769
18426TIP3    H176693   0.627   5.336  13.209  1.5989  2.7758  2.8910
18426TIP3    H276694   0.479   5.364  13.231 -0.4061 -1.9002 -2.1446
18427TIP3   OH276695   3.008   2.766   6.143  0.4209 -0.5363 -0.3274
18427TIP3    H176696   2.964   2.851   6.146 -0.4778 -0.9758 -0.5742
18427TIP3    H276697   3.043   2.753   6.231 -0.1442 -0.2673 -0.0618
18428TIP3   OH276698   3.816   6.604   4.978  0.3478 -0.4499  0.4090
18428TIP3    H176699   3.850   6.529   4.929  0.4436  0.4606 -1.0019
18428TIP3    H276700   3.893   6.644   5.017  0.2853 -1.1209  1.2423
18429TIP3   OH276701   1.741   4.893  17.256  0.1388  0.0720  0.0777
18429TIP3    H176702   1.807   4.840  17.212  1.6357  1.5206  0.4722
18429TIP3    H276703   1.668   4.896  17.195  0.1387 -2.0835 -0.1123
18430TIP3   OH276704   0.619   4.722  11.903 -0.2982  1.5120 -0.2080
18430TIP3    H176705   0.627   4.627  11.905  2.7011  1.5818 -1.9078
18430TIP3    H276706   0.564   4.744  11.979  1.4653 -1.3668  2.1139
18431TIP3   OH276707   2.411   0.955  11.776  0.3646  0.4625 -0.2314
18431TIP3    H176708   2.318   0.974  11.786  0.5055  1.0707 -0.0264
18431TIP3    H276709   2.414   0.868  11.737 -0.2724 -0.0436  0.8046
18432TIP3   OH276710   5.263   2.349  11.170 -0.3587  0.2572  0.4101
18432TIP3    H176711   5.311   2.321  11.092 -0.7756  1.3412 -0.2561
18432TIP3    H276712   5.195   2.407  11.136 -0.5865  0.6872  1.5828
18433TIP3   OH276713   1.296   6.704   2.249  0.0515 -0.5120  0.1785
18433TIP3    H176714   1.216   6.751   2.225 -1.2569 -2.8093 -0.2942
18433TIP3    H276715   1.279   6.673   2.338  0.3480 -1.1258  0.0272
18434TIP3   OH276716   1.159   6.043   4.915 -0.1447 -0.0344  0.4763
18434TIP3    H176717   1.250   6.015   4.931  0.2084 -0.3039 -1.7907
18434TIP3    H276718   1.109   5.962   4.916 -0.1608 -0.0247  0.4041
18435TIP3   OH276719   4.357   1.363   4.827  0.1532 -0.1318 -0.4954
18435TIP3    H176720   4.352   1.456   4.848  2.1280  0.3445 -1.8077
18435TIP3    H276721   4.411   1.359   4.748 -0.5571 -2.3488 -0.9590
18436TIP3   OH276722   4.860   1.329  13.585 -0.1566 -0.6443 -0.2456
18436TIP3    H176723   4.939   1.289  13.620  1.5248  0.5691 -2.4301
18436TIP3    H276724   4.820   1.372  13.660  1.6261 -0.6941  0.7855
18437TIP3   OH276725   2.904   3.809   3.071 -0.1634 -0.6576 -0.2607
18437TIP3    H176726   2.929   3.735   3.126  0.9550 -0.5152 -0.5482
18437TIP3    H276727   2.975   3.817   3.007  0.8456  1.8979  1.0085
18438TIP3   OH276728   3.287   0.376  15.682  0.3234 -0.4254  0.0353
18438TIP3    H176729   3.231   0.313  15.727  2.7832 -2.0336  1.0898
18438TIP3    H276730   3.331   0.423  15.753  0.0053  1.1341 -0.7609
18439TIP3   OH276731   4.648   0.933   1.802  0.3396 -0.7021 -0.1604
18439TIP3    H176732   4.636   0.969   1.889  0.1763  1.1886 -0.9178
18439TIP3    H276733   4.706   0.858   1.815  1.2524  0.2235  1.4373
18440TIP3   OH276734   0.137   4.368  13.153 -0.1139 -0.3773  0.4173
18440TIP3    H176735   0.228   4.398  13.152  0.1969 -1.0225  2.7712
18440TIP3    H276736   0.144   4.273  13.164 -1.0755 -0.3780  1.0841
18441TIP3   OH276737   3.693   3.581  13.542 -0.4017  0.2900 -0.1848
18441TIP3    H176738   3.705   3.673  13.565  0.5318  0.6550 -1.8987
18441TIP3    H276739   3.644   3.584  13.459 -2.5355 -0.8733  0.9556
18442TIP3   OH276740   4.340   3.535  12.765 -0.2432 -0.0783 -0.3764
18442TIP3    H176741   4.273   3.601  12.749  0.1949  0.5939  0.4822
18442TIP3    H276742   4.356   3.496  12.679 -0.8799  0.5705 -0.7991
18443TIP3   OH276743   0.122   1.640  14.644 -0.1781  0.2153 -0.6392
18443TIP3    H176744   0.187   1.701  14.609  0.9691  0.3987  1.6070
18443TIP3    H276745   0.129   1.649  14.739 -2.2540 -1.0982 -0.2771
18444TIP3   OH276746   5.666   3.800   3.833  0.2496 -0.2489 -0.9436
18444TIP3    H176747   5.714   3.722   3.804  1.3003  0.4086 -1.0255
18444TIP3    H276748   5.720   3.873   3.804  0.5331  0.4683  1.2049
18445TIP3   OH276749   5.078   3.023   5.746 -0.9896 -0.6503  0.3279
18445TIP3    H176750   5.116   2.992   5.663 -0.2582 -0.7262  0.6831
18445TIP3    H276751   5.105   2.958   5.810 -1.2226 -0.3827  0.7002
18446TIP3   OH276752   6.279   2.609  11.868 -0.5561 -0.2410 -0.4954
18446TIP3    H176753   6.187   2.588  11.886 -0.8685 -0.4008 -2.1256
18446TIP3    H276754   6.303   2.553  11.794  0.5905  0.4200 -0.6516
18447TIP3   OH276755   4.288   4.911   4.631 -0.1429  0.0933  0.2060
18447TIP3    H176756   4.267   4.935   4.541  0.1720 -0.9272 -0.1623
18447TIP3    H276757   4.383   4.918   4.637 -0.1910  0.4683  0.5545
18448TIP3   OH276758   3.197   5.972   1.021 -1.1077  0.7585  0.1868
18448TIP3    H176759   3.266   5.961   0.956 -0.3710 -0.1651  1.0926
18448TIP3    H276760   3.155   5.886   1.027 -0.8117  0.6862  1.3140
18449TIP3   OH276761   4.179   4.769   0.871 -0.0138  0.4758  0.0680
18449TIP3    H176762   4.196   4.776   0.965  2.4677  1.2466 -0.3629
18449TIP3    H276763   4.255   4.722   0.836 -0.1424  1.5038 -1.7285
18450TIP3   OH276764   4.518   5.261  14.892  0.0162 -0.5898  0.4069
18450TIP3    H176765   4.503   5.336  14.835 -1.0031 -0.6835  0.5341
18450TIP3    H276766   4.516   5.296  14.981  0.7334 -0.5835  0.4256
18451TIP3   OH276767   5.240   4.944   3.730  0.1323  0.2037  0.0350
18451TIP3    H176768   5.225   4.860   3.687 -0.0142 -0.8387  2.0126
18451TIP3    H276769   5.301   4.924   3.801  0.4979  1.8855  0.2428
18452TIP3   OH276770   0.380   1.795  15.664  0.0091  0.6160 -0.0913
18452TIP3    H176771   0.400   1.756  15.579  0.0627  0.1417  0.1402
18452TIP3    H276772   0.373   1.889  15.645 -0.7620  0.4394 -0.7645
18453TIP3   OH276773   2.543   4.785  15.550  0.2392 -0.4676 -0.3673
18453TIP3    H176774   2.508   4.774  15.638 -0.5634  0.8678 -0.4869
18453TIP3    H276775   2.629   4.744  15.553  0.4931  0.1087  1.2248
18454TIP3   OH276776   6.573   1.445  14.975  0.1272 -0.5104 -0.3090
18454TIP3    H176777   6.604   1.355  14.966  1.1306 -0.0696 -1.7303
18454TIP3    H276778   6.586   1.484  14.888 -1.5258  0.6379 -0.0983
18455TIP3   OH276779   0.677   2.181  15.501  0.4903  0.5560 -0.1474
18455TIP3    H176780   0.736   2.124  15.550 -0.6224 -0.4113  0.1204
18455TIP3    H276781   0.735   2.243  15.457  1.6696 -0.0810  0.4411
18456TIP3   OH276782   4.331   4.210  10.460  0.1140 -0.0593 -0.2846
18456TIP3    H176783   4.285   4.200  10.544  1.5863  1.8966  0.8486
18456TIP3    H276784   4.278   4.161  10.397 -1.3285 -1.1607  1.6777
18457TIP3   OH276785   4.907   1.220   3.179  0.4470  0.2540  0.0018
18457TIP3    H176786   4.841   1.211   3.248  0.2293  0.5972 -0.1611
18457TIP3    H276787   4.917   1.314   3.168 -1.6771  0.2866 -2.4647
18458TIP3   OH276788   2.131   5.297   6.684 -0.1220  0.1757  0.0946
18458TIP3    H176789   2.223   5.271   6.681 -0.3547 -0.5849 -1.2295
18458TIP3    H276790   2.083   5.216   6.695 -0.6856  0.4090 -0.5568
18459TIP3   OH276791   4.222   0.743  15.099  0.1895  0.2381 -0.7157
18459TIP3    H176792   4.137   0.714  15.066  0.5352 -0.9534 -0.6108
18459TIP3    H276793   4.257   0.667  15.146  1.3096  0.7065 -0.7582
18460TIP3   OH276794   1.163   1.477  14.381 -0.1124 -0.0349  0.6024
18460TIP3    H176795   1.150   1.523  14.464  2.5031 -0.3271  1.2781
18460TIP3    H276796   1.119   1.393  14.393  1.5367 -0.7200  2.3714
18461TIP3   OH276797   3.335   5.420  15.762  0.1830 -0.1791 -0.1196
18461TIP3    H176798   3.377   5.336  15.743 -1.3857 -1.2141  0.6889
18461TIP3    H276799   3.389   5.460  15.830  0.2147 -1.1856  0.4653
18462TIP3   OH276800   6.491   5.103   2.243 -0.1078 -0.2470 -0.1180
18462TIP3    H176801   6.412   5.153   2.266 -0.6971 -0.3135 -1.8268
18462TIP3    H276802   6.465   5.053   2.165  1.8881  0.4640 -1.3108
18463TIP3   OH276803   1.250   2.889   1.569 -0.2980  0.6224 -0.5596
18463TIP3    H176804   1.275   2.931   1.487  1.2924  1.2522  0.1961
18463TIP3    H276805   1.214   2.804   1.543 -1.4360  1.4828 -1.9846
18464TIP3   OH276806   2.091   6.015   4.407  0.2306  0.8078  0.2202
18464TIP3    H176807   2.177   6.057   4.402 -0.7262  2.7425 -1.7206
18464TIP3    H276808   2.032   6.084   4.438 -0.9317  0.1042 -0.3645
18465TIP3   OH276809   6.119   1.889  14.715 -0.3334  0.7123 -0.2984
18465TIP3    H176810   6.103   1.940  14.794  0.2740  0.7976 -0.2223
18465TIP3    H276811   6.036   1.846  14.697 -0.6631  1.2074  0.0126
18466TIP3   OH276812   5.158   6.497   4.759  1.0004  0.5520 -0.8773
18466TIP3    H176813   5.125   6.427   4.703 -0.6551  1.3084 -0.8903
18466TIP3    H276814   5.233   6.458   4.804  0.7615 -0.8856 -1.6734
18467TIP3   OH276815   1.505   0.209   3.617 -0.1930 -0.0548  0.0430
18467TIP3    H176816   1.514   0.121   3.654  0.8932 -0.5965 -1.4181
18467TIP3    H276817   1.579   0.218   3.557  0.0576  2.1128  0.6117
18468TIP3   OH276818   6.592   1.478  14.149 -0.6611  0.1163 -0.1605
18468TIP3    H176819   6.522   1.413  14.146  0.0057 -0.5723 -1.0924
18468TIP3    H276820   6.671   1.428  14.167  0.0528  0.4779 -2.0611
18469TIP3   OH276821   4.062   6.654   4.311  0.1215  0.7407  0.2375
18469TIP3    H176822   3.988   6.597   4.330  0.1383  0.3773 -0.7128
18469TIP3    H276823   4.042   6.736   4.355 -1.8871  1.3932 -1.7258
18470TIP3   OH276824   5.833   6.240  17.296 -0.2041  0.4338 -0.0228
18470TIP3    H176825   5.835   6.145  17.282  0.9660  0.1079  1.9566
18470TIP3    H276826   5.771   6.273  17.232 -1.7240 -1.8499  0.1875
18471TIP3   OH276827   5.645   2.499  14.706 -0.4706  0.4302  0.1143
18471TIP3    H176828   5.707   2.426  14.718 -2.8519 -1.5862  0.9985
18471TIP3    H276829   5.598   2.478  14.626 -1.8128  0.4392  0.8606
18472TIP3   OH276830   5.358   0.909  12.209 -0.8956  0.7873  0.1074
18472TIP3    H176831   5.372   0.917  12.115 -0.5916 -0.1945  0.0555
18472TIP3    H276832   5.279   0.856  12.217  0.0046 -0.5772  0.3769
18473TIP3   OH276833   5.502   0.300   5.582 -0.6501 -0.3054 -0.5562
18473TIP3    H176834   5.595   0.307   5.562 -0.4560  1.9122  0.8197
18473TIP3    H276835   5.498   0.303   5.678 -2.1962  0.7723 -0.6319
18474TIP3   OH276836   4.034   0.708   3.407  0.0465 -0.9946  0.3956
18474TIP3    H176837   4.079   0.693   3.324 -1.4203 -0.7541 -0.4765
18474TIP3    H276838   4.092   0.768   3.455  1.5128 -2.1398  0.1005
18475TIP3   OH276839   5.866   2.732   4.566  0.8078 -0.1693  0.2083
18475TIP3    H176840   5.782   2.689   4.547  1.2656 -0.4706 -1.3056
18475TIP3    H276841   5.849   2.825   4.554  0.7376 -0.2496 -0.3527
18476TIP3   OH276842   3.415   4.730   2.311  0.3916  0.0204 -0.2097
18476TIP3    H176843   3.332   4.700   2.348  0.5821  1.6984  1.7551
18476TIP3    H276844   3.473   4.654   2.317 -0.3194 -0.4607  0.7147
18477TIP3   OH276845   4.415   3.662   0.339 -0.1086 -0.3625 -0.0700
18477TIP3    H176846   4.339   3.705   0.299  0.1289  0.3191  0.1812
18477TIP3    H276847   4.392   3.656   0.432  0.3228  0.2712  0.0858
18478TIP3   OH276848   1.747   2.907  17.381  0.0582  0.2538 -0.0715
18478TIP3    H176849   1.817   2.866  17.329  1.2340  0.8612  0.9918
18478TIP3    H276850   1.708   2.971  17.321 -0.9096 -1.4219 -1.3096
18479TIP3   OH276851   3.038   1.878   4.044  0.2928  0.3672 -0.2931
18479TIP3    H176852   3.101   1.837   3.985  0.2199 -1.2285  0.6653
18479TIP3    H276853   3.083   1.955   4.079  0.5987  0.9069 -1.8225
18480TIP3   OH276854   4.867   1.475  17.024 -0.0482  0.5879 -0.0546
18480TIP3    H176855   4.902   1.478  16.935 -0.2204  3.1464 -0.1358
18480TIP3    H276856   4.814   1.555  17.031 -2.7133 -1.1742  1.3207
18481TIP3   OH276857   5.644   4.271   5.408  0.1597 -0.3243 -0.3458
18481TIP3    H176858   5.611   4.306   5.491 -2.6291 -3.3668  0.0654
18481TIP3    H276859   5.715   4.212   5.433  0.5388  0.1460 -0.3168
18482TIP3   OH276860   0.842   0.658  16.785 -0.2168 -0.1630  0.3331
18482TIP3    H176861   0.792   0.628  16.709 -2.9638  1.5385  1.3236
18482TIP3    H276862   0.877   0.578  16.824  0.2792 -1.1712 -1.9934
18483TIP3   OH276863   5.921   1.876   2.680  0.2026  0.4674  0.8187
18483TIP3    H176864   5.837   1.891   2.723  0.4256  0.8574  1.1298
18483TIP3    H276865   5.966   1.961   2.684 -0.0420  0.7069 -0.7889
18484TIP3   OH276866   6.475   0.622   0.762  0.4708 -0.4751  0.7478
18484TIP3    H176867   6.556   0.625   0.712 -0.3294 -0.8138 -0.6271
18484TIP3    H276868   6.468   0.531   0.792  0.6382 -0.4245  0.9410
18485TIP3   OH276869   2.365   1.575   1.581 -0.3503 -0.2741  0.2630
18485TIP3    H176870   2.327   1.491   1.554  0.2105 -0.1373 -1.0194
18485TIP3    H276871   2.422   1.600   1.508 -1.0179  1.5433  0.3061
18486TIP3   OH276872   6.004   1.451  13.189 -0.2386 -0.0250 -0.4672
18486TIP3    H176873   6.027   1.430  13.280 -0.6840 -1.1424 -0.5942
18486TIP3    H276874   6.058   1.527  13.168 -2.3157  2.2654  1.7150
18487TIP3   OH276875   0.932   3.955  13.809  0.0569  0.2807 -0.0110
18487TIP3    H176876   0.966   3.968  13.720  0.0257  0.5836  0.0220
18487TIP3    H276877   0.898   4.041  13.834 -1.7136 -0.2488 -0.4570
18488TIP3   OH276878   1.984   4.363  11.329  0.1493 -0.0612  0.5069
18488TIP3    H176879   2.002   4.274  11.359 -1.9134 -0.7828 -0.2416
18488TIP3    H276880   2.066   4.392  11.289  0.5677 -2.0110 -0.1360
18489TIP3   OH276881   5.848   6.349  16.124  0.2018 -0.5155 -0.1710
18489TIP3    H176882   5.876   6.335  16.034 -0.3465 -1.3530 -0.2237
18489TIP3    H276883   5.773   6.408  16.117  0.4982 -0.1316 -0.2063
18490TIP3   OH276884   5.802   3.268  16.449 -0.7243  0.0698  0.4003
18490TIP3    H176885   5.839   3.269  16.361 -0.1241  0.3385  0.6538
18490TIP3    H276886   5.873   3.236  16.504  0.7713  4.8049  1.6278
18491TIP3   OH276887   5.482   3.507   0.083 -0.1729 -0.2273  0.7861
18491TIP3    H176888   5.577   3.520   0.081 -0.1237 -0.6452 -0.1617
18491TIP3    H276889   5.467   3.432   0.025 -1.0997 -0.0770  0.8222
18492TIP3   OH276890   4.297   3.990   0.911 -0.3917 -0.2240 -0.2528
18492TIP3    H176891   4.258   3.905   0.932 -0.5455 -0.4744 -1.5105
18492TIP3    H276892   4.224   4.051   0.913 -0.0416  0.2670  2.3931
18493TIP3   OH276893   6.669   3.172   0.364 -0.1559  0.4398  0.5274
18493TIP3    H176894   6.656   3.103   0.429  1.4253 -0.1416  0.2557
18493TIP3    H276895   6.745   3.222   0.396 -0.6774  1.4726  0.2172
18494TIP3   OH276896   1.577   2.879   0.089 -0.1763 -0.1382  0.0738
18494TIP3    H176897   1.637   2.875   0.015 -0.7841 -2.2608 -0.3573
18494TIP3    H276898   1.595   2.964   0.129  0.6056  0.8097 -2.1138
18495TIP3   OH276899   5.289   2.290   0.138  0.5532  0.4168 -0.2566
18495TIP3    H176900   5.348   2.220   0.167 -1.1166 -0.2743  1.6758
18495TIP3    H276901   5.266   2.337   0.218 -0.4667  1.5242 -1.1626
18496TIP3   OH276902   2.078   3.814  13.479  0.2154  0.8243  0.1704
18496TIP3    H176903   2.111   3.835  13.566  2.7395  0.5638 -0.6327
18496TIP3    H276904   1.986   3.792  13.492  0.8176 -0.4761  2.9593
18497TIP3   OH276905   6.667   6.166   5.049  0.7060 -0.5654  0.6691
18497TIP3    H176906   6.631   6.198   4.966  0.4368 -2.3611  0.0549
18497TIP3    H276907   6.630   6.225   5.115  2.1048  1.8508 -0.5532
18498TIP3   OH276908   3.452   2.831  15.564 -0.0974 -0.2918  0.2319
18498TIP3    H176909   3.373   2.785  15.536  0.4823 -0.8344 -0.5502
18498TIP3    H276910   3.425   2.877  15.644 -1.3631  0.0204 -0.3361
18499TIP3   OH276911   3.662   4.190   2.836 -0.0830 -0.4641  0.6441
18499TIP3    H176912   3.694   4.280   2.842  2.3806 -1.2397  0.3337
18499TIP3    H276913   3.596   4.183   2.905 -1.0852  1.8321  0.0015
18500TIP3   OH276914   2.675   4.548  16.991  0.0411  1.1365 -0.2851
18500TIP3    H176915   2.655   4.627  16.940  0.6944  2.8933  2.0076
18500TIP3    H276916   2.591   4.503  16.999 -1.3032  3.6762  1.5804
18501TIP3   OH276917   6.204   0.413  11.857  0.0956 -0.3538  0.0526
18501TIP3    H176918   6.270   0.437  11.921  1.1813  1.1295 -1.5486
18501TIP3    H276919   6.122   0.409  11.907  0.1928  4.3281  1.0563
18502TIP3   OH276920   1.600   6.168  17.001  0.2312  0.0817 -0.0476
18502TIP3    H176921   1.652   6.089  16.986  2.0476  0.5708  2.8247
18502TIP3    H276922   1.541   6.144  17.073  0.9562  1.3169  1.0103
18503TIP3   OH276923   2.653   2.454   0.107  0.6244 -0.1373 -0.3020
18503TIP3    H176924   2.718   2.524   0.107  0.3164  0.2305 -2.6847
18503TIP3    H276925   2.701   2.376   0.080  0.3709 -0.1780 -0.6435
18504TIP3   OH276926   1.031   4.503   4.650  0.0921 -0.7395 -0.3391
18504TIP3    H176927   1.016   4.440   4.579  0.6008  0.6266 -1.7130
18504TIP3    H276928   1.043   4.587   4.606 -0.3412  0.3126  1.4239
18505TIP3   OH276929   3.853   5.116  13.255  0.1477  0.2808  0.1064
18505TIP3    H176930   3.804   5.179  13.307  1.4469  0.1228  1.5957
18505TIP3    H276931   3.826   5.031  13.288  1.2794  0.1894  0.8336
18506TIP3   OH276932   6.205   5.688  14.526  0.5698 -0.8055  0.4747
18506TIP3    H176933   6.119   5.726  14.504  1.6123  1.8282  0.5011
18506TIP3    H276934   6.239   5.658  14.442  0.1097 -0.7546  0.2643
18507TIP3   OH276935   1.879   0.746   2.466 -0.2664 -0.1893  0.3804
18507TIP3    H176936   1.951   0.804   2.491 -0.7338  0.9522 -0.8141
18507TIP3    H276937   1.820   0.801   2.413 -2.1910 -0.9878  1.5696
18508TIP3   OH276938   0.623   5.661  11.463 -0.7042 -0.3989  0.5205
18508TIP3    H176939   0.563   5.714  11.412 -0.8076  2.2942  3.1541
18508TIP3    H276940   0.701   5.653  11.409 -0.2573  3.5155  0.3160
18509TIP3   OH276941   5.089   4.535   4.590 -0.1336 -0.5131 -0.4107
18509TIP3    H176942   5.031   4.559   4.518  0.5692 -0.1204 -0.8621
18509TIP3    H276943   5.157   4.602   4.589  1.2592 -1.8679 -0.9750
18510TIP3   OH276944   5.622   5.185  15.545  0.0354  0.1629  0.4197
18510TIP3    H176945   5.633   5.268  15.592  1.6602 -0.3448  1.0358
18510TIP3    H276946   5.608   5.210  15.454 -0.9513  1.1281  0.8188
18511TIP3   OH276947   6.434   2.577   6.358  0.0266  0.2850  0.5097
18511TIP3    H176948   6.371   2.597   6.288 -2.2156 -0.6872  2.1218
18511TIP3    H276949   6.406   2.632   6.431  1.4024  0.2024  1.1176
18512TIP3   OH276950   1.803   1.379   5.436  0.0969  0.1810 -0.3491
18512TIP3    H176951   1.754   1.377   5.518  1.3215  2.1778  0.5137
18512TIP3    H276952   1.786   1.466   5.400  0.3557 -0.3111 -1.7558
18513TIP3   OH276953   3.843   5.692  15.729  0.2704 -0.1332  0.2880
18513TIP3    H176954   3.788   5.729  15.799  1.2291 -0.0394  1.0172
18513TIP3    H276955   3.870   5.768  15.678 -0.6672 -0.2310 -0.3832
18514TIP3   OH276956   0.499   3.580  15.334 -0.2064  0.7508 -0.5300
18514TIP3    H176957   0.522   3.498  15.378  0.2061  0.0465 -1.9913
18514TIP3    H276958   0.426   3.557  15.277 -1.0410  1.7568  0.0944
18515TIP3   OH276959   4.189   6.468   0.085  0.2491  0.0267  0.4732
18515TIP3    H176960   4.277   6.471   0.122  0.7158 -1.7723 -0.3888
18515TIP3    H276961   4.143   6.403   0.137 -0.1451 -0.0491  0.0370
18516TIP3   OH276962   0.991   3.356  13.626  0.8566  0.2464  0.2465
18516TIP3    H176963   0.926   3.362  13.696 -1.2044  0.9555 -1.6255
18516TIP3    H276964   1.040   3.438  13.633 -0.4136  1.0728 -0.1006
18517TIP3   OH276965   3.502   2.403   5.110 -0.5958  0.8875  0.1369
18517TIP3    H176966   3.466   2.373   5.027 -0.2516  1.1140 -0.1020
18517TIP3    H276967   3.430   2.447   5.154 -1.1581 -0.4354  0.5813
18518TIP3   OH276968   0.529   0.710  15.587  0.5561  0.1861  0.3873
18518TIP3    H176969   0.444   0.750  15.569 -0.9640 -1.8468  2.5542
18518TIP3    H276970   0.561   0.683  15.501 -1.9608 -0.8251 -0.3213
18519TIP3   OH276971   3.191   6.010  14.831  0.2275 -0.4486  0.2171
18519TIP3    H176972   3.204   6.105  14.824  0.4330 -0.3666  1.4618
18519TIP3    H276973   3.100   6.001  14.859 -0.6231 -0.7616 -2.3659
18520TIP3   OH276974   2.704   3.481   3.817 -0.2011  0.4287  0.5230
18520TIP3    H176975   2.675   3.409   3.761 -2.4751  0.4153  1.6142
18520TIP3    H276976   2.630   3.540   3.820  0.4711  1.2502  2.1993
18521TIP3   OH276977   1.178   0.179  15.454 -0.6485 -0.4684  0.2815
18521TIP3    H176978   1.196   0.252  15.513 -0.6856 -0.8712  0.8032
18521TIP3    H276979   1.166   0.103  15.512 -1.7976 -0.6620 -0.1711
18522TIP3   OH276980   2.307   1.069  13.858  0.0460 -0.1889 -0.0539
18522TIP3    H176981   2.241   1.132  13.890  1.9839  0.9072  2.0581
18522TIP3    H276982   2.282   0.986  13.898 -0.5692  0.0074 -0.0200
18523TIP3   OH276983   6.627   5.448  15.744  0.6338 -0.0761 -0.0037
18523TIP3    H176984   6.712   5.405  15.749  0.4985 -0.3143  0.2496
18523TIP3    H276985   6.611   5.479  15.834  0.5196  0.0984 -0.0829
18524TIP3   OH276986   4.428   0.381   2.721  0.1494 -0.3429 -0.1938
18524TIP3    H176987   4.363   0.400   2.788  0.6151  0.7121 -0.0321
18524TIP3    H276988   4.455   0.466   2.687  1.7366 -0.7066  0.0334
18525TIP3   OH276989   4.051   0.027   5.711 -0.4410  0.0408  0.7355
18525TIP3    H176990   4.113  -0.028   5.664 -0.0075  0.2957  1.0027
18525TIP3    H276991   4.097   0.054   5.790 -0.6822  0.7041  0.6587
18526TIP3   OH276992   3.981   2.777  12.285  0.0856  0.2153 -0.8857
18526TIP3    H176993   4.071   2.787  12.317  0.2722  0.9873 -1.6113
18526TIP3    H276994   3.990   2.768  12.190 -0.4601 -1.9188 -0.7868
18527TIP3   OH276995   1.293   5.536  17.347  0.0694  0.3070  0.1579
18527TIP3    H176996   1.268   5.620  17.386  0.3528  0.0227  0.9747
18527TIP3    H276997   1.240   5.471  17.393 -0.5727  0.0753 -0.8718
18528TIP3   OH276998   5.156   2.524   2.196  0.4356 -0.4840 -0.0822
18528TIP3    H176999   5.221   2.512   2.127 -0.5760 -0.0082 -1.1566
18528TIP3    H277000   5.120   2.436   2.209  2.2620 -1.0673  1.5896
18529TIP3   OH277001   5.736   4.171   6.012 -0.0521  0.4077 -0.6271
18529TIP3    H177002   5.652   4.185   5.967 -0.7937  0.4490  0.7125
18529TIP3    H277003   5.737   4.077   6.030  1.1726  0.0194 -2.4390
18530TIP3   OH277004   3.441   6.249   0.406 -0.2330 -0.2343 -0.0046
18530TIP3    H177005   3.506   6.179   0.405  1.0864  0.9515 -0.4493
18530TIP3    H277006   3.375   6.220   0.469  1.5506 -0.7443  1.7126
18531TIP3   OH277007   1.845   2.933  14.355 -0.4995 -0.6258 -0.0477
18531TIP3    H177008   1.761   2.979  14.356  0.5338  1.4680 -1.6636
18531TIP3    H277009   1.856   2.900  14.444 -1.9219  1.1660  0.8447
18532TIP3   OH277010   4.942   1.410  16.432  0.1348  0.1956  0.0987
18532TIP3    H177011   4.960   1.381  16.342  3.0364  1.6630  0.0958
18532TIP3    H277012   4.916   1.501  16.423  1.2428  0.5945  0.7719
18533TIP3   OH277013   0.605   4.340  15.819  0.0096  0.0498 -0.0173
18533TIP3    H177014   0.560   4.421  15.844  0.7295  0.6756 -0.7103
18533TIP3    H277015   0.567   4.273  15.876  0.0990  1.0508  1.2772
18534TIP3   OH277016   5.391   2.344   1.689  0.0026  0.0120 -0.1920
18534TIP3    H177017   5.311   2.302   1.720 -0.1101 -0.2498 -0.8243
18534TIP3    H277018   5.460   2.308   1.746 -0.1882 -0.5242 -0.2933
18535TIP3   OH277019   6.382   1.009   1.727 -0.5189  0.4256 -0.6949
18535TIP3    H177020   6.476   1.020   1.709 -0.6362  2.5553 -0.2820
18535TIP3    H277021   6.375   1.016   1.822 -0.9553 -1.2291 -0.5852
18536TIP3   OH277022   5.531   6.287  13.685  0.3222  0.0844  0.3764
18536TIP3    H177023   5.562   6.250  13.602  1.8449  1.8302  0.1042
18536TIP3    H277024   5.467   6.223  13.717  1.2580 -1.6808 -1.0812
18537TIP3   OH277025   0.202   3.275  10.831  0.1602 -0.5285 -0.0299
18537TIP3    H177026   0.109   3.261  10.811  0.3727 -1.4927 -0.3476
18537TIP3    H277027   0.223   3.357  10.786 -1.1090  0.9730  1.9389
18538TIP3   OH277028   3.590   2.431  10.991  0.6250  0.3153  0.0998
18538TIP3    H177029   3.675   2.466  11.019  0.3156 -0.1124  1.6997
18538TIP3    H277030   3.543   2.506  10.955  0.4942  1.3141  2.1949
18539TIP3   OH277031   3.584   2.394   3.014  0.2123  0.4611 -0.1477
18539TIP3    H177032   3.595   2.306   2.977 -0.6963 -0.0923  0.8449
18539TIP3    H277033   3.672   2.420   3.043  0.2602 -0.7243  0.8481
18540TIP3   OH277034   3.409   2.281  13.913  0.7272  0.3398  0.1374
18540TIP3    H177035   3.370   2.212  13.967  1.4619 -0.6297 -0.5530
18540TIP3    H277036   3.503   2.264  13.917  0.8801  1.0294 -0.4149
18541TIP3   OH277037   4.324   5.346   3.182  0.1412 -0.1909  0.3734
18541TIP3    H177038   4.322   5.438   3.209  0.2638 -0.3369  0.8826
18541TIP3    H277039   4.249   5.306   3.226 -0.2678 -0.2135 -0.3174
18542TIP3   OH277040   5.222   1.595  15.297  0.5084 -0.0577 -0.6900
18542TIP3    H177041   5.128   1.584  15.311  0.3018  0.3449 -1.6567
18542TIP3    H277042   5.260   1.511  15.322  0.3760  0.8516  3.2437
18543TIP3   OH277043   6.538   6.080   6.587  0.0983  0.0082  0.4250
18543TIP3    H177044   6.633   6.064   6.591  0.2178 -0.1846 -1.6879
18543TIP3    H277045   6.504   6.003   6.541 -0.5043  1.7283 -2.2584
18544TIP3   OH277046   3.495   5.380   0.266  0.1096 -0.1224  0.4396
18544TIP3    H177047   3.447   5.406   0.345 -2.0548  1.0095 -1.1165
18544TIP3    H277048   3.587   5.396   0.287 -0.6518  4.9937  1.2060
18545TIP3   OH277049   1.921   1.580  11.868 -0.0424 -0.3687  0.2769
18545TIP3    H177050   1.953   1.523  11.798 -1.1661  0.2845 -0.8141
18545TIP3    H277051   1.831   1.600  11.843  0.8581  3.5152 -0.5293
18546TIP3   OH277052   5.408   0.077  16.894 -0.5608  0.1929  0.0817
18546TIP3    H177053   5.492   0.049  16.930 -0.6919  0.7921  0.8752
18546TIP3    H277054   5.353  -0.001  16.897  0.0260 -0.2620 -0.6501
18547TIP3   OH277055   1.346   2.214   4.019 -0.3247 -0.5699 -0.1107
18547TIP3    H177056   1.304   2.297   4.042 -0.3486 -0.2396 -1.2683
18547TIP3    H277057   1.300   2.148   4.071 -0.7988  0.0570  0.2746
18548TIP3   OH277058   5.286   5.137  17.037  0.2818 -0.2527  0.2947
18548TIP3    H177059   5.236   5.120  16.957 -0.5694 -1.5265  1.0640
18548TIP3    H277060   5.357   5.073  17.036  2.0981  1.6342 -0.8590
18549TIP3   OH277061   0.573   0.466  16.723 -0.5042 -0.8853  0.5938
18549TIP3    H177062   0.595   0.469  16.630  1.2060  0.9230  0.9972
18549TIP3    H277063   0.606   0.381  16.752 -1.6132 -1.7489 -0.5186
18550TIP3   OH277064   0.036   6.430   3.681  0.0172 -0.0682 -0.1766
18550TIP3    H177065  -0.027   6.364   3.709  0.8847 -1.0727 -0.5574
18550TIP3    H277066   0.119   6.403   3.721 -0.0525  2.0771  1.6202
18551TIP3   OH277067   5.291   1.892  14.875  0.0351  0.4897  0.5604
18551TIP3    H177068   5.266   1.968  14.927  0.3479  1.4467 -0.6511
18551TIP3    H277069   5.377   1.867  14.909  1.0226  2.1570 -0.5377
18552TIP3   OH277070   1.949   5.599  15.336 -0.7068 -0.1437  0.1025
18552TIP3    H177071   1.864   5.637  15.358  0.4207  0.9414  3.0456
18552TIP3    H277072   1.998   5.670  15.295 -0.5592 -0.1572  0.2527
18553TIP3   OH277073   3.758   4.867   5.548  0.1689 -0.0856  0.6507
18553TIP3    H177074   3.766   4.907   5.461 -0.0589 -0.7740  0.3043
18553TIP3    H277075   3.843   4.882   5.589 -0.5232  2.5057  1.3159
18554TIP3   OH277076   4.261   4.686   1.789 -0.3846 -0.8738  0.3423
18554TIP3    H177077   4.197   4.741   1.836  0.6487 -0.2814  1.0891
18554TIP3    H277078   4.329   4.669   1.853 -0.6556 -3.0542  0.1253
18555TIP3   OH277079   3.171   3.128   3.900 -0.1094 -0.0844  0.6640
18555TIP3    H177080   3.199   3.037   3.911 -0.3915 -0.0530  1.8700
18555TIP3    H277081   3.217   3.176   3.970 -0.1052  0.6660  0.1573
18556TIP3   OH277082   1.638   1.453   3.224  0.5454 -0.4598 -0.2417
18556TIP3    H177083   1.671   1.375   3.269 -1.5894 -0.7570  0.9174
18556TIP3    H277084   1.547   1.460   3.251  0.5041  2.1164 -0.8105
18557TIP3   OH277085   5.377   4.654  16.405  0.4230 -0.5359 -0.2383
18557TIP3    H177086   5.325   4.713  16.459  1.0879  0.1890 -0.3629
18557TIP3    H277087   5.447   4.623  16.464 -1.0081 -2.7881  0.4141
18558TIP3   OH277088   5.053   6.076  15.124 -0.0347 -0.3234  0.3024
18558TIP3    H177089   5.147   6.076  15.106  0.0201 -2.6361  0.2182
18558TIP3    H277090   5.014   6.113  15.046  0.7010 -2.1459 -1.0110
18559TIP3   OH277091   2.725   4.051  13.017  0.2361  0.4560 -0.6879
18559TIP3    H177092   2.773   4.114  12.963 -0.1144  0.9831 -0.3886
18559TIP3    H277093   2.699   3.982  12.956  0.1266  0.8848 -1.1286
18560TIP3   OH277094   2.600   1.531   4.852  0.1645 -0.1574  0.3190
18560TIP3    H177095   2.582   1.618   4.817  1.3939 -0.2943 -0.6948
18560TIP3    H277096   2.694   1.531   4.870 -0.1489 -0.6273  2.1827
18561TIP3   OH277097   6.430   2.606  16.846  0.1650 -0.1842  0.2015
18561TIP3    H177098   6.495   2.634  16.911 -0.4490  0.9099  0.3615
18561TIP3    H277099   6.358   2.668  16.855  0.2234  0.2470 -1.7902
18562TIP3   OH277100   5.782   3.087   4.127  0.4206 -0.1389 -0.1380
18562TIP3    H177101   5.874   3.105   4.105  0.1374  0.7907 -0.5894
18562TIP3    H277102   5.765   3.000   4.090  1.4452 -0.8439  0.9673
18563TIP3   OH277103   0.474   2.003  15.311 -0.0230  0.3252  0.1022
18563TIP3    H177104   0.558   2.048  15.297 -0.7493  1.5482 -0.4799
18563TIP3    H277105   0.478   1.927  15.253 -0.5116  2.0365 -2.3357
18564TIP3   OH277106   6.643   5.407  17.133 -0.5284  0.9583 -0.3742
18564TIP3    H177107   6.559   5.362  17.139  0.0429  0.0067  2.6631
18564TIP3    H277108   6.621   5.500  17.132 -1.6773  0.7475  1.1820
18565TIP3   OH277109   0.171   1.661   4.638 -0.1955 -0.3108 -0.3327
18565TIP3    H177110   0.227   1.598   4.593 -1.4709 -0.0424 -2.4076
18565TIP3    H277111   0.114   1.608   4.694 -1.1417 -1.0477 -1.9320
18566TIP3   OH277112   1.287   5.094   1.964  0.5341  0.2162 -0.4693
18566TIP3    H177113   1.247   5.135   1.887  1.7382  0.2266 -1.1191
18566TIP3    H277114   1.342   5.024   1.927  2.5533  1.3655  0.1916
18567TIP3   OH277115   2.007   5.146  13.463 -0.0034  0.3541 -0.1582
18567TIP3    H177116   1.964   5.188  13.538  1.5059 -1.1338  1.6574
18567TIP3    H277117   1.947   5.160  13.390 -3.0721 -0.6778  1.9519
18568TIP3   OH277118   5.938   1.164  16.074 -0.3509 -0.6113  0.1026
18568TIP3    H177119   6.010   1.108  16.102 -2.2221 -3.2209  0.0210
18568TIP3    H277120   5.935   1.234  16.139  1.7684 -0.8042  0.4821
18569TIP3   OH277121   1.862   4.889   4.467  0.6583 -0.0902 -0.0530
18569TIP3    H177122   1.839   4.940   4.389  1.5636  2.2209  1.1205
18569TIP3    H277123   1.883   4.802   4.432  0.3383  0.6590 -2.3012
18570TIP3   OH277124   1.434   2.661   1.274 -0.8478 -0.3415 -0.1521
18570TIP3    H177125   1.398   2.640   1.188  0.4915  2.0386 -1.4163
18570TIP3    H277126   1.404   2.750   1.291  0.4138 -0.1041  0.9715
18571TIP3   OH277127   5.500   3.583   0.335 -0.2127 -1.3406  0.8135
18571TIP3    H177128   5.473   3.560   0.246  1.3215 -0.4616  0.0561
18571TIP3    H277129   5.499   3.679   0.336 -0.4082 -1.3431  1.8218
18572TIP3   OH277130   0.423   2.842  15.522  0.1193 -0.1659  0.3092
18572TIP3    H177131   0.389   2.753  15.528  1.9725 -0.9133  0.6552
18572TIP3    H277132   0.445   2.854  15.430  1.7286 -0.8520  0.5756
18573TIP3   OH277133   1.562   1.728  14.887 -0.3195 -0.1707 -0.0517
18573TIP3    H177134   1.477   1.728  14.844 -0.8250 -0.3539  0.9314
18573TIP3    H277135   1.570   1.640  14.924 -0.4402  0.3533  1.2752
18574TIP3   OH277136   0.549   5.499  15.009  0.3872  0.2840 -0.2343
18574TIP3    H177137   0.496   5.454  15.074  1.1420 -0.4356 -0.0973
18574TIP3    H277138   0.574   5.581  15.050 -0.1721  0.3800 -0.0922
18575TIP3   OH277139   5.133   4.491  13.425 -0.3114  0.0446 -0.2074
18575TIP3    H177140   5.190   4.546  13.480  1.0015 -0.3301 -1.1597
18575TIP3    H277141   5.142   4.403  13.461  0.7804 -0.2564 -1.1559
18576TIP3   OH277142   6.514   3.700   3.875 -0.2407 -0.5746  0.2080
18576TIP3    H177143   6.458   3.769   3.840  0.6075  1.1974  2.2002
18576TIP3    H277144   6.453   3.638   3.915 -0.9350 -0.3327 -0.4491
18577TIP3   OH277145   0.610   1.251  11.676 -0.1500  0.1275  0.2144
18577TIP3    H177146   0.647   1.163  11.690  1.8363  0.6633 -1.2233
18577TIP3    H277147   0.529   1.235  11.629 -0.4945 -0.9861  1.1351
18578TIP3   OH277148   0.493   1.656  15.458  0.2420  0.5512  0.1261
18578TIP3    H177149   0.413   1.603  15.464  0.5502 -0.3450 -2.4182
18578TIP3    H277150   0.564   1.595  15.479  0.3463  1.5252  3.1486
18579TIP3   OH277151   3.640   0.558   2.173  0.1693  0.4533 -0.1278
18579TIP3    H177152   3.569   0.579   2.234  0.1780 -1.5534  0.6718
18579TIP3    H277153   3.707   0.625   2.189 -0.2538  0.5602  1.3688
18580TIP3   OH277154   1.469   1.313  12.899 -0.0905  0.1063 -0.2128
18580TIP3    H177155   1.413   1.383  12.933  0.5826  1.2480 -1.3658
18580TIP3    H277156   1.460   1.241  12.962 -3.3667 -0.0294 -0.6723
18581TIP3   OH277157   2.562   1.186   5.719 -0.0263  0.4152 -0.1671
18581TIP3    H177158   2.619   1.175   5.642  1.2338  0.3893  0.7311
18581TIP3    H277159   2.511   1.264   5.700  0.1822  0.3425 -1.0860
18582TIP3   OH277160   5.607   2.001  13.966 -0.4723 -0.2274 -0.2290
18582TIP3    H177161   5.572   1.938  13.903 -0.5341 -0.1652 -0.2569
18582TIP3    H277162   5.702   1.995  13.955 -0.4456 -0.8259  0.2707
18583TIP3   OH277163   1.436   1.703  15.178  0.1624  0.8383  0.2217
18583TIP3    H177164   1.459   1.611  15.166  1.0671  0.7643  2.1429
18583TIP3    H277165   1.346   1.709  15.144 -0.3740 -1.0489  1.1322
18584TIP3   OH277166   6.499   5.375   1.888 -0.2414  0.3590 -0.1034
18584TIP3    H177167   6.434   5.337   1.828 -0.0786  1.2214 -0.8373
18584TIP3    H277168   6.451   5.388   1.969 -0.8484  0.4796 -0.4708
18585TIP3   OH277169   5.313   4.611  14.769  0.2335  0.7707 -0.1704
18585TIP3    H177170   5.228   4.622  14.812  0.9009  2.2090  0.8744
18585TIP3    H277171   5.311   4.674  14.696 -0.9756 -1.7931 -2.5570
18586TIP3   OH277172   1.019   2.025   4.659  0.3504  0.2544 -0.3472
18586TIP3    H177173   0.975   1.940   4.671  2.3947 -0.7682  0.3029
18586TIP3    H277174   1.034   2.032   4.565  1.7800 -1.0017 -0.2478
18587TIP3   OH277175   3.546   5.308   1.967  0.2563  0.2511 -0.3451
18587TIP3    H177176   3.490   5.273   1.897 -0.4222  1.0873 -0.2394
18587TIP3    H277177   3.615   5.242   1.978 -0.4786 -0.6079 -0.7593
18588TIP3   OH277178   5.223   3.706   0.112 -0.4454  0.1571 -0.3531
18588TIP3    H177179   5.310   3.719   0.152 -0.0046 -0.1299 -1.1910
18588TIP3    H277180   5.184   3.794   0.112 -1.9323 -0.2482  3.8488
18589TIP3   OH277181   6.096   3.047  17.391  0.4500  0.4789  0.2020
18589TIP3    H177182   6.126   3.036  17.481 -0.1703 -0.8391  0.2828
18589TIP3    H277183   6.118   3.137  17.369 -0.3903  1.1775  2.0434
18590TIP3   OH277184   6.467   0.606  15.930 -0.2626  0.2247 -0.7017
18590TIP3    H177185   6.509   0.690  15.949 -0.5873  0.2968 -0.2665
18590TIP3    H277186   6.420   0.620  15.848 -0.1985  0.4231 -0.7052
18591TIP3   OH277187   6.577   4.870   4.251 -0.4672 -0.2851  0.1816
18591TIP3    H177188   6.510   4.825   4.200 -1.6005  2.2636 -0.7476
18591TIP3    H277189   6.545   4.865   4.342  0.4618 -2.9486  0.4537
18592TIP3   OH277190   2.067   5.737  17.017 -0.6479  0.2738 -0.0118
18592TIP3    H177191   2.150   5.742  16.970 -1.1871 -1.9377 -1.3403
18592TIP3    H277192   2.001   5.761  16.952 -1.2666 -1.0987  0.0752
18593TIP3   OH277193   1.876   0.631   0.782 -0.5456  0.2591  0.7010
18593TIP3    H177194   1.908   0.585   0.859 -0.6360  1.3276  1.3898
18593TIP3    H277195   1.820   0.567   0.737  1.6794 -1.3076  0.0130
18594TIP3   OH277196   3.213   6.199  12.477  0.0460  0.4016 -0.1418
18594TIP3    H177197   3.195   6.292  12.462 -0.3354  0.3537  0.0027
18594TIP3    H277198   3.219   6.161  12.390 -0.5251  0.4275 -0.1949
18595TIP3   OH277199   2.459   5.054  17.248 -0.3012 -0.0129  0.0492
18595TIP3    H177200   2.442   5.131  17.302 -1.4133 -0.1957 -0.0114
18595TIP3    H277201   2.529   5.007  17.294  0.0148  0.7535  0.3664
18596TIP3   OH277202   3.334   2.675  14.983  0.3540 -0.1217 -1.1735
18596TIP3    H177203   3.260   2.716  14.939 -0.8824 -0.7806  0.1971
18596TIP3    H277204   3.311   2.582  14.986 -0.1703  0.0168  1.7342
18597TIP3   OH277205   1.070   1.974  15.225 -0.0082 -0.1229  0.3710
18597TIP3    H177206   1.073   1.963  15.130  0.0605 -0.8536  0.4553
18597TIP3    H277207   1.114   2.058  15.241 -1.1918  0.6637 -0.3433
18598TIP3   OH277208   1.810   5.964  17.273 -0.1837  0.2467 -0.0437
18598TIP3    H177209   1.802   5.976  17.179 -0.9591  2.6111  0.2685
18598TIP3    H277210   1.720   5.959  17.305  0.0294 -2.6429  0.4296
18599TIP3   OH277211   3.559   4.809   0.198  0.6097 -0.1297 -0.2618
18599TIP3    H177212   3.566   4.722   0.158  1.3127  0.3600 -1.2357
18599TIP3    H277213   3.574   4.793   0.291 -0.1002 -1.1610 -0.3071
18600TIP3   OH277214   6.470   0.357  11.467 -0.4150  0.0416  0.2916
18600TIP3    H177215   6.387   0.379  11.509 -0.0105  0.6632  0.7901
18600TIP3    H277216   6.531   0.341  11.540  1.2980  4.7195  0.2604
18601TIP3   OH277217   5.947   1.985   0.054  0.6068  0.2592  0.0923
18601TIP3    H177218   6.038   1.959   0.042  0.1209 -0.4306 -2.8828
18601TIP3    H277219   5.950   2.081   0.058  1.4226  0.2591 -0.4137
18602TIP3   OH277220   4.668   3.394  15.990 -0.3665  0.2181  0.0147
18602TIP3    H177221   4.642   3.461  15.926  0.4435  0.6021  0.0727
18602TIP3    H277222   4.702   3.443  16.064 -1.0989 -0.2367  0.6649
18603TIP3   OH277223   1.443   4.023   3.132 -0.2464  0.2626  0.2436
18603TIP3    H177224   1.426   4.097   3.191  0.9658  1.0673 -0.3612
18603TIP3    H277225   1.535   4.034   3.107 -0.6569 -0.1901 -1.5893
18604TIP3   OH277226   4.142   6.271  17.373 -0.6400  0.4225 -0.0259
18604TIP3    H177227   4.048   6.257  17.383 -0.4235 -0.7456  0.5717
18604TIP3    H277228   4.159   6.354  17.418 -1.6736  1.6922 -1.8648
18605TIP3   OH277229   5.453   0.129  12.472  0.4406 -0.2782  0.0670
18605TIP3    H177230   5.497   0.157  12.391  0.6143 -2.2967 -0.5895
18605TIP3    H277231   5.445   0.209  12.524  1.6938  0.7916 -1.3059
18606TIP3   OH277232   1.353   4.259  15.128 -0.5860 -0.1899 -0.2942
18606TIP3    H177233   1.362   4.342  15.174 -0.8272 -0.2128 -0.2028
18606TIP3    H277234   1.260   4.237  15.135 -0.6167 -0.2207 -0.7484
18607TIP3   OH277235   4.293   0.268  16.698 -0.5244 -0.1696 -0.0744
18607TIP3    H177236   4.285   0.334  16.630 -1.1507  1.2592  1.3417
18607TIP3    H277237   4.387   0.249  16.702 -0.1524  1.5902  0.3456
18608TIP3   OH277238   5.293   2.975   2.328 -0.0397  0.0222 -0.0151
18608TIP3    H177239   5.243   3.036   2.383  2.4004  0.0928  2.3671
18608TIP3    H277240   5.282   2.890   2.370  0.8113 -0.1744 -0.1752
18609TIP3   OH277241   5.005   6.346  13.309  0.1589  0.2099  0.1336
18609TIP3    H177242   5.058   6.365  13.232 -0.7166 -0.7428 -0.7483
18609TIP3    H277243   4.934   6.410  13.306 -1.5377 -1.6115 -1.5791
18610TIP3   OH277244   3.755   2.337  14.205  0.2055  0.2297 -0.2373
18610TIP3    H177245   3.726   2.426  14.182 -1.2257  0.1760  1.1714
18610TIP3    H277246   3.681   2.281  14.182  0.3517 -0.3345  0.6195
18611TIP3   OH277247   4.292   2.278   5.775  0.5643  0.0466 -0.4837
18611TIP3    H177248   4.282   2.190   5.810 -2.1753  0.1882 -0.7248
18611TIP3    H277249   4.203   2.308   5.757  1.3979  2.8517 -0.4996
18612TIP3   OH277250   0.447   0.141  11.517 -0.3527 -0.8012 -0.0361
18612TIP3    H177251   0.461   0.171  11.607  1.1475 -1.0945 -0.1485
18612TIP3    H277252   0.497   0.059  11.511 -1.4057 -1.4042 -0.7974
18613TIP3   OH277253   2.997   6.456   2.553  0.2893 -0.4037 -0.3288
18613TIP3    H177254   3.065   6.501   2.603  0.2152 -0.8166  0.1561
18613TIP3    H277255   2.916   6.475   2.601  0.1534 -0.4194 -0.5541
18614TIP3   OH277256   3.729   5.028   0.129 -0.4181  0.2269 -0.9806
18614TIP3    H177257   3.674   4.951   0.143 -0.5183  0.6436  1.5034
18614TIP3    H277258   3.787   5.030   0.206 -0.6651  2.7921 -0.7655
18615TIP3   OH277259   2.477   4.248   4.297  0.4410 -0.2276 -0.2724
18615TIP3    H177260   2.427   4.297   4.231  0.1974  2.9945  2.0613
18615TIP3    H277261   2.561   4.292   4.300  1.3274 -1.8675 -0.0237
18616TIP3   OH277262   0.564   2.001   5.167 -0.1953 -0.0368 -0.1959
18616TIP3    H177263   0.574   2.065   5.097 -0.1203  0.3046  0.1218
18616TIP3    H277264   0.471   2.004   5.190 -0.0499  0.5295  0.3476
18617TIP3   OH277265   3.844   3.702   1.712 -0.4413  1.1939  0.1154
18617TIP3    H177266   3.883   3.637   1.769 -1.2510 -0.2592 -0.9003
18617TIP3    H277267   3.836   3.658   1.627 -0.0255  2.9888 -0.9153
18618TIP3   OH277268   1.217   5.768  15.577  0.0685  0.2504 -0.0791
18618TIP3    H177269   1.222   5.811  15.492  0.4716 -1.9487 -1.2555
18618TIP3    H277270   1.129   5.730  15.580 -0.0008  0.4504  0.5566
18619TIP3   OH277271   5.814   4.051   1.988 -0.1019  0.2431  0.1836
18619TIP3    H177272   5.881   4.111   2.021  0.9508 -1.1655  0.6630
18619TIP3    H277273   5.817   4.062   1.893  1.2555 -0.2363  0.1524
18620TIP3   OH277274   4.311   4.788  16.415  0.4412 -0.4579  0.0725
18620TIP3    H177275   4.397   4.801  16.456  1.7227 -1.9810 -1.9513
18620TIP3    H277276   4.280   4.705  16.452 -0.1114  0.0062  0.6720
18621TIP3   OH277277   2.259   4.479   0.004 -0.4790  0.3264  0.5179
18621TIP3    H177278   2.241   4.566  -0.030 -0.9433 -0.2117 -0.6530
18621TIP3    H277279   2.338   4.451  -0.041 -2.4961 -1.4352 -2.2665
18622TIP3   OH277280   1.626   6.130  15.128 -0.0324 -0.3261 -0.4394
18622TIP3    H177281   1.628   6.133  15.033 -0.1421  0.3518 -0.4220
18622TIP3    H277282   1.579   6.209  15.154 -2.2384 -1.7086  0.0926
18623TIP3   OH277283   2.441   4.809  15.023  0.5140  0.3349  0.0607
18623TIP3    H177284   2.441   4.881  15.086  0.7587  1.1285 -0.8254
18623TIP3    H277285   2.355   4.814  14.981  0.8573  0.6703 -0.6172
18624TIP3   OH277286   4.603   3.032   3.073  0.2019  0.2464 -0.4596
18624TIP3    H177287   4.666   2.961   3.063  0.0651  0.1353 -0.5348
18624TIP3    H277288   4.518   2.988   3.084  0.3979  0.2900  1.8930
18625TIP3   OH277289   5.357   5.375   1.187 -0.1523 -0.2542  0.1723
18625TIP3    H177290   5.293   5.369   1.257  0.8348  0.7271  1.1956
18625TIP3    H277291   5.344   5.295   1.135  0.4629 -2.0847  2.6447
18626TIP3   OH277292   3.855   1.373  15.278  0.2113 -0.0775 -0.2907
18626TIP3    H177293   3.939   1.394  15.236  0.1808  0.6676  0.0043
18626TIP3    H277294   3.878   1.344  15.366  0.1762 -0.2076 -0.3228
18627TIP3   OH277295   5.288   5.592  15.157  0.2983  0.0007 -0.5783
18627TIP3    H177296   5.376   5.629  15.148  1.0514 -1.2850  0.8966
18627TIP3    H277297   5.257   5.623  15.242 -0.4246 -0.0418 -0.8220
18628TIP3   OH277298   3.624   4.311   4.868  0.6303  0.3202 -0.2189
18628TIP3    H177299   3.581   4.377   4.814  0.9057  0.2205 -0.5675
18628TIP3    H277300   3.585   4.321   4.955  1.1783  1.4472 -0.0733
18629TIP3   OH277301   4.418   0.385  15.647  0.1842  0.5123 -0.1191
18629TIP3    H177302   4.483   0.438  15.694 -0.0271  0.7865 -0.1366
18629TIP3    H277303   4.347   0.445  15.628  1.2390  1.0663 -2.8716
18630TIP3   OH277304   3.282   5.919   3.052 -0.1864  0.2180 -0.2830
18630TIP3    H177305   3.235   5.991   3.094 -0.3020  0.2579 -0.4791
18630TIP3    H277306   3.374   5.939   3.066 -0.2312 -0.0857  0.4813
18631TIP3   OH277307   4.529   4.070   4.037  0.5074  0.2594  0.4590
18631TIP3    H177308   4.497   4.136   4.099 -0.3040 -0.5174  0.8893
18631TIP3    H277309   4.453   4.015   4.019  1.7338 -2.1743  2.1371
18632TIP3   OH277310   1.170   3.314  13.040 -0.3544 -0.4935  0.3850
18632TIP3    H177311   1.187   3.311  12.945  0.8513  1.3560  0.4893
18632TIP3    H277312   1.104   3.382  13.050 -1.1439 -1.3012  0.8319
18633TIP3   OH277313   3.934   5.095  11.091  0.4032  0.0231  0.5473
18633TIP3    H177314   3.891   5.022  11.136  1.4742 -0.1857  1.2546
18633TIP3    H277315   3.904   5.087  11.000  1.8677 -2.4121  0.1707
18634TIP3   OH277316   1.371   3.804  11.350 -0.2344 -0.0628 -0.2235
18634TIP3    H177317   1.403   3.769  11.267 -1.3138 -0.8142 -0.3340
18634TIP3    H277318   1.344   3.727  11.400 -2.0601  0.5349 -0.2232
18635TIP3   OH277319   3.197   0.777  11.369  0.8133 -0.2708 -0.0811
18635TIP3    H177320   3.213   0.807  11.280  0.2903  1.0007  0.2325
18635TIP3    H277321   3.135   0.840  11.405  1.9542 -0.0320  1.5926
18636TIP3   OH277322   6.740   6.179  13.481 -0.0212  0.0741  0.2131
18636TIP3    H177323   6.691   6.153  13.558  1.1165 -1.0294  0.5899
18636TIP3    H277324   6.819   6.125  13.482  0.6794  1.0013 -0.9797
18637TIP3   OH277325   4.363   0.656  11.847  0.0469  0.3614  0.2918
18637TIP3    H177326   4.363   0.564  11.873 -0.7326  0.5079  0.8347
18637TIP3    H277327   4.453   0.672  11.817  0.2806 -0.4855  0.5028
18638TIP3   OH277328   2.985   3.605  17.076  0.3717 -0.1528  0.4340
18638TIP3    H177329   2.910   3.546  17.071 -0.0929  0.4612 -0.0540
18638TIP3    H277330   2.990   3.630  17.168  0.4933 -0.8492  0.6178
18639TIP3   OH277331   0.486   5.818  13.162  0.5971 -0.4358  0.0868
18639TIP3    H177332   0.499   5.790  13.071 -1.4023  0.0576 -0.3978
18639TIP3    H277333   0.532   5.753  13.214  1.5771 -0.8668 -1.2647
18640TIP3   OH277334   0.883   0.406  11.951 -0.0522  0.2975  0.4087
18640TIP3    H177335   0.863   0.326  11.904 -0.3083  0.6708 -0.1272
18640TIP3    H277336   0.898   0.378  12.041  0.5948 -0.4402  0.0829
18641TIP3   OH277337   0.604   6.624  15.926 -0.1254  0.9276 -0.1191
18641TIP3    H177338   0.685   6.578  15.946 -1.2456 -1.7975 -1.3189
18641TIP3    H277339   0.547   6.607  16.001 -0.9080 -0.6681 -1.0289
18642TIP3   OH277340   2.526   3.957  15.222 -0.2759 -0.3131  0.2100
18642TIP3    H177341   2.537   3.862  15.214 -0.1568 -0.1917 -1.4048
18642TIP3    H277342   2.446   3.976  15.174  0.0312  0.4723 -0.0022
18643TIP3   OH277343   2.400   2.638   5.740 -0.0365 -0.4751 -0.1728
18643TIP3    H177344   2.371   2.720   5.780 -1.3733 -0.9534 -0.1068
18643TIP3    H277345   2.490   2.655   5.714 -0.6936  1.5226 -1.4609
18644TIP3   OH277346   2.942   3.285   5.908  0.1330  0.2933 -0.2390
18644TIP3    H177347   2.967   3.323   5.824  1.3322  0.9222  0.3700
18644TIP3    H277348   2.869   3.340   5.938 -0.2936  0.0710 -0.8524
18645TIP3   OH277349   4.683   2.839  12.106  0.6354 -0.0290  0.5857
18645TIP3    H177350   4.624   2.897  12.154  0.1502 -0.1247  0.1179
18645TIP3    H277351   4.626   2.792  12.045  1.3585  0.8305 -0.8145
18646TIP3   OH277352   0.777   2.893   4.174  0.0942  0.0796 -0.2911
18646TIP3    H177353   0.751   2.814   4.125 -1.3985  0.7943 -0.7067
18646TIP3    H277354   0.702   2.952   4.166  0.6691  1.0527  1.1055
18647TIP3   OH277355   3.800   1.211  12.607 -0.6456  0.2681  0.0934
18647TIP3    H177356   3.867   1.233  12.672 -0.6787  1.3295 -0.2013
18647TIP3    H277357   3.806   1.116  12.597  1.8606  0.4504 -0.9959
18648TIP3   OH277358   1.707   5.389  13.071  0.3786 -0.5424  0.2378
18648TIP3    H177359   1.620   5.394  13.111 -0.2600  2.2422 -1.2489
18648TIP3    H277360   1.754   5.465  13.107  0.6239  0.5834 -2.2715
18649TIP3   OH277361   6.306   0.694   2.743  0.3467  0.0010 -0.3474
18649TIP3    H177362   6.279   0.611   2.703 -1.3446  0.0342  0.6077
18649TIP3    H277363   6.395   0.679   2.774  0.4923 -1.0612 -1.2362
18650TIP3   OH277364   2.189   4.765  17.429  0.1150 -0.0901 -0.0907
18650TIP3    H177365   2.199   4.789  17.337 -0.4525 -2.1252 -0.7354
18650TIP3    H277366   2.117   4.820  17.460  0.2113  0.5131 -0.8918
18651TIP3   OH277367   2.445   6.186  16.439 -0.9140  0.3204  0.1007
18651TIP3    H177368   2.506   6.127  16.484 -0.8424  0.9495  0.8636
18651TIP3    H277369   2.486   6.273  16.446  0.2790  0.1569 -3.2912
18652TIP3   OH277370   4.204   3.150   4.919  0.2333 -0.2153  0.2855
18652TIP3    H177371   4.215   3.056   4.909  1.9936 -0.4692  3.2415
18652TIP3    H277372   4.110   3.164   4.920 -0.0434 -1.8376 -0.8720
18653TIP3   OH277373   1.881   2.967   0.150  0.1614  0.4030 -0.3328
18653TIP3    H177374   1.872   2.890   0.094 -0.7008  0.5380 -0.3912
18653TIP3    H277375   1.852   3.040   0.095  4.1158  1.3505 -1.4895
18654TIP3   OH277376   1.716   4.834   2.144  0.2705  0.3128  0.0422
18654TIP3    H177377   1.743   4.850   2.234  0.2604 -0.3981  0.1827
18654TIP3    H277378   1.695   4.740   2.142 -1.2506  0.6327 -0.3130
18655TIP3   OH277379   2.875   0.662  11.746  0.6520  0.1020 -0.3909
18655TIP3    H177380   2.826   0.643  11.665  0.1588  0.7387 -0.2481
18655TIP3    H277381   2.898   0.575  11.780 -0.8777 -0.2503 -0.1711
18656TIP3   OH277382   1.402   6.475  14.353  0.4811 -0.0194  0.3247
18656TIP3    H177383   1.396   6.382  14.373 -0.2532 -0.4902 -1.7842
18656TIP3    H277384   1.495   6.490  14.336  0.6896 -0.2117  1.2231
18657TIP3   OH277385   0.219   3.681  17.152  0.1525 -0.1011 -0.1859
18657TIP3    H177386   0.134   3.720  17.171  0.5104  0.3060  0.6925
18657TIP3    H277387   0.246   3.641  17.235  1.4013  0.9429 -0.0448
18658TIP3   OH277388   0.387   4.293  16.448  0.1383  0.3665  0.0027
18658TIP3    H177389   0.348   4.351  16.382 -1.0727  0.7648  1.0297
18658TIP3    H277390   0.417   4.217  16.398 -0.6366  0.7118 -1.0370
18659TIP3   OH277391   1.211   1.346   4.400  0.3771  0.1287  0.2455
18659TIP3    H177392   1.201   1.284   4.327 -0.6255  1.0006 -0.4003
18659TIP3    H277393   1.204   1.292   4.478 -1.2124 -0.5224 -0.2908
18660TIP3   OH277394   0.099   3.597   0.289 -0.0494  0.4233  0.1735
18660TIP3    H177395   0.104   3.691   0.271  2.6574  0.3268  0.0415
18660TIP3    H277396   0.108   3.590   0.384  2.7600  0.2412 -0.0390
18661TIP3   OH277397   3.962   6.007  13.578 -0.1645 -0.4464 -0.1584
18661TIP3    H177398   3.873   5.997  13.611  0.5105 -2.2047  1.3328
18661TIP3    H277399   3.961   6.090  13.530 -3.1651 -1.4923 -2.2026
18662TIP3   OH277400   6.658   1.415   4.992 -0.7425 -0.3278 -0.1147
18662TIP3    H177401   6.740   1.427   4.944 -1.3075  0.7433 -0.8551
18662TIP3    H277402   6.590   1.419   4.925 -1.3908 -1.8775  0.4029
18663TIP3   OH277403   2.128   0.932  11.704  0.1779  0.1397  0.3836
18663TIP3    H177404   2.072   0.959  11.630  0.9386  0.5802 -0.0453
18663TIP3    H277405   2.072   0.874  11.756 -0.8258  0.9122  0.2048
18664TIP3   OH277406   1.026   0.349   5.566  0.1276 -0.0091 -0.2352
18664TIP3    H177407   1.099   0.359   5.505 -0.1439 -0.7394 -0.6854
18664TIP3    H277408   1.055   0.282   5.627  1.8729  3.0616  2.6875
18665TIP3   OH277409   1.160   2.743   3.311 -0.1195  0.1595 -0.0658
18665TIP3    H177410   1.180   2.650   3.305 -1.0235 -0.3739  3.2065
18665TIP3    H277411   1.069   2.750   3.281  0.0615  0.0783 -0.6496
18666TIP3   OH277412   1.622   3.945   3.778  0.0652 -0.2264 -0.0231
18666TIP3    H177413   1.653   3.924   3.866  0.2682  0.0588 -0.0219
18666TIP3    H277414   1.644   4.038   3.767 -0.3744 -0.1415 -0.2028
18667TIP3   OH277415   1.558   3.061   3.817  0.0467  0.1326 -0.5286
18667TIP3    H177416   1.574   3.112   3.896  0.4551  0.6231 -0.9233
18667TIP3    H277417   1.469   3.086   3.790  0.6856  1.5697 -1.3959
18668TIP3   OH277418   1.295   4.765  12.520  0.3796 -0.4227  0.0697
18668TIP3    H177419   1.360   4.695  12.525  0.5917 -0.3156 -1.0466
18668TIP3    H277420   1.309   4.805  12.435 -0.5314  0.2197  0.2086
18669TIP3   OH277421   5.617   2.380   0.496  0.8053 -0.0620 -0.0078
18669TIP3    H177422   5.634   2.300   0.447  1.0319 -0.8192  1.2365
18669TIP3    H277423   5.634   2.355   0.587  0.0384  1.1757  0.4930
18670TIP3   OH277424   1.238   6.018   5.538 -0.1499  0.2771  0.3706
18670TIP3    H177425   1.212   6.075   5.466 -0.4362 -0.7278 -0.3421
18670TIP3    H277426   1.327   6.045   5.559  0.1823  0.1577 -0.7977
18671TIP3   OH277427   6.695   2.319   5.044 -0.7878  0.4787  0.5372
18671TIP3    H177428   6.609   2.317   5.000 -1.0844 -0.2924  1.1216
18671TIP3    H277429   6.675   2.306   5.136 -0.0107 -0.1067  0.6313
18672TIP3   OH277430   4.114   2.107  11.622  0.0343  0.3081 -0.3471
18672TIP3    H177431   4.052   2.034  11.615 -0.7883  0.9962 -0.4323
18672TIP3    H277432   4.154   2.113  11.535  0.5563 -0.4282 -0.1592
18673TIP3   OH277433   1.216   0.718  10.545  0.5500  0.0565 -0.2817
18673TIP3    H177434   1.205   0.755  10.457  1.3958 -2.3147 -1.4810
18673TIP3    H277435   1.258   0.788  10.595 -0.4145  1.6527 -1.5766
18674TIP3   OH277436   5.594   5.411   5.624 -0.8262 -0.3794  0.5973
18674TIP3    H177437   5.551   5.492   5.654  0.0120  0.5957 -0.6898
18674TIP3    H277438   5.683   5.438   5.603 -0.9394 -1.3103 -1.2537
18675TIP3   OH277439   0.620   2.626   0.962 -0.2625  0.5331 -0.2398
18675TIP3    H177440   0.666   2.606   0.880 -0.0831  2.0832 -0.5602
18675TIP3    H277441   0.531   2.597   0.948 -0.0357  0.0453 -0.6845
18676TIP3   OH277442   5.503   2.144  15.624 -0.5429 -0.9088  0.1881
18676TIP3    H177443   5.581   2.197  15.606 -0.0606 -1.2522  1.2268
18676TIP3    H277444   5.503   2.077  15.555  0.2230 -1.0556  0.3199
18677TIP3   OH277445   0.373   2.457   3.760  0.4712  0.3348  0.0460
18677TIP3    H177446   0.409   2.489   3.677 -0.9842  1.0118 -0.3549
18677TIP3    H277447   0.285   2.427   3.738  0.9573 -1.8801  0.8653
18678TIP3   OH277448   0.278   6.411  10.843  0.3571 -0.0062 -0.5490
18678TIP3    H177449   0.253   6.340  10.902  1.8088  0.9147  1.2798
18678TIP3    H277450   0.218   6.403  10.770  0.7932 -3.4635 -0.7229
18679TIP3   OH277451   6.544   1.615  13.917 -0.1886 -0.4308  0.4816
18679TIP3    H177452   6.515   1.535  13.874 -1.9034  0.4672 -0.1269
18679TIP3    H277453   6.566   1.588  14.006  0.8433 -1.8335 -0.1476
18680TIP3   OH277454   2.761   3.092  15.768 -0.0425  0.1015  0.2422
18680TIP3    H177455   2.836   3.052  15.811 -1.7247 -2.8448  0.7277
18680TIP3    H277456   2.800   3.155  15.707  3.0067 -2.4653 -0.8089
18681TIP3   OH277457   1.692   2.134   4.357 -0.4235 -0.3581 -0.1217
18681TIP3    H177458   1.711   2.042   4.340  0.4081 -0.1972 -0.1271
18681TIP3    H277459   1.738   2.153   4.439 -1.0196 -0.0754  0.1601
18682TIP3   OH277460   5.349   4.293   2.108 -0.4846  0.4307 -0.0708
18682TIP3    H177461   5.424   4.242   2.077  0.9239  1.8385  0.8427
18682TIP3    H277462   5.281   4.278   2.042  0.7258 -0.5682 -1.1618
18683TIP3   OH277463   6.181   1.257   6.044  0.1412 -0.4417 -0.8225
18683TIP3    H177464   6.249   1.210   6.092 -0.8043 -0.5954  0.4339
18683TIP3    H277465   6.190   1.348   6.074  0.3458 -0.2981 -1.3156
18684TIP3   OH277466   0.452   3.190   1.905  0.0640  0.7488  0.4340
18684TIP3    H177467   0.377   3.138   1.876  0.7434 -0.0233  0.0210
18684TIP3    H277468   0.417   3.278   1.918 -1.1496  0.1528  1.3391
18685TIP3   OH277469   2.059   2.107  13.668 -0.1880  0.3212 -0.0573
18685TIP3    H177470   2.124   2.164  13.709  1.0170  0.2604 -1.7479
18685TIP3    H277471   2.025   2.159  13.595  0.9471 -1.0567 -1.6426
18686TIP3   OH277472   3.919   0.815   4.022  0.3643  0.1593  0.0952
18686TIP3    H177473   3.973   0.796   4.098  3.1492  0.4617 -1.6897
18686TIP3    H277474   3.859   0.741   4.015  0.9750 -0.5189  1.7822
18687TIP3   OH277475   3.172   3.522  16.499  0.1358  0.8916  0.4089
18687TIP3    H177476   3.126   3.606  16.491 -1.7437 -0.0964  0.2900
18687TIP3    H277477   3.172   3.486  16.411  0.5020  0.5364  0.5509
18688TIP3   OH277478   0.167   5.615   4.575  0.1086  0.5098 -0.1347
18688TIP3    H177479   0.082   5.656   4.588  0.0647  0.5876 -0.6741
18688TIP3    H277480   0.148   5.536   4.525  0.4434  0.9237 -0.9269
18689TIP3   OH277481   4.910   3.724  11.873  0.0190 -0.2537 -0.6287
18689TIP3    H177482   4.964   3.648  11.893  1.1048  0.8297  0.8144
18689TIP3    H277483   4.833   3.714  11.929  1.5944  1.1672  2.0088
18690TIP3   OH277484   2.943   4.067   0.831  0.1374  0.0812 -0.4884
18690TIP3    H177485   2.899   4.115   0.761 -0.3281 -0.9025 -0.8930
18690TIP3    H277486   3.000   4.132   0.872 -1.9275  1.5038  0.2762
18691TIP3   OH277487   0.612   6.390   6.358  0.7405  0.4183 -0.2223
18691TIP3    H177488   0.595   6.321   6.422  0.7536  0.2898 -0.3571
18691TIP3    H277489   0.707   6.402   6.361  0.8007  0.0590 -0.5809
18692TIP3   OH277490   4.521   2.980  10.967 -0.9409  0.7008  0.2491
18692TIP3    H177491   4.436   3.015  10.938 -0.8980 -0.0364 -0.8256
18692TIP3    H277492   4.498   2.908  11.025 -1.0635  0.2027 -0.4097
18693TIP3   OH277493   0.436   3.642  10.890  0.2726  0.8208 -0.1866
18693TIP3    H177494   0.483   3.607  10.814  0.7650  0.9310  0.0568
18693TIP3    H277495   0.506   3.670  10.950 -0.1129  1.2903  0.0474
18694TIP3   OH277496   2.276   0.189  11.847  0.4585  0.2715  0.8481
18694TIP3    H177497   2.304   0.203  11.756  0.1428 -2.9392  0.1243
18694TIP3    H277498   2.349   0.141  11.887 -0.1938 -0.0515  1.6821
18695TIP3   OH277499   1.416   1.284   3.797  0.1945 -0.1207 -0.1890
18695TIP3    H177500   1.357   1.208   3.803 -0.4078  0.2674 -1.0908
18695TIP3    H277501   1.493   1.258   3.848 -0.3201 -1.0405  0.1477
18696TIP3   OH277502   5.014   3.886   0.130 -0.2974 -0.3445  0.0194
18696TIP3    H177503   4.973   3.815   0.081 -0.0553 -0.2127 -0.3716
18696TIP3    H277504   4.966   3.888   0.213 -1.6676  0.3433 -0.7464
18697TIP3   OH277505   1.420   1.308   4.704  0.2014 -0.6741 -0.3917
18697TIP3    H177506   1.373   1.382   4.741 -0.5200 -0.6527 -1.3113
18697TIP3    H277507   1.511   1.337   4.700  0.3003 -0.6763  1.3056
18698TIP3   OH277508   5.979   4.082   1.178 -0.2097  0.0736 -0.3026
18698TIP3    H177509   5.889   4.052   1.192  0.5143 -2.0018  0.3547
18698TIP3    H277510   6.012   4.026   1.107  0.6491  0.5991 -0.3355
18699TIP3   OH277511   1.345   3.280   0.394 -0.4347 -0.3068  0.1865
18699TIP3    H177512   1.383   3.262   0.480  1.0591  1.6591  0.0140
18699TIP3    H277513   1.394   3.225   0.333 -1.3737 -1.5678  0.5274
18700TIP3   OH277514   0.727   0.538   3.221  0.8164 -0.4698 -0.3370
18700TIP3    H177515   0.750   0.629   3.241  0.1263 -0.3297 -0.1686
18700TIP3    H277516   0.633   0.533   3.234  1.1572 -1.9135  2.4382
18701TIP3   OH277517   6.102   2.770   3.828 -1.2566  0.2564  0.2868
18701TIP3    H177518   6.093   2.818   3.745 -1.5930  0.0337  0.1952
18701TIP3    H277519   6.047   2.693   3.817 -1.0621  0.0710  0.6050
18702TIP3   OH277520   0.463   5.197  13.699  0.0397  0.3430  0.1367
18702TIP3    H177521   0.375   5.194  13.736 -0.8501 -1.3454 -1.8952
18702TIP3    H277522   0.521   5.208  13.774 -1.8427  0.5223  1.6225
18703TIP3   OH277523   1.830   4.925   0.520 -0.2805 -0.1209 -0.3102
18703TIP3    H177524   1.817   4.999   0.580 -0.5309 -0.1736 -0.2987
18703TIP3    H277525   1.753   4.869   0.534 -0.1094 -0.3676 -0.3419
18704TIP3   OH277526   5.123   2.664  16.119  0.0215 -0.2314 -0.1208
18704TIP3    H177527   5.186   2.607  16.163 -1.6595 -1.8384  0.3314
18704TIP3    H277528   5.126   2.637  16.027 -0.2347 -0.5336 -0.0400
18705TIP3   OH277529   6.707   4.985   6.692  0.3324  0.3188 -0.2472
18705TIP3    H177530   6.626   4.958   6.650  0.8465  0.0268 -1.0697
18705TIP3    H277531   6.714   5.079   6.673 -0.5263  0.6777  1.0579
18706TIP3   OH277532   3.254   1.280  10.994 -0.6905 -0.0645  0.9428
18706TIP3    H177533   3.223   1.321  10.914  1.2141 -0.1044  0.1485
18706TIP3    H277534   3.205   1.198  11.000  1.7587 -1.9571 -2.2792
18707TIP3   OH277535   4.827   0.748   4.490 -0.0479 -0.0833 -0.6747
18707TIP3    H177536   4.918   0.744   4.520 -0.6259  0.5386  1.3449
18707TIP3    H277537   4.794   0.658   4.502 -0.6667  0.4341  2.1184
18708TIP3   OH277538   6.174   2.789   0.309 -0.2875 -0.3606 -0.0996
18708TIP3    H177539   6.235   2.815   0.377  0.7460  2.1789 -1.8533
18708TIP3    H277540   6.211   2.708   0.273  0.4377 -0.4168  0.7550
18709TIP3   OH277541   4.491   6.298   2.375  0.2885 -0.4169  0.0104
18709TIP3    H177542   4.458   6.345   2.298  1.1605  1.1333  0.5496
18709TIP3    H277543   4.508   6.209   2.343  3.2697  0.8252 -2.3807
18710TIP3   OH277544   3.082   1.914  11.243  0.2508  0.2038  0.3033
18710TIP3    H177545   3.070   1.873  11.329 -1.2857  0.4954  0.2529
18710TIP3    H277546   3.177   1.919  11.232  0.5027  0.8041  2.3119
18711TIP3   OH277547   0.668   2.076  17.026  0.4204  0.0979 -0.3755
18711TIP3    H177548   0.597   2.064  17.089 -0.7425 -2.2479 -1.9734
18711TIP3    H277549   0.740   2.110  17.078 -2.0173  3.4758  1.1987
18712TIP3   OH277550   3.303   3.672   4.929  0.2479 -0.6529  0.0046
18712TIP3    H177551   3.260   3.592   4.957 -0.0507  0.0445  1.6779
18712TIP3    H277552   3.365   3.692   4.999  1.7056 -0.4198 -1.2872
18713TIP3   OH277553   5.905   4.340  13.718 -0.2973  0.1911 -0.5510
18713TIP3    H177554   5.857   4.262  13.690 -0.8312 -0.4934  1.9393
18713TIP3    H277555   5.894   4.341  13.813  0.9923  2.4831 -0.3577
18714TIP3   OH277556   3.898   3.029   5.607 -0.0394  0.1176  0.0719
18714TIP3    H177557   3.921   3.108   5.657  0.8754 -0.0348 -0.0902
18714TIP3    H277558   3.882   2.963   5.675 -1.0437  0.4935  0.2150
18715TIP3   OH277559   2.606   6.477  12.712  0.1085  0.2491  0.5532
18715TIP3    H177560   2.643   6.537  12.647 -1.4149 -0.7838 -1.3428
18715TIP3    H277561   2.561   6.534  12.774  0.5777  1.1940  0.0475
18716TIP3   OH277562   5.419   0.476  14.457  0.5004  0.0217  0.0005
18716TIP3    H177563   5.400   0.476  14.363  3.3704 -0.4790 -0.6840
18716TIP3    H277564   5.335   0.458  14.499 -1.2033  1.8673 -2.3522
18717TIP3   OH277565   4.232   2.818  12.383  0.0255 -0.3383 -0.2316
18717TIP3    H177566   4.262   2.773  12.462  0.3020  0.9177  0.4135
18717TIP3    H277567   4.273   2.770  12.311  1.9535  0.0645  0.5284
18718TIP3   OH277568   6.234   0.082  12.532  0.0775 -0.4290  0.2896
18718TIP3    H177569   6.231   0.014  12.599  0.5997 -1.5561 -0.7924
18718TIP3    H277570   6.295   0.048  12.466 -0.2474  0.7518 -0.6505
18719TIP3   OH277571   5.876   4.189  16.910 -0.2356 -0.1319 -0.1791
18719TIP3    H177572   5.830   4.176  16.827 -1.0415 -0.1162  0.2556
18719TIP3    H277573   5.826   4.139  16.974  0.0540  0.3041  0.4036
18720TIP3   OH277574   3.101   2.489  14.439  0.6120 -0.0368  0.1519
18720TIP3    H177575   3.087   2.417  14.379 -2.3249  0.0848  0.5548
18720TIP3    H277576   3.144   2.557  14.386  0.3154 -0.8287 -1.1343
18721TIP3   OH277577   4.931   4.710  10.636  1.2341 -0.9334 -0.3168
18721TIP3    H177578   5.024   4.705  10.611  1.3055  0.8520 -0.5059
18721TIP3    H277579   4.884   4.705  10.553  1.0456 -3.1610 -0.1393
18722TIP3   OH277580   4.748   4.316  15.934 -0.3691  0.1447  0.1454
18722TIP3    H177581   4.739   4.326  15.839 -0.9118 -1.4835 -0.0203
18722TIP3    H277582   4.658   4.315  15.967 -0.3473 -1.8511  0.3137
18723TIP3   OH277583   5.760   1.142   0.647  0.2654  0.1787 -0.2982
18723TIP3    H177584   5.853   1.158   0.631  0.3045 -1.7644 -2.6027
18723TIP3    H277585   5.715   1.203   0.589  0.1525  0.1576 -0.2321
18724TIP3   OH277586   0.438   0.918  17.365  0.0685  0.3081 -0.0457
18724TIP3    H177587   0.501   0.991  17.366  0.7331 -0.2055 -1.4869
18724TIP3    H277588   0.473   0.857  17.430  0.4188  0.5384 -0.0081
18725TIP3   OH277589   3.747   2.494  12.588 -0.9389  0.0615 -0.4408
18725TIP3    H177590   3.822   2.509  12.529 -0.9613  0.2063 -0.4341
18725TIP3    H277591   3.678   2.460  12.531 -1.6891  2.2166 -0.9380
18726TIP3   OH277592   3.944   4.196   0.065  0.1636 -0.4622  0.6651
18726TIP3    H177593   4.025   4.246   0.054 -1.4726  2.3326  0.4484
18726TIP3    H277594   3.929   4.155  -0.020 -0.1027  1.3795 -0.2109
18727TIP3   OH277595   1.419   5.212  17.052 -0.2893  0.0750 -0.0165
18727TIP3    H177596   1.475   5.154  16.999 -0.8346  0.3800 -0.9541
18727TIP3    H277597   1.440   5.300  17.022 -0.1306  0.3086  0.7589
18728TIP3   OH277598   0.097   2.993  12.487 -0.1723  0.3038  0.1951
18728TIP3    H177599   0.006   2.996  12.455 -0.2192  1.6586  0.3986
18728TIP3    H277600   0.089   2.965  12.578 -0.4350  0.8424  0.3437
18729TIP3   OH277601   2.411   0.453  16.164  0.1831  0.2051 -0.2555
18729TIP3    H177602   2.456   0.369  16.176  0.1891  0.1186 -0.8697
18729TIP3    H277603   2.446   0.508  16.234 -0.1747 -0.4490  0.4573
18730TIP3   OH277604   4.637   6.315  14.210  0.6764  0.8949 -0.3749
18730TIP3    H177605   4.615   6.287  14.122  0.5470  0.3400 -0.1658
18730TIP3    H277606   4.624   6.410  14.209  2.6602  1.2021 -1.5476
18731TIP3   OH277607   2.933   6.079   6.011  0.1562 -0.2066 -0.9525
18731TIP3    H177608   2.843   6.072   6.045  0.2879 -0.1178 -0.5857
18731TIP3    H277609   2.989   6.069   6.088  0.4314  1.7408 -0.8506
18732TIP3   OH277610   5.735   2.982  14.615 -0.4537  0.6418  0.1448
18732TIP3    H177611   5.701   3.032  14.541  0.3022 -0.0003 -0.6737
18732TIP3    H277612   5.721   2.890  14.590 -3.4447  0.3676  2.3956
18733TIP3   OH277613   2.085   2.124  15.989  0.2361 -0.0894  0.0348
18733TIP3    H177614   2.119   2.176  15.916  0.5181  0.8878  0.8370
18733TIP3    H277615   2.163   2.083  16.027  0.0377 -0.9456 -0.4681
18734TIP3   OH277616   1.610   3.316  12.730 -0.1654 -0.2728 -0.2672
18734TIP3    H177617   1.567   3.231  12.739 -2.7879  0.9340 -0.8071
18734TIP3    H277618   1.650   3.331  12.816  0.6366 -2.1247 -0.2491
18735TIP3   OH277619   5.474   5.955   1.288  0.4198 -0.0201 -0.0062
18735TIP3    H177620   5.438   6.030   1.241  1.5486  0.2694 -0.4496
18735TIP3    H277621   5.398   5.905   1.316 -0.3265  0.8611 -0.4174
18736TIP3   OH277622   2.010   0.666   3.353 -0.1125 -0.1462 -0.0228
18736TIP3    H177623   1.960   0.622   3.422 -2.3822 -1.0823 -2.1004
18736TIP3    H277624   1.950   0.733   3.319  0.0723 -1.0782 -2.3783
18737TIP3   OH277625   0.713   2.348  16.223 -0.4790  0.1746  0.0864
18737TIP3    H177626   0.730   2.393  16.306  0.3655 -0.4133  0.2514
18737TIP3    H277627   0.750   2.405  16.156 -3.1854  1.7813 -0.1546
18738TIP3   OH277628   4.319   1.464   1.865 -0.3387 -0.2295  0.5636
18738TIP3    H177629   4.361   1.455   1.779  0.0686  1.3583  0.5732
18738TIP3    H277630   4.288   1.376   1.886 -1.6142 -0.4185 -1.7918
18739TIP3   OH277631   6.561   6.607   6.885  0.5960 -0.2732 -0.0904
18739TIP3    H177632   6.651   6.633   6.864  1.2734 -1.8470  0.6894
18739TIP3    H277633   6.507   6.680   6.853  2.1949  1.0918  0.1521
18740TIP3   OH277634   4.836   0.342  12.302 -0.2653  0.5465 -0.0428
18740TIP3    H177635   4.789   0.258  12.302 -0.5149  0.6813 -0.7239
18740TIP3    H277636   4.822   0.377  12.390  0.1565 -0.2964  0.3826
18741TIP3   OH277637   2.686   1.120  14.547 -0.3398 -0.6346  0.3222
18741TIP3    H177638   2.640   1.202  14.564 -1.6491 -1.0268 -1.1327
18741TIP3    H277639   2.694   1.115  14.452  2.9606 -0.5164  0.4611
18742TIP3   OH277640   6.662   6.304  17.072 -0.0556 -0.0380  0.1930
18742TIP3    H177641   6.709   6.365  17.015 -1.6427  1.0594 -0.0190
18742TIP3    H277642   6.595   6.265  17.015  0.1808 -1.1077  0.6262
18743TIP3   OH277643   5.740   3.670   3.147  0.5042 -0.6497  0.0493
18743TIP3    H177644   5.700   3.713   3.072 -0.1826 -0.7088  0.3666
18743TIP3    H277645   5.831   3.656   3.122  0.9867  1.7551  0.2571
18744TIP3   OH277646   4.974   6.691   3.175 -0.1745  0.2888 -0.2886
18744TIP3    H177647   4.912   6.765   3.175  0.7431  1.0857  0.2560
18744TIP3    H277648   4.940   6.632   3.108 -1.3490  0.8523 -0.2253
18745TIP3   OH277649   0.035   0.834   4.079 -0.1778 -0.2151 -0.1278
18745TIP3    H177650   0.110   0.796   4.034 -1.2586  0.1684 -2.4062
18745TIP3    H277651  -0.036   0.771   4.067 -0.3130 -0.5435  1.9235
18746TIP3   OH277652   6.251   3.131   4.517  0.0809  0.6246  0.0714
18746TIP3    H177653   6.337   3.090   4.526 -0.7895 -1.1709  0.7296
18746TIP3    H277654   6.252   3.168   4.428  0.5541 -1.9279 -1.0963
18747TIP3   OH277655   1.466   4.520  13.586 -0.2462  0.9673 -0.2629
18747TIP3    H177656   1.422   4.582  13.526 -0.7351 -0.0754 -1.0225
18747TIP3    H277657   1.556   4.515  13.553 -0.4924  0.4588 -0.8828
18748TIP3   OH277658   0.941   0.781  13.208  0.3691  0.1224  0.1053
18748TIP3    H177659   0.861   0.807  13.253 -1.2336 -1.1912 -1.7970
18748TIP3    H277660   0.954   0.690  13.232  2.5096  0.8351  1.9701
18749TIP3   OH277661   4.379   6.488   6.253  0.2838 -0.2600  0.4046
18749TIP3    H177662   4.352   6.568   6.207  2.8762 -0.1767 -1.1620
18749TIP3    H277663   4.323   6.485   6.330 -1.7099  1.6262 -0.8494
18750TIP3   OH277664   3.464   1.727   3.729 -0.0436  0.6796 -0.8300
18750TIP3    H177665   3.442   1.675   3.651 -0.1841  0.8835 -0.9275
18750TIP3    H277666   3.560   1.726   3.731 -0.0430  0.5347 -0.9130
18751TIP3   OH277667   0.926   4.300  12.824 -0.6191 -0.2875  0.5405
18751TIP3    H177668   1.015   4.273  12.800 -0.4020  1.3952 -0.6797
18751TIP3    H277669   0.873   4.278  12.747 -0.9774  0.0831  0.6810
18752TIP3   OH277670   0.125   5.033   1.728 -0.0844  0.3050 -0.5750
18752TIP3    H177671   0.101   5.122   1.754  0.3628 -0.4642  2.9908
18752TIP3    H277672   0.221   5.036   1.720 -0.0294  0.0692 -0.0332
18753TIP3   OH277673   5.616   4.092  14.475 -0.0959 -0.0100  0.0866
18753TIP3    H177674   5.565   4.110  14.554  0.9826  0.1801  0.7515
18753TIP3    H277675   5.677   4.023  14.499 -1.3683 -1.7104 -1.2906
18754TIP3   OH277676   0.135   3.915   0.232  0.2009 -0.6854 -0.0476
18754TIP3    H177677   0.133   3.955   0.319 -0.3964  0.3631 -0.5251
18754TIP3    H277678   0.220   3.941   0.195  0.8559 -1.9065  0.5604
18755TIP3   OH277679   1.208   2.396   0.709 -0.5179  0.6518 -0.1026
18755TIP3    H177680   1.188   2.393   0.615 -0.5698  0.2572 -0.0802
18755TIP3    H277681   1.127   2.426   0.749 -0.8903 -0.3828 -0.0683
18756TIP3   OH277682   6.447   0.535   3.783 -0.1923  0.2578 -0.1779
18756TIP3    H177683   6.397   0.453   3.789 -2.9191  1.6210 -2.1446
18756TIP3    H277684   6.491   0.542   3.868 -1.9541 -1.9456  1.0345
18757TIP3   OH277685   5.357   1.118   0.670 -0.0975 -0.2736 -1.1020
18757TIP3    H177686   5.355   1.212   0.652 -1.0643 -0.0254  0.2125
18757TIP3    H277687   5.276   1.084   0.632 -0.2237 -0.4135 -0.7084
18758TIP3   OH277688   4.429   5.525   1.231  0.0496 -0.1650 -0.8257
18758TIP3    H177689   4.514   5.485   1.248  0.7647  0.5420 -2.5224
18758TIP3    H277690   4.445   5.585   1.158 -1.9532 -0.2079 -1.3539
18759TIP3   OH277691   6.630   3.943   5.522 -0.6915  0.5549 -0.1783
18759TIP3    H177692   6.704   3.918   5.578  2.3463  1.2043 -3.5192
18759TIP3    H277693   6.568   3.870   5.530  0.7172 -0.5092  2.0216
18760TIP3   OH277694   6.367   3.118  13.986 -0.6972 -0.1667 -0.5179
18760TIP3    H177695   6.370   3.196  14.041  0.7251 -0.3460 -0.3145
18760TIP3    H277696   6.281   3.079  14.006 -0.3054 -0.1331  1.4739
18761TIP3   OH277697   0.322   0.953   1.310  0.4343 -0.2561  0.4310
18761TIP3    H177698   0.246   0.895   1.313  0.7271 -0.6810 -0.2959
18761TIP3    H277699   0.306   1.017   1.380 -1.2671  0.4968 -0.5835
18762TIP3   OH277700   2.375   3.051   6.082  0.1701  0.1253 -0.2398
18762TIP3    H177701   2.386   3.126   6.141 -0.5332  0.2183 -0.2212
18762TIP3    H277702   2.376   2.975   6.140 -2.2544  0.3039  0.1520
18763TIP3   OH277703   2.739   0.623  15.193  0.0397  0.4893 -0.2188
18763TIP3    H177704   2.722   0.566  15.118 -0.1531  0.7546 -0.3742
18763TIP3    H277705   2.665   0.608  15.252 -1.7316  2.9513 -1.6584
18764TIP3   OH277706   6.532   6.353  15.175 -0.6783 -0.2167 -0.0871
18764TIP3    H177707   6.456   6.298  15.191  0.5151 -1.8269  0.2839
18764TIP3    H277708   6.607   6.295  15.187  0.6166  1.2608 -0.6466
18765TIP3   OH277709   3.396   1.219  13.354  0.2504 -0.0044  0.0752
18765TIP3    H177710   3.432   1.133  13.374 -0.9799 -0.0084  2.8083
18765TIP3    H277711   3.336   1.204  13.282  2.2296 -0.8167 -1.4912
18766TIP3   OH277712   1.894   2.849  13.036  0.4848  0.2922 -0.4048
18766TIP3    H177713   1.891   2.799  12.954  1.5347 -1.1679  0.4125
18766TIP3    H277714   1.817   2.906  13.031 -0.0624 -0.5075 -1.9305
18767TIP3   OH277715   4.928   4.263   5.648 -0.4002  0.5519 -0.2100
18767TIP3    H177716   4.912   4.252   5.742 -1.0142  0.3816 -0.3288
18767TIP3    H277717   4.942   4.174   5.616  1.1455  0.7041 -0.0679
18768TIP3   OH277718   6.120   4.154  13.551 -0.1017  0.6282 -0.5174
18768TIP3    H177719   6.091   4.229  13.499 -0.8746  1.2428  0.7605
18768TIP3    H277720   6.039   4.109  13.575  0.2310  0.4037  0.2005
18769TIP3   OH277721   5.889   3.713  14.529 -0.0684  0.4659 -0.0501
18769TIP3    H177722   5.905   3.688  14.438  0.0929 -0.6601  0.2679
18769TIP3    H277723   5.933   3.645  14.581 -2.0801 -0.2204  0.8632
18770TIP3   OH277724   0.256   4.600   3.270 -0.4812  0.0706 -0.1323
18770TIP3    H177725   0.322   4.533   3.253  0.2498  0.1085  2.1679
18770TIP3    H277726   0.307   4.678   3.295 -1.3762  0.3599  0.8452
18771TIP3   OH277727   1.516   4.539   5.283 -0.3178 -0.1547  0.1432
18771TIP3    H177728   1.467   4.614   5.317  0.3539 -0.0981  1.0602
18771TIP3    H277729   1.456   4.495   5.224 -1.1366  0.4372  0.5125
18772TIP3   OH277730   4.209   4.840   3.723  0.0740  0.3604  0.0077
18772TIP3    H177731   4.121   4.877   3.728 -1.0378 -1.8753 -1.2858
18772TIP3    H277732   4.257   4.898   3.664 -0.8321  1.0568 -0.0543
18773TIP3   OH277733   3.483   3.969  14.743  0.4499 -0.2038  0.1730
18773TIP3    H177734   3.564   3.984  14.695  0.6959  0.7394  0.8586
18773TIP3    H277735   3.428   3.921  14.682  0.0849  2.4622 -1.7780
18774TIP3   OH277736   3.328   6.556  15.202  0.3347  0.2895 -0.4732
18774TIP3    H177737   3.379   6.636  15.188  2.0081 -1.0155 -2.3339
18774TIP3    H277738   3.379   6.506  15.266 -0.9077  0.8269  0.9845
18775TIP3   OH277739   3.793   3.723   4.090 -0.3817 -0.4459 -0.1075
18775TIP3    H177740   3.884   3.694   4.097 -0.0839  0.1422 -1.2716
18775TIP3    H277741   3.745   3.644   4.063  0.8263  0.3460 -5.9279
18776TIP3   OH277742   2.673   0.518  10.925 -0.0271 -0.3203  0.3727
18776TIP3    H177743   2.719   0.559  10.851 -0.3334 -1.6751 -0.6021
18776TIP3    H277744   2.741   0.468  10.970  0.5616  1.8817  2.1290
18777TIP3   OH277745   2.703   5.446  11.718 -0.8256  0.5539 -0.3626
18777TIP3    H177746   2.762   5.370  11.715 -0.8581  0.5507 -1.1098
18777TIP3    H277747   2.757   5.519  11.688 -0.3419  1.1646  1.7569
18778TIP3   OH277748   5.601   0.094   1.738 -0.5222 -0.1435  0.1732
18778TIP3    H177749   5.548   0.136   1.805 -0.6380  0.7909 -0.4708
18778TIP3    H277750   5.539   0.074   1.667 -0.4762 -1.4859  0.4944
18779TIP3   OH277751   2.346   0.692   2.945 -0.3708 -0.0471  0.4593
18779TIP3    H177752   2.284   0.659   3.010 -0.8217 -0.7118 -0.2942
18779TIP3    H277753   2.337   0.787   2.949 -2.3712 -0.1480 -0.4902
18780TIP3   OH277754   6.596   5.378   3.589 -0.0135 -0.1641 -0.1334
18780TIP3    H177755   6.680   5.402   3.549 -0.7824  1.7378 -0.7434
18780TIP3    H277756   6.535   5.372   3.515 -0.6268 -0.5643  0.3921
18781TIP3   OH277757   0.540   2.534   0.070 -0.2294 -0.0411 -0.3031
18781TIP3    H177758   0.490   2.610   0.099 -0.1099 -0.1411  0.1845
18781TIP3    H277759   0.609   2.524   0.136 -0.0974 -0.4257 -0.4919
18782TIP3   OH277760   1.878   5.797  16.563  0.3171 -0.0228 -0.7672
18782TIP3    H177761   1.854   5.712  16.526  2.0122 -0.1202 -1.7472
18782TIP3    H277762   1.823   5.860  16.516  0.4327 -0.4164 -1.4499
18783TIP3   OH277763   2.429   5.437  15.687 -0.5075 -0.4018 -0.3038
18783TIP3    H177764   2.343   5.469  15.715  0.0149 -0.4960  1.5352
18783TIP3    H277765   2.410   5.368  15.623 -1.7628  0.1166 -0.5168
18784TIP3   OH277766   3.266   5.741  16.591 -0.0562 -0.0486 -0.1976
18784TIP3    H177767   3.229   5.696  16.667  1.9574 -2.9378 -0.7638
18784TIP3    H277768   3.217   5.708  16.516  0.2530  0.0933 -0.4653
18785TIP3   OH277769   0.120   1.409   4.812  0.5665 -0.2950  0.1128
18785TIP3    H177770   0.156   1.377   4.729  2.4591  0.5741  0.5571
18785TIP3    H277771   0.182   1.380   4.878  2.0724  3.5524  0.6263
18786TIP3   OH277772   0.570   0.765   0.064 -0.1277 -0.5446 -0.0226
18786TIP3    H177773   0.648   0.709   0.069  0.6528  0.6219  2.5400
18786TIP3    H277774   0.575   0.820   0.142 -2.3975  1.1034 -0.9281
18787TIP3   OH277775   0.256   6.210  11.610 -0.4013  0.3315 -0.0712
18787TIP3    H177776   0.230   6.301  11.593 -1.3818  0.4334  1.7060
18787TIP3    H277777   0.192   6.157  11.563 -0.2543  0.5498 -0.5272
18788TIP3   OH277778   5.506   3.177   4.221 -0.4464  0.0665  0.4194
18788TIP3    H177779   5.591   3.190   4.180 -0.6610  1.6182  0.4114
18788TIP3    H277780   5.455   3.128   4.157  0.2946 -0.5033  0.2529
18789TIP3   OH277781   1.210   5.115  16.215 -0.3923  0.2364  0.0693
18789TIP3    H177782   1.238   5.162  16.136  0.6669 -0.0148  0.2840
18789TIP3    H277783   1.114   5.117  16.211 -0.3537  0.9726 -0.7760
18790TIP3   OH277784   1.795   5.566   1.269 -0.9310 -0.4442  0.0751
18790TIP3    H177785   1.770   5.489   1.320 -2.5911  0.4783  0.7389
18790TIP3    H277786   1.875   5.539   1.223 -0.0669 -1.7181  2.1688
18791TIP3   OH277787   4.046   6.075  15.571  0.4779  0.4268 -0.3662
18791TIP3    H177788   4.103   6.091  15.646  0.0435  1.5208 -0.2522
18791TIP3    H277789   4.075   5.990  15.537  0.2162 -0.4223  1.4330
18792TIP3   OH277790   2.354   4.100  13.321 -0.2285 -0.0106  0.2280
18792TIP3    H177791   2.319   4.087  13.233  0.9125 -1.8126 -0.0017
18792TIP3    H277792   2.279   4.133  13.371 -1.4767 -0.9587 -0.9235
18793TIP3   OH277793   6.648   3.469  14.176  0.1779 -0.1425  0.4888
18793TIP3    H177794   6.739   3.496  14.162 -0.1294 -0.0183 -1.7593
18793TIP3    H277795   6.655   3.381  14.212  1.2495 -0.6574 -0.8292
18794TIP3   OH277796   0.387   6.674  15.344  0.3516 -0.7774 -0.1150
18794TIP3    H177797   0.417   6.763  15.328 -1.5318  0.3235  1.8250
18794TIP3    H277798   0.371   6.637  15.257  1.1524  0.7579 -0.9494
18795TIP3   OH277799   1.341   1.582   3.759  0.5260 -0.0536 -0.2004
18795TIP3    H177800   1.359   1.489   3.772 -0.6508 -0.6261 -2.2196
18795TIP3    H277801   1.261   1.583   3.706  0.5070  2.1251 -0.1966
18796TIP3   OH277802   3.936   4.543  13.573  0.2993  0.6575 -0.2659
18796TIP3    H177803   3.894   4.519  13.490  1.5494 -0.7442 -0.5238
18796TIP3    H277804   3.864   4.574  13.628 -1.1681 -1.9588 -0.5765
18797TIP3   OH277805   6.738   1.985  10.848  0.3775  0.4290  0.3423
18797TIP3    H177806   6.815   2.012  10.898  1.2976 -2.0969  0.4415
18797TIP3    H277807   6.774   1.932  10.776 -1.1808  0.7277 -0.7049
18798TIP3   OH277808   0.579   1.212   1.647 -0.2428 -0.8277  0.3636
18798TIP3    H177809   0.484   1.223   1.638 -0.3968 -0.9088  1.7188
18798TIP3    H277810   0.609   1.190   1.559 -1.3875 -0.1378 -0.2226
18799TIP3   OH277811   0.498   1.690   2.996 -0.8444 -0.2819 -0.5356
18799TIP3    H177812   0.407   1.705   2.968 -1.3484 -1.0304  0.6272
18799TIP3    H277813   0.517   1.600   2.968  0.3723  0.5906 -2.8223
18800TIP3   OH277814   4.656   2.609   4.673 -0.3752 -0.4091  0.0222
18800TIP3    H177815   4.713   2.567   4.608 -1.0507 -0.2917 -0.6680
18800TIP3    H277816   4.711   2.673   4.717  0.1355 -0.5974 -0.3410
18801TIP3   OH277817   6.545   5.124  12.236 -0.0790  0.1014 -0.7471
18801TIP3    H177818   6.587   5.174  12.307  0.4509 -0.3924 -0.7105
18801TIP3    H277819   6.478   5.072  12.280 -0.5463  0.6718 -0.7673
18802TIP3   OH277820   3.408   3.704  15.054 -0.2308 -0.2844 -0.4131
18802TIP3    H177821   3.403   3.799  15.041  2.8723  0.1064  0.5863
18802TIP3    H277822   3.341   3.669  14.995 -0.1588  2.4174 -2.2913
18803TIP3   OH277823   1.455   2.134  15.486  0.0276  0.2189  0.0088
18803TIP3    H177824   1.402   2.060  15.456 -0.2990  0.7010 -0.6115
18803TIP3    H277825   1.513   2.154  15.413 -0.9696  1.5848 -0.4505
18804TIP3   OH277826   5.323   4.830  11.603  0.3686 -0.1300  0.5284
18804TIP3    H177827   5.312   4.897  11.536  0.2505 -0.6634  0.0063
18804TIP3    H277828   5.399   4.780  11.575  1.5078  0.8156  1.8105
18805TIP3   OH277829   2.562   6.471   2.704  0.6909  0.3960  0.4411
18805TIP3    H177830   2.546   6.475   2.610  0.3340  2.7416  0.5451
18805TIP3    H277831   2.655   6.495   2.714  0.8547 -0.3128  0.6684
18806TIP3   OH277832   6.229   2.550  12.892 -0.1584 -0.1445 -0.2132
18806TIP3    H177833   6.244   2.645  12.893 -0.5351 -0.0921  0.4136
18806TIP3    H277834   6.251   2.521  12.980 -0.8504 -0.5165 -0.1576
18807TIP3   OH277835   3.180   1.602   0.297  0.1364 -0.0012 -0.5692
18807TIP3    H177836   3.132   1.612   0.379 -0.9480  1.1508 -1.3063
18807TIP3    H277837   3.141   1.524   0.256 -0.4071  0.3306 -0.6917
18808TIP3   OH277838   4.033   6.536   2.438 -0.4155 -0.1001  0.4061
18808TIP3    H177839   3.988   6.620   2.448  2.4334  1.5636  0.2723
18808TIP3    H277840   4.060   6.535   2.346  0.4200 -0.6660  0.6479
18809TIP3   OH277841   1.106   4.551   0.240 -0.4264 -0.1066 -0.1290
18809TIP3    H177842   1.081   4.583   0.154 -1.5996  0.9986  0.5787
18809TIP3    H277843   1.036   4.490   0.265 -1.0235  0.8992  0.7307
18810TIP3   OH277844   1.570   3.241   3.502  0.2794 -0.5729  0.2543
18810TIP3    H177845   1.638   3.281   3.447  0.1089 -0.6067  0.0190
18810TIP3    H277846   1.575   3.148   3.481  0.7313 -0.6953  0.8615
18811TIP3   OH277847   3.900   4.311   1.142  0.0299  0.4628 -0.2748
18811TIP3    H177848   3.888   4.363   1.062 -0.0082 -0.1865 -0.6944
18811TIP3    H277849   3.896   4.376   1.213 -1.7086  0.8380 -0.6697
18812TIP3   OH277850   0.140   0.759   6.056  0.2252  0.0029 -0.4824
18812TIP3    H177851   0.153   0.700   6.131 -1.2827 -0.6211 -0.6720
18812TIP3    H277852   0.223   0.754   6.007  2.0547  1.9702  2.1104
18813TIP3   OH277853   2.505   2.233  12.541 -0.1749  0.3863  0.1211
18813TIP3    H177854   2.505   2.154  12.488 -0.4036  0.4931 -0.0404
18813TIP3    H277855   2.587   2.229  12.591  0.3904  0.6233 -0.7570
18814TIP3   OH277856   5.738   6.660  16.047  0.9040 -0.0507 -0.1830
18814TIP3    H177857   5.701   6.725  15.987  0.0856 -0.2085  0.1434
18814TIP3    H277858   5.670   6.647  16.114  1.1625 -1.0443 -0.0996
18815TIP3   OH277859   2.846   6.587   2.154  0.1091  0.0082 -0.1492
18815TIP3    H177860   2.915   6.570   2.218 -1.3507 -0.9293  1.2563
18815TIP3    H277861   2.764   6.572   2.202 -1.1017  1.3057 -1.6831
18816TIP3   OH277862   5.988   2.308   0.659  0.2887  0.0951 -0.1465
18816TIP3    H177863   5.974   2.215   0.639 -0.3568  0.1970 -0.1830
18816TIP3    H277864   6.020   2.308   0.750  3.7425 -0.4059 -1.2163
18817TIP3   OH277865   4.115   5.077  13.572 -0.5482  0.4481  0.1984
18817TIP3    H177866   4.120   5.163  13.613 -0.3953  0.5819 -0.0985
18817TIP3    H277867   4.125   5.094  13.478  1.1653 -0.0278  0.2469
18818TIP3   OH277868   5.341   0.072   6.735 -0.2359 -0.0923 -0.2844
18818TIP3    H177869   5.401   0.117   6.676 -0.4479  0.8548  0.2024
18818TIP3    H277870   5.397   0.035   6.803 -0.2922  2.0817  1.0077
18819TIP3   OH277871   6.568   5.435  13.134 -0.8863  0.7044 -0.4591
18819TIP3    H177872   6.533   5.520  13.162 -0.7319  1.0601 -1.2945
18819TIP3    H277873   6.560   5.379  13.211 -5.0256  0.2003 -1.0175
18820TIP3   OH277874   0.208   6.626  14.049  0.3076 -0.6655 -0.6734
18820TIP3    H177875   0.224   6.534  14.068 -2.2139 -1.1789 -0.7033
18820TIP3    H277876   0.113   6.634  14.046  0.4028  2.1507  0.3001
18821TIP3   OH277877   6.322   4.816   5.083 -0.2523  0.3037 -0.2783
18821TIP3    H177878   6.311   4.894   5.136 -1.9087  0.5568 -0.9167
18821TIP3    H277879   6.325   4.848   4.993  0.2917 -0.2784 -0.4762
18822TIP3   OH277880   5.579   5.833  17.282  0.1338  0.0843 -0.2032
18822TIP3    H177881   5.497   5.812  17.238  0.9630 -1.4033 -1.1084
18822TIP3    H277882   5.552   5.867  17.368 -1.4308  0.4099 -0.8014
18823TIP3   OH277883   3.913   4.240   3.055  0.5537  0.0533 -0.1579
18823TIP3    H177884   3.854   4.316   3.056  1.0518  0.4965  2.4573
18823TIP3    H277885   3.867   4.173   3.105  1.2469 -0.4457 -0.1801
18824TIP3   OH277886   2.565   0.869  11.000  0.1282  0.2020  0.0621
18824TIP3    H177887   2.653   0.848  10.968 -0.8298  0.2382 -2.8993
18824TIP3    H277888   2.507   0.813  10.950 -1.5801 -0.0081  2.1475
18825TIP3   OH277889   6.106   0.765  12.944  0.4072 -0.5029  0.1068
18825TIP3    H177890   6.104   0.678  12.904 -0.7860 -1.0655  1.3223
18825TIP3    H277891   6.197   0.795  12.933  0.6650 -1.6153 -0.9042
18826TIP3   OH277892   5.327   3.381  13.748 -0.1590 -0.1565 -0.4032
18826TIP3    H177893   5.270   3.444  13.704 -0.3889 -1.1305 -1.5724
18826TIP3    H277894   5.267   3.311  13.776  0.3497 -0.8514 -1.0149
18827TIP3   OH277895   1.118   1.271   4.920 -0.3122 -0.1371  0.6050
18827TIP3    H177896   1.104   1.212   4.994  2.2956 -0.8405  0.6378
18827TIP3    H277897   1.052   1.339   4.930 -0.5720 -0.6658  3.0918
18828TIP3   OH277898   4.261   1.702   5.755  0.6787  0.4178 -0.0367
18828TIP3    H177899   4.301   1.750   5.828 -0.7588  0.0470  1.0425
18828TIP3    H277900   4.305   1.736   5.677  0.5578  2.6403  0.7756
18829TIP3   OH277901   0.268   6.335   3.816  0.5775  0.4855 -0.0284
18829TIP3    H177902   0.363   6.330   3.831  0.7223  0.7134 -0.8388
18829TIP3    H277903   0.232   6.264   3.870  1.1307  0.8828  0.8813
18830TIP3   OH277904   6.369   5.123   3.108 -0.2054 -0.2755 -0.4957
18830TIP3    H177905   6.354   5.214   3.135 -0.1216 -0.5698  0.5981
18830TIP3    H277906   6.465   5.116   3.099 -0.1209 -0.5225  0.4717
18831TIP3   OH277907   6.554   4.788   3.028 -0.1866 -0.1909  0.0111
18831TIP3    H177908   6.649   4.777   3.020 -0.4818 -2.3749 -1.5255
18831TIP3    H277909   6.532   4.746   3.111  0.4020  2.6627  1.7362
18832TIP3   OH277910   3.781   4.945   2.398  0.1410 -0.5140  0.3034
18832TIP3    H177911   3.836   4.884   2.448  1.0200  0.7253  0.9025
18832TIP3    H277912   3.799   4.924   2.307  1.6388 -0.1509  0.4860
18833TIP3   OH277913   1.668   5.972  13.480 -0.0882  0.4721 -0.4369
18833TIP3    H177914   1.606   6.024  13.532  1.2855  0.6419  1.1521
18833TIP3    H277915   1.678   6.021  13.398 -1.0762  1.1178 -0.1894
18834TIP3   OH277916   1.247   2.092   1.673 -0.1089 -0.3590  0.1493
18834TIP3    H177917   1.195   2.076   1.594  1.1334  1.9475 -1.2359
18834TIP3    H277918   1.328   2.132   1.641  0.6941  0.1121  2.5712
18835TIP3   OH277919   4.507   0.636   0.369 -0.0958 -0.3748 -0.2248
18835TIP3    H177920   4.527   0.543   0.366 -0.6154 -0.5456  1.2260
18835TIP3    H277921   4.415   0.641   0.393 -0.7546  0.4992 -2.5537
18836TIP3   OH277922   0.605   5.266   0.573  0.3519 -0.5852 -0.7204
18836TIP3    H177923   0.581   5.331   0.507  2.1891  1.6136  0.6159
18836TIP3    H277924   0.579   5.182   0.535 -0.3923  0.7437 -3.3768
18837TIP3   OH277925   4.523   4.133   0.755  0.0469 -0.1927 -0.2164
18837TIP3    H177926   4.461   4.175   0.814 -0.5641 -0.0513 -0.9525
18837TIP3    H277927   4.508   4.174   0.670  1.5093  0.2209 -0.3012
18838TIP3   OH277928   3.783   0.242   1.429  0.1213 -0.3266  0.3067
18838TIP3    H177929   3.723   0.204   1.493 -0.2867 -3.3495 -1.6336
18838TIP3    H277930   3.730   0.308   1.383 -0.4757 -0.1910  1.1711
18839TIP3   OH277931   3.716   3.012  13.533  0.2224  0.1940 -0.2370
18839TIP3    H177932   3.792   3.066  13.512 -1.2326  3.0964  1.3455
18839TIP3    H277933   3.652   3.034  13.465 -0.2328  0.1369  0.1695
18840TIP3   OH277934   2.911   2.550   1.701 -0.2363  0.6375 -0.1844
18840TIP3    H177935   2.985   2.549   1.641 -0.1278  1.6979 -0.0918
18840TIP3    H277936   2.834   2.561   1.645 -0.2397  0.4578 -0.2147
18841TIP3   OH277937   6.722   0.002   3.685  0.0816 -0.4905  0.5120
18841TIP3    H177938   6.752  -0.084   3.716  0.1221 -1.1885 -1.3111
18841TIP3    H277939   6.676   0.040   3.760 -1.1262 -2.7017  0.9880
18842TIP3   OH277940   6.416   6.217   0.482 -0.2622  0.2647  0.0002
18842TIP3    H177941   6.355   6.250   0.548 -1.0146  0.9087 -0.9825
18842TIP3    H277942   6.485   6.283   0.477 -0.6419  0.6450 -0.4239
18843TIP3   OH277943   5.072   2.359   1.587  0.1533  0.4249  0.1073
18843TIP3    H177944   4.997   2.381   1.531  0.5771 -0.8828 -1.0363
18843TIP3    H277945   5.077   2.431   1.650 -0.1779  2.1097 -1.7025
18844TIP3   OH277946   1.092   4.596  12.973 -0.1495  0.0619  0.2770
18844TIP3    H177947   1.017   4.626  12.922 -1.0467 -1.5233  0.5828
18844TIP3    H277948   1.160   4.579  12.908 -1.0006 -1.1379 -0.3448
18845TIP3   OH277949   0.207   4.980   0.181  0.2813 -0.2317  0.7839
18845TIP3    H177950   0.193   5.032   0.102 -0.5134  0.9033  1.6202
18845TIP3    H277951   0.257   4.904   0.153 -0.8715 -0.3803 -0.9895
18846TIP3   OH277952   1.481   1.537  12.634 -0.2168  0.3127 -0.1516
18846TIP3    H177953   1.550   1.545  12.568 -0.8102  3.2204 -0.5528
18846TIP3    H277954   1.518   1.477  12.699  1.6300 -0.2281 -1.5991
18847TIP3   OH277955   5.524   4.142  15.017 -0.2552  0.0298 -0.2118
18847TIP3    H177956   5.571   4.213  15.061  1.0568 -0.6568 -0.4514
18847TIP3    H277957   5.495   4.181  14.934 -0.6301  0.6367  0.2001
18848TIP3   OH277958   3.041   3.247   5.226 -0.1006 -0.0838 -0.1191
18848TIP3    H177959   3.081   3.327   5.192  2.1577 -0.9577  0.3617
18848TIP3    H277960   3.110   3.205   5.277 -0.5387 -3.3448 -1.9402
18849TIP3   OH277961   2.274   4.952  13.969 -0.2186 -0.5347 -0.4079
18849TIP3    H177962   2.201   4.950  14.031  0.1701 -0.9923  0.0397
18849TIP3    H277963   2.290   5.045  13.954  1.4588 -0.2876  2.3213
18850TIP3   OH277964   3.948   6.587   5.313 -0.1072  0.5254  0.0352
18850TIP3    H177965   3.936   6.623   5.226 -0.2042 -0.8038 -0.5181
18850TIP3    H277966   3.860   6.563   5.342  0.0826 -0.3998 -0.1203
18851TIP3   OH277967   2.419   3.280   1.994 -0.2413  0.1770  0.1488
18851TIP3    H177968   2.437   3.341   2.065 -2.4076 -1.0043  1.8594
18851TIP3    H277969   2.392   3.199   2.039 -0.3334 -1.0661 -2.0206
18852TIP3   OH277970   0.096   5.677  12.607  0.4349  0.3266 -0.3834
18852TIP3    H177971   0.043   5.639  12.537 -0.3131  1.2233 -0.3328
18852TIP3    H277972   0.122   5.763  12.573 -0.2719  0.9486  0.5587
18853TIP3   OH277973   4.779   1.140   2.123  0.0474 -1.0166  0.0244
18853TIP3    H177974   4.694   1.151   2.079 -0.2107 -0.8551  0.5614
18853TIP3    H277975   4.843   1.152   2.053 -0.3859 -2.2597 -0.6285
18854TIP3   OH277976   6.073   5.704  12.369  0.2755 -0.3748  0.5591
18854TIP3    H177977   6.109   5.792  12.374  1.2196 -0.6348 -0.9256
18854TIP3    H277978   6.011   5.699  12.442  0.7907  1.2276  1.1545
18855TIP3   OH277979   4.794   0.410   0.618 -0.2937 -0.2176 -0.1007
18855TIP3    H177980   4.749   0.480   0.665  1.9171  0.5724  0.9982
18855TIP3    H277981   4.839   0.360   0.686 -0.3812 -1.6507 -1.0412
18856TIP3   OH277982   4.375   5.969  16.722  0.5709  0.2393 -0.5669
18856TIP3    H177983   4.311   5.930  16.663 -0.0996  0.8748 -0.2702
18856TIP3    H277984   4.350   5.938  16.809  1.5998 -0.7542 -0.6009
18857TIP3   OH277985   5.551   4.545  17.286  0.5018  0.1385 -0.1516
18857TIP3    H177986   5.562   4.452  17.267  0.3503 -0.3712  2.0165
18857TIP3    H277987   5.636   4.573  17.321  0.1423  0.4552  0.4959
18858TIP3   OH277988   5.118   3.411  15.422 -0.4584  0.1512 -0.4863
18858TIP3    H177989   5.048   3.448  15.475  0.3220  1.3519 -0.2378
18858TIP3    H277990   5.101   3.443  15.333  0.4304  1.4879 -0.2012
18859TIP3   OH277991   3.962   1.727  17.068 -0.0732 -0.3283  0.3414
18859TIP3    H177992   4.007   1.806  17.038  1.7272 -1.5615 -0.3780
18859TIP3    H277993   4.001   1.709  17.153 -0.3284 -0.5573  0.4076
18860TIP3   OH277994   0.792   5.097  14.174  0.2506  0.3107 -0.1443
18860TIP3    H177995   0.870   5.142  14.142  0.0346  1.5147  0.9627
18860TIP3    H277996   0.811   5.077  14.266  0.9992 -3.3963 -0.9299
18861TIP3   OH277997   3.025   3.582   4.409  0.6163  0.3153  0.1851
18861TIP3    H177998   2.975   3.626   4.341  1.0007 -1.2966 -1.2133
18861TIP3    H277999   3.001   3.627   4.490 -0.6904  1.5771 -0.8569
18862TIP3   OH278000   3.554   6.629   4.876 -0.3133  0.0790  0.2413
18862TIP3    H178001   3.557   6.699   4.810 -0.4666  1.1882  1.3613
18862TIP3    H278002   3.631   6.644   4.930  0.8263 -1.9419 -0.7357
18863TIP3   OH278003   5.330   1.066   6.251  0.2703  0.4008  0.6145
18863TIP3    H178004   5.272   1.102   6.318 -1.0675 -0.0359 -0.2727
18863TIP3    H278005   5.312   1.118   6.173  2.2781  1.3273  0.7250
18864TIP3   OH278006   0.454   6.359   6.133 -0.3377  0.3764  0.1377
18864TIP3    H178007   0.463   6.452   6.113 -0.1625  0.3243 -0.0319
18864TIP3    H278008   0.520   6.342   6.200  1.2632 -0.1185 -1.4855
18865TIP3   OH278009   4.130   2.084   1.378 -0.3583 -0.0449  0.4975
18865TIP3    H178010   4.203   2.076   1.439  1.2914 -2.0643 -1.5902
18865TIP3    H278011   4.088   1.998   1.379 -1.2108  0.3489 -0.1506
18866TIP3   OH278012   0.162   1.112   5.803 -0.1288 -0.1267 -0.0229
18866TIP3    H178013   0.216   1.107   5.882 -1.2316  0.1246  0.7731
18866TIP3    H278014   0.138   1.205   5.797 -1.8748 -0.5110  0.6300
18867TIP3   OH278015   2.190   1.816  13.640  0.5342  1.0965  0.1836
18867TIP3    H178016   2.105   1.784  13.611  0.5724 -0.2400  1.4187
18867TIP3    H278017   2.188   1.910  13.622 -1.5488  1.2550  1.0069
18868TIP3   OH278018   4.767   2.194  12.792  0.2421  0.2097 -0.6575
18868TIP3    H178019   4.852   2.237  12.782  1.3244 -2.0764 -2.0739
18868TIP3    H278020   4.712   2.259  12.836  2.8554  1.5820  0.8052
18869TIP3   OH278021   2.658   1.855   1.434 -0.2232 -0.0903 -0.0018
18869TIP3    H178022   2.722   1.910   1.388  1.3479 -1.4764  0.4192
18869TIP3    H278023   2.577   1.905   1.432  0.7462  1.5160 -1.0153
18870TIP3   OH278024   3.241   3.251   2.101 -0.5408  0.0402  0.0202
18870TIP3    H178025   3.226   3.313   2.030 -1.7334 -0.4790 -0.1926
18870TIP3    H278026   3.180   3.179   2.085  0.5786 -1.0504  0.4557
18871TIP3   OH278027   5.726   6.641   4.822 -0.1341 -0.0022 -0.2042
18871TIP3    H178028   5.768   6.635   4.736  0.3012  0.6233 -0.0432
18871TIP3    H278029   5.633   6.653   4.803 -0.0029  0.4152 -0.5958
18872TIP3   OH278030   2.386   0.948   3.597  0.4216  0.0727  0.4976
18872TIP3    H178031   2.317   0.924   3.536  1.4214 -2.1359  0.1310
18872TIP3    H278032   2.434   1.019   3.553 -1.0925  1.0923  0.4326
18873TIP3   OH278033   0.145   2.957   1.098  0.6024  0.5802  0.6613
18873TIP3    H178034   0.139   2.870   1.138 -1.1984  0.2456 -0.2346
18873TIP3    H278035   0.207   2.947   1.026  1.1210  0.2944  1.1392
18874TIP3   OH278036   2.092   3.722  15.938 -0.5639  0.0503  0.3859
18874TIP3    H178037   2.079   3.632  15.968  1.2087 -0.1825  0.5573
18874TIP3    H278038   2.059   3.776  16.010 -2.0634 -0.4342  0.0898
18875TIP3   OH278039   6.382   0.762   0.303 -0.0516  0.0347  0.0235
18875TIP3    H178040   6.333   0.730   0.379  0.1303 -0.7792 -0.1908
18875TIP3    H278041   6.419   0.845   0.332 -0.9817  0.3291  0.4231
18876TIP3   OH278042   5.783   2.571  14.207 -0.3053  0.3386 -0.2042
18876TIP3    H178043   5.831   2.568  14.290 -0.4613 -0.0113 -0.1283
18876TIP3    H278044   5.825   2.642  14.159 -0.0585  0.3879  0.0785
18877TIP3   OH278045   3.537   5.958   3.053 -0.5100 -0.1904 -0.4466
18877TIP3    H178046   3.618   5.924   3.014 -1.0650 -0.2373 -1.5961
18877TIP3    H278047   3.562   6.042   3.090 -0.2334  0.5071 -2.1318
18878TIP3   OH278048   4.880   3.600   5.080 -0.8156  0.4641  0.2004
18878TIP3    H178049   4.871   3.578   4.988 -0.7256 -0.6226  0.4407
18878TIP3    H278050   4.908   3.692   5.080 -0.0839  0.2582 -0.8722
18879TIP3   OH278051   4.437   1.292  16.127  0.1771 -0.2793  0.0593
18879TIP3    H178052   4.386   1.213  16.112  0.5084 -0.2085 -1.5157
18879TIP3    H278053   4.380   1.347  16.181 -0.7391 -0.8816 -0.2730
18880TIP3   OH278054   2.886   2.547   4.124 -0.7964  0.4144  0.3721
18880TIP3    H178055   2.979   2.528   4.131 -0.7571 -0.1351 -1.2781
18880TIP3    H278056   2.871   2.560   4.030 -2.2424  1.2374  0.6892
18881TIP3   OH278057   5.303   6.089  14.360  0.4182  0.3605 -0.2568
18881TIP3    H178058   5.235   6.133  14.309  0.9106  1.4267 -0.0254
18881TIP3    H278059   5.360   6.049  14.295  0.5628  0.9871 -0.5217
18882TIP3   OH278060   6.356   0.201  17.168 -0.1159  0.1141 -0.0559
18882TIP3    H178061   6.424   0.135  17.182 -0.0174  0.0653 -0.7535
18882TIP3    H278062   6.383   0.246  17.088  1.0996  2.5761  1.6220
18883TIP3   OH278063   5.683   2.530   2.913 -0.2827  0.0430  0.0250
18883TIP3    H178064   5.627   2.604   2.935  2.2279  1.6173  1.6258
18883TIP3    H278065   5.719   2.501   2.996 -0.7421 -2.7009 -0.6257
18884TIP3   OH278066   2.623   6.072  13.201 -0.1033 -0.1963 -0.0380
18884TIP3    H178067   2.682   6.118  13.261 -0.1598 -0.1563 -0.0131
18884TIP3    H278068   2.556   6.136  13.179  0.2001 -0.0477 -0.5440
18885TIP3   OH278069   6.723   2.684   2.352 -0.0417 -0.5784 -0.0019
18885TIP3    H178070   6.677   2.715   2.430 -2.1230 -1.0643 -0.9658
18885TIP3    H278071   6.653   2.651   2.295  1.5531 -1.6027 -1.4497
18886TIP3   OH278072   1.242   2.614  13.243 -0.2315  0.3353 -0.3612
18886TIP3    H178073   1.162   2.614  13.296  0.6341 -0.2837  0.9839
18886TIP3    H278074   1.217   2.567  13.163 -1.5182  1.1561 -0.4709
18887TIP3   OH278075   1.242   1.886  17.196  0.6711  0.0465 -0.0958
18887TIP3    H178076   1.165   1.841  17.231 -0.1964  1.8905  0.4914
18887TIP3    H278077   1.315   1.855  17.251  0.0597 -0.3780  0.4939
18888TIP3   OH278078   2.757   1.665  11.445  0.1941  0.4826 -0.5795
18888TIP3    H178079   2.688   1.678  11.510 -1.0026 -1.9100 -1.2410
18888TIP3    H278080   2.789   1.576  11.462  1.8134  0.8480 -1.5032
18889TIP3   OH278081   2.578   3.973  16.067  0.6646  0.2430  0.7064
18889TIP3    H178082   2.599   3.890  16.111 -1.5254 -0.0010  1.4256
18889TIP3    H278083   2.521   4.019  16.128 -0.6585  0.9106 -0.9534
18890TIP3   OH278084   0.496   5.062  15.148 -0.0843  0.4567 -0.1897
18890TIP3    H178085   0.507   4.982  15.200 -0.8515  0.9281  0.7130
18890TIP3    H278086   0.432   5.038  15.081  1.0526 -0.2089 -1.0800
18891TIP3   OH278087   5.668   4.428   4.473 -0.2566  0.1631 -0.0041
18891TIP3    H178088   5.690   4.448   4.381  0.1747  0.4298  0.1535
18891TIP3    H278089   5.699   4.505   4.521  0.9404 -0.6363  0.5608
18892TIP3   OH278090   6.357   6.177  12.174 -0.2732  0.7631  0.2972
18892TIP3    H178091   6.444   6.146  12.146  1.1199  3.5073  1.1875
18892TIP3    H278092   6.354   6.268  12.145 -2.4857  1.0219  1.1562
18893TIP3   OH278093   1.427   5.559  13.451 -0.6060  0.1937 -0.4565
18893TIP3    H178094   1.338   5.533  13.475 -0.3819 -0.2536 -0.0846
18893TIP3    H278095   1.483   5.495  13.495 -0.1646 -0.5085 -1.9373
18894TIP3   OH278096   3.046   2.156   2.714  0.3963 -0.5058 -0.3601
18894TIP3    H178097   3.007   2.193   2.793  1.5781  1.6164 -0.7087
18894TIP3    H278098   2.971   2.128   2.661 -0.5655  0.9756  0.1596
18895TIP3   OH278099   2.940   1.844  12.408 -0.6215 -0.1167  0.0818
18895TIP3    H178100   3.014   1.785  12.425 -0.5318  0.4277  1.8115
18895TIP3    H278101   2.874   1.788  12.367 -0.1423 -1.1890  0.7055
18896TIP3   OH278102   3.524   5.877  14.327  0.3001 -0.4568  0.0236
18896TIP3    H178103   3.606   5.866  14.279  0.9645  1.5875  0.6113
18896TIP3    H278104   3.514   5.795  14.375  3.1364  0.0151  1.6056
18897TIP3   OH278105   1.549   4.447  17.369  0.2087 -0.2649 -0.2095
18897TIP3    H178106   1.529   4.357  17.341  0.7001 -0.2634 -0.5846
18897TIP3    H278107   1.524   4.450  17.461 -1.1120 -0.3851 -0.5393
18898TIP3   OH278108   2.321   6.436   6.666  0.2656 -0.3471  0.4630
18898TIP3    H178109   2.313   6.371   6.596 -0.2093  0.2523 -0.0505
18898TIP3    H278110   2.407   6.419   6.704  1.1231  0.1536 -1.1478
18899TIP3   OH278111   4.281   4.937  12.935 -0.6671  0.0494 -0.3873
18899TIP3    H178112   4.282   4.931  12.840  0.7816 -0.6935 -0.3559
18899TIP3    H278113   4.304   4.849  12.965  1.5004  0.8764  0.5821
18900TIP3   OH278114   4.185   3.596  14.977  0.3503  0.0355 -0.1698
18900TIP3    H178115   4.232   3.645  14.910  0.9492 -0.3555 -0.0359
18900TIP3    H278116   4.240   3.521  14.997  1.0458  1.0259  2.0097
18901TIP3   OH278117   4.146   3.494  16.020  0.2912 -0.2467  0.2414
18901TIP3    H178118   4.183   3.565  15.968  1.2966 -0.4508  0.6644
18901TIP3    H278119   4.052   3.513  16.023  0.2326 -0.1340 -1.4866
18902TIP3   OH278120   0.635   1.311   1.135  0.0109  0.1605  0.1888
18902TIP3    H178121   0.560   1.256   1.156  0.8692 -0.8029  0.8465
18902TIP3    H278122   0.606   1.363   1.060 -1.0421 -0.7561 -0.0723
18903TIP3   OH278123   0.012   1.813  16.330  0.6849  0.0516  0.2582
18903TIP3    H178124  -0.039   1.810  16.411  1.3958  0.7205  0.7475
18903TIP3    H278125   0.002   1.903  16.299  3.2686  0.8637  1.5261
18904TIP3   OH278126   5.007   2.316  15.304 -0.4411 -0.6354  0.5074
18904TIP3    H178127   5.013   2.242  15.365  0.7497 -0.6200  0.4312
18904TIP3    H278128   5.061   2.291  15.229 -1.7220 -0.5616 -0.4630
18905TIP3   OH278129   5.849   6.150   6.028 -0.8388  0.4497 -0.3779
18905TIP3    H178130   5.815   6.168   5.941 -1.9771  1.3101  0.2158
18905TIP3    H278131   5.878   6.236   6.060 -1.9953  0.4647  0.7159
18906TIP3   OH278132   1.119   1.257   1.499 -0.2357  0.2984  0.1353
18906TIP3    H178133   1.047   1.316   1.523  0.0848  0.4833  0.6554
18906TIP3    H278134   1.198   1.303   1.527 -0.0236 -0.7670  1.3696
18907TIP3   OH278135   0.798   2.565   4.184 -0.0628  0.2197  0.5186
18907TIP3    H178136   0.828   2.530   4.100 -0.2304  0.9582  0.1485
18907TIP3    H278137   0.707   2.591   4.169 -0.8380 -1.6954  1.5481
18908TIP3   OH278138   4.461   4.902  15.973  0.2024  0.7194 -0.2151
18908TIP3    H178139   4.493   4.951  16.048 -3.1702  1.0249  1.2041
18908TIP3    H278140   4.485   4.811  15.992  0.0600  0.8953  0.8377
18909TIP3   OH278141   0.353   0.069  16.141  0.3084 -0.4201 -0.2143
18909TIP3    H178142   0.352   0.062  16.046  0.9663  1.4558 -0.4057
18909TIP3    H278143   0.446   0.071  16.164  0.1659  0.4858  0.3338
18910TIP3   OH278144   0.154   3.266   0.055  0.2013 -0.5042  0.6943
18910TIP3    H178145   0.139   3.330  -0.014  0.0078 -0.0125  1.1891
18910TIP3    H278146   0.210   3.199   0.014  0.3482 -0.0574  0.1588
18911TIP3   OH278147   2.903   5.721   2.032  0.1005  0.2446 -0.1635
18911TIP3    H178148   2.936   5.806   2.062 -1.2260  0.7838 -0.1755
18911TIP3    H278149   2.838   5.742   1.965 -0.4483 -0.7632  0.0295
18912TIP3   OH278150   2.037   0.249  11.947  0.3134 -0.4887 -0.3063
18912TIP3    H178151   1.986   0.175  11.913 -0.2893  0.6969 -2.1442
18912TIP3    H278152   2.127   0.231  11.920  0.4255 -1.2674  0.5651
18913TIP3   OH278153   1.548   0.143  12.896  0.4047  0.0432  0.0729
18913TIP3    H178154   1.474   0.203  12.893  0.6764  0.4163  0.6744
18913TIP3    H278155   1.547   0.099  12.811 -0.5001  0.0451  0.0709
18914TIP3   OH278156   0.400   3.340  14.298 -0.0441 -0.0711 -0.0847
18914TIP3    H178157   0.427   3.430  14.280 -1.3737 -0.0729 -2.5144
18914TIP3    H278158   0.329   3.349  14.361  0.7831  0.4343  0.8115
18915TIP3   OH278159   4.196   3.228   4.648 -0.3131  0.1848  0.3267
18915TIP3    H178160   4.208   3.134   4.635  0.1731  0.3653 -0.6358
18915TIP3    H278161   4.176   3.237   4.741 -2.9054 -1.1047 -0.0127
18916TIP3   OH278162   1.669   2.779   6.531 -0.3749 -0.2379  0.7501
18916TIP3    H178163   1.619   2.783   6.612  0.4067 -0.4382  1.2567
18916TIP3    H278164   1.731   2.852   6.538  0.4523 -0.9381  0.8615
18917TIP3   OH278165   1.754   0.793   0.507  0.1732 -0.5200 -0.0167
18917TIP3    H178166   1.749   0.706   0.547  0.7764 -0.8760 -0.6901
18917TIP3    H278167   1.827   0.836   0.550 -0.3424 -0.2034  0.5637
18918TIP3   OH278168   5.734   0.698   0.114 -0.1032  0.1774 -0.0571
18918TIP3    H178169   5.700   0.705   0.025  2.0805  0.8797 -0.8807
18918TIP3    H278170   5.809   0.640   0.107  0.8845  1.2535  1.0672
18919TIP3   OH278171   0.035   4.973  14.143 -0.1682  0.3845  0.4300
18919TIP3    H178172   0.097   4.931  14.203 -0.4187  1.4099  1.4397
18919TIP3    H278173   0.072   5.059  14.126 -0.5489  0.4327 -0.2015
18920TIP3   OH278174   3.093   5.405   0.660  0.0150  0.5228  0.5571
18920TIP3    H178175   3.041   5.326   0.644  0.5995  0.1004  0.7303
18920TIP3    H278176   3.169   5.374   0.709  0.2898  1.1835  0.5535
18921TIP3   OH278177   5.179   1.095  14.201 -0.0283  0.2256  0.0564
18921TIP3    H178178   5.204   1.100  14.293  0.3493 -1.0905  0.0464
18921TIP3    H278179   5.112   1.026  14.198  1.7366 -1.5427 -0.9759
18922TIP3   OH278180   6.257   5.469   2.566  0.8232  0.2650 -0.0120
18922TIP3    H178181   6.201   5.466   2.644  0.9315  0.4636  0.0753
18922TIP3    H278182   6.233   5.391   2.515 -1.9467  2.0016 -1.6303
18923TIP3   OH278183   5.553   6.702  12.073 -0.2109 -0.0838  0.2895
18923TIP3    H178184   5.524   6.794  12.070  0.7420  0.3421  2.2644
18923TIP3    H278185   5.472   6.652  12.081 -0.8316  0.4540 -1.9337
18924TIP3   OH278186   3.587   2.763  14.410  0.1765 -0.3046 -0.2814
18924TIP3    H178187   3.669   2.722  14.436  0.0927  0.8319  1.9990
18924TIP3    H278188   3.614   2.848  14.373  0.0760 -0.2397 -0.2057
18925TIP3   OH278189   5.544   6.423  12.284 -0.8040  0.5327 -0.0102
18925TIP3    H178190   5.636   6.450  12.284 -1.1757  1.8607 -0.0685
18925TIP3    H278191   5.495   6.504  12.299 -1.9389 -0.2912  0.8601
18926TIP3   OH278192   5.581   4.324   0.187  0.1124  0.6762 -0.8005
18926TIP3    H178193   5.612   4.414   0.199 -1.0502  1.0303 -0.2365
18926TIP3    H278194   5.536   4.326   0.102 -1.3836  1.0991 -0.0382
18927TIP3   OH278195   1.749   6.150  15.704  0.1676  0.1668  0.0755
18927TIP3    H178196   1.704   6.163  15.620 -0.4301  2.3511  0.6468
18927TIP3    H278197   1.773   6.058  15.705 -0.0531  0.0130 -2.3691
18928TIP3   OH278198   1.942   5.557   3.977 -0.5773 -0.7072  0.7972
18928TIP3    H178199   1.900   5.616   4.040 -0.0410  1.3927 -0.7391
18928TIP3    H278200   2.022   5.602   3.951 -0.4755 -1.8054 -0.9384
18929TIP3   OH278201   4.426   1.864   1.287  0.0409 -0.3261  0.1474
18929TIP3    H178202   4.505   1.841   1.335  1.1252 -0.5955 -1.6854
18929TIP3    H278203   4.450   1.941   1.236 -1.6338  1.0732  1.3461
18930TIP3   OH278204   6.323   0.714   5.016  0.2468 -0.3442 -0.0487
18930TIP3    H178205   6.415   0.737   5.027 -0.1183  1.2565 -0.0902
18930TIP3    H278206   6.324   0.625   4.980  1.7009 -1.2790  2.1325
18931TIP3   OH278207   4.431   1.643  13.572  0.2487  0.3041 -0.7263
18931TIP3    H178208   4.494   1.616  13.505  1.3312  0.5577  0.1620
18931TIP3    H278209   4.400   1.729  13.542  1.6678  0.9911 -0.2853
18932TIP3   OH278210   0.979   1.960   4.292 -0.0420 -0.0167  0.9263
18932TIP3    H178211   1.019   1.883   4.252  1.6399  0.8350  0.8917
18932TIP3    H278212   0.886   1.955   4.267 -0.0073 -2.0919  1.0744
18933TIP3   OH278213   5.429   5.056  13.209 -0.3392  0.0263 -0.7868
18933TIP3    H178214   5.367   5.030  13.277  1.2589 -3.8487 -0.5128
18933TIP3    H278215   5.477   5.129  13.247  0.2555 -1.7611  2.2380
18934TIP3   OH278216   3.687   2.845  13.754 -0.2326  0.0679 -0.3857
18934TIP3    H178217   3.681   2.906  13.680  0.0743 -0.4692 -0.8572
18934TIP3    H278218   3.711   2.761  13.715  1.4805  0.1111  0.4717
18935TIP3   OH278219   4.706   5.852   2.327  0.8565 -0.4653  0.0692
18935TIP3    H178220   4.647   5.791   2.370  0.5127  0.0729  0.3731
18935TIP3    H278221   4.780   5.861   2.387  1.9029 -2.1443 -0.8937
18936TIP3   OH278222   3.145   0.071   2.414 -0.5637  0.0398  0.0543
18936TIP3    H178223   3.215   0.129   2.445 -1.3629  0.8660  0.3698
18936TIP3    H278224   3.189   0.009   2.357  0.2888  1.1353 -0.5276
18937TIP3   OH278225   5.594   1.715   1.995  0.2731  0.4141  0.2089
18937TIP3    H178226   5.649   1.692   1.919  1.3584 -0.7657  1.2972
18937TIP3    H278227   5.547   1.634   2.016 -1.2509  1.1751 -0.1579
18938TIP3   OH278228   3.922   3.718  16.388 -0.4091 -0.2130  0.2412
18938TIP3    H178229   3.990   3.659  16.357 -1.9430 -1.5289 -0.7822
18938TIP3    H278230   3.845   3.663  16.399 -1.1779  1.1145  1.9695
18939TIP3   OH278231   2.917   0.598   0.190  0.1529 -0.2371 -0.3086
18939TIP3    H178232   2.894   0.661   0.258  0.5816  0.3668 -0.7092
18939TIP3    H278233   3.012   0.594   0.191  0.1206 -1.1182 -0.0842
18940TIP3   OH278234   6.407   5.736   3.276  0.2736  0.0747  0.2501
18940TIP3    H178235   6.499   5.709   3.276  0.9071  1.9138 -2.0515
18940TIP3    H278236   6.360   5.659   3.244  1.4951  0.1705 -1.9863
18941TIP3   OH278237   5.509   2.217  12.803  0.4665 -0.1641  0.3950
18941TIP3    H178238   5.462   2.186  12.880  0.1514  1.9604  1.1378
18941TIP3    H278239   5.440   2.256  12.748  0.6526 -1.8570 -1.1092
18942TIP3   OH278240   1.696   0.913  11.951  0.6394 -0.4409 -0.2241
18942TIP3    H178241   1.765   0.974  11.978 -0.4147  1.0254 -0.6847
18942TIP3    H278242   1.657   0.883  12.033  0.2435  0.6667  0.0210
18943TIP3   OH278243   3.823   0.908   5.926 -0.1379  0.4936  0.1676
18943TIP3    H178244   3.771   0.962   5.986  0.6856  1.4100  0.0978
18943TIP3    H278245   3.878   0.855   5.983  1.1778  1.8982  0.2679
18944TIP3   OH278246   1.951   6.564   1.819 -0.2889  0.3725 -0.4201
18944TIP3    H178247   1.865   6.604   1.829 -0.7087 -0.4419 -0.6456
18944TIP3    H278248   1.935   6.485   1.766  0.5031 -0.0654 -0.0311
18945TIP3   OH278249   4.066   0.205  14.584  0.2598  0.6844 -0.6994
18945TIP3    H178250   3.976   0.225  14.609  0.0493  1.1258 -1.7502
18945TIP3    H278251   4.119   0.271  14.627  0.0516  0.6034 -0.3149
18946TIP3   OH278252   0.893   3.652   2.604 -0.1146 -0.1670  0.1737
18946TIP3    H178253   0.926   3.740   2.620  0.1488 -0.1170 -0.6001
18946TIP3    H278254   0.953   3.616   2.539 -1.0521 -0.4090 -0.5764
18947TIP3   OH278255   3.134   0.362   0.566 -0.4501  0.0424  0.0843
18947TIP3    H178256   3.211   0.341   0.513 -0.3378  1.6629 -0.4495
18947TIP3    H278257   3.062   0.314   0.524 -0.0406 -0.0949 -0.4687
18948TIP3   OH278258   0.427   3.070  16.532 -0.4702 -0.1829  0.1386
18948TIP3    H178259   0.395   3.058  16.621  0.6377  0.7854  0.6927
18948TIP3    H278260   0.503   3.012  16.526 -0.2466  0.1229 -0.0056
18949TIP3   OH278261   2.526   4.073  13.828 -0.2994 -0.4692 -0.0841
18949TIP3    H178262   2.547   3.982  13.810 -0.2229 -0.5466  0.4056
18949TIP3    H278263   2.558   4.089  13.917 -0.1995  0.0688 -0.2096
18950TIP3   OH278264   2.659   6.271   4.316 -0.4776 -0.0730 -0.0182
18950TIP3    H178265   2.685   6.187   4.279  2.4518  0.6592  0.0931
18950TIP3    H278266   2.665   6.333   4.244 -0.1382  0.4492  0.4465
18951TIP3   OH278267   5.427   1.628   5.103 -0.2018 -0.3743 -0.2201
18951TIP3    H178268   5.458   1.635   5.013 -1.7224  0.2944 -0.7266
18951TIP3    H278269   5.339   1.591   5.095 -0.5753  0.2110  0.9385
18952TIP3   OH278270   4.908   6.361   0.040 -0.2894  0.4417  0.3660
18952TIP3    H178271   4.876   6.442   0.001  0.2677  0.8180  0.6811
18952TIP3    H278272   4.829   6.311   0.060 -0.6952  1.4803  1.4042
18953TIP3   OH278273   4.450   0.646  12.598  0.3733  0.2317  0.6432
18953TIP3    H178274   4.466   0.738  12.574 -0.1855  0.3683  0.7741
18953TIP3    H278275   4.463   0.597  12.517  0.8699  0.4007  0.6163
18954TIP3   OH278276   1.445   3.738  13.637  0.1777 -0.0467  0.1175
18954TIP3    H178277   1.370   3.771  13.685 -0.0284 -0.9289  0.4123
18954TIP3    H278278   1.448   3.645  13.657 -0.1508 -0.5419 -1.8683
18955TIP3   OH278279   0.134   5.452  15.157  0.0088 -0.6427 -0.4993
18955TIP3    H178280   0.121   5.415  15.245  0.6510 -2.4339 -1.1170
18955TIP3    H278281   0.201   5.396  15.117  1.6225  1.6639 -1.2634
18956TIP3   OH278282   1.736   0.564   3.956 -0.4199 -0.1269 -0.1592
18956TIP3    H178283   1.828   0.570   3.930 -0.2028  0.2662  0.6880
18956TIP3    H278284   1.729   0.477   3.996 -0.6147 -0.4859 -0.9484
18957TIP3   OH278285   3.654   4.616   5.547 -0.1932  0.2506 -0.5982
18957TIP3    H178286   3.565   4.636   5.577  0.5310  1.0661  1.1650
18957TIP3    H278287   3.699   4.701   5.548  0.7318 -0.2183 -1.0609
18958TIP3   OH278288   2.224   0.614  11.426  0.2900  0.1531  0.1545
18958TIP3    H178289   2.276   0.660  11.492 -0.0986  0.9070 -0.0558
18958TIP3    H278290   2.288   0.587  11.360  1.0832 -2.7003  1.9132
18959TIP3   OH278291   2.802   4.711  13.751 -0.0162 -0.0263 -0.2443
18959TIP3    H178292   2.814   4.644  13.818 -0.7940 -1.3003 -1.3385
18959TIP3    H278293   2.722   4.757  13.777  0.5286  0.5358  0.5161
18960TIP3   OH278294   5.649   5.657  11.087 -0.1597 -0.0737  0.5651
18960TIP3    H178295   5.699   5.577  11.069 -0.7268  0.0941 -2.2014
18960TIP3    H278296   5.566   5.625  11.123 -1.0850 -0.9692 -2.1131
18961TIP3   OH278297   6.162   2.090   2.096  0.0543  0.2361  0.0639
18961TIP3    H178298   6.250   2.090   2.058  0.0100 -2.8272 -0.2541
18961TIP3    H278299   6.103   2.085   2.021 -0.3714  1.0398  0.3290
18962TIP3   OH278300   1.021   6.602   3.631  0.4116 -0.1137  0.0801
18962TIP3    H178301   0.979   6.590   3.716 -1.2566 -1.0541 -0.8275
18962TIP3    H278302   1.081   6.529   3.623 -0.4998 -0.8635 -0.1279
18963TIP3   OH278303   0.745   4.820   5.881  0.2257 -0.1795  0.1035
18963TIP3    H178304   0.776   4.754   5.943 -0.9314 -0.2146  0.6713
18963TIP3    H278305   0.776   4.903   5.915 -0.1616 -0.2271  0.5762
18964TIP3   OH278306   3.311   3.369  12.060 -0.3291 -1.5292 -0.4277
18964TIP3    H178307   3.318   3.389  11.967  1.1988 -0.4103 -0.1191
18964TIP3    H278308   3.238   3.423  12.091 -0.7664 -1.8165 -0.9470
18965TIP3   OH278309   4.227   5.801   4.542  0.7032 -0.3819 -0.2049
18965TIP3    H178310   4.242   5.743   4.468 -0.2031 -0.3756 -0.4092
18965TIP3    H278311   4.132   5.800   4.554  0.5831  1.6148 -0.6628
18966TIP3   OH278312   0.019   4.876   4.000  0.4201  0.5838  0.3952
18966TIP3    H178313  -0.062   4.829   3.981  0.0382  1.2772  0.2749
18966TIP3    H278314   0.003   4.919   4.083  0.0992  1.9298 -0.3318
18967TIP3   OH278315   6.598   2.756  12.959 -0.1309  0.0483 -0.1073
18967TIP3    H178316   6.663   2.798  13.014  0.9181  1.5625 -2.3334
18967TIP3    H278317   6.515   2.773  13.002  0.7066  0.3195  1.4617
18968TIP3   OH278318   6.412   6.515   2.739  0.0764 -0.1154 -0.2840
18968TIP3    H178319   6.403   6.591   2.682 -0.5213 -1.1522 -1.6264
18968TIP3    H278320   6.344   6.526   2.805 -1.2722 -0.3813 -1.5693
18969TIP3   OH278321   2.200   5.431   3.218  0.3249 -0.4812 -0.0581
18969TIP3    H178322   2.216   5.371   3.290  0.3630 -2.0524 -1.3144
18969TIP3    H278323   2.115   5.405   3.183  0.1472  0.4737 -0.3773
18970TIP3   OH278324   2.590   4.794  14.264  0.4912  0.1072  0.2236
18970TIP3    H178325   2.518   4.754  14.314  0.7783 -1.4156 -0.5204
18970TIP3    H278326   2.563   4.885  14.253 -1.4464 -0.4688 -0.2003
18971TIP3   OH278327   0.630   4.360  10.647  0.0198  0.3198  0.1559
18971TIP3    H178328   0.635   4.433  10.586 -0.3346  2.1991  2.2364
18971TIP3    H278329   0.721   4.342  10.671  0.0116  2.5322  2.2499
18972TIP3   OH278330   6.518   0.707  14.531 -0.2143  0.3595  0.0787
18972TIP3    H178331   6.561   0.628  14.563 -0.1521  0.1676 -0.4729
18972TIP3    H278332   6.498   0.689  14.440  0.8897  1.4317 -0.4074
18973TIP3   OH278333   0.913   4.977  15.929  0.4609 -0.0072  0.3547
18973TIP3    H178334   0.848   5.046  15.923 -0.0423 -0.4260  0.8322
18973TIP3    H278335   0.944   4.981  16.019  1.0544  0.1454  0.1489
18974TIP3   OH278336   5.903   0.726  11.761 -0.2739  0.4209 -0.8618
18974TIP3    H178337   5.935   0.815  11.755  0.6986  0.1157 -0.3264
18974TIP3    H278338   5.914   0.702  11.853  0.1431 -0.4943 -1.1414
18975TIP3   OH278339   2.334   1.776   3.689  0.0586  0.4699  0.1479
18975TIP3    H178340   2.348   1.683   3.667  1.9884  1.1170 -1.7714
18975TIP3    H278341   2.275   1.808   3.620  0.1355  0.8601  0.2614
18976TIP3   OH278342   6.137   3.461  11.101  0.1674  0.0509  0.4480
18976TIP3    H178343   6.128   3.403  11.026  2.4234  1.5690 -1.1344
18976TIP3    H278344   6.117   3.406  11.177  0.9400 -2.4327 -1.0410
18977TIP3   OH278345   0.063   6.709   4.629  0.3803 -0.3087  0.0299
18977TIP3    H178346   0.039   6.747   4.713  3.0204  2.7292 -0.3908
18977TIP3    H278347   0.144   6.661   4.646  0.2800 -0.7024 -0.5616
18978TIP3   OH278348   5.377   1.763   2.448  0.0566  0.2802  0.4787
18978TIP3    H178349   5.313   1.708   2.404 -1.5033  3.3136 -1.4254
18978TIP3    H278350   5.327   1.841   2.473  1.9702  0.6819  3.5665
18979TIP3   OH278351   2.166   6.559  17.438  0.0905  0.5328  0.6101
18979TIP3    H178352   2.213   6.640  17.454  0.2627  0.4940  0.3140
18979TIP3    H278353   2.094   6.559  17.502  0.0715  0.9290  0.5865
18980TIP3   OH278354   6.449   0.398  15.181 -0.0603 -0.6512  0.4308
18980TIP3    H178355   6.490   0.339  15.244 -2.5401 -1.1375  1.7166
18980TIP3    H278356   6.416   0.340  15.112  0.2355 -0.4090  0.0807
18981TIP3   OH278357   0.351   1.282  17.248  0.0895 -0.0435  0.1519
18981TIP3    H178358   0.310   1.358  17.290 -1.0873 -1.1524  1.1025
18981TIP3    H278359   0.439   1.311  17.226  0.0567  1.2378  1.5540
18982TIP3   OH278360   3.367   4.918  13.651  1.2999  0.1321 -0.4539
18982TIP3    H178361   3.373   4.842  13.594  3.2535 -0.1742  0.1056
18982TIP3    H278362   3.402   4.889  13.735  0.4593  1.1756  0.2962
18983TIP3   OH278363   5.689   3.847  13.139  0.2598 -0.1558 -0.0877
18983TIP3    H178364   5.708   3.772  13.082  1.6159  1.7235 -2.3175
18983TIP3    H278365   5.705   3.923  13.083 -1.2272  1.8201  2.0131
18984TIP3   OH278366   1.823   4.718  13.662 -0.0442  0.2001  0.2504
18984TIP3    H178367   1.918   4.730  13.652  0.5486 -1.7886  2.5991
18984TIP3    H278368   1.798   4.783  13.728  0.2228 -0.9449  1.5201
18985TIP3   OH278369   2.006   4.139  16.323  0.2669 -0.5008 -0.0659
18985TIP3    H178370   1.976   4.229  16.319  0.9971 -0.2646 -0.6192
18985TIP3    H278371   1.988   4.104  16.235  0.8012 -0.6033 -0.1436
18986TIP3   OH278372   1.684   1.021  17.054  0.1540  0.1671 -0.8435
18986TIP3    H178373   1.768   1.032  17.099 -1.4385 -0.6162  2.5931
18986TIP3    H278374   1.690   0.935  17.012  1.2431  0.3853 -1.1704
18987TIP3   OH278375   1.353   2.221  13.388  0.5164 -0.4772 -0.3559
18987TIP3    H178376   1.392   2.156  13.446 -0.0681 -0.3308  0.2204
18987TIP3    H278377   1.415   2.230  13.316  0.6300 -1.6184 -0.4111
18988TIP3   OH278378   2.908   2.373   1.455  0.1836 -0.3337  0.3047
18988TIP3    H178379   2.895   2.298   1.397 -0.1307  0.4188 -0.6096
18988TIP3    H278380   2.896   2.450   1.399  3.2187  0.4559  0.5585
18989TIP3   OH278381   1.869   6.200   4.392  0.0436 -0.7000  0.0345
18989TIP3    H178382   1.879   6.294   4.406 -1.5155 -0.7073  1.5690
18989TIP3    H278383   1.777   6.188   4.372  0.5537 -1.7570 -1.8435
18990TIP3   OH278384   3.132   1.475  17.330 -0.0283  0.2071 -0.3768
18990TIP3    H178385   3.082   1.395  17.345  1.4541 -0.6082  0.5113
18990TIP3    H278386   3.165   1.466  17.240 -1.2183  0.6278 -0.8727
18991TIP3   OH278387   1.803   0.794  16.911  0.2476 -0.0105 -0.2624
18991TIP3    H178388   1.881   0.797  16.966  0.1193  0.1239 -0.0871
18991TIP3    H278389   1.836   0.804  16.822  0.4412 -0.0731 -0.1991
18992TIP3   OH278390   5.225   5.307  13.508 -0.2108 -0.2284  0.1731
18992TIP3    H178391   5.305   5.356  13.523 -0.8382  0.7067  0.5621
18992TIP3    H278392   5.174   5.362  13.448 -0.2992 -1.1007 -0.5699
18993TIP3   OH278393   4.980   5.368  16.435 -0.1980 -0.0448  0.6492
18993TIP3    H178394   4.920   5.327  16.498 -0.1059  0.1932  0.8925
18993TIP3    H278395   4.933   5.363  16.352 -0.0659 -0.9091  0.6173
18994TIP3   OH278396   2.132   4.379  15.699 -0.2688 -0.0720 -0.1803
18994TIP3    H178397   2.215   4.334  15.683 -0.0690  0.5578 -0.9832
18994TIP3    H278398   2.091   4.385  15.612 -0.6621  0.5672  0.0396
18995TIP3   OH278399   3.221   2.459  14.750 -0.0208  0.4810 -0.2660
18995TIP3    H178400   3.163   2.383  14.752 -0.3871  0.7696  1.0048
18995TIP3    H278401   3.215   2.491  14.660  0.6358 -1.3390 -1.0202
18996TIP3   OH278402   2.606   6.650   4.985  0.1008  0.3344  0.1598
18996TIP3    H178403   2.564   6.697   5.057  0.8236  0.1885  0.6850
18996TIP3    H278404   2.535   6.602   4.943 -0.0711 -0.9530  1.8269
18997TIP3   OH278405   1.506   3.380   6.282 -0.1214 -0.0604 -0.0872
18997TIP3    H178406   1.559   3.322   6.227 -0.3815 -0.2206 -0.1680
18997TIP3    H278407   1.515   3.466   6.241 -0.7811 -0.2827 -0.7237
18998TIP3   OH278408   5.123   6.700   3.734  0.5727 -0.0342 -0.2927
18998TIP3    H178409   5.128   6.734   3.645  0.8203 -1.1363 -0.7214
18998TIP3    H278410   5.197   6.640   3.741  0.8022  0.3489  0.8050
18999TIP3   OH278411   2.471   6.089   3.846  0.4975 -0.0939  0.2588
18999TIP3    H178412   2.468   5.993   3.849 -0.3296 -0.0570  2.1664
18999TIP3    H278413   2.540   6.109   3.782  0.8479 -1.9481 -0.0093
19000TIP3   OH278414   4.187   1.265   4.019  0.5917 -0.0811  0.1100
19000TIP3    H178415   4.207   1.354   4.047  0.1904 -0.2575  1.0015
19000TIP3    H278416   4.184   1.215   4.101 -1.0533 -0.5307 -0.1984
19001TIP3   OH278417   4.560   4.474  15.007  0.7570  0.5657  0.1519
19001TIP3    H178418   4.531   4.494  15.096  0.0216  0.7370 -0.1144
19001TIP3    H278419   4.520   4.543  14.953  1.4335  0.6285 -0.2707
19002TIP3   OH278420   4.045   6.292  14.221 -0.0425  0.4020 -0.0105
19002TIP3    H178421   4.022   6.315  14.311 -1.0267 -1.7968  0.3515
19002TIP3    H278422   3.979   6.228  14.194  1.2829 -0.3652 -1.6550
19003TIP3   OH278423   1.392   6.448  15.557 -0.1444 -0.2481 -0.2501
19003TIP3    H178424   1.373   6.458  15.650 -0.2532  0.0328 -0.3012
19003TIP3    H278425   1.409   6.537  15.526  0.1449 -0.3712 -0.4448
19004TIP3   OH278426   5.553   6.667   1.091 -0.8996 -0.1699  0.0417
19004TIP3    H178427   5.618   6.686   1.159 -0.4801  0.4249 -0.5170
19004TIP3    H278428   5.474   6.713   1.120 -0.9327 -0.4832  0.4663
19005TIP3   OH278429   2.100   2.162   4.482 -0.3774 -0.5266  0.0075
19005TIP3    H178430   2.036   2.215   4.529  0.4248  0.3461  0.1504
19005TIP3    H278431   2.122   2.091   4.543 -0.9488 -0.6452  0.0834
19006TIP3   OH278432   1.484   1.288   0.374  0.5312 -0.3175  0.6770
19006TIP3    H178433   1.397   1.273   0.411 -0.5268  0.7087 -1.2007
19006TIP3    H278434   1.497   1.215   0.313  1.1717 -0.6862  1.2538
19007TIP3   OH278435   5.604   1.533   1.571  0.5933 -0.2178 -0.7386
19007TIP3    H178436   5.613   1.603   1.506  0.5528 -0.3115 -0.8468
19007TIP3    H278437   5.514   1.502   1.560 -0.5051  1.8172  1.4642
19008TIP3   OH278438   2.037   6.508  14.136 -0.2814  0.1268  0.4152
19008TIP3    H178439   2.016   6.517  14.229 -0.4789 -2.0719  0.6413
19008TIP3    H278440   2.113   6.449  14.134  1.3638  2.1411 -0.7516
19009TIP3   OH278441   1.188   3.088   0.904  0.4758  0.1425 -0.0603
19009TIP3    H178442   1.248   3.144   0.854  0.2478 -0.1261 -0.6391
19009TIP3    H278443   1.170   3.138   0.984  2.1529 -0.1427  0.5281
19010TIP3   OH278444   3.253   0.649  17.355  0.8872  0.1507  0.7578
19010TIP3    H178445   3.279   0.739  17.376 -1.1898  0.6762  1.3411
19010TIP3    H278446   3.288   0.596  17.427 -0.0035  0.8862  1.7595
19011TIP3   OH278447   3.222   1.316  14.551 -0.0393  1.0120 -0.2025
19011TIP3    H178448   3.314   1.339  14.567  0.0969  0.8960 -0.8065
19011TIP3    H278449   3.191   1.283  14.635  0.9067 -0.3973 -0.3641
19012TIP3   OH278450   3.466   0.379  12.253  0.1276 -0.8124 -0.4034
19012TIP3    H178451   3.465   0.368  12.348  0.1630 -2.3124 -0.5460
19012TIP3    H278452   3.404   0.314  12.221 -0.8226  0.5237 -1.3495
19013TIP3   OH278453   3.784   6.308  11.830  0.4401 -0.0548 -0.1685
19013TIP3    H178454   3.783   6.350  11.744  0.0838  2.0499  0.7990
19013TIP3    H278455   3.874   6.320  11.861  0.3469 -0.0378  0.0988
19014TIP3   OH278456   3.985   2.169   2.439  0.0786 -0.0310 -0.1894
19014TIP3    H178457   3.988   2.264   2.424  1.3501  0.0214  0.2735
19014TIP3    H278458   3.968   2.132   2.352 -0.7913  0.6268 -0.3131
19015TIP3   OH278459   6.322   0.169  15.801 -0.0812  0.6114 -0.5768
19015TIP3    H178460   6.378   0.246  15.815  1.1928 -0.1892 -1.0540
19015TIP3    H278461   6.356   0.103  15.862 -0.2585 -0.0112 -1.1364
19016TIP3   OH278462   5.079   1.144   0.658  0.0066 -0.1357  0.1955
19016TIP3    H178463   4.985   1.147   0.644  0.1152  1.8914 -0.3488
19016TIP3    H278464   5.092   1.182   0.745  0.2496 -1.8990  0.9832
19017TIP3   OH278465   2.503   4.754   5.116  0.2189  0.1301 -0.5028
19017TIP3    H178466   2.503   4.831   5.059  0.8007  0.3545 -0.2092
19017TIP3    H278467   2.473   4.683   5.060 -0.9264  0.6744 -0.6225
19018TIP3   OH278468   5.153   3.119  16.206  0.4216 -0.0318 -0.4558
19018TIP3    H178469   5.122   3.140  16.294 -0.9407 -1.2437 -0.5969
19018TIP3    H278470   5.248   3.127  16.211  0.4648 -1.0507  1.4165
19019TIP3   OH278471   2.854   1.954  16.636  0.5758  0.0140 -0.1645
19019TIP3    H178472   2.936   1.980  16.594 -0.1302  0.0558 -1.6188
19019TIP3    H278473   2.852   2.002  16.719  1.9660  0.0712 -0.1545
19020TIP3   OH278474   1.068   2.497  11.481  0.0630 -0.3373  0.6355
19020TIP3    H178475   1.100   2.474  11.394 -0.3719 -2.0462  0.8951
19020TIP3    H278476   1.007   2.569  11.466 -2.2757 -2.4838 -0.9037
19021TIP3   OH278477   2.863   0.601   5.994  0.4848 -0.4346  0.0268
19021TIP3    H178478   2.934   0.536   5.998  1.7456  0.8822 -0.2138
19021TIP3    H278479   2.894   0.674   6.047 -0.9353 -0.0327  0.3423
19022TIP3   OH278480   1.213   2.262  12.618  0.0294  0.7900  0.0492
19022TIP3    H178481   1.123   2.295  12.614 -0.7085 -1.1467 -1.1269
19022TIP3    H278482   1.267   2.338  12.598 -1.3035  2.1048  1.2237
19023TIP3   OH278483   2.523   6.113  17.089  0.3576  0.1811 -0.2827
19023TIP3    H178484   2.558   6.114  17.178 -1.2380  1.0097  0.3867
19023TIP3    H278485   2.592   6.153  17.036  0.7506  1.0611  0.8418
19024TIP3   OH278486   1.991   0.170  14.695  1.4030 -0.5730 -0.0294
19024TIP3    H178487   2.033   0.142  14.614  2.1094  0.8962 -0.2124
19024TIP3    H278488   1.990   0.266  14.690 -0.5505 -0.4962  0.7111
19025TIP3   OH278489   2.584   2.584   4.812  0.0210  0.0268 -0.0588
19025TIP3    H178490   2.526   2.602   4.738 -1.0794  0.7682  0.9479
19025TIP3    H278491   2.606   2.492   4.804 -0.5959 -0.0480 -0.9665
19026TIP3   OH278492   6.304   2.399   1.412  0.3821 -0.3858 -0.6051
19026TIP3    H178493   6.292   2.308   1.440 -3.2267  0.2117  0.3269
19026TIP3    H278494   6.295   2.450   1.493  0.6280  0.8869 -1.3584
19027TIP3   OH278495   3.178   2.882  14.853  0.7589  0.2150  0.1339
19027TIP3    H178496   3.229   2.881  14.772 -0.5136  0.0209 -0.6905
19027TIP3    H278497   3.097   2.927  14.830  0.2742 -0.0619  1.2337
19028TIP3   OH278498   3.158   1.384  15.949 -0.1546 -0.0393  0.0423
19028TIP3    H178499   3.080   1.440  15.951 -1.4625 -1.2991 -4.0946
19028TIP3    H278500   3.137   1.312  16.008 -0.8748  1.0156  1.1204
19029TIP3   OH278501   2.779   5.078  13.100  0.0030  0.6617  0.3720
19029TIP3    H178502   2.729   5.145  13.054  1.1838  0.9656 -0.5435
19029TIP3    H278503   2.849   5.127  13.145  0.1522  0.1544  0.7030
19030TIP3   OH278504   3.089   4.035   1.237 -0.1907  0.0197  0.0125
19030TIP3    H178505   3.126   4.056   1.323  0.4338 -0.2907 -0.1685
19030TIP3    H278506   2.997   4.016   1.254 -0.0390 -0.1892  0.6422
19031TIP3   OH278507   4.950   1.265   2.480 -0.1359  0.0012 -0.1001
19031TIP3    H178508   5.024   1.239   2.424 -0.2660 -0.7542  0.0674
19031TIP3    H278509   4.876   1.213   2.447 -1.1007  2.1522 -1.5418
19032TIP3   OH278510   2.270   0.058   3.084  0.1793  0.1739  0.4368
19032TIP3    H178511   2.328   0.076   3.011 -1.8338 -1.3833 -1.6865
19032TIP3    H278512   2.314  -0.011   3.133  0.1349 -1.1103 -1.2415
19033TIP3   OH278513   3.696   5.117   6.351 -0.5056 -0.2228  0.3477
19033TIP3    H178514   3.687   5.061   6.428  2.3657 -0.5455  0.5630
19033TIP3    H278515   3.751   5.189   6.380  1.1051 -0.6302 -1.4508
19034TIP3   OH278516   4.061   3.819  17.454  0.1553  0.2006  0.2415
19034TIP3    H178517   4.138   3.875  17.451  0.8806 -0.7267  0.8986
19034TIP3    H278518   4.090   3.736  17.416 -0.5908 -0.0916  0.2800
19035TIP3   OH278519   3.993   1.951   3.481  0.7391 -0.1004  0.1565
19035TIP3    H178520   3.945   1.869   3.489 -0.9362  0.6986 -1.1333
19035TIP3    H278521   4.024   1.952   3.390 -2.0089  2.0256 -0.9236
19036TIP3   OH278522   3.204   1.871   4.298 -0.0437 -0.0482 -0.5225
19036TIP3    H178523   3.156   1.798   4.337  0.1571  0.0107 -0.1555
19036TIP3    H278524   3.255   1.832   4.228 -1.4041  0.0466 -1.6066
19037TIP3   OH278525   5.358   2.819  16.330  0.0549  0.0786  0.5919
19037TIP3    H178526   5.433   2.872  16.357  0.7838 -1.1608  1.0972
19037TIP3    H278527   5.393   2.762  16.262 -0.8659  0.6198 -0.3707
19038TIP3   OH278528   3.678   2.509   4.089  0.5115  0.1050 -0.1697
19038TIP3    H178529   3.660   2.600   4.113 -0.4276 -0.1802  0.2479
19038TIP3    H278530   3.773   2.500   4.099  0.3860  0.4907  1.7237
19039TIP3   OH278531   6.374   6.021   3.301 -0.6842  0.1001  0.2273
19039TIP3    H178532   6.395   5.930   3.279 -0.0727 -0.0200  1.2670
19039TIP3    H278533   6.279   6.020   3.316 -0.7448 -0.2780 -0.1449
19040TIP3   OH278534   4.440   0.970  16.825  0.1013  0.5552  0.1827
19040TIP3    H178535   4.519   0.916  16.827 -0.0123 -0.0798 -4.0827
19040TIP3    H278536   4.369   0.910  16.849  0.7138  1.0976  3.9015
19041TIP3   OH278537   5.785   1.676  13.785 -0.0218  0.3152 -0.1175
19041TIP3    H178538   5.848   1.735  13.826 -1.0880  0.7331  0.9822
19041TIP3    H278539   5.704   1.726  13.781 -1.1358 -1.2288  1.4663
19042TIP3   OH278540   4.999   1.615   5.776 -0.6916  0.5074 -0.1662
19042TIP3    H178541   4.933   1.647   5.839  1.0271  0.3957  1.8044
19042TIP3    H278542   5.036   1.538   5.818  1.9812  1.6142 -0.2806
19043TIP3   OH278543   0.228   4.225   1.715  0.0919  0.1006  0.0501
19043TIP3    H178544   0.305   4.197   1.765  0.2278 -0.5301 -0.5054
19043TIP3    H278545   0.189   4.294   1.768  2.1753  1.8888 -0.5805
19044TIP3   OH278546   6.550   6.697   1.383 -0.5817 -0.4460  0.1555
19044TIP3    H178547   6.607   6.772   1.398 -1.9547  0.9696 -1.3948
19044TIP3    H278548   6.598   6.643   1.320  0.9757 -1.6113  2.2103
19045TIP3   OH278549   0.974   6.350  11.614 -0.2361  0.2503 -0.2873
19045TIP3    H178550   1.016   6.428  11.650 -1.3745  0.3040  1.0253
19045TIP3    H278551   1.044   6.304  11.568  0.5490  1.8265 -0.7471
19046TIP3   OH278552   3.880   1.280  13.840 -0.1939 -0.0187 -0.2066
19046TIP3    H178553   3.867   1.185  13.841 -1.7732  0.1640  0.7419
19046TIP3    H278554   3.869   1.306  13.932  1.6844  0.9407 -0.1994
19047TIP3   OH278555   4.106   0.379  13.234  0.1079  0.1628  0.1450
19047TIP3    H178556   4.025   0.425  13.259 -0.9903 -1.4756 -0.2548
19047TIP3    H278557   4.118   0.401  13.142  1.1118  1.7875  0.6261
19048TIP3   OH278558   0.553   2.924   6.916 -0.3212  0.1568 -0.2859
19048TIP3    H178559   0.552   2.933   7.011  0.6480  0.3954 -0.2809
19048TIP3    H278560   0.473   2.967   6.886  0.5721  2.3432  0.2618
19049TIP3   OH278561   0.907   1.959  16.315  0.1509  0.1454  0.0167
19049TIP3    H178562   0.929   1.953  16.408 -1.4557 -0.5082  0.3979
19049TIP3    H278563   0.990   1.944  16.269  0.8197 -0.3681  1.3461
19050TIP3   OH278564   3.187   5.457   5.101  0.5829 -0.1151  0.3316
19050TIP3    H178565   3.176   5.365   5.126 -0.2274 -0.6344 -1.6882
19050TIP3    H278566   3.280   5.464   5.077  0.3728 -0.8034 -0.7870
19051TIP3   OH278567   6.671   4.993  15.916 -0.1203  0.2491  0.5235
19051TIP3    H178568   6.760   5.026  15.925 -0.4584  1.5233 -0.5024
19051TIP3    H278569   6.619   5.069  15.891 -1.3526 -0.6358  0.2688
19052TIP3   OH278570   1.017   5.677   0.818  0.9006  0.1126  0.1405
19052TIP3    H178571   0.932   5.642   0.793  0.6060  0.9441 -0.0259
19052TIP3    H278572   1.069   5.599   0.840  0.0422 -0.3864  0.4532
19053TIP3   OH278573   5.262   6.108   1.780 -0.3843  0.5097  0.6382
19053TIP3    H178574   5.279   6.019   1.810 -0.5771  0.3209  0.1824
19053TIP3    H278575   5.169   6.110   1.758 -0.5756  1.0541  1.4280
19054TIP3   OH278576   1.596   2.786  12.379 -0.1419 -0.3925  0.1433
19054TIP3    H178577   1.527   2.732  12.339 -1.0029 -0.6788  1.9300
19054TIP3    H278578   1.629   2.839  12.307 -1.8346 -0.6686 -0.8901
19055TIP3   OH278579   4.602   4.868   5.550 -0.9845 -0.0647 -0.6859
19055TIP3    H178580   4.579   4.809   5.621 -1.4179  1.4780  0.5320
19055TIP3    H278581   4.551   4.947   5.567 -0.1012  0.8304 -1.9694
19056TIP3   OH278582   6.277   6.031   6.825  0.1906 -0.0952  0.2250
19056TIP3    H178583   6.342   5.979   6.873  0.1948  0.3327  0.6961
19056TIP3    H278584   6.329   6.100   6.784  0.2649 -0.7958 -0.8929
19057TIP3   OH278585   3.536   2.709  12.320 -0.2069  0.2749 -0.1666
19057TIP3    H178586   3.471   2.639  12.318  0.1526 -0.0576 -1.9099
19057TIP3    H278587   3.489   2.784  12.356 -0.9319 -0.5196  0.6068
19058TIP3   OH278588   3.219   6.665   3.614  0.0719  0.1213  0.3043
19058TIP3    H178589   3.305   6.624   3.600 -0.0770  0.6070 -2.6124
19058TIP3    H278590   3.219   6.688   3.707  3.1486  0.2124  0.3934
19059TIP3   OH278591   1.556   3.567   3.613 -0.4035  0.5338  0.5208
19059TIP3    H178592   1.618   3.623   3.567 -0.7108 -0.3513 -1.0493
19059TIP3    H278593   1.511   3.625   3.674  0.6462  1.5683  0.3258
19060TIP3   OH278594   0.294   5.200  13.239 -0.0633  0.4558 -0.3643
19060TIP3    H178595   0.255   5.207  13.152  1.2434 -0.0546 -1.0228
19060TIP3    H278596   0.292   5.106  13.259  0.3058  0.4882 -0.1662
19061TIP3   OH278597   6.532   6.468   6.002  0.4156  0.1985 -0.2137
19061TIP3    H178598   6.465   6.471   6.070  0.6416 -0.7309  0.0570
19061TIP3    H278599   6.595   6.403   6.033  1.2463  0.7760 -0.6493
19062TIP3   OH278600   3.782   6.681   6.384 -0.2637  0.4721  0.0376
19062TIP3    H178601   3.770   6.771   6.352 -1.7538 -0.3357 -1.8638
19062TIP3    H278602   3.700   6.662   6.430  1.0234  0.8724  2.6682
19063TIP3   OH278603   2.810   0.145   5.893 -0.0597 -0.0986 -0.2294
19063TIP3    H178604   2.895   0.151   5.938 -0.3760  0.8235  0.2818
19063TIP3    H278605   2.827   0.089   5.818  1.3956  1.3065 -1.0191
19064TIP3   OH278606   3.541   0.747   5.108 -0.5503  0.1745 -0.2485
19064TIP3    H178607   3.599   0.823   5.120 -1.0757  0.6407 -0.6501
19064TIP3    H278608   3.536   0.708   5.195 -0.0106  0.4080 -0.1061
19065TIP3   OH278609   0.152   3.819  13.727 -0.5802 -0.0479  0.0977
19065TIP3    H178610   0.203   3.819  13.646 -1.9640 -1.2905 -0.8484
19065TIP3    H278611   0.119   3.908  13.736  0.0262  0.2307 -0.4150
19066TIP3   OH278612   2.447   5.881   0.295 -0.7224 -0.1834 -0.1511
19066TIP3    H178613   2.504   5.844   0.228  0.4208  1.7247 -0.3217
19066TIP3    H278614   2.362   5.841   0.280 -0.9634  1.4041 -3.9056
19067TIP3   OH278615   3.650   3.674   4.433  0.3109  0.5579 -0.3806
19067TIP3    H178616   3.666   3.581   4.448  1.2817  0.8053  0.1571
19067TIP3    H278617   3.556   3.679   4.413  0.0902 -0.4400  0.3441
19068TIP3   OH278618   1.717   6.346  16.601 -0.3614 -0.1948  0.3741
19068TIP3    H178619   1.627   6.354  16.632  0.1794  2.1606  1.5649
19068TIP3    H278620   1.711   6.358  16.506 -1.1812  1.5323  0.6123
19069TIP3   OH278621   3.359   3.850   0.267  0.5110 -0.5873  0.1886
19069TIP3    H178622   3.400   3.831   0.183 -0.7776  0.5056 -0.7276
19069TIP3    H278623   3.290   3.784   0.276 -0.9934  0.7825 -0.8428
19070TIP3   OH278624   2.181   4.987   6.892  0.1240 -0.3675 -0.1176
19070TIP3    H178625   2.120   5.020   6.826 -0.3946 -1.9411 -0.4666
19070TIP3    H278626   2.165   5.042   6.969 -1.2396 -0.2910 -0.4300
19071TIP3   OH278627   1.393   1.975  12.091  0.0069  0.3016  0.2498
19071TIP3    H178628   1.371   2.044  12.028 -0.0827  0.0402 -0.0074
19071TIP3    H278629   1.369   1.894  12.047 -2.0699  0.2140  1.4211
19072TIP3   OH278630   5.069   1.006  12.838  0.5064  0.0053  0.1143
19072TIP3    H178631   5.062   1.083  12.782 -0.5352  0.4716  0.8303
19072TIP3    H278632   4.989   1.008  12.891  0.4366 -1.5904  0.1357
19073TIP3   OH278633   0.273   0.153  12.095  1.0080 -0.2656  0.0902
19073TIP3    H178634   0.212   0.094  12.138  0.5658 -0.9344 -1.4081
19073TIP3    H278635   0.338   0.096  12.055  1.4812  0.3404 -0.0192
19074TIP3   OH278636   4.302   4.420   6.124 -0.4037 -0.1117 -0.3862
19074TIP3    H178637   4.314   4.502   6.172 -0.4741 -0.4740  0.2677
19074TIP3    H278638   4.341   4.354   6.181  0.8892 -0.3610 -1.5365
19075TIP3   OH278639   5.390   0.802  14.860 -0.2798 -0.8552  0.2210
19075TIP3    H178640   5.376   0.863  14.932 -1.0542 -1.5124  0.6399
19075TIP3    H278641   5.312   0.810  14.805 -1.0000 -2.3650  0.9623
19076TIP3   OH278642   2.694   2.593  15.183 -0.5480 -0.1358 -0.1253
19076TIP3    H178643   2.749   2.517  15.165 -0.2591  0.3264 -1.2662
19076TIP3    H278644   2.613   2.578  15.134 -0.8118 -0.0842  0.2912
19077TIP3   OH278645   2.905   6.181  16.305  0.3621  0.3262  0.0948
19077TIP3    H178646   2.958   6.155  16.380  0.0136  0.3806  0.3602
19077TIP3    H278647   2.909   6.277  16.304  0.8328  0.3056 -0.2964
19078TIP3   OH278648   3.166   2.429  12.751 -0.1672  0.0636 -0.3461
19078TIP3    H178649   3.094   2.477  12.711  1.0578  2.2136 -0.1327
19078TIP3    H278650   3.245   2.474  12.721  0.9974 -0.9394  1.0452
19079TIP3   OH278651   0.089   0.230  17.489  0.5945  0.6853 -0.4605
19079TIP3    H178652   0.122   0.236  17.579  0.4886 -0.5099 -0.3278
19079TIP3    H278653   0.140   0.159  17.449 -0.5371  0.0365 -0.8016
19080TIP3   OH278654   3.604   5.918  16.715 -0.0874  0.8114 -0.7535
19080TIP3    H178655   3.553   5.865  16.776  1.0100  0.2893 -0.2576
19080TIP3    H278656   3.552   5.997  16.702 -0.6120  0.6762  0.4079
19081TIP3   OH278657   1.229   2.424  14.730 -0.3998  0.0722 -0.6585
19081TIP3    H178658   1.154   2.474  14.699  0.1232 -0.3872 -2.8015
19081TIP3    H278659   1.193   2.367  14.798 -1.5434  1.3059 -0.1819
19082TIP3   OH278660   0.355   2.763  17.352  0.3991 -0.2741  0.0771
19082TIP3    H178661   0.311   2.679  17.366  0.2114 -0.0009  1.2392
19082TIP3    H278662   0.431   2.741  17.297 -0.6364 -0.9002 -1.1702
19083TIP3   OH278663   0.324   0.156  12.724  0.0149 -0.6413 -0.7697
19083TIP3    H178664   0.346   0.163  12.631 -0.5390  0.6295 -0.8145
19083TIP3    H278665   0.260   0.084  12.728  0.4572 -1.0733 -1.2836
19084TIP3   OH278666   3.635   0.490  13.661  0.5304  0.4034  0.3967
19084TIP3    H178667   3.700   0.460  13.724  1.4638  1.6870  0.0961
19084TIP3    H278668   3.629   0.585  13.676  0.2115  0.6149 -0.9250
19085TIP3   OH278669   0.056   3.329  12.336  0.4952 -0.7675  0.1699
19085TIP3    H178670  -0.036   3.304  12.340  0.1936 -0.0099 -1.3025
19085TIP3    H278671   0.097   3.260  12.283  0.2023  0.3099 -1.5295
19086TIP3   OH278672   3.243   2.832  16.840  0.4259  0.0706 -0.1546
19086TIP3    H178673   3.200   2.828  16.755 -1.0166  0.0920  0.5351
19086TIP3    H278674   3.171   2.827  16.903  1.4274  0.4959  1.0595
19087TIP3   OH278675   6.061   0.310   0.963 -0.1967  0.0436  0.8168
19087TIP3    H178676   6.108   0.365   1.025 -1.8438 -0.4281  2.5438
19087TIP3    H278677   6.076   0.220   0.993 -0.0589 -0.2838 -0.1711
19088TIP3   OH278678   2.826   2.723  11.566  0.4449  0.2080  0.0432
19088TIP3    H178679   2.811   2.815  11.590 -0.3584  0.1347 -0.1642
19088TIP3    H278680   2.760   2.674  11.614  1.0024 -0.2947  0.3150
19089TIP3   OH278681   3.663   2.896  11.476 -0.1470  0.5223 -0.0824
19089TIP3    H178682   3.633   2.805  11.470  0.1037  0.3082  1.5998
19089TIP3    H278683   3.686   2.919  11.386  1.0165 -1.5026 -0.3606
19090TIP3   OH278684   2.595   1.016  13.449 -0.2693  0.2849  0.6211
19090TIP3    H178685   2.516   0.979  13.408 -0.4196  1.1794  0.0699
19090TIP3    H278686   2.665   0.997  13.387 -0.4697  1.5040 -0.0082
19091TIP3   OH278687   6.321   1.939  15.036 -0.1759 -0.2272 -0.0259
19091TIP3    H178688   6.267   1.923  15.113 -0.4579 -0.4502 -0.2662
19091TIP3    H278689   6.355   2.027  15.048  1.1508 -0.8590  1.1813
19092TIP3   OH278690   6.314   0.679  11.500 -0.5686  0.5671  0.4255
19092TIP3    H178691   6.272   0.601  11.537 -1.3812  1.4912  1.5051
19092TIP3    H278692   6.319   0.660  11.406 -3.1978  0.2748  0.2559
19093TIP3   OH278693   3.108   3.886  11.969 -0.4080  0.5351  0.0654
19093TIP3    H178694   3.055   3.922  12.041 -3.0535 -1.5236 -0.7001
19093TIP3    H278695   3.161   3.818  12.011 -0.1260  0.9795  0.4451
19094TIP3   OH278696   3.045   4.217  13.092  0.5869  0.3793  0.3410
19094TIP3    H178697   2.960   4.243  13.058  0.1063 -0.0389  1.2002
19094TIP3    H278698   3.078   4.294  13.139 -0.1493 -0.0252  1.5704
19095TIP3   OH278699   3.090   5.498   1.260 -0.0205 -0.6341 -0.1330
19095TIP3    H178700   3.105   5.417   1.211  0.5855 -0.6221  0.0228
19095TIP3    H278701   3.140   5.486   1.341  0.2020 -0.0406 -0.1812
19096TIP3   OH278702   1.673   6.294   1.331 -0.1045  0.3879 -0.7363
19096TIP3    H178703   1.578   6.296   1.337 -0.0207  1.5362  1.3906
19096TIP3    H278704   1.693   6.215   1.281 -2.1865  0.9671 -2.6287
19097TIP3   OH278705   1.395   2.894  12.047 -0.4610  0.0288 -0.4294
19097TIP3    H178706   1.460   2.919  11.982  2.3377 -1.8543  1.4624
19097TIP3    H278707   1.379   2.801  12.031  0.1951 -0.4437  1.4518
19098TIP3   OH278708   0.332   4.490  17.401  0.1856  0.1283  0.3882
19098TIP3    H178709   0.387   4.540  17.461 -0.6636 -0.5211  1.7517
19098TIP3    H278710   0.314   4.408  17.446  0.9856 -1.1743 -1.5340
19099TIP3   OH278711   1.005   1.940   6.066 -0.4729  0.9402  0.6160
19099TIP3    H178712   0.935   1.881   6.038 -1.5991  2.4588  0.1435
19099TIP3    H278713   1.070   1.882   6.106 -1.9894 -0.5146  1.0849
19100TIP3   OH278714   2.796   6.173  11.960 -0.4279  0.7109  0.1227
19100TIP3    H178715   2.831   6.196  12.046  0.3847  1.2853 -0.3551
19100TIP3    H278716   2.742   6.095  11.977  0.3024  0.3819  1.0242
19101TIP3   OH278717   2.558   0.525   3.001 -0.2429 -0.1175 -0.5719
19101TIP3    H178718   2.480   0.579   2.986  0.1536  0.5223 -0.3784
19101TIP3    H278719   2.593   0.556   3.084  1.7483  1.5258 -1.9312
19102TIP3   OH278720   5.562   4.641  15.179 -0.0676  0.0604 -0.1260
19102TIP3    H178721   5.628   4.710  15.192 -0.0481  0.1251 -0.5780
19102TIP3    H278722   5.566   4.590  15.260  0.5962  0.0101 -0.1787
19103TIP3   OH278723   2.641   2.399  15.405 -0.0867 -0.0841 -0.4343
19103TIP3    H178724   2.607   2.338  15.340  1.2562 -0.6876 -0.6068
19103TIP3    H278725   2.652   2.481  15.357 -0.5573 -0.0961 -0.5657
19104TIP3   OH278726   2.613   1.112  12.339  0.2543  0.3324 -0.0986
19104TIP3    H178727   2.670   1.130  12.264  1.8556  0.8498  1.2108
19104TIP3    H278728   2.550   1.185  12.338 -0.3064 -0.1451 -1.4433
19105TIP3   OH278729   2.509   6.441  15.035 -0.1460  1.0434  0.5789
19105TIP3    H178730   2.463   6.520  15.065  0.2508  1.3606  0.3698
19105TIP3    H278731   2.461   6.369  15.074 -0.8693  1.3698  0.3049
19106TIP3   OH278732   1.754   6.106  16.716 -0.4413  0.3462 -0.6306
19106TIP3    H178733   1.755   6.201  16.702 -0.5728  0.4421 -0.0492
19106TIP3    H278734   1.837   6.075  16.681 -0.3603  0.6912 -0.7463
19107TIP3   OH278735   0.543   3.598  16.302 -0.0467 -0.5764  0.1484
19107TIP3    H178736   0.504   3.585  16.216  0.1615 -0.7526  0.0798
19107TIP3    H278737   0.509   3.525  16.355  0.9811 -1.3275 -0.1882
19108TIP3   OH278738   1.140   5.470   6.115 -0.1186 -0.0100 -0.4665
19108TIP3    H178739   1.105   5.385   6.087 -1.9640 -0.3473  2.4187
19108TIP3    H278740   1.154   5.518   6.034 -2.0594 -1.9462 -2.0790
19109TIP3   OH278741   2.770   5.436   4.841  0.0977 -0.7329  0.5849
19109TIP3    H178742   2.675   5.420   4.840 -0.0420 -0.0129 -1.4247
19109TIP3    H278743   2.800   5.409   4.755  1.1336  2.1301 -0.0705
19110TIP3   OH278744   5.866   4.225  15.039 -0.0674 -0.0775 -0.2909
19110TIP3    H178745   5.881   4.169  15.116 -1.5766 -0.0640  0.0599
19110TIP3    H278746   5.796   4.284  15.067 -1.0304 -0.4249 -1.8336
19111TIP3   OH278747   1.694   5.703   2.818  0.2458 -0.6756  0.3361
19111TIP3    H178748   1.619   5.669   2.769 -0.3160  1.7748 -0.6436
19111TIP3    H278749   1.769   5.682   2.763 -0.0696 -0.4580 -0.1886
19112TIP3   OH278750   3.064   2.514  11.360 -0.0702  0.4805  0.5220
19112TIP3    H178751   3.146   2.479  11.393  0.1329  0.2868 -0.1750
19112TIP3    H278752   3.081   2.607  11.348  0.0104  0.4628  0.4972
19113TIP3   OH278753   5.136   1.218  11.164 -0.1878 -0.1443  0.2297
19113TIP3    H178754   5.198   1.232  11.093 -1.5191  0.5888 -0.8325
19113TIP3    H278755   5.104   1.128  11.151 -0.4346 -0.0083 -0.1214
19114TIP3   OH278756   4.884   3.065  13.010  0.8417  0.1088  0.2330
19114TIP3    H178757   4.804   3.116  12.992  0.6385 -0.0058  0.7729
19114TIP3    H278758   4.861   3.011  13.086  0.7821 -1.4227 -0.8478
19115TIP3   OH278759   3.852   0.204  17.365 -0.1429 -0.7813 -0.1715
19115TIP3    H178760   3.915   0.257  17.316  0.5875  0.2363  1.7828
19115TIP3    H278761   3.903   0.129  17.396 -0.2524 -0.6894  0.2307
19116TIP3   OH278762   0.049   1.953  15.969  0.2024 -0.0159  0.2429
19116TIP3    H178763   0.043   1.949  15.874  0.6703 -0.0879  0.2180
19116TIP3    H278764   0.142   1.946  15.989  0.0253 -1.2562  0.7667
19117TIP3   OH278765   5.661   1.232  16.841  0.3643 -0.0128  0.1615
19117TIP3    H178766   5.678   1.244  16.748  3.3768 -2.1542  0.3003
19117TIP3    H278767   5.666   1.321  16.878 -1.3553  0.9239 -1.6754
19118TIP3   OH278768   1.503   1.128  14.617 -0.0987  0.4784 -0.6216
19118TIP3    H178769   1.499   1.196  14.551 -0.7309 -0.6097 -1.7458
19118TIP3    H278770   1.596   1.104  14.622 -0.0144  0.7490 -0.9141
19119TIP3   OH278771   6.679   3.345  12.955  0.4809  0.0392 -0.3381
19119TIP3    H178772   6.697   3.357  12.862 -1.9852 -0.0778 -0.9128
19119TIP3    H278773   6.729   3.267  12.980  0.4246 -0.5120 -1.8318
19120TIP3   OH278774   1.090   1.256   4.648 -0.0910  0.0634  0.5828
19120TIP3    H178775   1.098   1.253   4.744  0.4011 -0.9197  0.5240
19120TIP3    H278776   1.094   1.164   4.621 -1.1010  0.2731 -0.3246
19121TIP3   OH278777   2.574   1.559  13.554 -0.3845 -0.2477 -0.0275
19121TIP3    H178778   2.637   1.499  13.515 -0.8848 -1.0695  0.4017
19121TIP3    H278779   2.584   1.546  13.649  0.3892  1.2726  0.1318
19122TIP3   OH278780   0.944   0.048  14.600 -0.4782 -0.2256 -0.0696
19122TIP3    H178781   0.984   0.050  14.513 -0.9808  1.7931 -0.2974
19122TIP3    H278782   0.874   0.113  14.595  0.5321  1.1440  2.3132
19123TIP3   OH278783   4.273   2.648  12.897 -0.4749  0.2153 -0.7256
19123TIP3    H178784   4.340   2.685  12.840  0.4762  2.4220  1.6378
19123TIP3    H278785   4.198   2.706  12.888  0.7645  2.5706  2.4354
19124TIP3   OH278786   4.583   5.645   3.582 -0.1124  0.0448  0.1884
19124TIP3    H178787   4.489   5.650   3.562 -0.0647 -0.2417 -0.1135
19124TIP3    H278788   4.618   5.729   3.552 -0.5100  0.7578  1.6227
19125TIP3   OH278789   3.971   2.494  13.161  0.6104 -0.1954  0.3684
19125TIP3    H178790   3.979   2.492  13.066  1.2970 -3.7400  0.3572
19125TIP3    H278791   3.892   2.545  13.177 -0.8094 -1.3486 -2.2733
19126TIP3   OH278792   2.860   2.169  11.566  0.3175 -0.0407  0.1296
19126TIP3    H178793   2.916   2.102  11.606 -0.7244  0.2178  2.1293
19126TIP3    H278794   2.836   2.133  11.481  0.5084 -1.8206  0.7967
19127TIP3   OH278795   5.502   5.204  11.383 -0.0196  0.2731 -0.0507
19127TIP3    H178796   5.506   5.293  11.418 -0.7085  0.7437 -1.1211
19127TIP3    H278797   5.588   5.191  11.343 -0.4477  1.0836 -1.3013
19128TIP3   OH278798   4.300   5.910  12.068  0.4188  0.1197  1.1632
19128TIP3    H178799   4.213   5.940  12.095 -0.2572 -1.0912  0.4260
19128TIP3    H278800   4.296   5.815  12.075  1.7929  0.0578  1.3817
19129TIP3   OH278801   2.324   2.005  11.286  0.4411 -0.1987 -0.0029
19129TIP3    H178802   2.388   2.075  11.267  2.2840 -0.8666  3.0636
19129TIP3    H278803   2.377   1.928  11.303 -1.4048 -1.6178 -0.3745
19130TIP3   OH278804   5.391   1.341   4.535  0.0145  0.1352  0.3118
19130TIP3    H178805   5.355   1.280   4.599 -0.1212  1.1182  1.2001
19130TIP3    H278806   5.429   1.285   4.467  1.2421 -0.9591  1.8432
19131TIP3   OH278807   1.592   1.658   5.007  0.1667 -0.0057 -0.4593
19131TIP3    H178808   1.565   1.748   4.992  0.4543 -0.1550 -2.0260
19131TIP3    H278809   1.522   1.620   5.060  0.0689  1.1384  0.2559
19132TIP3   OH278810   4.140   0.492   0.106  0.3100  0.1682 -0.4745
19132TIP3    H178811   4.087   0.505   0.185  0.6098  1.3391 -0.4389
19132TIP3    H278812   4.195   0.417   0.126 -1.8946 -1.6516 -0.8399
19133TIP3   OH278813   5.320   3.716   4.106  0.1430  0.0098 -0.5919
19133TIP3    H178814   5.366   3.665   4.172  0.5605 -0.8311 -1.5149
19133TIP3    H278815   5.321   3.806   4.140 -0.7844 -0.5771  1.1655
19134TIP3   OH278816   5.181   3.618  12.095 -0.7194 -0.3394 -0.2655
19134TIP3    H178817   5.094   3.596  12.127 -0.3361 -1.8996 -0.2094
19134TIP3    H278818   5.200   3.550  12.030  1.2357 -1.2351  1.1445
19135TIP3   OH278819   3.754   6.137   2.191 -0.5663  0.3652 -0.0516
19135TIP3    H178820   3.718   6.213   2.145  1.5192  1.3936 -0.1043
19135TIP3    H278821   3.753   6.162   2.283 -2.2712 -0.6261  0.2315
19136TIP3   OH278822   2.230   1.721   5.198 -0.6946 -0.0603  0.1209
19136TIP3    H178823   2.177   1.702   5.275 -0.5339 -0.0328  0.2371
19136TIP3    H278824   2.272   1.638   5.177 -0.9216 -0.1269 -0.0777
19137TIP3   OH278825   3.552   4.113   3.198 -0.2223 -0.2095 -0.3636
19137TIP3    H178826   3.598   4.170   3.259  0.7965  0.3800 -1.6320
19137TIP3    H278827   3.571   4.024   3.228 -4.1621 -0.1128  3.3978
19138TIP3   OH278828   0.181   0.960  13.536  0.2782  0.0808 -0.9104
19138TIP3    H178829   0.220   1.012  13.466  2.3394 -0.7333 -0.4189
19138TIP3    H278830   0.141   0.885  13.491  0.4811  0.2136 -1.3137
19139TIP3   OH278831   4.977   4.169   1.610  0.4201  0.3248 -0.2461
19139TIP3    H178832   4.972   4.169   1.705 -2.1166  0.1829 -0.3102
19139TIP3    H278833   4.900   4.120   1.582  0.5991  1.1607 -2.3999
19140TIP3   OH278834   5.804   4.694  16.973  0.4632  0.4970  0.0542
19140TIP3    H178835   5.872   4.675  17.037  1.7927 -1.0676 -1.7023
19140TIP3    H278836   5.852   4.715  16.893 -1.1401  1.2100 -0.7638
19141TIP3   OH278837   0.288   4.499   4.490 -0.5252 -0.6968 -0.6521
19141TIP3    H178838   0.235   4.423   4.463 -1.5431  0.6430 -2.6824
19141TIP3    H278839   0.354   4.507   4.420 -0.4523  0.2991 -0.4733
19142TIP3   OH278840   1.604   0.979  12.821 -0.0227  0.0279  0.2483
19142TIP3    H178841   1.531   0.949  12.875 -0.3581 -1.7278 -1.0699
19142TIP3    H278842   1.682   0.941  12.862  0.0058  0.7958  0.9086
19143TIP3   OH278843   1.879   0.991  12.354 -0.0037 -0.1198 -0.0672
19143TIP3    H178844   1.864   0.966  12.446  0.0007 -0.1203 -0.0667
19143TIP3    H278845   1.925   1.075  12.360 -0.3174  0.0517 -0.0730
19144TIP3   OH278846   5.143   2.198   3.503 -0.5251  0.2362 -0.0584
19144TIP3    H178847   5.173   2.123   3.555 -0.1399 -0.8721 -1.7719
19144TIP3    H278848   5.091   2.159   3.433  0.7848  1.4018 -1.7850
19145TIP3   OH278849   5.712   3.713   2.078  0.0562 -0.3350  0.4729
19145TIP3    H178850   5.794   3.751   2.048  0.0908 -0.5683  0.2652
19145TIP3    H278851   5.717   3.621   2.053 -1.2622  0.1115 -1.7343
19146TIP3   OH278852   0.540   3.290   2.874  0.0586 -0.4585  0.0054
19146TIP3    H178853   0.534   3.381   2.903 -2.2859 -0.8752  0.9653
19146TIP3    H278854   0.580   3.296   2.787 -1.8049  1.6952 -0.8014
19147TIP3   OH278855   5.406   1.775   0.382  0.2386 -0.3202 -0.2838
19147TIP3    H178856   5.316   1.743   0.379  0.1188 -0.0446  0.1577
19147TIP3    H278857   5.446   1.742   0.302 -0.6386  0.6862 -1.1789
19148TIP3   OH278858   5.723   4.082  12.935 -0.4442  0.0409  0.1132
19148TIP3    H178859   5.736   4.158  12.991  0.8045 -0.7942  1.0095
19148TIP3    H278860   5.809   4.064  12.897 -0.5607 -1.2583  0.3927
19149TIP3   OH278861   5.735   0.645   5.702 -0.1806 -0.3412  0.2507
19149TIP3    H178862   5.748   0.631   5.609  1.7658  0.7918  0.2924
19149TIP3    H278863   5.646   0.614   5.720 -0.6630 -0.3746 -2.0077
19150TIP3   OH278864   5.203   5.557   2.990 -0.0651 -0.0732  0.2516
19150TIP3    H178865   5.153   5.578   2.911 -1.4921 -0.5137  1.0037
19150TIP3    H278866   5.224   5.464   2.982  1.6987  0.3508 -0.6005
19151TIP3   OH278867   3.231   5.182   6.151 -0.1131 -0.2273  0.6684
19151TIP3    H178868   3.147   5.157   6.188 -1.0892  1.5098 -0.2497
19151TIP3    H278869   3.252   5.113   6.089 -0.6093 -0.9244  1.2650
19152TIP3   OH278870   4.482   1.406   5.676  0.3751 -0.4552 -0.1602
19152TIP3    H178871   4.527   1.484   5.644 -0.4310  0.1903  0.2602
19152TIP3    H278872   4.434   1.372   5.601  1.0855 -0.8268 -0.4627
19153TIP3   OH278873   4.106   0.278   5.079  0.6158  0.0926  0.4166
19153TIP3    H178874   4.037   0.293   5.143  0.8431  2.5948  0.1563
19153TIP3    H278875   4.142   0.365   5.061  0.5657 -0.4809 -3.1082
19154TIP3   OH278876   5.124   6.323   5.126 -0.1772  0.2288  0.1972
19154TIP3    H178877   5.082   6.261   5.066  1.1394 -0.7368  0.2416
19154TIP3    H278878   5.170   6.269   5.189  3.0106  1.1663 -1.1620
19155TIP3   OH278879   3.586   4.280   0.833 -0.3130  0.2210  0.3662
19155TIP3    H178880   3.661   4.224   0.812 -0.6243  0.4797 -1.6150
19155TIP3    H278881   3.517   4.219   0.859  0.0842 -0.1307  0.6168
19156TIP3   OH278882   1.025   1.232  15.763  0.1468 -0.5085  0.0983
19156TIP3    H178883   1.026   1.322  15.731  0.3366  0.1672  1.8893
19156TIP3    H278884   1.094   1.229  15.830 -0.6140 -1.6640  0.8784
19157TIP3   OH278885   0.494   0.178  16.851 -0.6123  0.6265  0.6858
19157TIP3    H178886   0.577   0.205  16.811 -1.2039  1.4540  0.0032
19157TIP3    H278887   0.517   0.100  16.902  0.5753  0.8169  0.4686
19158TIP3   OH278888   3.068   2.685   4.519  0.4718 -0.0309 -0.4493
19158TIP3    H178889   2.989   2.639   4.490  0.9855 -0.8824 -0.5433
19158TIP3    H278890   3.092   2.742   4.445 -1.1655  1.7647  0.3349
19159TIP3   OH278891   3.251   2.412  15.048  0.3740 -0.4295 -0.5201
19159TIP3    H178892   3.242   2.321  15.020 -0.1117 -0.6520  0.3235
19159TIP3    H278893   3.198   2.418  15.128  1.6380  0.2040  0.2961
19160TIP3   OH278894   4.363   1.133   2.688 -0.0280  0.5580 -0.3356
19160TIP3    H178895   4.307   1.079   2.744  1.0332  0.7733  1.0001
19160TIP3    H278896   4.302   1.177   2.628 -0.9943 -1.3428 -0.8205
19161TIP3   OH278897   3.673   6.636   2.640  0.2131  0.3227  0.5474
19161TIP3    H178898   3.707   6.557   2.598 -1.0937  1.3109 -2.6604
19161TIP3    H278899   3.579   6.621   2.648  0.2102  0.8310  1.7437
19162TIP3   OH278900   1.095   2.477   3.226  0.1985 -0.5171 -0.2919
19162TIP3    H178901   1.016   2.474   3.172  0.1306  0.9095 -0.3157
19162TIP3    H278902   1.067   2.445   3.312  0.2793 -2.6773 -1.0157
19163TIP3   OH278903   4.432   4.370   1.964 -0.4443  0.1772  0.2640
19163TIP3    H178904   4.343   4.348   1.938 -0.5493  2.1610 -1.3037
19163TIP3    H278905   4.425   4.457   2.004  0.6946  0.0022  0.8948
19164TIP3   OH278906   5.805   1.503  15.784  0.9122 -0.1333 -0.4053
19164TIP3    H178907   5.757   1.534  15.860  2.8265 -0.1246  0.8693
19164TIP3    H278908   5.804   1.408  15.791  0.1781 -0.1814 -0.9952
19165TIP3   OH278909   2.577   5.914  16.544 -0.5040  0.0350  0.1673
19165TIP3    H178910   2.530   5.897  16.626  0.3395 -0.4828  0.5513
19165TIP3    H278911   2.669   5.909  16.567 -0.2286  2.0503 -0.3755
19166TIP3   OH278912   0.282   4.822   0.827 -0.8198  0.1562 -0.0999
19166TIP3    H178913   0.292   4.916   0.813 -0.7427  0.0707 -0.6918
19166TIP3    H278914   0.213   4.796   0.766  1.3658 -0.6962 -2.4157
19167TIP3   OH278915   0.790   2.406  15.369 -0.2099  0.2087 -0.2168
19167TIP3    H178916   0.859   2.466  15.341 -0.1975  0.8900  1.1945
19167TIP3    H278917   0.743   2.454  15.438  0.0486 -1.5320  1.2432
19168TIP3   OH278918   0.108   1.161  17.213 -0.4158 -0.1433 -0.3548
19168TIP3    H178919   0.184   1.214  17.236 -0.8864 -0.0761  1.2131
19168TIP3    H278920   0.116   1.083  17.269 -1.4328 -0.1779 -0.2418
19169TIP3   OH278921   0.694   3.289  17.158  0.6475  0.7994  0.0266
19169TIP3    H178922   0.603   3.259  17.166  1.1230 -0.4436  1.0826
19169TIP3    H278923   0.722   3.305  17.248  1.1006  2.4581 -0.3617
19170TIP3   OH278924   6.250   5.243  15.586 -0.0451 -0.1740 -0.0148
19170TIP3    H178925   6.312   5.298  15.537  3.6653 -2.2534  1.9155
19170TIP3    H278926   6.206   5.304  15.645  0.0553  1.4235 -1.4996
19171TIP3   OH278927   0.356   5.292   1.786  0.5227  0.0046 -0.2014
19171TIP3    H178928   0.383   5.200   1.784 -0.6035 -0.3411  0.1815
19171TIP3    H278929   0.436   5.341   1.764  0.6377 -1.1604 -2.7110
19172TIP3   OH278930   3.821   5.652   3.857 -0.3948 -0.3462  0.3590
19172TIP3    H178931   3.854   5.673   3.945 -0.7034  1.6559  0.0496
19172TIP3    H278932   3.738   5.607   3.873 -0.7109  0.4717  1.1081
19173TIP3   OH278933   2.111   3.730   5.478 -0.0801 -0.1538 -0.1778
19173TIP3    H178934   2.132   3.817   5.442  0.4208 -0.0441  0.3625
19173TIP3    H278935   2.097   3.675   5.401  1.4244 -0.0347 -0.5727
19174TIP3   OH278936   0.642   4.037   1.042 -0.3306 -0.1856  0.1161
19174TIP3    H178937   0.687   3.952   1.038  1.4563  0.7549 -1.5776
19174TIP3    H278938   0.612   4.052   0.952 -0.6700  0.9631  0.4036
19175TIP3   OH278939   5.914   6.234   0.653 -0.0197  0.0549  0.5482
19175TIP3    H178940   5.906   6.301   0.585 -0.9252 -1.2900 -0.7261
19175TIP3    H278941   5.881   6.276   0.732  1.5900  1.8408  0.3384
19176TIP3   OH278942   3.570   1.292  17.108  0.1800 -0.1883  0.2308
19176TIP3    H178943   3.491   1.243  17.084 -0.3279  0.1470  1.1815
19176TIP3    H278944   3.538   1.363  17.164  1.2097 -0.3271  1.0224
19177TIP3   OH278945   6.734   3.436   3.312 -0.2673 -0.1698  0.1817
19177TIP3    H178946   6.658   3.492   3.325  0.8596  1.8676 -1.3424
19177TIP3    H278947   6.804   3.496   3.284  1.9832 -1.8959  1.7021
19178TIP3   OH278948   5.878   5.012   1.032 -0.2162  0.5655 -0.0731
19178TIP3    H178949   5.885   5.103   1.061  1.1402 -0.0597  1.7558
19178TIP3    H278950   5.810   4.974   1.088 -1.5962  0.6862 -1.5963
19179TIP3   OH278951   3.497   3.443  12.388  0.0513 -0.1987  0.0063
19179TIP3    H178952   3.573   3.446  12.330 -0.6625  0.5329 -0.9191
19179TIP3    H278953   3.452   3.362  12.363  0.4769 -0.6009  0.5125
19180TIP3   OH278954   2.515   3.558  13.831 -0.3823 -0.0495 -0.2614
19180TIP3    H178955   2.555   3.476  13.861 -0.8840  0.2155  1.2305
19180TIP3    H278956   2.457   3.531  13.760 -3.4467 -1.7008  2.5528
19181TIP3   OH278957   5.645   0.341  13.237 -0.0603  0.3535 -0.0687
19181TIP3    H178958   5.620   0.278  13.304 -0.3008  0.4237 -0.0916
19181TIP3    H278959   5.702   0.403  13.283 -1.3879  1.2425  0.4366
19182TIP3   OH278960   0.708   4.900  17.169  0.1524 -0.2049 -0.1518
19182TIP3    H178961   0.799   4.925  17.187  0.5136 -0.2419 -1.7814
19182TIP3    H278962   0.706   4.805  17.181  1.0892 -0.6605 -2.7579
19183TIP3   OH278963   4.167   3.506   3.656  0.2748 -0.3348  0.0107
19183TIP3    H178964   4.238   3.497   3.720 -0.0432  0.0525  0.4209
19183TIP3    H278965   4.096   3.549   3.704 -0.4261 -1.1549 -0.2595
19184TIP3   OH278966   5.432   1.975  13.692  0.2046 -0.7319  0.1115
19184TIP3    H178967   5.470   1.888  13.706  0.7719 -0.3513  0.9965
19184TIP3    H278968   5.392   1.970  13.605  1.8006 -1.3112 -0.6140
19185TIP3   OH278969   1.783   2.478  14.630  0.0478  0.6204 -0.3411
19185TIP3    H178970   1.695   2.459  14.662 -0.2023  2.2932  0.0246
19185TIP3    H278971   1.841   2.437  14.694 -0.4574  2.3986  1.3370
19186TIP3   OH278972   0.335   3.809   3.088  0.9045 -0.4242  0.2346
19186TIP3    H178973   0.376   3.771   3.010  2.1922  0.3290  0.5091
19186TIP3    H278974   0.407   3.853   3.133 -0.0392  0.0899  1.2761
19187TIP3   OH278975   4.133   5.462  14.328 -0.1706 -0.3644 -0.3312
19187TIP3    H178976   4.219   5.422  14.343  0.4084  0.7644 -0.5512
19187TIP3    H278977   4.102   5.486  14.415  0.1242 -0.0050 -0.3236
19188TIP3   OH278978   5.359   2.952   3.740  0.2761  0.1676  0.3175
19188TIP3    H178979   5.278   2.972   3.694 -0.6228 -0.5341  1.5424
19188TIP3    H278980   5.393   2.873   3.696 -1.6299 -1.7290  2.0060
19189TIP3   OH278981   3.079   1.908  10.924 -0.4780 -0.0108  0.1915
19189TIP3    H178982   3.002   1.965  10.926 -0.8104 -0.4639  0.4690
19189TIP3    H278983   3.094   1.885  11.016  1.2052  1.6616  0.4070
19190TIP3   OH278984   6.444   2.191  16.027 -0.0970  0.3379  0.3212
19190TIP3    H178985   6.353   2.186  15.997 -0.3519 -2.1886  1.2849
19190TIP3    H278986   6.485   2.111  15.995  1.8610  1.4469 -0.1402
19191TIP3   OH278987   6.717   6.111  14.987  0.0189 -0.2561 -0.0507
19191TIP3    H178988   6.721   6.175  15.058  2.7321 -0.7043  0.3206
19191TIP3    H278989   6.634   6.064  15.001 -1.1470  1.9075  0.7295
19192TIP3   OH278990   5.130   5.240  10.882 -0.5918  0.2539 -0.3499
19192TIP3    H178991   5.119   5.163  10.938  0.2561  0.9175  0.7814
19192TIP3    H278992   5.214   5.277  10.908 -1.1906  1.8305 -0.5141
19193TIP3   OH278993   4.151   1.917  16.334 -0.2857  0.2460  0.5304
19193TIP3    H178994   4.118   1.966  16.259  0.1180 -0.2728 -0.0043
19193TIP3    H278995   4.216   1.857  16.296 -1.0310 -0.9593  1.0970
19194TIP3   OH278996   1.896   4.473  16.129 -0.0528 -0.2361  0.1599
19194TIP3    H178997   1.882   4.452  16.037 -0.8730 -1.1333  0.4704
19194TIP3    H278998   1.971   4.532  16.129  0.0033 -0.2840 -1.0757
19195TIP3   OH278999   5.423   2.817   2.091 -0.1196  0.2420  0.2690
19195TIP3    H179000   5.394   2.897   2.047 -1.8819 -0.1533  0.6506
19195TIP3    H279001   5.387   2.823   2.179  1.0307 -0.2737  0.7920
19196TIP3   OH279002   3.872   1.285  16.686  0.0498  0.3809  0.5770
19196TIP3    H179003   3.946   1.338  16.659 -0.1748  1.2539  1.6205
19196TIP3    H279004   3.874   1.287  16.781 -0.0221 -1.4270  0.6504
19197TIP3   OH279005   0.761   2.878  16.376  0.1735 -0.3913  0.2648
19197TIP3    H179006   0.714   2.832  16.446  0.6138 -1.7445 -0.2890
19197TIP3    H279007   0.837   2.822  16.357  0.3597  0.2261 -0.9133
19198TIP3   OH279008   4.249   5.785  15.902 -0.6314 -0.2566 -0.5659
19198TIP3    H179009   4.304   5.841  15.956 -1.3967  1.9490 -1.8963
19198TIP3    H279010   4.160   5.816  15.919 -1.1257 -1.3625 -1.0457
19199TIP3   OH279011   2.975   1.221  17.388 -0.2759 -0.3464  0.7979
19199TIP3    H179012   2.921   1.208  17.309  1.0018  0.7940 -0.3147
19199TIP3    H279013   2.914   1.257  17.452 -1.2184 -0.7406  0.1563
19200TIP3   OH279014   3.956   3.286   4.863 -0.2127  0.0960  0.0605
19200TIP3    H179015   3.873   3.244   4.884 -0.3798 -0.7965 -2.1380
19200TIP3    H279016   3.934   3.378   4.852 -0.3831  0.3359  2.0396
19201TIP3   OH279017   1.222   1.978  12.594 -0.2948  0.4228 -0.2292
19201TIP3    H179018   1.218   2.071  12.612 -2.5332  0.0278  1.7248
19201TIP3    H279019   1.263   1.972  12.507  0.5067  3.1275 -0.1259
19202TIP3   OH279020   1.796   5.511   4.270  0.0306  0.3286 -0.0776
19202TIP3    H179021   1.765   5.581   4.213  0.4965 -0.0451 -0.8064
19202TIP3    H279022   1.891   5.509   4.258  0.2114  0.5913  1.1290
19203TIP3   OH279023   2.306   0.905  15.357 -0.0891 -0.4319 -0.3561
19203TIP3    H179024   2.219   0.931  15.329 -0.7976 -3.1286 -0.9684
19203TIP3    H279025   2.361   0.919  15.280 -1.0121 -3.0030 -1.6276
19204TIP3   OH279026   2.487   1.996   1.698  0.7346 -0.2299  0.6204
19204TIP3    H179027   2.550   1.957   1.759  1.6009  0.7405  0.3811
19204TIP3    H279028   2.542   2.037   1.631 -0.1812 -0.1440 -0.0864
19205TIP3   OH279029   2.876   4.079   3.502 -0.2183 -0.2748 -0.9069
19205TIP3    H179030   2.895   4.049   3.413  0.8651 -1.6399 -0.2503
19205TIP3    H279031   2.908   4.009   3.559 -1.5664  0.2287  0.5456
19206TIP3   OH279032   2.815   5.254   3.952 -0.1124  0.2242  0.2167
19206TIP3    H179033   2.742   5.247   3.891 -0.8637  0.4745  1.0796
19206TIP3    H279034   2.837   5.347   3.953 -1.2065  0.4913  1.5849
19207TIP3   OH279035   1.489   5.545   6.383  0.4003 -0.3077 -0.1125
19207TIP3    H179036   1.509   5.512   6.471  2.1612  1.8472  0.3890
19207TIP3    H279037   1.572   5.539   6.336 -0.6627 -2.0643 -1.9434
19208TIP3   OH279038   5.983   5.207  15.890  0.0532  0.4797 -0.0686
19208TIP3    H179039   5.980   5.268  15.963 -0.0199 -0.0351  0.3700
19208TIP3    H279040   5.904   5.226  15.839  0.9467  1.9571 -0.9520
19209TIP3   OH279041   6.705   6.659  11.908  0.5686 -0.2196  0.0036
19209TIP3    H179042   6.781   6.601  11.917  1.4024  0.9140  0.3935
19209TIP3    H279043   6.740   6.747  11.918 -0.7875  0.3352  0.0617
19210TIP3   OH279044   3.458   4.520  12.783 -0.2364  0.0409  0.0387
19210TIP3    H179045   3.428   4.444  12.732  0.3656 -0.1483 -0.0421
19210TIP3    H279046   3.435   4.498  12.874 -0.2799 -0.1313 -0.0134
19211TIP3   OH279047   4.109   2.209   2.705  0.5635  0.0672 -0.2645
19211TIP3    H179048   4.155   2.280   2.660 -0.5807  0.5453 -0.7154
19211TIP3    H279049   4.083   2.150   2.635  1.6290 -0.8959  0.1238
19212TIP3   OH279050   0.169   2.526   5.470 -0.1738 -0.3730 -0.0599
19212TIP3    H179051   0.100   2.528   5.535 -0.0781  1.2929  0.0373
19212TIP3    H279052   0.124   2.533   5.386 -0.2385 -1.5218 -0.1300
19213TIP3   OH279053   0.409   1.194   4.310  0.2347 -0.6767  0.1015
19213TIP3    H179054   0.339   1.158   4.256 -4.2678  2.3037  3.2355
19213TIP3    H279055   0.409   1.139   4.388  1.8036 -0.8885 -0.0185
19214TIP3   OH279056   6.686   5.217  12.467  0.2588 -0.3677 -0.0529
19214TIP3    H179057   6.612   5.203  12.526  0.3032  2.3640  0.8237
19214TIP3    H279058   6.732   5.133  12.466 -2.5648 -2.0461 -0.3355
19215TIP3   OH279059   0.830   3.859  13.448 -0.0799 -0.4173 -0.1175
19215TIP3    H179060   0.831   3.917  13.372 -1.8623  0.1438  0.2526
19215TIP3    H279061   0.740   3.861  13.479  0.1605 -2.1783  0.8539
19216TIP3   OH279062   0.718   2.911   2.208  0.3349  0.1996  0.3603
19216TIP3    H179063   0.722   2.889   2.115  0.4894  1.4741  0.0421
19216TIP3    H279064   0.691   3.003   2.209 -0.6265 -0.0739  1.6091
19217TIP3   OH279065   6.089   3.035  13.679 -0.4166 -0.5360  0.1151
19217TIP3    H179066   6.105   3.031  13.585  0.6682 -0.1101  0.2703
19217TIP3    H279067   6.053   3.123  13.694 -1.7128 -1.0069 -0.0383
19218TIP3   OH279068   5.194   3.987   1.506  0.2111  0.1846 -0.3550
19218TIP3    H179069   5.119   4.046   1.516  0.3932  0.4734 -0.6991
19218TIP3    H279070   5.266   4.044   1.477  0.4371 -0.1725 -0.4982
19219TIP3   OH279071   3.318   4.011  15.385  0.5579  0.1908 -0.2497
19219TIP3    H179072   3.293   3.934  15.334  0.2347  1.1938 -1.6779
19219TIP3    H279073   3.413   4.002  15.397  0.2570 -1.3506  1.2448
19220TIP3   OH279074   3.510   2.262  16.414  0.4588 -0.4233 -0.2127
19220TIP3    H179075   3.469   2.306  16.339  0.8588 -1.2336 -0.9283
19220TIP3    H279076   3.444   2.267  16.483  1.0538  2.6344  0.2765
19221TIP3   OH279077   6.469   1.586  15.833  0.1145 -0.4351  0.1723
19221TIP3    H179078   6.392   1.630  15.797  0.2966 -1.2425 -1.2898
19221TIP3    H279079   6.529   1.579  15.759  2.9535  2.8784  1.8721
19222TIP3   OH279080   0.629   2.937  13.865 -0.4122  0.6745  0.5011
19222TIP3    H179081   0.542   2.974  13.882 -1.3707 -1.6134  0.9920
19222TIP3    H279082   0.636   2.865  13.927  0.4252 -1.2933 -1.7618
19223TIP3   OH279083   4.023   2.335  14.156  0.3310  0.1748 -0.1790
19223TIP3    H179084   4.103   2.283  14.166  0.6008  0.4366 -0.9187
19223TIP3    H279085   3.952   2.272  14.168  0.6212  0.0304  0.9819
19224TIP3   OH279086   4.692   1.108   3.604 -0.1447 -0.4362  0.1378
19224TIP3    H179087   4.780   1.073   3.591 -0.2671 -0.7520  0.1430
19224TIP3    H279088   4.641   1.033   3.635 -0.9665 -0.8135 -2.0145
19225TIP3   OH279089   4.913   3.600   3.782 -0.6565  0.0822  0.1124
19225TIP3    H179090   4.972   3.582   3.708 -0.5609 -1.9184  0.6102
19225TIP3    H279091   4.968   3.643   3.847 -0.0785 -0.5294  0.0369
19226TIP3   OH279092   4.182   4.224   3.446 -0.1648  0.3457  0.3378
19226TIP3    H179093   4.171   4.136   3.411 -1.1857  1.3221 -2.0666
19226TIP3    H279094   4.275   4.231   3.464  0.3734 -0.4762 -1.7879
19227TIP3   OH279095   2.971   6.184  16.551  0.4150  0.0175  0.4584
19227TIP3    H179096   3.020   6.240  16.612 -0.0544 -1.5012  2.3519
19227TIP3    H279097   2.879   6.201  16.573  0.1959  0.2559 -0.6226
19228TIP3   OH279098   3.397   6.444   0.676 -0.0177 -0.1268 -0.2777
19228TIP3    H179099   3.339   6.474   0.746  0.0524 -0.2162 -0.1802
19228TIP3    H279100   3.339   6.424   0.604 -0.2779 -1.7245  0.3369
19229TIP3   OH279101   5.225   5.332   0.914  0.0287 -0.1175 -0.8824
19229TIP3    H179102   5.131   5.313   0.915  0.1937 -1.1702 -2.2647
19229TIP3    H279103   5.266   5.250   0.886  1.5495 -0.2997  1.6133
19230TIP3   OH279104   1.272   2.808   3.898  0.1418 -0.4887  0.7685
19230TIP3    H179105   1.322   2.729   3.879  0.1843 -0.0093 -1.3385
19230TIP3    H279106   1.207   2.781   3.963  0.5557 -2.0870  0.5481
19231TIP3   OH279107   5.025   4.376   3.117  0.3157  0.2321  0.0038
19231TIP3    H179108   5.097   4.315   3.131  1.3911  1.6305  0.8836
19231TIP3    H279109   5.043   4.448   3.178 -1.8338  0.6254  0.2344
19232TIP3   OH279110   3.418   3.208   2.508 -0.3107 -0.1636 -0.2720
19232TIP3    H179111   3.469   3.262   2.567 -0.8861 -0.3763  0.4325
19232TIP3    H279112   3.479   3.141   2.477  0.1527  0.3195 -0.4120
19233TIP3   OH279113   1.770   1.590   0.409 -0.1146  0.0770  0.1626
19233TIP3    H179114   1.678   1.566   0.422 -0.4777  1.1141 -0.3597
19233TIP3    H279115   1.789   1.564   0.319  0.4717 -1.2109  0.6365
19234TIP3   OH279116   3.893   4.519   1.320  0.2672 -0.2408  0.1919
19234TIP3    H179117   3.848   4.583   1.264 -0.2534 -0.7513  0.0214
19234TIP3    H279118   3.860   4.537   1.408  1.3751  0.8206  0.4291
19235TIP3   OH279119   6.081   4.157  14.509 -0.8928 -0.0452  0.6197
19235TIP3    H179120   6.026   4.202  14.444  1.0705 -0.4466 -1.4403
19235TIP3    H279121   6.070   4.064  14.489 -0.0315 -0.1570  0.6194
19236TIP3   OH279122   1.566   1.023   0.538  0.6010 -0.6376  0.4074
19236TIP3    H179123   1.484   0.983   0.568  0.5717  0.1777  1.4789
19236TIP3    H279124   1.620   0.948   0.511 -0.6506 -1.1566 -0.7841
19237TIP3   OH279125   0.208   1.339   0.066 -0.0462 -0.5070 -0.6021
19237TIP3    H179126   0.176   1.336   0.156 -4.1532 -1.4516 -1.9028
19237TIP3    H279127   0.154   1.276   0.019  2.1962 -0.3463 -3.7397
19238TIP3   OH279128   0.950   0.709   3.517 -0.6064 -0.5224 -0.1275
19238TIP3    H179129   0.858   0.693   3.539 -0.6706 -0.9457 -0.6845
19238TIP3    H279130   0.983   0.762   3.590 -1.1441 -0.8374  0.3538
19239TIP3   OH279131   2.596   4.952  11.332  0.2067 -0.0116 -0.5074
19239TIP3    H179132   2.544   5.018  11.285  1.0831  1.3586  0.3497
19239TIP3    H279133   2.626   4.892  11.264 -0.4959  0.5481 -1.3427
19240TIP3   OH279134   4.284   3.984  14.281  0.1164 -0.1770 -0.1940
19240TIP3    H179135   4.238   4.069  14.285 -0.6844 -0.4902 -1.7137
19240TIP3    H279136   4.314   3.968  14.370 -2.1468  0.3940  0.7286
19241TIP3   OH279137   4.696   1.974  15.717 -0.0522  0.6806  0.0436
19241TIP3    H179138   4.636   1.945  15.649 -1.4397  0.8939  1.1275
19241TIP3    H279139   4.727   1.893  15.758 -0.9968  0.5942  0.6196
19242TIP3   OH279140   6.377   5.228   6.496 -0.3370 -0.0790  0.2440
19242TIP3    H179141   6.465   5.231   6.457 -0.3986 -0.1918  0.0919
19242TIP3    H279142   6.375   5.146   6.545 -0.9694 -1.0116 -1.2547
19243TIP3   OH279143   0.082   1.591  12.414 -0.1329  0.6503 -0.0198
19243TIP3    H179144   0.039   1.645  12.348  1.2533  0.5590 -1.0414
19243TIP3    H279145   0.095   1.649  12.488 -0.7032  1.0816 -0.2521
19244TIP3   OH279146   5.118   4.948   4.656  0.1670  0.1837 -0.1531
19244TIP3    H179147   5.034   4.947   4.611  0.4734  0.1960 -0.7394
19244TIP3    H279148   5.117   5.030   4.706  0.2007  0.6462 -0.8905
19245TIP3   OH279149   5.152   5.862  14.526  0.3058 -0.4069 -0.2412
19245TIP3    H179150   5.082   5.927  14.539  1.3438  0.4033  1.7294
19245TIP3    H279151   5.216   5.907  14.471  0.4190 -0.2426  0.0239
19246TIP3   OH279152   4.856   6.183  15.317  0.2145  0.2807 -0.5258
19246TIP3    H179153   4.922   6.114  15.304 -0.5543 -0.8269  1.0420
19246TIP3    H279154   4.838   6.216  15.229  0.6324 -1.5025 -1.3285
19247TIP3   OH279155   3.266   3.461   1.147 -0.3453 -0.0246 -0.3336
19247TIP3    H179156   3.205   3.395   1.179 -0.3946 -0.3846 -1.1295
19247TIP3    H279157   3.337   3.462   1.211 -1.2795  0.5634  0.7310
19248TIP3   OH279158   2.584   5.453  14.536  0.6220 -0.6585  0.6317
19248TIP3    H179159   2.499   5.468  14.494  0.2136 -1.8102  1.0201
19248TIP3    H279160   2.611   5.366  14.505  0.5167 -1.3514  2.4134
19249TIP3   OH279161   2.988   0.058   2.006 -0.0970  0.3946 -0.0265
19249TIP3    H179162   2.916   0.024   2.059  1.1917  1.0413  2.3041
19249TIP3    H279163   3.039   0.112   2.067  2.7187 -0.5315 -1.3791
19250TIP3   OH279164   0.696   0.203   2.574  0.1315  0.6542 -0.3737
19250TIP3    H179165   0.664   0.222   2.485  1.2100  2.2189 -0.4730
19250TIP3    H279166   0.787   0.234   2.574  0.0067  1.1257  1.4230
19251TIP3   OH279167   3.845   6.113  11.627  0.6707 -0.4880  0.0890
19251TIP3    H179168   3.836   6.205  11.601  1.4270 -0.2551  0.6113
19251TIP3    H279169   3.831   6.064  11.546 -0.1656  0.0655 -0.1122
19252TIP3   OH279170   0.825   1.731   0.500 -0.1764  0.1545  0.4505
19252TIP3    H179171   0.848   1.655   0.446  0.2569 -0.5064  1.5088
19252TIP3    H279172   0.760   1.697   0.561  0.2697  0.5359  1.1550
19253TIP3   OH279173   2.146   5.705  13.225  0.3806  0.5902 -0.2862
19253TIP3    H179174   2.148   5.609  13.234 -0.5289  0.5963  0.1067
19253TIP3    H279175   2.238   5.730  13.216  0.8911 -0.1000  2.1481
19254TIP3   OH279176   6.229   5.898  10.687  0.1203  0.1024  0.5213
19254TIP3    H179177   6.260   5.810  10.704  0.8131  0.0760 -0.7634
19254TIP3    H279178   6.133   5.891  10.689  0.1502 -0.2624  2.2980
19255TIP3   OH279179   2.415   5.117   6.422  0.2851 -0.9078  0.6089
19255TIP3    H179180   2.475   5.122   6.347 -0.2667 -1.0484  0.1529
19255TIP3    H279181   2.402   5.023   6.436  0.3987 -0.8810  0.8906
19256TIP3   OH279182   4.417   4.204   4.879  0.0492 -0.1331 -0.2423
19256TIP3    H179183   4.424   4.299   4.872 -0.1729  0.1496  2.4237
19256TIP3    H279184   4.467   4.182   4.958 -1.4164 -2.0112  0.2405
19257TIP3   OH279185   1.603   6.507   0.334 -0.1166 -0.1542 -0.2126
19257TIP3    H179186   1.580   6.598   0.314 -0.4577 -0.0914  0.4219
19257TIP3    H279187   1.696   6.501   0.316  0.1034  0.5765  0.6235
19258TIP3   OH279188   5.607   2.881   1.264 -0.1393 -0.0496  0.1072
19258TIP3    H179189   5.640   2.889   1.175  0.1132 -0.5266  0.1569
19258TIP3    H279190   5.544   2.809   1.261 -0.6771  0.4095  0.1612
19259TIP3   OH279191   2.074   5.809  15.161 -0.1932 -0.4678 -0.2313
19259TIP3    H179192   2.004   5.832  15.100  0.2615 -0.4600 -0.7590
19259TIP3    H279193   2.146   5.866  15.137 -0.0869 -0.2952  0.4795
19260TIP3   OH279194   1.643   5.867   3.844 -0.1860  0.2333 -0.2464
19260TIP3    H179195   1.564   5.813   3.853  0.5270 -0.6970  0.5499
19260TIP3    H279196   1.670   5.854   3.753 -0.6572  0.1607 -0.3820
19261TIP3   OH279197   5.689   2.227   3.527 -0.7123 -0.2987  0.3418
19261TIP3    H179198   5.711   2.138   3.554 -2.8212 -0.7663  0.6835
19261TIP3    H279199   5.654   2.218   3.438 -0.3246  0.3102  0.1114
19262TIP3   OH279200   3.887   3.969   3.162  0.4528 -0.2949 -0.0150
19262TIP3    H179201   3.851   3.969   3.073 -0.3511  0.2109  0.2923
19262TIP3    H279202   3.971   3.926   3.154  0.9322  0.7955 -1.2543
19263TIP3   OH279203   4.817   5.380  15.647 -0.3812 -0.0574 -0.3065
19263TIP3    H179204   4.748   5.417  15.702 -0.3870  0.5197 -0.6937
19263TIP3    H279205   4.801   5.286  15.648 -1.3454  0.0951 -0.6217
19264TIP3   OH279206   2.952   0.110   3.865 -0.2013 -0.0653  0.5930
19264TIP3    H179207   2.902   0.191   3.857 -1.1284 -0.6359  0.4696
19264TIP3    H279208   2.922   0.056   3.792  0.7278 -0.3641  0.4138
19265TIP3   OH279209   0.187   0.766  14.465 -0.1936  0.0209 -0.0690
19265TIP3    H179210   0.166   0.851  14.424 -0.8490 -0.8383 -1.6014
19265TIP3    H279211   0.120   0.755  14.532 -1.4185 -0.1935 -1.2680
19266TIP3   OH279212   5.775   3.422   5.547  0.1986  0.2100  0.4264
19266TIP3    H179213   5.726   3.500   5.519  1.1092  0.6735  0.0828
19266TIP3    H279214   5.841   3.410   5.479  2.8499  1.6808  2.5349
19267TIP3   OH279215   4.717   6.423   3.710  0.0891  0.2474  0.0659
19267TIP3    H179216   4.717   6.434   3.615  0.2377  1.2938  0.1732
19267TIP3    H279217   4.803   6.457   3.737  0.0954 -0.1590  0.5648
19268TIP3   OH279218   4.282   4.538   1.170 -0.4137  0.0582  0.0962
19268TIP3    H179219   4.255   4.628   1.191 -0.0027  0.1155  0.3805
19268TIP3    H279220   4.339   4.547   1.094 -0.9720 -0.0375 -0.3395
19269TIP3   OH279221   5.876   4.979  14.787  0.1966 -0.0785 -0.4459
19269TIP3    H179222   5.900   4.994  14.878  0.8443 -0.1410 -0.6071
19269TIP3    H279223   5.907   4.890  14.768  0.0207 -0.0852 -0.7182
19270TIP3   OH279224   2.680   6.009   0.406 -0.1217  0.1337  0.2922
19270TIP3    H179225   2.605   5.965   0.447  1.4327 -0.7713  2.3211
19270TIP3    H279226   2.720   6.060   0.476  0.8819  1.0305 -0.8815
19271TIP3   OH279227   3.987   0.421  15.827  0.1785  0.8633 -0.2479
19271TIP3    H179228   4.064   0.475  15.811 -0.3689  1.8012  0.2290
19271TIP3    H279229   3.976   0.423  15.922 -0.5589  0.9073 -0.3311
19272TIP3   OH279230   1.716   1.516  13.103  0.0991 -0.2178 -0.2271
19272TIP3    H179231   1.729   1.529  13.197  0.0415 -0.1273 -0.2313
19272TIP3    H279232   1.800   1.542  13.064  0.4991 -1.3219 -0.1167
19273TIP3   OH279233   5.913   4.936   5.687 -0.5657 -0.0814  0.0966
19273TIP3    H179234   5.873   5.012   5.645  0.5022 -0.4547 -1.6619
19273TIP3    H279235   5.907   4.866   5.622 -0.1509 -1.0816  1.1053
19274TIP3   OH279236   0.869   5.001  16.873  0.7006  0.2994 -0.1014
19274TIP3    H179237   0.877   5.015  16.778  2.1842 -1.1232 -0.2292
19274TIP3    H279238   0.959   4.984  16.902  0.1625 -0.0563  1.4444
19275TIP3   OH279239   6.356   3.432  14.638  0.2748 -0.2450  0.6365
19275TIP3    H179240   6.347   3.417  14.732  1.3153 -0.6262  0.6917
19275TIP3    H279241   6.302   3.365  14.597 -0.5136  0.1820  0.9594
19276TIP3   OH279242   6.280   3.690  12.111 -0.5995  0.0346 -0.5000
19276TIP3    H179243   6.186   3.674  12.103 -0.2708 -2.2347 -0.4903
19276TIP3    H279244   6.321   3.630  12.048  0.9072 -0.8812  1.2272
19277TIP3   OH279245   4.905   1.997  12.358 -0.8071  0.1986 -0.0552
19277TIP3    H179246   4.875   1.930  12.420  1.1462 -0.7455 -0.0551
19277TIP3    H279247   4.915   1.951  12.275  1.0574  0.3190  0.0655
19278TIP3   OH279248   4.618   5.816  13.513  0.1330 -0.1184  0.3306
19278TIP3    H179249   4.524   5.819  13.528  0.0969 -1.0785  0.3095
19278TIP3    H279250   4.650   5.897  13.553 -0.7612  0.5021 -0.1724
19279TIP3   OH279251   6.316   5.275  14.571 -0.2518 -0.6231 -0.4333
19279TIP3    H179252   6.370   5.334  14.624  0.0764 -1.5211  0.2524
19279TIP3    H279253   6.357   5.276  14.484 -0.7944  0.8599 -0.7046
19280TIP3   OH279254   1.717   5.094  16.654  0.2560 -0.6830 -0.2615
19280TIP3    H179255   1.631   5.061  16.680  0.5463 -1.4192 -0.1944
19280TIP3    H279256   1.707   5.119  16.563 -0.5075  0.9803  0.2453
19281TIP3   OH279257   0.304   4.672   5.308  0.4486 -0.2817  0.3285
19281TIP3    H179258   0.238   4.687   5.376  0.8629 -2.4530  1.2969
19281TIP3    H279259   0.255   4.629   5.237  0.0087  2.0153 -0.8412
19282TIP3   OH279260   2.969   3.746   3.792  0.6218 -0.0264  0.6140
19282TIP3    H179261   3.007   3.801   3.861  0.4534 -1.6597  2.1017
19282TIP3    H279262   3.041   3.728   3.733  0.9354  0.8904  0.7049
19283TIP3   OH279263   1.216   0.997   4.044  0.3088  0.5164 -0.2597
19283TIP3    H179264   1.202   0.906   4.018  2.5169  0.2030 -0.5543
19283TIP3    H279265   1.135   1.022   4.089 -0.1504 -1.7492  0.2912
19284TIP3   OH279266   3.398   2.172   3.827  0.4714  0.2543  0.1032
19284TIP3    H179267   3.348   2.253   3.835  1.2003  0.6304  0.9515
19284TIP3    H279268   3.371   2.120   3.903 -0.9876 -0.8789 -1.1325
19285TIP3   OH279269   3.770   1.649  14.651 -0.1815  0.3596  0.0586
19285TIP3    H179270   3.853   1.669  14.694  0.6216 -0.7874 -0.8851
19285TIP3    H279271   3.719   1.731  14.657  0.6646  0.8103  1.3968
19286TIP3   OH279272   3.780   4.564  16.437 -0.3119  0.2447 -0.5230
19286TIP3    H179273   3.795   4.659  16.439 -1.5452  0.4556 -0.6461
19286TIP3    H279274   3.868   4.526  16.445  0.1209  1.3825  0.3426
19287TIP3   OH279275   1.191   4.643  11.897 -0.0493  0.1910 -0.1950
19287TIP3    H179276   1.193   4.555  11.858 -0.0993 -1.0163  2.3186
19287TIP3    H279277   1.272   4.684  11.869 -0.0260 -0.6505 -1.4299
19288TIP3   OH279278   6.309   4.443  15.974 -0.1513  0.4241 -0.3281
19288TIP3    H179279   6.312   4.533  16.006  1.6056  0.0443  0.7235
19288TIP3    H279280   6.264   4.394  16.043  0.0288  0.2726 -0.3187
19289TIP3   OH279281   3.118   5.305  12.879  0.5411  0.5944 -0.5013
19289TIP3    H179282   3.077   5.262  12.804 -1.4806  3.3925 -1.1977
19289TIP3    H279283   3.072   5.269  12.955  1.5406 -1.1437 -0.6743
19290TIP3   OH279284   6.529   6.324   1.471  0.7371  0.1473  0.8364
19290TIP3    H179285   6.469   6.256   1.502 -1.0310  1.1431 -0.2037
19290TIP3    H279286   6.511   6.399   1.528  2.4824 -0.1434  1.8098
19291TIP3   OH279287   3.392   6.128  11.622 -0.4700 -0.3098 -0.2664
19291TIP3    H179288   3.364   6.215  11.595  2.0323 -0.0975 -2.6141
19291TIP3    H279289   3.435   6.141  11.706 -2.1070  0.2875  0.5067
19292TIP3   OH279290   0.426   3.249  17.165  0.6171  0.1519  0.0212
19292TIP3    H179291   0.403   3.323  17.108 -2.7410  0.1713  1.2079
19292TIP3    H279292   0.394   3.172  17.118 -0.7743  0.0242  1.1351
19293TIP3   OH279293   0.307   1.499   3.217  0.2337 -0.2486  0.4383
19293TIP3    H179294   0.257   1.571   3.255  0.4191  0.5077 -0.6972
19293TIP3    H279295   0.382   1.488   3.276  0.9002  1.3784 -0.0440
19294TIP3   OH279296   0.652   6.435   4.885  0.1948 -0.5517 -0.1742
19294TIP3    H179297   0.724   6.498   4.889 -0.8729  0.7541 -0.9655
19294TIP3    H279298   0.695   6.351   4.865  1.4712  0.2567 -0.9502
19295TIP3   OH279299   0.006   2.777  11.281  0.1116  0.2871 -0.3352
19295TIP3    H179300   0.092   2.736  11.289  1.0733  2.0681 -1.0072
19295TIP3    H279301  -0.021   2.795  11.371  1.7816  2.2860 -0.1777
19296TIP3   OH279302   2.362   3.288   6.256 -0.0063 -0.4302  0.1174
19296TIP3    H179303   2.455   3.294   6.233 -0.6580 -0.8785 -3.0635
19296TIP3    H279304   2.328   3.376   6.244 -0.1956 -0.4681  0.3526
19297TIP3   OH279305   1.670   5.330   3.092 -0.1494 -0.6272  0.7154
19297TIP3    H179306   1.575   5.334   3.084  0.0257 -0.4526 -2.6221
19297TIP3    H279307   1.693   5.406   3.147 -1.8012  0.6138 -0.2313
19298TIP3   OH279308   1.311   1.784  12.800  0.1617 -0.2624 -0.1864
19298TIP3    H179309   1.405   1.785  12.782  0.6812 -0.0391  2.1754
19298TIP3    H279310   1.276   1.858  12.749  1.3600  0.0369 -0.6114
19299TIP3   OH279311   4.474   6.585  13.318  0.5532  0.3723 -0.0330
19299TIP3    H179312   4.543   6.643  13.285 -0.2165  2.0429  1.1587
19299TIP3    H279313   4.429   6.554  13.240  0.8098  1.6185 -0.7001
19300TIP3   OH279314   0.930   5.451  13.515  0.1425  0.6141  0.5221
19300TIP3    H179315   0.901   5.482  13.601 -0.5432 -1.1161  0.9464
19300TIP3    H279316   0.861   5.392  13.486  0.8926  0.3217 -0.7357
19301TIP3   OH279317   4.369   4.987  12.573 -0.2775  0.2833 -0.0451
19301TIP3    H179318   4.405   4.913  12.623 -1.0757  1.4781  2.5128
19301TIP3    H279319   4.434   5.003  12.504  0.5478 -1.9524  0.1255
19302TIP3   OH279320   5.462   6.408   5.349  0.2818 -0.2218 -0.7184
19302TIP3    H179321   5.457   6.318   5.316  1.8091 -0.9786  0.9340
19302TIP3    H279322   5.510   6.456   5.281 -1.0107 -0.4807 -1.8607
19303TIP3   OH279323   5.493   6.299  16.406  0.1872  0.2123 -0.2542
19303TIP3    H179324   5.423   6.274  16.466 -1.0038  1.0365 -1.2469
19303TIP3    H279325   5.557   6.343  16.461  0.2630 -1.1440  0.7831
19304TIP3   OH279326   5.752   3.730   5.853  0.9616 -0.0949 -0.3774
19304TIP3    H179327   5.711   3.762   5.933 -1.5107 -1.4026 -1.0215
19304TIP3    H279328   5.846   3.733   5.871  0.5130  0.5051  2.2170
19305TIP3   OH279329   4.207   6.321  15.142 -0.5707  0.0533 -0.1615
19305TIP3    H179330   4.191   6.414  15.158 -0.1443  0.3073 -1.1995
19305TIP3    H279331   4.180   6.278  15.224  1.8372  1.3435  1.4170
19306TIP3   OH279332   5.686   1.923   4.794  0.0842 -0.3564  0.2005
19306TIP3    H179333   5.754   1.859   4.777 -0.1513 -0.3153 -1.0167
19306TIP3    H279334   5.724   1.983   4.858  1.0982 -0.4629 -0.2919
19307TIP3   OH279335   6.516   6.462  14.520  0.2667 -0.4553 -0.3383
19307TIP3    H179336   6.500   6.554  14.541  4.1175  0.1859  0.4518
19307TIP3    H279337   6.469   6.413  14.588  1.4803  1.1206  1.7346
19308TIP3   OH279338   5.457   2.126  15.103  0.2339  0.2446  0.2386
19308TIP3    H179339   5.444   2.032  15.091 -1.5430  0.6308 -1.3613
19308TIP3    H279340   5.507   2.154  15.027  1.1019  0.5695  0.9034
19309TIP3   OH279341   5.317   4.700   3.583 -0.1584  0.0508  0.2790
19309TIP3    H179342   5.291   4.642   3.512 -1.0572  0.2235  0.4556
19309TIP3    H279343   5.291   4.655   3.663 -1.5898  1.0178  0.3922
19310TIP3   OH279344   4.506   3.031  13.152 -0.1680  0.4123  0.6952
19310TIP3    H179345   4.545   2.944  13.160  1.6740  1.2549  1.4491
19310TIP3    H279346   4.568   3.089  13.196  0.4845  2.6322 -2.7791
19311TIP3   OH279347   4.041   1.912   4.634  0.0798 -0.2046 -0.4488
19311TIP3    H179348   3.988   1.946   4.706  0.0292  0.4932 -0.8108
19311TIP3    H279349   4.118   1.968   4.631 -0.1540  0.0955 -1.2572
19312TIP3   OH279350   3.845   3.048  14.915  0.4790  0.2042 -0.0579
19312TIP3    H179351   3.859   3.141  14.898  0.7522  0.0727 -0.5788
19312TIP3    H279352   3.779   3.045  14.984 -1.0132  0.7605 -1.4045
19313TIP3   OH279353   3.316   5.683  13.420  0.1559  0.3954 -0.2286
19313TIP3    H179354   3.308   5.675  13.325 -0.9370  0.1678 -0.1238
19313TIP3    H279355   3.236   5.645  13.455  1.7860 -2.3168  0.9464
19314TIP3   OH279356   5.627   2.903   5.916 -0.2476 -0.2002 -0.5914
19314TIP3    H179357   5.697   2.889   5.852  0.1863  1.8823 -0.6768
19314TIP3    H279358   5.635   2.996   5.938 -0.5398 -0.7704  2.3059
19315TIP3   OH279359   3.469   1.492  17.324  0.0678 -0.0937  0.9643
19315TIP3    H179360   3.401   1.429  17.301  1.0308 -0.5198 -0.8580
19315TIP3    H279361   3.435   1.576  17.293  1.4008 -0.6718 -2.5264
19316TIP3   OH279362   4.757   1.069   5.226 -0.5266 -0.6102 -0.1645
19316TIP3    H179363   4.818   1.120   5.172  1.2870 -1.1428  1.2758
19316TIP3    H279364   4.725   1.132   5.291 -0.7106 -0.5663 -0.2991
19317TIP3   OH279365   5.538   2.528  14.403  0.3604  0.3326  0.2110
19317TIP3    H179366   5.519   2.486  14.319 -0.7707  1.1859  0.0068
19317TIP3    H279367   5.457   2.573  14.426  1.3569  2.0258  0.6229
19318TIP3   OH279368   6.216   0.187  12.221  0.1700 -0.2062  0.0319
19318TIP3    H179369   6.230   0.101  12.260  1.2642 -0.4664 -0.8808
19318TIP3    H279370   6.248   0.178  12.131 -0.1537  1.0225 -0.2261
19319TIP3   OH279371   1.624   0.505   5.911  0.3184 -0.0760 -0.0202
19319TIP3    H179372   1.582   0.528   5.993 -1.9970 -0.3193 -1.0423
19319TIP3    H279373   1.707   0.551   5.912  0.0297  0.4804  2.1312
19320TIP3   OH279374   5.057   4.355  15.194 -0.4741  0.3433 -0.7659
19320TIP3    H179375   5.016   4.369  15.279  0.6915 -1.4344  0.1504
19320TIP3    H279376   5.112   4.432  15.181 -0.1920  0.3563  0.3956
19321TIP3   OH279377   1.681   0.261   4.546  0.4337 -0.1944  0.1984
19321TIP3    H179378   1.641   0.174   4.547 -1.0802  0.4686  0.3162
19321TIP3    H279379   1.712   0.272   4.456  0.0949 -0.6261  0.0260
19322TIP3   OH279380   3.921   0.243  16.898  0.5541 -0.2823  0.3007
19322TIP3    H179381   3.864   0.178  16.939 -0.8097  1.9824  2.1898
19322TIP3    H279382   3.867   0.321  16.890  1.8390  0.4240 -2.8094
19323TIP3   OH279383   5.890   1.759   4.682 -0.5920 -0.0277 -0.2757
19323TIP3    H179384   5.866   1.694   4.616  1.0901 -1.9483  0.8689
19323TIP3    H279385   5.967   1.721   4.725  0.9933  3.1431 -0.0901
19324TIP3   OH279386   4.748   6.304  15.083  0.0048  0.2496  0.6177
19324TIP3    H179387   4.654   6.294  15.094  0.2764 -0.1006  3.1374
19324TIP3    H279388   4.762   6.399  15.080 -0.2949  0.3629  2.1056
19325TIP3   OH279389   6.043   6.368  14.990 -0.4426 -0.4651 -0.6948
19325TIP3    H179390   5.981   6.297  14.972  1.4802 -2.6454  0.6358
19325TIP3    H279391   6.079   6.347  15.076 -0.7642  2.9753  0.4494
19326TIP3   OH279392   3.892   4.458   0.885 -0.3231  0.0029 -0.2867
19326TIP3    H179393   3.867   4.550   0.892  0.1625  0.1950 -0.8948
19326TIP3    H279394   3.915   4.447   0.792 -0.9092 -0.8723 -0.3389
19327TIP3   OH279395   5.826   0.497  15.859  0.1022 -0.2400  0.3210
19327TIP3    H179396   5.793   0.534  15.940 -1.3034 -1.5990  0.4226
19327TIP3    H279397   5.908   0.454  15.883  0.1285  0.1029  0.8436
19328TIP3   OH279398   4.564   3.517   2.401  0.1235 -0.5294  0.5782
19328TIP3    H179399   4.514   3.599   2.400 -0.7110 -0.9232 -2.9591
19328TIP3    H279400   4.505   3.453   2.361  1.4056 -2.4701  1.6439
19329TIP3   OH279401   3.291   0.659   2.797 -1.1583 -0.7352  0.1438
19329TIP3    H179402   3.229   0.707   2.743 -0.2256  1.6688  1.0943
19329TIP3    H279403   3.299   0.710   2.878  2.6398 -0.3901 -0.2346
19330TIP3   OH279404   1.476   3.400   0.113  0.7623 -0.1345 -0.3853
19330TIP3    H179405   1.398   3.444   0.079  1.2575  1.2336  0.1641
19330TIP3    H279406   1.547   3.461   0.096  1.6696 -1.2097 -0.5523
19331TIP3   OH279407   6.482   1.240  14.057  0.0649  0.7328  0.5669
19331TIP3    H179408   6.504   1.154  14.092 -1.7875  0.6869  1.7824
19331TIP3    H279409   6.531   1.246  13.975 -0.7946 -2.0563 -0.2677
19332TIP3   OH279410   5.788   4.683  16.552  0.5301  0.3461  0.2959
19332TIP3    H179411   5.755   4.622  16.618 -0.2369  0.5758  0.1267
19332TIP3    H279412   5.760   4.645  16.469  0.7601  0.5020  0.1471
19333TIP3   OH279413   3.675   6.162  12.672  0.3548 -0.8861 -0.6332
19333TIP3    H179414   3.598   6.125  12.714 -0.0502 -0.6619 -1.1686
19333TIP3    H279415   3.645   6.245  12.635  0.3212 -1.7482 -2.6393
19334TIP3   OH279416   5.657   2.748   3.208  0.1134 -0.1522 -0.4778
19334TIP3    H179417   5.703   2.664   3.213  0.4409  0.0556 -0.0239
19334TIP3    H279418   5.624   2.764   3.296  4.4707  2.6800  0.9354
19335TIP3   OH279419   0.303   5.423  17.021 -0.4395 -0.4069 -0.0624
19335TIP3    H179420   0.362   5.362  16.977 -1.1318 -0.4705 -0.9499
19335TIP3    H279421   0.223   5.372  17.035 -0.9401  0.2105 -0.5938
19336TIP3   OH279422   6.309   6.034  14.247 -0.0954  0.4312 -0.4845
19336TIP3    H179423   6.270   6.008  14.163 -0.9363 -2.3565  0.6557
19336TIP3    H279424   6.239   6.082  14.292 -0.4095  0.0316 -0.5372
19337TIP3   OH279425   3.074   2.914   1.821  0.5275 -0.4922 -0.0055
19337TIP3    H179426   3.083   2.822   1.847  0.3359 -1.0517 -1.7960
19337TIP3    H279427   2.981   2.924   1.800 -0.1174  0.9540  2.9757
19338TIP3   OH279428   2.515   4.651  11.532  0.2382  0.4089 -0.1462
19338TIP3    H179429   2.471   4.593  11.470  1.3325 -0.0123 -0.5510
19338TIP3    H279430   2.608   4.645  11.510  0.5217  1.2299  0.7223
19339TIP3   OH279431   2.125   2.232  11.407 -0.5483 -0.2119  0.1613
19339TIP3    H179432   2.083   2.294  11.347  0.6404 -0.9683 -1.5200
19339TIP3    H279433   2.099   2.146  11.374 -1.3033 -0.6584  1.8278
19340TIP3   OH279434   2.772   5.967  14.615 -0.4668 -0.1318 -0.3026
19340TIP3    H179435   2.799   5.878  14.636 -1.6448 -0.2979  0.5989
19340TIP3    H279436   2.681   5.958  14.584 -0.5379  0.7311 -0.3610
19341TIP3   OH279437   0.080   1.545   1.508 -0.2536  0.0485 -0.7937
19341TIP3    H179438   0.052   1.456   1.484 -1.1514 -0.2634  1.1949
19341TIP3    H279439  -0.002   1.594   1.515  0.3103  1.6468 -3.7635
19342TIP3   OH279440   1.038   3.191   2.844 -0.6594 -0.2788  0.0564
19342TIP3    H179441   0.985   3.227   2.774 -0.9933 -0.4438  0.2182
19342TIP3    H279442   0.980   3.191   2.921 -0.6294 -1.0287  0.0902
19343TIP3   OH279443   4.240   2.966  17.333 -0.8104  0.1711  0.8541
19343TIP3    H179444   4.324   2.950  17.290 -1.8455 -1.0805 -0.8080
19343TIP3    H279445   4.241   3.060  17.353  1.3817  0.0027  1.8315
19344TIP3   OH279446   6.413   5.002  15.568  0.0875 -0.0132  0.7527
19344TIP3    H179447   6.322   5.017  15.594 -0.1744 -1.7780  0.9628
19344TIP3    H279448   6.464   5.062  15.622 -0.8133 -0.3466  2.0132
19345TIP3   OH279449   1.004   5.886  12.040  0.4090 -0.2692  0.0879
19345TIP3    H179450   0.978   5.804  12.082 -0.0660  0.3048  0.9426
19345TIP3    H279451   0.925   5.916  11.995  1.0113 -1.0649 -1.5793
19346TIP3   OH279452   5.833   6.003  14.028 -0.2013 -0.6786 -0.6980
19346TIP3    H179453   5.865   6.037  13.945  0.0632 -0.4814 -0.5212
19346TIP3    H279454   5.833   5.908  14.018  1.9214 -0.7915 -0.2047
19347TIP3   OH279455   3.014   2.220  16.742  0.1200  0.4037  0.0476
19347TIP3    H179456   2.995   2.190  16.653 -1.3510 -0.5988  0.6684
19347TIP3    H279457   2.957   2.295  16.755  1.2549  1.3569 -0.2621
19348TIP3   OH279458   1.529   5.240   0.070 -0.2721 -0.0240 -0.2813
19348TIP3    H179459   1.550   5.149   0.051 -1.1383 -0.3615  0.2642
19348TIP3    H279460   1.455   5.234   0.132 -0.8572  1.0465 -0.8531
19349TIP3   OH279461   2.130   3.925   3.134 -0.3863  0.0110  0.5690
19349TIP3    H179462   2.220   3.925   3.103 -0.1304 -1.0406  1.2750
19349TIP3    H279463   2.103   4.017   3.128  0.2004  0.1208 -1.1201
19350TIP3   OH279464   2.720   2.377   2.857  0.1510 -0.6939 -0.1822
19350TIP3    H179465   2.755   2.288   2.864  0.6326 -0.4568  0.5277
19350TIP3    H279466   2.795   2.430   2.829 -0.0403 -0.4536 -0.2417
19351TIP3   OH279467   2.085   4.315  17.340  0.2024 -0.2045  0.5225
19351TIP3    H179468   2.137   4.381  17.387 -0.9381  0.8746  0.3399
19351TIP3    H279469   2.000   4.357  17.327 -0.7498 -1.9343  0.8694
19352TIP3   OH279470   3.975   0.105  13.282 -0.3156  0.2857 -0.2863
19352TIP3    H179471   3.917   0.107  13.206 -0.0117  0.9171 -0.5118
19352TIP3    H279472   4.059   0.137  13.249  0.4952 -1.6390 -0.2176
19353TIP3   OH279473   3.435   0.594  15.344 -0.1839  0.0961  0.3592
19353TIP3    H179474   3.484   0.581  15.263  0.3655  1.4735  0.4382
19353TIP3    H279475   3.347   0.620  15.315  0.2561  1.4669  0.1556
19354TIP3   OH279476   5.524   6.024  11.545 -0.1760  0.3006 -0.2468
19354TIP3    H179477   5.461   5.959  11.511  1.8353 -1.1401 -1.4530
19354TIP3    H279478   5.585   5.972  11.597 -0.3662  1.7886  1.5340
19355TIP3   OH279479   2.229   6.008  13.083  0.4199  0.5188 -0.6128
19355TIP3    H179480   2.167   6.082  13.083 -1.8344 -1.2558 -1.0932
19355TIP3    H279481   2.269   6.011  12.996 -1.5225 -0.2116 -1.5872
19356TIP3   OH279482   4.540   1.134   1.971  0.4749 -0.2845  0.2157
19356TIP3    H179483   4.475   1.080   2.017  0.7686  1.5273  2.9868
19356TIP3    H279484   4.489   1.184   1.907 -1.3675  2.3244  3.4218
19357TIP3   OH279485   0.183   4.252  15.139 -0.0114 -0.5743  0.5746
19357TIP3    H179486   0.102   4.302  15.128  0.5521  0.2269  0.0114
19357TIP3    H279487   0.230   4.298  15.208  0.9426  0.2617 -0.6032
19358TIP3   OH279488   5.075   3.540   0.326 -0.3858 -0.1618 -0.0142
19358TIP3    H179489   5.127   3.613   0.292 -1.1968  0.0922 -0.7287
19358TIP3    H279490   5.097   3.467   0.268 -0.2577 -0.2505  0.1461
19359TIP3   OH279491   4.178   4.889  17.201  0.4638  0.3206  0.0200
19359TIP3    H179492   4.128   4.866  17.123  0.0938 -0.6761  0.5392
19359TIP3    H279493   4.177   4.985  17.203 -0.0174  0.3414 -0.8710
19360TIP3   OH279494   3.076   1.926   6.690  0.1216 -0.6770 -0.2799
19360TIP3    H179495   2.985   1.900   6.676 -0.1844 -0.6105  1.3431
19360TIP3    H279496   3.117   1.849   6.729  0.6158 -0.5129 -0.4632
19361TIP3   OH279497   6.079   1.784   3.298  0.1066  0.1142 -0.6639
19361TIP3    H179498   6.070   1.709   3.240  0.0397  0.3852 -1.0126
19361TIP3    H279499   6.174   1.795   3.308  0.1439 -1.7033  1.6404
19362TIP3   OH279500   0.033   0.338   5.727 -0.2109 -0.3733 -0.7748
19362TIP3    H179501   0.087   0.386   5.791  2.2058 -0.6229 -2.4861
19362TIP3    H279502  -0.048   0.389   5.722  2.3382  4.1335 -2.8787
19363TIP3   OH279503   3.594   2.941  17.481  0.2768 -0.5193  0.1062
19363TIP3    H179504   3.652   2.865  17.489  2.7094  1.3890  2.7751
19363TIP3    H279505   3.639   2.999  17.419 -0.9219 -0.6475 -0.9368
19364TIP3   OH279506   0.821   0.105   4.294  0.2036  0.1332 -0.1221
19364TIP3    H179507   0.906   0.084   4.333  0.4026  1.8628  0.4417
19364TIP3    H279508   0.839   0.177   4.234 -0.7857  0.1614 -0.3978
19365TIP3   OH279509   2.996   5.216   1.981 -0.3878  0.7017 -0.4064
19365TIP3    H179510   2.993   5.231   2.075 -0.7791 -0.9764 -0.1279
19365TIP3    H279511   2.942   5.286   1.944 -0.2181  1.3889  0.5926
19366TIP3   OH279512   1.395   4.542  16.685  0.0822  0.2453 -0.1222
19366TIP3    H179513   1.433   4.455  16.701  1.3447  0.8990  0.5269
19366TIP3    H279514   1.345   4.531  16.603 -1.7692 -1.6889  1.1499
19367TIP3   OH279515   2.718   5.474  16.124 -0.3525  0.5747 -0.2864
19367TIP3    H179516   2.795   5.530  16.134  0.2568 -0.3391  0.2915
19367TIP3    H279517   2.674   5.508  16.046  0.2969  1.5004 -0.2701
19368TIP3   OH279518   3.440   5.185  15.732 -0.0840  0.7068 -0.1746
19368TIP3    H179519   3.440   5.123  15.659 -2.2634  0.3710  0.0455
19368TIP3    H279520   3.445   5.130  15.810  2.0837  1.0581 -0.0127
19369TIP3   OH279521   1.592   1.772  13.403 -0.3704 -0.4509 -0.4635
19369TIP3    H179522   1.593   1.817  13.318 -0.1240 -0.4647 -0.4683
19369TIP3    H279523   1.516   1.809  13.448  0.4613  0.8082 -0.0313
19370TIP3   OH279524   3.842   4.446   2.122  0.7023  0.0007  0.4280
19370TIP3    H179525   3.908   4.429   2.189  0.4947  0.0493  0.6429
19370TIP3    H279526   3.839   4.365   2.070  0.7970 -0.0688  0.5322
19371TIP3   OH279527   3.507   5.488   4.842  0.0227  0.4632 -0.2290
19371TIP3    H179528   3.490   5.481   4.936 -1.5151  1.0502 -0.4516
19371TIP3    H279529   3.429   5.528   4.805  1.6811  2.8911 -1.3881
19372TIP3   OH279530   3.248   5.807  13.169  0.4977  0.2282 -0.8247
19372TIP3    H179531   3.245   5.857  13.088  1.3024  0.9296 -0.4406
19372TIP3    H279532   3.340   5.778  13.176 -0.0337 -1.7260 -1.2683
19373TIP3   OH279533   2.359   3.846  15.617 -0.2314 -0.2862 -0.0382
19373TIP3    H179534   2.286   3.870  15.561  1.8822  2.3060 -1.9764
19373TIP3    H279535   2.414   3.790  15.562  1.2335  1.2136 -0.1900
19374TIP3   OH279536   4.351   6.108  13.293  0.1127  0.5660  0.1936
19374TIP3    H179537   4.270   6.148  13.261 -0.2908  0.5314  1.1309
19374TIP3    H279538   4.327   6.016  13.308  0.8226  0.1237 -1.2142
19375TIP3   OH279539   3.833   0.864  15.258  0.5275 -0.3915 -0.1886
19375TIP3    H179540   3.832   0.839  15.351  0.4935 -2.2117 -0.6537
19375TIP3    H279541   3.917   0.909  15.247 -0.3786  1.8463  1.1738
19376TIP3   OH279542   1.619   3.200   6.098 -0.0460  0.2028  0.1938
19376TIP3    H179543   1.568   3.140   6.043 -2.2621  0.4803  1.8016
19376TIP3    H279544   1.667   3.143   6.158 -0.8469 -0.0418  0.6237
19377TIP3   OH279545   3.081   3.544  16.005 -0.0115  0.3638  0.6051
19377TIP3    H179546   3.152   3.568  15.944 -0.5781  1.0148  0.1869
19377TIP3    H279547   3.005   3.593  15.974 -0.8456 -0.8820  0.6091
19378TIP3   OH279548   5.500   3.890   3.601  0.0388  0.3347  0.3815
19378TIP3    H179549   5.469   3.885   3.691 -1.6009  0.5253 -0.1354
19378TIP3    H279550   5.572   3.828   3.597  0.9001  1.1605  2.1019
19379TIP3   OH279551   6.236   3.379  14.102  0.7990  0.2410 -0.4027
19379TIP3    H179552   6.149   3.396  14.066 -0.6221 -1.0577  2.1430
19379TIP3    H279553   6.254   3.456  14.156  0.3634 -0.3159  0.5519
19380TIP3   OH279554   3.688   2.307   5.371 -0.1384 -0.3161 -0.4643
19380TIP3    H179555   3.742   2.372   5.416 -1.6464  0.0151  0.9416
19380TIP3    H279556   3.653   2.353   5.295 -2.5585  1.1719  1.4086
19381TIP3   OH279557   0.961   0.621   4.991 -0.7608 -0.1791 -0.1274
19381TIP3    H179558   0.976   0.549   5.052 -2.3222  0.5046  1.1431
19381TIP3    H279559   0.866   0.636   4.995 -0.6017  1.3278 -1.0848
19382TIP3   OH279560   4.085   3.262   3.309  0.0228 -0.2572  0.0533
19382TIP3    H179561   4.004   3.301   3.341 -0.0031  1.7209 -2.0973
19382TIP3    H279562   4.153   3.296   3.367 -0.4620 -0.1596  0.5696
19383TIP3   OH279563   2.264   3.439  12.433 -0.4155 -0.1281 -0.1661
19383TIP3    H179564   2.195   3.506  12.439  0.9870  1.2153  2.8292
19383TIP3    H279565   2.218   3.356  12.445 -1.6582  0.6715  0.8702
19384TIP3   OH279566   5.680   0.695   1.686 -0.6518 -0.0544  0.0218
19384TIP3    H179567   5.633   0.760   1.634  0.1263  0.4630 -0.0590
19384TIP3    H279568   5.766   0.735   1.702  0.6281 -1.8807 -1.7617
19385TIP3   OH279569   5.926   4.242   2.134 -0.3964  0.3091  0.0541
19385TIP3    H179570   5.996   4.306   2.148  0.2593 -0.3451 -0.1699
19385TIP3    H279571   5.854   4.274   2.189 -0.7569  2.2313 -1.4192
19386TIP3   OH279572   5.488   1.491   3.406 -1.0487 -0.4297  0.2342
19386TIP3    H179573   5.497   1.461   3.315 -0.2075  0.2216  0.0898
19386TIP3    H279574   5.571   1.465   3.447 -0.6695  0.8870  0.3342
19387TIP3   OH279575   3.968   4.647  15.983 -0.8338  0.2478  0.2632
19387TIP3    H179576   3.963   4.736  15.947  0.8458  0.8715  1.4408
19387TIP3    H279577   3.878   4.625  16.006 -1.3898  1.3272 -0.7735
19388TIP3   OH279578   3.338   1.684   1.443 -0.9550 -0.1704 -0.5213
19388TIP3    H179579   3.275   1.690   1.371 -1.5052 -1.1117 -0.1333
19388TIP3    H279580   3.415   1.731   1.412 -1.8975  1.1717 -0.9480
19389TIP3   OH279581   3.936   3.126   1.382 -0.1145  0.1124  0.0828
19389TIP3    H179582   4.000   3.175   1.433  0.6618 -1.2074  0.4202
19389TIP3    H279583   3.866   3.107   1.444  0.5039 -0.8822  0.5082
19390TIP3   OH279584   2.523   4.942  12.261  0.3288 -0.2001 -0.4235
19390TIP3    H179585   2.554   4.984  12.341  0.4751  0.1213 -0.6465
19390TIP3    H279586   2.443   4.989  12.239  0.2792 -0.3006 -0.4551
19391TIP3   OH279587   6.638   3.170  17.056 -0.1697 -0.4102  0.9372
19391TIP3    H179588   6.697   3.094  17.056 -0.7790 -1.1123 -3.4574
19391TIP3    H279589   6.695   3.244  17.036 -0.2631 -0.5125  0.2861
19392TIP3   OH279590   3.723   5.024   3.215  0.2049  0.2185 -0.2744
19392TIP3    H179591   3.697   5.049   3.304 -1.1094 -0.7920 -0.3395
19392TIP3    H279592   3.684   5.091   3.159 -0.5635 -0.1528 -0.2059
19393TIP3   OH279593   4.544   2.600  12.331 -0.3403 -0.0966 -0.0744
19393TIP3    H179594   4.596   2.577  12.254  0.4663 -0.3851  0.5311
19393TIP3    H279595   4.459   2.559  12.316  1.2605 -4.6106  1.3571
19394TIP3   OH279596   5.797   1.110   6.290  0.0102 -0.3079  0.3804
19394TIP3    H179597   5.866   1.056   6.327 -1.2668 -1.3040  1.4007
19394TIP3    H279598   5.720   1.093   6.345 -1.3186  0.0000 -1.2797
19395TIP3   OH279599   0.035   1.379   2.689  0.1814  0.0770 -0.2426
19395TIP3    H179600   0.005   1.312   2.749 -3.0640 -0.5437 -2.2902
19395TIP3    H279601  -0.010   1.459   2.717  0.7017  0.3915 -0.2929
19396TIP3   OH279602   6.442   1.029   0.307 -0.0945 -0.6833  0.0495
19396TIP3    H179603   6.488   1.075   0.377 -1.2180  0.8945 -0.1879
19396TIP3    H279604   6.360   1.077   0.297  0.0758 -0.7770 -2.4262
19397TIP3   OH279605   3.121   0.666   2.613  0.4825  0.6949  0.3452
19397TIP3    H179606   3.033   0.687   2.644  0.0685  0.6036 -0.7280
19397TIP3    H279607   3.122   0.571   2.604  0.4760  0.7479 -0.2516
19398TIP3   OH279608   2.497   5.633   4.991  0.4452  0.0339 -0.0091
19398TIP3    H179609   2.545   5.566   5.039  0.4409 -0.3150 -0.4802
19398TIP3    H279610   2.553   5.710   4.993  0.8869 -0.2743 -0.2797
19399TIP3   OH279611   3.988   2.573   5.006 -0.4369  0.3085  0.6811
19399TIP3    H179612   3.965   2.502   5.066  3.1607 -2.3654 -0.7610
19399TIP3    H279613   3.969   2.538   4.919  1.5276  0.9739 -0.0773
19400TIP3   OH279614   4.346   6.440  16.449  0.2179 -0.5052 -0.0215
19400TIP3    H179615   4.282   6.405  16.388 -0.6215  0.4716  0.2699
19400TIP3    H279616   4.294   6.473  16.523  0.9544  1.0490 -0.1441
19401TIP3   OH279617   4.309   1.665  11.370 -0.0033 -0.1762  0.7174
19401TIP3    H179618   4.363   1.609  11.315  1.0477 -0.4089  1.9401
19401TIP3    H279619   4.219   1.637  11.353  0.1840  0.4653 -1.6316
19402TIP3   OH279620   6.664   4.785  12.660 -0.5991  0.1298 -0.0226
19402TIP3    H179621   6.749   4.829  12.665 -0.6960  0.2224  1.3189
19402TIP3    H279622   6.676   4.718  12.593  1.1032 -0.9624  1.2522
19403TIP3   OH279623   1.792   2.910   1.414  0.0337  0.1674  0.1055
19403TIP3    H179624   1.870   2.960   1.439  0.1106  0.3466 -0.4820
19403TIP3    H279625   1.790   2.914   1.318  0.8081 -2.1074 -0.0777
19404TIP3   OH279626   4.771   2.237  13.542  0.1207 -0.7076 -0.2894
19404TIP3    H179627   4.696   2.216  13.487  0.2101 -3.5807  0.5249
19404TIP3    H279628   4.835   2.169  13.523  1.6794  0.4367  0.6180
19405TIP3   OH279629   0.657   1.440   1.797  0.1752 -0.4156 -0.1207
19405TIP3    H179630   0.746   1.473   1.786  0.4495 -0.4691  1.5521
19405TIP3    H279631   0.659   1.353   1.757  0.8049 -0.3177 -0.3159
19406TIP3   OH279632   6.606   5.082  13.121 -0.3864 -0.1242  0.1127
19406TIP3    H179633   6.624   4.988  13.117 -0.2204 -0.0964  0.2125
19406TIP3    H279634   6.685   5.123  13.085 -0.2809 -0.0052  0.4780
19407TIP3   OH279635   0.286   0.520   4.220 -0.1854 -0.1077 -0.1559
19407TIP3    H179636   0.279   0.486   4.309 -0.0982  0.5624  0.1159
19407TIP3    H279637   0.274   0.444   4.164 -0.8483 -0.4387  0.4226
19408TIP3   OH279638   2.193   3.050   1.587 -0.3574  0.2489  0.1466
19408TIP3    H179639   2.199   3.123   1.649  0.7181  0.6774 -0.4223
19408TIP3    H279640   2.284   3.032   1.562 -0.7006 -0.4864 -0.6390
19409TIP3   OH279641   3.706   3.549   3.170  0.1219 -0.3595  0.4239
19409TIP3    H179642   3.627   3.532   3.119  1.6948 -2.2614 -1.6346
19409TIP3    H279643   3.747   3.463   3.180  2.4324  0.6674  0.4984
19410TIP3   OH279644   3.237   2.415  10.690  0.3160  0.1991  0.0199
19410TIP3    H179645   3.242   2.486  10.626 -2.4314  2.3434  1.9397
19410TIP3    H279646   3.227   2.336  10.637  1.9934  1.3592 -2.1896
19411TIP3   OH279647   5.865   5.845   2.360 -0.1871  0.9494 -0.1248
19411TIP3    H179648   5.883   5.938   2.347 -1.3825  1.1304 -0.5639
19411TIP3    H279649   5.852   5.836   2.454 -0.0144  1.2104 -0.0759
19412TIP3   OH279650   2.322   1.628  14.503 -0.8634  0.8385 -0.4497
19412TIP3    H179651   2.373   1.706  14.481 -0.4292  0.4511 -0.8148
19412TIP3    H279652   2.278   1.605  14.421 -1.6779  1.1980 -0.1316
19413TIP3   OH279653   4.856   0.583  16.371 -0.0990 -0.2366 -0.6397
19413TIP3    H179654   4.916   0.538  16.312  1.2276  0.9459 -0.2362
19413TIP3    H279655   4.777   0.598  16.318 -0.0568 -1.7622 -1.1870
19414TIP3   OH279656   1.241   4.617  15.202  0.1208  0.2283  0.2996
19414TIP3    H179657   1.216   4.703  15.169 -1.9145  0.1653  1.4745
19414TIP3    H279658   1.166   4.561  15.182  0.1682 -0.5527  2.0804
19415TIP3   OH279659   5.924   0.963  12.466  0.3428 -0.2388 -0.1599
19415TIP3    H179660   5.907   0.875  12.432  1.0031 -0.4549  0.0528
19415TIP3    H279661   5.841   1.010  12.454  0.2059 -0.6679 -0.9432
19416TIP3   OH279662   6.062   1.897   0.483 -0.0479  0.0420  0.5247
19416TIP3    H179663   6.143   1.847   0.492  1.2346  1.8698 -0.3310
19416TIP3    H279664   6.078   1.978   0.532 -1.0015  0.8195 -0.4058
19417TIP3   OH279665   5.589   3.858   1.479 -0.3511 -0.8601  0.2338
19417TIP3    H179666   5.519   3.884   1.539  0.2916  0.0239  0.6184
19417TIP3    H279667   5.591   3.763   1.485 -1.2479 -0.8751  0.5208
19418TIP3   OH279668   2.191   5.714   5.916 -0.0007  0.3279 -0.2586
19418TIP3    H179669   2.113   5.686   5.964 -0.1462  2.2143  0.7112
19418TIP3    H279670   2.258   5.649   5.938 -1.1535 -1.1120 -0.8144
19419TIP3   OH279671   2.999   2.678   3.036 -0.5130 -0.1697 -0.0232
19419TIP3    H179672   3.013   2.770   3.058  1.2671 -1.0739  3.2783
19419TIP3    H279673   2.904   2.666   3.040 -0.8408  1.6075 -1.2370
19420TIP3   OH279674   2.302   5.367   3.456 -0.2867 -0.0234  0.2167
19420TIP3    H179675   2.314   5.453   3.496  3.7593  0.1390 -0.9402
19420TIP3    H279676   2.330   5.305   3.523 -0.7289 -0.2881  0.1609
19421TIP3   OH279677   3.804   1.801  12.964  0.0014  0.1000  0.5071
19421TIP3    H179678   3.745   1.797  12.888  1.4790 -2.7124 -0.6294
19421TIP3    H279679   3.861   1.875  12.946 -0.2224 -0.0052 -0.7118
19422TIP3   OH279680   1.974   3.231   4.071 -0.5787  0.4765  0.8573
19422TIP3    H179681   2.037   3.189   4.129 -1.2801  0.7569  1.8354
19422TIP3    H279682   1.929   3.295   4.126 -1.6814  0.3288  0.1500
19423TIP3   OH279683   5.336   2.855  14.283  0.2507  0.0558  0.1568
19423TIP3    H179684   5.309   2.944  14.305 -1.5594 -0.2755 -0.5268
19423TIP3    H279685   5.324   2.805  14.363 -1.1044 -0.0356 -0.0670
19424TIP3   OH279686   1.469   3.279  12.234  0.3496 -0.3900  0.0412
19424TIP3    H179687   1.427   3.194  12.221  0.6136 -0.7649  1.4243
19424TIP3    H279688   1.553   3.259  12.275  0.5190  0.5199  0.1693
19425TIP3   OH279689   3.154   3.946  16.969 -0.1778  0.1264  0.4362
19425TIP3    H179690   3.223   3.882  16.987 -1.5379 -1.1802  1.2458
19425TIP3    H279691   3.166   4.014  17.035  0.0729 -0.3245  0.8652
19426TIP3   OH279692   3.126   3.494  12.496 -0.0440  0.3249 -0.2943
19426TIP3    H179693   3.134   3.486  12.401 -0.6978  0.8608 -0.4052
19426TIP3    H279694   3.046   3.447  12.518  0.2016  0.0456  0.0223
19427TIP3   OH279695   4.888   6.488   5.018 -0.2447  0.0619 -0.1307
19427TIP3    H179696   4.851   6.400   5.013  0.4247 -0.1709 -3.5756
19427TIP3    H279697   4.972   6.476   5.062  0.2596 -1.2575 -1.3512
19428TIP3   OH279698   1.159   2.496  16.274 -0.3840  0.0231  0.1858
19428TIP3    H179699   1.159   2.475  16.367 -0.3783 -2.6106 -0.3417
19428TIP3    H279700   1.127   2.417  16.231  1.5383  0.3951 -2.1780
19429TIP3   OH279701   6.566   6.326   5.549  0.2189  0.6131 -0.1025
19429TIP3    H179702   6.551   6.420   5.556 -0.0697  0.7639 -2.0596
19429TIP3    H279703   6.528   6.289   5.628 -0.2212  2.0827  0.4000
19430TIP3   OH279704   5.154   6.066   4.752  0.0862  0.0752  0.4519
19430TIP3    H179705   5.078   6.121   4.766 -0.6066 -0.3740 -1.1968
19430TIP3    H279706   5.177   6.032   4.838 -0.7737  1.2525  1.1553
19431TIP3   OH279707   0.180   4.984  17.132  0.1346  0.3552 -0.0384
19431TIP3    H179708   0.131   5.064  17.116 -1.0898 -0.3948 -0.1107
19431TIP3    H279709   0.271   5.007  17.110 -0.2770  1.5595 -0.5618
19432TIP3   OH279710   4.820   1.188   0.632  0.0054  0.1648  0.5523
19432TIP3    H179711   4.750   1.126   0.655  0.1884 -0.5087 -0.6555
19432TIP3    H279712   4.780   1.247   0.569  0.1469  0.6358  0.8931
19433TIP3   OH279713   4.241   6.515  16.123 -0.0871  0.1427 -0.0950
19433TIP3    H179714   4.149   6.516  16.150 -0.2219  1.5381 -0.5435
19433TIP3    H279715   4.238   6.491  16.030  0.0024  0.1517 -0.0987
19434TIP3   OH279716   1.475   2.235   4.778  0.1775 -0.2142 -0.0796
19434TIP3    H179717   1.417   2.161   4.762  1.1262 -0.8282 -0.8453
19434TIP3    H279718   1.449   2.300   4.713 -0.8405  0.2678  0.7732
19435TIP3   OH279719   5.449   6.607  15.925  0.3753 -0.5436  0.0834
19435TIP3    H179720   5.539   6.631  15.905  0.1679 -0.5069 -0.8599
19435TIP3    H279721   5.399   6.688  15.918  0.1757 -0.6688  0.0234
19436TIP3   OH279722   5.491   1.223   4.226  0.0865  0.9498  0.3078
19436TIP3    H179723   5.465   1.300   4.175 -0.6378  0.6145  0.1577
19436TIP3    H279724   5.408   1.184   4.256  0.4733  0.6960  1.0832
19437TIP3   OH279725   2.769   2.298  17.123 -0.6584  0.5963  0.1018
19437TIP3    H179726   2.791   2.390  17.136 -1.7249  0.8066  0.5804
19437TIP3    H279727   2.714   2.298  17.044 -0.8029  0.4011  0.2023
19438TIP3   OH279728   3.846   2.293   3.580 -0.3785  0.4077 -0.2831
19438TIP3    H179729   3.811   2.213   3.541 -0.9819  0.7357 -0.4284
19438TIP3    H279730   3.840   2.278   3.674  0.2497 -0.0303 -0.3055
19439TIP3   OH279731   6.219   4.056   3.247  0.4725  0.0435 -0.0942
19439TIP3    H179732   6.267   4.047   3.165  0.0194 -0.2106 -0.3424
19439TIP3    H279733   6.221   3.968   3.285 -3.5465 -1.3012 -2.2770
19440TIP3   OH279734   3.088   4.852  15.234  0.2153  0.5313 -0.0903
19440TIP3    H179735   3.014   4.877  15.290 -0.3147 -1.0292 -0.0520
19440TIP3    H279736   3.078   4.906  15.156 -1.2210  0.0663 -0.2639
19441TIP3   OH279737   5.477   4.590  12.861 -0.0225 -0.1158  0.4027
19441TIP3    H179738   5.424   4.558  12.788 -0.6352 -1.5137  1.4220
19441TIP3    H279739   5.421   4.654  12.905 -0.8677 -1.4419  1.3581
19442TIP3   OH279740   4.936   0.192   3.455  0.3722  0.4734 -0.3337
19442TIP3    H179741   4.923   0.161   3.365 -0.6467  0.6374 -0.2586
19442TIP3    H279742   4.852   0.178   3.497  0.2735  2.0762  0.0775
19443TIP3   OH279743   2.173   0.331   3.867 -0.2672  0.0931  0.3910
19443TIP3    H179744   2.244   0.389   3.840 -0.5358  0.8075  1.1726
19443TIP3    H279745   2.217   0.257   3.909  0.0972 -0.5084 -0.9812
19444TIP3   OH279746   6.085   3.319  13.483 -0.2175 -0.4648 -0.1902
19444TIP3    H179747   6.043   3.365  13.556  0.4709 -0.9649  0.5353
19444TIP3    H279748   6.017   3.313  13.416 -0.9951 -0.3834  0.5779
19445TIP3   OH279749   2.916   6.437  11.211 -0.2767  0.1548  0.4651
19445TIP3    H179750   2.864   6.480  11.279  0.6872  2.9127 -0.3871
19445TIP3    H279751   3.004   6.433  11.248  0.0486  0.7729 -0.2135
19446TIP3   OH279752   1.438   2.823  14.434  0.5136  0.4820 -0.3531
19446TIP3    H179753   1.357   2.824  14.485  0.3967 -0.6216 -0.4859
19446TIP3    H279754   1.413   2.782  14.351  1.3436 -0.5091 -0.1334
19447TIP3   OH279755   3.100   4.660   5.254  0.1399 -0.0188 -0.7743
19447TIP3    H179756   3.052   4.612   5.186 -0.3396 -0.8552  0.1360
19447TIP3    H279757   3.143   4.592   5.306 -0.0924  0.5620  0.1986
19448TIP3   OH279758   0.831   4.327  15.651  0.2148  0.4097  0.0588
19448TIP3    H179759   0.846   4.420  15.634  0.4394  0.4329  0.3760
19448TIP3    H279760   0.739   4.322  15.678  0.7191  0.8263  1.9982
19449TIP3   OH279761   3.985   2.333  15.513  0.3820  0.9826 -0.1370
19449TIP3    H179762   3.902   2.286  15.519  0.3354  1.1706  0.8491
19449TIP3    H279763   3.959   2.424  15.499  0.4763  0.7054 -2.4610
19450TIP3   OH279764   0.647   5.510   4.781 -0.0816  0.2698  0.2342
19450TIP3    H179765   0.697   5.495   4.700  1.0306 -1.8032  1.2322
19450TIP3    H279766   0.622   5.422   4.810  0.5661  0.8482  2.7675
19451TIP3   OH279767   5.965   1.844   2.126  0.1661  0.1035 -0.4274
19451TIP3    H179768   5.990   1.869   2.215  0.5700 -1.6199 -0.0190
19451TIP3    H279769   5.871   1.828   2.132  0.0777  0.5954 -0.4681
19452TIP3   OH279770   6.000   4.993   1.838  0.6395  0.6403 -0.0383
19452TIP3    H179771   6.022   5.070   1.891  1.0663 -0.9844  2.2891
19452TIP3    H279772   6.041   4.920   1.884 -0.3840 -1.1013 -1.7552
19453TIP3   OH279773   4.328   3.001  16.083  0.0674 -0.1457  1.1107
19453TIP3    H179774   4.279   3.081  16.068 -0.1777 -0.1594  1.7817
19453TIP3    H279775   4.296   2.940  16.017 -1.8644 -0.6080  2.3820
19454TIP3   OH279776   2.176   2.160  16.587  0.1481 -0.2371 -0.2324
19454TIP3    H179777   2.229   2.220  16.638 -1.7717  1.1567  0.2472
19454TIP3    H279778   2.144   2.096  16.651 -1.4253  0.9096  0.1838
19455TIP3   OH279779   3.584   2.650  11.944  0.3398 -0.7407 -0.1528
19455TIP3    H179780   3.600   2.736  11.906 -0.7843 -0.7143 -0.6018
19455TIP3    H279781   3.593   2.589  11.870  1.7236 -1.0902  0.2783
19456TIP3   OH279782   4.938   4.001  17.357 -1.0271 -0.4165  0.0756
19456TIP3    H179783   4.983   3.955  17.428 -1.1775 -0.5925  0.0561
19456TIP3    H279784   4.938   4.093  17.384  1.1951 -0.0753 -0.8882
19457TIP3   OH279785   4.844   3.945   1.811 -0.3313  0.0930  0.2689
19457TIP3    H179786   4.767   3.945   1.754 -0.6930 -0.5408  0.7367
19457TIP3    H279787   4.859   4.037   1.831  0.0047  0.3571 -1.1128
19458TIP3   OH279788   2.983   1.871   6.046 -0.5796 -0.0748 -0.4070
19458TIP3    H179789   2.968   1.796   6.104 -0.2742  0.6287  0.6076
19458TIP3    H279790   3.078   1.872   6.033 -0.1656  1.9103  2.1048
19459TIP3   OH279791   4.950   5.018  12.203 -0.7349  0.0041 -0.5089
19459TIP3    H179792   4.934   4.992  12.293  1.1597  0.6436  0.0666
19459TIP3    H279793   4.974   4.937  12.158 -1.6625 -0.3112 -0.4451
19460TIP3   OH279794   5.168   5.004  12.593 -0.3047  0.1969  0.4892
19460TIP3    H179795   5.137   5.081  12.640 -0.1601 -0.4869  1.7351
19460TIP3    H279796   5.263   5.006  12.603 -0.0572  1.0572 -1.4163
19461TIP3   OH279797   4.706   6.350   1.056 -0.5300 -0.1668 -0.7548
19461TIP3    H179798   4.658   6.427   1.089  0.2196  0.2090 -0.5314
19461TIP3    H279799   4.770   6.330   1.124 -1.8603 -2.1043  0.0282
19462TIP3   OH279800   3.312   2.334  15.793 -0.6596 -0.1070  0.1510
19462TIP3    H179801   3.224   2.337  15.830 -1.2240  0.1390 -1.1631
19462TIP3    H279802   3.307   2.269  15.724  0.0787  0.2115 -0.2152
19463TIP3   OH279803   5.780   5.003   6.067 -0.2409 -0.0502  0.0641
19463TIP3    H179804   5.782   4.935   6.135 -1.3262 -0.0066  0.1533
19463TIP3    H279805   5.729   5.074   6.105  0.4342  0.6053 -0.2344
19464TIP3   OH279806   4.637   1.656   5.564  0.1440  0.6183 -0.8968
19464TIP3    H179807   4.590   1.733   5.532 -0.7654  0.9367  1.0772
19464TIP3    H279808   4.651   1.673   5.657 -1.5584 -2.2742  0.0338
19465TIP3   OH279809   2.674   0.336   5.384  0.0847  0.2043 -0.0391
19465TIP3    H179810   2.680   0.268   5.451  0.5536 -0.4251 -0.7083
19465TIP3    H279811   2.607   0.396   5.417 -0.5185 -0.7139  0.4429
19466TIP3   OH279812   4.489   6.288  13.442 -0.2146  0.7157  0.4843
19466TIP3    H179813   4.411   6.318  13.489 -2.2779 -1.8391 -1.0539
19466TIP3    H279814   4.460   6.210  13.394  3.3607 -0.5058 -0.0036
19467TIP3   OH279815   5.885   5.946   5.333  0.3355 -0.0378  0.8541
19467TIP3    H179816   5.974   5.930   5.302 -0.5648 -1.1459 -1.3668
19467TIP3    H279817   5.850   6.011   5.272 -0.3466  0.4647  1.7662
19468TIP3   OH279818   0.030   5.955  16.652 -0.0931 -0.8696 -0.4480
19468TIP3    H179819  -0.027   5.889  16.612 -0.1898  0.1351 -2.0398
19468TIP3    H279820   0.116   5.939  16.614 -0.1390 -0.0316 -0.9217
19469TIP3   OH279821   6.604   3.637   3.619  0.0036 -0.2714 -0.2399
19469TIP3    H179822   6.604   3.667   3.710 -0.7294  1.0683 -0.6389
19469TIP3    H279823   6.690   3.662   3.586 -0.6943  1.7995 -0.6451
19470TIP3   OH279824   6.684   6.698  11.023  0.1001  0.1799 -0.2464
19470TIP3    H179825   6.776   6.701  10.997  0.0200 -0.2483 -0.6050
19470TIP3    H279826   6.662   6.788  11.046  1.0525  0.0161  1.4478
19471TIP3   OH279827   3.785   0.836   3.235  0.2375  0.2219  0.1458
19471TIP3    H179828   3.838   0.828   3.314 -1.3295  1.4078  1.3753
19471TIP3    H279829   3.710   0.780   3.250  0.2708 -0.1252 -0.8564
19472TIP3   OH279830   2.227   5.299   4.446  0.0164 -0.2595 -0.1878
19472TIP3    H179831   2.180   5.254   4.376  1.1228 -2.2291  0.2785
19472TIP3    H279832   2.212   5.245   4.524 -1.0392  1.7788  1.1296
19473TIP3   OH279833   0.192   2.790   0.446  0.2245  0.1155 -0.3681
19473TIP3    H179834   0.121   2.752   0.395  1.4322  0.8623 -2.7532
19473TIP3    H279835   0.242   2.715   0.477  0.1539 -0.3713 -1.3772
19474TIP3   OH279836   5.051   6.209  12.211 -0.4722  0.5798 -0.7001
19474TIP3    H179837   5.146   6.225  12.210  0.2037 -1.9400  3.2084
19474TIP3    H279838   5.038   6.145  12.141  1.4179 -1.4987  0.6899
19475TIP3   OH279839   3.571   1.906  13.373 -0.2167  0.3389 -0.6228
19475TIP3    H179840   3.574   1.828  13.319 -0.0920 -0.0863 -0.0067
19475TIP3    H279841   3.618   1.972  13.322  0.4448 -0.2273 -0.7588
19476TIP3   OH279842   4.495   1.694  14.814 -0.1878  0.4277 -0.1178
19476TIP3    H179843   4.480   1.787  14.797 -0.3785  0.1624 -1.5011
19476TIP3    H279844   4.582   1.677  14.779  1.1913  0.7171  2.8721
19477TIP3   OH279845   2.149   5.376   4.020 -0.0418 -0.4890 -0.0148
19477TIP3    H179846   2.060   5.413   4.025  0.3396  1.0748 -2.6646
19477TIP3    H279847   2.203   5.435   4.072 -0.3142 -0.5943  0.3915
19478TIP3   OH279848   1.478   6.184  15.516  0.2462 -0.3455  0.8905
19478TIP3    H179849   1.454   6.120  15.583 -3.2893 -0.2543 -0.1261
19478TIP3    H279850   1.435   6.265  15.543  0.1095  0.1233 -0.6177
19479TIP3   OH279851   4.170   3.719  13.376  0.2180 -0.3441 -0.1456
19479TIP3    H179852   4.137   3.722  13.466 -0.1516 -2.2943 -0.1632
19479TIP3    H279853   4.263   3.739  13.384 -0.1229  1.1154  0.4431
19480TIP3   OH279854   6.707   6.088   0.368  0.1194  0.0041  0.2799
19480TIP3    H179855   6.760   6.167   0.373 -0.1376  0.1544  0.6791
19480TIP3    H279856   6.706   6.065   0.275 -0.8525  1.1830 -0.0200
19481TIP3   OH279857   6.525   3.042  14.952  0.1239  0.1637 -0.0743
19481TIP3    H179858   6.552   2.963  14.904  1.1395  0.8568 -0.6686
19481TIP3    H279859   6.560   3.029  15.040 -1.1268 -0.7844  0.3121
19482TIP3   OH279860   2.087   5.540   4.252  0.1183 -0.4291  0.4708
19482TIP3    H179861   2.165   5.485   4.243 -0.4077 -0.9843 -0.9768
19482TIP3    H279862   2.116   5.615   4.303  1.2876 -1.2248  1.0096
19483TIP3   OH279863   2.485   3.505   5.736  0.0074  0.2810 -0.1560
19483TIP3    H179864   2.454   3.533   5.649 -0.3821 -1.5818 -0.6444
19483TIP3    H279865   2.405   3.489   5.786  0.2246  0.2918  0.1972
19484TIP3   OH279866   3.443   0.029  17.334  0.1286 -0.4947  0.8672
19484TIP3    H179867   3.518  -0.030  17.330  0.2132 -0.3590  0.4620
19484TIP3    H279868   3.389   0.006  17.259  0.7057  0.6654  0.0624
19485TIP3   OH279869   3.864   1.147  15.086  0.0667 -0.1640 -0.2481
19485TIP3    H179870   3.868   1.243  15.095 -0.5555 -0.2505  1.1747
19485TIP3    H279871   3.939   1.115  15.135 -0.8295 -0.4592  1.0022
19486TIP3   OH279872   3.874   3.265   2.101  0.1956  0.3097 -0.4569
19486TIP3    H179873   3.837   3.183   2.070 -0.6881  0.5308 -0.0229
19486TIP3    H279874   3.806   3.302   2.158  1.0740  0.7344  0.3521
19487TIP3   OH279875   1.168   1.228  15.506  0.6663 -0.1341  0.2274
19487TIP3    H179876   1.101   1.296  15.499 -0.1003 -0.7914  1.0125
19487TIP3    H279877   1.130   1.162  15.564  1.4792 -1.1488 -0.3621
19488TIP3   OH279878   0.736   6.112  11.584  0.1998  0.2951  0.0386
19488TIP3    H179879   0.703   6.030  11.619 -0.1418 -0.3778 -1.7445
19488TIP3    H279880   0.831   6.105  11.591  0.1698 -0.2440 -0.0671
19489TIP3   OH279881   2.510   6.449  16.240 -0.0210 -0.0481 -0.3684
19489TIP3    H179882   2.426   6.417  16.206 -0.3065  0.2879  0.0049
19489TIP3    H279883   2.574   6.384  16.212 -0.2188  0.3041 -1.6775
19490TIP3   OH279884   0.739   6.537  13.687 -0.3010 -0.4398 -0.0420
19490TIP3    H179885   0.749   6.452  13.729  0.2511 -0.4141 -0.1234
19490TIP3    H279886   0.784   6.599  13.745  0.8570 -0.4711 -0.8918
19491TIP3   OH279887   5.107   6.495  17.165  0.1149 -0.0774 -0.1964
19491TIP3    H179888   5.026   6.456  17.132 -0.9355  1.7296  0.1121
19491TIP3    H279889   5.162   6.505  17.087 -0.4813 -0.1199 -0.6300
19492TIP3   OH279890   3.004   0.416   5.075  0.2419  0.0139 -0.4978
19492TIP3    H179891   2.975   0.455   5.157 -0.8549  0.4287 -1.0514
19492TIP3    H279892   3.000   0.321   5.090 -1.0754  0.0537 -0.4054
19493TIP3   OH279893   0.447   6.082  12.311  0.0324  0.3555 -0.0078
19493TIP3    H179894   0.518   6.035  12.356 -0.6659  0.8915  1.7636
19493TIP3    H279895   0.381   6.015  12.293  1.4020 -0.3823 -2.7462
19494TIP3   OH279896   1.409   5.949   6.572  0.2726 -0.1988  0.1533
19494TIP3    H179897   1.338   5.964   6.635  0.7234 -0.9779  0.8592
19494TIP3    H279898   1.377   5.989   6.491 -0.5734  0.2905  0.7082
19495TIP3   OH279899   3.414   4.630  11.954  0.7611 -0.0990 -0.0811
19495TIP3    H179900   3.322   4.608  11.969  0.3104  1.8658  0.2757
19495TIP3    H279901   3.415   4.671  11.867  0.9782  1.3701  0.5766
19496TIP3   OH279902   3.802   1.775  10.658 -0.2986 -0.2451 -0.3311
19496TIP3    H179903   3.776   1.825  10.735  0.2066 -0.2162 -0.1761
19496TIP3    H279904   3.869   1.714  10.691 -1.3890 -1.4980 -0.3620
19497TIP3   OH279905   6.233   0.994  12.728  0.2011  0.1216 -0.2986
19497TIP3    H179906   6.257   0.902  12.738  2.2554  0.6272 -0.2050
19497TIP3    H279907   6.298   1.042  12.780 -1.7153  1.5800  0.9153
19498TIP3   OH279908   3.880   6.723  15.230 -0.3156 -0.4925 -0.5074
19498TIP3    H179909   3.890   6.723  15.325 -1.8808 -2.2172 -0.2829
19498TIP3    H279910   3.962   6.760  15.197  0.1361  0.4574  1.5005
19499TIP3   OH279911   6.518   3.690  12.727 -0.1866 -0.0397  0.0855
19499TIP3    H179912   6.570   3.689  12.807  0.5204  0.6378 -0.3436
19499TIP3    H279913   6.508   3.598  12.703 -0.5335 -0.2534  1.0193
19500TIP3   OH279914   1.508   4.680  14.526 -0.0345  0.1979 -0.8356
19500TIP3    H179915   1.603   4.687  14.533  0.0959  0.9694 -2.6453
19500TIP3    H279916   1.474   4.741  14.591  0.7276  0.3380 -0.5620
19501TIP3   OH279917   6.402   6.479  14.255 -0.0372 -0.5754 -0.9576
19501TIP3    H179918   6.393   6.568  14.220 -0.3901 -0.8053 -1.4763
19501TIP3    H279919   6.429   6.491  14.345 -0.7803  0.0839 -0.8068
19502TIP3   OH279920   4.737   5.488   4.394  0.0956  0.1012  0.3176
19502TIP3    H179921   4.817   5.499   4.342  0.5372  0.6260  1.0809
19502TIP3    H279922   4.769   5.461   4.480 -0.4765  1.2089  0.9015
19503TIP3   OH279923   3.929   3.980  14.882  0.9646 -0.7279 -0.1232
19503TIP3    H179924   3.849   4.029  14.906  1.2724 -0.6810  0.8469
19503TIP3    H279925   3.959   3.942  14.964  2.1768 -0.4080 -0.4034
19504TIP3   OH279926   1.167   6.246   0.394 -0.0197 -0.0205  0.1863
19504TIP3    H179927   1.179   6.332   0.353  0.7673 -0.2858 -0.1575
19504TIP3    H279928   1.073   6.229   0.387 -0.5976  1.8024  2.2785
19505TIP3   OH279929   4.558   5.991  13.760 -0.3981  0.2467 -0.4061
19505TIP3    H179930   4.463   6.001  13.763 -0.5011 -0.8518  1.1284
19505TIP3    H279931   4.573   5.898  13.775  0.9337  0.5798  0.5111
19506TIP3   OH279932   0.283   0.364  16.825  0.0304  0.3053 -0.1539
19506TIP3    H179933   0.337   0.426  16.776  0.3049 -0.6309 -1.0855
19506TIP3    H279934   0.326   0.279  16.810 -0.3789 -0.1180  1.0120
19507TIP3   OH279935   1.351   1.605   1.153 -0.0797 -0.6494 -0.3488
19507TIP3    H179936   1.375   1.552   1.230 -0.8566 -1.9513 -0.9673
19507TIP3    H279937   1.319   1.541   1.089 -0.4096  0.5192 -1.3910
19508TIP3   OH279938   1.170   2.504  15.379 -0.2227  0.1775 -0.0858
19508TIP3    H179939   1.177   2.494  15.474 -0.1562 -1.7400 -0.2425
19508TIP3    H279940   1.258   2.482  15.346 -0.7805 -1.3120 -0.6838
19509TIP3   OH279941   2.748   4.090  17.205 -0.8465 -0.6496  0.1795
19509TIP3    H179942   2.740   3.998  17.178 -1.2204 -0.8321  0.8685
19509TIP3    H279943   2.663   4.128  17.183 -0.9295 -0.6412  0.5126
19510TIP3   OH279944   3.594   4.824  16.770  0.0060  0.1561  0.0855
19510TIP3    H179945   3.500   4.835  16.761 -0.1109 -0.5983  0.2948
19510TIP3    H279946   3.631   4.910  16.750 -0.7748  0.6618  0.8006
19511TIP3   OH279947   4.149   3.158  12.087 -0.0177 -0.3327 -0.3364
19511TIP3    H179948   4.185   3.242  12.057 -0.8499 -0.3901 -1.6153
19511TIP3    H279949   4.224   3.099  12.091  0.2258 -0.1848 -1.9456
19512TIP3   OH279950   3.507   5.331   5.765 -0.1900  0.0777  0.5839
19512TIP3    H179951   3.470   5.312   5.679 -1.4825 -0.7476  1.2815
19512TIP3    H279952   3.544   5.419   5.757 -1.6609  0.6467 -0.3890
19513TIP3   OH279953   3.645   2.563   0.271  0.0594  0.2777 -0.2853
19513TIP3    H179954   3.719   2.503   0.273 -0.7119 -0.6756  0.9525
19513TIP3    H279955   3.620   2.568   0.179  0.6308 -0.6726 -0.5008
19514TIP3   OH279956   6.668   0.767  15.613  0.7931 -0.3581  0.3689
19514TIP3    H179957   6.709   0.777  15.527  0.0739  0.7135  0.1399
19514TIP3    H279958   6.574   0.775  15.596  0.6028 -0.8205  1.1623
19515TIP3   OH279959   5.518   5.347  11.949  0.4676 -0.3597 -0.2159
19515TIP3    H179960   5.573   5.280  11.991  2.2867  1.4253  0.3991
19515TIP3    H279961   5.488   5.402  12.022 -0.5817 -0.1960 -0.7593
19516TIP3   OH279962   1.992   3.928  11.967  0.7451  0.3113 -0.1355
19516TIP3    H179963   1.921   3.955  12.025  0.8840  0.9574 -0.2653
19516TIP3    H279964   1.999   3.833  11.981  0.4496  0.3808  0.5319
19517TIP3   OH279965   3.762   1.028  15.717  0.3522  0.3979 -0.5214
19517TIP3    H179966   3.698   0.967  15.754 -0.3079  0.8683 -0.8598
19517TIP3    H279967   3.755   1.106  15.771  1.2066  0.1793 -0.0808
19518TIP3   OH279968   5.535   3.752   6.516 -0.2270 -0.1358  0.5903
19518TIP3    H179969   5.603   3.735   6.451  0.7272 -0.6529  1.6939
19518TIP3    H279970   5.540   3.678   6.576 -0.6752  0.6252  1.5980
19519TIP3   OH279971   3.903   5.633   6.655  0.1998  0.1516 -0.2343
19519TIP3    H179972   3.990   5.653   6.620  0.2000 -0.3159 -0.5016
19519TIP3    H279973   3.846   5.699   6.615  0.1784 -0.4471 -1.2318
19520TIP3   OH279974   4.052   4.172   4.544  0.4280 -0.0527 -0.4251
19520TIP3    H179975   3.983   4.208   4.600  0.5120 -0.2758 -0.1704
19520TIP3    H279976   4.130   4.173   4.600  0.6924  0.4396 -0.7960
19521TIP3   OH279977   4.652   1.523   0.583 -0.0183 -0.1102 -0.7913
19521TIP3    H179978   4.571   1.489   0.620 -0.5390  0.5759 -1.2750
19521TIP3    H279979   4.675   1.461   0.514  2.0983 -2.6147  1.8903
19522TIP3   OH279980   0.223   3.862  12.899  0.4929  0.1536 -0.3276
19522TIP3    H179981   0.240   3.869  12.993  0.9404 -0.1728 -0.3799
19522TIP3    H279982   0.131   3.884  12.889  0.7411  1.4449  0.0443
19523TIP3   OH279983   5.081   4.115  11.484  0.0389  0.1877  0.0809
19523TIP3    H179984   5.037   4.112  11.399  1.1385  1.3076 -0.5766
19523TIP3    H279985   5.062   4.202  11.518 -1.5657 -0.7298  1.6974
19524TIP3   OH279986   5.315   1.878  13.465  0.1020 -0.5030  0.3895
19524TIP3    H179987   5.235   1.923  13.437 -1.3627 -2.3522  1.3532
19524TIP3    H279988   5.346   1.832  13.387  0.2522  0.2262  0.0094
19525TIP3   OH279989   4.614   5.312  13.549 -0.2788  0.3371 -0.4799
19525TIP3    H179990   4.630   5.399  13.585 -0.0868 -0.4898  1.5575
19525TIP3    H279991   4.535   5.322  13.496 -1.2552  1.4397  1.0857
19526TIP3   OH279992   0.286   2.631  16.445 -0.2332  0.0255 -0.3290
19526TIP3    H179993   0.197   2.599  16.426 -0.3832  1.3919 -2.1031
19526TIP3    H279994   0.343   2.559  16.419 -0.6306  0.6174 -3.1654
19527TIP3   OH279995   2.089   4.050   0.870  0.5788 -0.0705 -0.1768
19527TIP3    H179996   2.135   3.966   0.875 -1.6322 -1.3747 -0.3614
19527TIP3    H279997   2.143   4.103   0.812  0.6750 -2.3680 -2.3811
19528TIP3   OH279998   1.528   2.505   6.519 -0.2391 -0.5917 -0.5173
19528TIP3    H179999   1.537   2.567   6.446  1.3574  0.1207  0.2511
19528TIP3    H280000   1.601   2.525   6.577 -0.0070 -2.8314  0.0490
19529TIP3   OH280001   3.718   5.249   3.703 -0.3964  0.2189 -0.2328
19529TIP3    H180002   3.680   5.162   3.713  0.4470 -0.2506 -0.9740
19529TIP3    H280003   3.689   5.297   3.781 -0.9216 -0.6998  0.1529
19530TIP3   OH280004   4.574   0.720  15.196 -0.3539  0.2086  1.3493
19530TIP3    H180005   4.601   0.661  15.127  1.4586  0.3415  1.8816
19530TIP3    H280006   4.610   0.805  15.170 -2.2314  0.9451  0.9947
19531TIP3   OH280007   5.383   0.607  12.137 -0.2092 -0.0376 -0.0160
19531TIP3    H180008   5.467   0.652  12.149  1.8146 -3.0952 -1.4836
19531TIP3    H280009   5.380   0.585  12.044 -1.8675 -1.4033  0.3036
19532TIP3   OH280010   0.982   1.784  11.374  0.1014 -0.3693 -0.2747
19532TIP3    H180011   0.892   1.780  11.407  0.0064 -0.8748 -0.5871
19532TIP3    H280012   0.976   1.757  11.283  0.6365 -0.8804 -0.1649
19533TIP3   OH280013   3.045   5.162   5.381  0.6537 -0.0595 -0.1383
19533TIP3    H180014   2.979   5.097   5.406  0.4540  0.3547  0.4368
19533TIP3    H280015   3.124   5.111   5.365  0.6594 -0.3973  0.8901
19534TIP3   OH280016   3.360   2.292  13.066 -0.1469  0.2403 -0.2960
19534TIP3    H180017   3.305   2.369  13.081 -0.6335 -0.0412 -0.5968
19534TIP3    H280018   3.319   2.248  12.991  0.4901  0.0248 -0.5195
19535TIP3   OH280019   1.436   5.473  16.915  0.0923 -0.0843 -0.1185
19535TIP3    H180020   1.515   5.494  16.965 -0.0467 -1.1364  0.5859
19535TIP3    H280021   1.370   5.533  16.949  0.0614 -0.6285  0.8264
19536TIP3   OH280022   0.700   5.336   5.357 -0.3308 -0.1344 -0.4725
19536TIP3    H180023   0.691   5.405   5.422 -0.7170  0.3588 -1.0347
19536TIP3    H280024   0.632   5.273   5.379 -1.0414  0.4637 -0.9163
19537TIP3   OH280025   1.305   6.710   4.412 -0.2704 -0.3140  0.3971
19537TIP3    H180026   1.375   6.653   4.380 -1.3615 -1.2801 -0.3511
19537TIP3    H280027   1.224   6.664   4.388 -1.1722  0.0437  2.4997
19538TIP3   OH280028   4.786   6.723   5.195  0.2129  0.5967  0.1282
19538TIP3    H180029   4.806   6.647   5.140  1.6037  0.8229  0.2746
19538TIP3    H280030   4.817   6.698   5.282  0.8787  1.4015  0.1312
19539TIP3   OH280031   6.486   1.709   4.488 -0.5111 -0.1402 -0.1647
19539TIP3    H180032   6.553   1.758   4.536 -0.1500  0.4653 -1.2805
19539TIP3    H280033   6.420   1.689   4.555  0.2235  0.2370  0.7039
19540TIP3   OH280034   6.254   1.534   1.942  0.2748 -0.8610 -0.5642
19540TIP3    H180035   6.201   1.459   1.972  1.2119 -0.8720  1.2227
19540TIP3    H280036   6.223   1.607   1.995  1.1656 -0.5891 -0.4091
19541TIP3   OH280037   4.366   2.476  17.278 -0.6290 -0.1056 -0.4535
19541TIP3    H180038   4.396   2.440  17.362 -0.1619  0.3348 -0.4237
19541TIP3    H280039   4.321   2.557  17.301 -1.0112 -0.2787 -0.5833
19542TIP3   OH280040   5.514   3.140  14.188  0.1048  0.3864 -0.0356
19542TIP3    H180041   5.533   3.217  14.133  0.7291 -1.4611 -2.5677
19542TIP3    H280042   5.548   3.066  14.138 -1.8534 -1.7381  1.5757
19543TIP3   OH280043   4.026   0.091  14.951 -0.2848  0.7529 -0.3480
19543TIP3    H180044   3.992   0.013  14.908 -4.2752  1.8009  0.3999
19543TIP3    H280045   4.120   0.087  14.938 -0.4618 -3.1810 -1.9054
19544TIP3   OH280046   6.341   4.015   2.985 -0.0204  0.0499 -0.5447
19544TIP3    H180047   6.431   3.983   2.988  0.6100  1.7192 -0.4757
19544TIP3    H280048   6.292   3.944   2.943  1.4008 -0.7059 -1.0162
19545TIP3   OH280049   2.139   3.005  14.439 -0.0888  0.5910 -0.4323
19545TIP3    H180050   2.142   2.910  14.439 -0.5964  0.4667  2.6749
19545TIP3    H280051   2.050   3.027  14.464  0.8790  1.7016  2.4982
19546TIP3   OH280052   1.406   3.949   5.802  0.6890  0.2556  0.5477
19546TIP3    H180053   1.384   4.041   5.813  1.4759  0.5444 -0.2417
19546TIP3    H280054   1.359   3.905   5.873 -1.8717  0.8952 -0.6384
19547TIP3   OH280055   4.301   5.748  11.619 -0.2737 -0.5730  0.5770
19547TIP3    H180056   4.395   5.765  11.614  0.0292 -1.8744  1.4676
19547TIP3    H280057   4.264   5.802  11.550  0.8405  1.8990  1.7956
19548TIP3   OH280058   5.900   0.097  15.350  0.0735  0.1631 -0.0729
19548TIP3    H180059   5.877   0.180  15.390 -1.1811  0.4045 -1.2052
19548TIP3    H280060   5.914   0.118  15.257 -2.8746 -1.2029 -0.9530
19549TIP3   OH280061   0.070   5.040  13.859  0.4941 -0.8599  0.3388
19549TIP3    H180062   0.023   5.002  13.933  0.9997  1.8800  2.2381
19549TIP3    H280063   0.001   5.072  13.801  0.0885 -2.3076 -0.0137
19550TIP3   OH280064   5.878   3.080  14.125  0.4389 -0.0040  0.4790
19550TIP3    H180065   5.821   3.054  14.052  0.6322 -1.3041  0.7549
19550TIP3    H280066   5.849   3.025  14.198  2.4600 -1.2213  0.4498
19551TIP3   OH280067   0.223   0.162  16.551 -0.0391 -0.0361 -0.7335
19551TIP3    H180068   0.307   0.116  16.554 -0.0433  0.0086  0.2057
19551TIP3    H280069   0.172   0.114  16.486  0.6748 -0.1230 -1.2445
19552TIP3   OH280070   0.788   6.185   4.826 -0.1544 -0.1716 -0.1897
19552TIP3    H180071   0.780   6.101   4.780  2.8513 -0.3926 -0.5347
19552TIP3    H280072   0.868   6.225   4.789  0.5044  1.1883  2.4673
19553TIP3   OH280073   0.777   3.604   0.804 -0.5317  0.2058  0.0076
19553TIP3    H180074   0.839   3.564   0.744  0.7539  0.8091  0.8848
19553TIP3    H280075   0.713   3.535   0.823 -2.4298  0.6246 -3.8236
19554TIP3   OH280076   4.507   5.527  12.749  0.2897 -0.2514 -0.4807
19554TIP3    H180077   4.571   5.573  12.695  2.2364 -2.1949  0.0152
19554TIP3    H280078   4.490   5.446  12.702 -0.3273 -0.6104  0.3395
19555TIP3   OH280079   5.452   0.561  16.079 -0.0743  0.5365 -0.1531
19555TIP3    H180080   5.406   0.482  16.109  0.0569  0.7922  0.7183
19555TIP3    H280081   5.545   0.538  16.085 -0.0071  1.0493  0.9344
19556TIP3   OH280082   2.604   5.898   3.225  0.4347 -0.5467 -0.2402
19556TIP3    H180083   2.524   5.910   3.173  0.5346  0.6337 -0.1505
19556TIP3    H280084   2.667   5.959   3.186  0.3271  0.8206  1.6267
19557TIP3   OH280085   4.715   1.883  11.655  0.0486 -0.1595  0.0278
19557TIP3    H180086   4.652   1.936  11.704 -0.6555 -0.7272 -0.2369
19557TIP3    H280087   4.722   1.927  11.571 -0.5213 -0.4576 -0.1855
19558TIP3   OH280088   1.202   3.911   3.737 -0.1296  0.3106  0.3736
19558TIP3    H180089   1.125   3.931   3.791  0.7020 -0.2743  1.8405
19558TIP3    H280090   1.182   3.949   3.652 -0.6170  3.1650  1.6300
19559TIP3   OH280091   5.074   0.300   5.238  0.3571  0.1912 -0.2370
19559TIP3    H180092   5.123   0.349   5.304 -0.1363  0.5172 -0.1069
19559TIP3    H280093   5.121   0.217   5.229  0.8292  0.4291  0.0127
19560TIP3   OH280094   3.488   1.992   3.151  0.6043  0.0911  0.0139
19560TIP3    H180095   3.572   1.996   3.105  0.3399  0.2434 -0.4673
19560TIP3    H280096   3.427   1.956   3.086  0.0461  1.0917 -0.0392
19561TIP3   OH280097   5.700   1.200  16.242  0.4741 -0.4094 -0.2939
19561TIP3    H180098   5.616   1.157  16.225  0.1003  0.5687 -1.0120
19561TIP3    H280099   5.756   1.174  16.169 -0.3156  1.7048 -1.7271
19562TIP3   OH280100   0.245   4.583  14.053  0.7395 -0.7561 -0.2458
19562TIP3    H180101   0.254   4.676  14.034  2.6544 -0.8847 -0.1322
19562TIP3    H280102   0.300   4.540  13.987  1.9960 -1.6192  1.3084
19563TIP3   OH280103   2.876   1.468  13.835  0.3620 -0.0376  0.3310
19563TIP3    H180104   2.928   1.476  13.755 -1.1717  0.3666 -0.6646
19563TIP3    H280105   2.798   1.521  13.819  0.5397  1.0204  2.5678
19564TIP3   OH280106   3.349   3.444  11.774  0.2619 -0.2268 -0.4112
19564TIP3    H180107   3.444   3.444  11.763  0.4381  1.9019  0.5409
19564TIP3    H280108   3.317   3.512  11.715 -0.8211 -1.6156 -1.4849
19565TIP3   OH280109   3.925   4.904   1.418  0.3697 -0.3482  0.2749
19565TIP3    H180110   3.846   4.928   1.369 -0.9943 -2.0582  1.4794
19565TIP3    H280111   3.986   4.873   1.351 -1.1070 -1.7690 -0.4855
19566TIP3   OH280112   4.037   6.375  10.850  0.0474 -0.3453 -0.3936
19566TIP3    H180113   3.966   6.435  10.826  0.6680  0.2121 -0.9146
19566TIP3    H280114   4.076   6.350  10.766  0.4227 -0.6952 -0.1175
19567TIP3   OH280115   5.955   6.279  12.357 -0.6221  0.0996 -0.4949
19567TIP3    H180116   5.890   6.293  12.426  0.4544  1.2025  0.3524
19567TIP3    H280117   5.922   6.204  12.308 -1.4422 -0.7215  1.2111
19568TIP3   OH280118   3.516   2.249   3.447 -0.4956  0.0114 -0.3324
19568TIP3    H180119   3.516   2.303   3.526  1.9901 -0.1203 -0.1689
19568TIP3    H280120   3.476   2.305   3.380  2.2085  2.2728 -0.2331
19569TIP3   OH280121   6.486   5.400   0.793  0.1910 -0.0603  0.0671
19569TIP3    H180122   6.556   5.439   0.741 -0.6903  0.2090 -0.9474
19569TIP3    H280123   6.479   5.457   0.870 -0.3249  1.1676 -0.8492
19570TIP3   OH280124   5.233   3.230   1.741 -0.1310  0.1503  0.4780
19570TIP3    H180125   5.139   3.222   1.757 -0.7138  1.8367 -1.6422
19570TIP3    H280126   5.259   3.309   1.787 -0.3439  1.1186 -1.0010
19571TIP3   OH280127   6.015   3.113   5.324  0.5560  0.6196 -0.1288
19571TIP3    H180128   5.976   3.076   5.403 -1.2149 -0.9806 -1.6529
19571TIP3    H280129   5.947   3.169   5.287  1.6583  2.0250 -0.1586
19572TIP3   OH280130   4.601   1.672   2.633  0.3329  0.1960  0.4415
19572TIP3    H180131   4.552   1.589   2.629  0.5515  0.0986 -0.4036
19572TIP3    H280132   4.535   1.737   2.656 -0.2437  0.0842 -0.8066
19573TIP3   OH280133   3.046   5.337  11.783  0.3721  0.4645 -0.1498
19573TIP3    H180134   3.109   5.277  11.743 -0.0877 -0.2732  0.2191
19573TIP3    H280135   2.960   5.305  11.754  0.1592  1.5898 -0.8255
19574TIP3   OH280136   5.946   5.954  14.712  0.1721 -0.7448  0.1060
19574TIP3    H180137   5.932   6.036  14.759 -0.7087 -1.1559  0.5829
19574TIP3    H280138   5.860   5.912  14.712  0.7227 -1.9003  0.3280
19575TIP3   OH280139   0.252   3.202   4.709  0.3524 -0.3204  0.6487
19575TIP3    H180140   0.332   3.186   4.758 -0.6870 -0.8145  2.2522
19575TIP3    H280141   0.215   3.115   4.695 -1.2796  0.0278  2.3876
19576TIP3   OH280142   0.939   3.550   5.324 -0.0452 -0.3982 -0.6611
19576TIP3    H180143   1.023   3.518   5.357  0.3082  0.4749 -0.6792
19576TIP3    H280144   0.911   3.615   5.388 -0.1336  0.1573 -1.2515
19577TIP3   OH280145   0.524   2.734   5.961 -0.3102  0.0261  0.5431
19577TIP3    H180146   0.591   2.675   5.995  0.9521  0.7173 -0.6640
19577TIP3    H280147   0.556   2.822   5.983 -1.1403  0.3513  0.5009
19578TIP3   OH280148   4.209   5.920  16.983  0.3965  0.9869  0.1653
19578TIP3    H180149   4.140   5.858  16.960  0.8233  1.2445 -2.0767
19578TIP3    H280150   4.175   5.966  17.060 -1.3051  0.1335 -0.0223
19579TIP3   OH280151   3.674   3.186   2.399 -0.6310  0.4729  0.4928
19579TIP3    H180152   3.732   3.252   2.438 -0.7942  1.7437 -1.2827
19579TIP3    H280153   3.732   3.116   2.371 -0.5545 -0.7505  3.3793
19580TIP3   OH280154   1.939   6.634  15.119 -0.2903 -0.0380  0.1333
19580TIP3    H180155   1.868   6.585  15.077  1.4285  0.0503 -3.2485
19580TIP3    H280156   1.900   6.719  15.140 -1.5101 -0.4022 -0.5464
19581TIP3   OH280157   3.271   1.296   0.319  0.4126  0.1997  0.1068
19581TIP3    H180158   3.292   1.359   0.387  2.5564  0.5875 -0.8277
19581TIP3    H280159   3.313   1.215   0.348  0.5121  0.1140 -0.2631
19582TIP3   OH280160   0.140   2.872   0.148  0.5279  0.1660 -0.6381
19582TIP3    H180161   0.045   2.870   0.138  0.5040 -1.2380 -0.3194
19582TIP3    H280162   0.161   2.965   0.155 -0.8805  0.4725 -0.1247
19583TIP3   OH280163   2.400   2.631  12.298  0.0969  0.3033 -0.0574
19583TIP3    H180164   2.355   2.576  12.361 -1.0247  1.8278  0.5381
19583TIP3    H280165   2.334   2.652  12.232  0.9612 -0.3905 -1.1771
19584TIP3   OH280166   1.218   2.908   0.697  0.2299 -0.0898 -0.8062
19584TIP3    H180167   1.128   2.933   0.676 -0.4366 -1.0218  0.7490
19584TIP3    H280168   1.234   2.944   0.784  1.3305 -0.0318 -1.0173
19585TIP3   OH280169   4.156   2.401   3.122 -0.1474  0.5882 -0.1122
19585TIP3    H180170   4.180   2.339   3.190 -0.0078  1.1361  0.3428
19585TIP3    H280171   4.093   2.354   3.068 -0.9633  0.4562  0.9309
19586TIP3   OH280172   2.129   3.085   0.227 -0.1703  0.8265 -0.1426
19586TIP3    H180173   2.044   3.046   0.208 -0.1639  1.0471 -0.6375
19586TIP3    H280174   2.146   3.062   0.318 -0.2368 -0.1974 -0.3756
19587TIP3   OH280175   1.359   2.633  11.948 -0.2349 -0.6028  0.2850
19587TIP3    H180176   1.264   2.630  11.954 -0.2250 -1.4003  0.1390
19587TIP3    H280177   1.384   2.545  11.918  0.6778 -1.1671  2.4786
19588TIP3   OH280178   1.758   1.197   5.877 -0.2535  0.1744  0.2819
19588TIP3    H180179   1.821   1.217   5.947  1.9885 -0.9019 -1.3099
19588TIP3    H280180   1.691   1.145   5.920  0.5851  0.2711  1.8134
19589TIP3   OH280181   4.437   5.641  14.340 -0.2949  0.1861  0.0364
19589TIP3    H180182   4.469   5.551  14.328  3.7538  1.0296  2.7950
19589TIP3    H280183   4.470   5.688  14.264  0.3856 -0.0341  0.1894
19590TIP3   OH280184   4.239   3.387  15.663 -0.1520 -0.1650 -0.7119
19590TIP3    H180185   4.197   3.302  15.658 -1.6043  0.4847  0.1115
19590TIP3    H280186   4.277   3.390  15.750 -0.8856  0.3777 -0.4064
19591TIP3   OH280187   5.331   3.866   5.510 -0.1534 -0.4922  0.1703
19591TIP3    H180188   5.395   3.834   5.572 -0.3912 -1.6518 -0.1467
19591TIP3    H280189   5.376   3.865   5.425 -0.6328 -1.5594 -0.0956
19592TIP3   OH280190   5.840   3.598   3.717 -0.4437 -0.1431 -0.0218
19592TIP3    H180191   5.814   3.508   3.739  0.4786 -0.2494  0.7418
19592TIP3    H280192   5.934   3.600   3.737 -0.4769  1.0197  0.0462
19593TIP3   OH280193   6.475   2.389  16.463  0.4279 -0.1861  0.3948
19593TIP3    H180194   6.434   2.444  16.530  0.3298 -0.5277  0.6201
19593TIP3    H280195   6.487   2.304  16.506 -2.2405 -1.2972 -0.8670
19594TIP3   OH280196   6.733   1.663   5.878  0.0535 -0.3325 -0.2855
19594TIP3    H180197   6.695   1.732   5.932 -1.6565 -0.5676 -1.1088
19594TIP3    H280198   6.827   1.679   5.881 -0.1197  0.5486  1.5140
19595TIP3   OH280199   0.823   4.495  11.349 -0.6307 -0.8472 -0.0769
19595TIP3    H180200   0.780   4.580  11.348 -2.2653 -1.6065  0.8376
19595TIP3    H280201   0.879   4.495  11.271 -1.0560  0.8214 -0.4140
19596TIP3   OH280202   5.971   5.851  13.821  0.1146  1.1697 -0.1190
19596TIP3    H180203   5.893   5.798  13.805  1.0182  0.1901 -1.4716
19596TIP3    H280204   5.963   5.923  13.758  0.7468  0.5618 -0.9044
19597TIP3   OH280205   0.851   5.089   6.654 -0.3676 -0.6079 -0.2315
19597TIP3    H180206   0.848   5.038   6.735  0.1132  0.3892  0.4487
19597TIP3    H280207   0.938   5.072   6.618 -0.6222 -1.1388 -0.6091
19598TIP3   OH280208   1.887   1.222  17.281  0.2390  0.0993  0.5146
19598TIP3    H180209   1.947   1.153  17.310  0.8459  0.9127  1.2391
19598TIP3    H280210   1.848   1.256  17.362 -0.6458  0.0965  0.1065
19599TIP3   OH280211   2.308   6.668  13.417 -0.2635 -0.4480  0.2973
19599TIP3    H180212   2.365   6.742  13.438 -2.7170  1.3272  1.0529
19599TIP3    H280213   2.333   6.600  13.480  0.4041  0.5978  1.1973
19600TIP3   OH280214   3.089   4.846  12.501  0.3904 -0.2128  0.5353
19600TIP3    H180215   3.130   4.884  12.579 -1.0717 -1.0009  1.7693
19600TIP3    H280216   3.118   4.755  12.500 -0.6802 -0.5843  1.0128
19601TIP3   OH280217   0.357   4.513   2.968  0.1348 -0.0470  0.2962
19601TIP3    H180218   0.336   4.606   2.966  1.3175  0.3447  2.7840
19601TIP3    H280219   0.444   4.507   2.927  0.2436  0.0019  0.5204
19602TIP3   OH280220   1.640   5.115  12.421 -0.1782 -0.3664  0.2632
19602TIP3    H180221   1.595   5.126  12.504  1.2995 -2.1873  1.3794
19602TIP3    H280222   1.608   5.032  12.386 -1.3662  0.7364 -1.4437
19603TIP3   OH280223   0.960   1.270  10.896  0.5403 -0.0190  0.2671
19603TIP3    H180224   0.992   1.352  10.934 -1.4389  1.1042 -0.3307
19603TIP3    H280225   0.919   1.297  10.814 -0.0361 -1.6360 -0.0060
19604TIP3   OH280226   2.447   1.579  13.107  1.3385  0.2354 -0.3771
19604TIP3    H180227   2.522   1.527  13.136  0.6849 -0.1691  0.6489
19604TIP3    H280228   2.394   1.591  13.186 -1.7944 -3.0130 -1.7018
19605TIP3   OH280229   5.569   4.590   5.943  0.0193  0.1686  0.2311
19605TIP3    H180230   5.611   4.575   6.028  0.3231 -0.0122  0.0482
19605TIP3    H280231   5.598   4.677   5.917  0.8749 -0.2518 -0.2415
19606TIP3   OH280232   0.698   6.355   4.083 -0.0101 -0.1999 -1.0682
19606TIP3    H180233   0.642   6.342   4.007 -0.2638  1.3690 -1.1992
19606TIP3    H280234   0.750   6.433   4.061  1.3085 -0.8559 -0.4186
19607TIP3   OH280235   6.249   5.637   4.324  0.3004  0.7931  0.0106
19607TIP3    H180236   6.341   5.641   4.348  0.3865  2.7764 -0.5520
19607TIP3    H280237   6.245   5.666   4.233 -0.5325 -2.5364 -1.1768
19608TIP3   OH280238   3.331   3.431   6.417  0.0235  0.0488  0.0587
19608TIP3    H180239   3.353   3.340   6.437  0.3044 -0.3900 -2.0898
19608TIP3    H280240   3.237   3.438   6.435  0.1412 -0.4342  0.9265
19609TIP3   OH280241   5.809   0.532  16.848 -0.4498 -0.4315  0.5699
19609TIP3    H180242   5.869   0.480  16.795 -0.8671 -0.5230  0.1775
19609TIP3    H280243   5.861   0.561  16.923 -0.1339 -1.1514  0.6309
19610TIP3   OH280244   0.958   2.253   3.601 -0.6427 -0.2196  0.0588
19610TIP3    H180245   0.884   2.255   3.661 -0.8893 -1.6208 -0.1757
19610TIP3    H280246   0.918   2.247   3.514 -0.2625  0.2537 -0.1575
19611TIP3   OH280247   5.508   2.134  13.384  0.4338  0.1368  0.3695
19611TIP3    H180248   5.545   2.169  13.303  1.5174  1.0507  1.2253
19611TIP3    H280249   5.517   2.039  13.375  0.2790  0.2067 -0.6844
19612TIP3   OH280250   6.193   2.909   1.930 -0.0180  0.3916  0.7537
19612TIP3    H180251   6.246   2.940   2.004  1.4230  1.5861 -0.6890
19612TIP3    H280252   6.153   2.988   1.894  0.9269  0.1539 -0.9197
19613TIP3   OH280253   5.053   5.811  16.406 -0.1841 -0.1400  0.3539
19613TIP3    H180254   5.120   5.868  16.367 -1.8341  0.2263 -2.2034
19613TIP3    H280255   5.081   5.723  16.382  0.2724 -0.1250  0.8127
19614TIP3   OH280256   0.035   5.430  12.984 -0.6919  0.1313 -0.4181
19614TIP3    H180257  -0.019   5.427  13.063  0.9408  1.2590  0.8148
19614TIP3    H280258   0.040   5.339  12.955 -1.6060 -0.2578  0.5782
19615TIP3   OH280259   1.465   5.617   2.668  0.1034  0.2383  0.6810
19615TIP3    H180260   1.494   5.657   2.586  2.9169 -1.7007  0.5729
19615TIP3    H280261   1.384   5.571   2.645 -0.1888  1.3112 -0.5154
19616TIP3   OH280262   3.425   0.643   5.780  0.2206  0.2098 -0.2883
19616TIP3    H180263   3.517   0.623   5.799 -0.1553 -1.3970  0.0109
19616TIP3    H280264   3.385   0.660   5.865  0.3998  1.8214 -0.4905
19617TIP3   OH280265   4.155   6.156   1.907  0.5940  0.2965  0.2437
19617TIP3    H180266   4.235   6.109   1.927  0.2313  0.5386  2.5816
19617TIP3    H280267   4.175   6.247   1.928 -0.7110  0.1372  2.4467
19618TIP3   OH280268   4.867   5.767   4.475 -0.2537 -0.0184 -0.3540
19618TIP3    H180269   4.813   5.809   4.408  0.6662  0.6001 -0.7315
19618TIP3    H280270   4.807   5.750   4.548 -1.3587 -1.0360 -1.4506
19619TIP3   OH280271   1.705   4.518  13.840  0.6718 -0.2699  0.2991
19619TIP3    H180272   1.706   4.432  13.797 -1.7903  0.2245 -0.9291
19619TIP3    H280273   1.783   4.562  13.806  2.0713 -2.0020  1.0671
19620TIP3   OH280274   0.833   4.095  13.312 -0.2143  0.1023 -0.4573
19620TIP3    H180275   0.790   4.177  13.335 -1.0654 -0.2704 -0.6901
19620TIP3    H280276   0.820   4.086  13.218 -0.4831 -0.5010 -0.3688
19621TIP3   OH280277   5.148   2.553   3.329 -0.0823  0.3503  0.1492
19621TIP3    H180278   5.157   2.492   3.256  0.4256 -0.1089  0.5858
19621TIP3    H280279   5.092   2.507   3.392 -0.7143  0.8389 -0.0430
19622TIP3   OH280280   4.342   5.741  17.337  0.1415  0.4387 -0.0042
19622TIP3    H180281   4.373   5.690  17.412  1.0653 -1.5208 -1.6459
19622TIP3    H280282   4.249   5.722  17.333  0.3931 -0.8397 -0.3341
19623TIP3   OH280283   5.927   2.096   5.269  0.2889  0.4169 -0.1794
19623TIP3    H180284   5.852   2.155   5.259  1.0719  1.2392 -1.5098
19623TIP3    H280285   5.980   2.136   5.338  0.5607  1.0263 -0.7264
19624TIP3   OH280286   1.315   1.766   2.559  0.1256  0.1051 -0.7496
19624TIP3    H180287   1.384   1.823   2.526  0.8652 -1.3602 -1.8076
19624TIP3    H280288   1.330   1.681   2.517 -1.3687 -0.6980  0.2197
19625TIP3   OH280289   2.668   4.354  11.908  0.5366  0.4722  0.0025
19625TIP3    H180290   2.710   4.382  11.827 -0.4412  2.4506  0.1200
19625TIP3    H280291   2.582   4.322  11.881  0.3291  0.8424  0.2163
19626TIP3   OH280292   1.451   4.132  11.969  0.0099  0.2056 -0.0835
19626TIP3    H180293   1.414   4.146  12.056  0.5808 -1.6139  0.4977
19626TIP3    H280294   1.376   4.137  11.910 -0.0976  3.9270  0.1056
19627TIP3   OH280295   6.002   4.906  16.300  0.3879  0.0462 -0.2355
19627TIP3    H180296   6.083   4.952  16.323  0.2048 -0.8014  2.3723
19627TIP3    H280297   6.026   4.813  16.303 -0.7863 -0.2423  1.2115
19628TIP3   OH280298   5.457   5.050   2.309 -0.9276  0.2722  0.8143
19628TIP3    H180299   5.541   5.039   2.353 -0.6329  0.6745  0.3630
19628TIP3    H280300   5.478   5.092   2.226 -1.5829  0.4763  0.7397
19629TIP3   OH280301   2.796   0.894  15.413  0.0162  0.2762  0.3782
19629TIP3    H180302   2.838   0.973  15.447  0.6550  0.0601  0.1049
19629TIP3    H280303   2.787   0.911  15.319 -2.4050  1.1736  0.7177
19630TIP3   OH280304   0.947   5.772  14.998 -0.4128 -0.2900 -0.1840
19630TIP3    H180305   0.966   5.803  15.086 -0.0860 -0.2004 -0.2849
19630TIP3    H280306   0.993   5.688  14.992 -0.5587 -0.3690 -0.2196
19631TIP3   OH280307   3.093   2.710   3.357  0.0868  0.8282 -0.3297
19631TIP3    H180308   3.180   2.671   3.356 -0.1051  0.1944  2.0489
19631TIP3    H280309   3.091   2.765   3.435 -1.3150  1.6693 -0.9053
19632TIP3   OH280310   1.043   4.027   5.931 -0.0808 -0.1223  0.1666
19632TIP3    H180311   1.116   3.991   5.981  0.5765 -0.3912 -0.9518
19632TIP3    H280312   1.020   4.108   5.977  1.2215  0.1961  0.2817
19633TIP3   OH280313   0.695   1.586   2.034  0.2939 -0.5296 -0.7191
19633TIP3    H180314   0.693   1.518   2.102 -0.6765 -0.6300 -0.8341
19633TIP3    H280315   0.692   1.537   1.952 -1.5698 -0.3373 -0.7934
19634TIP3   OH280316   1.606   0.229  13.343  0.3554  0.1462  0.3633
19634TIP3    H180317   1.688   0.190  13.313  0.9557  0.9369  0.9410
19634TIP3    H280318   1.564   0.160  13.394  0.0718 -0.6743 -0.9221
19635TIP3   OH280319   4.838   6.554  16.180 -0.1285 -0.4030 -0.1000
19635TIP3    H180320   4.813   6.505  16.258 -1.8681 -0.0618 -0.4042
19635TIP3    H280321   4.916   6.602  16.205 -0.6263 -0.3407  1.4172
19636TIP3   OH280322   6.046   2.429   2.143 -0.0841 -0.6471 -0.0071
19636TIP3    H180323   6.029   2.491   2.214 -1.4753 -0.2696 -0.6442
19636TIP3    H280324   6.003   2.348   2.171  1.0197 -1.0985  0.4418
19637TIP3   OH280325   4.865   1.579  12.126 -0.0945  0.3099 -0.6285
19637TIP3    H180326   4.872   1.527  12.206 -0.0231  0.0672 -0.7871
19637TIP3    H280327   4.775   1.611  12.126 -0.5525 -0.9074 -1.1719
19638TIP3   OH280328   6.442   5.655  16.750 -0.3004  0.2551 -0.3070
19638TIP3    H180329   6.411   5.695  16.669 -0.6799 -0.7181 -0.6529
19638TIP3    H280330   6.467   5.729  16.805 -1.8383  1.0121 -0.5834
19639TIP3   OH280331   5.696   0.515   6.341  0.2581 -0.3923 -0.4961
19639TIP3    H180332   5.719   0.570   6.266 -1.5278 -0.5460 -1.1971
19639TIP3    H280333   5.761   0.538   6.408  1.8150 -0.1728 -2.0233
19640TIP3   OH280334   3.226   2.531   4.737 -0.3634 -0.1886  0.5087
19640TIP3    H180335   3.198   2.506   4.649  1.4522  0.1599 -0.2070
19640TIP3    H280336   3.209   2.625   4.741 -0.2720 -0.1699  0.4611
19641TIP3   OH280337   2.653   2.845   0.004  0.5842 -0.3583  0.0746
19641TIP3    H180338   2.714   2.790   0.054  0.3574 -0.2313  0.4892
19641TIP3    H280339   2.606   2.896   0.070 -0.3644 -0.8471 -0.2087
19642TIP3   OH280340   4.067   3.636  14.737  0.1129  0.2693 -0.1496
19642TIP3    H180341   4.071   3.607  14.828  0.4810 -1.0356 -0.5552
19642TIP3    H280342   3.978   3.669  14.726 -0.5739 -1.3807  0.1836
19643TIP3   OH280343   4.829   1.461   1.230 -0.3972  0.6305 -0.6763
19643TIP3    H180344   4.779   1.470   1.311 -0.2002  0.2011 -0.5069
19643TIP3    H280345   4.917   1.494   1.252  0.4774 -1.9447  0.0845
19644TIP3   OH280346   1.683   3.045  13.056  0.0786 -0.0201  0.1430
19644TIP3    H180347   1.661   3.034  13.148  0.5357 -2.7669  0.0104
19644TIP3    H280348   1.599   3.046  13.010 -0.0800 -0.5048  0.4276
19645TIP3   OH280349   4.340   1.721   1.953  0.0323 -0.1844 -0.2935
19645TIP3    H180350   4.329   1.633   1.916  0.6435 -0.4269  0.0944
19645TIP3    H280351   4.406   1.763   1.897  0.9520 -0.5493  0.5002
19646TIP3   OH280352   5.013   5.013  14.387 -0.0989  0.5601 -1.0360
19646TIP3    H180353   5.102   5.043  14.367 -0.0256  2.2715  1.4013
19646TIP3    H280354   4.958   5.056  14.321  0.7690  0.1940 -2.0201
19647TIP3   OH280355   2.095   2.458   3.091 -0.4243 -0.1997  0.1231
19647TIP3    H180356   2.168   2.402   3.118  0.0169  0.4744  0.3445
19647TIP3    H280357   2.055   2.412   3.017  1.5178  0.4411 -1.4033
19648TIP3   OH280358   1.658   6.271   2.704  0.1838  0.1911  0.0385
19648TIP3    H180359   1.601   6.308   2.771 -0.3376 -0.4938 -0.0180
19648TIP3    H280360   1.619   6.301   2.621  0.6022  0.7124  0.0252
19649TIP3   OH280361   0.721   3.407   0.217 -0.1654 -0.4596 -0.4678
19649TIP3    H180362   0.702   3.335   0.278  1.0094 -1.1663 -0.8980
19649TIP3    H280363   0.724   3.365   0.131  0.7967  0.0466 -0.6970
19650TIP3   OH280364   5.073   4.524   4.031 -0.5262  0.2444  0.9843
19650TIP3    H180365   5.069   4.557   3.941 -0.9039 -1.2679  0.4166
19650TIP3    H280366   4.988   4.549   4.068 -0.2320  1.1845  1.0507
19651TIP3   OH280367   2.395   5.332   3.921  0.2129 -0.7318  0.0318
19651TIP3    H180368   2.413   5.278   3.998  1.9142  2.3689  2.0092
19651TIP3    H280369   2.313   5.376   3.942  0.4123 -0.2752 -0.1327
19652TIP3   OH280370   3.928   1.109  10.699 -0.0872  0.2850 -0.1529
19652TIP3    H180371   4.005   1.069  10.740 -1.1785 -0.8562  0.8805
19652TIP3    H280372   3.898   1.174  10.763 -1.5476 -1.2072  0.7853
19653TIP3   OH280373   1.687   4.127   5.003 -0.5560  0.2339  0.4141
19653TIP3    H180374   1.620   4.178   4.956 -0.0697 -0.3799 -0.9905
19653TIP3    H280375   1.770   4.171   4.980 -0.4140  0.7081  1.7668
19654TIP3   OH280376   4.457   0.960  13.524 -0.0910 -0.2114 -0.2516
19654TIP3    H180377   4.521   1.018  13.484 -0.4497  0.2169 -0.2172
19654TIP3    H280378   4.375   1.011  13.523 -0.1118 -0.1996  0.9869
19655TIP3   OH280379   2.720   4.851  15.091  0.3450  0.4232  0.1841
19655TIP3    H180380   2.742   4.895  15.173 -0.0702 -1.9321  1.6401
19655TIP3    H280381   2.625   4.848  15.090  0.3493  0.3282 -0.3332
19656TIP3   OH280382   3.814   5.980   5.183  0.6748  0.0032  0.4748
19656TIP3    H180383   3.835   6.072   5.168  1.2857 -0.2137 -0.0578
19656TIP3    H280384   3.769   5.979   5.268 -0.6685  0.9601 -0.1965
19657TIP3   OH280385   2.623   4.985   1.790 -0.4309 -0.0930 -0.2463
19657TIP3    H180386   2.587   5.047   1.726  0.8872  0.3470 -0.6023
19657TIP3    H280387   2.716   5.010   1.798 -0.0260 -1.6074  0.1063
19658TIP3   OH280388   1.447   0.692   2.390 -0.2599 -0.2513  0.7192
19658TIP3    H180389   1.526   0.666   2.438 -0.1742 -2.7666 -0.6406
19658TIP3    H280390   1.462   0.784   2.368  1.8991 -0.4267  1.2133
19659TIP3   OH280391   0.485   3.125  12.914  0.1451 -0.2320  0.3721
19659TIP3    H180392   0.564   3.168  12.945 -0.5843  2.3213 -1.0362
19659TIP3    H280393   0.428   3.197  12.886 -1.4495 -2.1047 -1.5025
19660TIP3   OH280394   2.497   0.601  13.845  0.0501 -0.1663 -0.0046
19660TIP3    H180395   2.572   0.611  13.904  1.6989 -1.0261 -1.8201
19660TIP3    H280396   2.486   0.506  13.837 -0.0247 -0.0714 -1.1755
19661TIP3   OH280397   4.850   4.453  17.202  0.4012  0.0539  0.1022
19661TIP3    H180398   4.937   4.443  17.162  1.4061 -1.9561  2.5049
19661TIP3    H280399   4.800   4.379  17.168  0.1063  0.3547 -0.1231
19662TIP3   OH280400   6.264   5.594   5.983  0.2205  0.1438  0.0374
19662TIP3    H180401   6.269   5.532   6.055 -1.4943  0.4411  0.4562
19662TIP3    H280402   6.259   5.540   5.904  1.8382 -0.1843  0.1412
19663TIP3   OH280403   1.799   2.839  15.129  0.2557  0.4935 -0.0174
19663TIP3    H180404   1.807   2.935  15.130 -2.2353  0.7957 -0.9783
19663TIP3    H280405   1.722   2.823  15.075  0.0880 -2.0393  0.8784
19664TIP3   OH280406   0.124   1.368  11.694  0.0846  0.4332  0.2260
19664TIP3    H180407   0.199   1.319  11.662  0.6046  0.6453  1.0881
19664TIP3    H280408   0.071   1.304  11.742 -0.0868  0.3670 -0.0503
19665TIP3   OH280409   1.162   1.152   3.699 -0.1217 -0.4961 -0.0080
19665TIP3    H180410   1.142   1.185   3.611  0.0895  0.4678  0.2965
19665TIP3    H280411   1.184   1.060   3.685 -1.4463 -0.7278 -0.7857
19666TIP3   OH280412   2.373   1.307   2.491  0.5294  0.2380 -0.8344
19666TIP3    H180413   2.305   1.333   2.552  0.9471 -0.8833  0.1516
19666TIP3    H280414   2.326   1.281   2.412 -0.5566 -3.5130  0.8400
19667TIP3   OH280415   3.257   4.862  12.202 -0.4038 -0.0728 -0.0580
19667TIP3    H180416   3.319   4.800  12.239 -1.0245 -1.1301 -0.7420
19667TIP3    H280417   3.309   4.942  12.188  0.4213 -0.4506  0.7538
19668TIP3   OH280418   3.734   1.819  17.393  0.9600  0.3124  0.0037
19668TIP3    H180419   3.743   1.769  17.474  2.7038 -0.2258 -0.5033
19668TIP3    H280420   3.700   1.904  17.422 -1.7696 -0.9666  0.9013
19669TIP3   OH280421   0.722   3.693  14.136 -0.7246 -0.7159  0.3136
19669TIP3    H180422   0.719   3.783  14.168  0.4894 -0.1472 -1.0399
19669TIP3    H280423   0.640   3.654  14.166 -0.8333  0.5413  1.7532
19670TIP3   OH280424   0.236   3.481  11.008 -0.5730  0.1355 -0.7821
19670TIP3    H180425   0.295   3.540  10.961  2.2476 -2.4611 -0.7838
19670TIP3    H280426   0.249   3.503  11.100  0.4882 -0.4220 -0.7806
19671TIP3   OH280427   4.678   5.898  16.699  0.1132 -0.3308 -0.3399
19671TIP3    H180428   4.692   5.824  16.759  2.3712  0.2923  0.0196
19671TIP3    H280429   4.625   5.960  16.748 -1.2624 -1.3958 -0.4137
19672TIP3   OH280430   2.625   5.256  12.372  0.2314  0.5142  0.4345
19672TIP3    H180431   2.644   5.340  12.330 -0.7102 -0.3359 -1.8454
19672TIP3    H280432   2.533   5.262  12.398  0.4329  0.5332  1.1558
19673TIP3   OH280433   2.323   3.752  13.691 -1.0654 -0.1613  0.7375
19673TIP3    H180434   2.351   3.800  13.613  1.5832 -0.0756  1.6565
19673TIP3    H280435   2.288   3.820  13.749 -0.6469  0.1613  0.6218
19674TIP3   OH280436   4.262   5.186  14.056 -0.1037 -0.4070  0.5434
19674TIP3    H180437   4.299   5.159  13.972  0.5655 -0.7218  0.9336
19674TIP3    H280438   4.333   5.173  14.119 -0.8618 -0.9545  1.2998
19675TIP3   OH280439   4.498   2.907   2.199 -0.2394 -0.7699  0.1620
19675TIP3    H180440   4.553   2.969   2.151 -0.6322  0.5962  1.3975
19675TIP3    H280441   4.464   2.848   2.132 -0.3410  0.7467 -1.1722
19676TIP3   OH280442   2.971   2.231   2.108 -0.3044  0.3811 -0.3465
19676TIP3    H180443   2.914   2.305   2.088 -0.0863  0.2920 -1.3544
19676TIP3    H280444   3.059   2.262   2.087 -0.1395  0.0405 -0.1661
19677TIP3   OH280445   1.468   3.372  16.447 -0.2763 -0.1982 -0.2934
19677TIP3    H180446   1.539   3.369  16.511 -0.7058  0.6378  0.2474
19677TIP3    H280447   1.470   3.462  16.414  0.4375 -0.8085 -2.0634
19678TIP3   OH280448   4.608   1.212   4.976  0.1704  0.5361  0.2535
19678TIP3    H180449   4.598   1.295   4.930  1.0247  0.3097 -0.3655
19678TIP3    H280450   4.703   1.204   4.991 -0.0832  0.6818  2.2107
19679TIP3   OH280451   0.580   6.520   0.934 -0.0491  0.3137 -1.0780
19679TIP3    H180452   0.641   6.481   0.872 -0.3340  0.6065 -1.5439
19679TIP3    H280453   0.606   6.611   0.940  0.9148 -0.0157  0.3706
19680TIP3   OH280454   5.743   5.255  12.680 -0.2166 -0.9937  0.1331
19680TIP3    H180455   5.821   5.248  12.736 -0.2295 -0.2596  0.2482
19680TIP3    H280456   5.776   5.292  12.598 -0.4667 -0.5634  0.2276
19681TIP3   OH280457   6.667   0.678   1.624 -0.3217  0.5281 -0.4672
19681TIP3    H180458   6.735   0.746   1.620 -1.0089  1.3208  0.7572
19681TIP3    H280459   6.604   0.703   1.556 -0.3867  0.9211 -0.2660
19682TIP3   OH280460   5.081   3.103  14.133  0.7756  0.6697 -0.2040
19682TIP3    H180461   5.041   3.046  14.068 -0.9281  0.6765  0.7649
19682TIP3    H280462   5.047   3.190  14.113 -1.0708  0.4416  1.5517
19683TIP3   OH280463   4.373   6.084   5.827 -0.1302 -0.2783 -0.3712
19683TIP3    H180464   4.419   6.004   5.855  1.9474  0.8174 -0.4110
19683TIP3    H280465   4.373   6.140   5.905  1.3089  0.8822 -1.1443
19684TIP3   OH280466   0.118   6.705   5.232 -0.1922 -0.7124 -0.3085
19684TIP3    H180467   0.113   6.730   5.324 -0.5117  0.0647 -0.5263
19684TIP3    H280468   0.181   6.633   5.229 -0.4346 -0.9629  0.5593
19685TIP3   OH280469   4.551   3.305   4.627  0.2781 -0.2308  0.4309
19685TIP3    H180470   4.625   3.293   4.567  0.8685  0.4554  1.0020
19685TIP3    H280471   4.554   3.227   4.684  0.0871 -0.5807 -0.0329
19686TIP3   OH280472   4.177   5.095   4.128 -0.4703  0.0565  0.0309
19686TIP3    H180473   4.089   5.097   4.089 -0.6062  0.1288  0.3370
19686TIP3    H280474   4.235   5.128   4.059 -0.5668 -0.8068 -0.4765
19687TIP3   OH280475   5.235   2.083   5.717  0.6332 -0.2249  0.0333
19687TIP3    H180476   5.329   2.067   5.727  0.6819 -1.3534 -1.8121
19687TIP3    H280477   5.195   1.999   5.738  0.1180 -0.0390 -0.2118
19688TIP3   OH280478   1.710   0.700  13.253 -0.2307  0.7026 -0.5391
19688TIP3    H180479   1.712   0.606  13.268  1.2017  0.5024 -1.8350
19688TIP3    H280480   1.623   0.727  13.283 -0.4442 -0.9180  0.4017
19689TIP3   OH280481   3.667   3.352   5.147  0.1060 -0.2560 -0.1732
19689TIP3    H180482   3.655   3.301   5.227  0.1501 -0.8080 -0.5131
19689TIP3    H280483   3.761   3.373   5.146  0.2280 -0.7943 -0.4000
19690TIP3   OH280484   5.810   2.321  11.421  0.0543  0.2479 -0.4229
19690TIP3    H180485   5.730   2.289  11.378  0.2615  0.1891 -0.7668
19690TIP3    H280486   5.832   2.400  11.373 -0.2155  0.6788  0.1525
19691TIP3   OH280487   1.208   5.697   6.592  0.2000 -0.3966  0.4271
19691TIP3    H180488   1.302   5.714   6.593  0.5346 -2.0000  0.0487
19691TIP3    H280489   1.190   5.668   6.502 -0.0742 -2.8725  1.2124
19692TIP3   OH280490   3.381   6.215   6.062  0.6108 -0.4148 -0.6883
19692TIP3    H180491   3.369   6.160   6.139 -0.4981 -0.2103 -0.6976
19692TIP3    H280492   3.320   6.288   6.075  0.1789 -0.5371 -1.8983
19693TIP3   OH280493   6.644   6.696   1.774  0.2020  0.5268 -0.7013
19693TIP3    H180494   6.556   6.658   1.773  0.8613 -1.0856 -0.2577
19693TIP3    H280495   6.635   6.774   1.829 -0.3278 -1.4086  2.2091
19694TIP3   OH280496   6.351   4.942  12.418  0.3124  0.1345  0.0547
19694TIP3    H180497   6.327   4.863  12.368 -1.0631  1.8261 -2.1419
19694TIP3    H280498   6.274   4.999  12.410  1.5667  2.0243  0.9132
19695TIP3   OH280499   4.539   0.157   1.777 -0.7471 -1.0261 -0.1541
19695TIP3    H180500   4.603   0.086   1.775 -0.6559 -0.9619 -2.2900
19695TIP3    H280501   4.511   0.162   1.868  1.9253 -1.3691  0.7816
19696TIP3   OH280502   5.181   5.730   5.142 -0.1231  0.0367  0.0581
19696TIP3    H180503   5.206   5.793   5.209  0.5617  0.3034 -0.4429
19696TIP3    H280504   5.113   5.775   5.091 -0.6864 -0.1887  0.5991
19697TIP3   OH280505   5.019   2.418   1.146 -0.4989 -0.1296  0.5386
19697TIP3    H180506   5.108   2.452   1.144  0.5753 -2.7200 -0.0475
19697TIP3    H280507   4.983   2.449   1.229  0.8723  1.1374  0.6828
19698TIP3   OH280508   3.756   5.821  15.032  0.2840 -0.0679  0.2714
19698TIP3    H180509   3.741   5.842  14.940  0.1781  0.6265  0.4438
19698TIP3    H280510   3.851   5.805  15.037  0.2856 -0.1418  0.0368
19699TIP3   OH280511   2.548   6.712  16.179 -0.0572  0.1694 -0.4654
19699TIP3    H180512   2.582   6.655  16.248 -0.4192 -0.2058 -0.5966
19699TIP3    H280513   2.530   6.653  16.105  1.6803  0.7394 -1.4210
19700TIP3   OH280514   5.765   2.903  14.281 -0.1613 -0.3071 -0.4215
19700TIP3    H180515   5.703   2.860  14.223 -0.8458  1.2451 -0.8701
19700TIP3    H280516   5.753   2.859  14.366 -0.4270 -1.3575 -0.9850
19701TIP3   OH280517   6.416   5.700   3.826 -0.5606 -0.7032  0.1682
19701TIP3    H180518   6.463   5.782   3.838  1.5141 -1.7382 -0.4058
19701TIP3    H280519   6.484   5.636   3.803 -1.6558 -3.2272  3.2217
19702TIP3   OH280520   2.619   4.315  12.719  0.4884  0.2867  0.3853
19702TIP3    H180521   2.590   4.279  12.636  0.6763 -0.7509  0.7602
19702TIP3    H280522   2.661   4.398  12.696  1.5162 -0.4965 -0.6825
19703TIP3   OH280523   0.451   6.140  16.850 -0.0682  0.0686 -0.0063
19703TIP3    H180524   0.540   6.144  16.816 -0.1466  1.1048 -0.1182
19703TIP3    H280525   0.418   6.055  16.821  0.6328 -0.0083 -0.5966
19704TIP3   OH280526   1.083   6.061   4.095  0.1695 -0.4173 -0.4630
19704TIP3    H180527   1.007   6.078   4.040  0.0535  0.5354 -0.0233
19704TIP3    H280528   1.102   5.968   4.081 -0.2901 -0.3659 -1.5529
19705TIP3   OH280529   1.693   3.992  16.883  0.6380 -0.2383 -0.2207
19705TIP3    H180530   1.717   3.948  16.965  0.3227  0.0383  0.0268
19705TIP3    H280531   1.637   3.930  16.837 -0.0450  0.0020  0.2595
19706TIP3   OH280532   6.353   2.089  16.661 -0.1877 -0.5201 -0.5047
19706TIP3    H180533   6.400   2.170  16.679 -1.0982 -0.1111  0.1076
19706TIP3    H280534   6.323   2.097  16.570 -0.1424 -0.2403 -0.4937
19707TIP3   OH280535   5.210   2.701   2.392  0.7510  0.4316  0.3317
19707TIP3    H180536   5.222   2.646   2.315  0.2376  0.4521  0.2313
19707TIP3    H280537   5.156   2.648   2.451 -0.1891  1.0203  0.0170
19708TIP3   OH280538   0.725   2.701  15.147  0.6489 -0.1210 -0.3330
19708TIP3    H180539   0.684   2.629  15.100  1.6101 -0.0044 -1.3762
19708TIP3    H280540   0.804   2.664  15.185  1.9556  0.6917 -2.1410
19709TIP3   OH280541   4.692   0.630   3.313  0.4738  0.0653  0.3417
19709TIP3    H180542   4.743   0.632   3.232 -0.0559  0.4886  0.0077
19709TIP3    H280543   4.663   0.721   3.324 -1.4193 -0.4261 -0.2619
19710TIP3   OH280544   5.430   1.119   3.431 -0.1221 -0.2738 -0.5272
19710TIP3    H180545   5.436   1.155   3.519  1.8715 -2.1382  0.1875
19710TIP3    H280546   5.338   1.131   3.407 -0.0951  3.0632  0.4917
19711TIP3   OH280547   0.523   4.129   3.933 -0.5524  0.3747  0.6277
19711TIP3    H180548   0.613   4.105   3.957 -0.6310 -0.0212  0.5248
19711TIP3    H280549   0.531   4.216   3.893 -0.3305  0.7665  1.4795
19712TIP3   OH280550   1.210   4.726   2.337 -0.1694  0.4789  0.0868
19712TIP3    H180551   1.196   4.819   2.321 -0.7650  0.2014 -1.0973
19712TIP3    H280552   1.171   4.682   2.262  0.4722 -0.7142  0.4179
19713TIP3   OH280553   6.307   1.121   0.626 -0.0324  0.2463 -0.0059
19713TIP3    H180554   6.270   1.110   0.538 -0.5954  1.4775  0.0658
19713TIP3    H280555   6.345   1.035   0.646 -0.0734 -0.1171 -1.3604
19714TIP3   OH280556   2.175   1.869   3.469 -0.0495  0.2921  0.0051
19714TIP3    H180557   2.216   1.951   3.440  0.4036 -0.0550 -0.3679
19714TIP3    H280558   2.088   1.894   3.499  0.7326  1.1991  1.6615
19715TIP3   OH280559   2.763   0.033  15.096  0.0569 -1.1445  0.2969
19715TIP3    H180560   2.743  -0.019  15.174 -0.3470 -1.0584  0.2529
19715TIP3    H280561   2.765   0.123  15.127 -0.4576 -1.0778  0.1424
19716TIP3   OH280562   1.376   1.013  13.748 -0.2984  0.1266  0.0491
19716TIP3    H180563   1.469   1.004  13.730 -0.0941  0.9884  0.5673
19716TIP3    H280564   1.370   1.093  13.801 -1.2322 -0.3723  0.7349
19717TIP3   OH280565   5.006   0.716   0.849  0.3513 -0.0352  1.0972
19717TIP3    H180566   5.006   0.809   0.871 -1.7536  0.3227 -0.1577
19717TIP3    H280567   5.066   0.708   0.775 -0.6227  0.6469  0.1982
19718TIP3   OH280568   4.841   6.521   3.013 -0.2180  0.1364 -0.1507
19718TIP3    H180569   4.867   6.518   2.921 -1.1350  1.7284 -0.5035
19718TIP3    H280570   4.756   6.566   3.012  0.2071  1.0637  1.5462
19719TIP3   OH280571   3.512   2.047   5.058  0.1473  0.0203  0.2878
19719TIP3    H180572   3.421   2.075   5.073  0.4171 -0.0978  2.5269
19719TIP3    H280573   3.549   2.041   5.146  1.9032 -1.3965 -0.5022
19720TIP3   OH280574   0.727   1.002  13.141  0.0822 -0.3883  0.3711
19720TIP3    H180575   0.776   1.054  13.206 -1.1750  0.7949  0.4299
19720TIP3    H280576   0.646   1.052  13.128 -0.6747 -1.7865 -0.4378
19721TIP3   OH280577   1.378   4.272  13.649 -0.2733 -0.5730  0.1321
19721TIP3    H180578   1.460   4.226  13.631  0.1014  0.3580 -0.5747
19721TIP3    H280579   1.387   4.356  13.605 -1.5245 -0.3713  0.2321
19722TIP3   OH280580   4.900   4.505   2.233 -0.0824  0.1241 -0.3464
19722TIP3    H180581   4.969   4.519   2.298 -1.2990 -0.2744  1.1029
19722TIP3    H280582   4.887   4.410   2.231  0.0238  0.1267 -1.2665
19723TIP3   OH280583   2.615   3.348  15.585  0.2950 -0.0636  0.4232
19723TIP3    H180584   2.584   3.331  15.674  0.8562  0.0127  0.6385
19723TIP3    H280585   2.708   3.368  15.596  0.2446  0.4905 -0.1167
19724TIP3   OH280586   5.414   2.352  11.395 -0.0177  0.2921  0.4377
19724TIP3    H180587   5.364   2.333  11.316 -0.1213 -0.6926  0.7226
19724TIP3    H280588   5.491   2.295  11.389  0.6613  1.1996  0.3938
19725TIP3   OH280589   6.667   5.810  16.464 -0.1283 -0.0908  0.1083
19725TIP3    H180590   6.719   5.743  16.420 -0.3829  0.7246 -1.5120
19725TIP3    H280591   6.590   5.763  16.497  0.0099 -0.7114 -0.4360
19726TIP3   OH280592   1.515   0.287  12.454  0.1238  0.0420 -0.6109
19726TIP3    H180593   1.565   0.366  12.433  0.2305  0.2945  0.5109
19726TIP3    H280594   1.575   0.215  12.436  0.1669  0.2399 -1.2580
19727TIP3   OH280595   0.574   5.442  10.856 -0.1237  0.0503 -0.7129
19727TIP3    H180596   0.519   5.372  10.889  1.1196 -0.8904 -0.5756
19727TIP3    H280597   0.558   5.515  10.916 -1.0401 -0.2661 -0.5554
19728TIP3   OH280598   3.358   6.679  13.084  0.0498  0.0010  0.3815
19728TIP3    H180599   3.415   6.754  13.099  0.8513 -0.3890 -0.6030
19728TIP3    H280600   3.316   6.697  13.000  0.0565 -0.5313  0.2596
19729TIP3   OH280601   3.832   4.620   6.451  0.6242  0.0193 -0.6496
19729TIP3    H180602   3.899   4.645   6.387  0.7402 -0.8794 -0.8970
19729TIP3    H280603   3.835   4.689   6.517  1.8237 -0.0098 -0.6421
19730TIP3   OH280604   0.575   1.479   3.790  0.2725  0.3369  0.2521
19730TIP3    H180605   0.666   1.472   3.819  0.3089  3.1766  1.2059
19730TIP3    H280606   0.525   1.482   3.872 -0.4470  0.8109 -0.1945
19731TIP3   OH280607   2.548   0.520   1.083 -0.1175  0.5081  0.0548
19731TIP3    H180608   2.457   0.495   1.068  0.4534 -1.3559 -0.6131
19731TIP3    H280609   2.599   0.443   1.057  1.6017  1.1380  1.3566
19732TIP3   OH280610   5.327   0.070  13.174  0.3042  0.0735 -0.1400
19732TIP3    H180611   5.393   0.131  13.140 -1.3355  1.4769 -0.9393
19732TIP3    H280612   5.243   0.112  13.155 -0.8592  0.0950  3.9149
19733TIP3   OH280613   1.250   5.216  15.929  0.1030 -0.7655 -0.0778
19733TIP3    H180614   1.160   5.249  15.925  0.0391 -1.0547 -2.3576
19733TIP3    H280615   1.260   5.164  15.848  2.1170 -1.2682  0.4410
19734TIP3   OH280616   5.980   5.550  11.831 -0.9313  0.3602  0.1320
19734TIP3    H180617   5.968   5.578  11.922  1.3371  0.1154  0.5764
19734TIP3    H280618   5.941   5.463  11.827 -2.2439  0.9015  0.4777
19735TIP3   OH280619   4.577   6.438   3.976 -0.5605 -0.2084 -0.3380
19735TIP3    H180620   4.595   6.391   3.895 -0.7249  0.2042 -0.6197
19735TIP3    H280621   4.663   6.471   4.003 -0.3079 -1.3470  0.3024
19736TIP3   OH280622   5.788   5.182   2.228  0.2873  0.0646 -0.4480
19736TIP3    H180623   5.774   5.120   2.156  1.4057  0.4866 -1.0565
19736TIP3    H280624   5.777   5.129   2.307 -0.5951 -0.4939 -0.9259
19737TIP3   OH280625   4.781   3.555  12.415  0.1436  0.0515  0.4887
19737TIP3    H180626   4.857   3.585  12.465  1.6949 -0.4145 -1.4836
19737TIP3    H280627   4.808   3.473  12.376 -1.8729 -0.8211  0.7775
19738TIP3   OH280628   1.243   3.695  17.111 -0.1717  0.4909 -0.5432
19738TIP3    H180629   1.267   3.784  17.083  0.0287  0.2289 -1.2407
19738TIP3    H280630   1.222   3.703  17.204 -0.5560  1.3486 -0.6961
19739TIP3   OH280631   6.024   0.558   2.562 -0.5815 -0.3430  0.6710
19739TIP3    H180632   6.115   0.530   2.565  0.1039  1.7457  1.1048
19739TIP3    H280633   5.997   0.546   2.471  1.4536  2.6952 -0.4879
19740TIP3   OH280634   5.100   5.440  13.916 -0.3379 -0.8583 -0.6292
19740TIP3    H180635   5.030   5.379  13.890 -1.8728  0.5463 -0.0163
19740TIP3    H280636   5.120   5.489  13.837 -0.0754 -1.2301 -0.7951
19741TIP3   OH280637   0.395   6.351  15.403 -0.2395 -0.5995 -0.4400
19741TIP3    H180638   0.315   6.299  15.407 -1.5601  1.2146 -1.5162
19741TIP3    H280639   0.367   6.440  15.428  1.5997 -0.0812 -0.0843
19742TIP3   OH280640   4.475   2.297   6.609 -0.0067 -0.2607 -0.0380
19742TIP3    H180641   4.559   2.292   6.565 -0.1072 -1.3576 -0.1295
19742TIP3    H280642   4.422   2.355   6.554  0.5476  0.1149 -0.1865
19743TIP3   OH280643   6.003   3.353  12.881  0.2860  0.5932 -0.3634
19743TIP3    H180644   6.068   3.394  12.938  0.1844  1.6490 -0.9980
19743TIP3    H280645   6.020   3.388  12.794  0.2362 -0.7666 -0.9518
19744TIP3   OH280646   2.459   0.622   4.386 -0.0392 -0.6027 -0.1265
19744TIP3    H180647   2.416   0.708   4.380  1.1937  0.2215  1.6421
19744TIP3    H280648   2.532   0.628   4.325 -0.7694 -0.9593 -1.0605
19745TIP3   OH280649   5.787   4.259   3.140 -0.6585  0.6087  0.1766
19745TIP3    H180650   5.874   4.228   3.164  0.1098 -0.1963 -3.2250
19745TIP3    H280651   5.729   4.188   3.166 -0.0413  0.2301  0.5448
19746TIP3   OH280652   0.962   4.271   6.672  0.0286 -0.1785 -0.0233
19746TIP3    H180653   0.877   4.233   6.648 -0.6995  1.0638  0.5281
19746TIP3    H280654   0.991   4.220   6.747  1.0650 -2.3378 -1.7533
19747TIP3   OH280655   1.873   3.871   6.412  0.6662 -0.3431 -0.0576
19747TIP3    H180656   1.799   3.815   6.437  0.0783  0.8480  0.9595
19747TIP3    H280657   1.883   3.932   6.485  1.1955  0.9763 -1.1863
19748TIP3   OH280658   0.745   1.336  14.152  0.0089  0.2768  0.1694
19748TIP3    H180659   0.780   1.371  14.071  1.8113 -2.6173 -0.4409
19748TIP3    H280660   0.733   1.242  14.135 -3.7365  0.2370  1.9060
19749TIP3   OH280661   1.367   1.835  15.786  0.2953  0.2376 -0.1652
19749TIP3    H180662   1.433   1.903  15.800  3.2128 -1.9613 -2.0538
19749TIP3    H280663   1.417   1.755  15.773 -2.8247 -1.7624 -1.0568
19750TIP3   OH280664   6.316   4.713   1.326 -0.3240  0.1641  0.4958
19750TIP3    H180665   6.361   4.761   1.396  1.0402  1.3360 -1.1303
19750TIP3    H280666   6.369   4.634   1.313 -0.0732  0.3879  0.1685
19751TIP3   OH280667   6.408   0.386   4.186  0.9493  0.5343 -0.1339
19751TIP3    H180668   6.357   0.412   4.109  1.2310  1.9613  0.1508
19751TIP3    H280669   6.348   0.399   4.260  1.2047  0.6743  0.0457
19752TIP3   OH280670   1.723   0.250  14.719  0.0502  0.0504  0.4003
19752TIP3    H180671   1.697   0.279  14.632  0.9600  0.0707  0.1222
19752TIP3    H280672   1.810   0.213  14.706 -0.7319 -2.1189  0.8670
19753TIP3   OH280673   1.704   0.467  12.358  0.5087 -0.0417 -0.1739
19753TIP3    H180674   1.760   0.464  12.280  0.0536 -0.5919 -0.4883
19753TIP3    H280675   1.724   0.551  12.399  0.5406  0.3955 -1.0527
19754TIP3   OH280676   2.860   6.409  15.374 -0.4135  0.0045  0.1010
19754TIP3    H180677   2.885   6.501  15.381 -1.1433  0.2328 -0.1554
19754TIP3    H280678   2.814   6.404  15.290  0.1319 -0.7225 -0.1630
19755TIP3   OH280679   0.813   2.880  12.417 -1.0280  0.5342 -0.3422
19755TIP3    H180680   0.908   2.882  12.410 -0.9235 -2.1918 -0.6029
19755TIP3    H280681   0.789   2.970  12.438  1.5798  1.3094 -0.3298
19756TIP3   OH280682   6.395   5.772   1.000 -0.0698  0.4387 -0.3983
19756TIP3    H180683   6.481   5.813   1.012  0.3018 -0.0777 -1.2052
19756TIP3    H280684   6.406   5.683   1.032 -1.0337  1.0721  1.8930
19757TIP3   OH280685   5.474   5.245   2.800  0.0343  0.6916 -0.3792
19757TIP3    H180686   5.405   5.308   2.777 -0.1560  0.1980 -1.2328
19757TIP3    H280687   5.426   5.166   2.824  0.2966  0.2162 -1.3683
19758TIP3   OH280688   2.516   0.158  13.894  0.3693 -0.0764 -0.2365
19758TIP3    H180689   2.582   0.214  13.936  0.1384  0.7593 -0.9695
19758TIP3    H280690   2.553   0.070  13.900  1.4595  0.3495 -0.4221
19759TIP3   OH280691   1.006   5.573   5.117 -0.4256 -0.5451  0.1892
19759TIP3    H180692   1.065   5.555   5.190 -1.8891 -2.0388  1.0621
19759TIP3    H280693   1.002   5.491   5.068 -1.3507 -0.2904 -0.1751
19760TIP3   OH280694   2.467   5.261  14.229 -0.0164  0.0538  0.2752
19760TIP3    H180695   2.387   5.208  14.235  0.0285 -0.5063 -2.5403
19760TIP3    H280696   2.458   5.326  14.298 -2.3467 -0.7173  0.8005
19761TIP3   OH280697   6.489   2.704   3.813 -0.1746 -0.2805 -0.3454
19761TIP3    H180698   6.485   2.800   3.802 -1.3707 -0.3363 -0.6182
19761TIP3    H280699   6.448   2.689   3.898  2.0855 -0.4184  0.7923
19762TIP3   OH280700   2.232   3.122   3.568 -0.1558  0.1049 -0.2017
19762TIP3    H180701   2.143   3.143   3.540 -0.8801 -1.5618  0.6482
19762TIP3    H280702   2.259   3.051   3.510 -0.4409 -1.1801  1.1611
19763TIP3   OH280703   2.529   5.980   2.426  0.0210  0.1803  0.2934
19763TIP3    H180704   2.529   5.910   2.492 -2.7204 -1.0248 -0.8513
19763TIP3    H280705   2.539   5.934   2.343  0.7698  1.4396 -0.3461
19764TIP3   OH280706   6.628   5.021   4.603  0.1254  0.2569  0.2680
19764TIP3    H180707   6.603   5.040   4.694  2.7448  0.0221  1.1196
19764TIP3    H280708   6.617   4.926   4.595 -0.0408  0.2661  0.3874
19765TIP3   OH280709   3.667   2.015   3.868  0.2154 -0.3939 -0.5276
19765TIP3    H180710   3.583   2.019   3.823  0.8447  0.0814 -1.7074
19765TIP3    H280711   3.674   1.925   3.898 -0.1037 -0.8160 -1.6582
19766TIP3   OH280712   4.420   1.170   0.329  0.2186  0.1205  0.0460
19766TIP3    H180713   4.341   1.164   0.383  0.9523 -0.0813  1.1451
19766TIP3    H280714   4.392   1.215   0.249 -1.0271 -0.0812  0.3521
19767TIP3   OH280715   5.037   2.294   1.987 -0.0802 -0.2772 -0.0288
19767TIP3    H180716   5.072   2.235   2.053  0.0659  0.8413  0.9251
19767TIP3    H280717   4.947   2.311   2.015  0.2728  0.9346  0.4339
19768TIP3   OH280718   4.435   0.277  14.814  0.2783 -0.0313  0.2176
19768TIP3    H180719   4.374   0.204  14.821 -0.6694  0.5692 -1.2850
19768TIP3    H280720   4.513   0.248  14.860  0.6757 -2.7708 -1.9724
19769TIP3   OH280721   4.216   2.141   4.748  0.3052  0.0307 -0.8821
19769TIP3    H180722   4.159   2.184   4.685 -0.4258  0.3873 -0.0004
19769TIP3    H280723   4.301   2.183   4.736  0.2932 -0.1917 -1.8905
19770TIP3   OH280724   0.321   5.675   0.959  0.3881  0.2562  0.1308
19770TIP3    H180725   0.250   5.683   0.896  0.1135 -1.4889  0.1705
19770TIP3    H280726   0.359   5.763   0.963 -1.9991  1.3663  0.4251
19771TIP3   OH280727   4.412   1.714   3.240 -0.1698 -0.2115 -0.1700
19771TIP3    H180728   4.451   1.698   3.154 -0.2960 -2.5918  0.1445
19771TIP3    H280729   4.373   1.801   3.233  1.3346  0.3941 -1.9295
19772TIP3   OH280730   3.007   6.575   0.375  0.0265 -0.0008  0.2472
19772TIP3    H180731   2.928   6.548   0.329 -0.5006 -0.2663  1.2717
19772TIP3    H280732   3.075   6.573   0.309 -0.9657  0.9957 -0.8507
19773TIP3   OH280733   6.523   1.215   3.120 -0.3477  0.0354  0.0214
19773TIP3    H180734   6.489   1.253   3.039 -2.7556  0.0557  0.9828
19773TIP3    H280735   6.495   1.124   3.117  1.1403 -0.4481  0.0295
19774TIP3   OH280736   1.200   0.734  16.197  0.2350  0.2319  0.2047
19774TIP3    H180737   1.110   0.740  16.166  0.3729  1.1906 -0.0453
19774TIP3    H280738   1.211   0.812  16.252  0.2597 -0.9582  1.9898
19775TIP3   OH280739   6.604   6.619   0.678 -0.4211 -0.2355 -0.1965
19775TIP3    H180740   6.616   6.607   0.772  0.7971 -0.6487 -0.3947
19775TIP3    H280741   6.546   6.695   0.670 -0.0712  0.1520  0.8661
19776TIP3   OH280742   2.544   3.238   3.810 -0.4347  0.0093 -0.4142
19776TIP3    H180743   2.573   3.265   3.723 -0.9631  0.2576 -0.5221
19776TIP3    H280744   2.450   3.258   3.811 -0.4864 -0.2378  0.1188
19777TIP3   OH280745   5.082   4.985  15.454 -0.1718  0.0335  0.4787
19777TIP3    H180746   5.093   5.027  15.539  0.2261 -0.0727  0.4825
19777TIP3    H280747   5.096   5.055  15.391 -0.2111  0.0577  0.4973
19778TIP3   OH280748   5.205   5.522  13.037  0.4070 -0.1960 -0.6039
19778TIP3    H180749   5.198   5.488  12.948  0.3494 -0.6081 -0.4467
19778TIP3    H280750   5.150   5.463  13.089 -0.0320  0.3950 -0.3889
19779TIP3   OH280751   1.113   4.385   1.481 -0.3958  0.1859  0.1697
19779TIP3    H180752   1.174   4.335   1.426 -2.1358 -1.5976 -0.2648
19779TIP3    H280753   1.047   4.418   1.420 -0.8868  0.4600  0.8350
19780TIP3   OH280754   0.233   1.884  17.354 -0.2953  0.3730 -0.3369
19780TIP3    H180755   0.297   1.832  17.306  0.0567 -0.4735  0.9889
19780TIP3    H280756   0.221   1.837  17.437 -2.3865  0.6932 -0.3999
19781TIP3   OH280757   4.773   1.694   2.909  0.8351 -0.7139  0.2540
19781TIP3    H180758   4.762   1.728   2.820  0.9052  0.1499  0.5697
19781TIP3    H280759   4.848   1.635   2.903  0.1692 -1.5032 -0.4902
19782TIP3   OH280760   5.565   5.595  14.504 -0.0956  0.3103 -0.5509
19782TIP3    H180761   5.609   5.556  14.580 -1.2395 -0.4884 -0.2699
19782TIP3    H280762   5.472   5.588  14.525 -0.3690  1.8164 -1.2038
19783TIP3   OH280763   6.017   4.383  15.744 -0.1801  0.0984 -0.1933
19783TIP3    H180764   6.077   4.414  15.812 -2.3957  0.7461  1.5885
19783TIP3    H280765   6.072   4.373  15.666  2.0674  1.3199  1.1322
19784TIP3   OH280766   1.311   1.441  17.004 -0.4070  0.3998  0.3735
19784TIP3    H180767   1.392   1.477  16.969 -0.1939 -0.3742  0.0586
19784TIP3    H280768   1.279   1.382  16.937 -0.7661  0.0142  0.8725
19785TIP3   OH280769   4.115   1.307   3.576  0.0324 -0.1820 -0.3959
19785TIP3    H180770   4.146   1.329   3.488  0.3708  0.7181 -0.0598
19785TIP3    H280771   4.163   1.228   3.600  0.1671 -0.2548 -0.8940
19786TIP3   OH280772   1.872   5.340   5.399 -0.1502  0.7784 -0.8095
19786TIP3    H180773   1.895   5.433   5.396  1.3250  0.4112 -1.3875
19786TIP3    H280774   1.927   5.303   5.468 -1.0292  0.3939 -0.2952
19787TIP3   OH280775   1.909   3.851   2.997 -0.7559 -0.5656 -0.1888
19787TIP3    H180776   1.901   3.758   2.975 -0.1685 -0.6726  0.0502
19787TIP3    H280777   1.991   3.858   3.046 -1.5002 -0.1544  1.0372
19788TIP3   OH280778   4.689   1.759   0.414  0.3164 -0.2344 -0.4513
19788TIP3    H180779   4.744   1.720   0.346 -0.7040  1.4557 -2.3423
19788TIP3    H280780   4.607   1.710   0.411  1.3152 -2.2853  1.8854
19789TIP3   OH280781   5.567   6.386   0.628 -0.8778 -0.0951  0.3872
19789TIP3    H180782   5.576   6.442   0.551 -2.1411 -1.3307 -0.7048
19789TIP3    H280783   5.537   6.445   0.698 -0.3729  0.9081 -0.2116
19790TIP3   OH280784   4.924   3.671  11.486 -0.4739 -0.7447  0.1514
19790TIP3    H180785   5.013   3.684  11.520  0.8845 -1.9951 -2.5834
19790TIP3    H280786   4.910   3.576  11.490 -1.9510 -0.5128  1.0710
19791TIP3   OH280787   5.286   1.225  16.294 -0.4344  0.6886 -0.3920
19791TIP3    H180788   5.255   1.170  16.366 -1.8448 -1.5610 -2.5695
19791TIP3    H280789   5.226   1.300  16.294  0.0523  1.1255  1.1718
19792TIP3   OH280790   4.917   0.984   5.508 -1.0340 -0.2041  0.3919
19792TIP3    H180791   4.943   1.076   5.503  1.2004 -0.7963 -0.0159
19792TIP3    H280792   4.854   0.973   5.437 -0.4403  0.7765 -0.3235
19793TIP3   OH280793   0.268   4.363  11.911 -0.6997 -0.0948 -0.5125
19793TIP3    H180794   0.206   4.345  11.981 -0.1650 -1.6373 -0.3995
19793TIP3    H280795   0.225   4.330  11.832 -1.4534  1.9478 -1.0356
19794TIP3   OH280796   1.391   0.804  11.658 -0.6138 -0.5049 -0.3130
19794TIP3    H180797   1.454   0.763  11.718  0.3019  0.5151 -0.5502
19794TIP3    H280798   1.330   0.850  11.715 -0.9729 -1.2458 -0.0929
19795TIP3   OH280799   2.342   3.374   3.658  0.5897  0.0144 -0.2747
19795TIP3    H180800   2.308   3.299   3.609 -0.8129  0.9829 -0.8504
19795TIP3    H280801   2.367   3.437   3.591  0.2513  0.6854  0.2175
19796TIP3   OH280802   2.122   4.900  11.998  0.1022 -0.3914 -0.4688
19796TIP3    H180803   2.210   4.865  12.013 -0.3081 -1.6511 -0.8408
19796TIP3    H280804   2.135   4.994  11.989  1.5977 -0.6802 -1.7825
19797TIP3   OH280805   1.071   2.066  11.548 -0.6807  0.5288  0.2510
19797TIP3    H180806   1.017   1.989  11.561 -1.1312  0.3277 -2.3414
19797TIP3    H280807   1.009   2.135  11.523  0.1190  0.2313 -3.0049
19798TIP3   OH280808   0.600   0.762  10.439 -0.3528  0.6056 -0.4428
19798TIP3    H180809   0.580   0.856  10.432 -1.8894  0.3409  0.0837
19798TIP3    H280810   0.514   0.719  10.433  0.3017 -0.7542 -0.3148
19799TIP3   OH280811   1.743   0.176  15.007  0.1203  0.1492  0.6553
19799TIP3    H180812   1.738   0.162  14.912 -1.2430 -0.0526  0.7324
19799TIP3    H280813   1.754   0.270  15.017 -0.3699  0.2492  0.2937
19800TIP3   OH280814   3.394   4.858   2.077 -0.2670 -0.0040  0.1616
19800TIP3    H180815   3.489   4.868   2.066 -0.2272 -0.1476  0.3575
19800TIP3    H280816   3.385   4.817   2.163 -0.4597 -0.9257 -0.2878
19801TIP3   OH280817   3.232   3.546  13.597 -0.4385 -0.9096 -0.1979
19801TIP3    H180818   3.310   3.492  13.608  0.9266  0.7802 -1.0691
19801TIP3    H280819   3.197   3.557  13.685  0.8603 -0.9452  0.3387
19802TIP3   OH280820   4.655   3.735   0.235 -0.1182  0.2509  0.0178
19802TIP3    H180821   4.582   3.711   0.293 -0.3339  0.1084 -0.3104
19802TIP3    H280822   4.669   3.828   0.252 -0.8918  0.4664 -0.4784
19803TIP3   OH280823   2.919   5.497   6.031 -0.0085 -0.2340 -0.1137
19803TIP3    H180824   2.836   5.511   6.077 -0.5808 -1.0386 -0.8499
19803TIP3    H280825   2.983   5.547   6.080 -1.0442  0.9135  0.1207
19804TIP3   OH280826   3.667   3.489   4.045  1.0535 -0.3635 -0.3493
19804TIP3    H180827   3.721   3.443   3.981  1.2707 -0.5379 -0.0440
19804TIP3    H280828   3.578   3.462   4.026  0.7242  1.9281 -2.5688
19805TIP3   OH280829   5.417   5.821  16.201 -0.3891  0.1666 -0.1543
19805TIP3    H180830   5.458   5.759  16.261 -0.7197  0.4171  0.3442
19805TIP3    H280831   5.477   5.895  16.198  0.3206 -0.4378 -1.2554
19806TIP3   OH280832   0.033   3.695   2.551  0.0886 -0.4992 -0.1660
19806TIP3    H180833   0.110   3.640   2.536  2.0585  2.1010 -0.3112
19806TIP3    H280834  -0.036   3.653   2.501  1.7616 -2.2102 -1.1872
19807TIP3   OH280835   5.239   0.060  13.733 -0.1279  0.1566 -0.2309
19807TIP3    H180836   5.313   0.097  13.782  0.0921 -0.4065 -0.1373
19807TIP3    H280837   5.254   0.088  13.643  0.5879 -0.5555 -0.3386
19808TIP3   OH280838   2.018   4.599   1.048 -0.3259 -0.0499  0.5567
19808TIP3    H180839   1.971   4.651   0.982  1.0843  1.2898  0.5180
19808TIP3    H280840   2.016   4.653   1.127  0.2838 -0.3963  0.8200
19809TIP3   OH280841   4.229   3.434  14.686 -0.0084  0.6969  0.0685
19809TIP3    H180842   4.161   3.383  14.642  0.7918  1.7647 -2.6330
19809TIP3    H280843   4.183   3.511  14.720 -0.3753  0.8279 -0.6933
19810TIP3   OH280844   1.249   3.440  16.163  1.1178 -0.2585 -0.1451
19810TIP3    H180845   1.227   3.357  16.122  1.0781  0.2607 -1.2158
19810TIP3    H280846   1.250   3.503  16.091  0.2142  0.8603  0.7788
19811TIP3   OH280847   3.666   1.990   1.603  0.2327  0.3566  0.3594
19811TIP3    H180848   3.649   1.958   1.515 -1.2285  2.2556 -0.1276
19811TIP3    H280849   3.694   1.913   1.652  6.0737 -0.0906 -2.8238
19812TIP3   OH280850   3.391   5.888  16.386  0.4964 -0.2467  0.0873
19812TIP3    H180851   3.338   5.850  16.456 -1.0755  1.6590  0.0381
19812TIP3    H280852   3.365   5.981  16.384  2.4528  0.3463 -1.2584
19813TIP3   OH280853   3.512   5.023  11.197  0.0986 -0.6227 -0.3802
19813TIP3    H180854   3.570   4.947  11.208  1.8839  0.8961  1.4674
19813TIP3    H280855   3.569   5.099  11.211 -2.0767  0.9948  0.1293
19814TIP3   OH280856   3.799   1.013   0.840 -0.0044  0.1440  0.1834
19814TIP3    H180857   3.760   1.061   0.767 -0.7869 -1.0939 -0.2413
19814TIP3    H280858   3.731   1.013   0.908  0.4526  0.6680  0.6570
19815TIP3   OH280859   6.463   3.442  15.658  0.1350 -0.4864 -0.5917
19815TIP3    H180860   6.483   3.510  15.723  0.9934 -1.0545 -0.2459
19815TIP3    H280861   6.514   3.468  15.581  0.0063 -0.4220 -0.6547
19816TIP3   OH280862   4.437   1.550  12.292  0.0289 -0.2128 -0.0279
19816TIP3    H180863   4.370   1.586  12.350  0.5418 -0.6706  0.8705
19816TIP3    H280864   4.517   1.553  12.344  0.6209 -0.0943 -0.9271
19817TIP3   OH280865   4.784   0.851  16.058  0.5422  0.2682 -0.7941
19817TIP3    H180866   4.863   0.797  16.044  0.6522  0.4743 -0.9690
19817TIP3    H280867   4.749   0.866  15.970  0.9097  1.0780 -0.8121
19818TIP3   OH280868   1.874   1.375  11.272  0.2881  0.3168  0.2450
19818TIP3    H180869   1.837   1.372  11.360  0.6748  4.6699  0.7297
19818TIP3    H280870   1.967   1.360  11.284  0.1305 -0.7617  0.2781
19819TIP3   OH280871   3.776   5.303   0.303  0.2721  0.0183 -0.2521
19819TIP3    H180872   3.762   5.263   0.389 -2.2370  0.5841 -0.3401
19819TIP3    H280873   3.773   5.230   0.241  0.0093 -0.1600 -0.0314
19820TIP3   OH280874   4.778   6.546  17.396 -0.0350 -0.0578 -0.0921
19820TIP3    H180875   4.738   6.467  17.359 -0.5711 -0.2821  0.9406
19820TIP3    H280876   4.714   6.615  17.379  0.7707  0.3516 -1.6939
19821TIP3   OH280877   1.436   3.632  11.139  0.1803  0.1094 -0.1418
19821TIP3    H180878   1.523   3.649  11.173 -0.5893 -1.2632  2.8166
19821TIP3    H280879   1.450   3.576  11.063  1.8774 -1.8002  1.4517
19822TIP3   OH280880   5.980   2.475  13.114  0.1294  0.0362 -0.0046
19822TIP3    H180881   6.025   2.412  13.057  1.7693  0.5617  0.6556
19822TIP3    H280882   5.958   2.548  13.057 -0.0221 -0.2848 -0.3652
19823TIP3   OH280883   0.838   5.480  12.834  0.4244  0.0088 -0.2755
19823TIP3    H180884   0.798   5.485  12.920  0.6207  1.6652 -0.2436
19823TIP3    H280885   0.890   5.399  12.835 -0.1678 -0.3672  0.8781
19824TIP3   OH280886   3.360   3.834  11.847  0.0548 -0.0954 -0.0612
19824TIP3    H180887   3.355   3.927  11.827  1.7370 -0.0712 -0.5121
19824TIP3    H280888   3.382   3.831  11.940 -0.2019 -0.0489  0.0011
19825TIP3   OH280889   4.050   3.592   4.109  0.0322 -0.0655 -0.4989
19825TIP3    H180890   4.058   3.603   4.204 -0.6270  1.4018 -0.5862
19825TIP3    H280891   4.140   3.600   4.076  0.0502  1.4904 -0.1583
19826TIP3   OH280892   4.832   4.610   2.656  0.1609 -0.2469 -0.2326
19826TIP3    H180893   4.910   4.559   2.633  0.1590 -0.9100  1.1188
19826TIP3    H280894   4.828   4.605   2.752 -1.6145 -0.3102 -0.2852
19827TIP3   OH280895   0.573   5.775   0.268  0.3692  0.0316 -0.3440
19827TIP3    H180896   0.568   5.864   0.234  1.1696  0.1295 -0.2295
19827TIP3    H280897   0.641   5.733   0.215  1.5952  0.1669  1.0507
19828TIP3   OH280898   5.636   1.400  15.529  0.5777  0.8423 -0.7467
19828TIP3    H180899   5.565   1.465  15.530  0.6033  0.8719  0.0097
19828TIP3    H280900   5.700   1.433  15.592 -0.5550 -1.1265  1.6246
19829TIP3   OH280901   0.855   0.759   6.328  0.6665  0.7461  0.0433
19829TIP3    H180902   0.876   0.848   6.357  0.1427  0.7444  0.4373
19829TIP3    H280903   0.759   0.757   6.326  0.6429 -0.1406  1.0820
19830TIP3   OH280904   5.831   6.522   0.703 -0.0192 -0.2134 -0.4948
19830TIP3    H180905   5.802   6.605   0.740  1.3918  1.3076 -2.5236
19830TIP3    H280906   5.751   6.477   0.678 -0.8068  0.7896  0.1437
19831TIP3   OH280907   3.957   2.857   3.079  0.2556 -0.1487  0.2004
19831TIP3    H180908   3.879   2.810   3.111 -0.8087  0.8552 -0.7975
19831TIP3    H280909   3.995   2.897   3.157 -1.5002  1.1420  0.4760
19832TIP3   OH280910   5.657   2.494  17.022 -0.1891  0.0206 -0.0325
19832TIP3    H180911   5.686   2.423  16.965 -0.9478  0.3288 -0.8391
19832TIP3    H280912   5.603   2.451  17.088  0.2095 -0.2735  0.1052
19833TIP3   OH280913   4.286   2.646   3.096 -0.6214  0.3482  0.5666
19833TIP3    H180914   4.243   2.574   3.141 -0.8634 -1.2681 -2.0249
19833TIP3    H280915   4.346   2.604   3.034  1.0112  2.4442  0.5875
19834TIP3   OH280916   1.616   3.441  12.034  0.1481 -0.1675 -0.2124
19834TIP3    H180917   1.622   3.392  11.952 -1.1108 -0.2689 -0.2580
19834TIP3    H280918   1.538   3.407  12.077 -1.0221  2.0235 -0.4258
19835TIP3   OH280919   6.236   5.237   5.256 -0.3609  0.1485 -0.2692
19835TIP3    H180920   6.141   5.225   5.250 -0.4546  1.1453 -1.1770
19835TIP3    H280921   6.246   5.323   5.296  0.2013 -0.4908  1.0258
19836TIP3   OH280922   6.626   3.735  11.996  0.3591  0.1632 -0.3676
19836TIP3    H180923   6.590   3.683  11.925 -0.7746  1.8977 -1.1356
19836TIP3    H280924   6.690   3.678  12.038 -2.0639 -2.4682 -0.0032
19837TIP3   OH280925   2.097   2.495  12.967  0.6732  0.0052  0.2364
19837TIP3    H180926   2.169   2.443  13.004  1.0342  0.2126 -0.1689
19837TIP3    H280927   2.018   2.454  13.002  0.9815 -0.3020  0.5872
19838TIP3   OH280928   5.547   6.018  16.400 -0.0054  0.0905  0.3759
19838TIP3    H180929   5.519   6.083  16.336 -2.5258  0.4639  1.7603
19838TIP3    H280930   5.579   6.069  16.474 -1.1282 -0.2373  1.1016
19839TIP3   OH280931   3.984   6.238   0.805  0.1901  0.5712  0.5170
19839TIP3    H180932   4.023   6.220   0.891 -0.1674 -0.8878  0.3946
19839TIP3    H280933   4.028   6.318   0.776  2.5282 -0.5303  0.7478
19840TIP3   OH280934   1.448   1.374   6.039 -0.1359 -0.3154 -0.0967
19840TIP3    H180935   1.372   1.361   6.095  0.7055 -0.0555  1.1330
19840TIP3    H280936   1.512   1.310   6.069  0.9753  1.0077  0.4450
19841TIP3   OH280937   4.303   0.022   6.230 -0.4621  0.4797 -0.1786
19841TIP3    H180938   4.220  -0.025   6.228 -0.2416  0.0846 -0.3307
19841TIP3    H280939   4.282   0.108   6.264 -0.8118  0.1382  0.4780
19842TIP3   OH280940   5.373   0.907   3.677  0.4522  0.4436  0.1205
19842TIP3    H180941   5.394   0.814   3.688  0.1485  0.2114 -1.1551
19842TIP3    H280942   5.338   0.934   3.762  0.6283 -0.5832  0.5267
19843TIP3   OH280943   5.309   0.366   6.902 -0.4171 -0.3553  0.2099
19843TIP3    H180944   5.274   0.455   6.907  0.2203 -0.0797 -0.1023
19843TIP3    H280945   5.240   0.311   6.940 -1.5058  0.0743 -1.0550
19844TIP3   OH280946   1.160   2.936   2.728  0.7842 -0.0849  0.4521
19844TIP3    H180947   1.134   2.987   2.805 -1.7692 -1.7548  0.8161
19844TIP3    H280948   1.185   3.002   2.663 -1.5224  1.6514  1.1922
19845TIP3   OH280949   4.246   0.969  14.562 -0.2401  0.1283  0.5803
19845TIP3    H180950   4.228   0.884  14.602 -0.5245 -0.0162  0.1470
19845TIP3    H280951   4.334   0.992  14.594  0.3244 -0.8611 -0.1869
19846TIP3   OH280952   0.863   5.360   3.982  0.0895 -0.1945 -0.2575
19846TIP3    H180953   0.844   5.351   4.075 -0.1316 -1.0026 -0.3709
19846TIP3    H280954   0.935   5.299   3.967  1.0940  0.9808 -0.3402
19847TIP3   OH280955   5.003   4.147  12.831  0.3461  0.2014  0.8982
19847TIP3    H180956   5.073   4.186  12.882  0.9333  0.1679  0.1341
19847TIP3    H280957   4.954   4.094  12.894  0.1053  1.4039  1.7418
19848TIP3   OH280958   4.094   0.351  13.922  0.1149 -0.1258 -0.2456
19848TIP3    H180959   4.026   0.286  13.942 -0.9564  0.5792 -1.4466
19848TIP3    H280960   4.068   0.388  13.838  1.2818  1.1295 -0.0914
19849TIP3   OH280961   4.144   1.647  12.431 -0.3879  0.1018 -0.3906
19849TIP3    H180962   4.078   1.648  12.361 -0.6817  0.0606 -0.1184
19849TIP3    H280963   4.172   1.556  12.436  0.2948  0.2605 -1.0593
19850TIP3   OH280964   5.589   2.178   4.251  0.5039  0.3309  0.5189
19850TIP3    H180965   5.565   2.094   4.211  0.6184  0.7783 -0.5069
19850TIP3    H280966   5.507   2.210   4.289  0.2657  0.1697  0.1493
19851TIP3   OH280967   1.920   6.130  16.099  0.1086 -0.7593 -0.4811
19851TIP3    H180968   1.981   6.056  16.093  0.9651 -0.0113 -1.1599
19851TIP3    H280969   1.937   6.169  16.185  1.4923  0.1960 -1.1585
19852TIP3   OH280970   3.146   5.894   2.485 -0.4633  0.1584 -0.1250
19852TIP3    H180971   3.080   5.827   2.469 -1.1133  0.9013 -0.6285
19852TIP3    H280972   3.192   5.903   2.402 -0.1893  0.1368  0.0229
19853TIP3   OH280973   1.953   3.762   5.954  0.3330 -0.0052  0.2843
19853TIP3    H180974   2.002   3.758   5.872  0.5999  1.3013  0.3586
19853TIP3    H280975   1.864   3.786   5.928  0.4220  0.4266  0.3777
19854TIP3   OH280976   0.703   4.733  16.857  0.2319  0.6433  0.2830
19854TIP3    H180977   0.717   4.642  16.882 -0.3743  0.0632 -1.3482
19854TIP3    H280978   0.777   4.780  16.896  2.3274 -1.0334 -1.3729
19855TIP3   OH280979   2.653   5.019   3.496 -0.5451  0.3959 -0.1731
19855TIP3    H180980   2.607   5.099   3.469  0.2492  0.5653 -1.1029
19855TIP3    H280981   2.744   5.035   3.473 -0.1527 -0.2797  0.8344
19856TIP3   OH280982   6.191   4.684  14.643  0.6149 -0.3117  0.0406
19856TIP3    H180983   6.232   4.769  14.663  0.6178 -0.4761  0.7466
19856TIP3    H280984   6.142   4.700  14.562  1.7111  0.0051 -0.5860
19857TIP3   OH280985   3.740   5.071  13.557 -0.3791 -0.1893  0.4360
19857TIP3    H180986   3.799   5.146  13.560 -0.4910 -0.1221  1.6338
19857TIP3    H280987   3.653   5.109  13.555 -0.4745 -0.2388 -3.4962
19858TIP3   OH280988   5.562   4.614  13.459 -0.0219 -0.3765 -0.6143
19858TIP3    H180989   5.497   4.565  13.509 -1.4535  1.7225 -0.2429
19858TIP3    H280990   5.571   4.566  13.377 -0.4905 -1.8234  0.1496
19859TIP3   OH280991   2.204   1.877   0.443 -0.2876  0.2236 -0.2985
19859TIP3    H180992   2.245   1.928   0.374  0.4974 -1.7466 -1.3803
19859TIP3    H280993   2.163   1.803   0.397 -2.1141  0.3066  1.1022
19860TIP3   OH280994   4.793   1.530   5.023  0.4024  0.6113  0.6200
19860TIP3    H180995   4.791   1.480   4.941 -0.6649  0.5438  0.6765
19860TIP3    H280996   4.884   1.523   5.053  0.9820  1.1963 -0.8929
19861TIP3   OH280997   3.780   3.347  16.571  0.2130  0.0546 -0.3637
19861TIP3    H180998   3.742   3.397  16.643 -0.3942  1.4034 -1.5517
19861TIP3    H280999   3.871   3.375  16.568  0.5957 -1.0154  0.6911
19862TIP3   OH281000   2.187   0.473  13.392  0.3028  0.0444  0.5591
19862TIP3    H181001   2.208   0.552  13.441  1.0885 -0.1357  0.5218
19862TIP3    H281002   2.269   0.423  13.389 -0.3428 -1.0961  1.1612
19863TIP3   OH281003   4.879   1.009   2.346 -0.7490  0.4734 -0.2209
19863TIP3    H181004   4.880   1.042   2.256  2.4298 -0.7245 -0.7565
19863TIP3    H281005   4.876   0.914   2.336 -2.5096  0.3389  1.0799
19864TIP3   OH281006   2.367   3.734  12.853 -0.4068 -0.7890  0.2803
19864TIP3    H181007   2.350   3.799  12.785 -0.3114  0.4529  1.3956
19864TIP3    H281008   2.296   3.670  12.843  0.1298 -1.1648 -1.5579
19865TIP3   OH281009   2.956   4.945  17.340  0.6110 -0.2578  0.1341
19865TIP3    H181010   2.974   4.879  17.406  0.2882 -0.6273 -0.1406
19865TIP3    H281011   2.960   4.897  17.257 -3.0230 -0.7361  0.0818
19866TIP3   OH281012   3.908   0.906   1.890 -0.2583 -0.2036 -0.1135
19866TIP3    H181013   3.954   0.856   1.957 -0.0443 -0.7276 -0.6391
19866TIP3    H281014   3.965   0.901   1.813 -1.2017 -0.9169 -0.7932
19867TIP3   OH281015   1.794   1.988   4.709  0.6820  0.3805  0.3198
19867TIP3    H181016   1.754   2.074   4.720  1.8705  0.9956 -0.0377
19867TIP3    H281017   1.887   2.006   4.694  0.8705 -0.9332 -0.2507
19868TIP3   OH281018   2.485   2.547   3.225 -0.1632 -0.0597 -0.0648
19868TIP3    H181019   2.455   2.637   3.237  1.5836  0.6084 -0.4657
19868TIP3    H281020   2.558   2.554   3.164  1.5273 -1.4319  1.6736
19869TIP3   OH281021   5.606   4.889   0.849 -0.0408  0.2838 -0.2989
19869TIP3    H181022   5.612   4.881   0.944  0.9511 -0.4274 -0.4128
19869TIP3    H281023   5.611   4.983   0.833  0.2378  0.3814  0.3256
19870TIP3   OH281024   3.767   3.651  10.957  0.1039 -0.1091 -0.6848
19870TIP3    H181025   3.767   3.641  10.862  1.3708 -0.6144 -0.6481
19870TIP3    H281026   3.826   3.725  10.974  0.4859 -0.5079 -0.2538
19871TIP3   OH281027   1.340   1.955   5.976  0.3050 -0.1902  0.8345
19871TIP3    H181028   1.319   1.867   6.006  0.3917 -1.2811 -1.9943
19871TIP3    H281029   1.428   1.973   6.009  0.0046 -0.8413  2.0238
19872TIP3   OH281030   3.457   3.996  15.032 -0.1717  0.2397  0.3693
19872TIP3    H181031   3.372   4.034  15.050 -0.9156 -0.2633 -1.7968
19872TIP3    H281032   3.475   4.017  14.940  1.0789 -1.3903  0.1773
19873TIP3   OH281033   3.809   2.564  15.357  0.0440 -0.0414 -0.3528
19873TIP3    H181034   3.746   2.611  15.412 -1.1736  0.6356 -2.1931
19873TIP3    H281035   3.756   2.530  15.284  1.6149 -0.5355 -1.3123
19874TIP3   OH281036   6.249   0.777  11.876 -0.8131  0.5475  0.0086
19874TIP3    H181037   6.210   0.732  11.951 -0.2297  0.7190  0.4172
19874TIP3    H281038   6.185   0.845  11.853 -1.0171  0.4630  0.3235
19875TIP3   OH281039   6.344   5.020   4.009  0.2486  0.2840 -0.0203
19875TIP3    H181040   6.335   5.069   3.928  1.8165 -1.5265 -1.3944
19875TIP3    H281041   6.313   4.932   3.987  1.9218 -0.5866  0.9231
19876TIP3   OH281042   0.759   3.507  12.929 -0.0580 -0.1506 -0.4324
19876TIP3    H181043   0.819   3.527  13.000 -1.0425  2.0599 -0.1380
19876TIP3    H281044   0.752   3.411  12.929 -0.2617 -0.2101  2.6245
19877TIP3   OH281045   5.012   1.949   2.256  0.4286 -0.8081  0.1271
19877TIP3    H181046   4.980   1.862   2.231 -0.1032 -0.1304 -1.7710
19877TIP3    H281047   4.933   2.001   2.269  0.7375 -0.3340  0.1464
19878TIP3   OH281048   3.883   5.209   1.315  0.4866 -0.5760 -0.0485
19878TIP3    H181049   3.956   5.173   1.365  2.3314  1.3177 -1.1891
19878TIP3    H281050   3.902   5.184   1.225 -0.2505 -0.0029 -0.3653
19879TIP3   OH281051   1.040   5.050   6.351  0.2279  0.0306 -0.0247
19879TIP3    H181052   1.113   5.013   6.402  1.3392  2.2073  0.0744
19879TIP3    H281053   1.049   5.145   6.362 -2.2308  0.3788 -0.6123
19880TIP3   OH281054   0.068   6.103  15.957  0.3512  0.2818 -0.1972
19880TIP3    H181055   0.084   6.181  15.904  1.1480  0.4654  0.2846
19880TIP3    H281056   0.150   6.090  16.005  0.0963 -0.6381  0.0037
19881TIP3   OH281057   5.124   2.593   4.437 -0.3637  0.4966 -0.1059
19881TIP3    H181058   5.210   2.619   4.471  0.2243  0.2411 -1.3371
19881TIP3    H281059   5.064   2.658   4.473  0.2694  0.4315  1.1224
19882TIP3   OH281060   3.364   4.783   4.418 -0.2579  0.0677 -0.4393
19882TIP3    H181061   3.347   4.843   4.346 -2.3824 -1.5542 -1.4029
19882TIP3    H281062   3.365   4.696   4.377 -0.7182 -0.8340  1.3658
19883TIP3   OH281063   4.222   4.393  11.959 -0.1728 -0.3812  0.1399
19883TIP3    H181064   4.289   4.394  12.027 -1.4929  1.2097  1.5018
19883TIP3    H281065   4.267   4.422  11.880  0.7297  0.7295  1.0372
19884TIP3   OH281066   4.666   6.033   5.726  0.4335  0.0209  0.1073
19884TIP3    H181067   4.576   6.002   5.723  0.8855 -1.3326 -0.9765
19884TIP3    H281068   4.709   5.977   5.791  0.2804  1.3401  1.3727
19885TIP3   OH281069   2.933   1.731   2.624  0.5991  0.6495  0.5585
19885TIP3    H181070   2.940   1.702   2.715 -0.8511 -0.3013  0.4064
19885TIP3    H281071   2.842   1.762   2.616  1.1986  2.3891 -0.1246
19886TIP3   OH281072   4.320   1.638   4.782 -0.1279  0.0070  0.2791
19886TIP3    H181073   4.325   1.731   4.804  0.0458  0.4595 -1.4533
19886TIP3    H281074   4.229   1.625   4.754 -0.1240 -0.3081  0.4181
19887TIP3   OH281075   1.607   3.335   3.792 -0.2403 -0.1223  0.8520
19887TIP3    H181076   1.609   3.425   3.757  2.3405  0.2596  1.7863
19887TIP3    H281077   1.604   3.280   3.714  0.0279  0.7573  0.1930
19888TIP3   OH281078   2.454   2.255  15.048 -0.1809  0.0994  0.3595
19888TIP3    H181079   2.427   2.255  14.956 -3.1716 -1.0319  1.1184
19888TIP3    H281080   2.440   2.346  15.077 -1.9227 -0.1248  0.3277
19889TIP3   OH281081   1.480   5.509   4.262 -0.2465 -0.2819  0.1522
19889TIP3    H181082   1.412   5.575   4.273 -0.9144 -0.8782 -0.3513
19889TIP3    H281083   1.562   5.556   4.275 -0.5470  1.2177 -2.6641
19890TIP3   OH281084   0.338   1.676   4.882  0.2050 -0.2143 -0.1564
19890TIP3    H181085   0.370   1.766   4.882  0.4948 -0.3137  0.0680
19890TIP3    H281086   0.281   1.671   4.806  0.4597  0.0674 -0.3713
19891TIP3   OH281087   0.508   3.742   4.406  0.2934 -0.5298 -0.5253
19891TIP3    H181088   0.488   3.811   4.470 -2.1563  1.3468 -3.0503
19891TIP3    H281089   0.598   3.717   4.425  0.8326  2.3689  1.4327
19892TIP3   OH281090   0.075   0.747  13.426 -0.1410  0.2160  0.1922
19892TIP3    H181091   0.021   0.671  13.446  1.8792 -0.7606  2.3313
19892TIP3    H281092   0.146   0.712  13.371  1.4564  0.2019  2.1465
19893TIP3   OH281093   2.118   0.926   2.481  0.0230 -0.0572 -0.7818
19893TIP3    H181094   2.190   0.944   2.541 -1.7381  1.3972  1.0541
19893TIP3    H281095   2.141   0.972   2.400  0.4736  1.6475  0.2843
19894TIP3   OH281096   3.639   1.541  12.936 -0.1274  0.0487  0.2611
19894TIP3    H181097   3.651   1.629  12.902  0.4653 -0.0879  0.0963
19894TIP3    H281098   3.602   1.491  12.864  2.6234 -0.6456 -0.8130
19895TIP3   OH281099   2.111   0.832  11.972  0.2176  0.0474 -0.2473
19895TIP3    H181100   2.167   0.755  11.969  0.0910 -0.0309 -0.6682
19895TIP3    H281101   2.038   0.808  12.029  0.5738  0.1233  0.2389
19896TIP3   OH281102   0.877   5.060   4.792  0.4558 -0.7248  0.0473
19896TIP3    H181103   0.937   5.112   4.739 -0.7524  1.5391  0.7806
19896TIP3    H281104   0.924   5.043   4.873  0.4519  0.2905  0.2733
19897TIP3   OH281105   0.760   0.646  11.639 -0.0205  0.8378  0.4167
19897TIP3    H181106   0.825   0.576  11.634 -1.4188 -0.5397  0.6211
19897TIP3    H281107   0.789   0.710  11.574  0.7354 -0.4485 -0.5799
19898TIP3   OH281108   0.293   1.224  12.290  0.7860  0.4699  0.1279
19898TIP3    H181109   0.233   1.189  12.224  1.3236 -1.3455  0.5370
19898TIP3    H281110   0.300   1.317  12.270 -0.4812  0.3038 -1.2356
19899TIP3   OH281111   0.791   6.653  11.461 -0.0420 -0.2548 -0.7693
19899TIP3    H181112   0.741   6.668  11.542 -1.2345 -0.8292 -1.3719
19899TIP3    H281113   0.725   6.626  11.397  0.8944  0.1477 -1.9301
19900TIP3   OH281114   1.609   3.097   1.470  0.4845  0.0253  0.4163
19900TIP3    H181115   1.535   3.066   1.417  0.0904  0.4597  0.6974
19900TIP3    H281116   1.679   3.035   1.452 -0.1642 -0.8190  0.6812
19901TIP3   OH281117   3.742   6.195  14.888 -0.1328  0.3319 -0.1449
19901TIP3    H181118   3.731   6.113  14.839  1.1147  0.1632 -0.1621
19901TIP3    H281119   3.765   6.166  14.976 -0.7202  0.6637  0.1227
19902TIP3   OH281120   2.431   4.188   2.536  0.3485  0.3159 -0.1531
19902TIP3    H181121   2.466   4.100   2.521  2.6756  1.4208 -1.6045
19902TIP3    H281122   2.421   4.226   2.449 -0.0652  1.7105  0.4690
19903TIP3   OH281123   5.050   5.248  12.085 -0.7551  0.3004  0.0131
19903TIP3    H181124   5.066   5.296  12.166  2.9919 -1.5985  0.6159
19903TIP3    H281125   5.011   5.165  12.114  2.2154 -1.1317  0.2372
19904TIP3   OH281126   4.737   0.627  12.513  0.1435 -0.2051 -0.6442
19904TIP3    H181127   4.692   0.615  12.430 -4.1913  0.1327  1.3723
19904TIP3    H281128   4.725   0.544  12.559  1.4097  0.0169  0.1429
19905TIP3   OH281129   1.702   3.559   0.092  0.7742 -0.5604  0.0336
19905TIP3    H181130   1.735   3.621   0.027  1.1401  0.1943  0.9175
19905TIP3    H281131   1.780   3.528   0.138  0.3669  0.4122  1.4207
19906TIP3   OH281132   5.103   6.300   4.490 -0.8603 -0.1174 -0.4391
19906TIP3    H181133   5.135   6.215   4.520 -0.5651  0.2369  0.2561
19906TIP3    H281134   5.166   6.326   4.423 -0.7624 -0.2921 -0.4169
19907TIP3   OH281135   4.897   5.145  11.093 -0.4664  0.6343  0.0237
19907TIP3    H181136   4.971   5.096  11.057  0.1101  0.9552  0.7436
19907TIP3    H281137   4.897   5.124  11.186 -1.9533 -0.2026 -0.1313
19908TIP3   OH281138   5.325   6.144  11.107  0.0460  0.5168  1.1496
19908TIP3    H181139   5.310   6.122  11.015 -1.0485  0.8170  1.2372
19908TIP3    H281140   5.352   6.235  11.105  2.8634 -0.2366  0.9272
19909TIP3   OH281141   4.360   0.849  12.148  0.3034 -0.3062  0.0074
19909TIP3    H181142   4.320   0.933  12.123 -1.1679 -1.1407 -0.6226
19909TIP3    H281143   4.414   0.825  12.073 -0.2285 -0.4749 -0.3306
19910TIP3   OH281144   5.392   5.821   0.602  0.4648 -0.1041 -0.2239
19910TIP3    H181145   5.437   5.792   0.682 -0.7982 -0.7563  0.2777
19910TIP3    H281146   5.309   5.857   0.633  0.1699  0.0984 -1.2085
19911TIP3   OH281147   6.698   2.903  13.495  0.0052 -0.4186  0.2053
19911TIP3    H181148   6.661   2.991  13.499 -1.5761 -1.0973  1.9543
19911TIP3    H281149   6.675   2.871  13.408 -2.4508 -0.3251  0.7634
19912TIP3   OH281150   1.425   5.608  15.664 -0.1605 -0.2099  0.2298
19912TIP3    H181151   1.370   5.683  15.640 -1.5237 -0.6566  1.8170
19912TIP3    H281152   1.468   5.635  15.746  1.6582 -0.0706 -0.7094
19913TIP3   OH281153   5.377   4.025   3.410  0.1636 -0.6329  0.1436
19913TIP3    H181154   5.442   3.998   3.475  0.4121 -0.3750  0.0009
19913TIP3    H281155   5.300   3.973   3.431  0.7986 -1.8764 -0.4510
19914TIP3   OH281156   2.792   3.718  13.958  0.1876  0.0744  0.2653
19914TIP3    H181157   2.753   3.721  14.045 -0.5253  0.9907 -0.0759
19914TIP3    H281158   2.883   3.692  13.973  0.0946  0.3262  1.2857
19915TIP3   OH281159   3.779   1.097  11.636 -0.3565  0.4615  0.0126
19915TIP3    H181160   3.857   1.134  11.596 -0.2587 -2.1681 -2.5206
19915TIP3    H281161   3.724   1.173  11.656  2.6716  2.3795  1.7733
19916TIP3   OH281162   2.914   3.496   2.816 -0.1489  0.0677 -0.2710
19916TIP3    H181163   2.953   3.482   2.903 -0.3193  0.6074 -0.1081
19916TIP3    H281164   2.985   3.475   2.755  0.1519  0.2589  0.0094
19917TIP3   OH281165   5.094   1.875   4.233 -0.1566 -0.2751 -0.2409
19917TIP3    H181166   5.093   1.936   4.307 -1.2993  0.1995 -0.6277
19917TIP3    H281167   5.065   1.792   4.271  2.7768 -1.0187  0.5988
19918TIP3   OH281168   5.594   0.027   2.848 -0.1722 -0.7751 -0.4024
19918TIP3    H181169   5.672  -0.020   2.875 -0.3004 -1.2487 -0.8460
19918TIP3    H281170   5.584   0.096   2.913  0.5871 -0.7363 -0.3183
19919TIP3   OH281171   4.097   3.486  14.372 -0.5504 -0.4179  0.1549
19919TIP3    H181172   4.069   3.483  14.281  0.2753 -1.8660 -0.0822
19919TIP3    H281173   4.104   3.579  14.392  0.8281 -0.0598 -1.7510
19920TIP3   OH281174   1.007   3.751   1.222  0.0225  0.0517  0.1031
19920TIP3    H181175   1.049   3.832   1.252  1.8367 -0.3435 -1.1656
19920TIP3    H281176   1.055   3.682   1.269 -0.5573 -0.3501  0.1088
19921TIP3   OH281177   2.848   1.766  13.352 -0.9030  0.4514  0.0114
19921TIP3    H181178   2.931   1.761  13.303 -1.0338  2.0075 -0.4358
19921TIP3    H281179   2.782   1.737  13.289 -1.0842  2.5456 -0.8741
19922TIP3   OH281180   1.213   5.212   0.741  0.2558  1.0622 -0.1994
19922TIP3    H181181   1.309   5.211   0.747  0.2066  0.8641  0.7165
19922TIP3    H281182   1.195   5.190   0.650  1.0570 -0.6195  0.0083
19923TIP3   OH281183   3.373   6.596  11.787 -0.0241  0.4446 -0.5788
19923TIP3    H181184   3.423   6.618  11.865 -0.1112 -0.5689 -0.2278
19923TIP3    H281185   3.296   6.549  11.819  0.0979 -0.2560 -1.2861
19924TIP3   OH281186   0.497   3.025   2.849  0.3866  0.3785 -0.3799
19924TIP3    H181187   0.506   3.017   2.754  3.2116  1.3002 -0.2634
19924TIP3    H281188   0.500   3.120   2.865 -1.7761  0.3614  0.5772
19925TIP3   OH281189   2.192   1.555   4.198 -0.5440 -0.3781 -0.3639
19925TIP3    H181190   2.152   1.492   4.137  0.3256 -0.4606 -0.8740
19925TIP3    H281191   2.268   1.509   4.234 -0.9905 -0.2904  0.7265
19926TIP3   OH281192   0.019   5.477  14.881 -0.1256 -0.4910  0.1978
19926TIP3    H181193   0.067   5.491  14.962 -1.3926  0.4050  0.8239
19926TIP3    H281194   0.077   5.509  14.812  0.4685 -0.1199  0.8605
19927TIP3   OH281195   3.385   2.692  14.579 -0.5707 -0.2121  0.4080
19927TIP3    H181196   3.299   2.697  14.539 -0.2223 -2.6988 -0.9020
19927TIP3    H281197   3.443   2.737  14.518 -0.8478  1.0786  1.0730
19928TIP3   OH281198   3.219   0.468   1.022  0.1959 -0.8106 -0.1113
19928TIP3    H181199   3.164   0.478   1.100  1.8479 -2.8642  1.4212
19928TIP3    H281200   3.180   0.393   0.976 -0.6071  0.2254 -1.1697
19929TIP3   OH281201   2.611   1.072  14.813  0.0666  0.0083  0.2066
19929TIP3    H181202   2.617   1.071  14.718  0.9810 -0.5183  0.2629
19929TIP3    H281203   2.574   0.987  14.837  0.5001 -0.1432  0.3543
19930TIP3   OH281204   6.178   4.153   0.040 -0.5278  0.3739 -0.2393
19930TIP3    H181205   6.166   4.070   0.087 -2.0767  0.1932 -0.8671
19930TIP3    H281206   6.211   4.214   0.106  0.0447 -0.5886  0.3765
19931TIP3   OH281207   4.492   5.188  16.902  0.2863 -0.2379  0.6486
19931TIP3    H181208   4.435   5.257  16.935 -1.2770 -0.5810 -1.1606
19931TIP3    H281209   4.546   5.230  16.836  0.0552 -0.5027  0.2814
19932TIP3   OH281210   3.856   5.330   2.707  0.1071 -0.4935  0.0472
19932TIP3    H181211   3.834   5.257   2.649  0.9135 -0.1922 -0.6606
19932TIP3    H281212   3.813   5.406   2.668 -0.5144 -0.5212  0.6408
19933TIP3   OH281213   1.256   4.319  13.008 -0.3928  0.6330 -0.1581
19933TIP3    H181214   1.163   4.305  12.992 -1.0660  4.4652 -0.5390
19933TIP3    H281215   1.293   4.339  12.922  0.0965  2.1205  0.3646
19934TIP3   OH281216   0.206   1.775   3.511 -0.2218  0.1302  0.3460
19934TIP3    H181217   0.135   1.775   3.575  0.6126  1.3415  1.3239
19934TIP3    H281218   0.249   1.860   3.522  1.7329 -0.7678  0.2214
19935TIP3   OH281219   3.266   6.128   1.345 -0.2203  0.0691 -0.1697
19935TIP3    H181220   3.233   6.067   1.278 -0.9300 -0.0301  0.2629
19935TIP3    H281221   3.188   6.173   1.377  0.0909 -0.0074  0.7190
19936TIP3   OH281222   0.391   3.951  14.544 -0.4484  0.5614  0.1662
19936TIP3    H181223   0.395   4.003  14.464  0.6265  1.5294  0.8096
19936TIP3    H281224   0.476   3.967  14.587 -0.0565 -1.7436  0.3819
19937TIP3   OH281225   4.458   6.617   3.713  0.2353 -0.3698  0.1725
19937TIP3    H181226   4.367   6.616   3.743  0.1138  0.8334 -0.1237
19937TIP3    H281227   4.464   6.694   3.656  1.3112 -0.7287 -0.2251
19938TIP3   OH281228   2.563   1.544  12.486 -0.0234 -0.1175 -0.0540
19938TIP3    H181229   2.594   1.549  12.576  0.2956 -1.7310 -0.0550
19938TIP3    H281230   2.556   1.451  12.467 -0.1170  0.1840 -1.7015
19939TIP3   OH281231   6.134   3.966   5.517 -0.2863  0.1517 -0.0362
19939TIP3    H181232   6.071   3.938   5.451 -1.3521  1.6223  0.3083
19939TIP3    H281233   6.136   4.062   5.508  1.7224  0.1720  0.1314
19940TIP3   OH281234   1.634   4.640  16.362 -0.0949  0.2540  0.1329
19940TIP3    H181235   1.660   4.632  16.270  1.2205 -0.0280  0.5087
19940TIP3    H281236   1.543   4.613  16.364  0.1081 -0.5556 -0.9585
19941TIP3   OH281237   2.746   2.948  17.284 -0.3293 -0.0409  0.1895
19941TIP3    H181238   2.808   3.018  17.306 -1.8784  1.6673 -0.6085
19941TIP3    H281239   2.720   2.912  17.369  1.0471 -0.1945  0.5763
19942TIP3   OH281240   1.251   4.246   4.460 -0.7477  0.0873 -0.0183
19942TIP3    H181241   1.282   4.335   4.472 -2.1558  0.5499  0.4118
19942TIP3    H281242   1.296   4.195   4.527  0.0227  0.4771 -0.2328
19943TIP3   OH281243   3.609   6.744  14.457  0.0345 -0.1279  0.7082
19943TIP3    H181244   3.612   6.698  14.373 -0.4641  0.6628  0.2456
19943TIP3    H281245   3.672   6.698  14.512  2.1505  0.7722 -0.8303
19944TIP3   OH281246   3.197   2.105   2.456  0.3133 -0.2007  0.7509
19944TIP3    H181247   3.111   2.124   2.418  1.6317  0.2353 -2.3089
19944TIP3    H281248   3.184   2.115   2.550 -2.7522  0.7426  0.3534
19945TIP3   OH281249   5.008   3.681  14.802  0.9035 -0.3525 -0.0258
19945TIP3    H181250   4.966   3.606  14.759  1.5422 -0.0977 -1.1337
19945TIP3    H281251   4.961   3.690  14.885 -1.8128  0.3757 -1.4882
19946TIP3   OH281252   3.715   3.135  12.454  0.0870 -0.7985  0.0986
19946TIP3    H181253   3.757   3.051  12.474 -2.6070 -2.4231 -0.4857
19946TIP3    H281254   3.622   3.118  12.467 -0.8839  1.1502 -3.2802
19947TIP3   OH281255   2.063   6.594  16.134 -0.9226  1.0266  0.2227
19947TIP3    H181256   2.070   6.686  16.110  0.0899  0.6374 -1.0817
19947TIP3    H281257   1.981   6.588  16.182 -3.3541  1.8777 -3.4125
19948TIP3   OH281258   2.127   5.493   1.425 -0.1038  0.3080  0.2401
19948TIP3    H181259   2.068   5.425   1.457  0.4101 -0.0740  0.3969
19948TIP3    H281260   2.128   5.481   1.330 -1.5343  1.3632  0.0564
19949TIP3   OH281261   6.128   1.225  12.001  0.3666 -0.4452 -0.0600
19949TIP3    H181262   6.155   1.313  11.971 -0.7443 -0.2216 -0.4729
19949TIP3    H281263   6.175   1.212  12.083  2.3106 -0.4161 -1.1035
19950TIP3   OH281264   0.764   4.427  17.405 -0.4374 -0.3428  0.1294
19950TIP3    H181265   0.727   4.341  17.429 -1.3421  0.2924  1.0971
19950TIP3    H281266   0.813   4.454  17.483  1.1345 -0.6347 -0.7194
19951TIP3   OH281267   3.621   3.742   5.573  0.0271  0.1357 -0.0890
19951TIP3    H181268   3.703   3.697   5.590 -0.8814 -1.5475  0.0298
19951TIP3    H281269   3.638   3.833   5.598  1.6105 -0.3291  0.6645
19952TIP3   OH281270   3.180   3.523   6.166  0.5890 -0.2234  0.1318
19952TIP3    H181271   3.185   3.617   6.182  0.3466  0.0700 -1.4107
19952TIP3    H281272   3.123   3.490   6.236 -1.3999  1.1666 -0.7523
19953TIP3   OH281273   3.577   6.340  14.033 -0.2146 -0.4963 -0.0665
19953TIP3    H181274   3.655   6.346  13.978 -0.1472 -0.7699 -0.0050
19953TIP3    H281275   3.561   6.246  14.040  0.0378 -0.4847  0.7527
19954TIP3   OH281276   5.634   6.018   3.470  0.3093  0.3174  0.8752
19954TIP3    H181277   5.586   6.075   3.530 -1.3361 -0.4476  0.3590
19954TIP3    H281278   5.673   5.951   3.526  1.2444  1.2417  1.3579
19955TIP3   OH281279   3.290   5.619   4.756 -0.4470 -0.7920 -0.0550
19955TIP3    H181280   3.213   5.597   4.808 -0.6671 -0.6808 -0.3314
19955TIP3    H281281   3.259   5.619   4.665 -0.3345  0.1163 -0.1102
19956TIP3   OH281282   1.768   1.571  13.355 -0.2315  0.4087 -1.0154
19956TIP3    H181283   1.858   1.603  13.349  0.4602 -0.8501  1.3509
19956TIP3    H281284   1.717   1.646  13.388  0.3243  0.6114 -0.6064
19957TIP3   OH281285   0.474   1.664  16.532 -0.1567  0.3296 -0.6645
19957TIP3    H181286   0.393   1.671  16.482 -0.8579 -2.5911 -0.1189
19957TIP3    H281287   0.448   1.683  16.623 -0.7089 -2.3449 -0.1965
19958TIP3   OH281288   0.603   1.405   5.096  0.0149 -0.8077  0.4087
19958TIP3    H181289   0.655   1.359   5.030  0.3356 -0.6112  0.5217
19958TIP3    H281290   0.655   1.483   5.116  0.0965 -1.0512  1.1664
19959TIP3   OH281291   3.246   3.174  15.684 -0.0560 -0.0876  0.4510
19959TIP3    H181292   3.338   3.193  15.702  0.0843 -0.6807  0.3504
19959TIP3    H281293   3.243   3.151  15.591 -0.2764 -0.2549  0.4987
19960TIP3   OH281294   4.110   3.283  16.992 -0.3164  0.4306  0.8692
19960TIP3    H181295   4.057   3.267  16.913  1.6465  1.5607 -0.7576
19960TIP3    H281296   4.160   3.202  17.003  0.8832  0.9820 -0.2896
19961TIP3   OH281297   0.396   1.458  11.373  0.5624 -0.4886  0.9296
19961TIP3    H181298   0.355   1.382  11.332 -0.8089  0.6136  0.1492
19961TIP3    H281299   0.358   1.461  11.461  0.2093 -0.4257  0.7795
19962TIP3   OH281300   4.169   5.972   0.325 -0.1568  0.4149 -0.2130
19962TIP3    H181301   4.097   5.910   0.333  0.8779 -0.8902 -0.6596
19962TIP3    H281302   4.186   6.001   0.414 -0.7740  0.1935 -0.0203
19963TIP3   OH281303   1.531   4.111  16.239 -0.6093  0.0597  0.7131
19963TIP3    H181304   1.540   4.110  16.144 -2.4829 -1.7802  0.5028
19963TIP3    H281305   1.504   4.201  16.260  3.9332  1.8458  0.0897
19964TIP3   OH281306   1.129   3.011   3.565  0.1407  0.0100  0.7242
19964TIP3    H181307   1.086   3.089   3.528 -0.9193 -1.3413 -1.0518
19964TIP3    H281308   1.060   2.945   3.569  0.9753 -0.8171  2.3778
19965TIP3   OH281309   4.697   1.825   1.350  0.0340 -0.5081  0.2107
19965TIP3    H181310   4.727   1.811   1.440 -0.2085  1.6063  0.6801
19965TIP3    H281311   4.770   1.870   1.307 -0.0325 -1.0838 -0.5390
19966TIP3   OH281312   1.687   0.581   0.315  0.0790  0.2786  0.2813
19966TIP3    H181313   1.755   0.629   0.363  0.6312  0.4188 -0.6252
19966TIP3    H281314   1.701   0.605   0.224  0.0928 -1.2943 -0.1435
19967TIP3   OH281315   0.854   0.972   3.182 -0.1407  0.1250 -0.1726
19967TIP3    H181316   0.767   0.934   3.164  1.4120 -3.2862 -1.3951
19967TIP3    H281317   0.856   0.984   3.277 -1.2748 -1.7393  0.1344
19968TIP3   OH281318   6.185   0.122  14.772 -0.1281  0.0617 -0.3022
19968TIP3    H181319   6.243   0.051  14.800  1.5700  0.7063 -1.9692
19968TIP3    H281320   6.102   0.079  14.750  0.4990 -1.2445 -0.1770
19969TIP3   OH281321   1.660   1.044   4.123 -0.6233  0.2902  0.0988
19969TIP3    H181322   1.722   0.983   4.165 -2.8789 -1.8649  0.5464
19969TIP3    H281323   1.574   1.004   4.137 -2.1051  2.8519 -0.9910
19970TIP3   OH281324   2.052   4.214   5.139 -0.3728 -0.4066  0.3298
19970TIP3    H181325   2.018   4.250   5.057  0.7358 -0.0062  0.0270
19970TIP3    H281326   1.998   4.254   5.207 -3.4522 -3.1314 -0.2781
19971TIP3   OH281327   2.335   4.323  12.220 -0.5245  0.1077  0.0589
19971TIP3    H181328   2.390   4.401  12.217  0.9529 -0.8764  0.4838
19971TIP3    H281329   2.390   4.256  12.259 -2.3623 -0.7017  1.4406
19972TIP3   OH281330   1.445   4.376   6.449  0.0360 -0.1725  0.1861
19972TIP3    H181331   1.520   4.317   6.459 -0.4401 -1.0309 -1.0762
19972TIP3    H281332   1.372   4.319   6.426 -0.6770  0.7988 -0.0390
19973TIP3   OH281333   5.441   1.760  12.437  0.2206  0.1177  0.1074
19973TIP3    H181334   5.502   1.820  12.394  0.1288  1.3827  1.6233
19973TIP3    H281335   5.389   1.817  12.495  0.3041 -1.4405  1.8089
19974TIP3   OH281336   5.871   0.163   0.282  0.2921  0.2906  0.0059
19974TIP3    H181337   5.942   0.202   0.231 -0.3126 -0.2347 -1.2791
19974TIP3    H281338   5.796   0.220   0.268 -0.2358 -0.5681 -0.8091
19975TIP3   OH281339   5.089   4.247  11.830 -0.5264 -0.2566 -0.3188
19975TIP3    H181340   5.055   4.159  11.843 -0.7922 -0.1161 -0.0566
19975TIP3    H281341   5.076   4.264  11.736  1.7607 -1.4120 -0.9307
19976TIP3   OH281342   5.084   6.649  12.297 -0.2956 -0.1774 -0.0273
19976TIP3    H181343   5.031   6.595  12.355 -0.5046 -0.3507 -0.3755
19976TIP3    H281344   5.117   6.720  12.353  0.4353 -0.9651  0.5550
19977TIP3   OH281345   3.110   1.195  16.136  0.0721  0.0797 -0.4728
19977TIP3    H181346   3.080   1.108  16.108  0.1631 -0.4563  0.9768
19977TIP3    H281347   3.037   1.231  16.186  1.7702 -1.4937  3.6200
19978TIP3   OH281348   5.879   1.363   0.163 -0.1337 -0.2105  0.6204
19978TIP3    H181349   5.786   1.380   0.181 -0.1910  0.0975  0.0612
19978TIP3    H281350   5.909   1.442   0.119  0.1895 -0.6392  0.0680
19979TIP3   OH281351   0.356   1.304   2.011 -0.1950 -0.3185 -0.0583
19979TIP3    H181352   0.444   1.269   2.026 -0.6796 -0.3051  3.7202
19979TIP3    H281353   0.363   1.397   2.032 -0.9022 -0.0266 -1.0025
19980TIP3   OH281354   5.800   2.908   1.063  0.2355  0.5174 -0.2993
19980TIP3    H181355   5.780   2.826   1.018 -0.3537  0.8555 -0.6667
19980TIP3    H281356   5.763   2.976   1.006 -0.3887  0.9682  0.6155
19981TIP3   OH281357   2.339   6.654  13.128 -0.2202 -0.0185 -0.1979
19981TIP3    H181358   2.345   6.584  13.193  2.2883 -0.1728 -0.4801
19981TIP3    H281359   2.306   6.729  13.176  0.4912 -0.4411  0.9919
19982TIP3   OH281360   3.670   0.099  15.798 -0.5843 -0.4639 -0.3007
19982TIP3    H181361   3.582   0.134  15.807 -0.9934 -1.4277 -0.5033
19982TIP3    H281362   3.677   0.076  15.705  0.1827  0.3736 -0.4742
19983TIP3   OH281363   2.501   6.629  10.784 -0.1556  0.1584 -0.3745
19983TIP3    H181364   2.463   6.577  10.714 -0.1514 -0.1532 -0.1454
19983TIP3    H281365   2.481   6.720  10.760  1.5567  0.2215 -1.8341
19984LIG      O81366   5.175   5.603  16.714 -0.3665  0.0809  0.0889
19984LIG     C181367   5.057   5.530  16.751  0.0121 -0.1692 -0.1393
19984LIG     C281368   5.049   5.525  16.901 -0.0733  0.8254 -0.0375
19984LIG     C381369   4.933   5.598  16.701  0.0096 -0.4159 -0.7388
19984LIG     H181370   5.067   5.427  16.711  0.7019  1.0552 -3.4344
19984LIG     H281371   5.139   5.478  16.945 -0.2957  0.3374 -0.0963
19984LIG     H381372   4.975   5.446  16.927  1.2929 -0.8493 -1.0259
19984LIG     H481373   5.013   5.622  16.941 -2.3355 -0.1575  0.4617
19984LIG     H581374   4.944   5.703  16.736  0.9067  0.4396 -3.2921
19984LIG     H681375   4.839   5.554  16.741  0.4691  0.1056  0.9989
19984LIG     H781376   4.936   5.605  16.590  1.0089  2.8415 -0.6228
19984LIG     H881377   5.171   5.606  16.618  0.2859 -0.6522  0.0281
   6.74610   6.74610  17.48933
