Title
81319
    1CHL1    C3    1   1.499   4.224  10.246
    1CHL1    H3    2   1.583   4.290  10.218
    1CHL1    O3    3   1.472   4.242  10.383
    1CHL1   H3'    4   1.421   4.171  10.422
    1CHL1    C4    5   1.364   4.246  10.171
    1CHL1   H4A    6   1.284   4.186  10.221
    1CHL1   H4B    7   1.335   4.351  10.192
    1CHL1    C5    8   1.384   4.228  10.023
    1CHL1    C6    9   1.373   4.332   9.933
    1CHL1    H6   10   1.342   4.434   9.960
    1CHL1    C7   11   1.383   4.323   9.780
    1CHL1   H7A   12   1.298   4.374   9.729
    1CHL1   H7B   13   1.482   4.359   9.745
    1CHL1    C8   14   1.377   4.172   9.735
    1CHL1    H8   15   1.273   4.133   9.731
    1CHL1   C14   16   1.431   4.179   9.588
    1CHL1   H14   17   1.532   4.223   9.605
    1CHL1   C15   18   1.360   4.268   9.487
    1CHL1  H15A   19   1.250   4.251   9.493
    1CHL1  H15B   20   1.387   4.375   9.493
    1CHL1   C16   21   1.408   4.216   9.356
    1CHL1  H16A   22   1.321   4.218   9.288
    1CHL1  H16B   23   1.480   4.290   9.316
    1CHL1   C17   24   1.475   4.078   9.375
    1CHL1   H17   25   1.583   4.104   9.365
    1CHL1   C13   26   1.435   4.045   9.522
    1CHL1   C18   27   1.295   3.986   9.520
    1CHL1  H18A   28   1.307   3.900   9.450
    1CHL1  H18B   29   1.266   3.953   9.622
    1CHL1  H18C   30   1.219   4.049   9.470
    1CHL1   C12   31   1.539   3.966   9.605
    1CHL1  H12A   32   1.563   3.870   9.554
    1CHL1  H12B   33   1.639   4.014   9.610
    1CHL1   C11   34   1.493   3.954   9.751
    1CHL1  H11A   35   1.402   3.890   9.752
    1CHL1  H11B   36   1.582   3.909   9.799
    1CHL1    C9   37   1.469   4.091   9.822
    1CHL1    H9   38   1.572   4.131   9.812
    1CHL1   C10   39   1.432   4.086   9.978
    1CHL1   C19   40   1.330   3.979  10.000
    1CHL1  H19A   41   1.379   3.880   9.986
    1CHL1  H19B   42   1.291   3.990  10.104
    1CHL1  H19C   43   1.256   3.987   9.917
    1CHL1    C1   44   1.561   4.059  10.066
    1CHL1   H1A   45   1.598   3.955  10.064
    1CHL1   H1B   46   1.637   4.131  10.029
    1CHL1    C2   47   1.539   4.086  10.213
    1CHL1   H2A   48   1.625   4.056  10.277
    1CHL1   H2B   49   1.450   4.033  10.253
    1CHL1   C20   50   1.455   3.984   9.256
    1CHL1   H20   51   1.346   3.967   9.244
    1CHL1   C21   52   1.529   3.848   9.277
    1CHL1  H21A   53   1.495   3.802   9.372
    1CHL1  H21B   54   1.638   3.865   9.289
    1CHL1  H21C   55   1.511   3.772   9.198
    1CHL1   C22   56   1.485   4.043   9.118
    1CHL1  H22A   57   1.430   4.140   9.119
    1CHL1  H22B   58   1.594   4.060   9.105
    1CHL1   C23   59   1.438   3.968   8.989
    1CHL1  H23A   60   1.468   3.861   8.990
    1CHL1  H23B   61   1.327   3.963   9.002
    1CHL1   C24   62   1.474   4.041   8.850
    1CHL1  H24A   63   1.419   4.137   8.850
    1CHL1  H24B   64   1.583   4.059   8.848
    1CHL1   C25   65   1.440   3.958   8.727
    1CHL1   H25   66   1.481   3.855   8.734
    1CHL1   C26   67   1.287   3.958   8.704
    1CHL1  H26A   68   1.257   4.065   8.702
    1CHL1  H26B   69   1.257   3.903   8.612
    1CHL1  H26C   70   1.232   3.904   8.784
    1CHL1   C27   71   1.507   4.022   8.602
    1CHL1  H27A   72   1.615   4.035   8.623
    1CHL1  H27B   73   1.500   3.962   8.509
    1CHL1  H27C   74   1.459   4.122   8.589
    2CHL1    C3   75   2.622   2.123   9.946
    2CHL1    H3   76   2.724   2.168   9.939
    2CHL1    O3   77   2.578   2.130  10.080
    2CHL1   H3'   78   2.538   2.044  10.089
    2CHL1    C4   79   2.521   2.200   9.863
    2CHL1   H4A   80   2.426   2.145   9.883
    2CHL1   H4B   81   2.526   2.309   9.886
    2CHL1    C5   82   2.552   2.173   9.717
    2CHL1    C6   83   2.549   2.277   9.631
    2CHL1    H6   84   2.517   2.377   9.661
    2CHL1    C7   85   2.569   2.260   9.487
    2CHL1   H7A   86   2.502   2.320   9.421
    2CHL1   H7B   87   2.671   2.299   9.468
    2CHL1    C8   88   2.564   2.115   9.436
    2CHL1    H8   89   2.461   2.073   9.426
    2CHL1   C14   90   2.630   2.105   9.293
    2CHL1   H14   91   2.739   2.123   9.308
    2CHL1   C15   92   2.587   2.201   9.192
    2CHL1  H15A   93   2.479   2.217   9.177
    2CHL1  H15B   94   2.633   2.302   9.200
    2CHL1   C16   95   2.642   2.137   9.061
    2CHL1  H16A   96   2.547   2.130   9.004
    2CHL1  H16B   97   2.717   2.209   9.022
    2CHL1   C17   98   2.699   1.998   9.100
    2CHL1   H17   99   2.805   2.025   9.122
    2CHL1   C13  100   2.628   1.970   9.226
    2CHL1   C18  101   2.478   1.928   9.198
    2CHL1  H18A  102   2.474   1.825   9.158
    2CHL1  H18B  103   2.425   1.935   9.295
    2CHL1  H18C  104   2.424   2.003   9.136
    2CHL1   C12  105   2.699   1.871   9.320
    2CHL1  H12A  106   2.668   1.767   9.295
    2CHL1  H12B  107   2.808   1.888   9.326
    2CHL1   C11  108   2.660   1.879   9.470
    2CHL1  H11A  109   2.572   1.811   9.476
    2CHL1  H11B  110   2.735   1.813   9.519
    2CHL1    C9  111   2.635   2.018   9.531
    2CHL1    H9  112   2.739   2.058   9.528
    2CHL1   C10  113   2.578   2.025   9.676
    2CHL1   C19  114   2.449   1.949   9.682
    2CHL1  H19A  115   2.414   1.931   9.786
    2CHL1  H19B  116   2.362   2.002   9.637
    2CHL1  H19C  117   2.455   1.852   9.629
    2CHL1    C1  118   2.682   1.959   9.773
    2CHL1   H1A  119   2.707   1.853   9.752
    2CHL1   H1B  120   2.777   2.016   9.764
    2CHL1    C2  121   2.644   1.981   9.919
    2CHL1   H2A  122   2.717   1.934   9.988
    2CHL1   H2B  123   2.550   1.924   9.934
    2CHL1   C20  124   2.703   1.896   8.984
    2CHL1   H20  125   2.598   1.870   8.958
    2CHL1   C21  126   2.787   1.773   9.021
    2CHL1  H21A  127   2.754   1.731   9.118
    2CHL1  H21B  128   2.893   1.798   9.043
    2CHL1  H21C  129   2.777   1.692   8.945
    2CHL1   C22  130   2.770   1.970   8.851
    2CHL1  H22A  131   2.715   2.064   8.827
    2CHL1  H22B  132   2.873   1.999   8.881
    2CHL1   C23  133   2.773   1.876   8.726
    2CHL1  H23A  134   2.822   1.780   8.753
    2CHL1  H23B  135   2.668   1.844   8.715
    2CHL1   C24  136   2.818   1.934   8.595
    2CHL1  H24A  137   2.924   1.966   8.605
    2CHL1  H24B  138   2.802   1.843   8.534
    2CHL1   C25  139   2.736   2.050   8.532
    2CHL1   H25  140   2.702   2.130   8.601
    2CHL1   C26  141   2.818   2.130   8.425
    2CHL1  H26A  142   2.865   2.069   8.344
    2CHL1  H26B  143   2.746   2.192   8.367
    2CHL1  H26C  144   2.900   2.192   8.468
    2CHL1   C27  145   2.606   2.000   8.474
    2CHL1  H27A  146   2.548   1.928   8.536
    2CHL1  H27B  147   2.533   2.079   8.444
    2CHL1  H27C  148   2.628   1.961   8.373
    3CHL1    C3  149   3.216   1.938  10.290
    3CHL1    H3  150   3.306   1.875  10.305
    3CHL1    O3  151   3.193   1.993  10.423
    3CHL1   H3'  152   3.132   2.068  10.419
    3CHL1    C4  153   3.228   2.053  10.196
    3CHL1   H4A  154   3.134   2.112  10.201
    3CHL1   H4B  155   3.308   2.122  10.231
    3CHL1    C5  156   3.247   2.013  10.053
    3CHL1    C6  157   3.342   2.050   9.971
    3CHL1    H6  158   3.423   2.114  10.009
    3CHL1    C7  159   3.356   2.026   9.818
    3CHL1   H7A  160   3.349   2.126   9.770
    3CHL1   H7B  161   3.450   1.978   9.784
    3CHL1    C8  162   3.231   1.948   9.762
    3CHL1    H8  163   3.155   2.027   9.749
    3CHL1   C14  164   3.262   1.878   9.634
    3CHL1   H14  165   3.336   1.798   9.654
    3CHL1   C15  166   3.325   1.960   9.518
    3CHL1  H15A  167   3.279   2.061   9.514
    3CHL1  H15B  168   3.429   1.980   9.550
    3CHL1   C16  169   3.308   1.874   9.396
    3CHL1  H16A  170   3.262   1.930   9.311
    3CHL1  H16B  171   3.411   1.856   9.359
    3CHL1   C17  172   3.222   1.751   9.438
    3CHL1   H17  173   3.284   1.662   9.465
    3CHL1   C13  174   3.149   1.801   9.568
    3CHL1   C18  175   3.038   1.895   9.521
    3CHL1  H18A  176   2.950   1.844   9.476
    3CHL1  H18B  177   3.004   1.961   9.603
    3CHL1  H18C  178   3.082   1.966   9.446
    3CHL1   C12  179   3.100   1.692   9.669
    3CHL1  H12A  180   3.014   1.638   9.624
    3CHL1  H12B  181   3.184   1.622   9.687
    3CHL1   C11  182   3.065   1.749   9.807
    3CHL1  H11A  183   2.973   1.810   9.796
    3CHL1  H11B  184   3.042   1.660   9.870
    3CHL1    C9  185   3.178   1.850   9.863
    3CHL1    H9  186   3.267   1.789   9.889
    3CHL1   C10  187   3.134   1.916  10.002
    3CHL1   C19  188   3.006   1.998   9.981
    3CHL1  H19A  189   2.967   2.057  10.067
    3CHL1  H19B  190   3.008   2.074   9.900
    3CHL1  H19C  191   2.927   1.922   9.961
    3CHL1    C1  192   3.112   1.801  10.108
    3CHL1   H1A  193   3.029   1.740  10.067
    3CHL1   H1B  194   3.201   1.735  10.113
    3CHL1    C2  195   3.090   1.851  10.256
    3CHL1   H2A  196   3.098   1.765  10.326
    3CHL1   H2B  197   2.996   1.909  10.269
    3CHL1   C20  198   3.140   1.699   9.320
    3CHL1   H20  199   3.088   1.786   9.275
    3CHL1   C21  200   3.042   1.594   9.363
    3CHL1  H21A  201   2.969   1.643   9.432
    3CHL1  H21B  202   3.087   1.505   9.411
    3CHL1  H21C  203   2.984   1.553   9.278
    3CHL1   C22  204   3.232   1.637   9.213
    3CHL1  H22A  205   3.325   1.698   9.210
    3CHL1  H22B  206   3.279   1.543   9.248
    3CHL1   C23  207   3.178   1.613   9.071
    3CHL1  H23A  208   3.095   1.540   9.079
    3CHL1  H23B  209   3.129   1.702   9.027
    3CHL1   C24  210   3.297   1.576   8.975
    3CHL1  H24A  211   3.370   1.659   8.981
    3CHL1  H24B  212   3.350   1.490   9.022
    3CHL1   C25  213   3.253   1.546   8.830
    3CHL1   H25  214   3.206   1.636   8.787
    3CHL1   C26  215   3.381   1.532   8.745
    3CHL1  H26A  216   3.438   1.445   8.785
    3CHL1  H26B  217   3.362   1.518   8.637
    3CHL1  H26C  218   3.447   1.619   8.767
    3CHL1   C27  219   3.155   1.424   8.815
    3CHL1  H27A  220   3.191   1.330   8.862
    3CHL1  H27B  221   3.060   1.458   8.860
    3CHL1  H27C  222   3.145   1.406   8.706
    4CHL1    C3  223   2.494   3.679  10.542
    4CHL1    H3  224   2.566   3.595  10.539
    4CHL1    O3  225   2.471   3.709  10.678
    4CHL1   H3'  226   2.554   3.749  10.707
    4CHL1    C4  227   2.540   3.809  10.475
    4CHL1   H4A  228   2.467   3.891  10.491
    4CHL1   H4B  229   2.633   3.850  10.520
    4CHL1    C5  230   2.556   3.789  10.319
    4CHL1    C6  231   2.675   3.807  10.255
    4CHL1    H6  232   2.756   3.859  10.307
    4CHL1    C7  233   2.706   3.780  10.112
    4CHL1   H7A  234   2.759   3.872  10.079
    4CHL1   H7B  235   2.775   3.693  10.106
    4CHL1    C8  236   2.573   3.757  10.027
    4CHL1    H8  237   2.521   3.852  10.002
    4CHL1   C14  238   2.605   3.683   9.906
    4CHL1   H14  239   2.659   3.590   9.934
    4CHL1   C15  240   2.707   3.740   9.806
    4CHL1  H15A  241   2.687   3.844   9.773
    4CHL1  H15B  242   2.814   3.734   9.839
    4CHL1   C16  243   2.690   3.642   9.686
    4CHL1  H16A  244   2.690   3.714   9.601
    4CHL1  H16B  245   2.764   3.559   9.682
    4CHL1   C17  246   2.549   3.574   9.697
    4CHL1   H17  247   2.570   3.472   9.736
    4CHL1   C13  248   2.482   3.654   9.814
    4CHL1   C18  249   2.421   3.788   9.759
    4CHL1  H18A  250   2.320   3.761   9.720
    4CHL1  H18B  251   2.400   3.855   9.844
    4CHL1  H18C  252   2.485   3.835   9.681
    4CHL1   C12  253   2.387   3.570   9.900
    4CHL1  H12A  254   2.291   3.543   9.850
    4CHL1  H12B  255   2.439   3.478   9.935
    4CHL1   C11  256   2.343   3.643  10.031
    4CHL1  H11A  257   2.302   3.741   9.998
    4CHL1  H11B  258   2.267   3.577  10.079
    4CHL1    C9  259   2.466   3.677  10.112
    4CHL1    H9  260   2.524   3.583  10.122
    4CHL1   C10  261   2.426   3.731  10.249
    4CHL1   C19  262   2.321   3.851  10.233
    4CHL1  H19A  263   2.352   3.918  10.150
    4CHL1  H19B  264   2.227   3.810  10.191
    4CHL1  H19C  265   2.303   3.905  10.329
    4CHL1    C1  266   2.358   3.617  10.332
    4CHL1   H1A  267   2.263   3.578  10.291
    4CHL1   H1B  268   2.423   3.528  10.315
    4CHL1    C2  269   2.359   3.632  10.483
    4CHL1   H2A  270   2.335   3.541  10.543
    4CHL1   H2B  271   2.285   3.704  10.522
    4CHL1   C20  272   2.479   3.559   9.565
    4CHL1   H20  273   2.449   3.659   9.526
    4CHL1   C21  274   2.364   3.457   9.588
    4CHL1  H21A  275   2.316   3.424   9.493
    4CHL1  H21B  276   2.284   3.509   9.646
    4CHL1  H21C  277   2.385   3.369   9.652
    4CHL1   C22  278   2.569   3.494   9.458
    4CHL1  H22A  279   2.662   3.553   9.447
    4CHL1  H22B  280   2.607   3.399   9.502
    4CHL1   C23  281   2.506   3.483   9.315
    4CHL1  H23A  282   2.429   3.406   9.295
    4CHL1  H23B  283   2.459   3.581   9.290
    4CHL1   C24  284   2.612   3.454   9.212
    4CHL1  H24A  285   2.695   3.527   9.216
    4CHL1  H24B  286   2.655   3.352   9.230
    4CHL1   C25  287   2.569   3.449   9.063
    4CHL1   H25  288   2.492   3.369   9.063
    4CHL1   C26  289   2.522   3.582   9.001
    4CHL1  H26A  290   2.601   3.660   9.010
    4CHL1  H26B  291   2.513   3.556   8.893
    4CHL1  H26C  292   2.426   3.617   9.043
    4CHL1   C27  293   2.683   3.389   8.975
    4CHL1  H27A  294   2.713   3.290   9.016
    4CHL1  H27B  295   2.636   3.383   8.875
    4CHL1  H27C  296   2.775   3.451   8.990
    5CHL1    C3  297   3.499   1.706  10.123
    5CHL1    H3  298   3.396   1.742  10.101
    5CHL1    O3  299   3.508   1.700  10.263
    5CHL1   H3'  300   3.429   1.651  10.286
    5CHL1    C4  301   3.511   1.562  10.070
    5CHL1   H4A  302   3.588   1.502  10.123
    5CHL1   H4B  303   3.425   1.497  10.093
    5CHL1    C5  304   3.526   1.561   9.919
    5CHL1    C6  305   3.436   1.494   9.848
    5CHL1    H6  306   3.364   1.431   9.901
    5CHL1    C7  307   3.465   1.474   9.692
    5CHL1   H7A  308   3.470   1.367   9.661
    5CHL1   H7B  309   3.385   1.524   9.634
    5CHL1    C8  310   3.598   1.535   9.639
    5CHL1    H8  311   3.678   1.461   9.659
    5CHL1   C14  312   3.586   1.547   9.487
    5CHL1   H14  313   3.500   1.616   9.477
    5CHL1   C15  314   3.553   1.416   9.413
    5CHL1  H15A  315   3.603   1.326   9.455
    5CHL1  H15B  316   3.445   1.390   9.413
    5CHL1   C16  317   3.612   1.440   9.277
    5CHL1  H16A  318   3.678   1.355   9.249
    5CHL1  H16B  319   3.538   1.446   9.195
    5CHL1   C17  320   3.679   1.581   9.275
    5CHL1   H17  321   3.601   1.658   9.256
    5CHL1   C13  322   3.712   1.602   9.426
    5CHL1   C18  323   3.838   1.509   9.446
    5CHL1  H18A  324   3.859   1.513   9.555
    5CHL1  H18B  325   3.826   1.404   9.411
    5CHL1  H18C  326   3.920   1.556   9.387
    5CHL1   C12  327   3.741   1.744   9.475
    5CHL1  H12A  328   3.834   1.789   9.435
    5CHL1  H12B  329   3.666   1.809   9.425
    5CHL1   C11  330   3.743   1.750   9.633
    5CHL1  H11A  331   3.838   1.705   9.670
    5CHL1  H11B  332   3.742   1.857   9.665
    5CHL1    C9  333   3.627   1.670   9.704
    5CHL1    H9  334   3.536   1.727   9.677
    5CHL1   C10  335   3.641   1.644   9.861
    5CHL1   C19  336   3.780   1.587   9.891
    5CHL1  H19A  337   3.869   1.642   9.856
    5CHL1  H19B  338   3.794   1.583  10.001
    5CHL1  H19C  339   3.786   1.484   9.849
    5CHL1    C1  340   3.637   1.782   9.921
    5CHL1   H1A  341   3.733   1.833   9.895
    5CHL1   H1B  342   3.549   1.828   9.871
    5CHL1    C2  343   3.612   1.797  10.074
    5CHL1   H2A  344   3.585   1.903  10.096
    5CHL1   H2B  345   3.699   1.760  10.131
    5CHL1   C20  346   3.786   1.609   9.166
    5CHL1   H20  347   3.879   1.558   9.197
    5CHL1   C21  348   3.827   1.756   9.145
    5CHL1  H21A  349   3.895   1.758   9.057
    5CHL1  H21B  350   3.891   1.785   9.231
    5CHL1  H21C  351   3.750   1.833   9.123
    5CHL1   C22  352   3.750   1.559   9.022
    5CHL1  H22A  353   3.704   1.458   9.035
    5CHL1  H22B  354   3.681   1.623   8.963
    5CHL1   C23  355   3.872   1.522   8.930
    5CHL1  H23A  356   3.935   1.607   8.895
    5CHL1  H23B  357   3.933   1.443   8.980
    5CHL1   C24  358   3.826   1.451   8.804
    5CHL1  H24A  359   3.753   1.371   8.831
    5CHL1  H24B  360   3.772   1.524   8.740
    5CHL1   C25  361   3.944   1.397   8.716
    5CHL1   H25  362   3.997   1.322   8.779
    5CHL1   C26  363   3.883   1.323   8.600
    5CHL1  H26A  364   3.815   1.243   8.635
    5CHL1  H26B  365   3.818   1.392   8.541
    5CHL1  H26C  366   3.967   1.289   8.535
    5CHL1   C27  367   4.043   1.506   8.667
    5CHL1  H27A  368   4.104   1.546   8.751
    5CHL1  H27B  369   4.113   1.462   8.593
    5CHL1  H27C  370   3.982   1.582   8.613
    6CHL1    C3  371   1.227   6.034  10.401
    6CHL1    H3  372   1.128   5.992  10.378
    6CHL1    O3  373   1.233   6.077  10.538
    6CHL1   H3'  374   1.313   6.038  10.574
    6CHL1    C4  375   1.323   5.919  10.381
    6CHL1   H4A  376   1.417   5.951  10.432
    6CHL1   H4B  377   1.276   5.834  10.433
    6CHL1    C5  378   1.346   5.883  10.234
    6CHL1    C6  379   1.343   5.755  10.193
    6CHL1    H6  380   1.323   5.674  10.265
    6CHL1    C7  381   1.382   5.708  10.054
    6CHL1   H7A  382   1.465   5.635  10.065
    6CHL1   H7B  383   1.305   5.649  10.000
    6CHL1    C8  384   1.433   5.822   9.965
    6CHL1    H8  385   1.541   5.830   9.990
    6CHL1   C14  386   1.427   5.792   9.815
    6CHL1   H14  387   1.318   5.795   9.795
    6CHL1   C15  388   1.492   5.658   9.779
    6CHL1  H15A  389   1.588   5.649   9.833
    6CHL1  H15B  390   1.426   5.569   9.787
    6CHL1   C16  391   1.516   5.664   9.634
    6CHL1  H16A  392   1.621   5.643   9.605
    6CHL1  H16B  393   1.456   5.594   9.572
    6CHL1   C17  394   1.478   5.814   9.587
    6CHL1   H17  395   1.368   5.808   9.573
    6CHL1   C13  396   1.496   5.891   9.725
    6CHL1   C18  397   1.645   5.908   9.757
    6CHL1  H18A  398   1.690   5.970   9.677
    6CHL1  H18B  399   1.658   5.966   9.852
    6CHL1  H18C  400   1.707   5.817   9.767
    6CHL1   C12  401   1.431   6.031   9.747
    6CHL1  H12A  402   1.488   6.107   9.688
    6CHL1  H12B  403   1.325   6.031   9.712
    6CHL1   C11  404   1.426   6.068   9.902
    6CHL1  H11A  405   1.530   6.098   9.922
    6CHL1  H11B  406   1.372   6.164   9.912
    6CHL1    C9  407   1.366   5.956   9.996
    6CHL1    H9  408   1.256   5.948   9.981
    6CHL1   C10  409   1.376   6.003  10.141
    6CHL1   C19  410   1.516   6.062  10.184
    6CHL1  H19A  411   1.523   6.079  10.294
    6CHL1  H19B  412   1.599   5.997  10.148
    6CHL1  H19C  413   1.543   6.157  10.133
    6CHL1    C1  414   1.261   6.106  10.166
    6CHL1   H1A  415   1.276   6.192  10.098
    6CHL1   H1B  416   1.164   6.059  10.139
    6CHL1    C2  417   1.253   6.152  10.315
    6CHL1   H2A  418   1.171   6.227  10.322
    6CHL1   H2B  419   1.353   6.195  10.341
    6CHL1   C20  420   1.551   5.870   9.461
    6CHL1   H20  421   1.651   5.898   9.502
    6CHL1   C21  422   1.477   5.997   9.411
    6CHL1  H21A  423   1.373   5.979   9.377
    6CHL1  H21B  424   1.531   6.051   9.330
    6CHL1  H21C  425   1.468   6.077   9.488
    6CHL1   C22  426   1.592   5.783   9.342
    6CHL1  H22A  427   1.659   5.850   9.284
    6CHL1  H22B  428   1.648   5.695   9.379
    6CHL1   C23  429   1.478   5.734   9.251
    6CHL1  H23A  430   1.430   5.647   9.301
    6CHL1  H23B  431   1.403   5.816   9.244
    6CHL1   C24  432   1.528   5.691   9.115
    6CHL1  H24A  433   1.566   5.787   9.073
    6CHL1  H24B  434   1.607   5.613   9.115
    6CHL1   C25  435   1.413   5.648   9.015
    6CHL1   H25  436   1.317   5.702   9.028
    6CHL1   C26  437   1.461   5.672   8.871
    6CHL1  H26A  438   1.386   5.640   8.796
    6CHL1  H26B  439   1.478   5.781   8.857
    6CHL1  H26C  440   1.557   5.618   8.860
    6CHL1   C27  441   1.372   5.500   9.036
    6CHL1  H27A  442   1.323   5.458   8.945
    6CHL1  H27B  443   1.468   5.451   9.061
    6CHL1  H27C  444   1.297   5.509   9.117
    7CHL1    C3  445   4.292   2.369  10.423
    7CHL1    H3  446   4.309   2.260  10.417
    7CHL1    O3  447   4.272   2.393  10.562
    7CHL1   H3'  448   4.267   2.488  10.575
    7CHL1    C4  449   4.419   2.440  10.370
    7CHL1   H4A  450   4.418   2.548  10.394
    7CHL1   H4B  451   4.504   2.393  10.426
    7CHL1    C5  452   4.447   2.423  10.225
    7CHL1    C6  453   4.573   2.380  10.180
    7CHL1    H6  454   4.653   2.362  10.253
    7CHL1    C7  455   4.613   2.377  10.039
    7CHL1   H7A  456   4.709   2.426  10.012
    7CHL1   H7B  457   4.644   2.271  10.029
    7CHL1    C8  458   4.503   2.427   9.948
    7CHL1    H8  459   4.501   2.538   9.943
    7CHL1   C14  460   4.531   2.378   9.807
    7CHL1   H14  461   4.528   2.267   9.805
    7CHL1   C15  462   4.662   2.412   9.732
    7CHL1  H15A  463   4.693   2.517   9.752
    7CHL1  H15B  464   4.740   2.349   9.780
    7CHL1   C16  465   4.639   2.398   9.580
    7CHL1  H16A  466   4.668   2.495   9.534
    7CHL1  H16B  467   4.707   2.320   9.540
    7CHL1   C17  468   4.492   2.360   9.571
    7CHL1   H17  469   4.503   2.251   9.588
    7CHL1   C13  470   4.428   2.421   9.696
    7CHL1   C18  471   4.421   2.571   9.682
    7CHL1  H18A  472   4.353   2.598   9.598
    7CHL1  H18B  473   4.370   2.612   9.772
    7CHL1  H18C  474   4.517   2.625   9.667
    7CHL1   C12  475   4.289   2.377   9.735
    7CHL1  H12A  476   4.214   2.419   9.665
    7CHL1  H12B  477   4.296   2.267   9.721
    7CHL1   C11  478   4.253   2.399   9.883
    7CHL1  H11A  479   4.214   2.503   9.889
    7CHL1  H11B  480   4.168   2.334   9.913
    7CHL1    C9  481   4.365   2.378   9.992
    7CHL1    H9  482   4.387   2.269   9.999
    7CHL1   C10  483   4.326   2.441  10.134
    7CHL1   C19  484   4.290   2.589  10.126
    7CHL1  H19A  485   4.369   2.648  10.075
    7CHL1  H19B  486   4.190   2.601  10.080
    7CHL1  H19C  487   4.274   2.631  10.228
    7CHL1    C1  488   4.198   2.367  10.186
    7CHL1   H1A  489   4.113   2.399  10.123
    7CHL1   H1B  490   4.215   2.258  10.177
    7CHL1    C2  491   4.168   2.398  10.336
    7CHL1   H2A  492   4.086   2.331  10.370
    7CHL1   H2B  493   4.144   2.506  10.330
    7CHL1   C20  494   4.433   2.381   9.430
    7CHL1   H20  495   4.398   2.486   9.419
    7CHL1   C21  496   4.325   2.280   9.394
    7CHL1  H21A  497   4.289   2.289   9.289
    7CHL1  H21B  498   4.234   2.285   9.458
    7CHL1  H21C  499   4.372   2.180   9.388
    7CHL1   C22  500   4.546   2.360   9.321
    7CHL1  H22A  501   4.622   2.438   9.339
    7CHL1  H22B  502   4.598   2.266   9.352
    7CHL1   C23  503   4.506   2.341   9.172
    7CHL1  H23A  504   4.458   2.241   9.168
    7CHL1  H23B  505   4.432   2.419   9.144
    7CHL1   C24  506   4.627   2.361   9.078
    7CHL1  H24A  507   4.681   2.457   9.093
    7CHL1  H24B  508   4.696   2.275   9.091
    7CHL1   C25  509   4.586   2.357   8.923
    7CHL1   H25  510   4.507   2.434   8.912
    7CHL1   C26  511   4.707   2.385   8.832
    7CHL1  H26A  512   4.777   2.298   8.827
    7CHL1  H26B  513   4.668   2.410   8.732
    7CHL1  H26C  514   4.768   2.473   8.862
    7CHL1   C27  515   4.531   2.223   8.880
    7CHL1  H27A  516   4.576   2.128   8.915
    7CHL1  H27B  517   4.428   2.221   8.921
    7CHL1  H27C  518   4.521   2.223   8.769
    8CHL1    C3  519   4.939   3.756  10.427
    8CHL1    H3  520   4.985   3.852  10.397
    8CHL1    O3  521   4.986   3.722  10.559
    8CHL1   H3'  522   4.932   3.646  10.583
    8CHL1    C4  523   4.783   3.791  10.413
    8CHL1   H4A  524   4.713   3.714  10.452
    8CHL1   H4B  525   4.768   3.879  10.478
    8CHL1    C5  526   4.751   3.832  10.273
    8CHL1    C6  527   4.711   3.954  10.241
    8CHL1    H6  528   4.691   4.023  10.324
    8CHL1    C7  529   4.676   3.997  10.099
    8CHL1   H7A  530   4.595   4.073  10.090
    8CHL1   H7B  531   4.766   4.051  10.061
    8CHL1    C8  532   4.660   3.873  10.002
    8CHL1    H8  533   4.565   3.825  10.034
    8CHL1   C14  534   4.648   3.921   9.858
    8CHL1   H14  535   4.748   3.967   9.841
    8CHL1   C15  536   4.554   4.037   9.826
    8CHL1  H15A  537   4.454   4.033   9.874
    8CHL1  H15B  538   4.601   4.130   9.863
    8CHL1   C16  539   4.542   4.040   9.676
    8CHL1  H16A  540   4.436   4.029   9.647
    8CHL1  H16B  541   4.594   4.131   9.639
    8CHL1   C17  542   4.625   3.919   9.626
    8CHL1   H17  543   4.728   3.955   9.608
    8CHL1   C13  544   4.629   3.818   9.747
    8CHL1   C18  545   4.498   3.730   9.752
    8CHL1  H18A  546   4.405   3.784   9.724
    8CHL1  H18B  547   4.511   3.647   9.680
    8CHL1  H18C  548   4.498   3.685   9.854
    8CHL1   C12  549   4.756   3.728   9.767
    8CHL1  H12A  550   4.731   3.642   9.701
    8CHL1  H12B  551   4.850   3.771   9.726
    8CHL1   C11  552   4.763   3.665   9.910
    8CHL1  H11A  553   4.676   3.599   9.930
    8CHL1  H11B  554   4.852   3.600   9.922
    8CHL1    C9  555   4.778   3.778  10.020
    8CHL1    H9  556   4.865   3.840   9.991
    8CHL1   C10  557   4.797   3.726  10.169
    8CHL1   C19  558   4.700   3.612  10.188
    8CHL1  H19A  559   4.601   3.648  10.153
    8CHL1  H19B  560   4.724   3.528  10.119
    8CHL1  H19C  561   4.694   3.568  10.290
    8CHL1    C1  562   4.943   3.668  10.187
    8CHL1   H1A  563   4.946   3.577  10.123
    8CHL1   H1B  564   5.014   3.739  10.139
    8CHL1    C2  565   4.986   3.642  10.335
    8CHL1   H2A  566   5.096   3.630  10.325
    8CHL1   H2B  567   4.938   3.545  10.360
    8CHL1   C20  568   4.571   3.865   9.489
    8CHL1   H20  569   4.480   3.802   9.502
    8CHL1   C21  570   4.686   3.777   9.435
    8CHL1  H21A  571   4.704   3.691   9.503
    8CHL1  H21B  572   4.773   3.844   9.417
    8CHL1  H21C  573   4.647   3.729   9.343
    8CHL1   C22  574   4.534   3.971   9.387
    8CHL1  H22A  575   4.465   4.045   9.434
    8CHL1  H22B  576   4.625   4.026   9.356
    8CHL1   C23  577   4.467   3.923   9.260
    8CHL1  H23A  578   4.529   3.857   9.196
    8CHL1  H23B  579   4.372   3.868   9.279
    8CHL1   C24  580   4.416   4.040   9.164
    8CHL1  H24A  581   4.347   3.990   9.093
    8CHL1  H24B  582   4.350   4.108   9.221
    8CHL1   C25  583   4.524   4.116   9.087
    8CHL1   H25  584   4.615   4.121   9.151
    8CHL1   C26  585   4.564   4.056   8.957
    8CHL1  H26A  586   4.470   4.050   8.899
    8CHL1  H26B  587   4.631   4.124   8.900
    8CHL1  H26C  588   4.611   3.956   8.967
    8CHL1   C27  589   4.476   4.259   9.054
    8CHL1  H27A  590   4.548   4.301   8.981
    8CHL1  H27B  591   4.386   4.248   8.989
    8CHL1  H27C  592   4.451   4.319   9.144
    9CHL1    C3  593   0.972   0.166  10.187
    9CHL1    H3  594   1.030   0.260  10.184
    9CHL1    O3  595   0.959   0.120  10.325
    9CHL1   H3'  596   0.916   0.035  10.329
    9CHL1    C4  597   0.823   0.187  10.141
    9CHL1   H4A  598   0.772   0.092  10.166
    9CHL1   H4B  599   0.768   0.252  10.212
    9CHL1    C5  600   0.806   0.210   9.994
    9CHL1    C6  601   0.758   0.329   9.956
    9CHL1    H6  602   0.702   0.401  10.017
    9CHL1    C7  603   0.743   0.361   9.809
    9CHL1   H7A  604   0.651   0.422   9.801
    9CHL1   H7B  605   0.838   0.410   9.778
    9CHL1    C8  606   0.740   0.233   9.723
    9CHL1    H8  607   0.648   0.178   9.752
    9CHL1   C14  608   0.743   0.278   9.577
    9CHL1   H14  609   0.840   0.333   9.575
    9CHL1   C15  610   0.639   0.374   9.524
    9CHL1  H15A  611   0.537   0.340   9.550
    9CHL1  H15B  612   0.666   0.476   9.559
    9CHL1   C16  613   0.656   0.361   9.365
    9CHL1  H16A  614   0.554   0.345   9.323
    9CHL1  H16B  615   0.703   0.451   9.322
    9CHL1   C17  616   0.743   0.233   9.341
    9CHL1   H17  617   0.846   0.272   9.328
    9CHL1   C13  618   0.760   0.164   9.482
    9CHL1   C18  619   0.638   0.069   9.498
    9CHL1  H18A  620   0.646  -0.023   9.437
    9CHL1  H18B  621   0.615   0.029   9.599
    9CHL1  H18C  622   0.550   0.128   9.466
    9CHL1   C12  623   0.898   0.095   9.511
    9CHL1  H12A  624   0.914   0.023   9.429
    9CHL1  H12B  625   0.984   0.165   9.503
    9CHL1   C11  626   0.893   0.033   9.649
    9CHL1  H11A  627   0.813  -0.044   9.649
    9CHL1  H11B  628   0.990  -0.013   9.678
    9CHL1    C9  629   0.860   0.144   9.756
    9CHL1    H9  630   0.939   0.221   9.741
    9CHL1   C10  631   0.861   0.102   9.905
    9CHL1   C19  632   0.779  -0.022   9.921
    9CHL1  H19A  633   0.669  -0.007   9.928
    9CHL1  H19B  634   0.795  -0.100   9.844
    9CHL1  H19C  635   0.805  -0.057  10.023
    9CHL1    C1  636   1.010   0.077   9.950
    9CHL1   H1A  637   1.040  -0.016   9.897
    9CHL1   H1B  638   1.069   0.167   9.922
    9CHL1    C2  639   1.043   0.061  10.109
    9CHL1   H2A  640   1.153   0.061  10.127
    9CHL1   H2B  641   1.009  -0.044  10.126
    9CHL1   C20  642   0.701   0.151   9.218
    9CHL1   H20  643   0.602   0.104   9.235
    9CHL1   C21  644   0.813   0.049   9.187
    9CHL1  H21A  645   0.799  -0.029   9.265
    9CHL1  H21B  646   0.911   0.100   9.199
    9CHL1  H21C  647   0.796   0.014   9.083
    9CHL1   C22  648   0.668   0.225   9.086
    9CHL1  H22A  649   0.654   0.148   9.007
    9CHL1  H22B  650   0.574   0.284   9.092
    9CHL1   C23  651   0.773   0.326   9.024
    9CHL1  H23A  652   0.812   0.404   9.092
    9CHL1  H23B  653   0.859   0.257   9.005
    9CHL1   C24  654   0.701   0.387   8.894
    9CHL1  H24A  655   0.638   0.315   8.837
    9CHL1  H24B  656   0.634   0.467   8.934
    9CHL1   C25  657   0.800   0.450   8.798
    9CHL1   H25  658   0.875   0.505   8.859
    9CHL1   C26  659   0.865   0.336   8.701
    9CHL1  H26A  660   0.928   0.384   8.623
    9CHL1  H26B  661   0.914   0.259   8.764
    9CHL1  H26C  662   0.779   0.289   8.648
    9CHL1   C27  663   0.728   0.557   8.712
    9CHL1  H27A  664   0.787   0.603   8.629
    9CHL1  H27B  665   0.642   0.505   8.666
    9CHL1  H27C  666   0.701   0.637   8.784
   10CHL1    C3  667   6.772   4.140  10.106
   10CHL1    H3  668   6.713   4.048  10.125
   10CHL1    O3  669   6.813   4.191  10.231
   10CHL1   H3'  670   6.823   4.286  10.229
   10CHL1    C4  671   6.886   4.095  10.015
   10CHL1   H4A  672   6.960   4.177  10.003
   10CHL1   H4B  673   6.939   4.014  10.069
   10CHL1    C5  674   6.841   4.048   9.881
   10CHL1    C6  675   6.883   3.930   9.835
   10CHL1    H6  676   6.956   3.861   9.879
   10CHL1    C7  677   6.839   3.878   9.699
   10CHL1   H7A  678   6.925   3.854   9.632
   10CHL1   H7B  679   6.779   3.785   9.715
   10CHL1    C8  680   6.763   3.984   9.607
   10CHL1    H8  681   6.828   4.061   9.560
   10CHL1   C14  682   6.688   3.926   9.491
   10CHL1   H14  683   6.620   3.856   9.543
   10CHL1   C15  684   6.770   3.836   9.397
   10CHL1  H15A  685   6.848   3.903   9.354
   10CHL1  H15B  686   6.812   3.742   9.440
   10CHL1   C16  687   6.669   3.805   9.287
   10CHL1  H16A  688   6.721   3.812   9.189
   10CHL1  H16B  689   6.619   3.707   9.306
   10CHL1   C17  690   6.559   3.911   9.301
   10CHL1   H17  691   6.479   3.850   9.347
   10CHL1   C13  692   6.607   4.019   9.403
   10CHL1   C18  693   6.693   4.121   9.339
   10CHL1  H18A  694   6.746   4.070   9.256
   10CHL1  H18B  695   6.631   4.192   9.280
   10CHL1  H18C  696   6.763   4.181   9.401
   10CHL1   C12  697   6.506   4.084   9.497
   10CHL1  H12A  698   6.436   4.153   9.445
   10CHL1  H12B  699   6.430   4.010   9.527
   10CHL1   C11  700   6.574   4.148   9.615
   10CHL1  H11A  701   6.633   4.237   9.583
   10CHL1  H11B  702   6.500   4.195   9.683
   10CHL1    C9  703   6.658   4.060   9.700
   10CHL1    H9  704   6.588   3.988   9.747
   10CHL1   C10  705   6.734   4.128   9.816
   10CHL1   C19  706   6.821   4.248   9.755
   10CHL1  H19A  707   6.890   4.286   9.834
   10CHL1  H19B  708   6.886   4.235   9.666
   10CHL1  H19C  709   6.749   4.331   9.739
   10CHL1    C1  710   6.627   4.182   9.910
   10CHL1   H1A  711   6.574   4.265   9.859
   10CHL1   H1B  712   6.553   4.106   9.944
   10CHL1    C2  713   6.687   4.244  10.036
   10CHL1   H2A  714   6.610   4.274  10.110
   10CHL1   H2B  715   6.749   4.332  10.012
   10CHL1   C20  716   6.500   3.956   9.160
   10CHL1   H20  717   6.579   4.008   9.101
   10CHL1   C21  718   6.375   4.053   9.186
   10CHL1  H21A  719   6.404   4.156   9.215
   10CHL1  H21B  720   6.317   3.996   9.261
   10CHL1  H21C  721   6.299   4.059   9.105
   10CHL1   C22  722   6.465   3.839   9.066
   10CHL1  H22A  723   6.560   3.782   9.055
   10CHL1  H22B  724   6.396   3.767   9.114
   10CHL1   C23  725   6.406   3.880   8.932
   10CHL1  H23A  726   6.313   3.940   8.924
   10CHL1  H23B  727   6.486   3.937   8.879
   10CHL1   C24  728   6.380   3.744   8.846
   10CHL1  H24A  729   6.478   3.693   8.854
   10CHL1  H24B  730   6.303   3.683   8.898
   10CHL1   C25  731   6.311   3.768   8.706
   10CHL1   H25  732   6.216   3.821   8.728
   10CHL1   C26  733   6.387   3.858   8.606
   10CHL1  H26A  734   6.479   3.803   8.576
   10CHL1  H26B  735   6.312   3.876   8.526
   10CHL1  H26C  736   6.408   3.957   8.650
   10CHL1   C27  737   6.286   3.629   8.645
   10CHL1  H27A  738   6.226   3.642   8.553
   10CHL1  H27B  739   6.382   3.574   8.640
   10CHL1  H27C  740   6.222   3.563   8.708
   11CHL1    C3  741   2.486   0.436  10.105
   11CHL1    H3  742   2.580   0.494  10.120
   11CHL1    O3  743   2.416   0.451  10.228
   11CHL1   H3'  744   2.478   0.434  10.299
   11CHL1    C4  745   2.417   0.499   9.983
   11CHL1   H4A  746   2.320   0.444   9.986
   11CHL1   H4B  747   2.401   0.607  10.002
   11CHL1    C5  748   2.487   0.465   9.854
   11CHL1    C6  749   2.513   0.572   9.775
   11CHL1    H6  750   2.474   0.670   9.806
   11CHL1    C7  751   2.582   0.562   9.641
   11CHL1   H7A  752   2.535   0.636   9.573
   11CHL1   H7B  753   2.693   0.572   9.645
   11CHL1    C8  754   2.577   0.416   9.588
   11CHL1    H8  755   2.473   0.397   9.556
   11CHL1   C14  756   2.659   0.404   9.463
   11CHL1   H14  757   2.762   0.430   9.496
   11CHL1   C15  758   2.627   0.498   9.346
   11CHL1  H15A  759   2.517   0.511   9.343
   11CHL1  H15B  760   2.670   0.600   9.359
   11CHL1   C16  761   2.681   0.425   9.223
   11CHL1  H16A  762   2.592   0.408   9.159
   11CHL1  H16B  763   2.759   0.484   9.170
   11CHL1   C17  764   2.732   0.289   9.273
   11CHL1   H17  765   2.839   0.295   9.304
   11CHL1   C13  766   2.658   0.267   9.403
   11CHL1   C18  767   2.517   0.217   9.374
   11CHL1  H18A  768   2.458   0.277   9.301
   11CHL1  H18B  769   2.514   0.112   9.337
   11CHL1  H18C  770   2.449   0.223   9.461
   11CHL1   C12  771   2.727   0.172   9.507
   11CHL1  H12A  772   2.725   0.064   9.479
   11CHL1  H12B  773   2.834   0.199   9.522
   11CHL1   C11  774   2.655   0.176   9.647
   11CHL1  H11A  775   2.574   0.100   9.645
   11CHL1  H11B  776   2.731   0.118   9.705
   11CHL1    C9  777   2.619   0.318   9.696
   11CHL1    H9  778   2.720   0.355   9.725
   11CHL1   C10  779   2.534   0.329   9.827
   11CHL1   C19  780   2.402   0.241   9.807
   11CHL1  H19A  781   2.359   0.253   9.705
   11CHL1  H19B  782   2.420   0.133   9.826
   11CHL1  H19C  783   2.317   0.267   9.873
   11CHL1    C1  784   2.607   0.270   9.953
   11CHL1   H1A  785   2.621   0.161   9.936
   11CHL1   H1B  786   2.705   0.322   9.958
   11CHL1    C2  787   2.529   0.289  10.085
   11CHL1   H2A  788   2.584   0.247  10.172
   11CHL1   H2B  789   2.436   0.232  10.068
   11CHL1   C20  790   2.733   0.187   9.157
   11CHL1   H20  791   2.631   0.193   9.114
   11CHL1   C21  792   2.772   0.050   9.212
   11CHL1  H21A  793   2.831   0.056   9.306
   11CHL1  H21B  794   2.827  -0.009   9.136
   11CHL1  H21C  795   2.686  -0.011   9.247
   11CHL1   C22  796   2.842   0.219   9.042
   11CHL1  H22A  797   2.836   0.329   9.030
   11CHL1  H22B  798   2.944   0.192   9.077
   11CHL1   C23  799   2.787   0.159   8.912
   11CHL1  H23A  800   2.861   0.190   8.836
   11CHL1  H23B  801   2.781   0.048   8.916
   11CHL1   C24  802   2.655   0.224   8.858
   11CHL1  H24A  803   2.582   0.204   8.939
   11CHL1  H24B  804   2.678   0.332   8.850
   11CHL1   C25  805   2.604   0.170   8.723
   11CHL1   H25  806   2.511   0.229   8.710
   11CHL1   C26  807   2.692   0.194   8.606
   11CHL1  H26A  808   2.781   0.127   8.603
   11CHL1  H26B  809   2.643   0.173   8.509
   11CHL1  H26C  810   2.723   0.300   8.607
   11CHL1   C27  811   2.555   0.028   8.736
   11CHL1  H27A  812   2.498  -0.001   8.645
   11CHL1  H27B  813   2.638  -0.046   8.738
   11CHL1  H27C  814   2.486   0.013   8.821
   12CHL1    C3  815   5.736   3.309  10.317
   12CHL1    H3  816   5.784   3.405  10.288
   12CHL1    O3  817   5.793   3.274  10.445
   12CHL1   H3'  818   5.740   3.203  10.483
   12CHL1    C4  819   5.584   3.330  10.330
   12CHL1   H4A  820   5.542   3.230  10.353
   12CHL1   H4B  821   5.567   3.389  10.423
   12CHL1    C5  822   5.516   3.392  10.216
   12CHL1    C6  823   5.439   3.501  10.228
   12CHL1    H6  824   5.422   3.543  10.328
   12CHL1    C7  825   5.369   3.556  10.108
   12CHL1   H7A  826   5.267   3.592  10.133
   12CHL1   H7B  827   5.424   3.645  10.070
   12CHL1    C8  828   5.365   3.459   9.982
   12CHL1    H8  829   5.289   3.380   9.999
   12CHL1   C14  830   5.334   3.529   9.854
   12CHL1   H14  831   5.415   3.603   9.838
   12CHL1   C15  832   5.205   3.613   9.855
   12CHL1  H15A  833   5.127   3.548   9.901
   12CHL1  H15B  834   5.217   3.698   9.925
   12CHL1   C16  835   5.175   3.634   9.706
   12CHL1  H16A  836   5.073   3.601   9.678
   12CHL1  H16B  837   5.183   3.743   9.687
   12CHL1   C17  838   5.288   3.553   9.629
   12CHL1   H17  839   5.371   3.627   9.628
   12CHL1   C13  840   5.328   3.440   9.724
   12CHL1   C18  841   5.237   3.318   9.723
   12CHL1  H18A  842   5.254   3.265   9.626
   12CHL1  H18B  843   5.267   3.247   9.803
   12CHL1  H18C  844   5.133   3.354   9.738
   12CHL1   C12  845   5.480   3.386   9.702
   12CHL1  H12A  846   5.482   3.314   9.617
   12CHL1  H12B  847   5.542   3.477   9.689
   12CHL1   C11  848   5.525   3.318   9.833
   12CHL1  H11A  849   5.468   3.224   9.849
   12CHL1  H11B  850   5.631   3.284   9.824
   12CHL1    C9  851   5.501   3.391   9.974
   12CHL1    H9  852   5.579   3.470   9.971
   12CHL1   C10  853   5.539   3.305  10.089
   12CHL1   C19  854   5.437   3.182  10.106
   12CHL1  H19A  855   5.465   3.124  10.197
   12CHL1  H19B  856   5.329   3.206  10.117
   12CHL1  H19C  857   5.444   3.109  10.023
   12CHL1    C1  858   5.690   3.254  10.082
   12CHL1   H1A  859   5.700   3.170  10.009
   12CHL1   H1B  860   5.751   3.345  10.066
   12CHL1    C2  861   5.753   3.204  10.213
   12CHL1   H2A  862   5.863   3.207  10.200
   12CHL1   H2B  863   5.725   3.105  10.257
   12CHL1   C20  864   5.248   3.517   9.487
   12CHL1   H20  865   5.165   3.443   9.493
   12CHL1   C21  866   5.360   3.455   9.402
   12CHL1  H21A  867   5.318   3.426   9.303
   12CHL1  H21B  868   5.384   3.356   9.448
   12CHL1  H21C  869   5.449   3.521   9.392
   12CHL1   C22  870   5.199   3.649   9.415
   12CHL1  H22A  871   5.112   3.696   9.467
   12CHL1  H22B  872   5.275   3.729   9.405
   12CHL1   C23  873   5.132   3.608   9.282
   12CHL1  H23A  874   5.197   3.558   9.207
   12CHL1  H23B  875   5.063   3.524   9.306
   12CHL1   C24  876   5.026   3.709   9.229
   12CHL1  H24A  877   4.944   3.737   9.299
   12CHL1  H24B  878   5.081   3.800   9.197
   12CHL1   C25  879   4.961   3.656   9.100
   12CHL1   H25  880   4.919   3.558   9.132
   12CHL1   C26  881   4.847   3.748   9.059
   12CHL1  H26A  882   4.776   3.775   9.140
   12CHL1  H26B  883   4.890   3.846   9.027
   12CHL1  H26C  884   4.785   3.724   8.970
   12CHL1   C27  885   5.043   3.636   8.968
   12CHL1  H27A  886   4.995   3.593   8.877
   12CHL1  H27B  887   5.082   3.738   8.946
   12CHL1  H27C  888   5.134   3.577   8.989
   13CHL1    C3  889   4.352   5.464   9.817
   13CHL1    H3  890   4.305   5.364   9.804
   13CHL1    O3  891   4.408   5.473   9.947
   13CHL1   H3'  892   4.444   5.562   9.948
   13CHL1    C4  893   4.466   5.460   9.711
   13CHL1   H4A  894   4.532   5.546   9.737
   13CHL1   H4B  895   4.530   5.370   9.725
   13CHL1    C5  896   4.411   5.465   9.570
   13CHL1    C6  897   4.458   5.380   9.478
   13CHL1    H6  898   4.548   5.320   9.499
   13CHL1    C7  899   4.407   5.386   9.339
   13CHL1   H7A  900   4.501   5.382   9.279
   13CHL1   H7B  901   4.345   5.299   9.308
   13CHL1    C8  902   4.329   5.517   9.307
   13CHL1    H8  903   4.404   5.598   9.292
   13CHL1   C14  904   4.259   5.510   9.174
   13CHL1   H14  905   4.192   5.424   9.196
   13CHL1   C15  906   4.333   5.463   9.052
   13CHL1  H15A  907   4.437   5.501   9.060
   13CHL1  H15B  908   4.342   5.352   9.058
   13CHL1   C16  909   4.252   5.511   8.929
   13CHL1  H16A  910   4.307   5.578   8.860
   13CHL1  H16B  911   4.209   5.420   8.882
   13CHL1   C17  912   4.138   5.592   8.995
   13CHL1   H17  913   4.051   5.523   9.010
   13CHL1   C13  914   4.183   5.633   9.136
   13CHL1   C18  915   4.283   5.747   9.116
   13CHL1  H18A  916   4.344   5.777   9.204
   13CHL1  H18B  917   4.361   5.714   9.044
   13CHL1  H18C  918   4.242   5.844   9.081
   13CHL1   C12  919   4.070   5.662   9.239
   13CHL1  H12A  920   4.013   5.754   9.213
   13CHL1  H12B  921   4.006   5.571   9.239
   13CHL1   C11  922   4.138   5.684   9.372
   13CHL1  H11A  923   4.207   5.770   9.358
   13CHL1  H11B  924   4.063   5.708   9.450
   13CHL1    C9  925   4.225   5.554   9.416
   13CHL1    H9  926   4.165   5.460   9.423
   13CHL1   C10  927   4.303   5.579   9.550
   13CHL1   C19  928   4.376   5.724   9.547
   13CHL1  H19A  929   4.436   5.728   9.453
   13CHL1  H19B  930   4.300   5.805   9.543
   13CHL1  H19C  931   4.447   5.744   9.630
   13CHL1    C1  932   4.201   5.586   9.661
   13CHL1   H1A  933   4.124   5.665   9.660
   13CHL1   H1B  934   4.149   5.489   9.645
   13CHL1    C2  935   4.253   5.580   9.802
   13CHL1   H2A  936   4.171   5.569   9.876
   13CHL1   H2B  937   4.298   5.677   9.831
   13CHL1   C20  938   4.094   5.706   8.898
   13CHL1   H20  939   4.171   5.784   8.881
   13CHL1   C21  940   3.962   5.768   8.954
   13CHL1  H21A  941   3.993   5.832   9.039
   13CHL1  H21B  942   3.897   5.685   8.988
   13CHL1  H21C  943   3.902   5.835   8.889
   13CHL1   C22  944   4.059   5.654   8.755
   13CHL1  H22A  945   4.146   5.601   8.711
   13CHL1  H22B  946   3.981   5.574   8.758
   13CHL1   C23  947   4.036   5.770   8.660
   13CHL1  H23A  948   3.945   5.827   8.691
   13CHL1  H23B  949   4.117   5.846   8.663
   13CHL1   C24  950   4.006   5.738   8.510
   13CHL1  H24A  951   4.092   5.679   8.473
   13CHL1  H24B  952   3.911   5.680   8.507
   13CHL1   C25  953   3.978   5.856   8.421
   13CHL1   H25  954   3.888   5.913   8.449
   13CHL1   C26  955   4.090   5.963   8.434
   13CHL1  H26A  956   4.191   5.918   8.432
   13CHL1  H26B  957   4.071   6.046   8.363
   13CHL1  H26C  958   4.094   6.005   8.537
   13CHL1   C27  959   3.964   5.812   8.272
   13CHL1  H27A  960   4.010   5.886   8.203
   13CHL1  H27B  961   4.020   5.717   8.264
   13CHL1  H27C  962   3.856   5.791   8.258
   14CHL1    C3  963   4.258   1.893  10.316
   14CHL1    H3  964   4.313   1.990  10.315
   14CHL1    O3  965   4.236   1.861  10.451
   14CHL1   H3'  966   4.212   1.768  10.451
   14CHL1    C4  967   4.122   1.896  10.246
   14CHL1   H4A  968   4.057   1.809  10.270
   14CHL1   H4B  969   4.058   1.979  10.284
   14CHL1    C5  970   4.138   1.913  10.097
   14CHL1    C6  971   4.062   2.003  10.032
   14CHL1    H6  972   3.990   2.064  10.089
   14CHL1    C7  973   4.080   2.024   9.885
   14CHL1   H7A  974   3.985   2.047   9.832
   14CHL1   H7B  975   4.150   2.110   9.872
   14CHL1    C8  976   4.152   1.905   9.807
   14CHL1    H8  977   4.086   1.816   9.808
   14CHL1   C14  978   4.187   1.939   9.662
   14CHL1   H14  979   4.260   2.022   9.665
   14CHL1   C15  980   4.070   1.990   9.578
   14CHL1  H15A  981   3.986   1.918   9.584
   14CHL1  H15B  982   4.052   2.098   9.597
   14CHL1   C16  983   4.133   1.986   9.436
   14CHL1  H16A  984   4.055   1.936   9.375
   14CHL1  H16B  985   4.129   2.086   9.388
   14CHL1   C17  986   4.270   1.915   9.442
   14CHL1   H17  987   4.353   1.988   9.436
   14CHL1   C13  988   4.266   1.838   9.577
   14CHL1   C18  989   4.179   1.711   9.568
   14CHL1  H18A  990   4.127   1.679   9.661
   14CHL1  H18B  991   4.098   1.722   9.493
   14CHL1  H18C  992   4.237   1.622   9.536
   14CHL1   C12  993   4.397   1.816   9.656
   14CHL1  H12A  994   4.447   1.734   9.600
   14CHL1  H12B  995   4.462   1.906   9.656
   14CHL1   C11  996   4.364   1.766   9.801
   14CHL1  H11A  997   4.314   1.668   9.785
   14CHL1  H11B  998   4.465   1.761   9.848
   14CHL1    C9  999   4.278   1.866   9.879
   14CHL1    H9 1000   4.345   1.954   9.880
   14CHL1   C10 1001   4.244   1.822  10.030
   14CHL1   C19 1002   4.195   1.673  10.021
   14CHL1  H19A 1003   4.105   1.680   9.957
   14CHL1  H19B 1004   4.270   1.605   9.976
   14CHL1  H19C 1005   4.176   1.627  10.121
   14CHL1    C1 1006   4.385   1.825  10.112
   14CHL1   H1A 1007   4.453   1.751  10.065
   14CHL1   H1B 1008   4.424   1.926  10.089
   14CHL1    C2 1009   4.356   1.790  10.256
   14CHL1   H2A 1010   4.449   1.809  10.315
   14CHL1   H2B 1011   4.325   1.685  10.272
   14CHL1   C20 1012   4.292   1.836   9.309
   14CHL1   H20 1013   4.207   1.765   9.300
   14CHL1   C21 1014   4.423   1.754   9.315
   14CHL1  H21A 1015   4.420   1.673   9.391
   14CHL1  H21B 1016   4.514   1.818   9.322
   14CHL1  H21C 1017   4.440   1.704   9.217
   14CHL1   C22 1018   4.308   1.927   9.186
   14CHL1  H22A 1019   4.298   2.035   9.211
   14CHL1  H22B 1020   4.412   1.908   9.152
   14CHL1   C23 1021   4.209   1.907   9.068
   14CHL1  H23A 1022   4.262   1.839   8.997
   14CHL1  H23B 1023   4.121   1.858   9.117
   14CHL1   C24 1024   4.169   2.034   8.992
   14CHL1  H24A 1025   4.151   2.114   9.066
   14CHL1  H24B 1026   4.245   2.066   8.918
   14CHL1   C25 1027   4.045   2.011   8.905
   14CHL1   H25 1028   3.961   1.998   8.976
   14CHL1   C26 1029   4.010   2.144   8.818
   14CHL1  H26A 1030   3.919   2.139   8.756
   14CHL1  H26B 1031   3.978   2.227   8.885
   14CHL1  H26C 1032   4.095   2.175   8.753
   14CHL1   C27 1033   4.063   1.893   8.803
   14CHL1  H27A 1034   4.079   1.787   8.835
   14CHL1  H27B 1035   3.972   1.892   8.738
   14CHL1  H27C 1036   4.146   1.923   8.736
   15CHL1    C3 1037   4.165   0.635  10.127
   15CHL1    H3 1038   4.255   0.571  10.115
   15CHL1    O3 1039   4.113   0.626  10.261
   15CHL1   H3' 1040   4.064   0.709  10.264
   15CHL1    C4 1041   4.198   0.780  10.094
   15CHL1   H4A 1042   4.119   0.855  10.113
   15CHL1   H4B 1043   4.283   0.800  10.163
   15CHL1    C5 1044   4.258   0.786   9.956
   15CHL1    C6 1045   4.377   0.839   9.935
   15CHL1    H6 1046   4.428   0.869  10.028
   15CHL1    C7 1047   4.449   0.867   9.805
   15CHL1   H7A 1048   4.495   0.967   9.792
   15CHL1   H7B 1049   4.533   0.795   9.789
   15CHL1    C8 1050   4.353   0.850   9.688
   15CHL1    H8 1051   4.284   0.937   9.688
   15CHL1   C14 1052   4.423   0.822   9.560
   15CHL1   H14 1053   4.469   0.722   9.574
   15CHL1   C15 1054   4.554   0.906   9.527
   15CHL1  H15A 1055   4.542   1.015   9.549
   15CHL1  H15B 1056   4.638   0.865   9.587
   15CHL1   C16 1057   4.578   0.887   9.373
   15CHL1  H16A 1058   4.584   0.983   9.317
   15CHL1  H16B 1059   4.668   0.826   9.350
   15CHL1   C17 1060   4.457   0.796   9.325
   15CHL1   H17 1061   4.486   0.689   9.330
   15CHL1   C13 1062   4.343   0.823   9.421
   15CHL1   C18 1063   4.269   0.959   9.407
   15CHL1  H18A 1064   4.343   1.041   9.415
   15CHL1  H18B 1065   4.207   0.960   9.314
   15CHL1  H18C 1066   4.194   0.970   9.488
   15CHL1   C12 1067   4.243   0.711   9.436
   15CHL1  H12A 1068   4.176   0.710   9.347
   15CHL1  H12B 1069   4.295   0.613   9.431
   15CHL1   C11 1070   4.172   0.720   9.575
   15CHL1  H11A 1071   4.102   0.806   9.574
   15CHL1  H11B 1072   4.105   0.632   9.581
   15CHL1    C9 1073   4.254   0.730   9.702
   15CHL1    H9 1074   4.315   0.637   9.706
   15CHL1   C10 1075   4.168   0.738   9.839
   15CHL1   C19 1076   4.051   0.839   9.822
   15CHL1  H19A 1077   4.077   0.945   9.799
   15CHL1  H19B 1078   3.982   0.802   9.743
   15CHL1  H19C 1079   3.980   0.849   9.907
   15CHL1    C1 1080   4.115   0.596   9.871
   15CHL1   H1A 1081   4.026   0.587   9.805
   15CHL1   H1B 1082   4.194   0.525   9.840
   15CHL1    C2 1083   4.071   0.576  10.020
   15CHL1   H2A 1084   4.069   0.466  10.041
   15CHL1   H2B 1085   3.979   0.634  10.042
   15CHL1   C20 1086   4.432   0.831   9.176
   15CHL1   H20 1087   4.398   0.936   9.164
   15CHL1   C21 1088   4.312   0.751   9.133
   15CHL1  H21A 1089   4.311   0.748   9.022
   15CHL1  H21B 1090   4.221   0.807   9.164
   15CHL1  H21C 1091   4.302   0.649   9.175
   15CHL1   C22 1092   4.563   0.805   9.089
   15CHL1  H22A 1093   4.640   0.884   9.107
   15CHL1  H22B 1094   4.597   0.702   9.112
   15CHL1   C23 1095   4.534   0.804   8.939
   15CHL1  H23A 1096   4.483   0.708   8.918
   15CHL1  H23B 1097   4.461   0.882   8.907
   15CHL1   C24 1098   4.670   0.819   8.854
   15CHL1  H24A 1099   4.715   0.916   8.883
   15CHL1  H24B 1100   4.740   0.738   8.882
   15CHL1   C25 1101   4.638   0.804   8.703
   15CHL1   H25 1102   4.570   0.717   8.690
   15CHL1   C26 1103   4.567   0.924   8.641
   15CHL1  H26A 1104   4.550   0.913   8.532
   15CHL1  H26B 1105   4.471   0.947   8.692
   15CHL1  H26C 1106   4.632   1.012   8.658
   15CHL1   C27 1107   4.772   0.776   8.623
   15CHL1  H27A 1108   4.834   0.867   8.621
   15CHL1  H27B 1109   4.832   0.705   8.683
   15CHL1  H27C 1110   4.751   0.753   8.517
   16CHL1    C3 1111   5.012   1.319  10.310
   16CHL1    H3 1112   4.939   1.402  10.295
   16CHL1    O3 1113   5.032   1.297  10.445
   16CHL1   H3' 1114   5.121   1.324  10.469
   16CHL1    C4 1115   4.954   1.191  10.257
   16CHL1   H4A 1116   5.017   1.103  10.281
   16CHL1   H4B 1117   4.856   1.181  10.309
   16CHL1    C5 1118   4.935   1.192  10.104
   16CHL1    C6 1119   4.817   1.175  10.046
   16CHL1    H6 1120   4.729   1.158  10.109
   16CHL1    C7 1121   4.800   1.176   9.895
   16CHL1   H7A 1122   4.742   1.087   9.864
   16CHL1   H7B 1123   4.739   1.267   9.876
   16CHL1    C8 1124   4.932   1.185   9.810
   16CHL1    H8 1125   4.969   1.080   9.805
   16CHL1   C14 1126   4.904   1.241   9.673
   16CHL1   H14 1127   4.868   1.345   9.689
   16CHL1   C15 1128   4.802   1.170   9.588
   16CHL1  H15A 1129   4.820   1.061   9.596
   16CHL1  H15B 1130   4.694   1.181   9.610
   16CHL1   C16 1131   4.835   1.220   9.450
   16CHL1  H16A 1132   4.849   1.134   9.381
   16CHL1  H16B 1133   4.750   1.281   9.413
   16CHL1   C17 1134   4.971   1.300   9.451
   16CHL1   H17 1135   4.943   1.407   9.461
   16CHL1   C13 1136   5.031   1.247   9.584
   16CHL1   C18 1137   5.098   1.106   9.558
   16CHL1  H18A 1138   5.158   1.099   9.465
   16CHL1  H18B 1139   5.173   1.077   9.635
   16CHL1  H18C 1140   5.024   1.024   9.566
   16CHL1   C12 1141   5.142   1.339   9.646
   16CHL1  H12A 1142   5.235   1.321   9.588
   16CHL1  H12B 1143   5.104   1.444   9.641
   16CHL1   C11 1144   5.166   1.295   9.788
   16CHL1  H11A 1145   5.221   1.198   9.793
   16CHL1  H11B 1146   5.218   1.380   9.837
   16CHL1    C9 1147   5.039   1.269   9.882
   16CHL1    H9 1148   4.986   1.366   9.878
   16CHL1   C10 1149   5.059   1.238  10.027
   16CHL1   C19 1150   5.156   1.111  10.035
   16CHL1  H19A 1151   5.253   1.144   9.992
   16CHL1  H19B 1152   5.178   1.088  10.142
   16CHL1  H19C 1153   5.102   1.027   9.987
   16CHL1    C1 1154   5.129   1.361  10.093
   16CHL1   H1A 1155   5.229   1.375  10.047
   16CHL1   H1B 1156   5.073   1.451  10.060
   16CHL1    C2 1157   5.145   1.358  10.244
   16CHL1   H2A 1158   5.178   1.459  10.278
   16CHL1   H2B 1159   5.223   1.282  10.268
   16CHL1   C20 1160   5.049   1.287   9.317
   16CHL1   H20 1161   5.083   1.182   9.304
   16CHL1   C21 1162   5.169   1.382   9.316
   16CHL1  H21A 1163   5.216   1.385   9.216
   16CHL1  H21B 1164   5.245   1.337   9.384
   16CHL1  H21C 1165   5.153   1.491   9.330
   16CHL1   C22 1166   4.952   1.323   9.199
   16CHL1  H22A 1167   4.869   1.249   9.198
   16CHL1  H22B 1168   4.917   1.428   9.210
   16CHL1   C23 1169   5.014   1.320   9.059
   16CHL1  H23A 1170   5.060   1.418   9.035
   16CHL1  H23B 1171   5.094   1.243   9.054
   16CHL1   C24 1172   4.907   1.298   8.960
   16CHL1  H24A 1173   4.864   1.196   8.967
   16CHL1  H24B 1174   4.822   1.367   8.979
   16CHL1   C25 1175   4.956   1.309   8.815
   16CHL1   H25 1176   5.002   1.410   8.809
   16CHL1   C26 1177   5.062   1.212   8.778
   16CHL1  H26A 1178   5.153   1.248   8.830
   16CHL1  H26B 1179   5.032   1.111   8.813
   16CHL1  H26C 1180   5.082   1.219   8.669
   16CHL1   C27 1181   4.839   1.293   8.709
   16CHL1  H27A 1182   4.798   1.190   8.714
   16CHL1  H27B 1183   4.755   1.358   8.741
   16CHL1  H27C 1184   4.879   1.321   8.609
   17CHL1    C3 1185   0.576   5.200  10.433
   17CHL1    H3 1186   0.475   5.159  10.412
   17CHL1    O3 1187   0.598   5.218  10.573
   17CHL1   H3' 1188   0.523   5.272  10.600
   17CHL1    C4 1189   0.682   5.098  10.391
   17CHL1   H4A 1190   0.780   5.137  10.425
   17CHL1   H4B 1191   0.654   5.005  10.446
   17CHL1    C5 1192   0.682   5.072  10.238
   17CHL1    C6 1193   0.683   4.943  10.192
   17CHL1    H6 1194   0.677   4.856  10.258
   17CHL1    C7 1195   0.684   4.907  10.045
   17CHL1   H7A 1196   0.771   4.841  10.022
   17CHL1   H7B 1197   0.591   4.859  10.008
   17CHL1    C8 1198   0.693   5.039   9.959
   17CHL1    H8 1199   0.803   5.054   9.954
   17CHL1   C14 1200   0.640   5.016   9.816
   17CHL1   H14 1201   0.529   5.015   9.822
   17CHL1   C15 1202   0.669   4.885   9.744
   17CHL1  H15A 1203   0.778   4.870   9.760
   17CHL1  H15B 1204   0.616   4.800   9.790
   17CHL1   C16 1205   0.620   4.903   9.599
   17CHL1  H16A 1206   0.683   4.858   9.519
   17CHL1  H16B 1207   0.519   4.864   9.575
   17CHL1   C17 1208   0.619   5.060   9.581
   17CHL1   H17 1209   0.509   5.077   9.572
   17CHL1   C13 1210   0.673   5.121   9.718
   17CHL1   C18 1211   0.826   5.141   9.706
   17CHL1  H18A 1212   0.870   5.181   9.800
   17CHL1  H18B 1213   0.884   5.051   9.679
   17CHL1  H18C 1214   0.842   5.222   9.632
   17CHL1   C12 1215   0.608   5.256   9.760
   17CHL1  H12A 1216   0.651   5.340   9.701
   17CHL1  H12B 1217   0.499   5.251   9.743
   17CHL1   C11 1218   0.645   5.287   9.909
   17CHL1  H11A 1219   0.748   5.327   9.916
   17CHL1  H11B 1220   0.575   5.366   9.942
   17CHL1    C9 1221   0.623   5.162  10.010
   17CHL1    H9 1222   0.516   5.135  10.017
   17CHL1   C10 1223   0.669   5.200  10.157
   17CHL1   C19 1224   0.807   5.260  10.152
   17CHL1  H19A 1225   0.857   5.264  10.251
   17CHL1  H19B 1226   0.877   5.208  10.083
   17CHL1  H19C 1227   0.819   5.366  10.121
   17CHL1    C1 1228   0.566   5.308  10.215
   17CHL1   H1A 1229   0.569   5.401  10.154
   17CHL1   H1B 1230   0.461   5.273  10.201
   17CHL1    C2 1231   0.600   5.337  10.363
   17CHL1   H2A 1232   0.548   5.418  10.418
   17CHL1   H2B 1233   0.710   5.347  10.380
   17CHL1   C20 1234   0.668   5.108   9.441
   17CHL1   H20 1235   0.773   5.076   9.423
   17CHL1   C21 1236   0.654   5.266   9.427
   17CHL1  H21A 1237   0.555   5.298   9.467
   17CHL1  H21B 1238   0.658   5.296   9.321
   17CHL1  H21C 1239   0.730   5.321   9.487
   17CHL1   C22 1240   0.588   5.038   9.326
   17CHL1  H22A 1241   0.565   4.933   9.356
   17CHL1  H22B 1242   0.492   5.092   9.312
   17CHL1   C23 1243   0.666   5.047   9.188
   17CHL1  H23A 1244   0.672   5.156   9.164
   17CHL1  H23B 1245   0.768   5.009   9.205
   17CHL1   C24 1246   0.595   4.983   9.069
   17CHL1  H24A 1247   0.612   4.873   9.073
   17CHL1  H24B 1248   0.485   4.998   9.072
   17CHL1   C25 1249   0.656   5.020   8.926
   17CHL1   H25 1250   0.762   4.994   8.907
   17CHL1   C26 1251   0.571   4.951   8.821
   17CHL1  H26A 1252   0.619   4.963   8.721
   17CHL1  H26B 1253   0.568   4.842   8.844
   17CHL1  H26C 1254   0.471   5.000   8.812
   17CHL1   C27 1255   0.660   5.178   8.905
   17CHL1  H27A 1256   0.764   5.210   8.929
   17CHL1  H27B 1257   0.620   5.222   8.811
   17CHL1  H27C 1258   0.591   5.217   8.982
   18CHL1    C3 1259   6.524   3.620  10.170
   18CHL1    H3 1260   6.420   3.661  10.166
   18CHL1    O3 1261   6.570   3.641  10.297
   18CHL1   H3' 1262   6.666   3.639  10.294
   18CHL1    C4 1263   6.519   3.467  10.133
   18CHL1   H4A 1264   6.623   3.428  10.134
   18CHL1   H4B 1265   6.461   3.416  10.213
   18CHL1    C5 1266   6.462   3.440   9.998
   18CHL1    C6 1267   6.360   3.355   9.983
   18CHL1    H6 1268   6.315   3.302  10.068
   18CHL1    C7 1269   6.294   3.322   9.849
   18CHL1   H7A 1270   6.279   3.212   9.853
   18CHL1   H7B 1271   6.196   3.375   9.839
   18CHL1    C8 1272   6.386   3.362   9.736
   18CHL1    H8 1273   6.469   3.288   9.746
   18CHL1   C14 1274   6.311   3.351   9.609
   18CHL1   H14 1275   6.225   3.421   9.612
   18CHL1   C15 1276   6.235   3.216   9.580
   18CHL1  H15A 1277   6.303   3.138   9.621
   18CHL1  H15B 1278   6.136   3.218   9.632
   18CHL1   C16 1279   6.217   3.222   9.434
   18CHL1  H16A 1280   6.275   3.138   9.391
   18CHL1  H16B 1281   6.109   3.222   9.406
   18CHL1   C17 1282   6.280   3.357   9.384
   18CHL1   H17 1283   6.206   3.439   9.398
   18CHL1   C13 1284   6.391   3.387   9.489
   18CHL1   C18 1285   6.505   3.279   9.469
   18CHL1  H18A 1286   6.464   3.176   9.464
   18CHL1  H18B 1287   6.563   3.307   9.379
   18CHL1  H18C 1288   6.575   3.271   9.555
   18CHL1   C12 1289   6.430   3.536   9.500
   18CHL1  H12A 1290   6.492   3.567   9.414
   18CHL1  H12B 1291   6.343   3.606   9.503
   18CHL1   C11 1292   6.511   3.563   9.624
   18CHL1  H11A 1293   6.608   3.512   9.605
   18CHL1  H11B 1294   6.521   3.673   9.633
   18CHL1    C9 1295   6.446   3.504   9.750
   18CHL1    H9 1296   6.357   3.570   9.762
   18CHL1   C10 1297   6.529   3.517   9.881
   18CHL1   C19 1298   6.660   3.440   9.869
   18CHL1  H19A 1299   6.739   3.483   9.803
   18CHL1  H19B 1300   6.717   3.433   9.964
   18CHL1  H19C 1301   6.642   3.332   9.853
   18CHL1    C1 1302   6.547   3.663   9.927
   18CHL1   H1A 1303   6.583   3.740   9.855
   18CHL1   H1B 1304   6.448   3.710   9.949
   18CHL1    C2 1305   6.618   3.687  10.070
   18CHL1   H2A 1306   6.613   3.795  10.096
   18CHL1   H2B 1307   6.721   3.645  10.077
   18CHL1   C20 1308   6.318   3.338   9.226
   18CHL1   H20 1309   6.399   3.261   9.224
   18CHL1   C21 1310   6.375   3.470   9.173
   18CHL1  H21A 1311   6.405   3.472   9.066
   18CHL1  H21B 1312   6.473   3.488   9.224
   18CHL1  H21C 1313   6.304   3.553   9.194
   18CHL1   C22 1314   6.201   3.290   9.141
   18CHL1  H22A 1315   6.146   3.198   9.171
   18CHL1  H22B 1316   6.130   3.376   9.133
   18CHL1   C23 1317   6.234   3.264   8.995
   18CHL1  H23A 1318   6.139   3.256   8.937
   18CHL1  H23B 1319   6.297   3.347   8.957
   18CHL1   C24 1320   6.317   3.136   8.982
   18CHL1  H24A 1321   6.418   3.163   9.020
   18CHL1  H24B 1322   6.272   3.060   9.049
   18CHL1   C25 1323   6.333   3.085   8.842
   18CHL1   H25 1324   6.399   2.996   8.853
   18CHL1   C26 1325   6.202   3.033   8.782
   18CHL1  H26A 1326   6.125   3.114   8.787
   18CHL1  H26B 1327   6.219   3.022   8.673
   18CHL1  H26C 1328   6.165   2.940   8.831
   18CHL1   C27 1329   6.396   3.194   8.749
   18CHL1  H27A 1330   6.324   3.277   8.737
   18CHL1  H27B 1331   6.491   3.234   8.791
   18CHL1  H27C 1332   6.413   3.144   8.652
   19CHL1    C3 1333   3.759   0.183  10.103
   19CHL1    H3 1334   3.850   0.120  10.119
   19CHL1    O3 1335   3.730   0.258  10.222
   19CHL1   H3' 1336   3.716   0.340  10.173
   19CHL1    C4 1337   3.791   0.292   9.992
   19CHL1   H4A 1338   3.709   0.367   9.990
   19CHL1   H4B 1339   3.872   0.358  10.028
   19CHL1    C5 1340   3.822   0.230   9.857
   19CHL1    C6 1341   3.937   0.245   9.801
   19CHL1    H6 1342   4.015   0.315   9.835
   19CHL1    C7 1343   3.972   0.195   9.664
   19CHL1   H7A 1344   4.021   0.268   9.595
   19CHL1   H7B 1345   4.044   0.111   9.674
   19CHL1    C8 1346   3.848   0.144   9.581
   19CHL1    H8 1347   3.790   0.234   9.553
   19CHL1   C14 1348   3.885   0.071   9.454
   19CHL1   H14 1349   3.957  -0.012   9.473
   19CHL1   C15 1350   3.976   0.146   9.354
   19CHL1  H15A 1351   3.949   0.254   9.358
   19CHL1  H15B 1352   4.080   0.140   9.391
   19CHL1   C16 1353   3.949   0.094   9.219
   19CHL1  H16A 1354   3.907   0.169   9.147
   19CHL1  H16B 1355   4.037   0.042   9.176
   19CHL1   C17 1356   3.847  -0.027   9.247
   19CHL1   H17 1357   3.905  -0.118   9.270
   19CHL1   C13 1358   3.765   0.018   9.366
   19CHL1   C18 1359   3.674   0.131   9.318
   19CHL1  H18A 1360   3.646   0.212   9.389
   19CHL1  H18B 1361   3.725   0.193   9.242
   19CHL1  H18C 1362   3.581   0.079   9.287
   19CHL1   C12 1363   3.689  -0.072   9.462
   19CHL1  H12A 1364   3.594  -0.113   9.423
   19CHL1  H12B 1365   3.754  -0.159   9.487
   19CHL1   C11 1366   3.648  -0.013   9.601
   19CHL1  H11A 1367   3.568   0.062   9.577
   19CHL1  H11B 1368   3.603  -0.096   9.660
   19CHL1    C9 1369   3.762   0.058   9.682
   19CHL1    H9 1370   3.831  -0.018   9.723
   19CHL1   C10 1371   3.709   0.142   9.804
   19CHL1   C19 1372   3.589   0.232   9.764
   19CHL1  H19A 1373   3.595   0.300   9.677
   19CHL1  H19B 1374   3.508   0.163   9.732
   19CHL1  H19C 1375   3.558   0.293   9.852
   19CHL1    C1 1376   3.667   0.045   9.917
   19CHL1   H1A 1377   3.582  -0.014   9.876
   19CHL1   H1B 1378   3.742  -0.035   9.936
   19CHL1    C2 1379   3.640   0.102  10.057
   19CHL1   H2A 1380   3.618   0.017  10.124
   19CHL1   H2B 1381   3.551   0.166  10.037
   19CHL1   C20 1382   3.774  -0.067   9.122
   19CHL1   H20 1383   3.715   0.018   9.081
   19CHL1   C21 1384   3.690  -0.187   9.156
   19CHL1  H21A 1385   3.632  -0.215   9.066
   19CHL1  H21B 1386   3.612  -0.161   9.232
   19CHL1  H21C 1387   3.748  -0.274   9.192
   19CHL1   C22 1388   3.868  -0.108   9.001
   19CHL1  H22A 1389   3.936  -0.020   9.004
   19CHL1  H22B 1390   3.924  -0.195   9.039
   19CHL1   C23 1391   3.793  -0.141   8.869
   19CHL1  H23A 1392   3.737  -0.237   8.879
   19CHL1  H23B 1393   3.722  -0.058   8.847
   19CHL1   C24 1394   3.880  -0.157   8.744
   19CHL1  H24A 1395   3.928  -0.059   8.720
   19CHL1  H24B 1396   3.967  -0.218   8.777
   19CHL1   C25 1397   3.806  -0.206   8.612
   19CHL1   H25 1398   3.750  -0.299   8.635
   19CHL1   C26 1399   3.706  -0.095   8.562
   19CHL1  H26A 1400   3.756  -0.005   8.522
   19CHL1  H26B 1401   3.645  -0.144   8.484
   19CHL1  H26C 1402   3.641  -0.052   8.642
   19CHL1   C27 1403   3.913  -0.247   8.505
   19CHL1  H27A 1404   3.997  -0.305   8.549
   19CHL1  H27B 1405   3.861  -0.301   8.422
   19CHL1  H27C 1406   3.965  -0.152   8.481
   20CHL1    C3 1407   6.113   0.709  10.389
   20CHL1    H3 1408   6.122   0.819  10.399
   20CHL1    O3 1409   6.121   0.656  10.527
   20CHL1   H3' 1410   6.186   0.585  10.528
   20CHL1    C4 1411   5.990   0.659  10.316
   20CHL1   H4A 1412   5.987   0.548  10.314
   20CHL1   H4B 1413   5.906   0.696  10.379
   20CHL1    C5 1414   5.985   0.722  10.175
   20CHL1    C6 1415   5.880   0.804  10.148
   20CHL1    H6 1416   5.800   0.814  10.223
   20CHL1    C7 1417   5.873   0.880  10.021
   20CHL1   H7A 1418   5.771   0.885   9.977
   20CHL1   H7B 1419   5.917   0.982  10.024
   20CHL1    C8 1420   5.956   0.807   9.915
   20CHL1    H8 1421   5.906   0.709   9.898
   20CHL1   C14 1422   5.959   0.894   9.790
   20CHL1   H14 1423   6.003   0.992   9.815
   20CHL1   C15 1424   5.820   0.921   9.715
   20CHL1  H15A 1425   5.761   0.828   9.728
   20CHL1  H15B 1426   5.779   1.009   9.769
   20CHL1   C16 1427   5.870   0.963   9.579
   20CHL1  H16A 1428   5.822   0.899   9.502
   20CHL1  H16B 1429   5.849   1.070   9.555
   20CHL1   C17 1430   6.015   0.929   9.563
   20CHL1   H17 1431   6.076   1.018   9.592
   20CHL1   C13 1432   6.050   0.832   9.681
   20CHL1   C18 1433   6.005   0.691   9.639
   20CHL1  H18A 1434   6.066   0.648   9.556
   20CHL1  H18B 1435   6.002   0.627   9.729
   20CHL1  H18C 1436   5.898   0.699   9.607
   20CHL1   C12 1437   6.196   0.836   9.733
   20CHL1  H12A 1438   6.262   0.800   9.651
   20CHL1  H12B 1439   6.217   0.945   9.734
   20CHL1   C11 1440   6.219   0.758   9.864
   20CHL1  H11A 1441   6.218   0.650   9.837
   20CHL1  H11B 1442   6.323   0.779   9.898
   20CHL1    C9 1443   6.105   0.788   9.968
   20CHL1    H9 1444   6.125   0.893   9.997
   20CHL1   C10 1445   6.109   0.702  10.090
   20CHL1   C19 1446   6.103   0.549  10.044
   20CHL1  H19A 1447   6.087   0.475  10.125
   20CHL1  H19B 1448   6.021   0.547   9.968
   20CHL1  H19C 1449   6.199   0.515   9.999
   20CHL1    C1 1450   6.238   0.724  10.172
   20CHL1   H1A 1451   6.323   0.684  10.112
   20CHL1   H1B 1452   6.256   0.834  10.176
   20CHL1    C2 1453   6.245   0.667  10.317
   20CHL1   H2A 1454   6.334   0.691  10.378
   20CHL1   H2B 1455   6.243   0.557  10.301
   20CHL1   C20 1456   6.055   0.887   9.416
   20CHL1   H20 1457   6.018   0.787   9.385
   20CHL1   C21 1458   6.211   0.876   9.399
   20CHL1  H21A 1459   6.255   0.791   9.455
   20CHL1  H21B 1460   6.255   0.971   9.435
   20CHL1  H21C 1461   6.231   0.868   9.290
   20CHL1   C22 1462   6.012   0.996   9.315
   20CHL1  H22A 1463   5.911   1.036   9.339
   20CHL1  H22B 1464   6.087   1.076   9.335
   20CHL1   C23 1465   6.012   0.958   9.168
   20CHL1  H23A 1466   6.101   0.907   9.126
   20CHL1  H23B 1467   5.930   0.884   9.154
   20CHL1   C24 1468   5.997   1.077   9.072
   20CHL1  H24A 1469   5.911   1.140   9.102
   20CHL1  H24B 1470   6.086   1.141   9.089
   20CHL1   C25 1471   5.983   1.044   8.919
   20CHL1   H25 1472   5.900   0.971   8.902
   20CHL1   C26 1473   5.960   1.177   8.847
   20CHL1  H26A 1474   5.873   1.232   8.888
   20CHL1  H26B 1475   6.050   1.241   8.860
   20CHL1  H26C 1476   5.952   1.165   8.737
   20CHL1   C27 1477   6.108   0.979   8.845
   20CHL1  H27A 1478   6.118   0.874   8.880
   20CHL1  H27B 1479   6.100   0.985   8.734
   20CHL1  H27C 1480   6.203   1.030   8.873
   21CHL1    C3 1481   5.851   3.944  10.210
   21CHL1    H3 1482   5.947   3.909  10.165
   21CHL1    O3 1483   5.868   3.947  10.354
   21CHL1   H3' 1484   5.784   3.979  10.389
   21CHL1    C4 1485   5.823   4.091  10.157
   21CHL1   H4A 1486   5.733   4.122  10.216
   21CHL1   H4B 1487   5.914   4.151  10.179
   21CHL1    C5 1488   5.789   4.080  10.004
   21CHL1    C6 1489   5.852   4.157   9.918
   21CHL1    H6 1490   5.942   4.212   9.950
   21CHL1    C7 1491   5.823   4.159   9.769
   21CHL1   H7A 1492   5.796   4.264   9.743
   21CHL1   H7B 1493   5.914   4.120   9.718
   21CHL1    C8 1494   5.697   4.078   9.717
   21CHL1    H8 1495   5.602   4.133   9.735
   21CHL1   C14 1496   5.719   4.021   9.579
   21CHL1   H14 1497   5.804   3.950   9.575
   21CHL1   C15 1498   5.754   4.126   9.474
   21CHL1  H15A 1499   5.709   4.220   9.512
   21CHL1  H15B 1500   5.863   4.143   9.473
   21CHL1   C16 1501   5.707   4.064   9.342
   21CHL1  H16A 1502   5.637   4.134   9.292
   21CHL1  H16B 1503   5.793   4.057   9.272
   21CHL1   C17 1504   5.645   3.930   9.369
   21CHL1   H17 1505   5.732   3.861   9.362
   21CHL1   C13 1506   5.601   3.943   9.515
   21CHL1   C18 1507   5.476   4.031   9.521
   21CHL1  H18A 1508   5.451   4.056   9.627
   21CHL1  H18B 1509   5.491   4.126   9.466
   21CHL1  H18C 1510   5.382   3.984   9.484
   21CHL1   C12 1511   5.592   3.816   9.601
   21CHL1  H12A 1512   5.510   3.751   9.566
   21CHL1  H12B 1513   5.692   3.770   9.582
   21CHL1   C11 1514   5.571   3.851   9.748
   21CHL1  H11A 1515   5.471   3.896   9.767
   21CHL1  H11B 1516   5.578   3.752   9.798
   21CHL1    C9 1517   5.681   3.949   9.801
   21CHL1    H9 1518   5.778   3.897   9.788
   21CHL1   C10 1519   5.682   3.976   9.955
   21CHL1   C19 1520   5.546   4.031   9.999
   21CHL1  H19A 1521   5.548   4.035  10.110
   21CHL1  H19B 1522   5.522   4.133   9.964
   21CHL1  H19C 1523   5.462   3.964   9.969
   21CHL1    C1 1524   5.718   3.843  10.027
   21CHL1   H1A 1525   5.644   3.763  10.004
   21CHL1   H1B 1526   5.817   3.809   9.989
   21CHL1    C2 1527   5.740   3.845  10.182
   21CHL1   H2A 1528   5.772   3.746  10.224
   21CHL1   H2B 1529   5.647   3.868  10.238
   21CHL1   C20 1530   5.550   3.875   9.267
   21CHL1   H20 1531   5.442   3.884   9.292
   21CHL1   C21 1532   5.579   3.720   9.264
   21CHL1  H21A 1533   5.497   3.668   9.209
   21CHL1  H21B 1534   5.581   3.694   9.372
   21CHL1  H21C 1535   5.669   3.694   9.206
   21CHL1   C22 1536   5.564   3.933   9.124
   21CHL1  H22A 1537   5.566   4.044   9.127
   21CHL1  H22B 1538   5.657   3.899   9.074
   21CHL1   C23 1539   5.445   3.889   9.035
   21CHL1  H23A 1540   5.435   3.779   9.025
   21CHL1  H23B 1541   5.350   3.920   9.084
   21CHL1   C24 1542   5.462   3.960   8.895
   21CHL1  H24A 1543   5.434   4.066   8.911
   21CHL1  H24B 1544   5.570   3.949   8.869
   21CHL1   C25 1545   5.373   3.896   8.785
   21CHL1   H25 1546   5.382   3.786   8.781
   21CHL1   C26 1547   5.225   3.931   8.821
   21CHL1  H26A 1548   5.215   4.041   8.823
   21CHL1  H26B 1549   5.157   3.884   8.747
   21CHL1  H26C 1550   5.198   3.902   8.925
   21CHL1   C27 1551   5.411   3.940   8.641
   21CHL1  H27A 1552   5.342   3.886   8.573
   21CHL1  H27B 1553   5.397   4.050   8.631
   21CHL1  H27C 1554   5.513   3.909   8.612
   22CHL1    C3 1555   5.430   4.927  10.080
   22CHL1    H3 1556   5.495   4.839  10.096
   22CHL1    O3 1557   5.389   4.981  10.206
   22CHL1   H3' 1558   5.374   4.904  10.262
   22CHL1    C4 1559   5.504   5.032  10.007
   22CHL1   H4A 1560   5.447   5.128  10.015
   22CHL1   H4B 1561   5.595   5.051  10.067
   22CHL1    C5 1562   5.532   4.999   9.864
   22CHL1    C6 1563   5.658   5.001   9.824
   22CHL1    H6 1564   5.740   5.038   9.887
   22CHL1    C7 1565   5.687   4.967   9.684
   22CHL1   H7A 1566   5.778   5.017   9.644
   22CHL1   H7B 1567   5.730   4.865   9.685
   22CHL1    C8 1568   5.564   4.972   9.586
   22CHL1    H8 1569   5.530   5.077   9.573
   22CHL1   C14 1570   5.592   4.898   9.451
   22CHL1   H14 1571   5.608   4.793   9.485
   22CHL1   C15 1572   5.727   4.941   9.378
   22CHL1  H15A 1573   5.739   5.051   9.388
   22CHL1  H15B 1574   5.817   4.887   9.415
   22CHL1   C16 1575   5.708   4.895   9.233
   22CHL1  H16A 1576   5.721   4.990   9.177
   22CHL1  H16B 1577   5.785   4.828   9.190
   22CHL1   C17 1578   5.566   4.836   9.220
   22CHL1   H17 1579   5.580   4.728   9.244
   22CHL1   C13 1580   5.489   4.898   9.345
   22CHL1   C18 1581   5.456   5.043   9.295
   22CHL1  H18A 1582   5.357   5.053   9.245
   22CHL1  H18B 1583   5.453   5.116   9.378
   22CHL1  H18C 1584   5.531   5.077   9.222
   22CHL1   C12 1585   5.367   4.826   9.407
   22CHL1  H12A 1586   5.284   4.827   9.333
   22CHL1  H12B 1587   5.404   4.722   9.416
   22CHL1   C11 1588   5.327   4.883   9.544
   22CHL1  H11A 1589   5.277   4.978   9.518
   22CHL1  H11B 1590   5.258   4.810   9.593
   22CHL1    C9 1591   5.442   4.894   9.643
   22CHL1    H9 1592   5.472   4.791   9.670
   22CHL1   C10 1593   5.408   4.947   9.789
   22CHL1   C19 1594   5.310   5.056   9.752
   22CHL1  H19A 1595   5.206   5.018   9.742
   22CHL1  H19B 1596   5.294   5.133   9.831
   22CHL1  H19C 1597   5.350   5.107   9.662
   22CHL1    C1 1598   5.343   4.836   9.878
   22CHL1   H1A 1599   5.257   4.787   9.827
   22CHL1   H1B 1600   5.412   4.750   9.891
   22CHL1    C2 1601   5.304   4.882  10.011
   22CHL1   H2A 1602   5.255   4.811  10.082
   22CHL1   H2B 1603   5.240   4.973  10.018
   22CHL1   C20 1604   5.501   4.847   9.078
   22CHL1   H20 1605   5.486   4.956   9.063
   22CHL1   C21 1606   5.353   4.785   9.077
   22CHL1  H21A 1607   5.324   4.767   8.972
   22CHL1  H21B 1608   5.274   4.842   9.131
   22CHL1  H21C 1609   5.362   4.683   9.121
   22CHL1   C22 1610   5.592   4.793   8.964
   22CHL1  H22A 1611   5.542   4.805   8.866
   22CHL1  H22B 1612   5.688   4.850   8.963
   22CHL1   C23 1613   5.611   4.638   8.964
   22CHL1  H23A 1614   5.663   4.611   9.058
   22CHL1  H23B 1615   5.510   4.591   8.963
   22CHL1   C24 1616   5.686   4.590   8.832
   22CHL1  H24A 1617   5.642   4.647   8.747
   22CHL1  H24B 1618   5.796   4.608   8.832
   22CHL1   C25 1619   5.652   4.440   8.800
   22CHL1   H25 1620   5.720   4.407   8.719
   22CHL1   C26 1621   5.666   4.355   8.926
   22CHL1  H26A 1622   5.667   4.245   8.911
   22CHL1  H26B 1623   5.767   4.370   8.969
   22CHL1  H26C 1624   5.599   4.376   9.012
   22CHL1   C27 1625   5.505   4.429   8.748
   22CHL1  H27A 1626   5.507   4.365   8.657
   22CHL1  H27B 1627   5.435   4.380   8.819
   22CHL1  H27C 1628   5.472   4.528   8.710
   23CHL1    C3 1629   1.839   6.503  10.109
   23CHL1    H3 1630   1.803   6.590  10.051
   23CHL1    O3 1631   1.836   6.532  10.250
   23CHL1   H3' 1632   1.744   6.511  10.268
   23CHL1    C4 1633   1.746   6.389  10.069
   23CHL1   H4A 1634   1.805   6.301  10.103
   23CHL1   H4B 1635   1.651   6.407  10.125
   23CHL1    C5 1636   1.739   6.381   9.922
   23CHL1    C6 1637   1.624   6.412   9.863
   23CHL1    H6 1638   1.539   6.434   9.928
   23CHL1    C7 1639   1.598   6.408   9.717
   23CHL1   H7A 1640   1.509   6.348   9.687
   23CHL1   H7B 1641   1.579   6.511   9.681
   23CHL1    C8 1642   1.710   6.352   9.633
   23CHL1    H8 1643   1.701   6.241   9.634
   23CHL1   C14 1644   1.718   6.417   9.490
   23CHL1   H14 1645   1.733   6.526   9.507
   23CHL1   C15 1646   1.590   6.409   9.404
   23CHL1  H15A 1647   1.545   6.310   9.430
   23CHL1  H15B 1648   1.530   6.501   9.418
   23CHL1   C16 1649   1.638   6.420   9.256
   23CHL1  H16A 1650   1.618   6.329   9.195
   23CHL1  H16B 1651   1.606   6.510   9.201
   23CHL1   C17 1652   1.794   6.440   9.275
   23CHL1   H17 1653   1.815   6.546   9.301
   23CHL1   C13 1654   1.826   6.366   9.404
   23CHL1   C18 1655   1.822   6.214   9.372
   23CHL1  H18A 1656   1.719   6.188   9.342
   23CHL1  H18B 1657   1.886   6.179   9.288
   23CHL1  H18C 1658   1.844   6.164   9.469
   23CHL1   C12 1659   1.963   6.416   9.458
   23CHL1  H12A 1660   2.056   6.379   9.411
   23CHL1  H12B 1661   1.975   6.526   9.448
   23CHL1   C11 1662   1.971   6.364   9.609
   23CHL1  H11A 1663   1.993   6.255   9.618
   23CHL1  H11B 1664   2.054   6.407   9.668
   23CHL1    C9 1665   1.847   6.393   9.701
   23CHL1    H9 1666   1.842   6.504   9.698
   23CHL1   C10 1667   1.876   6.357   9.853
   23CHL1   C19 1668   1.904   6.207   9.861
   23CHL1  H19A 1669   2.007   6.183   9.826
   23CHL1  H19B 1670   1.904   6.167   9.965
   23CHL1  H19C 1671   1.835   6.149   9.796
   23CHL1    C1 1672   1.989   6.443   9.916
   23CHL1   H1A 1673   2.083   6.394   9.883
   23CHL1   H1B 1674   1.994   6.535   9.854
   23CHL1    C2 1675   1.983   6.466  10.067
   23CHL1   H2A 1676   2.049   6.553  10.084
   23CHL1   H2B 1677   2.017   6.380  10.129
   23CHL1   C20 1678   1.883   6.409   9.154
   23CHL1   H20 1679   1.982   6.370   9.186
   23CHL1   C21 1680   1.941   6.542   9.103
   23CHL1  H21A 1681   1.862   6.604   9.057
   23CHL1  H21B 1682   2.015   6.522   9.022
   23CHL1  H21C 1683   1.993   6.601   9.182
   23CHL1   C22 1684   1.835   6.321   9.046
   23CHL1  H22A 1685   1.795   6.226   9.086
   23CHL1  H22B 1686   1.743   6.362   8.998
   23CHL1   C23 1687   1.920   6.274   8.929
   23CHL1  H23A 1688   1.954   6.359   8.866
   23CHL1  H23B 1689   2.012   6.245   8.985
   23CHL1   C24 1690   1.862   6.172   8.826
   23CHL1  H24A 1691   1.823   6.086   8.884
   23CHL1  H24B 1692   1.776   6.227   8.782
   23CHL1   C25 1693   1.970   6.123   8.724
   23CHL1   H25 1694   1.922   6.035   8.676
   23CHL1   C26 1695   2.008   6.224   8.619
   23CHL1  H26A 1696   2.058   6.169   8.537
   23CHL1  H26B 1697   1.922   6.278   8.574
   23CHL1  H26C 1698   2.076   6.303   8.660
   23CHL1   C27 1699   2.097   6.066   8.793
   23CHL1  H27A 1700   2.170   6.149   8.808
   23CHL1  H27B 1701   2.079   6.030   8.896
   23CHL1  H27C 1702   2.156   5.996   8.729
   24CHL1    C3 1703   3.187   0.482  10.114
   24CHL1    H3 1704   3.294   0.501  10.092
   24CHL1    O3 1705   3.147   0.483  10.250
   24CHL1   H3' 1706   3.150   0.578  10.267
   24CHL1    C4 1707   3.097   0.586  10.039
   24CHL1   H4A 1708   2.993   0.552  10.057
   24CHL1   H4B 1709   3.109   0.687  10.086
   24CHL1    C5 1710   3.127   0.593   9.889
   24CHL1    C6 1711   3.177   0.708   9.838
   24CHL1    H6 1712   3.178   0.799   9.899
   24CHL1    C7 1713   3.202   0.722   9.692
   24CHL1   H7A 1714   3.151   0.812   9.651
   24CHL1   H7B 1715   3.311   0.740   9.681
   24CHL1    C8 1716   3.161   0.599   9.608
   24CHL1    H8 1717   3.055   0.603   9.574
   24CHL1   C14 1718   3.252   0.603   9.477
   24CHL1   H14 1719   3.358   0.595   9.509
   24CHL1   C15 1720   3.257   0.728   9.389
   24CHL1  H15A 1721   3.154   0.767   9.371
   24CHL1  H15B 1722   3.301   0.821   9.431
   24CHL1   C16 1723   3.319   0.681   9.255
   24CHL1  H16A 1724   3.264   0.697   9.159
   24CHL1  H16B 1725   3.420   0.727   9.247
   24CHL1   C17 1726   3.316   0.522   9.269
   24CHL1   H17 1727   3.412   0.492   9.316
   24CHL1   C13 1728   3.220   0.488   9.383
   24CHL1   C18 1729   3.073   0.500   9.330
   24CHL1  H18A 1730   3.052   0.603   9.293
   24CHL1  H18B 1731   3.052   0.425   9.251
   24CHL1  H18C 1732   3.002   0.480   9.413
   24CHL1   C12 1733   3.245   0.356   9.452
   24CHL1  H12A 1734   3.219   0.272   9.384
   24CHL1  H12B 1735   3.352   0.356   9.478
   24CHL1   C11 1736   3.153   0.341   9.581
   24CHL1  H11A 1737   3.048   0.365   9.552
   24CHL1  H11B 1738   3.166   0.246   9.639
   24CHL1    C9 1739   3.180   0.464   9.678
   24CHL1    H9 1740   3.289   0.465   9.700
   24CHL1   C10 1741   3.113   0.461   9.820
   24CHL1   C19 1742   2.968   0.433   9.810
   24CHL1  H19A 1743   2.947   0.339   9.754
   24CHL1  H19B 1744   2.928   0.414   9.912
   24CHL1  H19C 1745   2.918   0.520   9.762
   24CHL1    C1 1746   3.182   0.345   9.900
   24CHL1   H1A 1747   3.163   0.245   9.856
   24CHL1   H1B 1748   3.291   0.358   9.880
   24CHL1    C2 1749   3.160   0.339  10.056
   24CHL1   H2A 1750   3.235   0.275  10.109
   24CHL1   H2B 1751   3.062   0.297  10.086
   24CHL1   C20 1752   3.306   0.451   9.130
   24CHL1   H20 1753   3.257   0.357   9.163
   24CHL1   C21 1754   3.458   0.414   9.089
   24CHL1  H21A 1755   3.510   0.511   9.073
   24CHL1  H21B 1756   3.469   0.347   9.001
   24CHL1  H21C 1757   3.502   0.366   9.179
   24CHL1   C22 1758   3.220   0.494   9.019
   24CHL1  H22A 1759   3.124   0.529   9.063
   24CHL1  H22B 1760   3.273   0.584   8.979
   24CHL1   C23 1761   3.185   0.389   8.909
   24CHL1  H23A 1762   3.284   0.358   8.871
   24CHL1  H23B 1763   3.145   0.292   8.947
   24CHL1   C24 1764   3.120   0.454   8.778
   24CHL1  H24A 1765   3.013   0.471   8.801
   24CHL1  H24B 1766   3.166   0.551   8.752
   24CHL1   C25 1767   3.145   0.381   8.642
   24CHL1   H25 1768   3.254   0.385   8.622
   24CHL1   C26 1769   3.105   0.231   8.647
   24CHL1  H26A 1770   3.163   0.157   8.706
   24CHL1  H26B 1771   2.995   0.227   8.667
   24CHL1  H26C 1772   3.114   0.193   8.543
   24CHL1   C27 1773   3.075   0.450   8.525
   24CHL1  H27A 1774   3.114   0.553   8.516
   24CHL1  H27B 1775   3.104   0.384   8.440
   24CHL1  H27C 1776   2.965   0.462   8.534
   25CHL1    C3 1777   4.887   1.806  10.367
   25CHL1    H3 1778   4.960   1.890  10.374
   25CHL1    O3 1779   4.847   1.768  10.496
   25CHL1   H3' 1780   4.806   1.681  10.485
   25CHL1    C4 1781   4.757   1.850  10.293
   25CHL1   H4A 1782   4.689   1.762  10.302
   25CHL1   H4B 1783   4.718   1.934  10.354
   25CHL1    C5 1784   4.783   1.881  10.145
   25CHL1    C6 1785   4.743   1.999  10.092
   25CHL1    H6 1786   4.687   2.067  10.158
   25CHL1    C7 1787   4.738   2.021   9.940
   25CHL1   H7A 1788   4.633   2.048   9.914
   25CHL1   H7B 1789   4.805   2.105   9.915
   25CHL1    C8 1790   4.778   1.899   9.852
   25CHL1    H8 1791   4.685   1.840   9.836
   25CHL1   C14 1792   4.835   1.940   9.719
   25CHL1   H14 1793   4.928   1.995   9.747
   25CHL1   C15 1794   4.760   2.044   9.637
   25CHL1  H15A 1795   4.651   2.035   9.659
   25CHL1  H15B 1796   4.786   2.150   9.657
   25CHL1   C16 1797   4.795   2.013   9.490
   25CHL1  H16A 1798   4.699   1.982   9.443
   25CHL1  H16B 1799   4.831   2.103   9.436
   25CHL1   C17 1800   4.901   1.900   9.495
   25CHL1   H17 1801   4.999   1.950   9.511
   25CHL1   C13 1802   4.869   1.823   9.625
   25CHL1   C18 1803   4.750   1.733   9.596
   25CHL1  H18A 1804   4.699   1.700   9.689
   25CHL1  H18B 1805   4.674   1.781   9.530
   25CHL1  H18C 1806   4.778   1.643   9.537
   25CHL1   C12 1807   4.981   1.747   9.688
   25CHL1  H12A 1808   4.997   1.652   9.633
   25CHL1  H12B 1809   5.076   1.803   9.701
   25CHL1   C11 1810   4.936   1.693   9.828
   25CHL1  H11A 1811   4.863   1.612   9.807
   25CHL1  H11B 1812   5.022   1.655   9.886
   25CHL1    C9 1813   4.879   1.814   9.919
   25CHL1    H9 1814   4.964   1.883   9.939
   25CHL1   C10 1815   4.846   1.768  10.065
   25CHL1   C19 1816   4.748   1.645  10.061
   25CHL1  H19A 1817   4.808   1.551  10.053
   25CHL1  H19B 1818   4.685   1.628  10.150
   25CHL1  H19C 1819   4.689   1.640   9.967
   25CHL1    C1 1820   4.978   1.730  10.148
   25CHL1   H1A 1821   5.019   1.638  10.100
   25CHL1   H1B 1822   5.049   1.813  10.129
   25CHL1    C2 1823   4.950   1.690  10.288
   25CHL1   H2A 1824   5.043   1.653  10.336
   25CHL1   H2B 1825   4.875   1.608  10.284
   25CHL1   C20 1826   4.927   1.816   9.367
   25CHL1   H20 1827   4.949   1.713   9.401
   25CHL1   C21 1828   5.042   1.886   9.293
   25CHL1  H21A 1829   5.066   1.844   9.192
   25CHL1  H21B 1830   5.130   1.871   9.358
   25CHL1  H21C 1831   5.016   1.993   9.285
   25CHL1   C22 1832   4.810   1.811   9.269
   25CHL1  H22A 1833   4.735   1.749   9.322
   25CHL1  H22B 1834   4.769   1.912   9.249
   25CHL1   C23 1835   4.829   1.733   9.148
   25CHL1  H23A 1836   4.923   1.768   9.100
   25CHL1  H23B 1837   4.827   1.625   9.174
   25CHL1   C24 1838   4.714   1.747   9.037
   25CHL1  H24A 1839   4.616   1.727   9.085
   25CHL1  H24B 1840   4.712   1.854   9.008
   25CHL1   C25 1841   4.744   1.661   8.915
   25CHL1   H25 1842   4.767   1.559   8.951
   25CHL1   C26 1843   4.620   1.653   8.821
   25CHL1  H26A 1844   4.646   1.597   8.729
   25CHL1  H26B 1845   4.537   1.590   8.862
   25CHL1  H26C 1846   4.583   1.753   8.792
   25CHL1   C27 1847   4.872   1.697   8.841
   25CHL1  H27A 1848   4.876   1.640   8.746
   25CHL1  H27B 1849   4.880   1.804   8.814
   25CHL1  H27C 1850   4.964   1.677   8.900
   26CHL1    C3 1851   5.968   4.608  10.218
   26CHL1    H3 1852   5.968   4.505  10.259
   26CHL1    O3 1853   5.964   4.693  10.332
   26CHL1   H3' 1854   6.055   4.690  10.363
   26CHL1    C4 1855   6.103   4.628  10.153
   26CHL1   H4A 1856   6.140   4.732  10.144
   26CHL1   H4B 1857   6.176   4.575  10.217
   26CHL1    C5 1858   6.095   4.574  10.012
   26CHL1    C6 1859   6.185   4.481   9.980
   26CHL1    H6 1860   6.266   4.460  10.052
   26CHL1    C7 1861   6.206   4.423   9.846
   26CHL1   H7A 1862   6.315   4.410   9.827
   26CHL1   H7B 1863   6.151   4.327   9.854
   26CHL1    C8 1864   6.134   4.500   9.737
   26CHL1    H8 1865   6.195   4.589   9.710
   26CHL1   C14 1866   6.123   4.413   9.613
   26CHL1   H14 1867   6.058   4.327   9.641
   26CHL1   C15 1868   6.250   4.350   9.552
   26CHL1  H15A 1869   6.329   4.428   9.568
   26CHL1  H15B 1870   6.281   4.256   9.603
   26CHL1   C16 1871   6.215   4.324   9.405
   26CHL1  H16A 1872   6.288   4.385   9.348
   26CHL1  H16B 1873   6.235   4.225   9.358
   26CHL1   C17 1874   6.073   4.378   9.381
   26CHL1   H17 1875   6.004   4.295   9.404
   26CHL1   C13 1876   6.049   4.485   9.495
   26CHL1   C18 1877   6.120   4.618   9.463
   26CHL1  H18A 1878   6.102   4.687   9.547
   26CHL1  H18B 1879   6.230   4.607   9.453
   26CHL1  H18C 1880   6.088   4.668   9.369
   26CHL1   C12 1881   5.903   4.510   9.537
   26CHL1  H12A 1882   5.853   4.579   9.465
   26CHL1  H12B 1883   5.845   4.417   9.553
   26CHL1   C11 1884   5.896   4.595   9.670
   26CHL1  H11A 1885   5.915   4.704   9.667
   26CHL1  H11B 1886   5.794   4.596   9.715
   26CHL1    C9 1887   5.991   4.531   9.782
   26CHL1    H9 1888   5.950   4.431   9.805
   26CHL1   C10 1889   5.981   4.609   9.919
   26CHL1   C19 1890   6.016   4.758   9.890
   26CHL1  H19A 1891   5.926   4.806   9.846
   26CHL1  H19B 1892   6.039   4.820   9.979
   26CHL1  H19C 1893   6.100   4.766   9.818
   26CHL1    C1 1894   5.852   4.581   9.998
   26CHL1   H1A 1895   5.755   4.604   9.948
   26CHL1   H1B 1896   5.854   4.473  10.023
   26CHL1    C2 1897   5.847   4.648  10.140
   26CHL1   H2A 1898   5.761   4.625  10.207
   26CHL1   H2B 1899   5.843   4.759  10.131
   26CHL1   C20 1900   6.054   4.420   9.233
   26CHL1   H20 1901   6.113   4.513   9.218
   26CHL1   C21 1902   5.912   4.457   9.218
   26CHL1  H21A 1903   5.874   4.543   9.277
   26CHL1  H21B 1904   5.849   4.369   9.245
   26CHL1  H21C 1905   5.875   4.477   9.115
   26CHL1   C22 1906   6.101   4.308   9.136
   26CHL1  H22A 1907   6.210   4.289   9.144
   26CHL1  H22B 1908   6.046   4.218   9.170
   26CHL1   C23 1909   6.072   4.345   8.986
   26CHL1  H23A 1910   5.961   4.341   8.983
   26CHL1  H23B 1911   6.119   4.436   8.942
   26CHL1   C24 1912   6.115   4.230   8.893
   26CHL1  H24A 1913   6.217   4.250   8.852
   26CHL1  H24B 1914   6.134   4.139   8.953
   26CHL1   C25 1915   6.016   4.200   8.785
   26CHL1   H25 1916   5.916   4.164   8.817
   26CHL1   C26 1917   5.989   4.310   8.688
   26CHL1  H26A 1918   5.945   4.272   8.594
   26CHL1  H26B 1919   5.921   4.394   8.713
   26CHL1  H26C 1920   6.076   4.361   8.642
   26CHL1   C27 1921   6.075   4.079   8.710
   26CHL1  H27A 1922   6.011   4.058   8.621
   26CHL1  H27B 1923   6.180   4.098   8.682
   26CHL1  H27C 1924   6.077   3.992   8.780
   27CHL1    C3 1925   5.455   1.733  10.332
   27CHL1    H3 1926   5.534   1.809  10.348
   27CHL1    O3 1927   5.412   1.675  10.457
   27CHL1   H3' 1928   5.381   1.746  10.513
   27CHL1    C4 1929   5.336   1.803  10.267
   27CHL1   H4A 1930   5.254   1.728  10.259
   27CHL1   H4B 1931   5.293   1.869  10.346
   27CHL1    C5 1932   5.361   1.866  10.131
   27CHL1    C6 1933   5.337   1.997  10.100
   27CHL1    H6 1934   5.310   2.062  10.185
   27CHL1    C7 1935   5.350   2.050   9.963
   27CHL1   H7A 1936   5.261   2.105   9.925
   27CHL1   H7B 1937   5.440   2.114   9.952
   27CHL1    C8 1938   5.365   1.934   9.860
   27CHL1    H8 1939   5.265   1.888   9.844
   27CHL1   C14 1940   5.416   1.992   9.726
   27CHL1   H14 1941   5.503   2.055   9.754
   27CHL1   C15 1942   5.319   2.093   9.665
   27CHL1  H15A 1943   5.213   2.074   9.691
   27CHL1  H15B 1944   5.350   2.193   9.702
   27CHL1   C16 1945   5.350   2.082   9.513
   27CHL1  H16A 1946   5.268   2.022   9.469
   27CHL1  H16B 1947   5.357   2.180   9.460
   27CHL1   C17 1948   5.474   1.992   9.493
   27CHL1   H17 1949   5.565   2.055   9.501
   27CHL1   C13 1950   5.457   1.895   9.612
   27CHL1   C18 1951   5.336   1.796   9.588
   27CHL1  H18A 1952   5.372   1.723   9.513
   27CHL1  H18B 1953   5.303   1.727   9.669
   27CHL1  H18C 1954   5.241   1.845   9.558
   27CHL1   C12 1955   5.579   1.821   9.665
   27CHL1  H12A 1956   5.628   1.762   9.584
   27CHL1  H12B 1957   5.655   1.888   9.710
   27CHL1   C11 1958   5.539   1.740   9.796
   27CHL1  H11A 1959   5.474   1.655   9.766
   27CHL1  H11B 1960   5.628   1.704   9.853
   27CHL1    C9 1961   5.475   1.830   9.908
   27CHL1    H9 1962   5.559   1.897   9.933
   27CHL1   C10 1963   5.419   1.760  10.034
   27CHL1   C19 1964   5.313   1.660   9.991
   27CHL1  H19A 1965   5.228   1.709   9.938
   27CHL1  H19B 1966   5.345   1.584   9.917
   27CHL1  H19C 1967   5.277   1.605  10.080
   27CHL1    C1 1968   5.537   1.687  10.098
   27CHL1   H1A 1969   5.557   1.611  10.019
   27CHL1   H1B 1970   5.617   1.764  10.103
   27CHL1    C2 1971   5.505   1.623  10.235
   27CHL1   H2A 1972   5.601   1.583  10.273
   27CHL1   H2B 1973   5.430   1.542  10.219
   27CHL1   C20 1974   5.485   1.941   9.348
   27CHL1   H20 1975   5.390   1.890   9.322
   27CHL1   C21 1976   5.583   1.823   9.337
   27CHL1  H21A 1977   5.675   1.839   9.397
   27CHL1  H21B 1978   5.608   1.806   9.230
   27CHL1  H21C 1979   5.533   1.734   9.381
   27CHL1   C22 1980   5.512   2.058   9.249
   27CHL1  H22A 1981   5.429   2.133   9.252
   27CHL1  H22B 1982   5.605   2.100   9.293
   27CHL1   C23 1983   5.517   2.016   9.106
   27CHL1  H23A 1984   5.555   2.108   9.057
   27CHL1  H23B 1985   5.599   1.942   9.090
   27CHL1   C24 1986   5.390   1.971   9.037
   27CHL1  H24A 1987   5.371   1.874   9.087
   27CHL1  H24B 1988   5.298   2.031   9.056
   27CHL1   C25 1989   5.399   1.962   8.878
   27CHL1   H25 1990   5.372   2.064   8.842
   27CHL1   C26 1991   5.539   1.943   8.818
   27CHL1  H26A 1992   5.611   2.013   8.866
   27CHL1  H26B 1993   5.573   1.839   8.837
   27CHL1  H26C 1994   5.562   1.982   8.717
   27CHL1   C27 1995   5.303   1.865   8.814
   27CHL1  H27A 1996   5.341   1.761   8.825
   27CHL1  H27B 1997   5.202   1.878   8.858
   27CHL1  H27C 1998   5.309   1.884   8.705
   28CHL1    C3 1999   4.497   0.396  10.032
   28CHL1    H3 2000   4.442   0.491  10.013
   28CHL1    O3 2001   4.491   0.372  10.172
   28CHL1   H3' 2002   4.505   0.458  10.213
   28CHL1    C4 2003   4.423   0.284   9.956
   28CHL1   H4A 2004   4.467   0.190   9.994
   28CHL1   H4B 2005   4.317   0.285   9.992
   28CHL1    C5 2006   4.429   0.289   9.807
   28CHL1    C6 2007   4.323   0.276   9.730
   28CHL1    H6 2008   4.226   0.257   9.780
   28CHL1    C7 2009   4.314   0.273   9.586
   28CHL1   H7A 2010   4.251   0.195   9.539
   28CHL1   H7B 2011   4.274   0.373   9.560
   28CHL1    C8 2012   4.459   0.279   9.523
   28CHL1    H8 2013   4.490   0.174   9.508
   28CHL1   C14 2014   4.452   0.337   9.378
   28CHL1   H14 2015   4.421   0.443   9.387
   28CHL1   C15 2016   4.351   0.273   9.281
   28CHL1  H15A 2017   4.368   0.163   9.284
   28CHL1  H15B 2018   4.244   0.290   9.308
   28CHL1   C16 2019   4.388   0.328   9.141
   28CHL1  H16A 2020   4.380   0.245   9.067
   28CHL1  H16B 2021   4.323   0.415   9.115
   28CHL1   C17 2022   4.538   0.378   9.157
   28CHL1   H17 2023   4.527   0.489   9.162
   28CHL1   C13 2024   4.586   0.332   9.300
   28CHL1   C18 2025   4.652   0.196   9.298
   28CHL1  H18A 2026   4.657   0.144   9.395
   28CHL1  H18B 2027   4.602   0.122   9.231
   28CHL1  H18C 2028   4.755   0.197   9.257
   28CHL1   C12 2029   4.672   0.434   9.380
   28CHL1  H12A 2030   4.764   0.465   9.327
   28CHL1  H12B 2031   4.629   0.535   9.399
   28CHL1   C11 2032   4.692   0.385   9.525
   28CHL1  H11A 2033   4.748   0.289   9.522
   28CHL1  H11B 2034   4.749   0.464   9.579
   28CHL1    C9 2035   4.563   0.366   9.608
   28CHL1    H9 2036   4.512   0.464   9.609
   28CHL1   C10 2037   4.572   0.321   9.754
   28CHL1   C19 2038   4.658   0.190   9.757
   28CHL1  H19A 2039   4.602   0.115   9.698
   28CHL1  H19B 2040   4.754   0.217   9.710
   28CHL1  H19C 2041   4.671   0.153   9.861
   28CHL1    C1 2042   4.648   0.428   9.837
   28CHL1   H1A 2043   4.755   0.436   9.808
   28CHL1   H1B 2044   4.602   0.526   9.810
   28CHL1    C2 2045   4.638   0.408   9.989
   28CHL1   H2A 2046   4.700   0.485  10.039
   28CHL1   H2B 2047   4.686   0.315  10.027
   28CHL1   C20 2048   4.622   0.353   9.027
   28CHL1   H20 2049   4.645   0.244   9.021
   28CHL1   C21 2050   4.744   0.435   9.042
   28CHL1  H21A 2051   4.798   0.391   9.129
   28CHL1  H21B 2052   4.732   0.545   9.055
   28CHL1  H21C 2053   4.809   0.418   8.954
   28CHL1   C22 2054   4.550   0.397   8.895
   28CHL1  H22A 2055   4.446   0.360   8.888
   28CHL1  H22B 2056   4.543   0.508   8.888
   28CHL1   C23 2057   4.628   0.355   8.771
   28CHL1  H23A 2058   4.724   0.411   8.767
   28CHL1  H23B 2059   4.644   0.247   8.790
   28CHL1   C24 2060   4.540   0.368   8.647
   28CHL1  H24A 2061   4.446   0.309   8.656
   28CHL1  H24B 2062   4.514   0.474   8.630
   28CHL1   C25 2063   4.622   0.307   8.531
   28CHL1   H25 2064   4.723   0.351   8.538
   28CHL1   C26 2065   4.632   0.152   8.537
   28CHL1  H26A 2066   4.671   0.117   8.439
   28CHL1  H26B 2067   4.686   0.117   8.628
   28CHL1  H26C 2068   4.529   0.111   8.532
   28CHL1   C27 2069   4.569   0.355   8.399
   28CHL1  H27A 2070   4.461   0.332   8.384
   28CHL1  H27B 2071   4.583   0.465   8.397
   28CHL1  H27C 2072   4.633   0.328   8.313
   29CHL1    C3 2073   5.995   5.017   6.563
   29CHL1    H3 2074   5.945   4.934   6.616
   29CHL1    O3 2075   5.962   5.009   6.423
   29CHL1   H3' 2076   5.972   5.099   6.390
   29CHL1    C4 2077   5.945   5.157   6.619
   29CHL1   H4A 2078   5.977   5.225   6.537
   29CHL1   H4B 2079   5.835   5.176   6.614
   29CHL1    C5 2080   5.989   5.197   6.758
   29CHL1    C6 2081   5.911   5.262   6.842
   29CHL1    H6 2082   5.806   5.284   6.816
   29CHL1    C7 2083   5.948   5.314   6.978
   29CHL1   H7A 2084   5.915   5.418   7.000
   29CHL1   H7B 2085   5.890   5.256   7.053
   29CHL1    C8 2086   6.101   5.302   7.007
   29CHL1    H8 2087   6.152   5.392   6.965
   29CHL1   C14 2088   6.124   5.310   7.156
   29CHL1   H14 2089   6.073   5.223   7.203
   29CHL1   C15 2090   6.070   5.433   7.227
   29CHL1  H15A 2091   6.102   5.526   7.174
   29CHL1  H15B 2092   5.960   5.422   7.231
   29CHL1   C16 2093   6.136   5.427   7.370
   29CHL1  H16A 2094   6.158   5.525   7.418
   29CHL1  H16B 2095   6.071   5.374   7.443
   29CHL1   C17 2096   6.268   5.327   7.348
   29CHL1   H17 2097   6.233   5.227   7.383
   29CHL1   C13 2098   6.271   5.303   7.195
   29CHL1   C18 2099   6.351   5.421   7.123
   29CHL1  H18A 2100   6.309   5.520   7.153
   29CHL1  H18B 2101   6.452   5.424   7.168
   29CHL1  H18C 2102   6.361   5.414   7.012
   29CHL1   C12 2103   6.320   5.171   7.142
   29CHL1  H12A 2104   6.429   5.160   7.162
   29CHL1  H12B 2105   6.268   5.092   7.199
   29CHL1   C11 2106   6.302   5.157   6.981
   29CHL1  H11A 2107   6.369   5.233   6.935
   29CHL1  H11B 2108   6.341   5.057   6.953
   29CHL1    C9 2109   6.161   5.177   6.937
   29CHL1    H9 2110   6.101   5.093   6.979
   29CHL1   C10 2111   6.139   5.174   6.784
   29CHL1   C19 2112   6.219   5.296   6.722
   29CHL1  H19A 2113   6.222   5.304   6.611
   29CHL1  H19B 2114   6.184   5.392   6.766
   29CHL1  H19C 2115   6.325   5.300   6.756
   29CHL1    C1 2116   6.186   5.032   6.733
   29CHL1   H1A 2117   6.293   5.015   6.758
   29CHL1   H1B 2118   6.140   4.956   6.800
   29CHL1    C2 2119   6.149   4.999   6.587
   29CHL1   H2A 2120   6.181   4.894   6.571
   29CHL1   H2B 2121   6.208   5.054   6.511
   29CHL1   C20 2122   6.386   5.376   7.427
   29CHL1   H20 2123   6.416   5.472   7.378
   29CHL1   C21 2124   6.493   5.269   7.411
   29CHL1  H21A 2125   6.460   5.166   7.434
   29CHL1  H21B 2126   6.588   5.290   7.465
   29CHL1  H21C 2127   6.510   5.282   7.302
   29CHL1   C22 2128   6.356   5.395   7.583
   29CHL1  H22A 2129   6.435   5.461   7.625
   29CHL1  H22B 2130   6.269   5.462   7.600
   29CHL1   C23 2131   6.312   5.271   7.662
   29CHL1  H23A 2132   6.213   5.237   7.624
   29CHL1  H23B 2133   6.383   5.187   7.648
   29CHL1   C24 2134   6.331   5.283   7.816
   29CHL1  H24A 2135   6.320   5.182   7.860
   29CHL1  H24B 2136   6.430   5.327   7.843
   29CHL1   C25 2137   6.220   5.375   7.876
   29CHL1   H25 2138   6.213   5.463   7.810
   29CHL1   C26 2139   6.086   5.309   7.885
   29CHL1  H26A 2140   6.024   5.375   7.950
   29CHL1  H26B 2141   6.042   5.310   7.783
   29CHL1  H26C 2142   6.099   5.214   7.940
   29CHL1   C27 2143   6.252   5.435   8.018
   29CHL1  H27A 2144   6.340   5.500   8.003
   29CHL1  H27B 2145   6.164   5.492   8.055
   29CHL1  H27C 2146   6.264   5.348   8.087
   30CHL1    C3 2147   4.318   3.924   7.339
   30CHL1    H3 2148   4.423   3.903   7.371
   30CHL1    O3 2149   4.311   3.860   7.207
   30CHL1   H3' 2150   4.339   3.928   7.146
   30CHL1    C4 2151   4.215   3.854   7.428
   30CHL1   H4A 2152   4.116   3.870   7.380
   30CHL1   H4B 2153   4.228   3.745   7.411
   30CHL1    C5 2154   4.219   3.896   7.572
   30CHL1    C6 2155   4.251   3.812   7.676
   30CHL1    H6 2156   4.263   3.705   7.652
   30CHL1    C7 2157   4.252   3.858   7.823
   30CHL1   H7A 2158   4.201   3.804   7.906
   30CHL1   H7B 2159   4.358   3.851   7.854
   30CHL1    C8 2160   4.205   4.003   7.841
   30CHL1    H8 2161   4.094   4.001   7.843
   30CHL1   C14 2162   4.255   4.056   7.975
   30CHL1   H14 2163   4.366   4.052   7.969
   30CHL1   C15 2164   4.241   3.969   8.098
   30CHL1  H15A 2165   4.138   3.928   8.096
   30CHL1  H15B 2166   4.320   3.892   8.091
   30CHL1   C16 2167   4.270   4.060   8.219
   30CHL1  H16A 2168   4.186   4.063   8.292
   30CHL1  H16B 2169   4.355   4.033   8.286
   30CHL1   C17 2170   4.288   4.208   8.152
   30CHL1   H17 2171   4.396   4.212   8.126
   30CHL1   C13 2172   4.221   4.202   8.013
   30CHL1   C18 2173   4.069   4.211   8.034
   30CHL1  H18A 2174   4.028   4.146   8.114
   30CHL1  H18B 2175   4.030   4.314   8.044
   30CHL1  H18C 2176   4.021   4.176   7.940
   30CHL1   C12 2177   4.267   4.293   7.904
   30CHL1  H12A 2178   4.236   4.397   7.928
   30CHL1  H12B 2179   4.378   4.298   7.896
   30CHL1   C11 2180   4.216   4.246   7.763
   30CHL1  H11A 2181   4.106   4.256   7.774
   30CHL1  H11B 2182   4.237   4.323   7.685
   30CHL1    C9 2183   4.252   4.095   7.729
   30CHL1    H9 2184   4.363   4.091   7.727
   30CHL1   C10 2185   4.200   4.051   7.589
   30CHL1   C19 2186   4.051   4.088   7.579
   30CHL1  H19A 2187   4.008   4.057   7.482
   30CHL1  H19B 2188   4.002   4.045   7.670
   30CHL1  H19C 2189   4.016   4.192   7.592
   30CHL1    C1 2190   4.285   4.132   7.481
   30CHL1   H1A 2191   4.224   4.225   7.481
   30CHL1   H1B 2192   4.389   4.149   7.517
   30CHL1    C2 2193   4.294   4.071   7.338
   30CHL1   H2A 2194   4.372   4.129   7.284
   30CHL1   H2B 2195   4.197   4.087   7.285
   30CHL1   C20 2196   4.272   4.329   8.236
   30CHL1   H20 2197   4.260   4.423   8.178
   30CHL1   C21 2198   4.399   4.350   8.318
   30CHL1  H21A 2199   4.385   4.436   8.386
   30CHL1  H21B 2200   4.494   4.369   8.264
   30CHL1  H21C 2201   4.409   4.262   8.386
   30CHL1   C22 2202   4.150   4.322   8.333
   30CHL1  H22A 2203   4.057   4.275   8.294
   30CHL1  H22B 2204   4.186   4.265   8.421
   30CHL1   C23 2205   4.106   4.459   8.386
   30CHL1  H23A 2206   4.190   4.527   8.413
   30CHL1  H23B 2207   4.052   4.508   8.303
   30CHL1   C24 2208   4.025   4.441   8.515
   30CHL1  H24A 2209   3.922   4.403   8.498
   30CHL1  H24B 2210   4.068   4.369   8.588
   30CHL1   C25 2211   3.993   4.575   8.597
   30CHL1   H25 2212   3.950   4.541   8.694
   30CHL1   C26 2213   4.118   4.647   8.630
   30CHL1  H26A 2214   4.097   4.720   8.712
   30CHL1  H26B 2215   4.199   4.575   8.656
   30CHL1  H26C 2216   4.156   4.697   8.539
   30CHL1   C27 2217   3.883   4.659   8.527
   30CHL1  H27A 2218   3.913   4.766   8.535
   30CHL1  H27B 2219   3.859   4.641   8.420
   30CHL1  H27C 2220   3.789   4.650   8.586
   31CHL1    C3 2221   3.627   5.845   6.657
   31CHL1    H3 2222   3.735   5.825   6.641
   31CHL1    O3 2223   3.573   5.879   6.530
   31CHL1   H3' 2224   3.604   5.803   6.479
   31CHL1    C4 2225   3.562   5.712   6.699
   31CHL1   H4A 2226   3.455   5.738   6.709
   31CHL1   H4B 2227   3.568   5.631   6.624
   31CHL1    C5 2228   3.612   5.668   6.832
   31CHL1    C6 2229   3.674   5.550   6.851
   31CHL1    H6 2230   3.671   5.475   6.770
   31CHL1    C7 2231   3.721   5.508   6.984
   31CHL1   H7A 2232   3.711   5.400   7.005
   31CHL1   H7B 2233   3.832   5.516   6.975
   31CHL1    C8 2234   3.671   5.591   7.109
   31CHL1    H8 2235   3.566   5.560   7.129
   31CHL1   C14 2236   3.765   5.577   7.225
   31CHL1   H14 2237   3.860   5.627   7.197
   31CHL1   C15 2238   3.812   5.428   7.251
   31CHL1  H15A 2239   3.726   5.359   7.255
   31CHL1  H15B 2240   3.891   5.397   7.180
   31CHL1   C16 2241   3.869   5.430   7.397
   31CHL1  H16A 2242   3.800   5.367   7.458
   31CHL1  H16B 2243   3.972   5.392   7.410
   31CHL1   C17 2244   3.845   5.579   7.448
   31CHL1   H17 2245   3.938   5.634   7.420
   31CHL1   C13 2246   3.725   5.627   7.362
   31CHL1   C18 2247   3.588   5.567   7.410
   31CHL1  H18A 2248   3.509   5.603   7.340
   31CHL1  H18B 2249   3.589   5.456   7.411
   31CHL1  H18C 2250   3.562   5.603   7.511
   31CHL1   C12 2251   3.705   5.779   7.330
   31CHL1  H12A 2252   3.659   5.832   7.417
   31CHL1  H12B 2253   3.808   5.821   7.334
   31CHL1   C11 2254   3.624   5.808   7.197
   31CHL1  H11A 2255   3.523   5.767   7.216
   31CHL1  H11B 2256   3.617   5.916   7.173
   31CHL1    C9 2257   3.672   5.740   7.071
   31CHL1    H9 2258   3.780   5.763   7.055
   31CHL1   C10 2259   3.600   5.782   6.947
   31CHL1   C19 2260   3.450   5.808   6.967
   31CHL1  H19A 2261   3.438   5.901   7.026
   31CHL1  H19B 2262   3.377   5.816   6.883
   31CHL1  H19C 2263   3.405   5.732   7.035
   31CHL1    C1 2264   3.669   5.912   6.890
   31CHL1   H1A 2265   3.658   5.994   6.964
   31CHL1   H1B 2266   3.778   5.895   6.876
   31CHL1    C2 2267   3.615   5.956   6.756
   31CHL1   H2A 2268   3.676   6.041   6.719
   31CHL1   H2B 2269   3.510   5.986   6.771
   31CHL1   C20 2270   3.836   5.590   7.603
   31CHL1   H20 2271   3.746   5.531   7.627
   31CHL1   C21 2272   3.818   5.737   7.630
   31CHL1  H21A 2273   3.726   5.775   7.580
   31CHL1  H21B 2274   3.908   5.799   7.604
   31CHL1  H21C 2275   3.806   5.760   7.738
   31CHL1   C22 2276   3.957   5.527   7.677
   31CHL1  H22A 2277   3.960   5.417   7.657
   31CHL1  H22B 2278   4.045   5.576   7.630
   31CHL1   C23 2279   3.958   5.536   7.830
   31CHL1  H23A 2280   3.955   5.641   7.867
   31CHL1  H23B 2281   3.872   5.475   7.865
   31CHL1   C24 2282   4.088   5.478   7.881
   31CHL1  H24A 2283   4.094   5.370   7.856
   31CHL1  H24B 2284   4.170   5.533   7.829
   31CHL1   C25 2285   4.112   5.504   8.031
   31CHL1   H25 2286   4.126   5.614   8.043
   31CHL1   C26 2287   3.986   5.462   8.114
   31CHL1  H26A 2288   3.943   5.372   8.065
   31CHL1  H26B 2289   4.016   5.436   8.218
   31CHL1  H26C 2290   3.910   5.542   8.122
   31CHL1   C27 2291   4.231   5.421   8.086
   31CHL1  H27A 2292   4.305   5.435   8.004
   31CHL1  H27B 2293   4.213   5.312   8.087
   31CHL1  H27C 2294   4.265   5.477   8.176
   32CHL1    C3 2295   4.755   3.954   6.923
   32CHL1    H3 2296   4.651   3.988   6.947
   32CHL1    O3 2297   4.782   3.939   6.782
   32CHL1   H3' 2298   4.707   3.907   6.732
   32CHL1    C4 2299   4.859   4.049   6.983
   32CHL1   H4A 2300   4.958   4.007   6.958
   32CHL1   H4B 2301   4.857   4.141   6.921
   32CHL1    C5 2302   4.829   4.063   7.127
   32CHL1    C6 2303   4.789   4.178   7.181
   32CHL1    H6 2304   4.761   4.263   7.117
   32CHL1    C7 2305   4.759   4.210   7.324
   32CHL1   H7A 2306   4.809   4.305   7.350
   32CHL1   H7B 2307   4.650   4.210   7.346
   32CHL1    C8 2308   4.810   4.093   7.416
   32CHL1    H8 2309   4.915   4.114   7.445
   32CHL1   C14 2310   4.735   4.102   7.556
   32CHL1   H14 2311   4.628   4.077   7.539
   32CHL1   C15 2312   4.747   4.245   7.619
   32CHL1  H15A 2313   4.849   4.286   7.606
   32CHL1  H15B 2314   4.673   4.311   7.570
   32CHL1   C16 2315   4.731   4.205   7.773
   32CHL1  H16A 2316   4.814   4.260   7.822
   32CHL1  H16B 2317   4.642   4.249   7.822
   32CHL1   C17 2318   4.709   4.057   7.786
   32CHL1   H17 2319   4.601   4.031   7.780
   32CHL1   C13 2320   4.782   3.998   7.661
   32CHL1   C18 2321   4.936   4.001   7.693
   32CHL1  H18A 2322   4.992   3.966   7.604
   32CHL1  H18B 2323   4.977   4.101   7.716
   32CHL1  H18C 2324   4.950   3.928   7.776
   32CHL1   C12 2325   4.734   3.864   7.601
   32CHL1  H12A 2326   4.766   3.783   7.670
   32CHL1  H12B 2327   4.623   3.857   7.602
   32CHL1   C11 2328   4.795   3.833   7.460
   32CHL1  H11A 2329   4.903   3.815   7.475
   32CHL1  H11B 2330   4.746   3.742   7.419
   32CHL1    C9 2331   4.781   3.956   7.358
   32CHL1    H9 2332   4.671   3.960   7.339
   32CHL1   C10 2333   4.836   3.941   7.220
   32CHL1   C19 2334   4.979   3.898   7.231
   32CHL1  H19A 2335   4.984   3.809   7.297
   32CHL1  H19B 2336   5.014   3.860   7.133
   32CHL1  H19C 2337   5.052   3.975   7.264
   32CHL1    C1 2338   4.755   3.828   7.148
   32CHL1   H1A 2339   4.776   3.738   7.209
   32CHL1   H1B 2340   4.645   3.841   7.158
   32CHL1    C2 2341   4.769   3.822   6.991
   32CHL1   H2A 2342   4.694   3.746   6.961
   32CHL1   H2B 2343   4.872   3.779   6.983
   32CHL1   C20 2344   4.755   4.004   7.927
   32CHL1   H20 2345   4.865   4.020   7.928
   32CHL1   C21 2346   4.717   3.856   7.954
   32CHL1  H21A 2347   4.758   3.785   7.879
   32CHL1  H21B 2348   4.607   3.848   7.968
   32CHL1  H21C 2349   4.749   3.809   8.049
   32CHL1   C22 2350   4.681   4.081   8.039
   32CHL1  H22A 2351   4.694   4.190   8.023
   32CHL1  H22B 2352   4.575   4.053   8.027
   32CHL1   C23 2353   4.744   4.051   8.179
   32CHL1  H23A 2354   4.756   3.948   8.219
   32CHL1  H23B 2355   4.852   4.076   8.163
   32CHL1   C24 2356   4.688   4.138   8.287
   32CHL1  H24A 2357   4.699   4.241   8.247
   32CHL1  H24B 2358   4.581   4.107   8.285
   32CHL1   C25 2359   4.753   4.119   8.427
   32CHL1   H25 2360   4.863   4.116   8.411
   32CHL1   C26 2361   4.720   4.232   8.530
   32CHL1  H26A 2362   4.776   4.224   8.626
   32CHL1  H26B 2363   4.743   4.335   8.496
   32CHL1  H26C 2364   4.612   4.223   8.557
   32CHL1   C27 2365   4.726   3.985   8.497
   32CHL1  H27A 2366   4.618   3.962   8.489
   32CHL1  H27B 2367   4.781   3.904   8.444
   32CHL1  H27C 2368   4.757   3.984   8.604
   33CHL1    C3 2369   5.578   4.296   6.712
   33CHL1    H3 2370   5.521   4.204   6.687
   33CHL1    O3 2371   5.614   4.366   6.595
   33CHL1   H3' 2372   5.658   4.441   6.637
   33CHL1    C4 2373   5.479   4.386   6.788
   33CHL1   H4A 2374   5.529   4.484   6.804
   33CHL1   H4B 2375   5.389   4.409   6.727
   33CHL1    C5 2376   5.437   4.345   6.923
   33CHL1    C6 2377   5.306   4.336   6.961
   33CHL1    H6 2378   5.233   4.358   6.881
   33CHL1    C7 2379   5.259   4.300   7.097
   33CHL1   H7A 2380   5.181   4.366   7.140
   33CHL1   H7B 2381   5.217   4.199   7.077
   33CHL1    C8 2382   5.378   4.288   7.202
   33CHL1    H8 2383   5.389   4.394   7.234
   33CHL1   C14 2384   5.332   4.208   7.318
   33CHL1   H14 2385   5.308   4.109   7.274
   33CHL1   C15 2386   5.198   4.246   7.383
   33CHL1  H15A 2387   5.202   4.350   7.422
   33CHL1  H15B 2388   5.112   4.232   7.314
   33CHL1   C16 2389   5.195   4.134   7.494
   33CHL1  H16A 2390   5.131   4.178   7.573
   33CHL1  H16B 2391   5.148   4.044   7.450
   33CHL1   C17 2392   5.338   4.098   7.536
   33CHL1   H17 2393   5.347   3.992   7.503
   33CHL1   C13 2394   5.425   4.172   7.430
   33CHL1   C18 2395   5.461   4.302   7.495
   33CHL1  H18A 2396   5.531   4.290   7.581
   33CHL1  H18B 2397   5.520   4.373   7.432
   33CHL1  H18C 2398   5.370   4.350   7.537
   33CHL1   C12 2399   5.543   4.106   7.363
   33CHL1  H12A 2400   5.623   4.081   7.436
   33CHL1  H12B 2401   5.506   4.008   7.328
   33CHL1   C11 2402   5.603   4.190   7.257
   33CHL1  H11A 2403   5.646   4.286   7.294
   33CHL1  H11B 2404   5.682   4.128   7.212
   33CHL1    C9 2405   5.501   4.225   7.144
   33CHL1    H9 2406   5.456   4.128   7.112
   33CHL1   C10 2407   5.556   4.297   7.018
   33CHL1   C19 2408   5.635   4.428   7.063
   33CHL1  H19A 2409   5.724   4.394   7.120
   33CHL1  H19B 2410   5.667   4.497   6.983
   33CHL1  H19C 2411   5.573   4.481   7.138
   33CHL1    C1 2412   5.643   4.204   6.938
   33CHL1   H1A 2413   5.730   4.166   6.996
   33CHL1   H1B 2414   5.582   4.112   6.921
   33CHL1    C2 2415   5.691   4.251   6.798
   33CHL1   H2A 2416   5.762   4.178   6.753
   33CHL1   H2B 2417   5.744   4.345   6.822
   33CHL1   C20 2418   5.375   4.100   7.684
   33CHL1   H20 2419   5.360   4.206   7.714
   33CHL1   C21 2420   5.519   4.043   7.691
   33CHL1  H21A 2421   5.525   3.941   7.648
   33CHL1  H21B 2422   5.548   4.023   7.797
   33CHL1  H21C 2423   5.603   4.101   7.647
   33CHL1   C22 2424   5.284   4.010   7.766
   33CHL1  H22A 2425   5.178   4.041   7.753
   33CHL1  H22B 2426   5.307   3.904   7.742
   33CHL1   C23 2427   5.300   4.011   7.919
   33CHL1  H23A 2428   5.407   3.985   7.934
   33CHL1  H23B 2429   5.264   4.110   7.954
   33CHL1   C24 2430   5.204   3.904   7.989
   33CHL1  H24A 2431   5.110   3.891   7.932
   33CHL1  H24B 2432   5.254   3.805   7.981
   33CHL1   C25 2433   5.174   3.933   8.139
   33CHL1   H25 2434   5.118   4.029   8.133
   33CHL1   C26 2435   5.081   3.822   8.201
   33CHL1  H26A 2436   5.001   3.798   8.127
   33CHL1  H26B 2437   5.138   3.728   8.214
   33CHL1  H26C 2438   5.032   3.856   8.295
   33CHL1   C27 2439   5.303   3.954   8.225
   33CHL1  H27A 2440   5.358   3.858   8.239
   33CHL1  H27B 2441   5.373   4.032   8.189
   33CHL1  H27C 2442   5.268   3.988   8.325
   34CHL1    C3 2443   0.196   2.866   7.115
   34CHL1    H3 2444   0.296   2.917   7.116
   34CHL1    O3 2445   0.166   2.838   6.980
   34CHL1   H3' 2446   0.216   2.758   6.961
   34CHL1    C4 2447   0.216   2.735   7.191
   34CHL1   H4A 2448   0.134   2.660   7.186
   34CHL1   H4B 2449   0.303   2.683   7.143
   34CHL1    C5 2450   0.239   2.763   7.337
   34CHL1    C6 2451   0.350   2.717   7.401
   34CHL1    H6 2452   0.417   2.650   7.344
   34CHL1    C7 2453   0.378   2.726   7.546
   34CHL1   H7A 2454   0.433   2.636   7.582
   34CHL1   H7B 2455   0.456   2.805   7.558
   34CHL1    C8 2456   0.247   2.759   7.627
   34CHL1    H8 2457   0.184   2.669   7.639
   34CHL1   C14 2458   0.288   2.820   7.761
   34CHL1   H14 2459   0.328   2.919   7.733
   34CHL1   C15 2460   0.393   2.751   7.856
   34CHL1  H15A 2461   0.395   2.641   7.837
   34CHL1  H15B 2462   0.489   2.802   7.839
   34CHL1   C16 2463   0.357   2.781   8.002
   34CHL1  H16A 2464   0.323   2.684   8.044
   34CHL1  H16B 2465   0.437   2.817   8.070
   34CHL1   C17 2466   0.245   2.886   7.995
   34CHL1   H17 2467   0.294   2.983   7.972
   34CHL1   C13 2468   0.169   2.852   7.859
   34CHL1   C18 2469   0.078   2.732   7.876
   34CHL1  H18A 2470  -0.012   2.773   7.927
   34CHL1  H18B 2471   0.058   2.678   7.781
   34CHL1  H18C 2472   0.116   2.652   7.943
   34CHL1   C12 2473   0.082   2.967   7.789
   34CHL1  H12A 2474  -0.012   2.984   7.845
   34CHL1  H12B 2475   0.143   3.060   7.788
   34CHL1   C11 2476   0.040   2.928   7.641
   34CHL1  H11A 2477  -0.033   2.847   7.661
   34CHL1  H11B 2478  -0.020   3.017   7.611
   34CHL1    C9 2479   0.162   2.875   7.563
   34CHL1    H9 2480   0.226   2.966   7.563
   34CHL1   C10 2481   0.124   2.843   7.410
   34CHL1   C19 2482  -0.005   2.759   7.409
   34CHL1  H19A 2483   0.003   2.681   7.488
   34CHL1  H19B 2484  -0.091   2.825   7.426
   34CHL1  H19C 2485  -0.021   2.706   7.312
   34CHL1    C1 2486   0.108   2.973   7.325
   34CHL1   H1A 2487   0.026   3.038   7.364
   34CHL1   H1B 2488   0.204   3.027   7.341
   34CHL1    C2 2489   0.079   2.941   7.177
   34CHL1   H2A 2490   0.072   3.043   7.135
   34CHL1   H2B 2491  -0.011   2.878   7.159
   34CHL1   C20 2492   0.161   2.904   8.125
   34CHL1   H20 2493   0.065   2.853   8.100
   34CHL1   C21 2494   0.140   3.053   8.151
   34CHL1  H21A 2495   0.120   3.106   8.055
   34CHL1  H21B 2496   0.229   3.104   8.193
   34CHL1  H21C 2497   0.048   3.076   8.208
   34CHL1   C22 2498   0.209   2.834   8.263
   34CHL1  H22A 2499   0.216   2.724   8.250
   34CHL1  H22B 2500   0.314   2.868   8.275
   34CHL1   C23 2501   0.116   2.851   8.385
   34CHL1  H23A 2502   0.009   2.862   8.355
   34CHL1  H23B 2503   0.131   2.754   8.438
   34CHL1   C24 2504   0.166   2.963   8.474
   34CHL1  H24A 2505   0.272   2.942   8.501
   34CHL1  H24B 2506   0.171   3.062   8.422
   34CHL1   C25 2507   0.094   2.982   8.604
   34CHL1   H25 2508   0.110   2.886   8.658
   34CHL1   C26 2509   0.150   3.089   8.701
   34CHL1  H26A 2510   0.252   3.064   8.738
   34CHL1  H26B 2511   0.151   3.187   8.647
   34CHL1  H26C 2512   0.084   3.097   8.789
   34CHL1   C27 2513  -0.062   2.986   8.587
   34CHL1  H27A 2514  -0.097   3.052   8.505
   34CHL1  H27B 2515  -0.100   2.884   8.565
   34CHL1  H27C 2516  -0.104   3.018   8.685
   35CHL1    C3 2517   3.136   3.877   7.281
   35CHL1    H3 2518   3.088   3.777   7.289
   35CHL1    O3 2519   3.141   3.921   7.145
   35CHL1   H3' 2520   3.222   3.973   7.138
   35CHL1    C4 2521   3.056   3.977   7.365
   35CHL1   H4A 2522   3.090   4.083   7.354
   35CHL1   H4B 2523   2.953   3.967   7.325
   35CHL1    C5 2524   3.056   3.938   7.509
   35CHL1    C6 2525   2.946   3.918   7.584
   35CHL1    H6 2526   2.846   3.932   7.540
   35CHL1    C7 2527   2.949   3.897   7.735
   35CHL1   H7A 2528   2.876   3.966   7.783
   35CHL1   H7B 2529   2.938   3.788   7.748
   35CHL1    C8 2530   3.085   3.948   7.801
   35CHL1    H8 2531   3.090   4.058   7.808
   35CHL1   C14 2532   3.092   3.898   7.940
   35CHL1   H14 2533   3.073   3.788   7.939
   35CHL1   C15 2534   2.983   3.953   8.034
   35CHL1  H15A 2535   2.969   4.062   8.017
   35CHL1  H15B 2536   2.885   3.901   8.027
   35CHL1   C16 2537   3.035   3.917   8.170
   35CHL1  H16A 2538   3.037   4.009   8.232
   35CHL1  H16B 2539   2.972   3.848   8.230
   35CHL1   C17 2540   3.179   3.859   8.146
   35CHL1   H17 2541   3.170   3.748   8.145
   35CHL1   C13 2542   3.220   3.917   8.006
   35CHL1   C18 2543   3.254   4.073   8.011
   35CHL1  H18A 2544   3.312   4.098   7.919
   35CHL1  H18B 2545   3.168   4.143   8.020
   35CHL1  H18C 2546   3.314   4.094   8.102
   35CHL1   C12 2547   3.331   3.837   7.935
   35CHL1  H12A 2548   3.430   3.853   7.984
   35CHL1  H12B 2549   3.304   3.729   7.933
   35CHL1   C11 2550   3.337   3.873   7.784
   35CHL1  H11A 2551   3.393   3.969   7.777
   35CHL1  H11B 2552   3.406   3.806   7.728
   35CHL1    C9 2553   3.195   3.878   7.724
   35CHL1    H9 2554   3.164   3.772   7.717
   35CHL1   C10 2555   3.200   3.921   7.571
   35CHL1   C19 2556   3.262   4.062   7.557
   35CHL1  H19A 2557   3.368   4.046   7.585
   35CHL1  H19B 2558   3.268   4.093   7.450
   35CHL1  H19C 2559   3.209   4.135   7.622
   35CHL1    C1 2560   3.283   3.830   7.479
   35CHL1   H1A 2561   3.387   3.843   7.514
   35CHL1   H1B 2562   3.266   3.721   7.494
   35CHL1    C2 2563   3.279   3.866   7.330
   35CHL1   H2A 2564   3.332   3.790   7.269
   35CHL1   H2B 2565   3.335   3.959   7.308
   35CHL1   C20 2566   3.265   3.875   8.277
   35CHL1   H20 2567   3.292   3.983   8.276
   35CHL1   C21 2568   3.390   3.789   8.261
   35CHL1  H21A 2569   3.456   3.808   8.348
   35CHL1  H21B 2570   3.453   3.815   8.174
   35CHL1  H21C 2571   3.359   3.682   8.261
   35CHL1   C22 2572   3.193   3.847   8.403
   35CHL1  H22A 2573   3.097   3.898   8.423
   35CHL1  H22B 2574   3.175   3.738   8.392
   35CHL1   C23 2575   3.263   3.852   8.544
   35CHL1  H23A 2576   3.177   3.833   8.612
   35CHL1  H23B 2577   3.339   3.778   8.575
   35CHL1   C24 2578   3.308   3.995   8.590
   35CHL1  H24A 2579   3.401   4.023   8.536
   35CHL1  H24B 2580   3.232   4.072   8.567
   35CHL1   C25 2581   3.333   4.005   8.743
   35CHL1   H25 2582   3.266   3.935   8.798
   35CHL1   C26 2583   3.472   3.968   8.789
   35CHL1  H26A 2584   3.499   3.975   8.897
   35CHL1  H26B 2585   3.504   3.868   8.753
   35CHL1  H26C 2586   3.542   4.040   8.743
   35CHL1   C27 2587   3.294   4.155   8.777
   35CHL1  H27A 2588   3.277   4.160   8.887
   35CHL1  H27B 2589   3.193   4.166   8.731
   35CHL1  H27C 2590   3.375   4.226   8.749
   36CHL1    C3 2591   3.673   3.203   7.111
   36CHL1    H3 2592   3.778   3.240   7.107
   36CHL1    O3 2593   3.659   3.175   6.969
   36CHL1   H3' 2594   3.570   3.203   6.947
   36CHL1    C4 2595   3.646   3.075   7.186
   36CHL1   H4A 2596   3.548   3.030   7.160
   36CHL1   H4B 2597   3.719   2.996   7.156
   36CHL1    C5 2598   3.648   3.105   7.339
   36CHL1    C6 2599   3.738   3.035   7.412
   36CHL1    H6 2600   3.799   2.955   7.367
   36CHL1    C7 2601   3.741   3.056   7.559
   36CHL1   H7A 2602   3.729   2.955   7.604
   36CHL1   H7B 2603   3.840   3.095   7.592
   36CHL1    C8 2604   3.625   3.144   7.619
   36CHL1    H8 2605   3.536   3.077   7.621
   36CHL1   C14 2606   3.658   3.193   7.765
   36CHL1   H14 2607   3.738   3.268   7.750
   36CHL1   C15 2608   3.712   3.099   7.870
   36CHL1  H15A 2609   3.659   3.002   7.874
   36CHL1  H15B 2610   3.819   3.072   7.852
   36CHL1   C16 2611   3.689   3.173   7.998
   36CHL1  H16A 2612   3.631   3.104   8.064
   36CHL1  H16B 2613   3.784   3.200   8.047
   36CHL1   C17 2614   3.604   3.304   7.973
   36CHL1   H17 2615   3.668   3.394   7.960
   36CHL1   C13 2616   3.549   3.276   7.834
   36CHL1   C18 2617   3.426   3.184   7.840
   36CHL1  H18A 2618   3.403   3.125   7.749
   36CHL1  H18B 2619   3.430   3.111   7.924
   36CHL1  H18C 2620   3.341   3.251   7.864
   36CHL1   C12 2621   3.527   3.398   7.746
   36CHL1  H12A 2622   3.447   3.460   7.792
   36CHL1  H12B 2623   3.613   3.468   7.749
   36CHL1   C11 2624   3.486   3.364   7.600
   36CHL1  H11A 2625   3.390   3.308   7.606
   36CHL1  H11B 2626   3.481   3.457   7.540
   36CHL1    C9 2627   3.586   3.266   7.533
   36CHL1    H9 2628   3.687   3.312   7.532
   36CHL1   C10 2629   3.565   3.228   7.388
   36CHL1   C19 2630   3.419   3.165   7.378
   36CHL1  H19A 2631   3.419   3.080   7.450
   36CHL1  H19B 2632   3.339   3.237   7.407
   36CHL1  H19C 2633   3.394   3.128   7.276
   36CHL1    C1 2634   3.583   3.348   7.287
   36CHL1   H1A 2635   3.502   3.423   7.295
   36CHL1   H1B 2636   3.671   3.412   7.307
   36CHL1    C2 2637   3.571   3.312   7.142
   36CHL1   H2A 2638   3.591   3.401   7.080
   36CHL1   H2B 2639   3.471   3.275   7.112
   36CHL1   C20 2640   3.508   3.327   8.089
   36CHL1   H20 2641   3.424   3.255   8.079
   36CHL1   C21 2642   3.454   3.470   8.074
   36CHL1  H21A 2643   3.393   3.472   7.981
   36CHL1  H21B 2644   3.534   3.547   8.076
   36CHL1  H21C 2645   3.386   3.481   8.162
   36CHL1   C22 2646   3.572   3.297   8.231
   36CHL1  H22A 2647   3.567   3.188   8.254
   36CHL1  H22B 2648   3.680   3.320   8.214
   36CHL1   C23 2649   3.533   3.385   8.348
   36CHL1  H23A 2650   3.552   3.493   8.331
   36CHL1  H23B 2651   3.424   3.378   8.366
   36CHL1   C24 2652   3.596   3.347   8.485
   36CHL1  H24A 2653   3.539   3.256   8.516
   36CHL1  H24B 2654   3.697   3.311   8.460
   36CHL1   C25 2655   3.603   3.445   8.602
   36CHL1   H25 2656   3.664   3.531   8.567
   36CHL1   C26 2657   3.466   3.481   8.657
   36CHL1  H26A 2658   3.408   3.394   8.694
   36CHL1  H26B 2659   3.485   3.549   8.742
   36CHL1  H26C 2660   3.404   3.540   8.586
   36CHL1   C27 2661   3.687   3.383   8.712
   36CHL1  H27A 2662   3.792   3.369   8.679
   36CHL1  H27B 2663   3.694   3.453   8.798
   36CHL1  H27C 2664   3.641   3.285   8.736
   37CHL1    C3 2665   0.649   5.340   6.954
   37CHL1    H3 2666   0.757   5.349   6.976
   37CHL1    O3 2667   0.621   5.347   6.823
   37CHL1   H3' 2668   0.528   5.335   6.805
   37CHL1    C4 2669   0.596   5.200   7.014
   37CHL1   H4A 2670   0.495   5.176   6.976
   37CHL1   H4B 2671   0.665   5.119   6.983
   37CHL1    C5 2672   0.603   5.203   7.168
   37CHL1    C6 2673   0.665   5.110   7.235
   37CHL1    H6 2674   0.728   5.032   7.190
   37CHL1    C7 2675   0.657   5.106   7.386
   37CHL1   H7A 2676   0.634   5.003   7.423
   37CHL1   H7B 2677   0.756   5.137   7.425
   37CHL1    C8 2678   0.552   5.194   7.455
   37CHL1    H8 2679   0.451   5.149   7.447
   37CHL1   C14 2680   0.578   5.208   7.602
   37CHL1   H14 2681   0.670   5.270   7.611
   37CHL1   C15 2682   0.610   5.084   7.686
   37CHL1  H15A 2683   0.549   5.004   7.640
   37CHL1  H15B 2684   0.719   5.063   7.679
   37CHL1   C16 2685   0.558   5.118   7.825
   37CHL1  H16A 2686   0.462   5.064   7.842
   37CHL1  H16B 2687   0.623   5.091   7.910
   37CHL1   C17 2688   0.524   5.272   7.831
   37CHL1   H17 2689   0.621   5.325   7.840
   37CHL1   C13 2690   0.483   5.298   7.681
   37CHL1   C18 2691   0.335   5.252   7.665
   37CHL1  H18A 2692   0.309   5.232   7.559
   37CHL1  H18B 2693   0.312   5.161   7.725
   37CHL1  H18C 2694   0.270   5.328   7.714
   37CHL1   C12 2695   0.507   5.435   7.613
   37CHL1  H12A 2696   0.446   5.513   7.663
   37CHL1  H12B 2697   0.616   5.456   7.614
   37CHL1   C11 2698   0.474   5.436   7.461
   37CHL1  H11A 2699   0.365   5.439   7.439
   37CHL1  H11B 2700   0.512   5.536   7.432
   37CHL1    C9 2701   0.556   5.329   7.388
   37CHL1    H9 2702   0.662   5.364   7.390
   37CHL1   C10 2703   0.531   5.312   7.237
   37CHL1   C19 2704   0.384   5.307   7.212
   37CHL1  H19A 2705   0.356   5.307   7.104
   37CHL1  H19B 2706   0.345   5.212   7.252
   37CHL1  H19C 2707   0.327   5.395   7.251
   37CHL1    C1 2708   0.579   5.440   7.169
   37CHL1   H1A 2709   0.502   5.513   7.201
   37CHL1   H1B 2710   0.681   5.475   7.199
   37CHL1    C2 2711   0.571   5.451   7.023
   37CHL1   H2A 2712   0.616   5.549   6.995
   37CHL1   H2B 2713   0.471   5.448   6.975
   37CHL1   C20 2714   0.429   5.314   7.944
   37CHL1   H20 2715   0.327   5.273   7.930
   37CHL1   C21 2716   0.421   5.470   7.969
   37CHL1  H21A 2717   0.366   5.527   7.890
   37CHL1  H21B 2718   0.528   5.500   7.958
   37CHL1  H21C 2719   0.377   5.496   8.067
   37CHL1   C22 2720   0.477   5.244   8.076
   37CHL1  H22A 2721   0.405   5.280   8.152
   37CHL1  H22B 2722   0.459   5.135   8.062
   37CHL1   C23 2723   0.623   5.273   8.122
   37CHL1  H23A 2724   0.685   5.200   8.067
   37CHL1  H23B 2725   0.647   5.375   8.086
   37CHL1   C24 2726   0.649   5.263   8.271
   37CHL1  H24A 2727   0.758   5.280   8.287
   37CHL1  H24B 2728   0.586   5.342   8.316
   37CHL1   C25 2729   0.620   5.125   8.332
   37CHL1   H25 2730   0.510   5.118   8.345
   37CHL1   C26 2731   0.687   5.009   8.252
   37CHL1  H26A 2732   0.651   4.911   8.291
   37CHL1  H26B 2733   0.648   5.008   8.148
   37CHL1  H26C 2734   0.797   5.001   8.263
   37CHL1   C27 2735   0.662   5.119   8.481
   37CHL1  H27A 2736   0.611   5.203   8.534
   37CHL1  H27B 2737   0.638   5.021   8.526
   37CHL1  H27C 2738   0.771   5.138   8.478
   38CHL1    C3 2739   3.633   6.482   6.663
   38CHL1    H3 2740   3.720   6.550   6.681
   38CHL1    O3 2741   3.589   6.493   6.522
   38CHL1   H3' 2742   3.512   6.436   6.520
   38CHL1    C4 2743   3.691   6.343   6.702
   38CHL1   H4A 2744   3.625   6.259   6.671
   38CHL1   H4B 2745   3.776   6.322   6.633
   38CHL1    C5 2746   3.722   6.325   6.851
   38CHL1    C6 2747   3.844   6.284   6.897
   38CHL1    H6 2748   3.923   6.256   6.826
   38CHL1    C7 2749   3.884   6.258   7.044
   38CHL1   H7A 2750   3.941   6.163   7.052
   38CHL1   H7B 2751   3.952   6.338   7.080
   38CHL1    C8 2752   3.758   6.250   7.125
   38CHL1    H8 2753   3.706   6.155   7.103
   38CHL1   C14 2754   3.794   6.258   7.271
   38CHL1   H14 2755   3.842   6.358   7.282
   38CHL1   C15 2756   3.897   6.160   7.328
   38CHL1  H15A 2757   3.865   6.062   7.288
   38CHL1  H15B 2758   3.999   6.199   7.304
   38CHL1   C16 2759   3.877   6.159   7.483
   38CHL1  H16A 2760   3.843   6.057   7.512
   38CHL1  H16B 2761   3.967   6.188   7.542
   38CHL1   C17 2762   3.759   6.255   7.504
   38CHL1   H17 2763   3.814   6.351   7.514
   38CHL1   C13 2764   3.685   6.262   7.369
   38CHL1   C18 2765   3.596   6.135   7.359
   38CHL1  H18A 2766   3.626   6.036   7.400
   38CHL1  H18B 2767   3.498   6.160   7.404
   38CHL1  H18C 2768   3.562   6.116   7.255
   38CHL1   C12 2769   3.602   6.394   7.345
   38CHL1  H12A 2770   3.515   6.394   7.414
   38CHL1  H12B 2771   3.671   6.481   7.350
   38CHL1   C11 2772   3.544   6.397   7.204
   38CHL1  H11A 2773   3.465   6.319   7.201
   38CHL1  H11B 2774   3.503   6.500   7.191
   38CHL1    C9 2775   3.658   6.362   7.099
   38CHL1    H9 2776   3.716   6.456   7.111
   38CHL1   C10 2777   3.605   6.366   6.946
   38CHL1   C19 2778   3.488   6.262   6.917
   38CHL1  H19A 2779   3.428   6.290   6.828
   38CHL1  H19B 2780   3.523   6.158   6.899
   38CHL1  H19C 2781   3.420   6.254   7.004
   38CHL1    C1 2782   3.553   6.506   6.914
   38CHL1   H1A 2783   3.460   6.528   6.971
   38CHL1   H1B 2784   3.638   6.575   6.931
   38CHL1    C2 2785   3.512   6.523   6.757
   38CHL1   H2A 2786   3.484   6.631   6.750
   38CHL1   H2B 2787   3.423   6.465   6.724
   38CHL1   C20 2788   3.674   6.246   7.636
   38CHL1   H20 2789   3.578   6.195   7.612
   38CHL1   C21 2790   3.638   6.384   7.696
   38CHL1  H21A 2791   3.595   6.459   7.626
   38CHL1  H21B 2792   3.727   6.426   7.748
   38CHL1  H21C 2793   3.556   6.369   7.770
   38CHL1   C22 2794   3.734   6.143   7.736
   38CHL1  H22A 2795   3.736   6.037   7.701
   38CHL1  H22B 2796   3.841   6.166   7.757
   38CHL1   C23 2797   3.669   6.136   7.881
   38CHL1  H23A 2798   3.712   6.226   7.929
   38CHL1  H23B 2799   3.558   6.145   7.882
   38CHL1   C24 2800   3.695   6.006   7.955
   38CHL1  H24A 2801   3.630   5.923   7.922
   38CHL1  H24B 2802   3.797   5.974   7.926
   38CHL1   C25 2803   3.711   6.020   8.110
   38CHL1   H25 2804   3.743   5.923   8.155
   38CHL1   C26 2805   3.819   6.126   8.150
   38CHL1  H26A 2806   3.871   6.112   8.247
   38CHL1  H26B 2807   3.902   6.129   8.077
   38CHL1  H26C 2808   3.772   6.226   8.161
   38CHL1   C27 2809   3.574   6.050   8.169
   38CHL1  H27A 2810   3.569   6.057   8.280
   38CHL1  H27B 2811   3.546   6.152   8.134
   38CHL1  H27C 2812   3.492   5.982   8.136
   39CHL1    C3 2813   3.055   5.446   6.879
   39CHL1    H3 2814   2.946   5.425   6.888
   39CHL1    O3 2815   3.082   5.493   6.748
   39CHL1   H3' 2816   3.042   5.580   6.758
   39CHL1    C4 2817   3.082   5.554   6.989
   39CHL1   H4A 2818   3.186   5.587   6.968
   39CHL1   H4B 2819   3.026   5.647   6.963
   39CHL1    C5 2820   3.077   5.518   7.133
   39CHL1    C6 2821   3.005   5.579   7.227
   39CHL1    H6 2822   2.955   5.676   7.212
   39CHL1    C7 2823   2.994   5.536   7.375
   39CHL1   H7A 2824   3.012   5.617   7.449
   39CHL1   H7B 2825   2.901   5.488   7.410
   39CHL1    C8 2826   3.102   5.431   7.410
   39CHL1    H8 2827   3.200   5.482   7.418
   39CHL1   C14 2828   3.080   5.362   7.548
   39CHL1   H14 2829   2.988   5.300   7.542
   39CHL1   C15 2830   3.044   5.452   7.670
   39CHL1  H15A 2831   3.105   5.544   7.662
   39CHL1  H15B 2832   2.936   5.478   7.667
   39CHL1   C16 2833   3.079   5.359   7.791
   39CHL1  H16A 2834   3.158   5.410   7.850
   39CHL1  H16B 2835   2.990   5.335   7.852
   39CHL1   C17 2836   3.138   5.227   7.732
   39CHL1   H17 2837   3.049   5.166   7.706
   39CHL1   C13 2838   3.198   5.263   7.587
   39CHL1   C18 2839   3.342   5.329   7.604
   39CHL1  H18A 2840   3.417   5.251   7.624
   39CHL1  H18B 2841   3.372   5.384   7.512
   39CHL1  H18C 2842   3.330   5.399   7.690
   39CHL1   C12 2843   3.204   5.153   7.480
   39CHL1  H12A 2844   3.260   5.060   7.502
   39CHL1  H12B 2845   3.101   5.115   7.500
   39CHL1   C11 2846   3.227   5.213   7.336
   39CHL1  H11A 2847   3.333   5.245   7.324
   39CHL1  H11B 2848   3.211   5.126   7.268
   39CHL1    C9 2849   3.126   5.327   7.296
   39CHL1    H9 2850   3.027   5.278   7.287
   39CHL1   C10 2851   3.149   5.378   7.157
   39CHL1   C19 2852   3.300   5.407   7.131
   39CHL1  H19A 2853   3.352   5.455   7.217
   39CHL1  H19B 2854   3.344   5.307   7.111
   39CHL1  H19C 2855   3.324   5.454   7.034
   39CHL1    C1 2856   3.111   5.270   7.051
   39CHL1   H1A 2857   3.176   5.182   7.066
   39CHL1   H1B 2858   3.009   5.235   7.077
   39CHL1    C2 2859   3.113   5.309   6.901
   39CHL1   H2A 2860   3.067   5.231   6.837
   39CHL1   H2B 2861   3.221   5.318   6.877
   39CHL1   C20 2862   3.220   5.143   7.831
   39CHL1   H20 2863   3.309   5.202   7.863
   39CHL1   C21 2864   3.290   5.018   7.774
   39CHL1  H21A 2865   3.215   4.969   7.708
   39CHL1  H21B 2866   3.317   4.942   7.851
   39CHL1  H21C 2867   3.375   5.046   7.710
   39CHL1   C22 2868   3.146   5.099   7.956
   39CHL1  H22A 2869   3.084   5.185   7.991
   39CHL1  H22B 2870   3.093   5.003   7.941
   39CHL1   C23 2871   3.238   5.081   8.083
   39CHL1  H23A 2872   3.301   4.990   8.081
   39CHL1  H23B 2873   3.295   5.174   8.101
   39CHL1   C24 2874   3.157   5.070   8.215
   39CHL1  H24A 2875   3.121   5.175   8.225
   39CHL1  H24B 2876   3.077   4.996   8.193
   39CHL1   C25 2877   3.237   5.013   8.337
   39CHL1   H25 2878   3.274   4.917   8.295
   39CHL1   C26 2879   3.351   5.110   8.374
   39CHL1  H26A 2880   3.408   5.077   8.463
   39CHL1  H26B 2881   3.425   5.110   8.291
   39CHL1  H26C 2882   3.318   5.213   8.398
   39CHL1   C27 2883   3.141   4.995   8.457
   39CHL1  H27A 2884   3.057   4.942   8.408
   39CHL1  H27B 2885   3.185   4.949   8.548
   39CHL1  H27C 2886   3.095   5.090   8.492
   40CHL1    C3 2887   6.031   4.424   6.964
   40CHL1    H3 2888   5.933   4.473   6.984
   40CHL1    O3 2889   6.062   4.458   6.829
   40CHL1   H3' 2890   6.157   4.474   6.830
   40CHL1    C4 2891   6.138   4.481   7.053
   40CHL1   H4A 2892   6.228   4.423   7.023
   40CHL1   H4B 2893   6.168   4.587   7.034
   40CHL1    C5 2894   6.101   4.451   7.198
   40CHL1    C6 2895   6.068   4.543   7.289
   40CHL1    H6 2896   6.078   4.650   7.268
   40CHL1    C7 2897   6.017   4.511   7.425
   40CHL1   H7A 2898   6.063   4.589   7.489
   40CHL1   H7B 2899   5.907   4.521   7.412
   40CHL1    C8 2900   6.055   4.368   7.479
   40CHL1    H8 2901   6.166   4.368   7.486
   40CHL1   C14 2902   5.997   4.337   7.611
   40CHL1   H14 2903   5.894   4.377   7.607
   40CHL1   C15 2904   6.056   4.429   7.720
   40CHL1  H15A 2905   6.167   4.419   7.725
   40CHL1  H15B 2906   6.023   4.534   7.712
   40CHL1   C16 2907   5.997   4.360   7.848
   40CHL1  H16A 2908   6.075   4.333   7.922
   40CHL1  H16B 2909   5.924   4.435   7.886
   40CHL1   C17 2910   5.933   4.224   7.803
   40CHL1   H17 2911   5.829   4.261   7.789
   40CHL1   C13 2912   5.993   4.200   7.662
   40CHL1   C18 2913   6.138   4.143   7.687
   40CHL1  H18A 2914   6.133   4.036   7.718
   40CHL1  H18B 2915   6.199   4.133   7.595
   40CHL1  H18C 2916   6.192   4.205   7.761
   40CHL1   C12 2917   5.926   4.109   7.554
   40CHL1  H12A 2918   5.949   4.004   7.582
   40CHL1  H12B 2919   5.816   4.121   7.544
   40CHL1   C11 2920   6.001   4.127   7.417
   40CHL1  H11A 2921   6.105   4.091   7.432
   40CHL1  H11B 2922   5.956   4.056   7.345
   40CHL1    C9 2923   6.004   4.273   7.370
   40CHL1    H9 2924   5.893   4.285   7.362
   40CHL1   C10 2925   6.080   4.299   7.231
   40CHL1   C19 2926   6.224   4.236   7.243
   40CHL1  H19A 2927   6.282   4.261   7.151
   40CHL1  H19B 2928   6.290   4.284   7.318
   40CHL1  H19C 2929   6.230   4.125   7.250
   40CHL1    C1 2930   6.001   4.227   7.118
   40CHL1   H1A 2931   6.017   4.117   7.112
   40CHL1   H1B 2932   5.894   4.244   7.144
   40CHL1    C2 2933   6.028   4.276   6.976
   40CHL1   H2A 2934   5.968   4.230   6.895
   40CHL1   H2B 2935   6.130   4.236   6.957
   40CHL1   C20 2936   5.937   4.118   7.915
   40CHL1   H20 2937   6.041   4.100   7.950
   40CHL1   C21 2938   5.873   3.994   7.860
   40CHL1  H21A 2939   5.938   3.956   7.778
   40CHL1  H21B 2940   5.768   4.000   7.827
   40CHL1  H21C 2941   5.892   3.917   7.939
   40CHL1   C22 2942   5.868   4.164   8.042
   40CHL1  H22A 2943   5.928   4.252   8.075
   40CHL1  H22B 2944   5.768   4.197   8.007
   40CHL1   C23 2945   5.873   4.075   8.162
   40CHL1  H23A 2946   5.834   3.972   8.142
   40CHL1  H23B 2947   5.980   4.059   8.188
   40CHL1   C24 2948   5.777   4.119   8.275
   40CHL1  H24A 2949   5.792   4.228   8.291
   40CHL1  H24B 2950   5.677   4.084   8.241
   40CHL1   C25 2951   5.810   4.065   8.415
   40CHL1   H25 2952   5.907   4.097   8.458
   40CHL1   C26 2953   5.701   4.101   8.515
   40CHL1  H26A 2954   5.683   4.211   8.517
   40CHL1  H26B 2955   5.609   4.055   8.474
   40CHL1  H26C 2956   5.715   4.062   8.618
   40CHL1   C27 2957   5.837   3.912   8.415
   40CHL1  H27A 2958   5.928   3.883   8.359
   40CHL1  H27B 2959   5.861   3.878   8.517
   40CHL1  H27C 2960   5.752   3.858   8.367
   41CHL1    C3 2961   0.144   4.408   6.995
   41CHL1    H3 2962   0.232   4.374   7.055
   41CHL1    O3 2963   0.154   4.398   6.859
   41CHL1   H3' 2964   0.197   4.313   6.853
   41CHL1    C4 2965   0.050   4.285   7.029
   41CHL1   H4A 2966  -0.045   4.300   6.974
   41CHL1   H4B 2967   0.098   4.196   6.984
   41CHL1    C5 2968   0.027   4.279   7.179
   41CHL1    C6 2969   0.063   4.173   7.250
   41CHL1    H6 2970   0.100   4.085   7.197
   41CHL1    C7 2971   0.034   4.156   7.393
   41CHL1   H7A 2972  -0.003   4.051   7.402
   41CHL1   H7B 2973   0.123   4.174   7.456
   41CHL1    C8 2974  -0.078   4.251   7.442
   41CHL1    H8 2975  -0.174   4.215   7.400
   41CHL1   C14 2976  -0.079   4.250   7.598
   41CHL1   H14 2977   0.025   4.284   7.621
   41CHL1   C15 2978  -0.094   4.117   7.677
   41CHL1  H15A 2979  -0.178   4.057   7.637
   41CHL1  H15B 2980  -0.001   4.056   7.682
   41CHL1   C16 2981  -0.139   4.172   7.816
   41CHL1  H16A 2982  -0.240   4.136   7.846
   41CHL1  H16B 2983  -0.059   4.157   7.892
   41CHL1   C17 2984  -0.153   4.324   7.803
   41CHL1   H17 2985  -0.057   4.376   7.825
   41CHL1   C13 2986  -0.178   4.351   7.660
   41CHL1   C18 2987  -0.316   4.303   7.614
   41CHL1  H18A 2988  -0.314   4.253   7.515
   41CHL1  H18B 2989  -0.359   4.227   7.684
   41CHL1  H18C 2990  -0.386   4.388   7.606
   41CHL1   C12 2991  -0.153   4.495   7.605
   41CHL1  H12A 2992  -0.234   4.563   7.636
   41CHL1  H12B 2993  -0.055   4.539   7.633
   41CHL1   C11 2994  -0.156   4.500   7.450
   41CHL1  H11A 2995  -0.259   4.477   7.417
   41CHL1  H11B 2996  -0.125   4.603   7.421
   41CHL1    C9 2997  -0.053   4.396   7.391
   41CHL1    H9 2998   0.044   4.427   7.434
   41CHL1   C10 2999  -0.039   4.404   7.234
   41CHL1   C19 3000  -0.186   4.417   7.177
   41CHL1  H19A 3001  -0.190   4.433   7.067
   41CHL1  H19B 3002  -0.246   4.325   7.196
   41CHL1  H19C 3003  -0.230   4.509   7.221
   41CHL1    C1 3004   0.053   4.527   7.196
   41CHL1   H1A 3005  -0.007   4.618   7.219
   41CHL1   H1B 3006   0.154   4.521   7.242
   41CHL1    C2 3007   0.082   4.530   7.041
   41CHL1   H2A 3008   0.146   4.616   7.012
   41CHL1   H2B 3009  -0.016   4.544   6.991
   41CHL1   C20 3010  -0.254   4.379   7.909
   41CHL1   H20 3011  -0.357   4.343   7.888
   41CHL1   C21 3012  -0.261   4.531   7.921
   41CHL1  H21A 3013  -0.169   4.580   7.961
   41CHL1  H21B 3014  -0.335   4.548   8.003
   41CHL1  H21C 3015  -0.302   4.578   7.829
   41CHL1   C22 3016  -0.213   4.330   8.055
   41CHL1  H22A 3017  -0.124   4.265   8.062
   41CHL1  H22B 3018  -0.193   4.419   8.118
   41CHL1   C23 3019  -0.325   4.250   8.128
   41CHL1  H23A 3020  -0.371   4.188   8.048
   41CHL1  H23B 3021  -0.287   4.177   8.202
   41CHL1   C24 3022  -0.435   4.334   8.195
   41CHL1  H24A 3023  -0.398   4.385   8.287
   41CHL1  H24B 3024  -0.458   4.414   8.122
   41CHL1   C25 3025  -0.551   4.250   8.249
   41CHL1   H25 3026  -0.584   4.184   8.167
   41CHL1   C26 3027  -0.509   4.154   8.366
   41CHL1  H26A 3028  -0.453   4.068   8.323
   41CHL1  H26B 3029  -0.442   4.207   8.437
   41CHL1  H26C 3030  -0.601   4.112   8.413
   41CHL1   C27 3031  -0.669   4.343   8.292
   41CHL1  H27A 3032  -0.649   4.385   8.393
   41CHL1  H27B 3033  -0.669   4.434   8.228
   41CHL1  H27C 3034  -0.771   4.298   8.296
   42CHL1    C3 3035   1.306   1.814   6.984
   42CHL1    H3 3036   1.411   1.798   7.016
   42CHL1    O3 3037   1.320   1.886   6.864
   42CHL1   H3' 3038   1.319   1.979   6.886
   42CHL1    C4 3039   1.227   1.683   6.957
   42CHL1   H4A 3040   1.125   1.710   6.924
   42CHL1   H4B 3041   1.267   1.630   6.868
   42CHL1    C5 3042   1.223   1.604   7.080
   42CHL1    C6 3043   1.269   1.471   7.091
   42CHL1    H6 3044   1.302   1.426   6.996
   42CHL1    C7 3045   1.245   1.385   7.204
   42CHL1   H7A 3046   1.204   1.285   7.176
   42CHL1   H7B 3047   1.343   1.364   7.252
   42CHL1    C8 3048   1.146   1.435   7.309
   42CHL1    H8 3049   1.046   1.411   7.268
   42CHL1   C14 3050   1.158   1.356   7.446
   42CHL1   H14 3051   1.258   1.370   7.491
   42CHL1   C15 3052   1.126   1.202   7.444
   42CHL1  H15A 3053   1.028   1.182   7.395
   42CHL1  H15B 3054   1.216   1.146   7.411
   42CHL1   C16 3055   1.098   1.172   7.591
   42CHL1  H16A 3056   0.999   1.122   7.601
   42CHL1  H16B 3057   1.182   1.117   7.640
   42CHL1   C17 3058   1.089   1.306   7.670
   42CHL1   H17 3059   1.196   1.329   7.691
   42CHL1   C13 3060   1.064   1.410   7.556
   42CHL1   C18 3061   0.913   1.399   7.520
   42CHL1  H18A 3062   0.885   1.472   7.441
   42CHL1  H18B 3063   0.889   1.298   7.481
   42CHL1  H18C 3064   0.844   1.421   7.604
   42CHL1   C12 3065   1.108   1.554   7.587
   42CHL1  H12A 3066   1.055   1.602   7.672
   42CHL1  H12B 3067   1.216   1.562   7.611
   42CHL1   C11 3068   1.094   1.635   7.455
   42CHL1  H11A 3069   0.984   1.641   7.441
   42CHL1  H11B 3070   1.128   1.738   7.479
   42CHL1    C9 3071   1.167   1.582   7.333
   42CHL1    H9 3072   1.274   1.593   7.361
   42CHL1   C10 3073   1.158   1.672   7.202
   42CHL1   C19 3074   1.003   1.691   7.179
   42CHL1  H19A 3075   0.984   1.752   7.089
   42CHL1  H19B 3076   0.947   1.595   7.172
   42CHL1  H19C 3077   0.954   1.749   7.260
   42CHL1    C1 3078   1.229   1.812   7.223
   42CHL1   H1A 3079   1.183   1.872   7.304
   42CHL1   H1B 3080   1.330   1.780   7.257
   42CHL1    C2 3081   1.237   1.901   7.095
   42CHL1   H2A 3082   1.296   1.994   7.109
   42CHL1   H2B 3083   1.136   1.933   7.061
   42CHL1   C20 3084   1.008   1.291   7.790
   42CHL1   H20 3085   0.906   1.260   7.758
   42CHL1   C21 3086   0.992   1.421   7.871
   42CHL1  H21A 3087   0.947   1.407   7.971
   42CHL1  H21B 3088   0.929   1.493   7.814
   42CHL1  H21C 3089   1.091   1.466   7.895
   42CHL1   C22 3090   1.062   1.169   7.885
   42CHL1  H22A 3091   1.051   1.074   7.829
   42CHL1  H22B 3092   1.171   1.177   7.908
   42CHL1   C23 3093   0.982   1.146   8.012
   42CHL1  H23A 3094   1.025   1.217   8.086
   42CHL1  H23B 3095   0.877   1.177   7.995
   42CHL1   C24 3096   0.989   0.999   8.068
   42CHL1  H24A 3097   0.941   0.933   7.993
   42CHL1  H24B 3098   1.098   0.980   8.068
   42CHL1   C25 3099   0.933   0.966   8.208
   42CHL1   H25 3100   0.823   0.985   8.211
   42CHL1   C26 3101   0.945   0.819   8.246
   42CHL1  H26A 3102   0.906   0.755   8.164
   42CHL1  H26B 3103   1.054   0.802   8.259
   42CHL1  H26C 3104   0.884   0.793   8.335
   42CHL1   C27 3105   1.007   1.057   8.309
   42CHL1  H27A 3106   0.990   1.029   8.415
   42CHL1  H27B 3107   0.991   1.167   8.304
   42CHL1  H27C 3108   1.117   1.042   8.304
   43CHL1    C3 3109   1.071   5.652   6.906
   43CHL1    H3 3110   0.988   5.723   6.925
   43CHL1    O3 3111   1.125   5.664   6.770
   43CHL1   H3' 3112   1.197   5.601   6.773
   43CHL1    C4 3113   1.198   5.674   6.997
   43CHL1   H4A 3114   1.279   5.608   6.961
   43CHL1   H4B 3115   1.235   5.777   6.979
   43CHL1    C5 3116   1.174   5.639   7.142
   43CHL1    C6 3117   1.202   5.730   7.239
   43CHL1    H6 3118   1.268   5.809   7.202
   43CHL1    C7 3119   1.175   5.703   7.388
   43CHL1   H7A 3120   1.255   5.730   7.460
   43CHL1   H7B 3121   1.094   5.769   7.425
   43CHL1    C8 3122   1.151   5.551   7.412
   43CHL1    H8 3123   1.251   5.503   7.418
   43CHL1   C14 3124   1.087   5.543   7.556
   43CHL1   H14 3125   0.993   5.602   7.548
   43CHL1   C15 3126   1.163   5.615   7.669
   43CHL1  H15A 3127   1.270   5.588   7.669
   43CHL1  H15B 3128   1.162   5.726   7.660
   43CHL1   C16 3129   1.089   5.572   7.798
   43CHL1  H16A 3130   1.169   5.551   7.872
   43CHL1  H16B 3131   1.026   5.653   7.840
   43CHL1   C17 3132   1.010   5.441   7.758
   43CHL1   H17 3133   0.903   5.467   7.756
   43CHL1   C13 3134   1.057   5.407   7.612
   43CHL1   C18 3135   1.185   5.323   7.614
   43CHL1  H18A 3136   1.268   5.388   7.648
   43CHL1  H18B 3137   1.165   5.235   7.679
   43CHL1  H18C 3138   1.207   5.277   7.515
   43CHL1   C12 3139   0.950   5.349   7.512
   43CHL1  H12A 3140   0.913   5.253   7.553
   43CHL1  H12B 3141   0.861   5.416   7.508
   43CHL1   C11 3142   1.002   5.349   7.364
   43CHL1  H11A 3143   1.083   5.275   7.352
   43CHL1  H11B 3144   0.927   5.307   7.294
   43CHL1    C9 3145   1.060   5.488   7.314
   43CHL1    H9 3146   0.967   5.549   7.310
   43CHL1   C10 3147   1.110   5.504   7.165
   43CHL1   C19 3148   1.224   5.395   7.137
   43CHL1  H19A 3149   1.158   5.307   7.148
   43CHL1  H19B 3150   1.276   5.400   7.038
   43CHL1  H19C 3151   1.298   5.392   7.220
   43CHL1    C1 3152   0.996   5.482   7.072
   43CHL1   H1A 3153   0.969   5.375   7.082
   43CHL1   H1B 3154   0.913   5.551   7.097
   43CHL1    C2 3155   1.016   5.509   6.922
   43CHL1   H2A 3156   0.923   5.498   6.863
   43CHL1   H2B 3157   1.090   5.436   6.880
   43CHL1   C20 3158   1.036   5.342   7.875
   43CHL1   H20 3159   1.145   5.326   7.879
   43CHL1   C21 3160   0.957   5.202   7.865
   43CHL1  H21A 3161   1.016   5.125   7.921
   43CHL1  H21B 3162   0.938   5.167   7.762
   43CHL1  H21C 3163   0.858   5.215   7.913
   43CHL1   C22 3164   0.970   5.409   8.003
   43CHL1  H22A 3165   1.026   5.501   8.032
   43CHL1  H22B 3166   0.870   5.451   7.976
   43CHL1   C23 3167   0.979   5.323   8.129
   43CHL1  H23A 3168   0.934   5.389   8.206
   43CHL1  H23B 3169   0.917   5.231   8.121
   43CHL1   C24 3170   1.116   5.267   8.166
   43CHL1  H24A 3171   1.148   5.194   8.088
   43CHL1  H24B 3172   1.190   5.350   8.167
   43CHL1   C25 3173   1.123   5.192   8.306
   43CHL1   H25 3174   1.050   5.109   8.294
   43CHL1   C26 3175   1.268   5.137   8.325
   43CHL1  H26A 3176   1.302   5.075   8.239
   43CHL1  H26B 3177   1.334   5.226   8.335
   43CHL1  H26C 3178   1.279   5.085   8.423
   43CHL1   C27 3179   1.097   5.286   8.422
   43CHL1  H27A 3180   1.000   5.340   8.425
   43CHL1  H27B 3181   1.116   5.222   8.511
   43CHL1  H27C 3182   1.183   5.351   8.447
   44CHL1    C3 3183   1.171   4.325   6.609
   44CHL1    H3 3184   1.093   4.403   6.596
   44CHL1    O3 3185   1.218   4.297   6.479
   44CHL1   H3' 3186   1.215   4.379   6.430
   44CHL1    C4 3187   1.293   4.379   6.687
   44CHL1   H4A 3188   1.378   4.312   6.663
   44CHL1   H4B 3189   1.329   4.477   6.648
   44CHL1    C5 3190   1.260   4.399   6.837
   44CHL1    C6 3191   1.292   4.508   6.905
   44CHL1    H6 3192   1.323   4.593   6.843
   44CHL1    C7 3193   1.272   4.532   7.054
   44CHL1   H7A 3194   1.353   4.581   7.110
   44CHL1   H7B 3195   1.182   4.597   7.059
   44CHL1    C8 3196   1.235   4.403   7.128
   44CHL1    H8 3197   1.337   4.359   7.132
   44CHL1   C14 3198   1.192   4.434   7.279
   44CHL1   H14 3199   1.093   4.483   7.271
   44CHL1   C15 3200   1.254   4.536   7.364
   44CHL1  H15A 3201   1.364   4.532   7.347
   44CHL1  H15B 3202   1.227   4.641   7.339
   44CHL1   C16 3203   1.230   4.486   7.507
   44CHL1  H16A 3204   1.330   4.449   7.538
   44CHL1  H16B 3205   1.192   4.550   7.589
   44CHL1   C17 3206   1.133   4.365   7.494
   44CHL1   H17 3207   1.034   4.413   7.478
   44CHL1   C13 3208   1.164   4.305   7.357
   44CHL1   C18 3209   1.305   4.235   7.364
   44CHL1  H18A 3210   1.334   4.187   7.268
   44CHL1  H18B 3211   1.381   4.313   7.384
   44CHL1  H18C 3212   1.318   4.152   7.437
   44CHL1   C12 3213   1.050   4.224   7.282
   44CHL1  H12A 3214   1.033   4.130   7.339
   44CHL1  H12B 3215   0.952   4.275   7.270
   44CHL1   C11 3216   1.095   4.190   7.136
   44CHL1  H11A 3217   1.181   4.120   7.136
   44CHL1  H11B 3218   1.020   4.128   7.083
   44CHL1    C9 3219   1.141   4.311   7.050
   44CHL1    H9 3220   1.043   4.362   7.039
   44CHL1   C10 3221   1.193   4.278   6.908
   44CHL1   C19 3222   1.306   4.174   6.908
   44CHL1  H19A 3223   1.257   4.088   6.957
   44CHL1  H19B 3224   1.344   4.148   6.807
   44CHL1  H19C 3225   1.392   4.206   6.971
   44CHL1    C1 3226   1.079   4.232   6.821
   44CHL1   H1A 3227   1.046   4.137   6.866
   44CHL1   H1B 3228   0.994   4.303   6.833
   44CHL1    C2 3229   1.107   4.206   6.671
   44CHL1   H2A 3230   1.014   4.173   6.620
   44CHL1   H2B 3231   1.165   4.112   6.671
   44CHL1   C20 3232   1.110   4.262   7.611
   44CHL1   H20 3233   1.177   4.174   7.601
   44CHL1   C21 3234   0.963   4.215   7.613
   44CHL1  H21A 3235   0.896   4.296   7.650
   44CHL1  H21B 3236   0.947   4.137   7.690
   44CHL1  H21C 3237   0.931   4.177   7.513
   44CHL1   C22 3238   1.154   4.321   7.748
   44CHL1  H22A 3239   1.265   4.328   7.750
   44CHL1  H22B 3240   1.102   4.417   7.769
   44CHL1   C23 3241   1.134   4.227   7.866
   44CHL1  H23A 3242   1.025   4.222   7.887
   44CHL1  H23B 3243   1.164   4.125   7.833
   44CHL1   C24 3244   1.202   4.264   7.994
   44CHL1  H24A 3245   1.312   4.266   7.977
   44CHL1  H24B 3246   1.183   4.370   8.021
   44CHL1   C25 3247   1.189   4.164   8.112
   44CHL1   H25 3248   1.182   4.063   8.067
   44CHL1   C26 3249   1.308   4.174   8.217
   44CHL1  H26A 3250   1.336   4.277   8.245
   44CHL1  H26B 3251   1.283   4.102   8.298
   44CHL1  H26C 3252   1.392   4.115   8.173
   44CHL1   C27 3253   1.055   4.171   8.180
   44CHL1  H27A 3254   1.017   4.273   8.203
   44CHL1  H27B 3255   0.977   4.129   8.112
   44CHL1  H27C 3256   1.049   4.114   8.275
   45CHL1    C3 3257   2.105   2.615   6.686
   45CHL1    H3 3258   2.028   2.690   6.715
   45CHL1    O3 3259   2.123   2.634   6.545
   45CHL1   H3' 3260   2.207   2.677   6.529
   45CHL1    C4 3261   2.230   2.646   6.777
   45CHL1   H4A 3262   2.321   2.593   6.741
   45CHL1   H4B 3263   2.253   2.752   6.756
   45CHL1    C5 3264   2.191   2.622   6.921
   45CHL1    C6 3265   2.208   2.717   7.010
   45CHL1    H6 3266   2.244   2.815   6.978
   45CHL1    C7 3267   2.189   2.704   7.155
   45CHL1   H7A 3268   2.263   2.765   7.211
   45CHL1   H7B 3269   2.087   2.740   7.181
   45CHL1    C8 3270   2.179   2.554   7.200
   45CHL1    H8 3271   2.280   2.510   7.198
   45CHL1   C14 3272   2.122   2.541   7.343
   45CHL1   H14 3273   2.017   2.576   7.343
   45CHL1   C15 3274   2.182   2.642   7.446
   45CHL1  H15A 3275   2.292   2.643   7.432
   45CHL1  H15B 3276   2.139   2.741   7.423
   45CHL1   C16 3277   2.139   2.577   7.571
   45CHL1  H16A 3278   2.224   2.572   7.642
   45CHL1  H16B 3279   2.064   2.638   7.625
   45CHL1   C17 3280   2.080   2.434   7.537
   45CHL1   H17 3281   1.974   2.467   7.529
   45CHL1   C13 3282   2.124   2.403   7.402
   45CHL1   C18 3283   2.267   2.340   7.393
   45CHL1  H18A 3284   2.289   2.256   7.463
   45CHL1  H18B 3285   2.303   2.300   7.295
   45CHL1  H18C 3286   2.341   2.422   7.403
   45CHL1   C12 3287   2.031   2.316   7.312
   45CHL1  H12A 3288   2.019   2.213   7.351
   45CHL1  H12B 3289   1.927   2.356   7.318
   45CHL1   C11 3290   2.072   2.312   7.157
   45CHL1  H11A 3291   2.163   2.251   7.138
   45CHL1  H11B 3292   1.997   2.263   7.092
   45CHL1    C9 3293   2.088   2.465   7.112
   45CHL1    H9 3294   1.989   2.515   7.118
   45CHL1   C10 3295   2.140   2.482   6.969
   45CHL1   C19 3296   2.247   2.375   6.934
   45CHL1  H19A 3297   2.210   2.271   6.921
   45CHL1  H19B 3298   2.277   2.393   6.829
   45CHL1  H19C 3299   2.322   2.375   7.016
   45CHL1    C1 3300   2.024   2.449   6.870
   45CHL1   H1A 3301   1.989   2.344   6.883
   45CHL1   H1B 3302   1.945   2.520   6.904
   45CHL1    C2 3303   2.050   2.475   6.717
   45CHL1   H2A 3304   1.962   2.461   6.652
   45CHL1   H2B 3305   2.117   2.399   6.670
   45CHL1   C20 3306   2.091   2.332   7.650
   45CHL1   H20 3307   2.197   2.299   7.657
   45CHL1   C21 3308   1.994   2.216   7.626
   45CHL1  H21A 3309   2.015   2.160   7.532
   45CHL1  H21B 3310   1.885   2.238   7.632
   45CHL1  H21C 3311   2.010   2.146   7.711
   45CHL1   C22 3312   2.076   2.380   7.798
   45CHL1  H22A 3313   2.120   2.299   7.860
   45CHL1  H22B 3314   2.130   2.475   7.814
   45CHL1   C23 3315   1.941   2.423   7.835
   45CHL1  H23A 3316   1.910   2.499   7.759
   45CHL1  H23B 3317   1.872   2.336   7.830
   45CHL1   C24 3318   1.927   2.497   7.970
   45CHL1  H24A 3319   1.988   2.455   8.053
   45CHL1  H24B 3320   1.979   2.593   7.951
   45CHL1   C25 3321   1.782   2.504   8.029
   45CHL1   H25 3322   1.723   2.563   7.955
   45CHL1   C26 3323   1.699   2.373   8.041
   45CHL1  H26A 3324   1.701   2.327   7.940
   45CHL1  H26B 3325   1.751   2.305   8.112
   45CHL1  H26C 3326   1.592   2.372   8.072
   45CHL1   C27 3327   1.795   2.571   8.167
   45CHL1  H27A 3328   1.876   2.519   8.222
   45CHL1  H27B 3329   1.833   2.675   8.173
   45CHL1  H27C 3330   1.700   2.559   8.223
   46CHL1    C3 3331   2.153   3.573   6.998
   46CHL1    H3 3332   2.106   3.477   6.969
   46CHL1    O3 3333   2.190   3.632   6.874
   46CHL1   H3' 3334   2.232   3.559   6.827
   46CHL1    C4 3335   2.058   3.667   7.067
   46CHL1   H4A 3336   2.111   3.765   7.067
   46CHL1   H4B 3337   1.964   3.677   7.010
   46CHL1    C5 3338   2.025   3.633   7.212
   46CHL1    C6 3339   1.900   3.618   7.247
   46CHL1    H6 3340   1.817   3.640   7.178
   46CHL1    C7 3341   1.857   3.588   7.389
   46CHL1   H7A 3342   1.771   3.650   7.423
   46CHL1   H7B 3343   1.828   3.481   7.389
   46CHL1    C8 3344   1.970   3.605   7.494
   46CHL1    H8 3345   1.978   3.713   7.519
   46CHL1   C14 3346   1.922   3.531   7.614
   46CHL1   H14 3347   1.930   3.423   7.587
   46CHL1   C15 3348   1.782   3.554   7.662
   46CHL1  H15A 3349   1.755   3.661   7.656
   46CHL1  H15B 3350   1.706   3.505   7.597
   46CHL1   C16 3351   1.772   3.497   7.800
   46CHL1  H16A 3352   1.728   3.570   7.871
   46CHL1  H16B 3353   1.712   3.404   7.810
   46CHL1   C17 3354   1.925   3.474   7.841
   46CHL1   H17 3355   1.928   3.365   7.816
   46CHL1   C13 3356   2.015   3.543   7.738
   46CHL1   C18 3357   2.044   3.690   7.791
   46CHL1  H18A 3358   1.948   3.729   7.830
   46CHL1  H18B 3359   2.121   3.676   7.870
   46CHL1  H18C 3360   2.086   3.749   7.706
   46CHL1   C12 3361   2.148   3.480   7.700
   46CHL1  H12A 3362   2.223   3.495   7.780
   46CHL1  H12B 3363   2.135   3.370   7.693
   46CHL1   C11 3364   2.198   3.541   7.566
   46CHL1  H11A 3365   2.236   3.638   7.604
   46CHL1  H11B 3366   2.270   3.462   7.535
   46CHL1    C9 3367   2.103   3.552   7.449
   46CHL1    H9 3368   2.074   3.446   7.428
   46CHL1   C10 3369   2.148   3.612   7.312
   46CHL1   C19 3370   2.234   3.738   7.341
   46CHL1  H19A 3371   2.334   3.713   7.384
   46CHL1  H19B 3372   2.259   3.796   7.249
   46CHL1  H19C 3373   2.180   3.808   7.408
   46CHL1    C1 3374   2.241   3.510   7.231
   46CHL1   H1A 3375   2.319   3.478   7.304
   46CHL1   H1B 3376   2.178   3.421   7.208
   46CHL1    C2 3377   2.279   3.556   7.091
   46CHL1   H2A 3378   2.348   3.478   7.053
   46CHL1   H2B 3379   2.329   3.654   7.106
   46CHL1   C20 3380   1.954   3.482   7.988
   46CHL1   H20 3381   1.930   3.586   8.018
   46CHL1   C21 3382   2.093   3.442   8.038
   46CHL1  H21A 3383   2.096   3.438   8.149
   46CHL1  H21B 3384   2.180   3.505   8.009
   46CHL1  H21C 3385   2.109   3.341   7.994
   46CHL1   C22 3386   1.855   3.400   8.075
   46CHL1  H22A 3387   1.748   3.413   8.048
   46CHL1  H22B 3388   1.877   3.292   8.060
   46CHL1   C23 3389   1.848   3.429   8.221
   46CHL1  H23A 3390   1.934   3.375   8.265
   46CHL1  H23B 3391   1.852   3.537   8.247
   46CHL1   C24 3392   1.726   3.370   8.288
   46CHL1  H24A 3393   1.637   3.418   8.244
   46CHL1  H24B 3394   1.733   3.264   8.257
   46CHL1   C25 3395   1.715   3.383   8.442
   46CHL1   H25 3396   1.811   3.340   8.477
   46CHL1   C26 3397   1.682   3.526   8.483
   46CHL1  H26A 3398   1.582   3.558   8.447
   46CHL1  H26B 3399   1.690   3.523   8.594
   46CHL1  H26C 3400   1.751   3.608   8.454
   46CHL1   C27 3401   1.611   3.283   8.503
   46CHL1  H27A 3402   1.521   3.311   8.444
   46CHL1  H27B 3403   1.658   3.184   8.482
   46CHL1  H27C 3404   1.597   3.297   8.612
   47CHL1    C3 3405   1.364   3.861   6.606
   47CHL1    H3 3406   1.355   3.968   6.633
   47CHL1    O3 3407   1.375   3.847   6.464
   47CHL1   H3' 3408   1.367   3.753   6.446
   47CHL1    C4 3409   1.484   3.804   6.667
   47CHL1   H4A 3410   1.510   3.697   6.652
   47CHL1   H4B 3411   1.570   3.863   6.629
   47CHL1    C5 3412   1.469   3.822   6.821
   47CHL1    C6 3413   1.567   3.891   6.886
   47CHL1    H6 3414   1.653   3.935   6.836
   47CHL1    C7 3415   1.571   3.900   7.039
   47CHL1   H7A 3416   1.666   3.862   7.081
   47CHL1   H7B 3417   1.548   4.006   7.059
   47CHL1    C8 3418   1.461   3.802   7.109
   47CHL1    H8 3419   1.499   3.698   7.107
   47CHL1   C14 3420   1.434   3.849   7.252
   47CHL1   H14 3421   1.378   3.944   7.239
   47CHL1   C15 3422   1.549   3.889   7.347
   47CHL1  H15A 3423   1.631   3.813   7.353
   47CHL1  H15B 3424   1.599   3.987   7.332
   47CHL1   C16 3425   1.482   3.887   7.493
   47CHL1  H16A 3426   1.517   3.797   7.548
   47CHL1  H16B 3427   1.516   3.973   7.554
   47CHL1   C17 3428   1.332   3.853   7.467
   47CHL1   H17 3429   1.267   3.942   7.454
   47CHL1   C13 3430   1.331   3.765   7.334
   47CHL1   C18 3431   1.404   3.626   7.367
   47CHL1  H18A 3432   1.497   3.629   7.429
   47CHL1  H18B 3433   1.329   3.555   7.409
   47CHL1  H18C 3434   1.432   3.583   7.269
   47CHL1   C12 3435   1.198   3.745   7.251
   47CHL1  H12A 3436   1.117   3.681   7.293
   47CHL1  H12B 3437   1.152   3.845   7.238
   47CHL1   C11 3438   1.229   3.695   7.110
   47CHL1  H11A 3439   1.277   3.596   7.126
   47CHL1  H11B 3440   1.132   3.679   7.057
   47CHL1    C9 3441   1.324   3.788   7.037
   47CHL1    H9 3442   1.265   3.882   7.035
   47CHL1   C10 3443   1.352   3.750   6.888
   47CHL1   C19 3444   1.370   3.595   6.873
   47CHL1  H19A 3445   1.276   3.543   6.903
   47CHL1  H19B 3446   1.381   3.558   6.769
   47CHL1  H19C 3447   1.451   3.558   6.940
   47CHL1    C1 3448   1.227   3.786   6.805
   47CHL1   H1A 3449   1.143   3.714   6.816
   47CHL1   H1B 3450   1.194   3.890   6.827
   47CHL1    C2 3451   1.248   3.778   6.656
   47CHL1   H2A 3452   1.156   3.819   6.610
   47CHL1   H2B 3453   1.273   3.672   6.632
   47CHL1   C20 3454   1.255   3.783   7.590
   47CHL1   H20 3455   1.277   3.674   7.582
   47CHL1   C21 3456   1.106   3.805   7.576
   47CHL1  H21A 3457   1.075   3.764   7.477
   47CHL1  H21B 3458   1.083   3.914   7.577
   47CHL1  H21C 3459   1.043   3.765   7.658
   47CHL1   C22 3460   1.305   3.824   7.733
   47CHL1  H22A 3461   1.416   3.813   7.735
   47CHL1  H22B 3462   1.261   3.924   7.749
   47CHL1   C23 3463   1.246   3.735   7.849
   47CHL1  H23A 3464   1.136   3.748   7.851
   47CHL1  H23B 3465   1.277   3.629   7.844
   47CHL1   C24 3466   1.303   3.793   7.983
   47CHL1  H24A 3467   1.412   3.774   7.982
   47CHL1  H24B 3468   1.286   3.902   7.987
   47CHL1   C25 3469   1.242   3.740   8.111
   47CHL1   H25 3470   1.142   3.787   8.124
   47CHL1   C26 3471   1.249   3.584   8.114
   47CHL1  H26A 3472   1.234   3.541   8.216
   47CHL1  H26B 3473   1.166   3.553   8.047
   47CHL1  H26C 3474   1.348   3.550   8.077
   47CHL1   C27 3475   1.333   3.791   8.224
   47CHL1  H27A 3476   1.291   3.771   8.325
   47CHL1  H27B 3477   1.434   3.745   8.220
   47CHL1  H27C 3478   1.355   3.899   8.208
   48CHL1    C3 3479   4.641   6.095   6.270
   48CHL1    H3 3480   4.726   6.166   6.280
   48CHL1    O3 3481   4.615   6.082   6.133
   48CHL1   H3' 3482   4.524   6.053   6.122
   48CHL1    C4 3483   4.696   5.958   6.313
   48CHL1   H4A 3484   4.617   5.883   6.291
   48CHL1   H4B 3485   4.782   5.941   6.244
   48CHL1    C5 3486   4.726   5.949   6.459
   48CHL1    C6 3487   4.845   5.908   6.502
   48CHL1    H6 3488   4.916   5.859   6.434
   48CHL1    C7 3489   4.878   5.893   6.646
   48CHL1   H7A 3490   4.934   5.799   6.667
   48CHL1   H7B 3491   4.958   5.966   6.667
   48CHL1    C8 3492   4.763   5.894   6.735
   48CHL1    H8 3493   4.710   5.798   6.716
   48CHL1   C14 3494   4.803   5.907   6.882
   48CHL1   H14 3495   4.875   5.991   6.878
   48CHL1   C15 3496   4.860   5.786   6.948
   48CHL1  H15A 3497   4.801   5.697   6.918
   48CHL1  H15B 3498   4.964   5.761   6.918
   48CHL1   C16 3499   4.861   5.825   7.095
   48CHL1  H16A 3500   4.827   5.735   7.150
   48CHL1  H16B 3501   4.960   5.863   7.127
   48CHL1   C17 3502   4.763   5.942   7.105
   48CHL1   H17 3503   4.825   6.034   7.096
   48CHL1   C13 3504   4.688   5.943   6.979
   48CHL1   C18 3505   4.580   5.832   6.982
   48CHL1  H18A 3506   4.549   5.822   6.876
   48CHL1  H18B 3507   4.616   5.730   7.007
   48CHL1  H18C 3508   4.492   5.856   7.046
   48CHL1   C12 3509   4.631   6.080   6.942
   48CHL1  H12A 3510   4.541   6.094   7.007
   48CHL1  H12B 3511   4.698   6.169   6.944
   48CHL1   C11 3512   4.575   6.067   6.798
   48CHL1  H11A 3513   4.485   6.002   6.800
   48CHL1  H11B 3514   4.537   6.168   6.770
   48CHL1    C9 3515   4.681   6.019   6.692
   48CHL1    H9 3516   4.761   6.096   6.692
   48CHL1   C10 3517   4.622   6.008   6.554
   48CHL1   C19 3518   4.509   5.905   6.563
   48CHL1  H19A 3519   4.466   5.881   6.463
   48CHL1  H19B 3520   4.545   5.807   6.600
   48CHL1  H19C 3521   4.426   5.937   6.629
   48CHL1    C1 3522   4.563   6.143   6.507
   48CHL1   H1A 3523   4.478   6.176   6.569
   48CHL1   H1B 3524   4.635   6.226   6.521
   48CHL1    C2 3525   4.524   6.147   6.355
   48CHL1   H2A 3526   4.494   6.252   6.332
   48CHL1   H2B 3527   4.436   6.081   6.343
   48CHL1   C20 3528   4.688   5.942   7.237
   48CHL1   H20 3529   4.599   5.878   7.225
   48CHL1   C21 3530   4.642   6.083   7.270
   48CHL1  H21A 3531   4.568   6.087   7.353
   48CHL1  H21B 3532   4.578   6.136   7.198
   48CHL1  H21C 3533   4.737   6.141   7.278
   48CHL1   C22 3534   4.758   5.877   7.361
   48CHL1  H22A 3535   4.789   5.772   7.343
   48CHL1  H22B 3536   4.849   5.940   7.373
   48CHL1   C23 3537   4.682   5.873   7.490
   48CHL1  H23A 3538   4.636   5.969   7.522
   48CHL1  H23B 3539   4.598   5.801   7.476
   48CHL1   C24 3540   4.759   5.811   7.603
   48CHL1  H24A 3541   4.693   5.766   7.681
   48CHL1  H24B 3542   4.808   5.721   7.562
   48CHL1   C25 3543   4.861   5.904   7.667
   48CHL1   H25 3544   4.907   5.963   7.584
   48CHL1   C26 3545   4.782   6.003   7.757
   48CHL1  H26A 3546   4.864   6.067   7.797
   48CHL1  H26B 3547   4.701   6.054   7.700
   48CHL1  H26C 3548   4.730   5.953   7.841
   48CHL1   C27 3549   4.955   5.827   7.746
   48CHL1  H27A 3550   4.900   5.757   7.813
   48CHL1  H27B 3551   5.014   5.767   7.673
   48CHL1  H27C 3552   5.029   5.884   7.806
   49CHL1    C3 3553   3.260   0.571   6.656
   49CHL1    H3 3554   3.177   0.518   6.707
   49CHL1    O3 3555   3.204   0.606   6.528
   49CHL1   H3' 3556   3.170   0.525   6.490
   49CHL1    C4 3557   3.300   0.700   6.737
   49CHL1   H4A 3558   3.384   0.752   6.684
   49CHL1   H4B 3559   3.220   0.776   6.741
   49CHL1    C5 3560   3.342   0.661   6.876
   49CHL1    C6 3561   3.292   0.721   6.986
   49CHL1    H6 3562   3.225   0.808   6.984
   49CHL1    C7 3563   3.338   0.691   7.127
   49CHL1   H7A 3564   3.346   0.781   7.191
   49CHL1   H7B 3565   3.255   0.631   7.170
   49CHL1    C8 3566   3.469   0.606   7.136
   49CHL1    H8 3567   3.550   0.682   7.122
   49CHL1   C14 3568   3.490   0.554   7.276
   49CHL1   H14 3569   3.397   0.494   7.292
   49CHL1   C15 3570   3.509   0.662   7.387
   49CHL1  H15A 3571   3.569   0.751   7.359
   49CHL1  H15B 3572   3.403   0.692   7.404
   49CHL1   C16 3573   3.552   0.579   7.505
   49CHL1  H16A 3574   3.633   0.640   7.550
   49CHL1  H16B 3575   3.467   0.562   7.575
   49CHL1   C17 3576   3.608   0.444   7.448
   49CHL1   H17 3577   3.532   0.369   7.478
   49CHL1   C13 3578   3.610   0.462   7.297
   49CHL1   C18 3579   3.739   0.541   7.258
   49CHL1  H18A 3580   3.735   0.572   7.151
   49CHL1  H18B 3581   3.761   0.634   7.315
   49CHL1  H18C 3582   3.827   0.474   7.258
   49CHL1   C12 3583   3.593   0.336   7.205
   49CHL1  H12A 3584   3.680   0.267   7.210
   49CHL1  H12B 3585   3.510   0.272   7.241
   49CHL1   C11 3586   3.587   0.387   7.061
   49CHL1  H11A 3587   3.688   0.425   7.033
   49CHL1  H11B 3588   3.582   0.294   7.000
   49CHL1    C9 3589   3.475   0.488   7.037
   49CHL1    H9 3590   3.382   0.427   7.049
   49CHL1   C10 3591   3.449   0.541   6.887
   49CHL1   C19 3592   3.581   0.622   6.854
   49CHL1  H19A 3593   3.670   0.556   6.868
   49CHL1  H19B 3594   3.580   0.653   6.748
   49CHL1  H19C 3595   3.589   0.703   6.929
   49CHL1    C1 3596   3.416   0.416   6.797
   49CHL1   H1A 3597   3.505   0.350   6.781
   49CHL1   H1B 3598   3.331   0.361   6.843
   49CHL1    C2 3599   3.380   0.466   6.650
   49CHL1   H2A 3600   3.366   0.384   6.575
   49CHL1   H2B 3601   3.468   0.516   6.604
   49CHL1   C20 3602   3.735   0.402   7.527
   49CHL1   H20 3603   3.815   0.478   7.540
   49CHL1   C21 3604   3.802   0.275   7.462
   49CHL1  H21A 3605   3.886   0.236   7.524
   49CHL1  H21B 3606   3.841   0.279   7.358
   49CHL1  H21C 3607   3.730   0.190   7.458
   49CHL1   C22 3608   3.696   0.367   7.671
   49CHL1  H22A 3609   3.618   0.439   7.703
   49CHL1  H22B 3610   3.650   0.266   7.665
   49CHL1   C23 3611   3.820   0.362   7.773
   49CHL1  H23A 3612   3.900   0.307   7.720
   49CHL1  H23B 3613   3.861   0.462   7.800
   49CHL1   C24 3614   3.781   0.289   7.906
   49CHL1  H24A 3615   3.695   0.343   7.951
   49CHL1  H24B 3616   3.770   0.180   7.889
   49CHL1   C25 3617   3.886   0.303   8.020
   49CHL1   H25 3618   3.890   0.413   8.035
   49CHL1   C26 3619   3.850   0.228   8.156
   49CHL1  H26A 3620   3.761   0.281   8.196
   49CHL1  H26B 3621   3.829   0.121   8.132
   49CHL1  H26C 3622   3.936   0.223   8.226
   49CHL1   C27 3623   4.026   0.255   7.968
   49CHL1  H27A 3624   4.058   0.331   7.895
   49CHL1  H27B 3625   4.095   0.249   8.055
   49CHL1  H27C 3626   4.016   0.156   7.919
   50CHL1    C3 3627   4.406   1.772   6.826
   50CHL1    H3 3628   4.353   1.861   6.865
   50CHL1    O3 3629   4.423   1.779   6.687
   50CHL1   H3' 3630   4.457   1.864   6.658
   50CHL1    C4 3631   4.543   1.766   6.893
   50CHL1   H4A 3632   4.612   1.683   6.870
   50CHL1   H4B 3633   4.585   1.860   6.851
   50CHL1    C5 3634   4.523   1.788   7.046
   50CHL1    C6 3635   4.584   1.894   7.106
   50CHL1    H6 3636   4.638   1.967   7.045
   50CHL1    C7 3637   4.576   1.927   7.250
   50CHL1   H7A 3638   4.675   1.959   7.288
   50CHL1   H7B 3639   4.510   2.016   7.260
   50CHL1    C8 3640   4.513   1.808   7.328
   50CHL1    H8 3641   4.603   1.743   7.329
   50CHL1   C14 3642   4.467   1.856   7.464
   50CHL1   H14 3643   4.380   1.921   7.437
   50CHL1   C15 3644   4.556   1.937   7.555
   50CHL1  H15A 3645   4.657   1.890   7.549
   50CHL1  H15B 3646   4.562   2.042   7.520
   50CHL1   C16 3647   4.495   1.932   7.699
   50CHL1  H16A 3648   4.562   1.892   7.779
   50CHL1  H16B 3649   4.469   2.031   7.741
   50CHL1   C17 3650   4.367   1.836   7.678
   50CHL1   H17 3651   4.284   1.904   7.648
   50CHL1   C13 3652   4.402   1.745   7.557
   50CHL1   C18 3653   4.514   1.643   7.609
   50CHL1  H18A 3654   4.582   1.602   7.532
   50CHL1  H18B 3655   4.579   1.687   7.687
   50CHL1  H18C 3656   4.453   1.563   7.657
   50CHL1   C12 3657   4.288   1.676   7.490
   50CHL1  H12A 3658   4.254   1.590   7.550
   50CHL1  H12B 3659   4.205   1.750   7.484
   50CHL1   C11 3660   4.326   1.635   7.345
   50CHL1  H11A 3661   4.388   1.544   7.360
   50CHL1  H11B 3662   4.230   1.612   7.295
   50CHL1    C9 3663   4.395   1.749   7.257
   50CHL1    H9 3664   4.314   1.824   7.243
   50CHL1   C10 3665   4.431   1.691   7.110
   50CHL1   C19 3666   4.518   1.568   7.126
   50CHL1  H19A 3667   4.557   1.536   7.027
   50CHL1  H19B 3668   4.612   1.595   7.178
   50CHL1  H19C 3669   4.463   1.485   7.176
   50CHL1    C1 3670   4.304   1.670   7.028
   50CHL1   H1A 3671   4.252   1.576   7.056
   50CHL1   H1B 3672   4.235   1.757   7.033
   50CHL1    C2 3673   4.324   1.652   6.877
   50CHL1   H2A 3674   4.233   1.636   6.816
   50CHL1   H2B 3675   4.394   1.567   6.861
   50CHL1   C20 3676   4.314   1.773   7.810
   50CHL1   H20 3677   4.367   1.680   7.835
   50CHL1   C21 3678   4.165   1.749   7.797
   50CHL1  H21A 3679   4.118   1.844   7.763
   50CHL1  H21B 3680   4.128   1.710   7.894
   50CHL1  H21C 3681   4.151   1.661   7.730
   50CHL1   C22 3682   4.330   1.864   7.931
   50CHL1  H22A 3683   4.433   1.905   7.934
   50CHL1  H22B 3684   4.263   1.952   7.925
   50CHL1   C23 3685   4.293   1.803   8.072
   50CHL1  H23A 3686   4.183   1.796   8.081
   50CHL1  H23B 3687   4.339   1.702   8.062
   50CHL1   C24 3688   4.349   1.886   8.185
   50CHL1  H24A 3689   4.459   1.875   8.191
   50CHL1  H24B 3690   4.324   1.992   8.164
   50CHL1   C25 3691   4.299   1.846   8.327
   50CHL1   H25 3692   4.271   1.738   8.320
   50CHL1   C26 3693   4.420   1.838   8.428
   50CHL1  H26A 3694   4.445   1.938   8.467
   50CHL1  H26B 3695   4.392   1.771   8.512
   50CHL1  H26C 3696   4.510   1.797   8.377
   50CHL1   C27 3697   4.193   1.936   8.366
   50CHL1  H27A 3698   4.148   1.903   8.463
   50CHL1  H27B 3699   4.234   2.037   8.385
   50CHL1  H27C 3700   4.117   1.935   8.284
   51CHL1    C3 3701   4.000   0.652   6.917
   51CHL1    H3 3702   3.900   0.612   6.946
   51CHL1    O3 3703   4.020   0.635   6.775
   51CHL1   H3' 3704   4.111   0.662   6.763
   51CHL1    C4 3705   4.003   0.798   6.969
   51CHL1   H4A 3706   4.101   0.834   6.929
   51CHL1   H4B 3707   3.918   0.849   6.918
   51CHL1    C5 3708   4.006   0.811   7.119
   51CHL1    C6 3709   3.916   0.883   7.181
   51CHL1    H6 3710   3.841   0.938   7.123
   51CHL1    C7 3711   3.910   0.905   7.333
   51CHL1   H7A 3712   3.913   1.015   7.348
   51CHL1   H7B 3713   3.816   0.883   7.388
   51CHL1    C8 3714   4.025   0.850   7.405
   51CHL1    H8 3715   4.110   0.920   7.391
   51CHL1   C14 3716   3.994   0.830   7.553
   51CHL1   H14 3717   3.917   0.750   7.558
   51CHL1   C15 3718   3.939   0.959   7.624
   51CHL1  H15A 3719   3.979   1.054   7.582
   51CHL1  H15B 3720   3.830   0.964   7.607
   51CHL1   C16 3721   3.969   0.927   7.769
   51CHL1  H16A 3722   4.025   1.007   7.822
   51CHL1  H16B 3723   3.869   0.934   7.818
   51CHL1   C17 3724   4.053   0.790   7.774
   51CHL1   H17 3725   3.978   0.708   7.783
   51CHL1   C13 3726   4.118   0.781   7.630
   51CHL1   C18 3727   4.233   0.881   7.614
   51CHL1  H18A 3728   4.195   0.979   7.649
   51CHL1  H18B 3729   4.319   0.846   7.674
   51CHL1  H18C 3730   4.266   0.892   7.508
   51CHL1   C12 3731   4.155   0.641   7.578
   51CHL1  H12A 3732   4.246   0.597   7.623
   51CHL1  H12B 3733   4.064   0.583   7.606
   51CHL1   C11 3734   4.170   0.631   7.429
   51CHL1  H11A 3735   4.268   0.681   7.412
   51CHL1  H11B 3736   4.169   0.532   7.380
   51CHL1    C9 3737   4.067   0.714   7.344
   51CHL1    H9 3738   3.973   0.654   7.337
   51CHL1   C10 3739   4.110   0.721   7.193
   51CHL1   C19 3740   4.249   0.787   7.175
   51CHL1  H19A 3741   4.320   0.718   7.225
   51CHL1  H19B 3742   4.297   0.805   7.076
   51CHL1  H19C 3743   4.245   0.880   7.234
   51CHL1    C1 3744   4.116   0.575   7.134
   51CHL1   H1A 3745   4.212   0.528   7.165
   51CHL1   H1B 3746   4.030   0.520   7.178
   51CHL1    C2 3747   4.111   0.564   6.982
   51CHL1   H2A 3748   4.105   0.460   6.943
   51CHL1   H2B 3749   4.209   0.603   6.947
   51CHL1   C20 3750   4.157   0.770   7.891
   51CHL1   H20 3751   4.259   0.808   7.869
   51CHL1   C21 3752   4.172   0.629   7.924
   51CHL1  H21A 3753   4.088   0.598   7.991
   51CHL1  H21B 3754   4.268   0.607   7.977
   51CHL1  H21C 3755   4.169   0.566   7.832
   51CHL1   C22 3756   4.117   0.848   8.021
   51CHL1  H22A 3757   4.140   0.955   8.004
   51CHL1  H22B 3758   4.009   0.839   8.045
   51CHL1   C23 3759   4.197   0.815   8.144
   51CHL1  H23A 3760   4.146   0.886   8.213
   51CHL1  H23B 3761   4.184   0.717   8.195
   51CHL1   C24 3762   4.342   0.850   8.120
   51CHL1  H24A 3763   4.393   0.781   8.049
   51CHL1  H24B 3764   4.343   0.957   8.093
   51CHL1   C25 3765   4.428   0.842   8.250
   51CHL1   H25 3766   4.367   0.906   8.318
   51CHL1   C26 3767   4.422   0.700   8.316
   51CHL1  H26A 3768   4.462   0.635   8.236
   51CHL1  H26B 3769   4.494   0.707   8.401
   51CHL1  H26C 3770   4.319   0.684   8.354
   51CHL1   C27 3771   4.567   0.905   8.241
   51CHL1  H27A 3772   4.631   0.834   8.184
   51CHL1  H27B 3773   4.561   0.999   8.183
   51CHL1  H27C 3774   4.613   0.939   8.336
   52CHL1    C3 3775   6.365   1.818   6.961
   52CHL1    H3 3776   6.292   1.737   6.978
   52CHL1    O3 3777   6.377   1.825   6.819
   52CHL1   H3' 3778   6.444   1.892   6.806
   52CHL1    C4 3779   6.329   1.957   7.011
   52CHL1   H4A 3780   6.413   2.027   6.994
   52CHL1   H4B 3781   6.235   1.993   6.963
   52CHL1    C5 3782   6.310   1.948   7.163
   52CHL1    C6 3783   6.196   1.978   7.229
   52CHL1    H6 3784   6.118   2.020   7.165
   52CHL1    C7 3785   6.169   1.967   7.380
   52CHL1   H7A 3786   6.133   2.058   7.433
   52CHL1   H7B 3787   6.094   1.885   7.391
   52CHL1    C8 3788   6.293   1.917   7.456
   52CHL1    H8 3789   6.355   2.005   7.484
   52CHL1   C14 3790   6.260   1.840   7.588
   52CHL1   H14 3791   6.220   1.739   7.563
   52CHL1   C15 3792   6.151   1.887   7.679
   52CHL1  H15A 3793   6.150   1.997   7.691
   52CHL1  H15B 3794   6.053   1.855   7.637
   52CHL1   C16 3795   6.180   1.811   7.808
   52CHL1  H16A 3796   6.189   1.885   7.891
   52CHL1  H16B 3797   6.089   1.754   7.834
   52CHL1   C17 3798   6.314   1.736   7.788
   52CHL1   H17 3799   6.288   1.632   7.760
   52CHL1   C13 3800   6.385   1.803   7.668
   52CHL1   C18 3801   6.463   1.931   7.725
   52CHL1  H18A 3802   6.550   1.885   7.775
   52CHL1  H18B 3803   6.502   2.004   7.651
   52CHL1  H18C 3804   6.404   1.991   7.798
   52CHL1   C12 3805   6.479   1.710   7.585
   52CHL1  H12A 3806   6.567   1.681   7.646
   52CHL1  H12B 3807   6.423   1.617   7.562
   52CHL1   C11 3808   6.517   1.783   7.454
   52CHL1  H11A 3809   6.592   1.862   7.477
   52CHL1  H11B 3810   6.582   1.713   7.397
   52CHL1    C9 3811   6.391   1.826   7.373
   52CHL1    H9 3812   6.321   1.742   7.353
   52CHL1   C10 3813   6.433   1.876   7.233
   52CHL1   C19 3814   6.544   1.977   7.245
   52CHL1  H19A 3815   6.589   2.006   7.148
   52CHL1  H19B 3816   6.524   2.069   7.304
   52CHL1  H19C 3817   6.638   1.934   7.284
   52CHL1    C1 3818   6.482   1.742   7.156
   52CHL1   H1A 3819   6.579   1.713   7.202
   52CHL1   H1B 3820   6.406   1.662   7.168
   52CHL1    C2 3821   6.499   1.770   7.006
   52CHL1   H2A 3822   6.527   1.669   6.967
   52CHL1   H2B 3823   6.581   1.839   6.978
   52CHL1   C20 3824   6.387   1.716   7.922
   52CHL1   H20 3825   6.435   1.807   7.965
   52CHL1   C21 3826   6.502   1.615   7.899
   52CHL1  H21A 3827   6.551   1.587   7.995
   52CHL1  H21B 3828   6.580   1.650   7.829
   52CHL1  H21C 3829   6.456   1.520   7.862
   52CHL1   C22 3830   6.298   1.658   8.039
   52CHL1  H22A 3831   6.212   1.722   8.067
   52CHL1  H22B 3832   6.273   1.555   8.008
   52CHL1   C23 3833   6.387   1.643   8.170
   52CHL1  H23A 3834   6.454   1.555   8.163
   52CHL1  H23B 3835   6.450   1.733   8.184
   52CHL1   C24 3836   6.302   1.628   8.295
   52CHL1  H24A 3837   6.265   1.732   8.306
   52CHL1  H24B 3838   6.228   1.552   8.261
   52CHL1   C25 3839   6.379   1.605   8.427
   52CHL1   H25 3840   6.468   1.671   8.428
   52CHL1   C26 3841   6.301   1.634   8.551
   52CHL1  H26A 3842   6.264   1.736   8.575
   52CHL1  H26B 3843   6.217   1.562   8.558
   52CHL1  H26C 3844   6.367   1.602   8.635
   52CHL1   C27 3845   6.425   1.459   8.439
   52CHL1  H27A 3846   6.473   1.445   8.539
   52CHL1  H27B 3847   6.337   1.392   8.434
   52CHL1  H27C 3848   6.496   1.433   8.357
   53CHL1    C3 3849   2.255   5.282   7.071
   53CHL1    H3 3850   2.252   5.387   7.036
   53CHL1    O3 3851   2.253   5.196   6.958
   53CHL1   H3' 3852   2.248   5.252   6.881
   53CHL1    C4 3853   2.368   5.249   7.169
   53CHL1   H4A 3854   2.387   5.140   7.173
   53CHL1   H4B 3855   2.461   5.283   7.119
   53CHL1    C5 3856   2.359   5.290   7.314
   53CHL1    C6 3857   2.456   5.358   7.371
   53CHL1    H6 3858   2.548   5.375   7.314
   53CHL1    C7 3859   2.450   5.399   7.519
   53CHL1   H7A 3860   2.549   5.380   7.565
   53CHL1   H7B 3861   2.424   5.507   7.527
   53CHL1    C8 3862   2.347   5.317   7.597
   53CHL1    H8 3863   2.391   5.217   7.619
   53CHL1   C14 3864   2.320   5.374   7.736
   53CHL1   H14 3865   2.272   5.474   7.727
   53CHL1   C15 3866   2.443   5.417   7.819
   53CHL1  H15A 3867   2.510   5.330   7.800
   53CHL1  H15B 3868   2.485   5.514   7.786
   53CHL1   C16 3869   2.398   5.412   7.964
   53CHL1  H16A 3870   2.451   5.333   8.021
   53CHL1  H16B 3871   2.420   5.508   8.016
   53CHL1   C17 3872   2.241   5.389   7.962
   53CHL1   H17 3873   2.195   5.484   7.929
   53CHL1   C13 3874   2.218   5.304   7.830
   53CHL1   C18 3875   2.269   5.164   7.850
   53CHL1  H18A 3876   2.261   5.098   7.762
   53CHL1  H18B 3877   2.376   5.168   7.882
   53CHL1  H18C 3878   2.222   5.110   7.935
   53CHL1   C12 3879   2.081   5.312   7.746
   53CHL1  H12A 3880   2.005   5.253   7.801
   53CHL1  H12B 3881   2.044   5.417   7.741
   53CHL1   C11 3882   2.093   5.242   7.602
   53CHL1  H11A 3883   2.108   5.137   7.633
   53CHL1  H11B 3884   1.994   5.243   7.550
   53CHL1    C9 3885   2.215   5.307   7.520
   53CHL1    H9 3886   2.182   5.411   7.502
   53CHL1   C10 3887   2.225   5.249   7.378
   53CHL1   C19 3888   2.223   5.093   7.386
   53CHL1  H19A 3889   2.116   5.063   7.387
   53CHL1  H19B 3890   2.264   5.044   7.296
   53CHL1  H19C 3891   2.269   5.045   7.475
   53CHL1    C1 3892   2.116   5.313   7.286
   53CHL1   H1A 3893   2.019   5.283   7.332
   53CHL1   H1B 3894   2.118   5.423   7.297
   53CHL1    C2 3895   2.116   5.257   7.144
   53CHL1   H2A 3896   2.054   5.321   7.078
   53CHL1   H2B 3897   2.085   5.151   7.142
   53CHL1   C20 3898   2.183   5.338   8.093
   53CHL1   H20 3899   2.201   5.228   8.096
   53CHL1   C21 3900   2.030   5.330   8.076
   53CHL1  H21A 3901   1.981   5.426   8.047
   53CHL1  H21B 3902   1.980   5.295   8.168
   53CHL1  H21C 3903   1.996   5.246   8.012
   53CHL1   C22 3904   2.247   5.399   8.222
   53CHL1  H22A 3905   2.358   5.399   8.227
   53CHL1  H22B 3906   2.229   5.508   8.217
   53CHL1   C23 3907   2.190   5.338   8.351
   53CHL1  H23A 3908   2.250   5.362   8.441
   53CHL1  H23B 3909   2.084   5.364   8.371
   53CHL1   C24 3910   2.207   5.182   8.358
   53CHL1  H24A 3911   2.109   5.150   8.316
   53CHL1  H24B 3912   2.293   5.146   8.298
   53CHL1   C25 3913   2.212   5.134   8.501
   53CHL1   H25 3914   2.297   5.190   8.547
   53CHL1   C26 3915   2.077   5.159   8.567
   53CHL1  H26A 3916   2.063   5.269   8.559
   53CHL1  H26B 3917   1.996   5.101   8.517
   53CHL1  H26C 3918   2.091   5.131   8.673
   53CHL1   C27 3919   2.254   4.982   8.506
   53CHL1  H27A 3920   2.173   4.931   8.450
   53CHL1  H27B 3921   2.353   4.975   8.456
   53CHL1  H27C 3922   2.267   4.939   8.607
   54CHL1    C3 3923   2.452   0.108   6.966
   54CHL1    H3 3924   2.357   0.067   7.007
   54CHL1    O3 3925   2.435   0.154   6.833
   54CHL1   H3' 3926   2.527   0.174   6.814
   54CHL1    C4 3927   2.509   0.232   7.045
   54CHL1   H4A 3928   2.595   0.286   7.000
   54CHL1   H4B 3929   2.427   0.306   7.037
   54CHL1    C5 3930   2.539   0.198   7.188
   54CHL1    C6 3931   2.492   0.263   7.294
   54CHL1    H6 3932   2.431   0.354   7.282
   54CHL1    C7 3933   2.528   0.224   7.436
   54CHL1   H7A 3934   2.544   0.311   7.503
   54CHL1   H7B 3935   2.433   0.183   7.475
   54CHL1    C8 3936   2.648   0.123   7.441
   54CHL1    H8 3937   2.736   0.190   7.431
   54CHL1   C14 3938   2.661   0.068   7.583
   54CHL1   H14 3939   2.562   0.020   7.594
   54CHL1   C15 3940   2.658   0.171   7.695
   54CHL1  H15A 3941   2.737   0.246   7.674
   54CHL1  H15B 3942   2.556   0.216   7.701
   54CHL1   C16 3943   2.687   0.085   7.820
   54CHL1  H16A 3944   2.773   0.133   7.870
   54CHL1  H16B 3945   2.598   0.071   7.885
   54CHL1   C17 3946   2.736  -0.047   7.762
   54CHL1   H17 3947   2.646  -0.112   7.755
   54CHL1   C13 3948   2.766  -0.024   7.617
   54CHL1   C18 3949   2.901   0.040   7.594
   54CHL1  H18A 3950   2.906   0.084   7.492
   54CHL1  H18B 3951   2.925   0.113   7.674
   54CHL1  H18C 3952   2.981  -0.037   7.590
   54CHL1   C12 3953   2.752  -0.139   7.512
   54CHL1  H12A 3954   2.816  -0.228   7.528
   54CHL1  H12B 3955   2.656  -0.196   7.521
   54CHL1   C11 3956   2.751  -0.091   7.364
   54CHL1  H11A 3957   2.853  -0.052   7.343
   54CHL1  H11B 3958   2.727  -0.174   7.294
   54CHL1    C9 3959   2.640   0.013   7.345
   54CHL1    H9 3960   2.545  -0.044   7.352
   54CHL1   C10 3961   2.630   0.075   7.204
   54CHL1   C19 3962   2.769   0.123   7.162
   54CHL1  H19A 3963   2.817   0.190   7.236
   54CHL1  H19B 3964   2.833   0.033   7.151
   54CHL1  H19C 3965   2.779   0.183   7.069
   54CHL1    C1 3966   2.576  -0.047   7.116
   54CHL1   H1A 3967   2.644  -0.134   7.130
   54CHL1   H1B 3968   2.474  -0.072   7.152
   54CHL1    C2 3969   2.553  -0.009   6.971
   54CHL1   H2A 3970   2.522  -0.097   6.910
   54CHL1   H2B 3971   2.652   0.025   6.934
   54CHL1   C20 3972   2.835  -0.118   7.848
   54CHL1   H20 3973   2.930  -0.060   7.847
   54CHL1   C21 3974   2.882  -0.258   7.793
   54CHL1  H21A 3975   2.791  -0.317   7.768
   54CHL1  H21B 3976   2.940  -0.306   7.875
   54CHL1  H21C 3977   2.951  -0.254   7.705
   54CHL1   C22 3978   2.788  -0.126   7.994
   54CHL1  H22A 3979   2.725  -0.043   8.032
   54CHL1  H22B 3980   2.719  -0.213   7.990
   54CHL1   C23 3981   2.915  -0.148   8.085
   54CHL1  H23A 3982   2.948  -0.254   8.078
   54CHL1  H23B 3983   2.992  -0.071   8.062
   54CHL1   C24 3984   2.876  -0.117   8.235
   54CHL1  H24A 3985   2.842  -0.011   8.237
   54CHL1  H24B 3986   2.798  -0.192   8.258
   54CHL1   C25 3987   2.984  -0.149   8.343
   54CHL1   H25 3988   2.990  -0.260   8.338
   54CHL1   C26 3989   3.121  -0.100   8.314
   54CHL1  H26A 3990   3.122   0.011   8.320
   54CHL1  H26B 3991   3.190  -0.138   8.392
   54CHL1  H26C 3992   3.163  -0.127   8.214
   54CHL1   C27 3993   2.939  -0.096   8.483
   54CHL1  H27A 3994   2.854  -0.158   8.519
   54CHL1  H27B 3995   3.010  -0.097   8.569
   54CHL1  H27C 3996   2.895   0.006   8.475
   55CHL1    C3 3997   2.231   1.848   7.024
   55CHL1    H3 3998   2.324   1.909   7.023
   55CHL1    O3 3999   2.188   1.842   6.885
   55CHL1   H3' 4000   2.105   1.794   6.885
   55CHL1    C4 4001   2.254   1.712   7.071
   55CHL1   H4A 4002   2.162   1.650   7.058
   55CHL1   H4B 4003   2.333   1.655   7.016
   55CHL1    C5 4004   2.281   1.704   7.218
   55CHL1    C6 4005   2.391   1.638   7.255
   55CHL1    H6 4006   2.453   1.580   7.184
   55CHL1    C7 4007   2.432   1.611   7.401
   55CHL1   H7A 4008   2.454   1.505   7.429
   55CHL1   H7B 4009   2.518   1.671   7.436
   55CHL1    C8 4010   2.313   1.662   7.500
   55CHL1    H8 4011   2.239   1.580   7.493
   55CHL1   C14 4012   2.363   1.672   7.644
   55CHL1   H14 4013   2.447   1.744   7.632
   55CHL1   C15 4014   2.438   1.550   7.707
   55CHL1  H15A 4015   2.374   1.462   7.685
   55CHL1  H15B 4016   2.540   1.535   7.666
   55CHL1   C16 4017   2.436   1.582   7.861
   55CHL1  H16A 4018   2.393   1.496   7.916
   55CHL1  H16B 4019   2.544   1.586   7.886
   55CHL1   C17 4020   2.355   1.716   7.879
   55CHL1   H17 4021   2.430   1.798   7.880
   55CHL1   C13 4022   2.266   1.727   7.746
   55CHL1   C18 4023   2.148   1.634   7.758
   55CHL1  H18A 4024   2.098   1.598   7.665
   55CHL1  H18B 4025   2.189   1.543   7.807
   55CHL1  H18C 4026   2.076   1.691   7.820
   55CHL1   C12 4027   2.215   1.869   7.701
   55CHL1  H12A 4028   2.134   1.900   7.770
   55CHL1  H12B 4029   2.304   1.935   7.708
   55CHL1   C11 4030   2.159   1.869   7.562
   55CHL1  H11A 4031   2.059   1.821   7.568
   55CHL1  H11B 4032   2.149   1.972   7.521
   55CHL1    C9 4033   2.252   1.796   7.453
   55CHL1    H9 4034   2.335   1.867   7.433
   55CHL1   C10 4035   2.187   1.776   7.313
   55CHL1   C19 4036   2.049   1.711   7.325
   55CHL1  H19A 4037   1.975   1.790   7.350
   55CHL1  H19B 4038   2.011   1.679   7.226
   55CHL1  H19C 4039   2.044   1.617   7.385
   55CHL1    C1 4040   2.166   1.922   7.246
   55CHL1   H1A 4041   2.078   1.970   7.295
   55CHL1   H1B 4042   2.259   1.981   7.255
   55CHL1    C2 4043   2.129   1.923   7.105
   55CHL1   H2A 4044   2.152   2.027   7.074
   55CHL1   H2B 4045   2.026   1.888   7.086
   55CHL1   C20 4046   2.286   1.719   8.021
   55CHL1   H20 4047   2.225   1.626   8.020
   55CHL1   C21 4048   2.195   1.842   8.029
   55CHL1  H21A 4049   2.160   1.861   8.133
   55CHL1  H21B 4050   2.110   1.825   7.960
   55CHL1  H21C 4051   2.251   1.933   7.998
   55CHL1   C22 4052   2.388   1.703   8.141
   55CHL1  H22A 4053   2.458   1.618   8.125
   55CHL1  H22B 4054   2.450   1.793   8.160
   55CHL1   C23 4055   2.310   1.694   8.278
   55CHL1  H23A 4056   2.252   1.787   8.296
   55CHL1  H23B 4057   2.241   1.612   8.252
   55CHL1   C24 4058   2.400   1.653   8.397
   55CHL1  H24A 4059   2.444   1.553   8.377
   55CHL1  H24B 4060   2.487   1.720   8.419
   55CHL1   C25 4061   2.324   1.636   8.536
   55CHL1   H25 4062   2.250   1.554   8.531
   55CHL1   C26 4063   2.427   1.592   8.641
   55CHL1  H26A 4064   2.503   1.520   8.603
   55CHL1  H26B 4065   2.489   1.677   8.679
   55CHL1  H26C 4066   2.376   1.536   8.722
   55CHL1   C27 4067   2.258   1.764   8.584
   55CHL1  H27A 4068   2.218   1.751   8.686
   55CHL1  H27B 4069   2.321   1.855   8.579
   55CHL1  H27C 4070   2.182   1.801   8.511
   56CHL1    C3 4071   1.453   6.422   6.941
   56CHL1    H3 4072   1.361   6.483   6.949
   56CHL1    O3 4073   1.450   6.353   6.815
   56CHL1   H3' 4074   1.537   6.311   6.808
   56CHL1    C4 4075   1.582   6.507   6.940
   56CHL1   H4A 4076   1.669   6.440   6.921
   56CHL1   H4B 4077   1.595   6.581   6.858
   56CHL1    C5 4078   1.591   6.574   7.079
   56CHL1    C6 4079   1.593   6.705   7.093
   56CHL1    H6 4080   1.591   6.751   6.994
   56CHL1    C7 4081   1.613   6.785   7.209
   56CHL1   H7A 4082   1.674   6.876   7.190
   56CHL1   H7B 4083   1.512   6.825   7.232
   56CHL1    C8 4084   1.655   6.694   7.326
   56CHL1    H8 4085   1.764   6.678   7.315
   56CHL1   C14 4086   1.630   6.762   7.462
   56CHL1   H14 4087   1.524   6.763   7.494
   56CHL1   C15 4088   1.668   6.910   7.463
   56CHL1  H15A 4089   1.758   6.925   7.399
   56CHL1  H15B 4090   1.579   6.964   7.423
   56CHL1   C16 4091   1.695   6.941   7.610
   56CHL1  H16A 4092   1.794   6.989   7.619
   56CHL1  H16B 4093   1.634   7.020   7.659
   56CHL1   C17 4094   1.677   6.807   7.690
   56CHL1   H17 4095   1.567   6.804   7.710
   56CHL1   C13 4096   1.702   6.701   7.579
   56CHL1   C18 4097   1.855   6.699   7.556
   56CHL1  H18A 4098   1.880   6.646   7.462
   56CHL1  H18B 4099   1.907   6.797   7.558
   56CHL1  H18C 4100   1.905   6.636   7.633
   56CHL1   C12 4101   1.650   6.558   7.594
   56CHL1  H12A 4102   1.698   6.492   7.669
   56CHL1  H12B 4103   1.547   6.583   7.626
   56CHL1   C11 4104   1.645   6.478   7.460
   56CHL1  H11A 4105   1.754   6.461   7.447
   56CHL1  H11B 4106   1.596   6.381   7.482
   56CHL1    C9 4107   1.590   6.552   7.334
   56CHL1    H9 4108   1.483   6.572   7.353
   56CHL1   C10 4109   1.612   6.472   7.201
   56CHL1   C19 4110   1.746   6.398   7.191
   56CHL1  H19A 4111   1.767   6.369   7.086
   56CHL1  H19B 4112   1.830   6.466   7.219
   56CHL1  H19C 4113   1.753   6.309   7.257
   56CHL1    C1 4114   1.485   6.381   7.192
   56CHL1   H1A 4115   1.471   6.298   7.264
   56CHL1   H1B 4116   1.401   6.453   7.190
   56CHL1    C2 4117   1.467   6.318   7.049
   56CHL1   H2A 4118   1.376   6.255   7.045
   56CHL1   H2B 4119   1.551   6.246   7.037
   56CHL1   C20 4120   1.754   6.808   7.828
   56CHL1   H20 4121   1.859   6.842   7.811
   56CHL1   C21 4122   1.751   6.666   7.893
   56CHL1  H21A 4123   1.788   6.585   7.827
   56CHL1  H21B 4124   1.645   6.652   7.924
   56CHL1  H21C 4125   1.818   6.663   7.981
   56CHL1   C22 4126   1.695   6.910   7.931
   56CHL1  H22A 4127   1.702   7.011   7.885
   56CHL1  H22B 4128   1.585   6.906   7.946
   56CHL1   C23 4129   1.755   6.927   8.072
   56CHL1  H23A 4130   1.755   6.836   8.135
   56CHL1  H23B 4131   1.865   6.938   8.062
   56CHL1   C24 4132   1.701   7.051   8.149
   56CHL1  H24A 4133   1.717   7.142   8.088
   56CHL1  H24B 4134   1.593   7.031   8.165
   56CHL1   C25 4135   1.750   7.081   8.299
   56CHL1   H25 4136   1.725   6.990   8.356
   56CHL1   C26 4137   1.901   7.104   8.315
   56CHL1  H26A 4138   1.923   7.196   8.256
   56CHL1  H26B 4139   1.953   7.021   8.264
   56CHL1  H26C 4140   1.943   7.133   8.414
   56CHL1   C27 4141   1.673   7.201   8.351
   56CHL1  H27A 4142   1.696   7.296   8.299
   56CHL1  H27B 4143   1.565   7.185   8.333
   56CHL1  H27C 4144   1.685   7.206   8.461
   57SAPC     N 4145   0.892   3.118  11.013
   57SAPC   C12 4146   0.987   3.033  10.926
   57SAPC  H12A 4147   1.014   2.944  10.981
   57SAPC  H12B 4148   1.082   3.084  10.922
   57SAPC   C13 4149   0.902   3.265  10.986
   57SAPC  H13A 4150   0.854   3.321  11.065
   57SAPC  H13B 4151   1.003   3.295  10.966
   57SAPC  H13C 4152   0.861   3.290  10.889
   57SAPC   C14 4153   0.752   3.077  11.001
   57SAPC  H14A 4154   0.682   3.138  11.055
   57SAPC  H14B 4155   0.724   3.082  10.896
   57SAPC  H14C 4156   0.738   2.981  11.047
   57SAPC   C15 4157   0.931   3.085  11.150
   57SAPC  H15A 4158   0.874   3.129  11.231
   57SAPC  H15B 4159   0.915   2.980  11.165
   57SAPC  H15C 4160   1.030   3.120  11.175
   57SAPC   C11 4161   0.949   2.992  10.779
   57SAPC  H11A 4162   0.869   2.915  10.769
   57SAPC  H11B 4163   1.038   2.941  10.734
   57SAPC     P 4164   1.026   3.216  10.661
   57SAPC   O13 4165   0.969   3.351  10.681
   57SAPC   O14 4166   1.154   3.186  10.724
   57SAPC   O12 4167   0.917   3.118  10.710
   57SAPC   O11 4168   1.046   3.190  10.503
   57SAPC    C1 4169   0.992   3.067  10.457
   57SAPC    HA 4170   1.024   2.986  10.526
   57SAPC    HB 4171   0.882   3.070  10.468
   57SAPC    C2 4172   1.042   3.035  10.313
   57SAPC    HS 4173   0.997   2.937  10.289
   57SAPC   O21 4174   1.189   3.054  10.303
   57SAPC   C21 4175   1.259   2.982  10.385
   57SAPC   O22 4176   1.216   2.883  10.443
   57SAPC   C22 4177   1.400   3.036  10.396
   57SAPC   H2R 4178   1.402   3.142  10.364
   57SAPC   H2S 4179   1.431   3.027  10.502
   57SAPC    C3 4180   0.976   3.131  10.211
   57SAPC    HX 4181   0.984   3.235  10.250
   57SAPC    HY 4182   0.866   3.116  10.215
   57SAPC   O31 4183   1.015   3.110  10.070
   57SAPC   C31 4184   1.130   3.178  10.033
   57SAPC   O32 4185   1.181   3.270  10.092
   57SAPC   C32 4186   1.186   3.130   9.896
   57SAPC   H2X 4187   1.124   3.045   9.861
   57SAPC   H2Y 4188   1.291   3.096   9.911
   57SAPC   C23 4189   1.497   2.952  10.310
   57SAPC   H3R 4190   1.517   2.853  10.357
   57SAPC   H3S 4191   1.598   2.998  10.308
   57SAPC   C24 4192   1.452   2.935  10.159
   57SAPC   H4R 4193   1.431   3.035  10.115
   57SAPC   H4S 4194   1.355   2.881  10.155
   57SAPC   C25 4195   1.550   2.872  10.065
   57SAPC   H5R 4196   1.650   2.917  10.071
   57SAPC   C26 4197   1.536   2.768   9.979
   57SAPC   H6R 4198   1.620   2.741   9.914
   57SAPC   C27 4199   1.417   2.677   9.972
   57SAPC   H7R 4200   1.390   2.641  10.074
   57SAPC   H7S 4201   1.443   2.583   9.918
   57SAPC   C28 4202   1.292   2.744   9.917
   57SAPC   H8R 4203   1.254   2.810   9.996
   57SAPC   C29 4204   1.264   2.751   9.783
   57SAPC   H9R 4205   1.171   2.801   9.752
   57SAPC  C210 4206   1.313   2.663   9.668
   57SAPC  H10R 4207   1.258   2.566   9.663
   57SAPC  H10S 4208   1.421   2.638   9.679
   57SAPC  C211 4209   1.302   2.735   9.540
   57SAPC  H11R 4210   1.266   2.838   9.550
   57SAPC  C212 4211   1.317   2.684   9.414
   57SAPC  H12R 4212   1.303   2.745   9.323
   57SAPC  C213 4213   1.331   2.538   9.380
   57SAPC  H13R 4214   1.229   2.500   9.360
   57SAPC  H13S 4215   1.373   2.492   9.472
   57SAPC  C214 4216   1.432   2.524   9.268
   57SAPC  H14R 4217   1.524   2.582   9.286
   57SAPC  C215 4218   1.422   2.459   9.158
   57SAPC  H15R 4219   1.505   2.442   9.087
   57SAPC  C216 4220   1.307   2.367   9.117
   57SAPC  H16R 4221   1.216   2.395   9.173
   57SAPC  H16S 4222   1.335   2.262   9.139
   57SAPC  C217 4223   1.277   2.390   8.966
   57SAPC  H17R 4224   1.286   2.497   8.935
   57SAPC  H17S 4225   1.172   2.380   8.930
   57SAPC  C218 4226   1.354   2.289   8.872
   57SAPC  H18R 4227   1.460   2.287   8.906
   57SAPC  H18S 4228   1.364   2.328   8.768
   57SAPC  C219 4229   1.294   2.153   8.882
   57SAPC  H19R 4230   1.184   2.157   8.873
   57SAPC  H19S 4231   1.321   2.107   8.980
   57SAPC  C220 4232   1.346   2.057   8.771
   57SAPC  H20R 4233   1.341   1.948   8.791
   57SAPC  H20S 4234   1.455   2.077   8.765
   57SAPC  H20T 4235   1.286   2.082   8.681
   57SAPC   C33 4236   1.179   3.258   9.800
   57SAPC   H3X 4237   1.226   3.348   9.845
   57SAPC   H3Y 4238   1.074   3.291   9.785
   57SAPC   C34 4239   1.247   3.246   9.661
   57SAPC   H4X 4240   1.340   3.190   9.681
   57SAPC   H4Y 4241   1.277   3.348   9.629
   57SAPC   C35 4242   1.142   3.192   9.562
   57SAPC   H5X 4243   1.062   3.269   9.566
   57SAPC   H5Y 4244   1.111   3.095   9.605
   57SAPC   C36 4245   1.185   3.187   9.411
   57SAPC   H6X 4246   1.231   3.088   9.391
   57SAPC   H6Y 4247   1.272   3.257   9.409
   57SAPC   C37 4248   1.073   3.232   9.325
   57SAPC   H7X 4249   1.016   3.323   9.355
   57SAPC   H7Y 4250   0.996   3.152   9.333
   57SAPC   C38 4251   1.113   3.242   9.179
   57SAPC   H8X 4252   1.163   3.146   9.153
   57SAPC   H8Y 4253   1.176   3.332   9.160
   57SAPC   C39 4254   0.983   3.258   9.107
   57SAPC   H9X 4255   0.942   3.358   9.135
   57SAPC   H9Y 4256   0.909   3.184   9.145
   57SAPC  C310 4257   0.995   3.238   8.955
   57SAPC  H10X 4258   1.075   3.301   8.910
   57SAPC  H10Y 4259   0.907   3.269   8.895
   57SAPC  C311 4260   1.018   3.085   8.915
   57SAPC  H11X 4261   0.946   3.020   8.969
   57SAPC  H11Y 4262   1.113   3.049   8.958
   57SAPC  C312 4263   1.007   3.057   8.761
   57SAPC  H12X 4264   1.096   3.116   8.729
   57SAPC  H12Y 4265   0.911   3.089   8.716
   57SAPC  C313 4266   1.040   2.911   8.721
   57SAPC  H13X 4267   0.964   2.843   8.765
   57SAPC  H13Y 4268   1.135   2.875   8.766
   57SAPC  C314 4269   1.043   2.893   8.569
   57SAPC  H14X 4270   1.137   2.925   8.520
   57SAPC  H14Y 4271   0.960   2.951   8.524
   57SAPC  C315 4272   1.028   2.745   8.523
   57SAPC  H15X 4273   1.024   2.749   8.412
   57SAPC  H15Y 4274   0.933   2.694   8.547
   57SAPC  C316 4275   1.148   2.651   8.552
   57SAPC  H16X 4276   1.159   2.651   8.663
   57SAPC  H16Y 4277   1.245   2.695   8.521
   57SAPC  C317 4278   1.120   2.507   8.508
   57SAPC  H17X 4279   1.110   2.506   8.397
   57SAPC  H17Y 4280   1.032   2.472   8.566
   57SAPC  C318 4281   1.236   2.408   8.537
   57SAPC  H18X 4282   1.210   2.364   8.636
   57SAPC  H18Y 4283   1.342   2.441   8.534
   57SAPC  H18Z 4284   1.231   2.323   8.467
   58SAPC     N 4285   3.369   1.011  10.878
   58SAPC   C12 4286   3.353   1.134  10.797
   58SAPC  H12A 4287   3.423   1.213  10.821
   58SAPC  H12B 4288   3.251   1.171  10.799
   58SAPC   C13 4289   3.316   1.044  11.014
   58SAPC  H13A 4290   3.346   0.973  11.090
   58SAPC  H13B 4291   3.353   1.142  11.039
   58SAPC  H13C 4292   3.210   1.061  11.016
   58SAPC   C14 4293   3.297   0.893  10.820
   58SAPC  H14A 4294   3.306   0.804  10.881
   58SAPC  H14B 4295   3.193   0.919  10.816
   58SAPC  H14C 4296   3.337   0.871  10.722
   58SAPC   C15 4297   3.515   0.983  10.892
   58SAPC  H15A 4298   3.556   0.972  10.792
   58SAPC  H15B 4299   3.571   1.064  10.937
   58SAPC  H15C 4300   3.546   0.899  10.952
   58SAPC   C11 4301   3.391   1.126  10.647
   58SAPC  H11A 4302   3.349   1.216  10.598
   58SAPC  H11B 4303   3.321   1.050  10.605
   58SAPC     P 4304   3.648   1.203  10.662
   58SAPC   O13 4305   3.606   1.276  10.779
   58SAPC   O14 4306   3.769   1.124  10.683
   58SAPC   O12 4307   3.527   1.103  10.619
   58SAPC   O11 4308   3.656   1.303  10.536
   58SAPC    C1 4309   3.568   1.312  10.418
   58SAPC    HA 4310   3.469   1.288  10.462
   58SAPC    HB 4311   3.570   1.414  10.375
   58SAPC    C2 4312   3.589   1.201  10.310
   58SAPC    HS 4313   3.620   1.103  10.351
   58SAPC   O21 4314   3.688   1.252  10.231
   58SAPC   C21 4315   3.773   1.166  10.166
   58SAPC   O22 4316   3.781   1.045  10.185
   58SAPC   C22 4317   3.854   1.244  10.068
   58SAPC   H2R 4318   3.786   1.320  10.024
   58SAPC   H2S 4319   3.933   1.303  10.118
   58SAPC    C3 4320   3.456   1.177  10.233
   58SAPC    HX 4321   3.436   1.262  10.165
   58SAPC    HY 4322   3.363   1.169  10.293
   58SAPC   O31 4323   3.461   1.060  10.147
   58SAPC   C31 4324   3.453   0.938  10.208
   58SAPC   O32 4325   3.410   0.921  10.317
   58SAPC   C32 4326   3.515   0.825  10.127
   58SAPC   H2X 4327   3.450   0.735  10.123
   58SAPC   H2Y 4328   3.606   0.808  10.188
   58SAPC   C23 4329   3.921   1.151   9.958
   58SAPC   H3R 4330   3.885   1.049   9.980
   58SAPC   H3S 4331   4.031   1.160   9.952
   58SAPC   C24 4332   3.870   1.200   9.823
   58SAPC   H4R 4333   3.932   1.163   9.740
   58SAPC   H4S 4334   3.892   1.308   9.811
   58SAPC   C25 4335   3.721   1.166   9.803
   58SAPC   H5R 4336   3.655   1.188   9.888
   58SAPC   C26 4337   3.668   1.112   9.688
   58SAPC   H6R 4338   3.559   1.101   9.684
   58SAPC   C27 4339   3.753   1.076   9.562
   58SAPC   H7R 4340   3.840   1.017   9.599
   58SAPC   H7S 4341   3.797   1.162   9.507
   58SAPC   C28 4342   3.679   0.989   9.463
   58SAPC   H8R 4343   3.585   0.936   9.485
   58SAPC   C29 4344   3.729   0.949   9.344
   58SAPC   H9R 4345   3.664   0.882   9.287
   58SAPC  C210 4346   3.859   1.006   9.294
   58SAPC  H10R 4347   3.901   0.930   9.225
   58SAPC  H10S 4348   3.938   1.026   9.369
   58SAPC  C211 4349   3.843   1.138   9.226
   58SAPC  H11R 4350   3.809   1.213   9.298
   58SAPC  C212 4351   3.879   1.163   9.102
   58SAPC  H12R 4352   3.839   1.257   9.060
   58SAPC  C213 4353   3.942   1.075   9.000
   58SAPC  H13R 4354   3.914   1.114   8.899
   58SAPC  H13S 4355   3.884   0.981   9.012
   58SAPC  C214 4356   4.096   1.058   9.008
   58SAPC  H14R 4357   4.140   1.123   9.085
   58SAPC  C215 4358   4.182   0.986   8.931
   58SAPC  H15R 4359   4.290   0.993   8.948
   58SAPC  C216 4360   4.129   0.901   8.818
   58SAPC  H16R 4361   4.029   0.860   8.846
   58SAPC  H16S 4362   4.195   0.812   8.802
   58SAPC  C217 4363   4.091   0.974   8.682
   58SAPC  H17R 4364   4.173   1.037   8.642
   58SAPC  H17S 4365   4.003   1.041   8.700
   58SAPC  C218 4366   4.037   0.865   8.587
   58SAPC  H18R 4367   3.954   0.809   8.636
   58SAPC  H18S 4368   4.122   0.794   8.577
   58SAPC  C219 4369   3.978   0.911   8.453
   58SAPC  H19R 4370   4.051   0.962   8.385
   58SAPC  H19S 4371   3.899   0.989   8.461
   58SAPC  C220 4372   3.915   0.796   8.372
   58SAPC  H20R 4373   3.880   0.833   8.273
   58SAPC  H20S 4374   3.844   0.741   8.437
   58SAPC  H20T 4375   4.003   0.730   8.353
   58SAPC   C33 4376   3.565   0.855   9.987
   58SAPC   H3X 4377   3.647   0.930   9.996
   58SAPC   H3Y 4378   3.483   0.900   9.928
   58SAPC   C34 4379   3.611   0.725   9.916
   58SAPC   H4X 4380   3.535   0.644   9.917
   58SAPC   H4Y 4381   3.702   0.695   9.972
   58SAPC   C35 4382   3.647   0.746   9.768
   58SAPC   H5X 4383   3.725   0.823   9.747
   58SAPC   H5Y 4384   3.549   0.761   9.719
   58SAPC   C36 4385   3.695   0.613   9.699
   58SAPC   H6X 4386   3.632   0.531   9.740
   58SAPC   H6Y 4387   3.798   0.600   9.739
   58SAPC   C37 4388   3.696   0.620   9.547
   58SAPC   H7X 4389   3.745   0.716   9.520
   58SAPC   H7Y 4390   3.590   0.608   9.517
   58SAPC   C38 4391   3.764   0.492   9.493
   58SAPC   H8X 4392   3.701   0.406   9.527
   58SAPC   H8Y 4393   3.865   0.483   9.537
   58SAPC   C39 4394   3.781   0.494   9.342
   58SAPC   H9X 4395   3.686   0.534   9.300
   58SAPC   H9Y 4396   3.806   0.394   9.301
   58SAPC  C310 4397   3.893   0.589   9.300
   58SAPC  H10X 4398   3.987   0.576   9.357
   58SAPC  H10Y 4399   3.864   0.690   9.338
   58SAPC  C311 4400   3.915   0.578   9.148
   58SAPC  H11X 4401   3.957   0.672   9.106
   58SAPC  H11Y 4402   3.818   0.550   9.102
   58SAPC  C312 4403   4.018   0.465   9.108
   58SAPC  H12X 4404   3.983   0.378   9.169
   58SAPC  H12Y 4405   4.121   0.501   9.131
   58SAPC  C313 4406   4.012   0.434   8.959
   58SAPC  H13X 4407   4.065   0.512   8.900
   58SAPC  H13Y 4408   3.908   0.429   8.922
   58SAPC  C314 4409   4.082   0.300   8.920
   58SAPC  H14X 4410   4.034   0.226   8.988
   58SAPC  H14Y 4411   4.190   0.307   8.946
   58SAPC  C315 4412   4.072   0.258   8.777
   58SAPC  H15X 4413   3.964   0.275   8.753
   58SAPC  H15Y 4414   4.104   0.152   8.778
   58SAPC  C316 4415   4.152   0.342   8.683
   58SAPC  H16X 4416   4.252   0.370   8.724
   58SAPC  H16Y 4417   4.102   0.440   8.663
   58SAPC  C317 4418   4.158   0.276   8.546
   58SAPC  H17X 4419   4.059   0.234   8.516
   58SAPC  H17Y 4420   4.230   0.193   8.562
   58SAPC  C318 4421   4.213   0.374   8.441
   58SAPC  H18X 4422   4.253   0.322   8.352
   58SAPC  H18Y 4423   4.297   0.433   8.482
   58SAPC  H18Z 4424   4.136   0.445   8.402
   59SAPC     N 4425   4.289   2.643  11.029
   59SAPC   C12 4426   4.417   2.715  10.995
   59SAPC  H12A 4427   4.448   2.773  11.081
   59SAPC  H12B 4428   4.393   2.790  10.922
   59SAPC   C13 4429   4.187   2.747  11.072
   59SAPC  H13A 4430   4.095   2.702  11.107
   59SAPC  H13B 4431   4.233   2.817  11.140
   59SAPC  H13C 4432   4.151   2.817  10.998
   59SAPC   C14 4433   4.251   2.560  10.911
   59SAPC  H14A 4434   4.246   2.617  10.819
   59SAPC  H14B 4435   4.326   2.482  10.904
   59SAPC  H14C 4436   4.157   2.511  10.931
   59SAPC   C15 4437   4.302   2.560  11.154
   59SAPC  H15A 4438   4.360   2.471  11.134
   59SAPC  H15B 4439   4.347   2.622  11.230
   59SAPC  H15C 4440   4.203   2.525  11.180
   59SAPC   C11 4441   4.540   2.636  10.943
   59SAPC  H11A 4442   4.622   2.711  10.937
   59SAPC  H11B 4443   4.525   2.590  10.843
   59SAPC     P 4444   4.675   2.541  11.157
   59SAPC   O13 4445   4.700   2.685  11.173
   59SAPC   O14 4446   4.600   2.482  11.275
   59SAPC   O12 4447   4.571   2.531  11.033
   59SAPC   O11 4448   4.805   2.457  11.127
   59SAPC    C1 4449   4.801   2.330  11.061
   59SAPC    HA 4450   4.886   2.278  11.110
   59SAPC    HB 4451   4.707   2.278  11.087
   59SAPC    C2 4452   4.859   2.333  10.916
   59SAPC    HS 4453   4.891   2.230  10.889
   59SAPC   O21 4454   4.961   2.434  10.905
   59SAPC   C21 4455   5.079   2.390  10.929
   59SAPC   O22 4456   5.108   2.285  10.983
   59SAPC   C22 4457   5.185   2.486  10.866
   59SAPC   H2R 4458   5.174   2.572  10.936
   59SAPC   H2S 4459   5.286   2.439  10.877
   59SAPC    C3 4460   4.741   2.359  10.817
   59SAPC    HX 4461   4.729   2.469  10.824
   59SAPC    HY 4462   4.652   2.301  10.851
   59SAPC   O31 4463   4.782   2.318  10.686
   59SAPC   C31 4464   4.766   2.188  10.657
   59SAPC   O32 4465   4.725   2.105  10.738
   59SAPC   C32 4466   4.811   2.163  10.517
   59SAPC   H2X 4467   4.733   2.137  10.444
   59SAPC   H2Y 4468   4.879   2.075  10.524
   59SAPC   C23 4469   5.170   2.518  10.702
   59SAPC   H3R 4470   5.215   2.617  10.680
   59SAPC   H3S 4471   5.066   2.511  10.665
   59SAPC   C24 4472   5.257   2.420  10.618
   59SAPC   H4R 4473   5.361   2.432  10.656
   59SAPC   H4S 4474   5.244   2.458  10.514
   59SAPC   C25 4475   5.214   2.276  10.628
   59SAPC   H5R 4476   5.132   2.247  10.694
   59SAPC   C26 4477   5.276   2.184  10.547
   59SAPC   H6R 4478   5.242   2.080  10.546
   59SAPC   C27 4479   5.390   2.215  10.450
   59SAPC   H7R 4480   5.385   2.315  10.404
   59SAPC   H7S 4481   5.374   2.153  10.359
   59SAPC   C28 4482   5.532   2.195  10.513
   59SAPC   H8R 4483   5.541   2.227  10.618
   59SAPC   C29 4484   5.637   2.155  10.441
   59SAPC   H9R 4485   5.734   2.148  10.491
   59SAPC  C210 4486   5.633   2.105  10.304
   59SAPC  H10R 4487   5.655   2.184  10.229
   59SAPC  H10S 4488   5.537   2.058  10.274
   59SAPC  C211 4489   5.749   2.003  10.292
   59SAPC  H11R 4490   5.783   1.951  10.383
   59SAPC  C212 4491   5.809   1.975  10.174
   59SAPC  H12R 4492   5.897   1.909  10.171
   59SAPC  C213 4493   5.785   2.033  10.036
   59SAPC  H13R 4494   5.676   2.050  10.034
   59SAPC  H13S 4495   5.813   1.963   9.954
   59SAPC  C214 4496   5.851   2.167  10.015
   59SAPC  H14R 4497   5.909   2.211  10.098
   59SAPC  C215 4498   5.844   2.244   9.905
   59SAPC  H15R 4499   5.899   2.338   9.891
   59SAPC  C216 4500   5.778   2.202   9.777
   59SAPC  H16R 4501   5.725   2.286   9.729
   59SAPC  H16S 4502   5.695   2.135   9.808
   59SAPC  C217 4503   5.867   2.120   9.686
   59SAPC  H17R 4504   5.813   2.065   9.605
   59SAPC  H17S 4505   5.932   2.056   9.748
   59SAPC  C218 4506   5.957   2.219   9.608
   59SAPC  H18R 4507   6.052   2.171   9.575
   59SAPC  H18S 4508   5.983   2.313   9.661
   59SAPC  C219 4509   5.877   2.258   9.484
   59SAPC  H19R 4510   5.795   2.317   9.531
   59SAPC  H19S 4511   5.840   2.167   9.431
   59SAPC  C220 4512   5.947   2.347   9.379
   59SAPC  H20R 4513   5.876   2.376   9.299
   59SAPC  H20S 4514   6.035   2.300   9.330
   59SAPC  H20T 4515   5.982   2.439   9.429
   59SAPC   C33 4516   4.895   2.276  10.453
   59SAPC   H3X 4517   4.970   2.318  10.524
   59SAPC   H3Y 4518   4.824   2.358  10.435
   59SAPC   C34 4519   4.952   2.240  10.317
   59SAPC   H4X 4520   4.877   2.174  10.267
   59SAPC   H4Y 4521   5.046   2.181  10.329
   59SAPC   C35 4522   4.993   2.352  10.223
   59SAPC   H5X 4523   5.077   2.405  10.273
   59SAPC   H5Y 4524   4.913   2.428  10.213
   59SAPC   C36 4525   5.032   2.289  10.092
   59SAPC   H6X 4526   4.969   2.202  10.064
   59SAPC   H6Y 4527   5.131   2.246  10.117
   59SAPC   C37 4528   5.045   2.395   9.973
   59SAPC   H7X 4529   5.141   2.449   9.990
   59SAPC   H7Y 4530   4.965   2.472   9.972
   59SAPC   C38 4531   5.043   2.320   9.834
   59SAPC   H8X 4532   4.964   2.243   9.841
   59SAPC   H8Y 4533   5.139   2.265   9.827
   59SAPC   C39 4534   5.031   2.421   9.717
   59SAPC   H9X 4535   5.122   2.485   9.720
   59SAPC   H9Y 4536   4.937   2.477   9.738
   59SAPC  C310 4537   5.025   2.361   9.580
   59SAPC  H10X 4538   4.928   2.308   9.575
   59SAPC  H10Y 4539   5.105   2.284   9.566
   59SAPC  C311 4540   5.017   2.462   9.467
   59SAPC  H11X 4541   5.108   2.525   9.464
   59SAPC  H11Y 4542   4.930   2.524   9.496
   59SAPC  C312 4543   5.003   2.398   9.323
   59SAPC  H12X 4544   4.958   2.463   9.245
   59SAPC  H12Y 4545   4.939   2.308   9.329
   59SAPC  C313 4546   5.150   2.366   9.271
   59SAPC  H13X 4547   5.190   2.288   9.339
   59SAPC  H13Y 4548   5.214   2.457   9.275
   59SAPC  C314 4549   5.168   2.312   9.131
   59SAPC  H14X 4550   5.107   2.220   9.115
   59SAPC  H14Y 4551   5.272   2.283   9.106
   59SAPC  C315 4552   5.140   2.411   9.021
   59SAPC  H15X 4553   5.208   2.495   9.047
   59SAPC  H15Y 4554   5.035   2.450   9.019
   59SAPC  C316 4555   5.185   2.340   8.885
   59SAPC  H16X 4556   5.118   2.252   8.872
   59SAPC  H16Y 4557   5.292   2.311   8.901
   59SAPC  C317 4558   5.169   2.427   8.763
   59SAPC  H17X 4559   5.219   2.525   8.776
   59SAPC  H17Y 4560   5.059   2.438   8.754
   59SAPC  C318 4561   5.222   2.356   8.639
   59SAPC  H18X 4562   5.333   2.348   8.631
   59SAPC  H18Y 4563   5.189   2.413   8.550
   59SAPC  H18Z 4564   5.189   2.250   8.636
   60SAPC     N 4565   0.191   0.510  10.950
   60SAPC   C12 4566   0.259   0.512  10.811
   60SAPC  H12A 4567   0.252   0.421  10.754
   60SAPC  H12B 4568   0.361   0.542  10.828
   60SAPC   C13 4569   0.251   0.417  11.045
   60SAPC  H13A 4570   0.350   0.451  11.071
   60SAPC  H13B 4571   0.200   0.411  11.140
   60SAPC  H13C 4572   0.265   0.316  11.009
   60SAPC   C14 4573   0.192   0.644  11.012
   60SAPC  H14A 4574   0.144   0.717  10.948
   60SAPC  H14B 4575   0.158   0.643  11.114
   60SAPC  H14C 4576   0.298   0.667  11.022
   60SAPC   C15 4577   0.049   0.466  10.932
   60SAPC  H15A 4578   0.031   0.365  10.897
   60SAPC  H15B 4579   0.006   0.462  11.031
   60SAPC  H15C 4580  -0.012   0.537  10.878
   60SAPC   C11 4581   0.212   0.617  10.708
   60SAPC  H11A 4582   0.101   0.619  10.711
   60SAPC  H11B 4583   0.234   0.571  10.609
   60SAPC     P 4584   0.405   0.792  10.660
   60SAPC   O13 4585   0.470   0.899  10.736
   60SAPC   O14 4586   0.483   0.675  10.628
   60SAPC   O12 4587   0.268   0.752  10.732
   60SAPC   O11 4588   0.356   0.854  10.525
   60SAPC    C1 4589   0.224   0.920  10.511
   60SAPC    HA 4590   0.148   0.889  10.586
   60SAPC    HB 4591   0.235   1.026  10.545
   60SAPC    C2 4592   0.158   0.909  10.368
   60SAPC    HS 4593   0.057   0.956  10.370
   60SAPC   O21 4594   0.142   0.770  10.327
   60SAPC   C21 4595   0.054   0.707  10.404
   60SAPC   O22 4596  -0.014   0.757  10.492
   60SAPC   C22 4597   0.058   0.554  10.372
   60SAPC   H2R 4598   0.160   0.526  10.338
   60SAPC   H2S 4599   0.034   0.506  10.470
   60SAPC    C3 4600   0.237   0.985  10.260
   60SAPC    HX 4601   0.343   0.952  10.258
   60SAPC    HY 4602   0.243   1.090  10.298
   60SAPC   O31 4603   0.169   0.984  10.131
   60SAPC   C31 4604   0.212   0.888  10.044
   60SAPC   O32 4605   0.295   0.806  10.071
   60SAPC   C32 4606   0.151   0.902   9.904
   60SAPC   H2X 4607   0.147   1.009   9.872
   60SAPC   H2Y 4608   0.042   0.884   9.906
   60SAPC   C23 4609  -0.040   0.501  10.262
   60SAPC   H3R 4610  -0.146   0.498  10.294
   60SAPC   H3S 4611  -0.009   0.395  10.253
   60SAPC   C24 4612  -0.024   0.560  10.116
   60SAPC   H4R 4613  -0.061   0.477  10.052
   60SAPC   H4S 4614   0.086   0.572  10.104
   60SAPC   C25 4615  -0.082   0.692  10.092
   60SAPC   H5R 4616  -0.104   0.754  10.180
   60SAPC   C26 4617  -0.151   0.722   9.978
   60SAPC   H6R 4618  -0.193   0.823   9.978
   60SAPC   C27 4619  -0.150   0.648   9.840
   60SAPC   H7R 4620  -0.198   0.553   9.871
   60SAPC   H7S 4621  -0.048   0.626   9.802
   60SAPC   C28 4622  -0.238   0.719   9.741
   60SAPC   H8R 4623  -0.261   0.824   9.761
   60SAPC   C29 4624  -0.285   0.658   9.631
   60SAPC   H9R 4625  -0.335   0.725   9.559
   60SAPC  C210 4626  -0.263   0.511   9.589
   60SAPC  H10R 4627  -0.357   0.452   9.590
   60SAPC  H10S 4628  -0.223   0.450   9.673
   60SAPC  C211 4629  -0.179   0.492   9.466
   60SAPC  H11R 4630  -0.094   0.561   9.476
   60SAPC  C212 4631  -0.184   0.425   9.351
   60SAPC  H12R 4632  -0.110   0.448   9.273
   60SAPC  C213 4633  -0.289   0.329   9.301
   60SAPC  H13R 4634  -0.374   0.379   9.248
   60SAPC  H13S 4635  -0.338   0.279   9.387
   60SAPC  C214 4636  -0.231   0.227   9.209
   60SAPC  H14R 4637  -0.123   0.239   9.194
   60SAPC  C215 4638  -0.296   0.167   9.106
   60SAPC  H15R 4639  -0.226   0.112   9.042
   60SAPC  C216 4640  -0.440   0.151   9.080
   60SAPC  H16R 4641  -0.504   0.181   9.165
   60SAPC  H16S 4642  -0.472   0.046   9.062
   60SAPC  C217 4643  -0.471   0.227   8.952
   60SAPC  H17R 4644  -0.401   0.198   8.870
   60SAPC  H17S 4645  -0.455   0.336   8.968
   60SAPC  C218 4646  -0.604   0.192   8.882
   60SAPC  H18R 4647  -0.686   0.233   8.944
   60SAPC  H18S 4648  -0.612   0.081   8.881
   60SAPC  C219 4649  -0.621   0.246   8.749
   60SAPC  H19R 4650  -0.549   0.197   8.679
   60SAPC  H19S 4651  -0.609   0.356   8.734
   60SAPC  C220 4652  -0.762   0.213   8.694
   60SAPC  H20R 4653  -0.758   0.241   8.587
   60SAPC  H20S 4654  -0.840   0.285   8.729
   60SAPC  H20T 4655  -0.790   0.106   8.706
   60SAPC   C33 4656   0.216   0.805   9.805
   60SAPC   H3X 4657   0.216   0.704   9.851
   60SAPC   H3Y 4658   0.324   0.833   9.806
   60SAPC   C34 4659   0.157   0.806   9.663
   60SAPC   H4X 4660   0.176   0.908   9.623
   60SAPC   H4Y 4661   0.050   0.777   9.659
   60SAPC   C35 4662   0.234   0.706   9.572
   60SAPC   H5X 4663   0.206   0.601   9.594
   60SAPC   H5Y 4664   0.343   0.711   9.590
   60SAPC   C36 4665   0.207   0.757   9.422
   60SAPC   H6X 4666   0.203   0.868   9.418
   60SAPC   H6Y 4667   0.109   0.715   9.389
   60SAPC   C37 4668   0.320   0.706   9.333
   60SAPC   H7X 4669   0.317   0.595   9.331
   60SAPC   H7Y 4670   0.408   0.755   9.380
   60SAPC   C38 4671   0.312   0.757   9.185
   60SAPC   H8X 4672   0.299   0.868   9.184
   60SAPC   H8Y 4673   0.222   0.710   9.140
   60SAPC   C39 4674   0.432   0.723   9.101
   60SAPC   H9X 4675   0.492   0.633   9.124
   60SAPC   H9Y 4676   0.500   0.810   9.115
   60SAPC  C310 4677   0.407   0.723   8.951
   60SAPC  H10X 4678   0.510   0.734   8.911
   60SAPC  H10Y 4679   0.345   0.812   8.929
   60SAPC  C311 4680   0.350   0.591   8.892
   60SAPC  H11X 4681   0.424   0.512   8.919
   60SAPC  H11Y 4682   0.331   0.599   8.783
   60SAPC  C312 4683   0.225   0.535   8.948
   60SAPC  H12X 4684   0.150   0.615   8.964
   60SAPC  H12Y 4685   0.230   0.479   9.044
   60SAPC  C313 4686   0.161   0.418   8.860
   60SAPC  H13X 4687   0.221   0.325   8.868
   60SAPC  H13Y 4688   0.162   0.438   8.751
   60SAPC  C314 4689   0.009   0.396   8.894
   60SAPC  H14X 4690  -0.036   0.490   8.932
   60SAPC  H14Y 4691  -0.001   0.309   8.962
   60SAPC  C315 4692  -0.076   0.367   8.763
   60SAPC  H15X 4693  -0.064   0.453   8.694
   60SAPC  H15Y 4694  -0.182   0.377   8.794
   60SAPC  C316 4695  -0.042   0.233   8.685
   60SAPC  H16X 4696  -0.038   0.141   8.747
   60SAPC  H16Y 4697   0.053   0.244   8.629
   60SAPC  C317 4698  -0.151   0.198   8.578
   60SAPC  H17X 4699  -0.163   0.284   8.510
   60SAPC  H17Y 4700  -0.237   0.179   8.647
   60SAPC  C318 4701  -0.126   0.082   8.489
   60SAPC  H18X 4702  -0.056   0.113   8.408
   60SAPC  H18Y 4703  -0.222   0.055   8.440
   60SAPC  H18Z 4704  -0.081  -0.007   8.539
   61SAPC     N 4705   0.886   6.032  10.840
   61SAPC   C12 4706   0.774   6.127  10.806
   61SAPC  H12A 4707   0.703   6.082  10.739
   61SAPC  H12B 4708   0.825   6.206  10.752
   61SAPC   C13 4709   0.832   5.918  10.916
   61SAPC  H13A 4710   0.750   5.864  10.871
   61SAPC  H13B 4711   0.903   5.843  10.947
   61SAPC  H13C 4712   0.793   5.946  11.013
   61SAPC   C14 4713   0.953   5.975  10.720
   61SAPC  H14A 4714   0.995   6.063  10.673
   61SAPC  H14B 4715   1.031   5.902  10.739
   61SAPC  H14C 4716   0.880   5.931  10.654
   61SAPC   C15 4717   0.987   6.109  10.919
   61SAPC  H15A 4718   1.050   6.045  10.980
   61SAPC  H15B 4719   1.061   6.149  10.851
   61SAPC  H15C 4720   0.950   6.197  10.969
   61SAPC   C11 4721   0.681   6.197  10.906
   61SAPC  H11A 4722   0.640   6.122  10.977
   61SAPC  H11B 4723   0.589   6.234  10.856
   61SAPC     P 4724   0.757   6.451  10.934
   61SAPC   O13 4725   0.622   6.508  10.960
   61SAPC   O14 4726   0.866   6.506  11.015
   61SAPC   O12 4727   0.749   6.301  10.975
   61SAPC   O11 4728   0.793   6.443  10.781
   61SAPC    C1 4729   0.938   6.426  10.742
   61SAPC    HA 4730   1.001   6.505  10.788
   61SAPC    HB 4731   0.978   6.329  10.777
   61SAPC    C2 4732   0.965   6.427  10.591
   61SAPC    HS 4733   0.912   6.515  10.549
   61SAPC   O21 4734   0.916   6.308  10.528
   61SAPC   C21 4735   0.877   6.322  10.401
   61SAPC   O22 4736   0.870   6.424  10.335
   61SAPC   C22 4737   0.831   6.185  10.349
   61SAPC   H2R 4738   0.904   6.101  10.355
   61SAPC   H2S 4739   0.742   6.161  10.410
   61SAPC    C3 4740   1.117   6.432  10.571
   61SAPC    HX 4741   1.146   6.325  10.575
   61SAPC    HY 4742   1.154   6.492  10.656
   61SAPC   O31 4743   1.162   6.486  10.449
   61SAPC   C31 4744   1.294   6.500  10.428
   61SAPC   O32 4745   1.381   6.471  10.507
   61SAPC   C32 4746   1.322   6.557  10.294
   61SAPC   H2X 4747   1.430   6.582  10.287
   61SAPC   H2Y 4748   1.264   6.652  10.288
   61SAPC   C23 4749   0.779   6.198  10.202
   61SAPC   H3R 4750   0.701   6.277  10.198
   61SAPC   H3S 4751   0.727   6.105  10.168
   61SAPC   C24 4752   0.891   6.220  10.102
   61SAPC   H4R 4753   0.951   6.127  10.093
   61SAPC   H4S 4754   0.970   6.288  10.143
   61SAPC   C25 4755   0.851   6.273   9.964
   61SAPC   H5R 4756   0.818   6.378   9.960
   61SAPC   C26 4757   0.834   6.207   9.851
   61SAPC   H6R 4758   0.796   6.258   9.761
   61SAPC   C27 4759   0.863   6.059   9.834
   61SAPC   H7R 4760   0.765   6.012   9.809
   61SAPC   H7S 4761   0.886   6.003   9.927
   61SAPC   C28 4762   0.975   6.028   9.734
   61SAPC   H8R 4763   1.068   5.995   9.783
   61SAPC   C29 4764   0.968   6.032   9.601
   61SAPC   H9R 4765   1.060   6.013   9.544
   61SAPC  C210 4766   0.858   6.083   9.515
   61SAPC  H10R 4767   0.891   6.166   9.448
   61SAPC  H10S 4768   0.782   6.134   9.579
   61SAPC  C211 4769   0.784   5.979   9.434
   61SAPC  H11R 4770   0.721   5.913   9.495
   61SAPC  C212 4771   0.794   5.966   9.300
   61SAPC  H12R 4772   0.735   5.887   9.251
   61SAPC  C213 4773   0.893   6.045   9.217
   61SAPC  H13R 4774   0.986   6.041   9.278
   61SAPC  H13S 4775   0.861   6.151   9.219
   61SAPC  C214 4776   0.912   6.001   9.077
   61SAPC  H14R 4777   0.819   6.026   9.023
   61SAPC  C215 4778   1.006   5.939   9.011
   61SAPC  H15R 4779   0.970   5.910   8.911
   61SAPC  C216 4780   1.142   5.901   9.067
   61SAPC  H16R 4781   1.173   5.807   9.017
   61SAPC  H16S 4782   1.139   5.856   9.168
   61SAPC  C217 4783   1.246   6.017   9.074
   61SAPC  H17R 4784   1.345   5.972   9.097
   61SAPC  H17S 4785   1.227   6.068   9.170
   61SAPC  C218 4786   1.250   6.108   8.947
   61SAPC  H18R 4787   1.146   6.132   8.919
   61SAPC  H18S 4788   1.292   6.063   8.855
   61SAPC  C219 4789   1.331   6.236   8.970
   61SAPC  H19R 4790   1.305   6.290   9.064
   61SAPC  H19S 4791   1.309   6.310   8.890
   61SAPC  C220 4792   1.479   6.207   8.968
   61SAPC  H20R 4793   1.535   6.300   8.990
   61SAPC  H20S 4794   1.518   6.158   8.877
   61SAPC  H20T 4795   1.501   6.135   9.050
   61SAPC   C33 4796   1.283   6.469  10.175
   61SAPC   H3X 4797   1.182   6.427  10.191
   61SAPC   H3Y 4798   1.359   6.389  10.159
   61SAPC   C34 4799   1.272   6.547  10.037
   61SAPC   H4X 4800   1.357   6.615  10.014
   61SAPC   H4Y 4801   1.182   6.611  10.042
   61SAPC   C35 4802   1.247   6.441   9.926
   61SAPC   H5X 4803   1.149   6.392   9.942
   61SAPC   H5Y 4804   1.322   6.360   9.913
   61SAPC   C36 4805   1.239   6.512   9.791
   61SAPC   H6X 4806   1.338   6.563   9.783
   61SAPC   H6Y 4807   1.157   6.586   9.802
   61SAPC   C37 4808   1.196   6.419   9.674
   61SAPC   H7X 4809   1.092   6.388   9.698
   61SAPC   H7Y 4810   1.259   6.327   9.666
   61SAPC   C38 4811   1.173   6.493   9.541
   61SAPC   H8X 4812   1.267   6.550   9.522
   61SAPC   H8Y 4813   1.083   6.557   9.550
   61SAPC   C39 4814   1.158   6.393   9.430
   61SAPC   H9X 4815   1.095   6.311   9.471
   61SAPC   H9Y 4816   1.248   6.333   9.405
   61SAPC  C310 4817   1.091   6.448   9.306
   61SAPC  H10X 4818   1.001   6.505   9.336
   61SAPC  H10Y 4819   1.054   6.360   9.249
   61SAPC  C311 4820   1.192   6.529   9.223
   61SAPC  H11X 4821   1.288   6.473   9.225
   61SAPC  H11Y 4822   1.215   6.622   9.279
   61SAPC  C312 4823   1.141   6.569   9.085
   61SAPC  H12X 4824   1.030   6.579   9.092
   61SAPC  H12Y 4825   1.153   6.483   9.016
   61SAPC  C313 4826   1.198   6.700   9.031
   61SAPC  H13X 4827   1.304   6.681   9.005
   61SAPC  H13Y 4828   1.205   6.767   9.120
   61SAPC  C314 4829   1.115   6.766   8.915
   61SAPC  H14X 4830   1.160   6.866   8.898
   61SAPC  H14Y 4831   1.009   6.769   8.950
   61SAPC  C315 4832   1.127   6.700   8.772
   61SAPC  H15X 4833   1.098   6.594   8.784
   61SAPC  H15Y 4834   1.233   6.699   8.738
   61SAPC  C316 4835   1.038   6.766   8.668
   61SAPC  H16X 4836   1.077   6.869   8.661
   61SAPC  H16Y 4837   0.929   6.773   8.693
   61SAPC  C317 4838   1.042   6.700   8.533
   61SAPC  H17X 4839   1.145   6.666   8.506
   61SAPC  H17Y 4840   1.001   6.770   8.457
   61SAPC  C318 4841   0.955   6.578   8.525
   61SAPC  H18X 4842   0.995   6.487   8.574
   61SAPC  H18Y 4843   0.949   6.552   8.418
   61SAPC  H18Z 4844   0.849   6.583   8.560
   62SAPC     N 4845   0.010   5.476  10.804
   62SAPC   C12 4846   0.154   5.517  10.849
   62SAPC  H12A 4847   0.223   5.437  10.825
   62SAPC  H12B 4848   0.160   5.520  10.956
   62SAPC   C13 4849  -0.094   5.576  10.841
   62SAPC  H13A 4850  -0.105   5.580  10.948
   62SAPC  H13B 4851  -0.073   5.675  10.805
   62SAPC  H13C 4852  -0.189   5.549  10.797
   62SAPC   C14 4853   0.009   5.462  10.656
   62SAPC  H14A 4854   0.039   5.361  10.635
   62SAPC  H14B 4855  -0.089   5.487  10.616
   62SAPC  H14C 4856   0.079   5.530  10.611
   62SAPC   C15 4857  -0.029   5.345  10.863
   62SAPC  H15A 4858   0.034   5.264  10.831
   62SAPC  H15B 4859  -0.025   5.346  10.971
   62SAPC  H15C 4860  -0.126   5.303  10.843
   62SAPC   C11 4861   0.205   5.652  10.797
   62SAPC  H11A 4862   0.292   5.696  10.850
   62SAPC  H11B 4863   0.135   5.739  10.796
   62SAPC     P 4864   0.370   5.583  10.616
   62SAPC   O13 4865   0.478   5.648  10.688
   62SAPC   O14 4866   0.364   5.437  10.638
   62SAPC   O12 4867   0.231   5.640  10.655
   62SAPC   O11 4868   0.372   5.622  10.463
   62SAPC    C1 4869   0.245   5.606  10.392
   62SAPC    HA 4870   0.191   5.510  10.405
   62SAPC    HB 4871   0.186   5.697  10.411
   62SAPC    C2 4872   0.281   5.603  10.235
   62SAPC    HS 4873   0.349   5.517  10.216
   62SAPC   O21 4874   0.353   5.723  10.207
   62SAPC   C21 4875   0.432   5.725  10.108
   62SAPC   O22 4876   0.463   5.624  10.041
   62SAPC   C22 4877   0.491   5.861  10.087
   62SAPC   H2R 4878   0.412   5.936  10.110
   62SAPC   H2S 4879   0.566   5.871  10.168
   62SAPC    C3 4880   0.159   5.592  10.147
   62SAPC    HX 4881   0.099   5.685  10.157
   62SAPC    HY 4882   0.102   5.505  10.186
   62SAPC   O31 4883   0.200   5.578  10.008
   62SAPC   C31 4884   0.215   5.454   9.965
   62SAPC   O32 4885   0.200   5.354  10.032
   62SAPC   C32 4886   0.249   5.467   9.824
   62SAPC   H2X 4887   0.356   5.497   9.818
   62SAPC   H2Y 4888   0.192   5.553   9.781
   62SAPC   C23 4889   0.550   5.882   9.951
   62SAPC   H3R 4890   0.614   5.804   9.905
   62SAPC   H3S 4891   0.620   5.967   9.943
   62SAPC   C24 4892   0.435   5.914   9.854
   62SAPC   H4R 4893   0.370   5.992   9.900
   62SAPC   H4S 4894   0.385   5.816   9.842
   62SAPC   C25 4895   0.490   5.954   9.715
   62SAPC   H5R 4896   0.557   6.042   9.711
   62SAPC   C26 4897   0.460   5.881   9.597
   62SAPC   H6R 4898   0.484   5.929   9.501
   62SAPC   C27 4899   0.380   5.752   9.577
   62SAPC   H7R 4900   0.296   5.770   9.506
   62SAPC   H7S 4901   0.323   5.720   9.667
   62SAPC   C28 4902   0.473   5.650   9.522
   62SAPC   H8R 4903   0.523   5.603   9.607
   62SAPC   C29 4904   0.495   5.618   9.391
   62SAPC   H9R 4905   0.573   5.545   9.366
   62SAPC  C210 4906   0.429   5.699   9.288
   62SAPC  H10R 4907   0.469   5.802   9.300
   62SAPC  H10S 4908   0.319   5.711   9.299
   62SAPC  C211 4909   0.461   5.645   9.145
   62SAPC  H11R 4910   0.444   5.536   9.146
   62SAPC  C212 4911   0.495   5.707   9.029
   62SAPC  H12R 4912   0.500   5.646   8.937
   62SAPC  C213 4913   0.525   5.856   9.018
   62SAPC  H13R 4914   0.634   5.878   9.019
   62SAPC  H13S 4915   0.480   5.927   9.090
   62SAPC  C214 4916   0.478   5.933   8.886
   62SAPC  H14R 4917   0.402   6.012   8.893
   62SAPC  C215 4918   0.537   5.925   8.765
   62SAPC  H15R 4919   0.497   5.970   8.673
   62SAPC  C216 4920   0.657   5.840   8.736
   62SAPC  H16R 4921   0.731   5.838   8.819
   62SAPC  H16S 4922   0.718   5.893   8.659
   62SAPC  C217 4923   0.630   5.694   8.688
   62SAPC  H17R 4924   0.615   5.631   8.779
   62SAPC  H17S 4925   0.724   5.660   8.640
   62SAPC  C218 4926   0.523   5.685   8.581
   62SAPC  H18R 4927   0.522   5.759   8.498
   62SAPC  H18S 4928   0.426   5.705   8.631
   62SAPC  C219 4929   0.523   5.543   8.529
   62SAPC  H19R 4930   0.553   5.470   8.607
   62SAPC  H19S 4931   0.589   5.521   8.443
   62SAPC  C220 4932   0.387   5.493   8.468
   62SAPC  H20R 4933   0.366   5.532   8.366
   62SAPC  H20S 4934   0.297   5.518   8.527
   62SAPC  H20T 4935   0.386   5.384   8.445
   62SAPC   C33 4936   0.227   5.338   9.742
   62SAPC   H3X 4937   0.119   5.311   9.740
   62SAPC   H3Y 4938   0.282   5.251   9.783
   62SAPC   C34 4939   0.282   5.373   9.603
   62SAPC   H4X 4940   0.388   5.404   9.602
   62SAPC   H4Y 4941   0.233   5.469   9.577
   62SAPC   C35 4942   0.248   5.269   9.505
   62SAPC   H5X 4943   0.141   5.239   9.513
   62SAPC   H5Y 4944   0.305   5.175   9.522
   62SAPC   C36 4945   0.275   5.309   9.358
   62SAPC   H6X 4946   0.385   5.318   9.344
   62SAPC   H6Y 4947   0.220   5.405   9.355
   62SAPC   C37 4948   0.229   5.216   9.242
   62SAPC   H7X 4949   0.118   5.213   9.240
   62SAPC   H7Y 4950   0.270   5.114   9.256
   62SAPC   C38 4951   0.273   5.261   9.102
   62SAPC   H8X 4952   0.384   5.262   9.096
   62SAPC   H8Y 4953   0.233   5.363   9.087
   62SAPC   C39 4954   0.202   5.170   8.999
   62SAPC   H9X 4955   0.092   5.184   8.995
   62SAPC   H9Y 4956   0.222   5.066   9.034
   62SAPC  C310 4957   0.262   5.174   8.860
   62SAPC  H10X 4958   0.372   5.175   8.872
   62SAPC  H10Y 4959   0.241   5.275   8.820
   62SAPC  C311 4960   0.221   5.064   8.761
   62SAPC  H11X 4961   0.110   5.062   8.763
   62SAPC  H11Y 4962   0.250   4.972   8.817
   62SAPC  C312 4963   0.261   5.086   8.613
   62SAPC  H12X 4964   0.367   5.117   8.605
   62SAPC  H12Y 4965   0.199   5.160   8.558
   62SAPC  C313 4966   0.236   4.958   8.518
   62SAPC  H13X 4967   0.264   4.981   8.413
   62SAPC  H13Y 4968   0.126   4.942   8.526
   62SAPC  C314 4969   0.334   4.840   8.561
   62SAPC  H14X 4970   0.298   4.795   8.656
   62SAPC  H14Y 4971   0.432   4.887   8.584
   62SAPC  C315 4972   0.345   4.725   8.454
   62SAPC  H15X 4973   0.374   4.766   8.355
   62SAPC  H15Y 4974   0.242   4.683   8.446
   62SAPC  C316 4975   0.447   4.608   8.484
   62SAPC  H16X 4976   0.402   4.508   8.467
   62SAPC  H16Y 4977   0.455   4.584   8.592
   62SAPC  C317 4978   0.578   4.612   8.410
   62SAPC  H17X 4979   0.632   4.708   8.425
   62SAPC  H17Y 4980   0.552   4.607   8.302
   62SAPC  C318 4981   0.661   4.491   8.450
   62SAPC  H18X 4982   0.610   4.397   8.420
   62SAPC  H18Y 4983   0.660   4.488   8.561
   62SAPC  H18Z 4984   0.762   4.490   8.404
   63SAPC     N 4985   4.405   5.121   6.079
   63SAPC   C12 4986   4.364   5.145   6.220
   63SAPC  H12A 4987   4.282   5.081   6.251
   63SAPC  H12B 4988   4.332   5.247   6.231
   63SAPC   C13 4989   4.530   5.197   6.047
   63SAPC  H13A 4990   4.611   5.166   6.110
   63SAPC  H13B 4991   4.569   5.194   5.946
   63SAPC  H13C 4992   4.510   5.302   6.065
   63SAPC   C14 4993   4.434   4.977   6.045
   63SAPC  H14A 4994   4.342   4.922   6.060
   63SAPC  H14B 4995   4.476   4.961   5.947
   63SAPC  H14C 4996   4.509   4.939   6.113
   63SAPC   C15 4997   4.285   5.157   5.983
   63SAPC  H15A 4998   4.317   5.128   5.884
   63SAPC  H15B 4999   4.196   5.104   6.011
   63SAPC  H15C 5000   4.277   5.265   5.981
   63SAPC   C11 5001   4.479   5.112   6.318
   63SAPC  H11A 5002   4.463   5.175   6.408
   63SAPC  H11B 5003   4.584   5.140   6.292
   63SAPC     P 5004   4.377   4.905   6.435
   63SAPC   O13 5005   4.236   4.928   6.398
   63SAPC   O14 5006   4.414   4.767   6.456
   63SAPC   O12 5007   4.481   4.971   6.339
   63SAPC   O11 5008   4.406   4.979   6.571
   63SAPC    C1 5009   4.538   4.972   6.627
   63SAPC    HA 5010   4.598   4.882   6.599
   63SAPC    HB 5011   4.604   5.052   6.587
   63SAPC    C2 5012   4.550   4.968   6.782
   63SAPC    HS 5013   4.651   4.933   6.811
   63SAPC   O21 5014   4.451   4.889   6.845
   63SAPC   C21 5015   4.458   4.762   6.848
   63SAPC   O22 5016   4.546   4.694   6.793
   63SAPC   C22 5017   4.347   4.702   6.928
   63SAPC   H2R 5018   4.261   4.758   6.885
   63SAPC   H2S 5019   4.344   4.593   6.903
   63SAPC    C3 5020   4.533   5.106   6.847
   63SAPC    HX 5021   4.431   5.145   6.829
   63SAPC    HY 5022   4.601   5.175   6.792
   63SAPC   O31 5023   4.563   5.116   6.984
   63SAPC   C31 5024   4.680   5.124   7.010
   63SAPC   O32 5025   4.774   5.140   6.929
   63SAPC   C32 5026   4.710   5.122   7.160
   63SAPC   H2X 5027   4.632   5.067   7.216
   63SAPC   H2Y 5028   4.715   5.228   7.195
   63SAPC   C23 5029   4.354   4.732   7.087
   63SAPC   H3R 5030   4.260   4.699   7.135
   63SAPC   H3S 5031   4.370   4.839   7.111
   63SAPC   C24 5032   4.472   4.655   7.161
   63SAPC   H4R 5033   4.482   4.707   7.259
   63SAPC   H4S 5034   4.571   4.665   7.111
   63SAPC   C25 5035   4.420   4.512   7.200
   63SAPC   H5R 5036   4.403   4.448   7.112
   63SAPC   C26 5037   4.392   4.479   7.328
   63SAPC   H6R 5038   4.365   4.374   7.345
   63SAPC   C27 5039   4.409   4.549   7.457
   63SAPC   H7R 5040   4.337   4.507   7.531
   63SAPC   H7S 5041   4.373   4.654   7.450
   63SAPC   C28 5042   4.552   4.548   7.503
   63SAPC   H8R 5043   4.624   4.496   7.438
   63SAPC   C29 5044   4.595   4.618   7.608
   63SAPC   H9R 5045   4.702   4.619   7.633
   63SAPC  C210 5046   4.510   4.716   7.694
   63SAPC  H10R 5047   4.438   4.770   7.629
   63SAPC  H10S 5048   4.581   4.795   7.727
   63SAPC  C211 5049   4.429   4.646   7.801
   63SAPC  H11R 5050   4.337   4.591   7.774
   63SAPC  C212 5051   4.460   4.642   7.933
   63SAPC  H12R 5052   4.390   4.587   7.997
   63SAPC  C213 5053   4.579   4.710   7.997
   63SAPC  H13R 5054   4.555   4.805   8.049
   63SAPC  H13S 5055   4.654   4.739   7.920
   63SAPC  C214 5056   4.656   4.621   8.086
   63SAPC  H14R 5057   4.727   4.552   8.037
   63SAPC  C215 5058   4.639   4.613   8.216
   63SAPC  H15R 5059   4.705   4.550   8.277
   63SAPC  C216 5060   4.537   4.686   8.302
   63SAPC  H16R 5061   4.479   4.618   8.367
   63SAPC  H16S 5062   4.462   4.736   8.236
   63SAPC  C217 5063   4.600   4.795   8.386
   63SAPC  H17R 5064   4.673   4.734   8.443
   63SAPC  H17S 5065   4.527   4.836   8.459
   63SAPC  C218 5066   4.663   4.910   8.306
   63SAPC  H18R 5067   4.586   4.979   8.265
   63SAPC  H18S 5068   4.730   4.869   8.226
   63SAPC  C219 5069   4.755   4.995   8.390
   63SAPC  H19R 5070   4.725   4.998   8.496
   63SAPC  H19S 5071   4.746   5.096   8.343
   63SAPC  C220 5072   4.899   4.948   8.392
   63SAPC  H20R 5073   4.933   4.924   8.289
   63SAPC  H20S 5074   4.918   4.851   8.442
   63SAPC  H20T 5075   4.973   5.023   8.428
   63SAPC   C33 5076   4.852   5.059   7.179
   63SAPC   H3X 5077   4.926   5.108   7.113
   63SAPC   H3Y 5078   4.854   4.953   7.145
   63SAPC   C34 5079   4.907   5.071   7.322
   63SAPC   H4X 5080   4.858   4.992   7.382
   63SAPC   H4Y 5081   4.878   5.164   7.375
   63SAPC   C35 5082   5.053   5.056   7.319
   63SAPC   H5X 5083   5.085   5.148   7.267
   63SAPC   H5Y 5084   5.100   4.968   7.269
   63SAPC   C36 5085   5.113   5.066   7.459
   63SAPC   H6X 5086   5.099   4.970   7.512
   63SAPC   H6Y 5087   5.075   5.157   7.511
   63SAPC   C37 5088   5.261   5.084   7.456
   63SAPC   H7X 5089   5.297   5.177   7.406
   63SAPC   H7Y 5090   5.308   4.995   7.409
   63SAPC   C38 5091   5.320   5.081   7.600
   63SAPC   H8X 5092   5.323   4.977   7.638
   63SAPC   H8Y 5093   5.247   5.140   7.658
   63SAPC   C39 5094   5.454   5.153   7.622
   63SAPC   H9X 5095   5.456   5.176   7.730
   63SAPC   H9Y 5096   5.464   5.249   7.567
   63SAPC  C310 5097   5.575   5.060   7.604
   63SAPC  H10X 5098   5.589   5.018   7.502
   63SAPC  H10Y 5099   5.562   4.968   7.666
   63SAPC  C311 5100   5.702   5.132   7.646
   63SAPC  H11X 5101   5.721   5.130   7.755
   63SAPC  H11Y 5102   5.707   5.236   7.608
   63SAPC  C312 5103   5.834   5.066   7.599
   63SAPC  H12X 5104   5.824   4.962   7.637
   63SAPC  H12Y 5105   5.923   5.098   7.656
   63SAPC  C313 5106   5.853   5.064   7.446
   63SAPC  H13X 5107   5.907   5.155   7.410
   63SAPC  H13Y 5108   5.755   5.060   7.396
   63SAPC  C314 5109   5.945   4.948   7.411
   63SAPC  H14X 5110   5.888   4.859   7.446
   63SAPC  H14Y 5111   6.033   4.962   7.477
   63SAPC  C315 5112   5.972   4.940   7.264
   63SAPC  H15X 5113   6.056   4.871   7.239
   63SAPC  H15Y 5114   6.009   5.038   7.224
   63SAPC  C316 5115   5.849   4.904   7.177
   63SAPC  H16X 5116   5.768   4.978   7.195
   63SAPC  H16Y 5117   5.818   4.800   7.201
   63SAPC  C317 5118   5.890   4.891   7.021
   63SAPC  H17X 5119   5.981   4.827   7.016
   63SAPC  H17Y 5120   5.915   4.992   6.982
   63SAPC  C318 5121   5.781   4.836   6.942
   63SAPC  H18X 5122   5.732   4.750   6.994
   63SAPC  H18Y 5123   5.823   4.788   6.851
   63SAPC  H18Z 5124   5.703   4.912   6.921
   64SAPC     N 5125   6.712   5.241   6.057
   64SAPC   C12 5126   6.728   5.165   5.927
   64SAPC  H12A 5127   6.673   5.212   5.847
   64SAPC  H12B 5128   6.674   5.072   5.941
   64SAPC   C13 5129   6.787   5.367   6.068
   64SAPC  H13A 5130   6.769   5.417   6.162
   64SAPC  H13B 5131   6.891   5.341   6.059
   64SAPC  H13C 5132   6.762   5.434   5.987
   64SAPC   C14 5133   6.571   5.275   6.076
   64SAPC  H14A 5134   6.557   5.314   6.176
   64SAPC  H14B 5135   6.529   5.347   6.007
   64SAPC  H14C 5136   6.516   5.184   6.088
   64SAPC   C15 5137   6.753   5.157   6.177
   64SAPC  H15A 5138   6.855   5.121   6.168
   64SAPC  H15B 5139   6.737   5.220   6.263
   64SAPC  H15C 5140   6.696   5.066   6.184
   64SAPC   C11 5141   6.872   5.133   5.875
   64SAPC  H11A 5142   6.928   5.227   5.860
   64SAPC  H11B 5143   6.868   5.088   5.774
   64SAPC     P 5144   7.089   5.080   6.022
   64SAPC   O13 5145   7.182   4.973   5.979
   64SAPC   O14 5146   7.132   5.220   5.989
   64SAPC   O12 5147   6.943   5.049   5.965
   64SAPC   O11 5148   7.072   5.066   6.174
   64SAPC    C1 5149   7.045   4.937   6.229
   64SAPC    HA 5150   6.951   4.896   6.186
   64SAPC    HB 5151   7.127   4.866   6.204
   64SAPC    C2 5152   7.027   4.946   6.380
   64SAPC    HS 5153   6.945   5.019   6.398
   64SAPC   O21 5154   7.153   4.983   6.433
   64SAPC   C21 5155   7.160   5.083   6.524
   64SAPC   O22 5156   7.064   5.145   6.564
   64SAPC   C22 5157   7.307   5.114   6.563
   64SAPC   H2R 5158   7.344   5.139   6.461
   64SAPC   H2S 5159   7.304   5.209   6.621
   64SAPC    C3 5160   6.965   4.819   6.447
   64SAPC    HX 5161   7.036   4.735   6.430
   64SAPC    HY 5162   6.868   4.801   6.396
   64SAPC   O31 5163   6.960   4.822   6.588
   64SAPC   C31 5164   6.843   4.886   6.638
   64SAPC   O32 5165   6.761   4.933   6.569
   64SAPC   C32 5166   6.827   4.848   6.785
   64SAPC   H2X 5167   6.928   4.837   6.830
   64SAPC   H2Y 5168   6.767   4.756   6.796
   64SAPC   C23 5169   7.390   5.004   6.641
   64SAPC   H3R 5170   7.496   5.036   6.644
   64SAPC   H3S 5171   7.391   4.909   6.584
   64SAPC   C24 5172   7.326   4.968   6.778
   64SAPC   H4R 5173   7.265   5.054   6.813
   64SAPC   H4S 5174   7.404   4.959   6.857
   64SAPC   C25 5175   7.257   4.836   6.781
   64SAPC   H5R 5176   7.229   4.796   6.682
   64SAPC   C26 5177   7.215   4.776   6.893
   64SAPC   H6R 5178   7.161   4.681   6.885
   64SAPC   C27 5179   7.242   4.830   7.036
   64SAPC   H7R 5180   7.221   4.939   7.039
   64SAPC   H7S 5181   7.351   4.825   7.059
   64SAPC   C28 5182   7.172   4.747   7.131
   64SAPC   H8R 5183   7.184   4.642   7.101
   64SAPC   C29 5184   7.080   4.786   7.223
   64SAPC   H9R 5185   7.054   4.705   7.293
   64SAPC  C210 5186   7.050   4.923   7.278
   64SAPC  H10R 5187   7.130   4.991   7.239
   64SAPC  H10S 5188   7.071   4.914   7.387
   64SAPC  C211 5189   6.913   4.978   7.256
   64SAPC  H11R 5190   6.872   4.972   7.154
   64SAPC  C212 5191   6.831   5.036   7.351
   64SAPC  H12R 5192   6.733   5.078   7.322
   64SAPC  C213 5193   6.856   5.038   7.504
   64SAPC  H13R 5194   6.872   5.146   7.524
   64SAPC  H13S 5195   6.953   4.994   7.537
   64SAPC  C214 5196   6.752   4.977   7.588
   64SAPC  H14R 5197   6.715   4.877   7.560
   64SAPC  C215 5198   6.694   5.042   7.691
   64SAPC  H15R 5199   6.605   4.993   7.732
   64SAPC  C216 5200   6.727   5.182   7.751
   64SAPC  H16R 5201   6.646   5.250   7.717
   64SAPC  H16S 5202   6.825   5.225   7.722
   64SAPC  C217 5203   6.716   5.173   7.904
   64SAPC  H17R 5204   6.622   5.121   7.932
   64SAPC  H17S 5205   6.700   5.269   7.957
   64SAPC  C218 5206   6.830   5.085   7.969
   64SAPC  H18R 5207   6.934   5.123   7.963
   64SAPC  H18S 5208   6.832   4.987   7.917
   64SAPC  C219 5209   6.801   5.057   8.119
   64SAPC  H19R 5210   6.697   5.019   8.127
   64SAPC  H19S 5211   6.806   5.151   8.177
   64SAPC  C220 5212   6.913   4.961   8.174
   64SAPC  H20R 5213   7.010   5.011   8.195
   64SAPC  H20S 5214   6.926   4.870   8.110
   64SAPC  H20T 5215   6.876   4.912   8.266
   64SAPC   C33 5216   6.759   4.962   6.863
   64SAPC   H3X 5217   6.757   4.927   6.968
   64SAPC   H3Y 5218   6.659   4.985   6.820
   64SAPC   C34 5219   6.835   5.096   6.863
   64SAPC   H4X 5220   6.841   5.131   6.758
   64SAPC   H4Y 5221   6.936   5.073   6.902
   64SAPC   C35 5222   6.772   5.211   6.948
   64SAPC   H5X 5223   6.751   5.177   7.051
   64SAPC   H5Y 5224   6.674   5.231   6.901
   64SAPC   C36 5225   6.846   5.344   6.943
   64SAPC   H6X 5226   6.852   5.385   6.840
   64SAPC   H6Y 5227   6.951   5.323   6.973
   64SAPC   C37 5228   6.777   5.444   7.032
   64SAPC   H7X 5229   6.668   5.423   7.037
   64SAPC   H7Y 5230   6.780   5.544   6.983
   64SAPC   C38 5231   6.832   5.449   7.171
   64SAPC   H8X 5232   6.935   5.489   7.177
   64SAPC   H8Y 5233   6.843   5.356   7.231
   64SAPC   C39 5234   6.743   5.528   7.270
   64SAPC   H9X 5235   6.637   5.494   7.267
   64SAPC   H9Y 5236   6.741   5.634   7.235
   64SAPC  C310 5237   6.797   5.505   7.415
   64SAPC  H10X 5238   6.903   5.538   7.411
   64SAPC  H10Y 5239   6.791   5.396   7.436
   64SAPC  C311 5240   6.713   5.584   7.519
   64SAPC  H11X 5241   6.606   5.554   7.517
   64SAPC  H11Y 5242   6.712   5.692   7.493
   64SAPC  C312 5243   6.765   5.561   7.662
   64SAPC  H12X 5244   6.873   5.584   7.671
   64SAPC  H12Y 5245   6.742   5.455   7.686
   64SAPC  C313 5246   6.698   5.642   7.774
   64SAPC  H13X 5247   6.594   5.608   7.758
   64SAPC  H13Y 5248   6.709   5.747   7.742
   64SAPC  C314 5249   6.756   5.626   7.919
   64SAPC  H14X 5250   6.860   5.660   7.898
   64SAPC  H14Y 5251   6.749   5.519   7.946
   64SAPC  C315 5252   6.693   5.714   8.034
   64SAPC  H15X 5253   6.685   5.820   8.003
   64SAPC  H15Y 5254   6.756   5.707   8.126
   64SAPC  C316 5255   6.547   5.675   8.053
   64SAPC  H16X 5256   6.554   5.574   8.099
   64SAPC  H16Y 5257   6.487   5.688   7.961
   64SAPC  C317 5258   6.480   5.752   8.165
   64SAPC  H17X 5259   6.372   5.726   8.169
   64SAPC  H17Y 5260   6.486   5.862   8.145
   64SAPC  C318 5261   6.545   5.733   8.310
   64SAPC  H18X 5262   6.473   5.756   8.392
   64SAPC  H18Y 5263   6.633   5.801   8.306
   64SAPC  H18Z 5264   6.583   5.631   8.330
   65SAPC     N 5265   6.505   0.013   5.627
   65SAPC   C12 5266   6.414   0.049   5.747
   65SAPC  H12A 5267   6.311   0.048   5.714
   65SAPC  H12B 5268   6.425   0.151   5.779
   65SAPC   C13 5269   6.490  -0.136   5.609
   65SAPC  H13A 5270   6.507  -0.183   5.705
   65SAPC  H13B 5271   6.388  -0.153   5.576
   65SAPC  H13C 5272   6.561  -0.172   5.536
   65SAPC   C14 5273   6.458   0.089   5.503
   65SAPC  H14A 5274   6.361   0.058   5.468
   65SAPC  H14B 5275   6.445   0.194   5.527
   65SAPC  H14C 5276   6.527   0.083   5.420
   65SAPC   C15 5277   6.642   0.057   5.656
   65SAPC  H15A 5278   6.675   0.032   5.756
   65SAPC  H15B 5279   6.710   0.007   5.590
   65SAPC  H15C 5280   6.658   0.160   5.627
   65SAPC   C11 5281   6.426  -0.030   5.882
   65SAPC  H11A 5282   6.401  -0.137   5.873
   65SAPC  H11B 5283   6.344   0.004   5.949
   65SAPC     P 5284   6.574   0.105   6.037
   65SAPC   O13 5285   6.692   0.173   5.986
   65SAPC   O14 5286   6.450   0.184   6.042
   65SAPC   O12 5287   6.556  -0.022   5.944
   65SAPC   O11 5288   6.616   0.045   6.178
   65SAPC    C1 5289   6.594   0.129   6.287
   65SAPC    HA 5290   6.660   0.218   6.293
   65SAPC    HB 5291   6.497   0.183   6.288
   65SAPC    C2 5292   6.617   0.056   6.424
   65SAPC    HS 5293   6.637   0.128   6.506
   65SAPC   O21 5294   6.721  -0.046   6.418
   65SAPC   C21 5295   6.846   0.003   6.435
   65SAPC   O22 5296   6.874   0.124   6.445
   65SAPC   C22 5297   6.937  -0.114   6.416
   65SAPC   H2R 5298   6.900  -0.194   6.483
   65SAPC   H2S 5299   6.915  -0.160   6.318
   65SAPC    C3 5300   6.490  -0.014   6.470
   65SAPC    HX 5301   6.458  -0.102   6.410
   65SAPC    HY 5302   6.411   0.063   6.459
   65SAPC   O31 5303   6.508  -0.042   6.607
   65SAPC   C31 5304   6.494  -0.159   6.654
   65SAPC   O32 5305   6.471  -0.261   6.590
   65SAPC   C32 5306   6.533  -0.161   6.801
   65SAPC   H2X 5307   6.642  -0.140   6.806
   65SAPC   H2Y 5308   6.513  -0.267   6.831
   65SAPC   C23 5309   7.089  -0.086   6.421
   65SAPC   H3R 5310   7.114  -0.007   6.347
   65SAPC   H3S 5311   7.145  -0.181   6.410
   65SAPC   C24 5312   7.138  -0.045   6.564
   65SAPC   H4R 5313   7.114   0.063   6.565
   65SAPC   H4S 5314   7.249  -0.053   6.564
   65SAPC   C25 5315   7.090  -0.137   6.680
   65SAPC   H5R 5316   7.106  -0.245   6.664
   65SAPC   C26 5317   7.035  -0.099   6.802
   65SAPC   H6R 5318   7.001  -0.174   6.875
   65SAPC   C27 5319   7.034   0.046   6.846
   65SAPC   H7R 5320   7.105   0.102   6.782
   65SAPC   H7S 5321   7.086   0.061   6.943
   65SAPC   C28 5322   6.895   0.089   6.852
   65SAPC   H8R 5323   6.858   0.139   6.761
   65SAPC   C29 5324   6.806   0.065   6.957
   65SAPC   H9R 5325   6.711   0.120   6.963
   65SAPC  C210 5326   6.846  -0.006   7.086
   65SAPC  H10R 5327   6.931  -0.075   7.065
   65SAPC  H10S 5328   6.770  -0.074   7.130
   65SAPC  C211 5329   6.892   0.079   7.194
   65SAPC  H11R 5330   6.952   0.159   7.146
   65SAPC  C212 5331   6.860   0.073   7.324
   65SAPC  H12R 5332   6.924   0.134   7.389
   65SAPC  C213 5333   6.762  -0.030   7.380
   65SAPC  H13R 5334   6.666  -0.014   7.328
   65SAPC  H13S 5335   6.744  -0.016   7.489
   65SAPC  C214 5336   6.802  -0.180   7.360
   65SAPC  H14R 5337   6.869  -0.198   7.274
   65SAPC  C215 5338   6.757  -0.276   7.445
   65SAPC  H15R 5339   6.778  -0.378   7.410
   65SAPC  C216 5340   6.647  -0.271   7.549
   65SAPC  H16R 5341   6.643  -0.165   7.582
   65SAPC  H16S 5342   6.680  -0.321   7.642
   65SAPC  C217 5343   6.513  -0.330   7.497
   65SAPC  H17R 5344   6.522  -0.437   7.468
   65SAPC  H17S 5345   6.466  -0.271   7.416
   65SAPC  C218 5346   6.404  -0.340   7.609
   65SAPC  H18R 5347   6.449  -0.409   7.684
   65SAPC  H18S 5348   6.317  -0.394   7.567
   65SAPC  C219 5349   6.368  -0.207   7.680
   65SAPC  H19R 5350   6.456  -0.158   7.726
   65SAPC  H19S 5351   6.295  -0.236   7.760
   65SAPC  C220 5352   6.325  -0.110   7.581
   65SAPC  H20R 5353   6.296  -0.011   7.624
   65SAPC  H20S 5354   6.242  -0.152   7.520
   65SAPC  H20T 5355   6.404  -0.082   7.509
   65SAPC   C33 5356   6.439  -0.076   6.888
   65SAPC   H3X 5357   6.340  -0.110   6.850
   65SAPC   H3Y 5358   6.446   0.031   6.860
   65SAPC   C34 5359   6.470  -0.090   7.034
   65SAPC   H4X 5360   6.569  -0.048   7.059
   65SAPC   H4Y 5361   6.485  -0.198   7.057
   65SAPC   C35 5362   6.360  -0.053   7.136
   65SAPC   H5X 5363   6.396  -0.078   7.238
   65SAPC   H5Y 5364   6.285  -0.135   7.128
   65SAPC   C36 5365   6.295   0.084   7.113
   65SAPC   H6X 5366   6.214   0.071   7.038
   65SAPC   H6Y 5367   6.368   0.140   7.050
   65SAPC   C37 5368   6.260   0.158   7.245
   65SAPC   H7X 5369   6.199   0.085   7.303
   65SAPC   H7Y 5370   6.208   0.252   7.217
   65SAPC   C38 5371   6.387   0.199   7.319
   65SAPC   H8X 5372   6.439   0.266   7.246
   65SAPC   H8Y 5373   6.445   0.106   7.336
   65SAPC   C39 5374   6.358   0.261   7.457
   65SAPC   H9X 5375   6.306   0.187   7.520
   65SAPC   H9Y 5376   6.292   0.350   7.459
   65SAPC  C310 5377   6.491   0.283   7.535
   65SAPC  H10X 5378   6.535   0.364   7.473
   65SAPC  H10Y 5379   6.548   0.189   7.523
   65SAPC  C311 5380   6.478   0.316   7.685
   65SAPC  H11X 5381   6.385   0.374   7.702
   65SAPC  H11Y 5382   6.568   0.379   7.704
   65SAPC  C312 5383   6.473   0.200   7.781
   65SAPC  H12X 5384   6.540   0.118   7.750
   65SAPC  H12Y 5385   6.372   0.159   7.759
   65SAPC  C313 5386   6.512   0.250   7.926
   65SAPC  H13X 5387   6.436   0.321   7.964
   65SAPC  H13Y 5388   6.605   0.310   7.914
   65SAPC  C314 5389   6.537   0.145   8.031
   65SAPC  H14X 5390   6.533   0.193   8.131
   65SAPC  H14Y 5391   6.630   0.088   8.008
   65SAPC  C315 5392   6.435   0.032   8.054
   65SAPC  H15X 5393   6.396  -0.003   7.956
   65SAPC  H15Y 5394   6.347   0.071   8.109
   65SAPC  C316 5395   6.489  -0.076   8.140
   65SAPC  H16X 5396   6.541  -0.018   8.220
   65SAPC  H16Y 5397   6.552  -0.141   8.076
   65SAPC  C317 5398   6.374  -0.157   8.203
   65SAPC  H17X 5399   6.327  -0.086   8.274
   65SAPC  H17Y 5400   6.423  -0.239   8.260
   65SAPC  C318 5401   6.271  -0.225   8.115
   65SAPC  H18X 5402   6.210  -0.292   8.179
   65SAPC  H18Y 5403   6.319  -0.301   8.049
   65SAPC  H18Z 5404   6.209  -0.157   8.053
   66SAPC     N 5405   4.396   5.921   5.695
   66SAPC   C12 5406   4.276   5.954   5.786
   66SAPC  H12A 5407   4.300   5.922   5.886
   66SAPC  H12B 5408   4.194   5.888   5.762
   66SAPC   C13 5409   4.505   6.025   5.723
   66SAPC  H13A 5410   4.587   5.984   5.666
   66SAPC  H13B 5411   4.491   6.130   5.700
   66SAPC  H13C 5412   4.548   6.011   5.821
   66SAPC   C14 5413   4.449   5.784   5.728
   66SAPC  H14A 5414   4.374   5.717   5.689
   66SAPC  H14B 5415   4.542   5.777   5.674
   66SAPC  H14C 5416   4.454   5.769   5.835
   66SAPC   C15 5417   4.352   5.930   5.555
   66SAPC  H15A 5418   4.433   5.934   5.483
   66SAPC  H15B 5419   4.270   5.865   5.526
   66SAPC  H15C 5420   4.299   6.021   5.533
   66SAPC   C11 5421   4.222   6.098   5.796
   66SAPC  H11A 5422   4.115   6.089   5.823
   66SAPC  H11B 5423   4.234   6.151   5.699
   66SAPC     P 5424   4.279   6.135   6.054
   66SAPC   O13 5425   4.368   6.019   6.090
   66SAPC   O14 5426   4.315   6.264   6.120
   66SAPC   O12 5427   4.290   6.159   5.900
   66SAPC   O11 5428   4.126   6.093   6.068
   66SAPC    C1 5429   4.026   6.184   6.122
   66SAPC    HA 5430   4.047   6.291   6.098
   66SAPC    HB 5431   3.929   6.153   6.076
   66SAPC    C2 5432   4.005   6.174   6.279
   66SAPC    HS 5433   3.915   6.233   6.309
   66SAPC   O21 5434   4.107   6.222   6.365
   66SAPC   C21 5435   4.134   6.357   6.357
   66SAPC   O22 5436   4.065   6.436   6.300
   66SAPC   C22 5437   4.250   6.393   6.448
   66SAPC   H2R 5438   4.293   6.307   6.503
   66SAPC   H2S 5439   4.340   6.410   6.386
   66SAPC    C3 5440   3.977   6.023   6.318
   66SAPC    HX 5441   4.041   5.940   6.280
   66SAPC    HY 5442   3.877   5.999   6.277
   66SAPC   O31 5443   3.971   6.000   6.464
   66SAPC   C31 5444   4.088   5.966   6.519
   66SAPC   O32 5445   4.188   5.930   6.456
   66SAPC   C32 5446   4.068   5.954   6.668
   66SAPC   H2X 5447   4.009   5.861   6.683
   66SAPC   H2Y 5448   4.010   6.041   6.705
   66SAPC   C23 5449   4.210   6.502   6.556
   66SAPC   H3R 5450   4.172   6.591   6.502
   66SAPC   H3S 5451   4.305   6.529   6.607
   66SAPC   C24 5452   4.095   6.462   6.654
   66SAPC   H4R 5453   4.109   6.357   6.686
   66SAPC   H4S 5454   4.008   6.467   6.584
   66SAPC   C25 5455   4.081   6.567   6.765
   66SAPC   H5R 5456   4.008   6.647   6.745
   66SAPC   C26 5457   4.145   6.560   6.886
   66SAPC   H6R 5458   4.143   6.653   6.944
   66SAPC   C27 5459   4.242   6.452   6.932
   66SAPC   H7R 5460   4.275   6.377   6.856
   66SAPC   H7S 5461   4.204   6.395   7.019
   66SAPC   C28 5462   4.377   6.512   6.983
   66SAPC   H8R 5463   4.442   6.553   6.904
   66SAPC   C29 5464   4.414   6.520   7.113
   66SAPC   H9R 5465   4.512   6.569   7.127
   66SAPC  C210 5466   4.347   6.483   7.238
   66SAPC  H10R 5467   4.259   6.549   7.255
   66SAPC  H10S 5468   4.424   6.500   7.316
   66SAPC  C211 5469   4.303   6.336   7.254
   66SAPC  H11R 5470   4.292   6.283   7.159
   66SAPC  C212 5471   4.283   6.267   7.372
   66SAPC  H12R 5472   4.239   6.167   7.364
   66SAPC  C213 5473   4.288   6.321   7.518
   66SAPC  H13R 5474   4.188   6.339   7.562
   66SAPC  H13S 5475   4.337   6.421   7.518
   66SAPC  C214 5476   4.358   6.225   7.609
   66SAPC  H14R 5477   4.352   6.120   7.576
   66SAPC  C215 5478   4.423   6.259   7.728
   66SAPC  H15R 5479   4.465   6.179   7.790
   66SAPC  C216 5480   4.445   6.392   7.789
   66SAPC  H16R 5481   4.350   6.446   7.770
   66SAPC  H16S 5482   4.520   6.451   7.731
   66SAPC  C217 5483   4.490   6.387   7.935
   66SAPC  H17R 5484   4.420   6.326   7.995
   66SAPC  H17S 5485   4.490   6.489   7.979
   66SAPC  C218 5486   4.631   6.329   7.947
   66SAPC  H18R 5487   4.706   6.398   7.902
   66SAPC  H18S 5488   4.634   6.232   7.893
   66SAPC  C219 5489   4.672   6.315   8.095
   66SAPC  H19R 5490   4.639   6.212   8.122
   66SAPC  H19S 5491   4.632   6.403   8.149
   66SAPC  C220 5492   4.822   6.307   8.105
   66SAPC  H20R 5493   4.865   6.238   8.028
   66SAPC  H20S 5494   4.852   6.268   8.205
   66SAPC  H20T 5495   4.876   6.401   8.082
   66SAPC   C33 5496   4.195   5.936   6.754
   66SAPC   H3X 5497   4.274   6.000   6.709
   66SAPC   H3Y 5498   4.232   5.833   6.730
   66SAPC   C34 5499   4.164   5.960   6.901
   66SAPC   H4X 5500   4.141   6.066   6.925
   66SAPC   H4Y 5501   4.260   5.931   6.951
   66SAPC   C35 5502   4.059   5.869   6.966
   66SAPC   H5X 5503   4.092   5.764   6.957
   66SAPC   H5Y 5504   3.959   5.888   6.922
   66SAPC   C36 5505   4.046   5.896   7.114
   66SAPC   H6X 5506   3.981   5.817   7.157
   66SAPC   H6Y 5507   3.999   5.995   7.128
   66SAPC   C37 5508   4.183   5.888   7.184
   66SAPC   H7X 5509   4.249   5.976   7.170
   66SAPC   H7Y 5510   4.234   5.795   7.149
   66SAPC   C38 5511   4.150   5.864   7.338
   66SAPC   H8X 5512   4.088   5.773   7.345
   66SAPC   H8Y 5513   4.096   5.955   7.371
   66SAPC   C39 5514   4.270   5.836   7.425
   66SAPC   H9X 5515   4.347   5.915   7.412
   66SAPC   H9Y 5516   4.316   5.746   7.381
   66SAPC  C310 5517   4.234   5.818   7.571
   66SAPC  H10X 5518   4.177   5.725   7.592
   66SAPC  H10Y 5519   4.167   5.901   7.602
   66SAPC  C311 5520   4.356   5.831   7.666
   66SAPC  H11X 5521   4.399   5.928   7.632
   66SAPC  H11Y 5522   4.426   5.744   7.662
   66SAPC  C312 5523   4.313   5.843   7.815
   66SAPC  H12X 5524   4.246   5.757   7.834
   66SAPC  H12Y 5525   4.257   5.939   7.809
   66SAPC  C313 5526   4.426   5.869   7.910
   66SAPC  H13X 5527   4.402   5.951   7.981
   66SAPC  H13Y 5528   4.515   5.897   7.849
   66SAPC  C314 5529   4.450   5.749   8.002
   66SAPC  H14X 5530   4.351   5.714   8.040
   66SAPC  H14Y 5531   4.517   5.776   8.086
   66SAPC  C315 5532   4.532   5.635   7.932
   66SAPC  H15X 5533   4.591   5.677   7.847
   66SAPC  H15Y 5534   4.468   5.565   7.874
   66SAPC  C316 5535   4.612   5.558   8.037
   66SAPC  H16X 5536   4.538   5.511   8.106
   66SAPC  H16Y 5537   4.675   5.632   8.091
   66SAPC  C317 5538   4.695   5.446   7.976
   66SAPC  H17X 5539   4.711   5.472   7.869
   66SAPC  H17Y 5540   4.635   5.352   7.977
   66SAPC  C318 5541   4.830   5.432   8.048
   66SAPC  H18X 5542   4.884   5.347   8.003
   66SAPC  H18Y 5543   4.815   5.394   8.151
   66SAPC  H18Z 5544   4.882   5.530   8.057
   67SAPC     N 5545   0.293   0.823   6.477
   67SAPC   C12 5546   0.170   0.882   6.526
   67SAPC  H12A 5547   0.110   0.805   6.573
   67SAPC  H12B 5548   0.113   0.919   6.443
   67SAPC   C13 5549   0.352   0.723   6.568
   67SAPC  H13A 5550   0.441   0.680   6.523
   67SAPC  H13B 5551   0.384   0.770   6.660
   67SAPC  H13C 5552   0.290   0.638   6.593
   67SAPC   C14 5553   0.263   0.755   6.344
   67SAPC  H14A 5554   0.217   0.658   6.355
   67SAPC  H14B 5555   0.212   0.817   6.272
   67SAPC  H14C 5556   0.359   0.746   6.297
   67SAPC   C15 5557   0.387   0.940   6.436
   67SAPC  H15A 5558   0.428   0.998   6.517
   67SAPC  H15B 5559   0.462   0.903   6.367
   67SAPC  H15C 5560   0.338   1.008   6.369
   67SAPC   C11 5561   0.183   0.997   6.623
   67SAPC  H11A 5562   0.267   0.982   6.695
   67SAPC  H11B 5563   0.091   0.986   6.684
   67SAPC     P 5564   0.085   1.199   6.496
   67SAPC   O13 5565   0.140   1.325   6.451
   67SAPC   O14 5566   0.024   1.119   6.387
   67SAPC   O12 5567   0.206   1.123   6.557
   67SAPC   O11 5568   0.001   1.224   6.626
   67SAPC    C1 5569  -0.132   1.272   6.611
   67SAPC    HA 5570  -0.135   1.383   6.599
   67SAPC    HB 5571  -0.189   1.238   6.521
   67SAPC    C2 5572  -0.221   1.219   6.730
   67SAPC    HS 5573  -0.319   1.271   6.725
   67SAPC   O21 5574  -0.160   1.226   6.858
   67SAPC   C21 5575  -0.133   1.349   6.891
   67SAPC   O22 5576  -0.189   1.449   6.838
   67SAPC   C22 5577  -0.057   1.348   7.027
   67SAPC   H2R 5578  -0.120   1.306   7.109
   67SAPC   H2S 5579   0.033   1.289   7.001
   67SAPC    C3 5580  -0.259   1.068   6.708
   67SAPC    HX 5581  -0.171   1.005   6.685
   67SAPC    HY 5582  -0.314   1.082   6.613
   67SAPC   O31 5583  -0.340   1.024   6.821
   67SAPC   C31 5584  -0.290   0.925   6.890
   67SAPC   O32 5585  -0.189   0.862   6.867
   67SAPC   C32 5586  -0.383   0.894   7.007
   67SAPC   H2X 5587  -0.393   0.788   7.040
   67SAPC   H2Y 5588  -0.481   0.924   6.963
   67SAPC   C23 5589  -0.013   1.490   7.058
   67SAPC   H3R 5590  -0.090   1.570   7.058
   67SAPC   H3S 5591   0.052   1.523   6.974
   67SAPC   C24 5592   0.068   1.498   7.188
   67SAPC   H4R 5593   0.015   1.448   7.272
   67SAPC   H4S 5594   0.071   1.606   7.211
   67SAPC   C25 5595   0.201   1.430   7.173
   67SAPC   H5R 5596   0.243   1.433   7.071
   67SAPC   C26 5597   0.264   1.360   7.275
   67SAPC   H6R 5598   0.363   1.315   7.260
   67SAPC   C27 5599   0.224   1.348   7.423
   67SAPC   H7R 5600   0.171   1.442   7.450
   67SAPC   H7S 5601   0.314   1.346   7.488
   67SAPC   C28 5602   0.129   1.238   7.447
   67SAPC   H8R 5603   0.075   1.199   7.359
   67SAPC   C29 5604   0.098   1.185   7.570
   67SAPC   H9R 5605   0.046   1.088   7.571
   67SAPC  C210 5606   0.157   1.221   7.707
   67SAPC  H10R 5607   0.102   1.302   7.758
   67SAPC  H10S 5608   0.262   1.252   7.685
   67SAPC  C211 5609   0.162   1.107   7.804
   67SAPC  H11R 5610   0.209   1.013   7.769
   67SAPC  C212 5611   0.098   1.097   7.926
   67SAPC  H12R 5612   0.113   1.008   7.989
   67SAPC  C213 5613   0.012   1.200   7.989
   67SAPC  H13R 5614  -0.089   1.174   7.949
   67SAPC  H13S 5615   0.034   1.303   7.954
   67SAPC  C214 5616   0.008   1.200   8.140
   67SAPC  H14R 5617  -0.059   1.126   8.186
   67SAPC  C215 5618   0.080   1.280   8.224
   67SAPC  H15R 5619   0.078   1.251   8.330
   67SAPC  C216 5620   0.184   1.379   8.188
   67SAPC  H16R 5621   0.219   1.382   8.083
   67SAPC  H16S 5622   0.279   1.347   8.237
   67SAPC  C217 5623   0.141   1.518   8.230
   67SAPC  H17R 5624   0.041   1.536   8.184
   67SAPC  H17S 5625   0.206   1.597   8.186
   67SAPC  C218 5626   0.136   1.545   8.381
   67SAPC  H18R 5627   0.066   1.469   8.424
   67SAPC  H18S 5628   0.084   1.642   8.393
   67SAPC  C219 5629   0.274   1.549   8.456
   67SAPC  H19R 5630   0.319   1.643   8.416
   67SAPC  H19S 5631   0.334   1.459   8.432
   67SAPC  C220 5632   0.262   1.564   8.605
   67SAPC  H20R 5633   0.213   1.660   8.632
   67SAPC  H20S 5634   0.365   1.569   8.646
   67SAPC  H20T 5635   0.215   1.474   8.650
   67SAPC   C33 5636  -0.347   0.981   7.128
   67SAPC   H3X 5637  -0.439   0.989   7.190
   67SAPC   H3Y 5638  -0.333   1.086   7.095
   67SAPC   C34 5639  -0.230   0.918   7.211
   67SAPC   H4X 5640  -0.137   0.958   7.164
   67SAPC   H4Y 5641  -0.231   0.808   7.193
   67SAPC   C35 5642  -0.250   0.945   7.355
   67SAPC   H5X 5643  -0.349   0.903   7.382
   67SAPC   H5Y 5644  -0.242   1.056   7.362
   67SAPC   C36 5645  -0.146   0.872   7.449
   67SAPC   H6X 5646  -0.049   0.922   7.426
   67SAPC   H6Y 5647  -0.146   0.765   7.417
   67SAPC   C37 5648  -0.179   0.880   7.599
   67SAPC   H7X 5649  -0.284   0.848   7.617
   67SAPC   H7Y 5650  -0.157   0.979   7.643
   67SAPC   C38 5651  -0.101   0.766   7.677
   67SAPC   H8X 5652   0.008   0.789   7.678
   67SAPC   H8Y 5653  -0.119   0.667   7.631
   67SAPC   C39 5654  -0.146   0.756   7.828
   67SAPC   H9X 5655  -0.257   0.763   7.832
   67SAPC   H9Y 5656  -0.111   0.843   7.888
   67SAPC  C310 5657  -0.102   0.622   7.897
   67SAPC  H10X 5658   0.008   0.616   7.886
   67SAPC  H10Y 5659  -0.142   0.531   7.848
   67SAPC  C311 5660  -0.149   0.612   8.047
   67SAPC  H11X 5661  -0.134   0.506   8.074
   67SAPC  H11Y 5662  -0.250   0.660   8.052
   67SAPC  C312 5663  -0.068   0.687   8.149
   67SAPC  H12X 5664  -0.055   0.793   8.120
   67SAPC  H12Y 5665   0.025   0.628   8.163
   67SAPC  C313 5666  -0.151   0.680   8.280
   67SAPC  H13X 5667  -0.172   0.573   8.305
   67SAPC  H13Y 5668  -0.250   0.725   8.256
   67SAPC  C314 5669  -0.091   0.764   8.399
   67SAPC  H14X 5670  -0.173   0.786   8.471
   67SAPC  H14Y 5671  -0.055   0.860   8.356
   67SAPC  C315 5672   0.015   0.681   8.475
   67SAPC  H15X 5673   0.102   0.667   8.407
   67SAPC  H15Y 5674  -0.024   0.579   8.495
   67SAPC  C316 5675   0.069   0.741   8.606
   67SAPC  H16X 5676   0.163   0.685   8.625
   67SAPC  H16Y 5677   0.004   0.712   8.691
   67SAPC  C317 5678   0.104   0.889   8.615
   67SAPC  H17X 5679   0.024   0.953   8.571
   67SAPC  H17Y 5680   0.192   0.913   8.553
   67SAPC  C318 5681   0.140   0.940   8.752
   67SAPC  H18X 5682   0.129   1.051   8.758
   67SAPC  H18Y 5683   0.246   0.915   8.774
   67SAPC  H18Z 5684   0.077   0.880   8.822
   68SAPC     N 5685   4.158   0.677   6.376
   68SAPC   C12 5686   4.239   0.553   6.418
   68SAPC  H12A 5687   4.210   0.530   6.519
   68SAPC  H12B 5688   4.341   0.588   6.421
   68SAPC   C13 5689   4.011   0.651   6.397
   68SAPC  H13A 5690   3.984   0.556   6.353
   68SAPC  H13B 5691   3.993   0.645   6.504
   68SAPC  H13C 5692   3.946   0.720   6.347
   68SAPC   C14 5693   4.191   0.803   6.446
   68SAPC  H14A 5694   4.127   0.884   6.415
   68SAPC  H14B 5695   4.173   0.782   6.551
   68SAPC  H14C 5696   4.290   0.842   6.434
   68SAPC   C15 5697   4.175   0.706   6.225
   68SAPC  H15A 5698   4.101   0.775   6.186
   68SAPC  H15B 5699   4.261   0.771   6.218
   68SAPC  H15C 5700   4.192   0.619   6.164
   68SAPC   C11 5701   4.240   0.422   6.327
   68SAPC  H11A 5702   4.137   0.400   6.291
   68SAPC  H11B 5703   4.278   0.339   6.390
   68SAPC     P 5704   4.485   0.437   6.211
   68SAPC   O13 5705   4.532   0.377   6.081
   68SAPC   O14 5706   4.531   0.575   6.241
   68SAPC   O12 5707   4.328   0.435   6.216
   68SAPC   O11 5708   4.528   0.337   6.333
   68SAPC    C1 5709   4.656   0.370   6.401
   68SAPC    HA 5710   4.735   0.319   6.343
   68SAPC    HB 5711   4.674   0.480   6.399
   68SAPC    C2 5712   4.663   0.327   6.551
   68SAPC    HS 5713   4.764   0.335   6.597
   68SAPC   O21 5714   4.603   0.193   6.571
   68SAPC   C21 5715   4.692   0.103   6.533
   68SAPC   O22 5716   4.805   0.117   6.497
   68SAPC   C22 5717   4.630  -0.027   6.567
   68SAPC   H2R 5718   4.558  -0.015   6.651
   68SAPC   H2S 5719   4.570  -0.054   6.478
   68SAPC    C3 5720   4.574   0.425   6.639
   68SAPC    HX 5721   4.469   0.407   6.609
   68SAPC    HY 5722   4.606   0.520   6.592
   68SAPC   O31 5723   4.612   0.412   6.780
   68SAPC   C31 5724   4.563   0.510   6.853
   68SAPC   O32 5725   4.469   0.578   6.828
   68SAPC   C32 5726   4.639   0.507   6.995
   68SAPC   H2X 5727   4.740   0.552   6.987
   68SAPC   H2Y 5728   4.663   0.401   7.017
   68SAPC   C23 5729   4.737  -0.137   6.609
   68SAPC   H3R 5730   4.806  -0.100   6.687
   68SAPC   H3S 5731   4.800  -0.154   6.519
   68SAPC   C24 5732   4.673  -0.268   6.670
   68SAPC   H4R 5733   4.589  -0.298   6.604
   68SAPC   H4S 5734   4.618  -0.247   6.764
   68SAPC   C25 5735   4.782  -0.373   6.688
   68SAPC   H5R 5736   4.802  -0.433   6.598
   68SAPC   C26 5737   4.830  -0.403   6.806
   68SAPC   H6R 5738   4.913  -0.475   6.815
   68SAPC   C27 5739   4.795  -0.357   6.943
   68SAPC   H7R 5740   4.700  -0.406   6.972
   68SAPC   H7S 5741   4.781  -0.248   6.929
   68SAPC   C28 5742   4.892  -0.397   7.049
   68SAPC   H8R 5743   4.993  -0.425   7.016
   68SAPC   C29 5744   4.883  -0.370   7.182
   68SAPC   H9R 5745   4.960  -0.397   7.256
   68SAPC  C210 5746   4.768  -0.296   7.249
   68SAPC  H10R 5747   4.676  -0.354   7.231
   68SAPC  H10S 5748   4.770  -0.197   7.198
   68SAPC  C211 5749   4.780  -0.298   7.398
   68SAPC  H11R 5750   4.776  -0.398   7.444
   68SAPC  C212 5751   4.755  -0.200   7.482
   68SAPC  H12R 5752   4.764  -0.218   7.590
   68SAPC  C213 5753   4.727  -0.057   7.446
   68SAPC  H13R 5754   4.685   0.004   7.529
   68SAPC  H13S 5755   4.642  -0.061   7.374
   68SAPC  C214 5756   4.845   0.017   7.393
   68SAPC  H14R 5757   4.941   0.010   7.447
   68SAPC  C215 5758   4.847   0.104   7.285
   68SAPC  H15R 5759   4.939   0.151   7.249
   68SAPC  C216 5760   4.727   0.148   7.201
   68SAPC  H16R 5761   4.752   0.251   7.168
   68SAPC  H16S 5762   4.642   0.140   7.272
   68SAPC  C217 5763   4.705   0.069   7.064
   68SAPC  H17R 5764   4.626   0.130   7.018
   68SAPC  H17S 5765   4.650  -0.023   7.094
   68SAPC  C218 5766   4.830   0.054   6.975
   68SAPC  H18R 5767   4.815  -0.024   6.897
   68SAPC  H18S 5768   4.914   0.022   7.041
   68SAPC  C219 5769   4.875   0.184   6.909
   68SAPC  H19R 5770   4.901   0.257   6.988
   68SAPC  H19S 5771   4.790   0.237   6.859
   68SAPC  C220 5772   4.993   0.156   6.812
   68SAPC  H20R 5773   5.027   0.246   6.757
   68SAPC  H20S 5774   4.963   0.078   6.739
   68SAPC  H20T 5775   5.073   0.117   6.879
   68SAPC   C33 5776   4.554   0.580   7.114
   68SAPC   H3X 5777   4.462   0.526   7.146
   68SAPC   H3Y 5778   4.529   0.684   7.085
   68SAPC   C34 5779   4.643   0.590   7.237
   68SAPC   H4X 5780   4.713   0.672   7.211
   68SAPC   H4Y 5781   4.705   0.498   7.247
   68SAPC   C35 5782   4.579   0.623   7.370
   68SAPC   H5X 5783   4.478   0.578   7.366
   68SAPC   H5Y 5784   4.560   0.732   7.377
   68SAPC   C36 5785   4.659   0.583   7.496
   68SAPC   H6X 5786   4.730   0.668   7.503
   68SAPC   H6Y 5787   4.709   0.485   7.481
   68SAPC   C37 5788   4.560   0.555   7.605
   68SAPC   H7X 5789   4.504   0.459   7.603
   68SAPC   H7Y 5790   4.475   0.625   7.615
   68SAPC   C38 5791   4.644   0.545   7.736
   68SAPC   H8X 5792   4.703   0.638   7.738
   68SAPC   H8Y 5793   4.718   0.465   7.713
   68SAPC   C39 5794   4.567   0.543   7.867
   68SAPC   H9X 5795   4.513   0.447   7.880
   68SAPC   H9Y 5796   4.505   0.634   7.883
   68SAPC  C310 5797   4.670   0.537   7.991
   68SAPC  H10X 5798   4.614   0.574   8.080
   68SAPC  H10Y 5799   4.749   0.615   7.986
   68SAPC  C311 5800   4.736   0.397   8.006
   68SAPC  H11X 5801   4.768   0.370   7.903
   68SAPC  H11Y 5802   4.661   0.321   8.035
   68SAPC  C312 5803   4.859   0.389   8.101
   68SAPC  H12X 5804   4.828   0.423   8.202
   68SAPC  H12Y 5805   4.940   0.457   8.067
   68SAPC  C313 5806   4.908   0.249   8.113
   68SAPC  H13X 5807   4.914   0.204   8.011
   68SAPC  H13Y 5808   4.841   0.179   8.167
   68SAPC  C314 5809   5.048   0.246   8.176
   68SAPC  H14X 5810   5.050   0.280   8.281
   68SAPC  H14Y 5811   5.108   0.320   8.120
   68SAPC  C315 5812   5.110   0.107   8.171
   68SAPC  H15X 5813   5.142   0.089   8.066
   68SAPC  H15Y 5814   5.049   0.018   8.197
   68SAPC  C316 5815   5.238   0.091   8.264
   68SAPC  H16X 5816   5.231   0.151   8.357
   68SAPC  H16Y 5817   5.323   0.137   8.209
   68SAPC  C317 5818   5.285  -0.054   8.290
   68SAPC  H17X 5819   5.293  -0.106   8.192
   68SAPC  H17Y 5820   5.195  -0.092   8.343
   68SAPC  C318 5821   5.412  -0.063   8.379
   68SAPC  H18X 5822   5.403   0.013   8.459
   68SAPC  H18Y 5823   5.500  -0.028   8.321
   68SAPC  H18Z 5824   5.440  -0.164   8.415
   69SLPC     N 5825   2.438   4.944  11.360
   69SLPC   C13 5826   2.388   4.802  11.371
   69SLPC  H13A 5827   2.364   4.771  11.471
   69SLPC  H13B 5828   2.301   4.788  11.308
   69SLPC  H13C 5829   2.467   4.734  11.342
   69SLPC   C14 5830   2.558   4.962  11.451
   69SLPC  H14A 5831   2.528   4.962  11.555
   69SLPC  H14B 5832   2.629   4.881  11.438
   69SLPC  H14C 5833   2.600   5.061  11.440
   69SLPC   C15 5834   2.326   5.035  11.401
   69SLPC  H15A 5835   2.353   5.139  11.392
   69SLPC  H15B 5836   2.247   5.030  11.327
   69SLPC  H15C 5837   2.286   5.023  11.500
   69SLPC   C12 5838   2.481   4.981  11.219
   69SLPC  H12A 5839   2.569   4.922  11.199
   69SLPC  H12B 5840   2.517   5.083  11.215
   69SLPC   C11 5841   2.378   4.952  11.108
   69SLPC  H11A 5842   2.357   4.843  11.116
   69SLPC  H11B 5843   2.420   4.945  11.006
   69SLPC     P 5844   2.260   5.169  11.054
   69SLPC   O13 5845   2.135   5.236  11.083
   69SLPC   O14 5846   2.377   5.252  11.090
   69SLPC   O12 5847   2.266   5.035  11.133
   69SLPC   O11 5848   2.264   5.134  10.902
   69SLPC    C1 5849   2.152   5.051  10.850
   69SLPC    HA 5850   2.166   4.947  10.887
   69SLPC    HB 5851   2.053   5.077  10.893
   69SLPC    C2 5852   2.142   5.068  10.696
   69SLPC    HS 5853   2.237   5.021  10.660
   69SLPC   O21 5854   2.121   5.207  10.660
   69SLPC   C21 5855   2.233   5.271  10.627
   69SLPC   O22 5856   2.339   5.218  10.617
   69SLPC   C22 5857   2.200   5.411  10.578
   69SLPC   H2R 5858   2.140   5.476  10.645
   69SLPC   H2S 5859   2.294   5.471  10.581
   69SLPC    C3 5860   2.025   4.994  10.635
   69SLPC    HX 5861   1.931   5.019  10.688
   69SLPC    HY 5862   2.026   4.885  10.653
   69SLPC   O31 5863   2.013   5.012  10.493
   69SLPC   C31 5864   2.096   4.962  10.415
   69SLPC   O32 5865   2.201   4.909  10.434
   69SLPC   C32 5866   2.027   4.976  10.276
   69SLPC   H2X 5867   2.006   5.083  10.257
   69SLPC   H2Y 5868   1.926   4.930  10.284
   69SLPC   C23 5869   2.144   5.422  10.432
   69SLPC   H3R 5870   2.209   5.364  10.364
   69SLPC   H3S 5871   2.140   5.530  10.410
   69SLPC   C24 5872   2.007   5.368  10.424
   69SLPC   H4R 5873   1.950   5.412  10.508
   69SLPC   H4S 5874   2.014   5.260  10.449
   69SLPC   C25 5875   1.947   5.403  10.289
   69SLPC   H5R 5876   2.022   5.369  10.215
   69SLPC   H5S 5877   1.946   5.512  10.268
   69SLPC   C26 5878   1.802   5.355  10.267
   69SLPC   H6R 5879   1.748   5.405  10.350
   69SLPC   H6S 5880   1.797   5.245  10.279
   69SLPC   C27 5881   1.752   5.376  10.118
   69SLPC   H7R 5882   1.729   5.483  10.101
   69SLPC   H7S 5883   1.665   5.308  10.112
   69SLPC   C28 5884   1.826   5.315  10.001
   69SLPC   H8R 5885   1.750   5.280   9.928
   69SLPC   H8S 5886   1.865   5.220  10.043
   69SLPC   C29 5887   1.935   5.402   9.939
   69SLPC   H9R 5888   2.020   5.431  10.003
   69SLPC  C210 5889   1.935   5.438   9.804
   69SLPC  H10R 5890   2.028   5.494   9.781
   69SLPC  C211 5891   1.835   5.398   9.697
   69SLPC  H11R 5892   1.855   5.467   9.612
   69SLPC  H11S 5893   1.733   5.422   9.733
   69SLPC  C212 5894   1.838   5.257   9.646
   69SLPC  H12R 5895   1.926   5.202   9.681
   69SLPC  C213 5896   1.738   5.192   9.581
   69SLPC  H13R 5897   1.767   5.089   9.558
   69SLPC  C214 5898   1.600   5.239   9.534
   69SLPC  H14R 5899   1.565   5.327   9.592
   69SLPC  H14S 5900   1.528   5.155   9.534
   69SLPC  C215 5901   1.617   5.280   9.382
   69SLPC  H15R 5902   1.697   5.356   9.373
   69SLPC  H15S 5903   1.522   5.331   9.353
   69SLPC  C216 5904   1.628   5.157   9.290
   69SLPC  H16R 5905   1.550   5.086   9.325
   69SLPC  H16S 5906   1.721   5.103   9.318
   69SLPC  C217 5907   1.625   5.201   9.147
   69SLPC  H17R 5908   1.653   5.307   9.131
   69SLPC  H17S 5909   1.515   5.202   9.128
   69SLPC  C218 5910   1.680   5.096   9.050
   69SLPC  H18R 5911   1.784   5.066   9.076
   69SLPC  H18S 5912   1.687   5.133   8.945
   69SLPC  H18T 5913   1.616   5.006   9.049
   69SLPC   C33 5914   2.117   4.904  10.169
   69SLPC   H3X 5915   2.149   4.801  10.193
   69SLPC   H3Y 5916   2.211   4.963  10.176
   69SLPC   C34 5917   2.039   4.921  10.035
   69SLPC   H4X 5918   2.014   5.027  10.011
   69SLPC   H4Y 5919   1.950   4.857  10.046
   69SLPC   C35 5920   2.118   4.859   9.925
   69SLPC   H5X 5921   2.134   4.750   9.943
   69SLPC   H5Y 5922   2.220   4.903   9.927
   69SLPC   C36 5923   2.055   4.867   9.787
   69SLPC   H6X 5924   2.030   4.975   9.777
   69SLPC   H6Y 5925   1.965   4.802   9.789
   69SLPC   C37 5926   2.148   4.835   9.671
   69SLPC   H7X 5927   2.148   4.725   9.652
   69SLPC   H7Y 5928   2.248   4.876   9.699
   69SLPC   C38 5929   2.114   4.899   9.537
   69SLPC   H8X 5930   2.194   4.885   9.462
   69SLPC   H8Y 5931   2.119   5.006   9.564
   69SLPC   C39 5932   1.982   4.853   9.490
   69SLPC   H9X 5933   1.900   4.860   9.565
   69SLPC   H9Y 5934   2.001   4.745   9.472
   69SLPC  C310 5935   1.928   4.928   9.361
   69SLPC  H10X 5936   1.916   5.037   9.384
   69SLPC  H10Y 5937   1.825   4.897   9.333
   69SLPC  C311 5938   2.012   4.927   9.230
   69SLPC  H11X 5939   2.108   4.975   9.256
   69SLPC  H11Y 5940   1.965   4.983   9.146
   69SLPC  C312 5941   2.026   4.780   9.183
   69SLPC  H12X 5942   1.925   4.735   9.173
   69SLPC  H12Y 5943   2.065   4.720   9.268
   69SLPC  C313 5944   2.104   4.756   9.060
   69SLPC  H13X 5945   2.037   4.749   8.971
   69SLPC  H13Y 5946   2.142   4.652   9.070
   69SLPC  C314 5947   2.211   4.855   9.031
   69SLPC  H14X 5948   2.279   4.860   9.119
   69SLPC  H14Y 5949   2.177   4.957   9.004
   69SLPC  C315 5950   2.287   4.820   8.902
   69SLPC  H15X 5951   2.222   4.796   8.815
   69SLPC  H15Y 5952   2.351   4.729   8.913
   69SLPC  C316 5953   2.399   4.923   8.851
   69SLPC  H16X 5954   2.464   4.964   8.932
   69SLPC  H16Y 5955   2.354   5.003   8.788
   69SLPC  C317 5956   2.501   4.846   8.766
   69SLPC  H17X 5957   2.445   4.772   8.706
   69SLPC  H17Y 5958   2.569   4.794   8.837
   69SLPC  C318 5959   2.591   4.933   8.682
   69SLPC  H18X 5960   2.524   5.002   8.627
   69SLPC  H18Y 5961   2.632   4.870   8.600
   69SLPC  H18Z 5962   2.677   4.983   8.731
   70SLPC     N 5963   3.238   3.224  11.020
   70SLPC   C13 5964   3.108   3.247  11.084
   70SLPC  H13A 5965   3.045   3.324  11.043
   70SLPC  H13B 5966   3.040   3.163  11.078
   70SLPC  H13C 5967   3.114   3.276  11.187
   70SLPC   C14 5968   3.319   3.349  11.044
   70SLPC  H14A 5969   3.350   3.344  11.147
   70SLPC  H14B 5970   3.415   3.341  10.995
   70SLPC  H14C 5971   3.272   3.438  11.006
   70SLPC   C15 5972   3.220   3.207  10.878
   70SLPC  H15A 5973   3.317   3.174  10.844
   70SLPC  H15B 5974   3.157   3.122  10.855
   70SLPC  H15C 5975   3.191   3.293  10.819
   70SLPC   C12 5976   3.314   3.101  11.076
   70SLPC  H12A 5977   3.337   3.121  11.179
   70SLPC  H12B 5978   3.407   3.096  11.022
   70SLPC   C11 5979   3.247   2.963  11.065
   70SLPC  H11A 5980   3.149   2.958  11.117
   70SLPC  H11B 5981   3.314   2.889  11.115
   70SLPC     P 5982   3.328   2.848  10.846
   70SLPC   O13 5983   3.462   2.905  10.869
   70SLPC   O14 5984   3.312   2.710  10.892
   70SLPC   O12 5985   3.223   2.930  10.927
   70SLPC   O11 5986   3.285   2.862  10.696
   70SLPC    C1 5987   3.158   2.827  10.646
   70SLPC    HA 5988   3.081   2.850  10.722
   70SLPC    HB 5989   3.136   2.895  10.561
   70SLPC    C2 5990   3.139   2.683  10.589
   70SLPC    HS 5991   3.185   2.615  10.664
   70SLPC   O21 5992   3.206   2.682  10.459
   70SLPC   C21 5993   3.231   2.557  10.412
   70SLPC   O22 5994   3.206   2.455  10.474
   70SLPC   C22 5995   3.300   2.566  10.276
   70SLPC   H2R 5996   3.230   2.600  10.197
   70SLPC   H2S 5997   3.377   2.646  10.281
   70SLPC    C3 5998   2.990   2.649  10.566
   70SLPC    HX 5999   2.955   2.642  10.671
   70SLPC    HY 6000   2.978   2.552  10.514
   70SLPC   O31 6001   2.919   2.753  10.492
   70SLPC   C31 6002   2.791   2.743  10.498
   70SLPC   O32 6003   2.726   2.658  10.556
   70SLPC   C32 6004   2.731   2.856  10.417
   70SLPC   H2X 6005   2.805   2.904  10.350
   70SLPC   H2Y 6006   2.700   2.936  10.486
   70SLPC   C23 6007   3.367   2.436  10.233
   70SLPC   H3R 6008   3.311   2.350  10.275
   70SLPC   H3S 6009   3.473   2.424  10.266
   70SLPC   C24 6010   3.371   2.419  10.079
   70SLPC   H4R 6011   3.269   2.406  10.037
   70SLPC   H4S 6012   3.425   2.323  10.064
   70SLPC   C25 6013   3.439   2.537  10.008
   70SLPC   H5R 6014   3.546   2.533  10.038
   70SLPC   H5S 6015   3.382   2.629  10.030
   70SLPC   C26 6016   3.418   2.523   9.858
   70SLPC   H6R 6017   3.308   2.529   9.843
   70SLPC   H6S 6018   3.459   2.429   9.815
   70SLPC   C27 6019   3.479   2.649   9.793
   70SLPC   H7R 6020   3.590   2.648   9.783
   70SLPC   H7S 6021   3.448   2.749   9.830
   70SLPC   C28 6022   3.430   2.661   9.646
   70SLPC   H8R 6023   3.456   2.760   9.604
   70SLPC   H8S 6024   3.319   2.665   9.653
   70SLPC   C29 6025   3.458   2.560   9.536
   70SLPC   H9R 6026   3.433   2.454   9.552
   70SLPC  C210 6027   3.518   2.583   9.417
   70SLPC  H10R 6028   3.538   2.491   9.361
   70SLPC  C211 6029   3.559   2.710   9.349
   70SLPC  H11R 6030   3.670   2.703   9.346
   70SLPC  H11S 6031   3.518   2.794   9.410
   70SLPC  C212 6032   3.501   2.724   9.204
   70SLPC  H12R 6033   3.441   2.634   9.184
   70SLPC  C213 6034   3.533   2.827   9.115
   70SLPC  H13R 6035   3.479   2.834   9.019
   70SLPC  C214 6036   3.632   2.940   9.142
   70SLPC  H14R 6037   3.698   2.921   9.229
   70SLPC  H14S 6038   3.566   3.029   9.155
   70SLPC  C215 6039   3.729   2.958   9.025
   70SLPC  H15R 6040   3.681   2.929   8.929
   70SLPC  H15S 6041   3.811   2.883   9.028
   70SLPC  C216 6042   3.795   3.096   9.019
   70SLPC  H16R 6043   3.827   3.113   9.124
   70SLPC  H16S 6044   3.717   3.173   9.005
   70SLPC  C217 6045   3.918   3.103   8.933
   70SLPC  H17R 6046   3.867   3.095   8.835
   70SLPC  H17S 6047   3.992   3.021   8.949
   70SLPC  C218 6048   3.990   3.242   8.934
   70SLPC  H18R 6049   4.070   3.256   8.858
   70SLPC  H18S 6050   4.031   3.259   9.036
   70SLPC  H18T 6051   3.911   3.320   8.925
   70SLPC   C33 6052   2.607   2.812  10.328
   70SLPC   H3X 6053   2.564   2.907  10.290
   70SLPC   H3Y 6054   2.528   2.758  10.385
   70SLPC   C34 6055   2.659   2.737  10.210
   70SLPC   H4X 6056   2.603   2.642  10.195
   70SLPC   H4Y 6057   2.767   2.712  10.220
   70SLPC   C35 6058   2.638   2.813  10.077
   70SLPC   H5X 6059   2.693   2.909  10.083
   70SLPC   H5Y 6060   2.534   2.840  10.051
   70SLPC   C36 6061   2.688   2.729   9.960
   70SLPC   H6X 6062   2.627   2.637   9.972
   70SLPC   H6Y 6063   2.793   2.694   9.960
   70SLPC   C37 6064   2.675   2.799   9.831
   70SLPC   H7X 6065   2.758   2.873   9.827
   70SLPC   H7Y 6066   2.582   2.859   9.828
   70SLPC   C38 6067   2.677   2.693   9.713
   70SLPC   H8X 6068   2.620   2.598   9.728
   70SLPC   H8Y 6069   2.783   2.664   9.701
   70SLPC   C39 6070   2.630   2.764   9.582
   70SLPC   H9X 6071   2.708   2.836   9.548
   70SLPC   H9Y 6072   2.539   2.822   9.611
   70SLPC  C310 6073   2.593   2.659   9.483
   70SLPC  H10X 6074   2.508   2.603   9.526
   70SLPC  H10Y 6075   2.681   2.595   9.461
   70SLPC  C311 6076   2.535   2.712   9.351
   70SLPC  H11X 6077   2.615   2.775   9.306
   70SLPC  H11Y 6078   2.444   2.774   9.362
   70SLPC  C312 6079   2.512   2.594   9.250
   70SLPC  H12X 6080   2.444   2.517   9.293
   70SLPC  H12Y 6081   2.613   2.549   9.232
   70SLPC  C313 6082   2.467   2.643   9.116
   70SLPC  H13X 6083   2.546   2.702   9.065
   70SLPC  H13Y 6084   2.382   2.713   9.127
   70SLPC  C314 6085   2.426   2.528   9.025
   70SLPC  H14X 6086   2.373   2.449   9.083
   70SLPC  H14Y 6087   2.516   2.478   8.985
   70SLPC  C315 6088   2.343   2.581   8.909
   70SLPC  H15X 6089   2.408   2.644   8.844
   70SLPC  H15Y 6090   2.262   2.648   8.946
   70SLPC  C316 6091   2.268   2.465   8.837
   70SLPC  H16X 6092   2.229   2.382   8.900
   70SLPC  H16Y 6093   2.344   2.425   8.766
   70SLPC  C317 6094   2.149   2.517   8.761
   70SLPC  H17X 6095   2.191   2.585   8.684
   70SLPC  H17Y 6096   2.080   2.570   8.830
   70SLPC  C318 6097   2.086   2.395   8.701
   70SLPC  H18X 6098   2.159   2.327   8.651
   70SLPC  H18Y 6099   2.027   2.428   8.613
   70SLPC  H18Z 6100   2.014   2.342   8.767
   71SLPC     N 6101   2.768   0.760  10.731
   71SLPC   C13 6102   2.750   0.670  10.614
   71SLPC  H13A 6103   2.843   0.615  10.600
   71SLPC  H13B 6104   2.658   0.614  10.625
   71SLPC  H13C 6105   2.741   0.716  10.516
   71SLPC   C14 6106   2.887   0.842  10.715
   71SLPC  H14A 6107   2.976   0.781  10.709
   71SLPC  H14B 6108   2.869   0.922  10.645
   71SLPC  H14C 6109   2.892   0.893  10.810
   71SLPC   C15 6110   2.772   0.677  10.855
   71SLPC  H15A 6111   2.851   0.604  10.846
   71SLPC  H15B 6112   2.799   0.736  10.942
   71SLPC  H15C 6113   2.687   0.613  10.873
   71SLPC   C12 6114   2.642   0.850  10.738
   71SLPC  H12A 6115   2.659   0.903  10.830
   71SLPC  H12B 6116   2.560   0.781  10.752
   71SLPC   C11 6117   2.613   0.952  10.625
   71SLPC  H11A 6118   2.509   0.991  10.632
   71SLPC  H11B 6119   2.607   0.898  10.529
   71SLPC     P 6120   2.728   1.166  10.726
   71SLPC   O13 6121   2.725   1.106  10.862
   71SLPC   O14 6122   2.843   1.250  10.690
   71SLPC   O12 6123   2.718   1.046  10.612
   71SLPC   O11 6124   2.605   1.258  10.702
   71SLPC    C1 6125   2.609   1.363  10.599
   71SLPC    HA 6126   2.603   1.467  10.635
   71SLPC    HB 6127   2.693   1.358  10.527
   71SLPC    C2 6128   2.491   1.352  10.498
   71SLPC    HS 6129   2.396   1.354  10.554
   71SLPC   O21 6130   2.509   1.230  10.426
   71SLPC   C21 6131   2.403   1.197  10.360
   71SLPC   O22 6132   2.293   1.250  10.362
   71SLPC   C22 6133   2.448   1.076  10.275
   71SLPC   H2R 6134   2.547   1.102  10.231
   71SLPC   H2S 6135   2.456   0.992  10.347
   71SLPC    C3 6136   2.497   1.481  10.396
   71SLPC    HX 6137   2.483   1.581  10.444
   71SLPC    HY 6138   2.404   1.477  10.334
   71SLPC   O31 6139   2.626   1.484  10.327
   71SLPC   C31 6140   2.642   1.578  10.235
   71SLPC   O32 6141   2.554   1.631  10.171
   71SLPC   C32 6142   2.791   1.601  10.204
   71SLPC   H2X 6143   2.846   1.570  10.296
   71SLPC   H2Y 6144   2.814   1.709  10.199
   71SLPC   C23 6145   2.350   1.031  10.162
   71SLPC   H3R 6146   2.242   1.053  10.178
   71SLPC   H3S 6147   2.350   0.924  10.130
   71SLPC   C24 6148   2.386   1.104  10.029
   71SLPC   H4R 6149   2.486   1.075   9.989
   71SLPC   H4S 6150   2.388   1.215  10.036
   71SLPC   C25 6151   2.288   1.062   9.916
   71SLPC   H5R 6152   2.185   1.093   9.945
   71SLPC   H5S 6153   2.287   0.951   9.911
   71SLPC   C26 6154   2.332   1.120   9.781
   71SLPC   H6R 6155   2.431   1.076   9.756
   71SLPC   H6S 6156   2.341   1.230   9.789
   71SLPC   C27 6157   2.225   1.089   9.672
   71SLPC   H7R 6158   2.124   1.129   9.692
   71SLPC   H7S 6159   2.204   0.980   9.665
   71SLPC   C28 6160   2.258   1.138   9.524
   71SLPC   H8R 6161   2.256   1.249   9.519
   71SLPC   H8S 6162   2.183   1.095   9.454
   71SLPC   C29 6163   2.390   1.095   9.471
   71SLPC   H9R 6164   2.468   1.111   9.547
   71SLPC  C210 6165   2.412   1.032   9.356
   71SLPC  H10R 6166   2.515   0.997   9.339
   71SLPC  C211 6167   2.317   0.986   9.250
   71SLPC  H11R 6168   2.362   1.007   9.151
   71SLPC  H11S 6169   2.219   1.039   9.248
   71SLPC  C212 6170   2.280   0.842   9.262
   71SLPC  H12R 6171   2.363   0.773   9.285
   71SLPC  C213 6172   2.167   0.780   9.245
   71SLPC  H13R 6173   2.153   0.674   9.270
   71SLPC  C214 6174   2.031   0.846   9.211
   71SLPC  H14R 6175   2.006   0.807   9.110
   71SLPC  H14S 6176   2.046   0.956   9.212
   71SLPC  C215 6177   1.935   0.799   9.307
   71SLPC  H15R 6178   1.940   0.689   9.316
   71SLPC  H15S 6179   1.838   0.827   9.261
   71SLPC  C216 6180   1.929   0.868   9.444
   71SLPC  H16R 6181   1.938   0.975   9.418
   71SLPC  H16S 6182   2.023   0.838   9.495
   71SLPC  C217 6183   1.808   0.829   9.534
   71SLPC  H17R 6184   1.812   0.719   9.548
   71SLPC  H17S 6185   1.715   0.848   9.476
   71SLPC  C218 6186   1.803   0.909   9.656
   71SLPC  H18R 6187   1.765   1.010   9.631
   71SLPC  H18S 6188   1.906   0.928   9.694
   71SLPC  H18T 6189   1.749   0.860   9.740
   71SLPC   C33 6190   2.852   1.507  10.094
   71SLPC   H3X 6191   2.840   1.402  10.129
   71SLPC   H3Y 6192   2.955   1.544  10.079
   71SLPC   C34 6193   2.774   1.532   9.964
   71SLPC   H4X 6194   2.787   1.637   9.930
   71SLPC   H4Y 6195   2.664   1.517   9.967
   71SLPC   C35 6196   2.829   1.447   9.852
   71SLPC   H5X 6197   2.818   1.342   9.884
   71SLPC   H5Y 6198   2.936   1.466   9.830
   71SLPC   C36 6199   2.746   1.462   9.724
   71SLPC   H6X 6200   2.753   1.566   9.685
   71SLPC   H6Y 6201   2.639   1.438   9.742
   71SLPC   C37 6202   2.791   1.364   9.612
   71SLPC   H7X 6203   2.779   1.258   9.642
   71SLPC   H7Y 6204   2.898   1.387   9.597
   71SLPC   C38 6205   2.721   1.390   9.477
   71SLPC   H8X 6206   2.735   1.497   9.449
   71SLPC   H8Y 6207   2.612   1.372   9.488
   71SLPC   C39 6208   2.778   1.315   9.354
   71SLPC   H9X 6209   2.745   1.209   9.357
   71SLPC   H9Y 6210   2.889   1.309   9.349
   71SLPC  C310 6211   2.726   1.383   9.228
   71SLPC  H10X 6212   2.774   1.483   9.214
   71SLPC  H10Y 6213   2.621   1.418   9.231
   71SLPC  C311 6214   2.745   1.305   9.096
   71SLPC  H11X 6215   2.690   1.209   9.100
   71SLPC  H11Y 6216   2.853   1.288   9.076
   71SLPC  C312 6217   2.698   1.392   8.978
   71SLPC  H12X 6218   2.775   1.452   8.924
   71SLPC  H12Y 6219   2.623   1.470   9.004
   71SLPC  C313 6220   2.633   1.298   8.865
   71SLPC  H13X 6221   2.584   1.365   8.791
   71SLPC  H13Y 6222   2.548   1.244   8.913
   71SLPC  C314 6223   2.728   1.202   8.795
   71SLPC  H14X 6224   2.674   1.153   8.711
   71SLPC  H14Y 6225   2.744   1.118   8.867
   71SLPC  C315 6226   2.853   1.258   8.736
   71SLPC  H15X 6227   2.925   1.276   8.819
   71SLPC  H15Y 6228   2.816   1.352   8.691
   71SLPC  C316 6229   2.918   1.164   8.635
   71SLPC  H16X 6230   2.992   1.228   8.580
   71SLPC  H16Y 6231   2.845   1.126   8.561
   71SLPC  C317 6232   2.989   1.041   8.687
   71SLPC  H17X 6233   3.011   0.969   8.605
   71SLPC  H17Y 6234   2.927   0.977   8.753
   71SLPC  C318 6235   3.112   1.082   8.769
   71SLPC  H18X 6236   3.185   1.000   8.784
   71SLPC  H18Y 6237   3.074   1.108   8.870
   71SLPC  H18Z 6238   3.150   1.169   8.710
   72SLPC     N 6239   4.161   6.745  10.951
   72SLPC   C13 6240   4.180   6.697  11.094
   72SLPC  H13A 6241   4.207   6.782  11.155
   72SLPC  H13B 6242   4.100   6.637  11.134
   72SLPC  H13C 6243   4.262   6.628  11.094
   72SLPC   C14 6244   4.289   6.814  10.907
   72SLPC  H14A 6245   4.371   6.748  10.930
   72SLPC  H14B 6246   4.285   6.835  10.801
   72SLPC  H14C 6247   4.290   6.907  10.962
   72SLPC   C15 6248   4.045   6.836  10.955
   72SLPC  H15A 6249   4.071   6.919  11.019
   72SLPC  H15B 6250   4.017   6.885  10.862
   72SLPC  H15C 6251   3.958   6.786  10.994
   72SLPC   C12 6252   4.130   6.629  10.860
   72SLPC  H12A 6253   4.095   6.654  10.761
   72SLPC  H12B 6254   4.043   6.579  10.899
   72SLPC   C11 6255   4.239   6.519  10.837
   72SLPC  H11A 6256   4.266   6.472  10.934
   72SLPC  H11B 6257   4.329   6.559  10.786
   72SLPC     P 6258   4.104   6.311  10.795
   72SLPC   O13 6259   4.202   6.222  10.860
   72SLPC   O14 6260   3.995   6.364  10.872
   72SLPC   O12 6261   4.181   6.433  10.732
   72SLPC   O11 6262   4.048   6.248  10.660
   72SLPC    C1 6263   4.020   6.345  10.546
   72SLPC    HA 6264   4.001   6.449  10.578
   72SLPC    HB 6265   4.097   6.333  10.466
   72SLPC    C2 6266   3.893   6.299  10.480
   72SLPC    HS 6267   3.910   6.203  10.427
   72SLPC   O21 6268   3.870   6.409  10.395
   72SLPC   C21 6269   3.913   6.401  10.273
   72SLPC   O22 6270   3.969   6.306  10.225
   72SLPC   C22 6271   3.892   6.524  10.190
   72SLPC   H2R 6272   3.795   6.574  10.211
   72SLPC   H2S 6273   3.974   6.592  10.219
   72SLPC    C3 6274   3.776   6.285  10.576
   72SLPC    HX 6275   3.778   6.386  10.622
   72SLPC    HY 6276   3.822   6.211  10.645
   72SLPC   O31 6277   3.649   6.228  10.532
   72SLPC   C31 6278   3.560   6.321  10.497
   72SLPC   O32 6279   3.563   6.441  10.518
   72SLPC   C32 6280   3.465   6.249  10.403
   72SLPC   H2X 6281   3.371   6.308  10.398
   72SLPC   H2Y 6282   3.442   6.147  10.441
   72SLPC   C23 6283   3.888   6.505  10.039
   72SLPC   H3R 6284   3.973   6.442  10.003
   72SLPC   H3S 6285   3.910   6.602   9.989
   72SLPC   C24 6286   3.753   6.461   9.980
   72SLPC   H4R 6287   3.672   6.529  10.012
   72SLPC   H4S 6288   3.730   6.359  10.017
   72SLPC   C25 6289   3.754   6.466   9.829
   72SLPC   H5R 6290   3.822   6.546   9.791
   72SLPC   H5S 6291   3.651   6.487   9.793
   72SLPC   C26 6292   3.814   6.344   9.759
   72SLPC   H6R 6293   3.767   6.260   9.814
   72SLPC   H6S 6294   3.923   6.350   9.779
   72SLPC   C27 6295   3.785   6.331   9.610
   72SLPC   H7R 6296   3.814   6.432   9.575
   72SLPC   H7S 6297   3.676   6.316   9.592
   72SLPC   C28 6298   3.856   6.217   9.535
   72SLPC   H8R 6299   3.791   6.197   9.447
   72SLPC   H8S 6300   3.847   6.126   9.597
   72SLPC   C29 6301   3.998   6.253   9.510
   72SLPC   H9R 6302   4.051   6.267   9.605
   72SLPC  C210 6303   4.051   6.249   9.383
   72SLPC  H10R 6304   4.154   6.283   9.365
   72SLPC  C211 6305   3.979   6.203   9.256
   72SLPC  H11R 6306   3.872   6.232   9.266
   72SLPC  H11S 6307   3.990   6.094   9.241
   72SLPC  C212 6308   4.027   6.260   9.125
   72SLPC  H12R 6309   4.135   6.276   9.110
   72SLPC  C213 6310   3.948   6.275   9.020
   72SLPC  H13R 6311   3.991   6.312   8.926
   72SLPC  C214 6312   3.796   6.266   9.009
   72SLPC  H14R 6313   3.769   6.373   8.995
   72SLPC  H14S 6314   3.746   6.250   9.106
   72SLPC  C215 6315   3.746   6.172   8.902
   72SLPC  H15R 6316   3.636   6.159   8.911
   72SLPC  H15S 6317   3.789   6.070   8.911
   72SLPC  C216 6318   3.764   6.242   8.769
   72SLPC  H16R 6319   3.861   6.296   8.776
   72SLPC  H16S 6320   3.688   6.320   8.746
   72SLPC  C217 6321   3.779   6.148   8.645
   72SLPC  H17R 6322   3.873   6.094   8.668
   72SLPC  H17S 6323   3.798   6.212   8.556
   72SLPC  C218 6324   3.659   6.061   8.621
   72SLPC  H18R 6325   3.648   5.985   8.701
   72SLPC  H18S 6326   3.660   6.014   8.521
   72SLPC  H18T 6327   3.566   6.122   8.631
   72SLPC   C33 6328   3.513   6.250  10.256
   72SLPC   H3X 6329   3.618   6.217  10.241
   72SLPC   H3Y 6330   3.511   6.357  10.228
   72SLPC   C34 6331   3.418   6.180  10.168
   72SLPC   H4X 6332   3.314   6.206  10.199
   72SLPC   H4Y 6333   3.428   6.072  10.191
   72SLPC   C35 6334   3.452   6.197  10.021
   72SLPC   H5X 6335   3.555   6.160  10.004
   72SLPC   H5Y 6336   3.444   6.304   9.994
   72SLPC   C36 6337   3.352   6.109   9.939
   72SLPC   H6X 6338   3.255   6.156   9.967
   72SLPC   H6Y 6339   3.359   6.007   9.981
   72SLPC   C37 6340   3.386   6.102   9.787
   72SLPC   H7X 6341   3.316   6.029   9.741
   72SLPC   H7Y 6342   3.486   6.054   9.778
   72SLPC   C38 6343   3.382   6.233   9.707
   72SLPC   H8X 6344   3.473   6.290   9.735
   72SLPC   H8Y 6345   3.289   6.284   9.740
   72SLPC   C39 6346   3.369   6.193   9.552
   72SLPC   H9X 6347   3.287   6.118   9.551
   72SLPC   H9Y 6348   3.468   6.152   9.522
   72SLPC  C310 6349   3.328   6.318   9.463
   72SLPC  H10X 6350   3.409   6.394   9.458
   72SLPC  H10Y 6351   3.240   6.362   9.514
   72SLPC  C311 6352   3.288   6.278   9.320
   72SLPC  H11X 6353   3.217   6.350   9.274
   72SLPC  H11Y 6354   3.249   6.176   9.299
   72SLPC  C312 6355   3.415   6.282   9.225
   72SLPC  H12X 6356   3.496   6.210   9.246
   72SLPC  H12Y 6357   3.461   6.381   9.246
   72SLPC  C313 6358   3.372   6.266   9.076
   72SLPC  H13X 6359   3.438   6.324   9.007
   72SLPC  H13Y 6360   3.285   6.334   9.068
   72SLPC  C314 6361   3.358   6.122   9.031
   72SLPC  H14X 6362   3.265   6.085   9.077
   72SLPC  H14Y 6363   3.449   6.062   9.051
   72SLPC  C315 6364   3.333   6.099   8.877
   72SLPC  H15X 6365   3.430   6.119   8.826
   72SLPC  H15Y 6366   3.255   6.172   8.847
   72SLPC  C316 6367   3.300   5.964   8.826
   72SLPC  H16X 6368   3.211   5.921   8.876
   72SLPC  H16Y 6369   3.381   5.903   8.872
   72SLPC  C317 6370   3.289   5.946   8.674
   72SLPC  H17X 6371   3.256   5.842   8.658
   72SLPC  H17Y 6372   3.393   5.961   8.638
   72SLPC  C318 6373   3.186   6.032   8.589
   72SLPC  H18X 6374   3.212   6.015   8.482
   72SLPC  H18Y 6375   3.193   6.138   8.620
   72SLPC  H18Z 6376   3.084   5.992   8.606
   73SLPC     N 6377   4.090   5.044  10.753
   73SLPC   C13 6378   4.215   5.095  10.800
   73SLPC  H13A 6379   4.225   5.201  10.816
   73SLPC  H13B 6380   4.239   5.059  10.898
   73SLPC  H13C 6381   4.295   5.053  10.741
   73SLPC   C14 6382   4.074   5.090  10.609
   73SLPC  H14A 6383   3.975   5.050  10.588
   73SLPC  H14B 6384   4.075   5.198  10.604
   73SLPC  H14C 6385   4.149   5.053  10.541
   73SLPC   C15 6386   3.979   5.100  10.831
   73SLPC  H15A 6387   3.949   5.199  10.801
   73SLPC  H15B 6388   3.899   5.028  10.835
   73SLPC  H15C 6389   4.023   5.112  10.929
   73SLPC   C12 6390   4.090   4.894  10.767
   73SLPC  H12A 6391   4.083   4.875  10.873
   73SLPC  H12B 6392   4.188   4.849  10.757
   73SLPC   C11 6393   3.983   4.808  10.689
   73SLPC  H11A 6394   4.016   4.702  10.696
   73SLPC  H11B 6395   3.975   4.852  10.587
   73SLPC     P 6396   3.803   4.754  10.865
   73SLPC   O13 6397   3.919   4.712  10.947
   73SLPC   O14 6398   3.710   4.853  10.921
   73SLPC   O12 6399   3.854   4.825  10.738
   73SLPC   O11 6400   3.735   4.629  10.804
   73SLPC    C1 6401   3.631   4.636  10.696
   73SLPC    HA 6402   3.551   4.560  10.704
   73SLPC    HB 6403   3.582   4.735  10.702
   73SLPC    C2 6404   3.702   4.603  10.565
   73SLPC    HS 6405   3.764   4.693  10.544
   73SLPC   O21 6406   3.611   4.592  10.456
   73SLPC   C21 6407   3.564   4.703  10.401
   73SLPC   O22 6408   3.621   4.808  10.409
   73SLPC   C22 6409   3.426   4.664  10.328
   73SLPC   H2R 6410   3.431   4.557  10.301
   73SLPC   H2S 6411   3.360   4.686  10.414
   73SLPC    C3 6412   3.796   4.477  10.574
   73SLPC    HX 6413   3.741   4.392  10.618
   73SLPC    HY 6414   3.876   4.508  10.645
   73SLPC   O31 6415   3.844   4.429  10.446
   73SLPC   C31 6416   3.936   4.508  10.381
   73SLPC   O32 6417   3.981   4.612  10.423
   73SLPC   C32 6418   3.955   4.447  10.244
   73SLPC   H2X 6419   3.882   4.364  10.233
   73SLPC   H2Y 6420   4.061   4.414  10.243
   73SLPC   C23 6421   3.400   4.748  10.203
   73SLPC   H3R 6422   3.420   4.857  10.211
   73SLPC   H3S 6423   3.290   4.738  10.192
   73SLPC   C24 6424   3.483   4.696  10.079
   73SLPC   H4R 6425   3.442   4.595  10.062
   73SLPC   H4S 6426   3.591   4.682  10.104
   73SLPC   C25 6427   3.472   4.794   9.962
   73SLPC   H5R 6428   3.502   4.894  10.001
   73SLPC   H5S 6429   3.366   4.784   9.929
   73SLPC   C26 6430   3.555   4.748   9.841
   73SLPC   H6R 6431   3.516   4.661   9.784
   73SLPC   H6S 6432   3.660   4.729   9.870
   73SLPC   C27 6433   3.550   4.867   9.738
   73SLPC   H7R 6434   3.576   4.963   9.787
   73SLPC   H7S 6435   3.441   4.871   9.716
   73SLPC   C28 6436   3.642   4.849   9.617
   73SLPC   H8R 6437   3.745   4.858   9.657
   73SLPC   H8S 6438   3.640   4.927   9.538
   73SLPC   C29 6439   3.623   4.710   9.559
   73SLPC   H9R 6440   3.699   4.640   9.596
   73SLPC  C210 6441   3.538   4.662   9.471
   73SLPC  H10R 6442   3.544   4.556   9.445
   73SLPC  C211 6443   3.422   4.736   9.400
   73SLPC  H11R 6444   3.379   4.814   9.467
   73SLPC  H11S 6445   3.350   4.662   9.360
   73SLPC  C212 6446   3.481   4.814   9.287
   73SLPC  H12R 6447   3.560   4.888   9.308
   73SLPC  C213 6448   3.429   4.811   9.161
   73SLPC  H13R 6449   3.479   4.855   9.074
   73SLPC  C214 6450   3.301   4.738   9.111
   73SLPC  H14R 6451   3.283   4.646   9.171
   73SLPC  H14S 6452   3.319   4.695   9.010
   73SLPC  C215 6453   3.171   4.821   9.113
   73SLPC  H15R 6454   3.177   4.899   9.192
   73SLPC  H15S 6455   3.081   4.759   9.132
   73SLPC  C216 6456   3.134   4.891   8.983
   73SLPC  H16R 6457   3.116   4.813   8.906
   73SLPC  H16S 6458   3.221   4.953   8.953
   73SLPC  C217 6459   3.010   4.978   9.004
   73SLPC  H17R 6460   2.991   5.024   8.904
   73SLPC  H17S 6461   3.034   5.069   9.063
   73SLPC  C218 6462   2.881   4.914   9.058
   73SLPC  H18R 6463   2.857   4.823   8.999
   73SLPC  H18S 6464   2.793   4.981   9.061
   73SLPC  H18T 6465   2.894   4.881   9.164
   73SLPC   C33 6466   3.940   4.551  10.129
   73SLPC   H3X 6467   4.009   4.633  10.157
   73SLPC   H3Y 6468   3.837   4.593  10.140
   73SLPC   C34 6469   3.957   4.491   9.986
   73SLPC   H4X 6470   3.869   4.427   9.963
   73SLPC   H4Y 6471   4.040   4.418   9.995
   73SLPC   C35 6472   3.994   4.597   9.887
   73SLPC   H5X 6473   4.103   4.614   9.900
   73SLPC   H5Y 6474   3.936   4.689   9.906
   73SLPC   C36 6475   3.963   4.567   9.739
   73SLPC   H6X 6476   3.854   4.555   9.721
   73SLPC   H6Y 6477   4.012   4.470   9.715
   73SLPC   C37 6478   4.018   4.669   9.644
   73SLPC   H7X 6479   4.122   4.696   9.673
   73SLPC   H7Y 6480   3.968   4.768   9.640
   73SLPC   C38 6481   4.029   4.622   9.499
   73SLPC   H8X 6482   3.924   4.610   9.463
   73SLPC   H8Y 6483   4.066   4.517   9.497
   73SLPC   C39 6484   4.113   4.710   9.403
   73SLPC   H9X 6485   4.220   4.680   9.409
   73SLPC   H9Y 6486   4.121   4.819   9.419
   73SLPC  C310 6487   4.061   4.687   9.260
   73SLPC  H10X 6488   4.039   4.580   9.240
   73SLPC  H10Y 6489   4.154   4.699   9.200
   73SLPC  C311 6490   3.939   4.779   9.227
   73SLPC  H11X 6491   3.971   4.883   9.253
   73SLPC  H11Y 6492   3.854   4.743   9.289
   73SLPC  C312 6493   3.897   4.769   9.083
   73SLPC  H12X 6494   3.839   4.675   9.080
   73SLPC  H12Y 6495   3.995   4.755   9.032
   73SLPC  C313 6496   3.822   4.887   9.027
   73SLPC  H13X 6497   3.857   4.983   9.072
   73SLPC  H13Y 6498   3.715   4.878   9.058
   73SLPC  C314 6499   3.852   4.900   8.879
   73SLPC  H14X 6500   3.867   4.798   8.836
   73SLPC  H14Y 6501   3.931   4.974   8.854
   73SLPC  C315 6502   3.723   4.946   8.804
   73SLPC  H15X 6503   3.749   4.992   8.706
   73SLPC  H15Y 6504   3.680   5.030   8.864
   73SLPC  C316 6505   3.617   4.836   8.793
   73SLPC  H16X 6506   3.582   4.811   8.896
   73SLPC  H16Y 6507   3.666   4.745   8.753
   73SLPC  C317 6508   3.490   4.862   8.710
   73SLPC  H17X 6509   3.458   4.968   8.722
   73SLPC  H17Y 6510   3.405   4.802   8.748
   73SLPC  C318 6511   3.510   4.828   8.560
   73SLPC  H18X 6512   3.525   4.720   8.540
   73SLPC  H18Y 6513   3.597   4.882   8.517
   73SLPC  H18Z 6514   3.420   4.850   8.498
   74SLPC     N 6515   4.553   6.185  10.684
   74SLPC   C13 6516   4.544   6.053  10.752
   74SLPC  H13A 6517   4.469   6.051  10.829
   74SLPC  H13B 6518   4.520   5.968  10.690
   74SLPC  H13C 6519   4.645   6.037  10.786
   74SLPC   C14 6520   4.600   6.292  10.779
   74SLPC  H14A 6521   4.700   6.266  10.811
   74SLPC  H14B 6522   4.597   6.389  10.731
   74SLPC  H14C 6523   4.539   6.300  10.868
   74SLPC   C15 6524   4.423   6.229  10.635
   74SLPC  H15A 6525   4.351   6.213  10.715
   74SLPC  H15B 6526   4.412   6.335  10.617
   74SLPC  H15C 6527   4.388   6.174  10.549
   74SLPC   C12 6528   4.660   6.179  10.573
   74SLPC  H12A 6529   4.633   6.090  10.517
   74SLPC  H12B 6530   4.751   6.141  10.618
   74SLPC   C11 6531   4.678   6.295  10.471
   74SLPC  H11A 6532   4.599   6.298  10.394
   74SLPC  H11B 6533   4.772   6.268  10.419
   74SLPC     P 6534   4.809   6.523  10.507
   74SLPC   O13 6535   4.767   6.660  10.540
   74SLPC   O14 6536   4.939   6.478  10.568
   74SLPC   O12 6537   4.685   6.423  10.539
   74SLPC   O11 6538   4.820   6.512  10.355
   74SLPC    C1 6539   4.738   6.586  10.268
   74SLPC    HA 6540   4.631   6.558  10.284
   74SLPC    HB 6541   4.738   6.694  10.294
   74SLPC    C2 6542   4.776   6.578  10.121
   74SLPC    HS 6543   4.759   6.477  10.079
   74SLPC   O21 6544   4.904   6.638  10.102
   74SLPC   C21 6545   5.005   6.552  10.085
   74SLPC   O22 6546   4.997   6.431  10.084
   74SLPC   C22 6547   5.137   6.629  10.076
   74SLPC   H2R 6548   5.123   6.735  10.043
   74SLPC   H2S 6549   5.194   6.618  10.170
   74SLPC    C3 6550   4.675   6.661  10.038
   74SLPC    HX 6551   4.684   6.767  10.071
   74SLPC    HY 6552   4.579   6.621  10.077
   74SLPC   O31 6553   4.696   6.652   9.896
   74SLPC   C31 6554   4.612   6.572   9.826
   74SLPC   O32 6555   4.527   6.501   9.877
   74SLPC   C32 6556   4.634   6.581   9.685
   74SLPC   H2X 6557   4.600   6.684   9.658
   74SLPC   H2Y 6558   4.577   6.493   9.650
   74SLPC   C23 6559   5.231   6.557   9.980
   74SLPC   H3R 6560   5.223   6.449  10.006
   74SLPC   H3S 6561   5.335   6.592   9.998
   74SLPC   C24 6562   5.193   6.581   9.832
   74SLPC   H4R 6563   5.240   6.679   9.809
   74SLPC   H4S 6564   5.083   6.581   9.818
   74SLPC   C25 6565   5.273   6.482   9.743
   74SLPC   H5R 6566   5.229   6.380   9.747
   74SLPC   H5S 6567   5.375   6.470   9.784
   74SLPC   C26 6568   5.281   6.532   9.603
   74SLPC   H6R 6569   5.351   6.618   9.590
   74SLPC   H6S 6570   5.181   6.572   9.575
   74SLPC   C27 6571   5.313   6.431   9.498
   74SLPC   H7R 6572   5.223   6.365   9.486
   74SLPC   H7S 6573   5.410   6.382   9.517
   74SLPC   C28 6574   5.339   6.493   9.363
   74SLPC   H8R 6575   5.415   6.574   9.372
   74SLPC   H8S 6576   5.252   6.554   9.331
   74SLPC   C29 6577   5.378   6.389   9.254
   74SLPC   H9R 6578   5.296   6.337   9.204
   74SLPC  C210 6579   5.500   6.355   9.204
   74SLPC  H10R 6580   5.509   6.272   9.133
   74SLPC  C211 6581   5.630   6.417   9.231
   74SLPC  H11R 6582   5.624   6.519   9.275
   74SLPC  H11S 6583   5.688   6.419   9.136
   74SLPC  C212 6584   5.706   6.354   9.349
   74SLPC  H12R 6585   5.679   6.395   9.447
   74SLPC  C213 6586   5.804   6.259   9.342
   74SLPC  H13R 6587   5.854   6.234   9.436
   74SLPC  C214 6588   5.859   6.191   9.220
   74SLPC  H14R 6589   5.967   6.218   9.222
   74SLPC  H14S 6590   5.817   6.221   9.121
   74SLPC  C215 6591   5.836   6.041   9.236
   74SLPC  H15R 6592   5.731   6.021   9.266
   74SLPC  H15S 6593   5.901   5.999   9.315
   74SLPC  C216 6594   5.869   5.968   9.098
   74SLPC  H16R 6595   5.975   5.987   9.069
   74SLPC  H16S 6596   5.802   5.997   9.014
   74SLPC  C217 6597   5.856   5.814   9.107
   74SLPC  H17R 6598   5.754   5.781   9.135
   74SLPC  H17S 6599   5.929   5.782   9.185
   74SLPC  C218 6600   5.883   5.743   8.971
   74SLPC  H18R 6601   5.844   5.639   8.972
   74SLPC  H18S 6602   5.992   5.735   8.948
   74SLPC  H18T 6603   5.825   5.798   8.894
   74SLPC   C33 6604   4.782   6.574   9.640
   74SLPC   H3X 6605   4.842   6.520   9.717
   74SLPC   H3Y 6606   4.812   6.680   9.641
   74SLPC   C34 6607   4.794   6.526   9.497
   74SLPC   H4X 6608   4.736   6.434   9.478
   74SLPC   H4Y 6609   4.902   6.507   9.478
   74SLPC   C35 6610   4.761   6.624   9.387
   74SLPC   H5X 6611   4.810   6.723   9.388
   74SLPC   H5Y 6612   4.654   6.647   9.403
   74SLPC   C36 6613   4.778   6.559   9.247
   74SLPC   H6X 6614   4.744   6.455   9.261
   74SLPC   H6Y 6615   4.886   6.548   9.220
   74SLPC   C37 6616   4.696   6.625   9.140
   74SLPC   H7X 6617   4.713   6.735   9.136
   74SLPC   H7Y 6618   4.586   6.611   9.152
   74SLPC   C38 6619   4.736   6.560   9.009
   74SLPC   H8X 6620   4.653   6.579   8.937
   74SLPC   H8Y 6621   4.747   6.450   9.013
   74SLPC   C39 6622   4.864   6.625   8.959
   74SLPC   H9X 6623   4.944   6.628   9.036
   74SLPC   H9Y 6624   4.839   6.731   8.940
   74SLPC  C310 6625   4.911   6.566   8.816
   74SLPC  H10X 6626   5.022   6.556   8.814
   74SLPC  H10Y 6627   4.897   6.649   8.743
   74SLPC  C311 6628   4.847   6.443   8.755
   74SLPC  H11X 6629   4.738   6.461   8.744
   74SLPC  H11Y 6630   4.858   6.350   8.814
   74SLPC  C312 6631   4.903   6.420   8.616
   74SLPC  H12X 6632   5.010   6.392   8.603
   74SLPC  H12Y 6633   4.889   6.508   8.551
   74SLPC  C313 6634   4.822   6.311   8.545
   74SLPC  H13X 6635   4.876   6.294   8.450
   74SLPC  H13Y 6636   4.723   6.357   8.520
   74SLPC  C314 6637   4.797   6.174   8.618
   74SLPC  H14X 6638   4.789   6.196   8.727
   74SLPC  H14Y 6639   4.874   6.096   8.599
   74SLPC  C315 6640   4.668   6.110   8.567
   74SLPC  H15X 6641   4.672   6.063   8.467
   74SLPC  H15Y 6642   4.592   6.190   8.557
   74SLPC  C316 6643   4.623   6.001   8.667
   74SLPC  H16X 6644   4.604   6.057   8.761
   74SLPC  H16Y 6645   4.706   5.930   8.689
   74SLPC  C317 6646   4.508   5.916   8.619
   74SLPC  H17X 6647   4.542   5.829   8.558
   74SLPC  H17Y 6648   4.456   5.983   8.548
   74SLPC  C318 6649   4.408   5.859   8.713
   74SLPC  H18X 6650   4.349   5.940   8.762
   74SLPC  H18Y 6651   4.471   5.810   8.790
   74SLPC  H18Z 6652   4.329   5.792   8.670
   75SLPC     N 6653   2.805   3.206   6.547
   75SLPC   C13 6654   2.836   3.332   6.476
   75SLPC  H13A 6655   2.792   3.333   6.377
   75SLPC  H13B 6656   2.802   3.422   6.524
   75SLPC  H13C 6657   2.942   3.340   6.456
   75SLPC   C14 6658   2.849   3.090   6.467
   75SLPC  H14A 6659   2.957   3.089   6.464
   75SLPC  H14B 6660   2.828   3.000   6.523
   75SLPC  H14C 6661   2.814   3.086   6.365
   75SLPC   C15 6662   2.661   3.199   6.570
   75SLPC  H15A 6663   2.628   3.102   6.605
   75SLPC  H15B 6664   2.617   3.278   6.630
   75SLPC  H15C 6665   2.601   3.206   6.481
   75SLPC   C12 6666   2.876   3.214   6.682
   75SLPC  H12A 6667   2.857   3.120   6.730
   75SLPC  H12B 6668   2.827   3.291   6.740
   75SLPC   C11 6669   3.031   3.238   6.688
   75SLPC  H11A 6670   3.069   3.209   6.788
   75SLPC  H11B 6671   3.032   3.349   6.677
   75SLPC     P 6672   3.151   3.025   6.604
   75SLPC   O13 6673   3.137   2.953   6.479
   75SLPC   O14 6674   3.279   3.029   6.677
   75SLPC   O12 6675   3.109   3.177   6.586
   75SLPC   O11 6676   3.043   2.978   6.705
   75SLPC    C1 6677   2.984   2.847   6.701
   75SLPC    HA 6678   2.912   2.837   6.617
   75SLPC    HB 6679   3.067   2.774   6.691
   75SLPC    C2 6680   2.911   2.825   6.832
   75SLPC    HS 6681   2.831   2.902   6.834
   75SLPC   O21 6682   3.008   2.826   6.938
   75SLPC   C21 6683   2.991   2.926   7.019
   75SLPC   O22 6684   2.894   3.005   7.017
   75SLPC   C22 6685   3.098   2.927   7.126
   75SLPC   H2R 6686   3.121   2.827   7.169
   75SLPC   H2S 6687   3.189   2.958   7.070
   75SLPC    C3 6688   2.846   2.683   6.817
   75SLPC    HX 6689   2.925   2.607   6.801
   75SLPC    HY 6690   2.786   2.684   6.723
   75SLPC   O31 6691   2.770   2.644   6.936
   75SLPC   C31 6692   2.653   2.707   6.945
   75SLPC   O32 6693   2.600   2.779   6.866
   75SLPC   C32 6694   2.588   2.653   7.073
   75SLPC   H2X 6695   2.563   2.547   7.053
   75SLPC   H2Y 6696   2.489   2.702   7.083
   75SLPC   C23 6697   3.065   3.026   7.235
   75SLPC   H3R 6698   3.024   3.118   7.190
   75SLPC   H3S 6699   3.159   3.059   7.285
   75SLPC   C24 6700   2.955   2.966   7.337
   75SLPC   H4R 6701   2.987   2.873   7.389
   75SLPC   H4S 6702   2.866   2.953   7.271
   75SLPC   C25 6703   2.928   3.074   7.454
   75SLPC   H5R 6704   2.827   3.053   7.495
   75SLPC   H5S 6705   2.914   3.169   7.399
   75SLPC   C26 6706   3.026   3.090   7.559
   75SLPC   H6R 6707   2.992   3.175   7.622
   75SLPC   H6S 6708   3.123   3.131   7.523
   75SLPC   C27 6709   3.040   2.982   7.669
   75SLPC   H7R 6710   3.121   3.019   7.736
   75SLPC   H7S 6711   3.075   2.888   7.622
   75SLPC   C28 6712   2.915   2.962   7.759
   75SLPC   H8R 6713   2.823   2.942   7.701
   75SLPC   H8S 6714   2.884   3.056   7.810
   75SLPC   C29 6715   2.930   2.858   7.864
   75SLPC   H9R 6716   2.921   2.756   7.824
   75SLPC  C210 6717   2.971   2.872   7.992
   75SLPC  H10R 6718   2.981   2.782   8.055
   75SLPC  C211 6719   3.015   2.999   8.060
   75SLPC  H11R 6720   2.962   3.012   8.157
   75SLPC  H11S 6721   2.999   3.089   7.997
   75SLPC  C212 6722   3.169   3.021   8.088
   75SLPC  H12R 6723   3.230   3.024   7.996
   75SLPC  C213 6724   3.232   3.013   8.207
   75SLPC  H13R 6725   3.341   3.015   8.202
   75SLPC  C214 6726   3.169   2.969   8.331
   75SLPC  H14R 6727   3.092   2.889   8.321
   75SLPC  H14S 6728   3.129   3.057   8.387
   75SLPC  C215 6729   3.269   2.920   8.439
   75SLPC  H15R 6730   3.212   2.907   8.533
   75SLPC  H15S 6731   3.355   2.988   8.457
   75SLPC  C216 6732   3.326   2.777   8.412
   75SLPC  H16R 6733   3.382   2.779   8.317
   75SLPC  H16S 6734   3.245   2.702   8.401
   75SLPC  C217 6735   3.422   2.729   8.525
   75SLPC  H17R 6736   3.430   2.619   8.524
   75SLPC  H17S 6737   3.367   2.752   8.618
   75SLPC  C218 6738   3.551   2.797   8.528
   75SLPC  H18R 6739   3.602   2.765   8.435
   75SLPC  H18S 6740   3.614   2.757   8.610
   75SLPC  H18T 6741   3.553   2.906   8.546
   75SLPC   C33 6742   2.671   2.684   7.191
   75SLPC   H3X 6743   2.772   2.640   7.178
   75SLPC   H3Y 6744   2.691   2.793   7.195
   75SLPC   C34 6745   2.627   2.642   7.333
   75SLPC   H4X 6746   2.648   2.533   7.337
   75SLPC   H4Y 6747   2.517   2.660   7.341
   75SLPC   C35 6748   2.705   2.721   7.442
   75SLPC   H5X 6749   2.665   2.824   7.447
   75SLPC   H5Y 6750   2.808   2.736   7.403
   75SLPC   C36 6751   2.703   2.655   7.579
   75SLPC   H6X 6752   2.809   2.666   7.609
   75SLPC   H6Y 6753   2.694   2.544   7.575
   75SLPC   C37 6754   2.596   2.705   7.677
   75SLPC   H7X 6755   2.494   2.685   7.638
   75SLPC   H7Y 6756   2.608   2.815   7.687
   75SLPC   C38 6757   2.587   2.648   7.817
   75SLPC   H8X 6758   2.681   2.666   7.873
   75SLPC   H8Y 6759   2.591   2.540   7.791
   75SLPC   C39 6760   2.463   2.700   7.887
   75SLPC   H9X 6761   2.383   2.689   7.811
   75SLPC   H9Y 6762   2.475   2.808   7.909
   75SLPC  C310 6763   2.443   2.625   8.017
   75SLPC  H10X 6764   2.542   2.632   8.069
   75SLPC  H10Y 6765   2.422   2.521   7.986
   75SLPC  C311 6766   2.333   2.687   8.097
   75SLPC  H11X 6767   2.243   2.691   8.032
   75SLPC  H11Y 6768   2.376   2.787   8.120
   75SLPC  C312 6769   2.299   2.601   8.226
   75SLPC  H12X 6770   2.247   2.512   8.184
   75SLPC  H12Y 6771   2.224   2.650   8.291
   75SLPC  C313 6772   2.418   2.569   8.318
   75SLPC  H13X 6773   2.473   2.662   8.344
   75SLPC  H13Y 6774   2.490   2.509   8.259
   75SLPC  C314 6775   2.368   2.472   8.432
   75SLPC  H14X 6776   2.297   2.400   8.386
   75SLPC  H14Y 6777   2.294   2.523   8.498
   75SLPC  C315 6778   2.489   2.407   8.509
   75SLPC  H15X 6779   2.558   2.368   8.431
   75SLPC  H15Y 6780   2.451   2.319   8.565
   75SLPC  C316 6781   2.565   2.507   8.589
   75SLPC  H16X 6782   2.501   2.547   8.671
   75SLPC  H16Y 6783   2.594   2.596   8.530
   75SLPC  C317 6784   2.703   2.464   8.640
   75SLPC  H17X 6785   2.765   2.548   8.676
   75SLPC  H17Y 6786   2.743   2.419   8.546
   75SLPC  C318 6787   2.696   2.366   8.755
   75SLPC  H18X 6788   2.626   2.282   8.736
   75SLPC  H18Y 6789   2.663   2.428   8.841
   75SLPC  H18Z 6790   2.796   2.330   8.787
   76SLPC     N 6791   5.309   1.641   6.023
   76SLPC   C13 6792   5.423   1.540   6.019
   76SLPC  H13A 6793   5.499   1.556   5.943
   76SLPC  H13B 6794   5.471   1.533   6.115
   76SLPC  H13C 6795   5.377   1.445   5.999
   76SLPC   C14 6796   5.241   1.645   5.895
   76SLPC  H14A 6797   5.309   1.670   5.815
   76SLPC  H14B 6798   5.192   1.554   5.863
   76SLPC  H14C 6799   5.162   1.719   5.894
   76SLPC   C15 6800   5.375   1.772   6.057
   76SLPC  H15A 6801   5.307   1.856   6.045
   76SLPC  H15B 6802   5.413   1.771   6.158
   76SLPC  H15C 6803   5.459   1.778   5.990
   76SLPC   C12 6804   5.199   1.608   6.122
   76SLPC  H12A 6805   5.159   1.511   6.095
   76SLPC  H12B 6806   5.124   1.683   6.102
   76SLPC   C11 6807   5.212   1.597   6.278
   76SLPC  H11A 6808   5.118   1.592   6.337
   76SLPC  H11B 6809   5.247   1.693   6.320
   76SLPC     P 6810   5.256   1.343   6.278
   76SLPC   O13 6811   5.108   1.335   6.269
   76SLPC   O14 6812   5.327   1.299   6.152
   76SLPC   O12 6813   5.298   1.489   6.317
   76SLPC   O11 6814   5.302   1.256   6.400
   76SLPC    C1 6815   5.252   1.119   6.409
   76SLPC    HA 6816   5.256   1.067   6.311
   76SLPC    HB 6817   5.322   1.059   6.470
   76SLPC    C2 6818   5.101   1.108   6.465
   76SLPC    HS 6819   5.033   1.169   6.401
   76SLPC   O21 6820   5.095   1.157   6.603
   76SLPC   C21 6821   4.975   1.212   6.635
   76SLPC   O22 6822   4.873   1.211   6.573
   76SLPC   C22 6823   4.979   1.262   6.773
   76SLPC   H2R 6824   4.909   1.202   6.835
   76SLPC   H2S 6825   5.074   1.250   6.829
   76SLPC    C3 6826   5.051   0.962   6.456
   76SLPC    HX 6827   5.137   0.895   6.477
   76SLPC    HY 6828   5.016   0.945   6.352
   76SLPC   O31 6829   4.941   0.936   6.550
   76SLPC   C31 6830   4.898   0.808   6.539
   76SLPC   O32 6831   4.959   0.730   6.464
   76SLPC   C32 6832   4.797   0.778   6.651
   76SLPC   H2X 6833   4.831   0.679   6.689
   76SLPC   H2Y 6834   4.692   0.764   6.616
   76SLPC   C23 6835   4.939   1.410   6.789
   76SLPC   H3R 6836   4.835   1.419   6.752
   76SLPC   H3S 6837   5.004   1.476   6.728
   76SLPC   C24 6838   4.953   1.465   6.927
   76SLPC   H4R 6839   4.903   1.564   6.934
   76SLPC   H4S 6840   5.062   1.485   6.933
   76SLPC   C25 6841   4.893   1.376   7.036
   76SLPC   H5R 6842   4.938   1.274   7.042
   76SLPC   H5S 6843   4.790   1.375   6.995
   76SLPC   C26 6844   4.886   1.456   7.175
   76SLPC   H6R 6845   4.835   1.553   7.160
   76SLPC   H6S 6846   4.988   1.478   7.213
   76SLPC   C27 6847   4.806   1.375   7.278
   76SLPC   H7R 6848   4.838   1.273   7.310
   76SLPC   H7S 6849   4.714   1.342   7.225
   76SLPC   C28 6850   4.768   1.456   7.406
   76SLPC   H8R 6851   4.729   1.554   7.369
   76SLPC   H8S 6852   4.680   1.406   7.451
   76SLPC   C29 6853   4.884   1.453   7.503
   76SLPC   H9R 6854   4.983   1.435   7.459
   76SLPC  C210 6855   4.877   1.444   7.637
   76SLPC  H10R 6856   4.971   1.449   7.695
   76SLPC  C211 6857   4.759   1.435   7.723
   76SLPC  H11R 6858   4.661   1.417   7.673
   76SLPC  H11S 6859   4.751   1.533   7.774
   76SLPC  C212 6860   4.770   1.338   7.836
   76SLPC  H12R 6861   4.854   1.269   7.821
   76SLPC  C213 6862   4.711   1.355   7.958
   76SLPC  H13R 6863   4.756   1.297   8.040
   76SLPC  C214 6864   4.602   1.450   7.993
   76SLPC  H14R 6865   4.523   1.388   8.042
   76SLPC  H14S 6866   4.560   1.507   7.908
   76SLPC  C215 6867   4.648   1.562   8.085
   76SLPC  H15R 6868   4.572   1.640   8.110
   76SLPC  H15S 6869   4.729   1.606   8.023
   76SLPC  C216 6870   4.707   1.515   8.213
   76SLPC  H16R 6871   4.797   1.450   8.205
   76SLPC  H16S 6872   4.627   1.459   8.265
   76SLPC  C217 6873   4.741   1.634   8.317
   76SLPC  H17R 6874   4.665   1.617   8.396
   76SLPC  H17S 6875   4.718   1.732   8.271
   76SLPC  C218 6876   4.881   1.633   8.384
   76SLPC  H18R 6877   4.894   1.731   8.435
   76SLPC  H18S 6878   4.967   1.634   8.314
   76SLPC  H18T 6879   4.896   1.539   8.442
   76SLPC   C33 6880   4.803   0.892   6.759
   76SLPC   H3X 6881   4.752   0.982   6.718
   76SLPC   H3Y 6882   4.905   0.929   6.779
   76SLPC   C34 6883   4.757   0.853   6.902
   76SLPC   H4X 6884   4.835   0.787   6.946
   76SLPC   H4Y 6885   4.662   0.797   6.889
   76SLPC   C35 6886   4.732   0.973   6.983
   76SLPC   H5X 6887   4.671   1.049   6.930
   76SLPC   H5Y 6888   4.830   1.012   7.018
   76SLPC   C36 6889   4.642   0.952   7.106
   76SLPC   H6X 6890   4.686   0.876   7.175
   76SLPC   H6Y 6891   4.553   0.903   7.062
   76SLPC   C37 6892   4.610   1.085   7.184
   76SLPC   H7X 6893   4.568   1.161   7.114
   76SLPC   H7Y 6894   4.707   1.122   7.222
   76SLPC   C38 6895   4.520   1.061   7.301
   76SLPC   H8X 6896   4.568   0.987   7.370
   76SLPC   H8Y 6897   4.428   1.019   7.255
   76SLPC   C39 6898   4.481   1.191   7.381
   76SLPC   H9X 6899   4.437   1.266   7.312
   76SLPC   H9Y 6900   4.567   1.234   7.436
   76SLPC  C310 6901   4.387   1.149   7.494
   76SLPC  H10X 6902   4.438   1.064   7.544
   76SLPC  H10Y 6903   4.293   1.123   7.441
   76SLPC  C311 6904   4.376   1.256   7.598
   76SLPC  H11X 6905   4.315   1.342   7.560
   76SLPC  H11Y 6906   4.474   1.305   7.612
   76SLPC  C312 6907   4.323   1.218   7.727
   76SLPC  H12X 6908   4.395   1.157   7.786
   76SLPC  H12Y 6909   4.230   1.157   7.726
   76SLPC  C313 6910   4.293   1.340   7.810
   76SLPC  H13X 6911   4.218   1.400   7.755
   76SLPC  H13Y 6912   4.384   1.400   7.826
   76SLPC  C314 6913   4.248   1.303   7.956
   76SLPC  H14X 6914   4.308   1.222   8.002
   76SLPC  H14Y 6915   4.145   1.266   7.936
   76SLPC  C315 6916   4.234   1.427   8.051
   76SLPC  H15X 6917   4.183   1.510   7.998
   76SLPC  H15Y 6918   4.334   1.444   8.097
   76SLPC  C316 6919   4.138   1.398   8.169
   76SLPC  H16X 6920   4.157   1.480   8.242
   76SLPC  H16Y 6921   4.183   1.308   8.217
   76SLPC  C317 6922   3.992   1.397   8.126
   76SLPC  H17X 6923   3.981   1.312   8.054
   76SLPC  H17Y 6924   3.972   1.493   8.074
   76SLPC  C318 6925   3.902   1.387   8.243
   76SLPC  H18X 6926   3.909   1.283   8.283
   76SLPC  H18Y 6927   3.795   1.399   8.217
   76SLPC  H18Z 6928   3.910   1.453   8.332
   77SLPC     N 6929   0.838   0.425   6.227
   77SLPC   C13 6930   0.736   0.351   6.134
   77SLPC  H13A 6931   0.701   0.259   6.178
   77SLPC  H13B 6932   0.654   0.420   6.123
   77SLPC  H13C 6933   0.785   0.340   6.038
   77SLPC   C14 6934   0.879   0.560   6.170
   77SLPC  H14A 6935   0.934   0.618   6.243
   77SLPC  H14B 6936   0.943   0.554   6.083
   77SLPC  H14C 6937   0.794   0.618   6.140
   77SLPC   C15 6938   0.967   0.345   6.244
   77SLPC  H15A 6939   1.019   0.366   6.337
   77SLPC  H15B 6940   0.958   0.238   6.231
   77SLPC  H15C 6941   1.037   0.384   6.172
   77SLPC   C12 6942   0.772   0.447   6.364
   77SLPC  H12A 6943   0.726   0.355   6.396
   77SLPC  H12B 6944   0.685   0.508   6.342
   77SLPC   C11 6945   0.854   0.506   6.482
   77SLPC  H11A 6946   0.931   0.430   6.509
   77SLPC  H11B 6947   0.786   0.518   6.569
   77SLPC     P 6948   1.016   0.710   6.529
   77SLPC   O13 6949   1.136   0.623   6.541
   77SLPC   O14 6950   1.037   0.849   6.484
   77SLPC   O12 6951   0.907   0.630   6.441
   77SLPC   O11 6952   0.942   0.714   6.669
   77SLPC    C1 6953   0.841   0.812   6.688
   77SLPC    HA 6954   0.869   0.907   6.639
   77SLPC    HB 6955   0.747   0.772   6.643
   77SLPC    C2 6956   0.806   0.826   6.843
   77SLPC    HS 6957   0.748   0.919   6.862
   77SLPC   O21 6958   0.929   0.826   6.915
   77SLPC   C21 6959   1.005   0.927   6.891
   77SLPC   O22 6960   0.978   1.030   6.828
   77SLPC   C22 6961   1.138   0.913   6.960
   77SLPC   H2R 6962   1.167   0.806   6.958
   77SLPC   H2S 6963   1.217   0.967   6.904
   77SLPC    C3 6964   0.733   0.708   6.893
   77SLPC    HX 6965   0.778   0.614   6.853
   77SLPC    HY 6966   0.642   0.704   6.829
   77SLPC   O31 6967   0.695   0.718   7.028
   77SLPC   C31 6968   0.702   0.616   7.108
   77SLPC   O32 6969   0.714   0.497   7.073
   77SLPC   C32 6970   0.679   0.666   7.246
   77SLPC   H2X 6971   0.606   0.750   7.245
   77SLPC   H2Y 6972   0.765   0.715   7.295
   77SLPC   C23 6973   1.142   0.958   7.110
   77SLPC   H3R 6974   1.091   1.056   7.123
   77SLPC   H3S 6975   1.248   0.968   7.141
   77SLPC   C24 6976   1.087   0.857   7.201
   77SLPC   H4R 6977   0.994   0.822   7.152
   77SLPC   H4S 6978   1.056   0.918   7.289
   77SLPC   C25 6979   1.183   0.743   7.247
   77SLPC   H5R 6980   1.262   0.788   7.312
   77SLPC   H5S 6981   1.239   0.712   7.155
   77SLPC   C26 6982   1.116   0.629   7.319
   77SLPC   H6R 6983   1.037   0.596   7.247
   77SLPC   H6S 6984   1.066   0.658   7.414
   77SLPC   C27 6985   1.208   0.511   7.341
   77SLPC   H7R 6986   1.308   0.545   7.377
   77SLPC   H7S 6987   1.226   0.463   7.242
   77SLPC   C28 6988   1.161   0.383   7.428
   77SLPC   H8R 6989   1.246   0.311   7.429
   77SLPC   H8S 6990   1.082   0.328   7.374
   77SLPC   C29 6991   1.097   0.422   7.561
   77SLPC   H9R 6992   1.034   0.512   7.555
   77SLPC  C210 6993   1.123   0.368   7.677
   77SLPC  H10R 6994   1.083   0.417   7.767
   77SLPC  C211 6995   1.233   0.266   7.705
   77SLPC  H11R 6996   1.278   0.230   7.610
   77SLPC  H11S 6997   1.199   0.170   7.749
   77SLPC  C212 6998   1.345   0.329   7.788
   77SLPC  H12R 6999   1.431   0.379   7.740
   77SLPC  C213 7000   1.364   0.321   7.920
   77SLPC  H13R 7001   1.453   0.362   7.968
   77SLPC  C214 7002   1.270   0.258   8.013
   77SLPC  H14R 7003   1.304   0.153   8.028
   77SLPC  H14S 7004   1.166   0.252   7.975
   77SLPC  C215 7005   1.288   0.315   8.156
   77SLPC  H15R 7006   1.296   0.426   8.147
   77SLPC  H15S 7007   1.386   0.287   8.200
   77SLPC  C216 7008   1.181   0.261   8.260
   77SLPC  H16R 7009   1.217   0.265   8.365
   77SLPC  H16S 7010   1.167   0.153   8.243
   77SLPC  C217 7011   1.050   0.336   8.252
   77SLPC  H17R 7012   1.006   0.349   8.151
   77SLPC  H17S 7013   1.064   0.438   8.293
   77SLPC  C218 7014   0.945   0.266   8.339
   77SLPC  H18R 7015   0.979   0.271   8.444
   77SLPC  H18S 7016   0.936   0.161   8.304
   77SLPC  H18T 7017   0.846   0.316   8.329
   77SLPC   C33 7018   0.626   0.543   7.340
   77SLPC   H3X 7019   0.551   0.486   7.280
   77SLPC   H3Y 7020   0.574   0.588   7.426
   77SLPC   C34 7021   0.749   0.464   7.388
   77SLPC   H4X 7022   0.826   0.528   7.435
   77SLPC   H4Y 7023   0.792   0.423   7.295
   77SLPC   C35 7024   0.712   0.353   7.482
   77SLPC   H5X 7025   0.610   0.318   7.454
   77SLPC   H5Y 7026   0.697   0.400   7.581
   77SLPC   C36 7027   0.802   0.228   7.482
   77SLPC   H6X 7028   0.910   0.252   7.469
   77SLPC   H6Y 7029   0.784   0.173   7.387
   77SLPC   C37 7030   0.769   0.151   7.606
   77SLPC   H7X 7031   0.664   0.117   7.597
   77SLPC   H7Y 7032   0.768   0.210   7.700
   77SLPC   C38 7033   0.865   0.031   7.623
   77SLPC   H8X 7034   0.970   0.067   7.624
   77SLPC   H8Y 7035   0.857  -0.044   7.541
   77SLPC   C39 7036   0.828  -0.034   7.754
   77SLPC   H9X 7037   0.864  -0.138   7.761
   77SLPC   H9Y 7038   0.717  -0.028   7.764
   77SLPC  C310 7039   0.890   0.024   7.885
   77SLPC  H10X 7040   0.846   0.126   7.884
   77SLPC  H10Y 7041   1.000   0.029   7.867
   77SLPC  C311 7042   0.842  -0.045   8.014
   77SLPC  H11X 7043   0.877   0.018   8.099
   77SLPC  H11Y 7044   0.887  -0.146   8.017
   77SLPC  C312 7045   0.694  -0.070   8.019
   77SLPC  H12X 7046   0.653  -0.118   7.928
   77SLPC  H12Y 7047   0.649   0.031   8.029
   77SLPC  C313 7048   0.649  -0.146   8.146
   77SLPC  H13X 7049   0.706  -0.241   8.139
   77SLPC  H13Y 7050   0.544  -0.169   8.117
   77SLPC  C314 7051   0.656  -0.066   8.274
   77SLPC  H14X 7052   0.625   0.036   8.243
   77SLPC  H14Y 7053   0.754  -0.069   8.327
   77SLPC  C315 7054   0.567  -0.124   8.382
   77SLPC  H15X 7055   0.593  -0.231   8.396
   77SLPC  H15Y 7056   0.458  -0.127   8.359
   77SLPC  C316 7057   0.578  -0.065   8.525
   77SLPC  H16X 7058   0.676  -0.019   8.550
   77SLPC  H16Y 7059   0.568  -0.155   8.589
   77SLPC  C317 7060   0.473   0.036   8.565
   77SLPC  H17X 7061   0.369  -0.002   8.562
   77SLPC  H17Y 7062   0.482   0.119   8.492
   77SLPC  C318 7063   0.488   0.101   8.709
   77SLPC  H18X 7064   0.422   0.190   8.705
   77SLPC  H18Y 7065   0.591   0.139   8.725
   77SLPC  H18Z 7066   0.458   0.034   8.792
   78SLPC     N 7067   2.412   1.672   6.034
   78SLPC   C13 7068   2.283   1.645   5.965
   78SLPC  H13A 7069   2.198   1.673   6.026
   78SLPC  H13B 7070   2.270   1.691   5.868
   78SLPC  H13C 7071   2.279   1.538   5.955
   78SLPC   C14 7072   2.418   1.582   6.150
   78SLPC  H14A 7073   2.519   1.567   6.186
   78SLPC  H14B 7074   2.358   1.614   6.234
   78SLPC  H14C 7075   2.383   1.485   6.119
   78SLPC   C15 7076   2.427   1.809   6.089
   78SLPC  H15A 7077   2.424   1.894   6.023
   78SLPC  H15B 7078   2.350   1.831   6.162
   78SLPC  H15C 7079   2.514   1.825   6.151
   78SLPC   C12 7080   2.526   1.641   5.945
   78SLPC  H12A 7081   2.523   1.704   5.857
   78SLPC  H12B 7082   2.513   1.541   5.906
   78SLPC   C11 7083   2.672   1.654   6.002
   78SLPC  H11A 7084   2.746   1.630   5.922
   78SLPC  H11B 7085   2.673   1.564   6.066
   78SLPC     P 7086   2.763   1.806   6.209
   78SLPC   O13 7087   2.860   1.919   6.198
   78SLPC   O14 7088   2.653   1.817   6.309
   78SLPC   O12 7089   2.706   1.777   6.067
   78SLPC   O11 7090   2.854   1.671   6.225
   78SLPC    C1 7091   2.824   1.572   6.323
   78SLPC    HA 7092   2.716   1.544   6.321
   78SLPC    HB 7093   2.887   1.481   6.311
   78SLPC    C2 7094   2.860   1.614   6.468
   78SLPC    HS 7095   2.804   1.706   6.495
   78SLPC   O21 7096   3.000   1.648   6.478
   78SLPC   C21 7097   3.035   1.732   6.573
   78SLPC   O22 7098   2.964   1.805   6.638
   78SLPC   C22 7099   3.185   1.720   6.608
   78SLPC   H2R 7100   3.219   1.619   6.575
   78SLPC   H2S 7101   3.235   1.798   6.548
   78SLPC    C3 7102   2.812   1.500   6.566
   78SLPC    HX 7103   2.874   1.413   6.536
   78SLPC    HY 7104   2.705   1.475   6.556
   78SLPC   O31 7105   2.848   1.541   6.701
   78SLPC   C31 7106   2.750   1.566   6.790
   78SLPC   O32 7107   2.634   1.537   6.772
   78SLPC   C32 7108   2.815   1.612   6.919
   78SLPC   H2X 7109   2.897   1.680   6.888
   78SLPC   H2Y 7110   2.870   1.522   6.954
   78SLPC   C23 7111   3.216   1.755   6.755
   78SLPC   H3R 7112   3.157   1.699   6.830
   78SLPC   H3S 7113   3.217   1.865   6.769
   78SLPC   C24 7114   3.354   1.699   6.777
   78SLPC   H4R 7115   3.429   1.752   6.715
   78SLPC   H4S 7116   3.351   1.589   6.757
   78SLPC   C25 7117   3.406   1.708   6.918
   78SLPC   H5R 7118   3.339   1.648   6.983
   78SLPC   H5S 7119   3.395   1.813   6.952
   78SLPC   C26 7120   3.557   1.668   6.928
   78SLPC   H6R 7121   3.580   1.705   7.031
   78SLPC   H6S 7122   3.614   1.718   6.847
   78SLPC   C27 7123   3.589   1.518   6.941
   78SLPC   H7R 7124   3.580   1.472   6.840
   78SLPC   H7S 7125   3.525   1.468   7.017
   78SLPC   C28 7126   3.727   1.487   6.996
   78SLPC   H8R 7127   3.724   1.379   7.023
   78SLPC   H8S 7128   3.736   1.549   7.087
   78SLPC   C29 7129   3.833   1.521   6.894
   78SLPC   H9R 7130   3.839   1.464   6.800
   78SLPC  C210 7131   3.920   1.622   6.907
   78SLPC  H10R 7132   4.004   1.614   6.836
   78SLPC  C211 7133   3.918   1.736   7.008
   78SLPC  H11R 7134   3.813   1.762   7.031
   78SLPC  H11S 7135   3.966   1.823   6.958
   78SLPC  C212 7136   3.976   1.708   7.144
   78SLPC  H12R 7137   4.023   1.611   7.163
   78SLPC  C213 7138   3.991   1.798   7.247
   78SLPC  H13R 7139   4.045   1.779   7.341
   78SLPC  C214 7140   3.938   1.942   7.259
   78SLPC  H14R 7141   3.841   1.931   7.206
   78SLPC  H14S 7142   3.999   2.011   7.197
   78SLPC  C215 7143   3.916   1.997   7.399
   78SLPC  H15R 7144   3.889   1.914   7.467
   78SLPC  H15S 7145   3.833   2.071   7.403
   78SLPC  C216 7146   4.036   2.071   7.455
   78SLPC  H16R 7147   4.026   2.173   7.413
   78SLPC  H16S 7148   4.134   2.025   7.427
   78SLPC  C217 7149   4.050   2.105   7.604
   78SLPC  H17R 7150   4.071   2.004   7.646
   78SLPC  H17S 7151   3.953   2.133   7.650
   78SLPC  C218 7152   4.173   2.189   7.638
   78SLPC  H18R 7153   4.189   2.189   7.748
   78SLPC  H18S 7154   4.160   2.299   7.629
   78SLPC  H18T 7155   4.258   2.151   7.577
   78SLPC   C33 7156   2.735   1.662   7.034
   78SLPC   H3X 7157   2.665   1.579   7.056
   78SLPC   H3Y 7158   2.670   1.746   7.002
   78SLPC   C34 7159   2.837   1.700   7.139
   78SLPC   H4X 7160   2.869   1.806   7.128
   78SLPC   H4Y 7161   2.931   1.643   7.124
   78SLPC   C35 7162   2.777   1.692   7.281
   78SLPC   H5X 7163   2.751   1.585   7.296
   78SLPC   H5Y 7164   2.678   1.741   7.273
   78SLPC   C36 7165   2.879   1.730   7.377
   78SLPC   H6X 7166   2.906   1.837   7.370
   78SLPC   H6Y 7167   2.969   1.664   7.369
   78SLPC   C37 7168   2.821   1.716   7.518
   78SLPC   H7X 7169   2.838   1.610   7.547
   78SLPC   H7Y 7170   2.712   1.737   7.524
   78SLPC   C38 7171   2.895   1.802   7.616
   78SLPC   H8X 7172   2.883   1.911   7.596
   78SLPC   H8Y 7173   3.005   1.787   7.621
   78SLPC   C39 7174   2.833   1.771   7.751
   78SLPC   H9X 7175   2.849   1.668   7.788
   78SLPC   H9Y 7176   2.725   1.782   7.725
   78SLPC  C310 7177   2.863   1.876   7.865
   78SLPC  H10X 7178   2.841   1.976   7.821
   78SLPC  H10Y 7179   2.971   1.869   7.891
   78SLPC  C311 7180   2.777   1.848   7.988
   78SLPC  H11X 7181   2.668   1.851   7.965
   78SLPC  H11Y 7182   2.792   1.929   8.063
   78SLPC  C312 7183   2.794   1.715   8.067
   78SLPC  H12X 7184   2.780   1.632   7.994
   78SLPC  H12Y 7185   2.714   1.697   8.142
   78SLPC  C313 7186   2.929   1.699   8.128
   78SLPC  H13X 7187   3.015   1.737   8.070
   78SLPC  H13Y 7188   2.946   1.590   8.138
   78SLPC  C314 7189   2.929   1.770   8.265
   78SLPC  H14X 7190   2.830   1.766   8.315
   78SLPC  H14Y 7191   2.949   1.877   8.241
   78SLPC  C315 7192   3.034   1.710   8.367
   78SLPC  H15X 7193   3.057   1.765   8.460
   78SLPC  H15Y 7194   3.131   1.706   8.315
   78SLPC  C316 7195   3.005   1.563   8.413
   78SLPC  H16X 7196   3.095   1.526   8.467
   78SLPC  H16Y 7197   2.997   1.498   8.323
   78SLPC  C317 7198   2.889   1.544   8.507
   78SLPC  H17X 7199   2.882   1.610   8.597
   78SLPC  H17Y 7200   2.918   1.445   8.547
   78SLPC  C318 7201   2.756   1.522   8.445
   78SLPC  H18X 7202   2.705   1.613   8.404
   78SLPC  H18Y 7203   2.695   1.471   8.522
   78SLPC  H18Z 7204   2.777   1.461   8.355
   79SLPC     N 7205   0.225   3.513   6.114
   79SLPC   C13 7206   0.106   3.431   6.141
   79SLPC  H13A 7207   0.139   3.372   6.225
   79SLPC  H13B 7208   0.016   3.486   6.167
   79SLPC  H13C 7209   0.084   3.362   6.061
   79SLPC   C14 7210   0.198   3.599   5.991
   79SLPC  H14A 7211   0.159   3.537   5.912
   79SLPC  H14B 7212   0.131   3.681   6.011
   79SLPC  H14C 7213   0.293   3.638   5.957
   79SLPC   C15 7214   0.335   3.412   6.090
   79SLPC  H15A 7215   0.314   3.347   6.006
   79SLPC  H15B 7216   0.425   3.464   6.061
   79SLPC  H15C 7217   0.354   3.346   6.173
   79SLPC   C12 7218   0.264   3.602   6.227
   79SLPC  H12A 7219   0.363   3.644   6.214
   79SLPC  H12B 7220   0.270   3.552   6.323
   79SLPC   C11 7221   0.176   3.728   6.245
   79SLPC  H11A 7222   0.073   3.690   6.262
   79SLPC  H11B 7223   0.180   3.785   6.150
   79SLPC     P 7224   0.341   3.894   6.343
   79SLPC   O13 7225   0.394   3.891   6.205
   79SLPC   O14 7226   0.310   4.027   6.398
   79SLPC   O12 7227   0.212   3.804   6.356
   79SLPC   O11 7228   0.442   3.824   6.443
   79SLPC    C1 7229   0.403   3.729   6.545
   79SLPC    HA 7230   0.301   3.686   6.529
   79SLPC    HB 7231   0.471   3.642   6.537
   79SLPC    C2 7232   0.412   3.788   6.683
   79SLPC    HS 7233   0.348   3.879   6.689
   79SLPC   O21 7234   0.549   3.820   6.701
   79SLPC   C21 7235   0.575   3.922   6.779
   79SLPC   O22 7236   0.500   3.983   6.853
   79SLPC   C22 7237   0.727   3.954   6.771
   79SLPC   H2R 7238   0.763   3.936   6.668
   79SLPC   H2S 7239   0.753   4.056   6.806
   79SLPC    C3 7240   0.359   3.679   6.785
   79SLPC    HX 7241   0.413   3.585   6.762
   79SLPC    HY 7242   0.253   3.653   6.765
   79SLPC   O31 7243   0.377   3.708   6.924
   79SLPC   C31 7244   0.293   3.795   6.977
   79SLPC   O32 7245   0.207   3.853   6.911
   79SLPC   C32 7246   0.313   3.804   7.131
   79SLPC   H2X 7247   0.333   3.911   7.150
   79SLPC   H2Y 7248   0.398   3.742   7.164
   79SLPC   C23 7249   0.801   3.860   6.867
   79SLPC   H3R 7250   0.911   3.880   6.860
   79SLPC   H3S 7251   0.771   3.756   6.845
   79SLPC   C24 7252   0.768   3.896   7.013
   79SLPC   H4R 7253   0.675   3.845   7.045
   79SLPC   H4S 7254   0.760   4.007   7.023
   79SLPC   C25 7255   0.879   3.857   7.116
   79SLPC   H5R 7256   0.979   3.885   7.076
   79SLPC   H5S 7257   0.883   3.746   7.121
   79SLPC   C26 7258   0.858   3.913   7.257
   79SLPC   H6R 7259   0.834   4.020   7.248
   79SLPC   H6S 7260   0.946   3.886   7.320
   79SLPC   C27 7261   0.744   3.835   7.325
   79SLPC   H7R 7262   0.748   3.727   7.301
   79SLPC   H7S 7263   0.659   3.894   7.285
   79SLPC   C28 7264   0.736   3.860   7.479
   79SLPC   H8R 7265   0.719   3.967   7.504
   79SLPC   H8S 7266   0.829   3.835   7.534
   79SLPC   C29 7267   0.635   3.764   7.534
   79SLPC   H9R 7268   0.654   3.659   7.511
   79SLPC  C210 7269   0.515   3.788   7.603
   79SLPC  H10R 7270   0.448   3.704   7.625
   79SLPC  C211 7271   0.464   3.920   7.649
   79SLPC  H11R 7272   0.368   3.945   7.598
   79SLPC  H11S 7273   0.537   4.002   7.629
   79SLPC  C212 7274   0.439   3.919   7.801
   79SLPC  H12R 7275   0.494   3.846   7.862
   79SLPC  C213 7276   0.358   4.005   7.862
   79SLPC  H13R 7277   0.351   4.002   7.972
   79SLPC  C214 7278   0.292   4.119   7.795
   79SLPC  H14R 7279   0.195   4.086   7.753
   79SLPC  H14S 7280   0.356   4.154   7.711
   79SLPC  C215 7281   0.264   4.237   7.890
   79SLPC  H15R 7282   0.186   4.299   7.842
   79SLPC  H15S 7283   0.352   4.304   7.897
   79SLPC  C216 7284   0.197   4.204   8.023
   79SLPC  H16R 7285   0.270   4.166   8.098
   79SLPC  H16S 7286   0.119   4.127   8.009
   79SLPC  C217 7287   0.162   4.340   8.087
   79SLPC  H17R 7288   0.083   4.332   8.165
   79SLPC  H17S 7289   0.114   4.405   8.011
   79SLPC  C218 7290   0.281   4.420   8.138
   79SLPC  H18R 7291   0.350   4.458   8.059
   79SLPC  H18S 7292   0.349   4.359   8.201
   79SLPC  H18T 7293   0.247   4.500   8.208
   79SLPC   C33 7294   0.192   3.771   7.211
   79SLPC   H3X 7295   0.163   3.666   7.185
   79SLPC   H3Y 7296   0.099   3.827   7.189
   79SLPC   C34 7297   0.210   3.783   7.360
   79SLPC   H4X 7298   0.254   3.883   7.382
   79SLPC   H4Y 7299   0.291   3.715   7.395
   79SLPC   C35 7300   0.078   3.760   7.435
   79SLPC   H5X 7301   0.044   3.657   7.410
   79SLPC   H5Y 7302   0.004   3.829   7.391
   79SLPC   C36 7303   0.086   3.791   7.585
   79SLPC   H6X 7304   0.131   3.890   7.603
   79SLPC   H6Y 7305   0.155   3.723   7.640
   79SLPC   C37 7306  -0.051   3.785   7.647
   79SLPC   H7X 7307  -0.101   3.688   7.623
   79SLPC   H7Y 7308  -0.105   3.868   7.597
   79SLPC   C38 7309  -0.041   3.818   7.794
   79SLPC   H8X 7310   0.010   3.914   7.818
   79SLPC   H8Y 7311   0.011   3.737   7.850
   79SLPC   C39 7312  -0.179   3.824   7.866
   79SLPC   H9X 7313  -0.228   3.725   7.850
   79SLPC   H9Y 7314  -0.251   3.891   7.814
   79SLPC  C310 7315  -0.178   3.858   8.012
   79SLPC  H10X 7316  -0.274   3.868   8.066
   79SLPC  H10Y 7317  -0.129   3.958   8.018
   79SLPC  C311 7318  -0.099   3.758   8.097
   79SLPC  H11X 7319   0.005   3.745   8.062
   79SLPC  H11Y 7320  -0.152   3.661   8.081
   79SLPC  C312 7321  -0.111   3.776   8.248
   79SLPC  H12X 7322  -0.054   3.692   8.292
   79SLPC  H12Y 7323  -0.216   3.760   8.280
   79SLPC  C313 7324  -0.069   3.916   8.299
   79SLPC  H13X 7325  -0.123   3.998   8.246
   79SLPC  H13Y 7326   0.039   3.922   8.274
   79SLPC  C314 7327  -0.090   3.927   8.451
   79SLPC  H14X 7328  -0.079   3.828   8.499
   79SLPC  H14Y 7329  -0.191   3.967   8.473
   79SLPC  C315 7330   0.011   4.023   8.516
   79SLPC  H15X 7331   0.005   4.121   8.464
   79SLPC  H15Y 7332   0.110   3.979   8.489
   79SLPC  C316 7333  -0.004   4.039   8.670
   79SLPC  H16X 7334   0.093   4.065   8.716
   79SLPC  H16Y 7335  -0.029   3.938   8.709
   79SLPC  C317 7336  -0.114   4.136   8.724
   79SLPC  H17X 7337  -0.215   4.099   8.695
   79SLPC  H17Y 7338  -0.105   4.234   8.673
   79SLPC  C318 7339  -0.113   4.161   8.874
   79SLPC  H18X 7340  -0.018   4.209   8.909
   79SLPC  H18Y 7341  -0.155   4.070   8.922
   79SLPC  H18Z 7342  -0.189   4.241   8.889
   80SLPC     N 7343   1.376   1.871   6.501
   80SLPC   C13 7344   1.369   1.827   6.362
   80SLPC  H13A 7345   1.385   1.722   6.346
   80SLPC  H13B 7346   1.280   1.862   6.311
   80SLPC  H13C 7347   1.451   1.877   6.313
   80SLPC   C14 7348   1.342   1.752   6.579
   80SLPC  H14A 7349   1.352   1.777   6.684
   80SLPC  H14B 7350   1.248   1.715   6.542
   80SLPC  H14C 7351   1.419   1.679   6.558
   80SLPC   C15 7352   1.291   1.983   6.537
   80SLPC  H15A 7353   1.326   2.072   6.487
   80SLPC  H15B 7354   1.185   1.968   6.526
   80SLPC  H15C 7355   1.300   2.008   6.642
   80SLPC   C12 7356   1.516   1.915   6.537
   80SLPC  H12A 7357   1.581   1.828   6.530
   80SLPC  H12B 7358   1.525   1.928   6.644
   80SLPC   C11 7359   1.583   2.030   6.465
   80SLPC  H11A 7360   1.673   2.061   6.522
   80SLPC  H11B 7361   1.513   2.115   6.449
   80SLPC     P 7362   1.769   1.950   6.289
   80SLPC   O13 7363   1.759   1.802   6.263
   80SLPC   O14 7364   1.807   2.027   6.169
   80SLPC   O12 7365   1.628   1.997   6.340
   80SLPC   O11 7366   1.868   1.981   6.416
   80SLPC    C1 7367   1.933   1.863   6.469
   80SLPC    HA 7368   1.945   1.772   6.408
   80SLPC    HB 7369   2.039   1.892   6.490
   80SLPC    C2 7370   1.870   1.821   6.608
   80SLPC    HS 7371   1.765   1.811   6.572
   80SLPC   O21 7372   1.891   1.925   6.705
   80SLPC   C21 7373   1.782   1.934   6.791
   80SLPC   O22 7374   1.684   1.867   6.786
   80SLPC   C22 7375   1.800   2.047   6.891
   80SLPC   H2R 7376   1.903   2.040   6.932
   80SLPC   H2S 7377   1.813   2.148   6.846
   80SLPC    C3 7378   1.919   1.680   6.647
   80SLPC    HX 7379   2.024   1.692   6.683
   80SLPC    HY 7380   1.915   1.619   6.554
   80SLPC   O31 7381   1.820   1.623   6.734
   80SLPC   C31 7382   1.854   1.625   6.862
   80SLPC   O32 7383   1.953   1.681   6.906
   80SLPC   C32 7384   1.751   1.553   6.950
   80SLPC   H2X 7385   1.748   1.443   6.931
   80SLPC   H2Y 7386   1.649   1.581   6.917
   80SLPC   C23 7387   1.695   2.047   6.998
   80SLPC   H3R 7388   1.702   1.947   7.046
   80SLPC   H3S 7389   1.593   2.063   6.958
   80SLPC   C24 7390   1.718   2.148   7.112
   80SLPC   H4R 7391   1.714   2.254   7.079
   80SLPC   H4S 7392   1.810   2.127   7.170
   80SLPC   C25 7393   1.617   2.140   7.220
   80SLPC   H5R 7394   1.510   2.160   7.194
   80SLPC   H5S 7395   1.644   2.216   7.296
   80SLPC   C26 7396   1.619   2.005   7.292
   80SLPC   H6R 7397   1.717   1.974   7.333
   80SLPC   H6S 7398   1.589   1.927   7.220
   80SLPC   C27 7399   1.528   1.988   7.415
   80SLPC   H7R 7400   1.494   1.882   7.424
   80SLPC   H7S 7401   1.435   2.045   7.396
   80SLPC   C28 7402   1.589   2.032   7.555
   80SLPC   H8R 7403   1.659   2.115   7.531
   80SLPC   H8S 7404   1.652   1.949   7.594
   80SLPC   C29 7405   1.474   2.067   7.650
   80SLPC   H9R 7406   1.381   2.113   7.613
   80SLPC  C210 7407   1.468   2.034   7.783
   80SLPC  H10R 7408   1.375   2.049   7.840
   80SLPC  C211 7409   1.570   1.960   7.866
   80SLPC  H11R 7410   1.596   2.020   7.956
   80SLPC  H11S 7411   1.669   1.957   7.816
   80SLPC  C212 7412   1.520   1.824   7.909
   80SLPC  H12R 7413   1.548   1.738   7.846
   80SLPC  C213 7414   1.458   1.793   8.026
   80SLPC  H13R 7415   1.422   1.691   8.041
   80SLPC  C214 7416   1.431   1.889   8.143
   80SLPC  H14R 7417   1.427   1.997   8.114
   80SLPC  H14S 7418   1.520   1.890   8.209
   80SLPC  C215 7419   1.296   1.870   8.210
   80SLPC  H15R 7420   1.284   1.763   8.235
   80SLPC  H15S 7421   1.219   1.893   8.133
   80SLPC  C216 7422   1.284   1.960   8.333
   80SLPC  H16R 7423   1.284   2.071   8.320
   80SLPC  H16S 7424   1.380   1.943   8.386
   80SLPC  C217 7425   1.178   1.926   8.430
   80SLPC  H17R 7426   1.077   1.944   8.387
   80SLPC  H17S 7427   1.162   2.007   8.504
   80SLPC  C218 7428   1.196   1.785   8.497
   80SLPC  H18R 7429   1.106   1.759   8.557
   80SLPC  H18S 7430   1.287   1.773   8.560
   80SLPC  H18T 7431   1.208   1.718   8.409
   80SLPC   C33 7432   1.751   1.604   7.097
   80SLPC   H3X 7433   1.770   1.713   7.086
   80SLPC   H3Y 7434   1.841   1.553   7.138
   80SLPC   C34 7435   1.631   1.565   7.181
   80SLPC   H4X 7436   1.613   1.458   7.159
   80SLPC   H4Y 7437   1.536   1.616   7.154
   80SLPC   C35 7438   1.668   1.589   7.326
   80SLPC   H5X 7439   1.718   1.688   7.341
   80SLPC   H5Y 7440   1.751   1.524   7.359
   80SLPC   C36 7441   1.554   1.565   7.424
   80SLPC   H6X 7442   1.522   1.461   7.402
   80SLPC   H6Y 7443   1.473   1.638   7.403
   80SLPC   C37 7444   1.616   1.568   7.570
   80SLPC   H7X 7445   1.627   1.674   7.600
   80SLPC   H7Y 7446   1.721   1.532   7.566
   80SLPC   C38 7447   1.536   1.499   7.675
   80SLPC   H8X 7448   1.497   1.406   7.627
   80SLPC   H8Y 7449   1.458   1.569   7.711
   80SLPC   C39 7450   1.616   1.461   7.791
   80SLPC   H9X 7451   1.660   1.550   7.841
   80SLPC   H9Y 7452   1.707   1.408   7.757
   80SLPC  C310 7453   1.540   1.383   7.898
   80SLPC  H10X 7454   1.479   1.294   7.871
   80SLPC  H10Y 7455   1.468   1.453   7.944
   80SLPC  C311 7456   1.639   1.314   8.009
   80SLPC  H11X 7457   1.676   1.398   8.072
   80SLPC  H11Y 7458   1.723   1.265   7.954
   80SLPC  C312 7459   1.560   1.223   8.102
   80SLPC  H12X 7460   1.519   1.137   8.043
   80SLPC  H12Y 7461   1.474   1.284   8.135
   80SLPC  C313 7462   1.643   1.165   8.214
   80SLPC  H13X 7463   1.702   1.248   8.258
   80SLPC  H13Y 7464   1.714   1.087   8.178
   80SLPC  C314 7465   1.566   1.095   8.325
   80SLPC  H14X 7466   1.504   1.169   8.381
   80SLPC  H14Y 7467   1.647   1.049   8.385
   80SLPC  C315 7468   1.476   0.979   8.285
   80SLPC  H15X 7469   1.385   1.021   8.238
   80SLPC  H15Y 7470   1.451   0.919   8.375
   80SLPC  C316 7471   1.548   0.888   8.197
   80SLPC  H16X 7472   1.649   0.854   8.227
   80SLPC  H16Y 7473   1.560   0.935   8.097
   80SLPC  C317 7474   1.472   0.761   8.165
   80SLPC  H17X 7475   1.367   0.792   8.146
   80SLPC  H17Y 7476   1.472   0.708   8.262
   80SLPC  C318 7477   1.530   0.666   8.060
   80SLPC  H18X 7478   1.467   0.574   8.060
   80SLPC  H18Y 7479   1.631   0.628   8.087
   80SLPC  H18Z 7480   1.537   0.705   7.957
   81SAPS     N 7481   2.509   3.295  11.250
   81SAPS   HN1 7482   2.550   3.328  11.340
   81SAPS   HN2 7483   2.550   3.214  11.200
   81SAPS   HN3 7484   2.518   3.375  11.183
   81SAPS   C12 7485   2.364   3.281  11.273
   81SAPS  H12A 7486   2.362   3.199  11.344
   81SAPS   C13 7487   2.297   3.405  11.329
   81SAPS  O13A 7488   2.368   3.511  11.349
   81SAPS  O13B 7489   2.185   3.400  11.381
   81SAPS   C11 7490   2.285   3.251  11.150
   81SAPS  H11A 7491   2.318   3.325  11.074
   81SAPS  H11B 7492   2.181   3.289  11.150
   81SAPS     P 7493   2.384   3.090  10.969
   81SAPS   O13 7494   2.511   3.165  10.995
   81SAPS   O14 7495   2.393   2.945  10.946
   81SAPS   O12 7496   2.289   3.117  11.101
   81SAPS   O11 7497   2.312   3.165  10.853
   81SAPS    C1 7498   2.176   3.131  10.830
   81SAPS    HA 7499   2.150   3.023  10.831
   81SAPS    HB 7500   2.116   3.181  10.908
   81SAPS    C2 7501   2.125   3.191  10.689
   81SAPS    HS 7502   2.016   3.169  10.692
   81SAPS   O21 7503   2.194   3.121  10.584
   81SAPS   C21 7504   2.157   3.002  10.552
   81SAPS   O22 7505   2.067   2.941  10.605
   81SAPS   C22 7506   2.239   2.949  10.440
   81SAPS   H2R 7507   2.348   2.957  10.459
   81SAPS   H2S 7508   2.217   2.844  10.411
   81SAPS    C3 7509   2.158   3.345  10.674
   81SAPS    HX 7510   2.269   3.347  10.672
   81SAPS    HY 7511   2.128   3.396  10.768
   81SAPS   O31 7512   2.099   3.411  10.561
   81SAPS   C31 7513   1.985   3.481  10.573
   81SAPS   O32 7514   1.918   3.488  10.673
   81SAPS   C32 7515   1.971   3.550  10.440
   81SAPS   H2X 7516   2.055   3.623  10.429
   81SAPS   H2Y 7517   1.878   3.610  10.447
   81SAPS   C23 7518   2.227   3.030  10.307
   81SAPS   H3R 7519   2.284   2.988  10.221
   81SAPS   H3S 7520   2.267   3.133  10.321
   81SAPS   C24 7521   2.075   3.040  10.264
   81SAPS   H4R 7522   2.069   3.125  10.193
   81SAPS   H4S 7523   2.016   3.073  10.352
   81SAPS   C25 7524   2.009   2.914  10.206
   81SAPS   H5R 7525   1.989   2.835  10.279
   81SAPS   C26 7526   1.968   2.887  10.085
   81SAPS   H6R 7527   1.918   2.794  10.053
   81SAPS   C27 7528   1.983   2.976   9.966
   81SAPS   H7R 7529   2.011   2.914   9.879
   81SAPS   H7S 7530   2.069   3.046   9.970
   81SAPS   C28 7531   1.858   3.056   9.942
   81SAPS   H8R 7532   1.852   3.147  10.004
   81SAPS   C29 7533   1.780   3.048   9.836
   81SAPS   H9R 7534   1.712   3.134   9.824
   81SAPS  C210 7535   1.767   2.950   9.720
   81SAPS  H10R 7536   1.658   2.931   9.705
   81SAPS  H10S 7537   1.824   2.855   9.727
   81SAPS  C211 7538   1.822   3.017   9.589
   81SAPS  H11R 7539   1.932   3.024   9.595
   81SAPS  C212 7540   1.759   3.049   9.472
   81SAPS  H12R 7541   1.819   3.084   9.388
   81SAPS  C213 7542   1.618   3.020   9.432
   81SAPS  H13R 7543   1.576   3.112   9.384
   81SAPS  H13S 7544   1.559   3.000   9.523
   81SAPS  C214 7545   1.594   2.898   9.351
   81SAPS  H14R 7546   1.647   2.811   9.392
   81SAPS  C215 7547   1.517   2.883   9.242
   81SAPS  H15R 7548   1.500   2.778   9.213
   81SAPS  C216 7549   1.418   2.978   9.174
   81SAPS  H16R 7550   1.438   3.072   9.230
   81SAPS  H16S 7551   1.315   2.946   9.201
   81SAPS  C217 7552   1.449   2.997   9.025
   81SAPS  H17R 7553   1.559   3.004   9.012
   81SAPS  H17S 7554   1.403   3.093   8.993
   81SAPS  C218 7555   1.412   2.889   8.918
   81SAPS  H18R 7556   1.316   2.844   8.951
   81SAPS  H18S 7557   1.501   2.822   8.917
   81SAPS  C219 7558   1.397   2.943   8.776
   81SAPS  H19R 7559   1.336   3.035   8.789
   81SAPS  H19S 7560   1.340   2.868   8.717
   81SAPS  C220 7561   1.532   2.976   8.708
   81SAPS  H20R 7562   1.600   2.889   8.690
   81SAPS  H20S 7563   1.580   3.056   8.768
   81SAPS  H20T 7564   1.498   3.012   8.609
   81SAPS   C33 7565   1.973   3.449  10.328
   81SAPS   H3X 7566   1.899   3.370  10.351
   81SAPS   H3Y 7567   2.073   3.401  10.325
   81SAPS   C34 7568   1.939   3.503  10.196
   81SAPS   H4X 7569   1.996   3.599  10.197
   81SAPS   H4Y 7570   1.830   3.511  10.173
   81SAPS   C35 7571   1.997   3.411  10.090
   81SAPS   H5X 7572   1.940   3.316  10.091
   81SAPS   H5Y 7573   2.104   3.392  10.115
   81SAPS   C36 7574   1.967   3.475   9.958
   81SAPS   H6X 7575   2.033   3.563   9.938
   81SAPS   H6Y 7576   1.866   3.521   9.964
   81SAPS   C37 7577   1.967   3.380   9.836
   81SAPS   H7X 7578   1.886   3.305   9.853
   81SAPS   H7Y 7579   2.064   3.326   9.843
   81SAPS   C38 7580   1.949   3.451   9.708
   81SAPS   H8X 7581   2.007   3.545   9.714
   81SAPS   H8Y 7582   1.842   3.482   9.696
   81SAPS   C39 7583   2.001   3.375   9.582
   81SAPS   H9X 7584   1.962   3.271   9.589
   81SAPS   H9Y 7585   2.112   3.372   9.583
   81SAPS  C310 7586   1.953   3.440   9.450
   81SAPS  H10X 7587   1.980   3.547   9.464
   81SAPS  H10Y 7588   1.842   3.430   9.454
   81SAPS  C311 7589   2.007   3.401   9.318
   81SAPS  H11X 7590   2.019   3.290   9.318
   81SAPS  H11Y 7591   2.114   3.431   9.319
   81SAPS  C312 7592   1.928   3.469   9.208
   81SAPS  H12X 7593   1.925   3.573   9.247
   81SAPS  H12Y 7594   1.827   3.424   9.204
   81SAPS  C313 7595   1.988   3.473   9.067
   81SAPS  H13X 7596   1.996   3.367   9.035
   81SAPS  H13Y 7597   2.082   3.533   9.073
   81SAPS  C314 7598   1.893   3.534   8.966
   81SAPS  H14X 7599   1.798   3.478   8.983
   81SAPS  H14Y 7600   1.930   3.507   8.865
   81SAPS  C315 7601   1.880   3.688   8.980
   81SAPS  H15X 7602   1.973   3.731   9.022
   81SAPS  H15Y 7603   1.820   3.712   9.070
   81SAPS  C316 7604   1.818   3.756   8.853
   81SAPS  H16X 7605   1.759   3.845   8.884
   81SAPS  H16Y 7606   1.732   3.700   8.811
   81SAPS  C317 7607   1.924   3.789   8.753
   81SAPS  H17X 7608   1.973   3.696   8.717
   81SAPS  H17Y 7609   1.997   3.857   8.803
   81SAPS  C318 7610   1.857   3.873   8.634
   81SAPS  H18X 7611   1.782   3.811   8.580
   81SAPS  H18Y 7612   1.926   3.911   8.556
   81SAPS  H18Z 7613   1.799   3.956   8.678
   82SAPS     N 7614   0.562   2.101  10.997
   82SAPS   HN1 7615   0.645   2.080  10.938
   82SAPS   HN2 7616   0.539   2.009  11.038
   82SAPS   HN3 7617   0.479   2.125  10.940
   82SAPS   C12 7618   0.604   2.205  11.093
   82SAPS  H12A 7619   0.527   2.219  11.167
   82SAPS   C13 7620   0.730   2.188  11.183
   82SAPS  O13A 7621   0.791   2.078  11.186
   82SAPS  O13B 7622   0.763   2.280  11.266
   82SAPS   C11 7623   0.634   2.338  11.011
   82SAPS  H11A 7624   0.738   2.327  10.973
   82SAPS  H11B 7625   0.641   2.426  11.079
   82SAPS     P 7626   0.518   2.508  10.847
   82SAPS   O13 7627   0.436   2.498  10.726
   82SAPS   O14 7628   0.473   2.606  10.954
   82SAPS   O12 7629   0.524   2.360  10.917
   82SAPS   O11 7630   0.670   2.529  10.811
   82SAPS    C1 7631   0.745   2.456  10.715
   82SAPS    HA 7632   0.834   2.417  10.770
   82SAPS    HB 7633   0.691   2.369  10.671
   82SAPS    C2 7634   0.797   2.541  10.599
   82SAPS    HS 7635   0.827   2.641  10.637
   82SAPS   O21 7636   0.697   2.537  10.487
   82SAPS   C21 7637   0.619   2.644  10.488
   82SAPS   O22 7638   0.624   2.738  10.573
   82SAPS   C22 7639   0.510   2.620  10.385
   82SAPS   H2R 7640   0.544   2.687  10.303
   82SAPS   H2S 7641   0.522   2.513  10.357
   82SAPS    C3 7642   0.921   2.477  10.549
   82SAPS    HX 7643   0.918   2.370  10.519
   82SAPS    HY 7644   0.995   2.482  10.632
   82SAPS   O31 7645   0.960   2.553  10.436
   82SAPS   C31 7646   1.061   2.499  10.366
   82SAPS   O32 7647   1.122   2.398  10.401
   82SAPS   C32 7648   1.111   2.584  10.254
   82SAPS   H2X 7649   1.218   2.614  10.266
   82SAPS   H2Y 7650   1.058   2.680  10.237
   82SAPS   C23 7651   0.360   2.638  10.436
   82SAPS   H3R 7652   0.344   2.732  10.492
   82SAPS   H3S 7653   0.344   2.556  10.510
   82SAPS   C24 7654   0.248   2.611  10.341
   82SAPS   H4R 7655   0.163   2.584  10.408
   82SAPS   H4S 7656   0.269   2.528  10.270
   82SAPS   C25 7657   0.220   2.739  10.263
   82SAPS   H5R 7658   0.183   2.824  10.322
   82SAPS   C26 7659   0.215   2.757  10.129
   82SAPS   H6R 7660   0.188   2.854  10.084
   82SAPS   C27 7661   0.246   2.649  10.027
   82SAPS   H7R 7662   0.187   2.667   9.935
   82SAPS   H7S 7663   0.213   2.547  10.057
   82SAPS   C28 7664   0.389   2.661   9.977
   82SAPS   H8R 7665   0.466   2.698  10.046
   82SAPS   C29 7666   0.446   2.594   9.872
   82SAPS   H9R 7667   0.556   2.596   9.864
   82SAPS  C210 7668   0.387   2.502   9.771
   82SAPS  H10R 7669   0.375   2.553   9.673
   82SAPS  H10S 7670   0.282   2.492   9.805
   82SAPS  C211 7671   0.459   2.371   9.760
   82SAPS  H11R 7672   0.482   2.325   9.857
   82SAPS  C212 7673   0.483   2.302   9.648
   82SAPS  H12R 7674   0.545   2.212   9.652
   82SAPS  C213 7675   0.442   2.349   9.512
   82SAPS  H13R 7676   0.480   2.453   9.504
   82SAPS  H13S 7677   0.332   2.347   9.498
   82SAPS  C214 7678   0.488   2.251   9.407
   82SAPS  H14R 7679   0.414   2.175   9.378
   82SAPS  C215 7680   0.600   2.261   9.332
   82SAPS  H15R 7681   0.613   2.186   9.252
   82SAPS  C216 7682   0.710   2.362   9.325
   82SAPS  H16R 7683   0.701   2.426   9.415
   82SAPS  H16S 7684   0.699   2.434   9.241
   82SAPS  C217 7685   0.854   2.306   9.304
   82SAPS  H17R 7686   0.908   2.382   9.243
   82SAPS  H17S 7687   0.855   2.215   9.241
   82SAPS  C218 7688   0.933   2.285   9.435
   82SAPS  H18R 7689   1.019   2.230   9.392
   82SAPS  H18S 7690   0.891   2.204   9.499
   82SAPS  C219 7691   0.951   2.405   9.528
   82SAPS  H19R 7692   0.852   2.445   9.560
   82SAPS  H19S 7693   0.995   2.498   9.485
   82SAPS  C220 7694   1.051   2.360   9.632
   82SAPS  H20R 7695   1.013   2.267   9.680
   82SAPS  H20S 7696   1.067   2.437   9.710
   82SAPS  H20T 7697   1.149   2.349   9.582
   82SAPS   C33 7698   1.092   2.490  10.134
   82SAPS   H3X 7699   1.143   2.392  10.147
   82SAPS   H3Y 7700   1.136   2.552  10.053
   82SAPS   C34 7701   0.943   2.481  10.103
   82SAPS   H4X 7702   0.887   2.468  10.199
   82SAPS   H4Y 7703   0.921   2.397  10.034
   82SAPS   C35 7704   0.868   2.604  10.033
   82SAPS   H5X 7705   0.895   2.695  10.090
   82SAPS   H5Y 7706   0.758   2.591  10.046
   82SAPS   C36 7707   0.896   2.619   9.885
   82SAPS   H6X 7708   0.840   2.540   9.830
   82SAPS   H6Y 7709   1.004   2.606   9.864
   82SAPS   C37 7710   0.854   2.747   9.813
   82SAPS   H7X 7711   0.917   2.826   9.859
   82SAPS   H7Y 7712   0.749   2.779   9.831
   82SAPS   C38 7713   0.885   2.749   9.666
   82SAPS   H8X 7714   0.827   2.668   9.616
   82SAPS   H8Y 7715   0.991   2.718   9.660
   82SAPS   C39 7716   0.868   2.880   9.589
   82SAPS   H9X 7717   0.951   2.946   9.622
   82SAPS   H9Y 7718   0.780   2.929   9.636
   82SAPS  C310 7719   0.855   2.878   9.438
   82SAPS  H10X 7720   0.846   2.985   9.408
   82SAPS  H10Y 7721   0.764   2.829   9.397
   82SAPS  C311 7722   0.977   2.814   9.370
   82SAPS  H11X 7723   1.015   2.721   9.417
   82SAPS  H11Y 7724   1.064   2.880   9.389
   82SAPS  C312 7725   0.937   2.775   9.229
   82SAPS  H12X 7726   0.902   2.869   9.181
   82SAPS  H12Y 7727   0.851   2.704   9.239
   82SAPS  C313 7728   1.044   2.725   9.137
   82SAPS  H13X 7729   1.101   2.640   9.178
   82SAPS  H13Y 7730   1.125   2.801   9.133
   82SAPS  C314 7731   1.003   2.698   8.994
   82SAPS  H14X 7732   1.091   2.715   8.928
   82SAPS  H14Y 7733   0.914   2.754   8.956
   82SAPS  C315 7734   0.946   2.559   8.989
   82SAPS  H15X 7735   0.871   2.546   9.070
   82SAPS  H15Y 7736   1.028   2.486   9.009
   82SAPS  C316 7737   0.892   2.523   8.851
   82SAPS  H16X 7738   0.984   2.500   8.793
   82SAPS  H16Y 7739   0.843   2.612   8.806
   82SAPS  C317 7740   0.807   2.396   8.854
   82SAPS  H17X 7741   0.769   2.374   8.752
   82SAPS  H17Y 7742   0.724   2.422   8.924
   82SAPS  C318 7743   0.884   2.278   8.918
   82SAPS  H18X 7744   0.829   2.182   8.909
   82SAPS  H18Y 7745   0.916   2.296   9.023
   82SAPS  H18Z 7746   0.985   2.266   8.873
   83SAPS     N 7747   2.410   3.764  11.233
   83SAPS   HN1 7748   2.389   3.667  11.263
   83SAPS   HN2 7749   2.436   3.827  11.312
   83SAPS   HN3 7750   2.323   3.803  11.190
   83SAPS   C12 7751   2.525   3.772  11.139
   83SAPS  H12A 7752   2.607   3.793  11.206
   83SAPS   C13 7753   2.568   3.639  11.061
   83SAPS  O13A 7754   2.510   3.533  11.079
   83SAPS  O13B 7755   2.660   3.650  10.979
   83SAPS   C11 7756   2.513   3.890  11.036
   83SAPS  H11A 7757   2.419   3.868  10.981
   83SAPS  H11B 7758   2.599   3.889  10.966
   83SAPS     P 7759   2.590   4.117  11.142
   83SAPS   O13 7760   2.530   4.204  11.247
   83SAPS   O14 7761   2.705   4.043  11.189
   83SAPS   O12 7762   2.482   4.020  11.094
   83SAPS   O11 7763   2.629   4.207  11.016
   83SAPS    C1 7764   2.541   4.320  10.982
   83SAPS    HA 7765   2.441   4.316  11.032
   83SAPS    HB 7766   2.590   4.410  11.023
   83SAPS    C2 7767   2.544   4.333  10.827
   83SAPS    HS 7768   2.496   4.430  10.799
   83SAPS   O21 7769   2.470   4.224  10.770
   83SAPS   C21 7770   2.343   4.221  10.796
   83SAPS   O22 7771   2.274   4.312  10.847
   83SAPS   C22 7772   2.302   4.077  10.764
   83SAPS   H2R 7773   2.364   4.034  10.682
   83SAPS   H2S 7774   2.321   4.015  10.854
   83SAPS    C3 7775   2.689   4.331  10.773
   83SAPS    HX 7776   2.746   4.240  10.802
   83SAPS    HY 7777   2.751   4.409  10.821
   83SAPS   O31 7778   2.695   4.346  10.626
   83SAPS   C31 7779   2.687   4.235  10.549
   83SAPS   O32 7780   2.675   4.122  10.585
   83SAPS   C32 7781   2.675   4.269  10.397
   83SAPS   H2X 7782   2.698   4.377  10.391
   83SAPS   H2Y 7783   2.569   4.246  10.373
   83SAPS   C23 7784   2.154   4.075  10.714
   83SAPS   H3R 7785   2.147   4.165  10.648
   83SAPS   H3S 7786   2.088   4.092  10.802
   83SAPS   C24 7787   2.120   3.946  10.636
   83SAPS   H4R 7788   2.154   3.859  10.695
   83SAPS   H4S 7789   2.186   3.957  10.547
   83SAPS   C25 7790   1.969   3.935  10.603
   83SAPS   H5R 7791   1.904   3.952  10.690
   83SAPS   C26 7792   1.910   3.926  10.481
   83SAPS   H6R 7793   1.800   3.930  10.470
   83SAPS   C27 7794   1.983   3.949  10.345
   83SAPS   H7R 7795   1.943   3.870  10.278
   83SAPS   H7S 7796   2.090   3.924  10.357
   83SAPS   C28 7797   1.963   4.076  10.270
   83SAPS   H8R 7798   1.992   4.167  10.324
   83SAPS   C29 7799   1.935   4.096  10.140
   83SAPS   H9R 7800   1.922   4.199  10.105
   83SAPS  C210 7801   1.903   3.988  10.044
   83SAPS  H10R 7802   1.818   4.020   9.980
   83SAPS  H10S 7803   1.875   3.895  10.096
   83SAPS  C211 7804   2.035   3.971   9.974
   83SAPS  H11R 7805   2.129   3.980  10.031
   83SAPS  C212 7806   2.055   3.938   9.845
   83SAPS  H12R 7807   2.161   3.916   9.823
   83SAPS  C213 7808   1.954   3.936   9.733
   83SAPS  H13R 7809   1.850   3.953   9.770
   83SAPS  H13S 7810   1.933   3.830   9.707
   83SAPS  C214 7811   1.979   4.032   9.619
   83SAPS  H14R 7812   2.000   4.135   9.650
   83SAPS  C215 7813   1.968   4.003   9.489
   83SAPS  H15R 7814   1.986   4.089   9.422
   83SAPS  C216 7815   1.933   3.870   9.422
   83SAPS  H16R 7816   1.857   3.889   9.343
   83SAPS  H16S 7817   1.883   3.800   9.492
   83SAPS  C217 7818   2.070   3.817   9.372
   83SAPS  H17R 7819   2.049   3.711   9.346
   83SAPS  H17S 7820   2.157   3.824   9.441
   83SAPS  C218 7821   2.112   3.887   9.238
   83SAPS  H18R 7822   2.153   3.986   9.265
   83SAPS  H18S 7823   2.022   3.908   9.177
   83SAPS  C219 7824   2.211   3.806   9.159
   83SAPS  H19R 7825   2.179   3.704   9.129
   83SAPS  H19S 7826   2.314   3.802   9.201
   83SAPS  C220 7827   2.247   3.865   9.026
   83SAPS  H20R 7828   2.293   3.967   9.032
   83SAPS  H20S 7829   2.152   3.886   8.973
   83SAPS  H20T 7830   2.305   3.793   8.964
   83SAPS   C33 7831   2.784   4.182  10.321
   83SAPS   H3X 7832   2.768   4.073  10.339
   83SAPS   H3Y 7833   2.884   4.195  10.365
   83SAPS   C34 7834   2.793   4.201  10.168
   83SAPS   H4X 7835   2.867   4.128  10.130
   83SAPS   H4Y 7836   2.839   4.299  10.143
   83SAPS   C35 7837   2.652   4.203  10.097
   83SAPS   H5X 7838   2.580   4.265  10.155
   83SAPS   H5Y 7839   2.609   4.103  10.115
   83SAPS   C36 7840   2.670   4.239   9.949
   83SAPS   H6X 7841   2.708   4.343   9.949
   83SAPS   H6Y 7842   2.568   4.244   9.906
   83SAPS   C37 7843   2.760   4.151   9.864
   83SAPS   H7X 7844   2.765   4.047   9.902
   83SAPS   H7Y 7845   2.863   4.194   9.868
   83SAPS   C38 7846   2.712   4.146   9.713
   83SAPS   H8X 7847   2.691   4.252   9.688
   83SAPS   H8Y 7848   2.617   4.087   9.710
   83SAPS   C39 7849   2.813   4.082   9.623
   83SAPS   H9X 7850   2.839   3.975   9.641
   83SAPS   H9Y 7851   2.905   4.144   9.630
   83SAPS  C310 7852   2.772   4.089   9.475
   83SAPS  H10X 7853   2.865   4.066   9.418
   83SAPS  H10Y 7854   2.755   4.194   9.444
   83SAPS  C311 7855   2.654   3.996   9.434
   83SAPS  H11X 7856   2.565   4.050   9.471
   83SAPS  H11Y 7857   2.668   3.901   9.491
   83SAPS  C312 7858   2.645   3.965   9.288
   83SAPS  H12X 7859   2.550   3.907   9.283
   83SAPS  H12Y 7860   2.736   3.910   9.254
   83SAPS  C313 7861   2.615   4.101   9.204
   83SAPS  H13X 7862   2.697   4.176   9.214
   83SAPS  H13Y 7863   2.523   4.144   9.249
   83SAPS  C314 7864   2.601   4.067   9.059
   83SAPS  H14X 7865   2.543   4.147   9.006
   83SAPS  H14Y 7866   2.554   3.968   9.041
   83SAPS  C315 7867   2.736   4.070   8.978
   83SAPS  H15X 7868   2.809   4.008   9.034
   83SAPS  H15Y 7869   2.781   4.171   8.979
   83SAPS  C316 7870   2.731   4.034   8.828
   83SAPS  H16X 7871   2.697   4.112   8.757
   83SAPS  H16Y 7872   2.671   3.943   8.807
   83SAPS  C317 7873   2.874   3.998   8.775
   83SAPS  H17X 7874   2.943   4.083   8.794
   83SAPS  H17Y 7875   2.869   4.012   8.665
   83SAPS  C318 7876   2.941   3.872   8.829
   83SAPS  H18X 7877   2.921   3.861   8.938
   83SAPS  H18Y 7878   3.051   3.867   8.814
   83SAPS  H18Z 7879   2.903   3.779   8.781
   84SAPS     N 7880   3.966   3.644  10.928
   84SAPS   HN1 7881   3.883   3.684  10.878
   84SAPS   HN2 7882   4.041   3.685  10.869
   84SAPS   HN3 7883   3.968   3.540  10.928
   84SAPS   C12 7884   3.979   3.719  11.060
   84SAPS  H12A 7885   3.957   3.824  11.056
   84SAPS   C13 7886   3.877   3.661  11.164
   84SAPS  O13A 7887   3.796   3.564  11.139
   84SAPS  O13B 7888   3.896   3.707  11.279
   84SAPS   C11 7889   4.120   3.704  11.115
   84SAPS  H11A 7890   4.144   3.601  11.148
   84SAPS  H11B 7891   4.127   3.780  11.196
   84SAPS     P 7892   4.352   3.748  11.026
   84SAPS   O13 7893   4.426   3.820  10.920
   84SAPS   O14 7894   4.384   3.790  11.165
   84SAPS   O12 7895   4.201   3.757  11.006
   84SAPS   O11 7896   4.371   3.596  11.018
   84SAPS    C1 7897   4.322   3.506  10.920
   84SAPS    HA 7898   4.327   3.406  10.969
   84SAPS    HB 7899   4.219   3.534  10.891
   84SAPS    C2 7900   4.393   3.495  10.781
   84SAPS    HS 7901   4.502   3.490  10.801
   84SAPS   O21 7902   4.362   3.609  10.703
   84SAPS   C21 7903   4.453   3.664  10.626
   84SAPS   O22 7904   4.562   3.611  10.598
   84SAPS   C22 7905   4.418   3.800  10.565
   84SAPS   H2R 7906   4.388   3.863  10.651
   84SAPS   H2S 7907   4.505   3.835  10.506
   84SAPS    C3 7908   4.351   3.374  10.697
   84SAPS    HX 7909   4.382   3.287  10.760
   84SAPS    HY 7910   4.408   3.361  10.603
   84SAPS   O31 7911   4.208   3.370  10.694
   84SAPS   C31 7912   4.158   3.383  10.572
   84SAPS   O32 7913   4.224   3.370  10.471
   84SAPS   C32 7914   4.010   3.434  10.573
   84SAPS   H2X 7915   3.995   3.515  10.648
   84SAPS   H2Y 7916   3.941   3.356  10.610
   84SAPS   C23 7917   4.303   3.782  10.462
   84SAPS   H3R 7918   4.253   3.880  10.446
   84SAPS   H3S 7919   4.228   3.708  10.496
   84SAPS   C24 7920   4.352   3.720  10.323
   84SAPS   H4R 7921   4.380   3.616  10.350
   84SAPS   H4S 7922   4.444   3.770  10.286
   84SAPS   C25 7923   4.251   3.714  10.209
   84SAPS   H5R 7924   4.212   3.616  10.178
   84SAPS   C26 7925   4.210   3.828  10.147
   84SAPS   H6R 7926   4.139   3.819  10.063
   84SAPS   C27 7927   4.269   3.961  10.173
   84SAPS   H7R 7928   4.356   3.967  10.105
   84SAPS   H7S 7929   4.321   3.968  10.271
   84SAPS   C28 7930   4.164   4.072  10.144
   84SAPS   H8R 7931   4.124   4.127  10.230
   84SAPS   C29 7932   4.110   4.105  10.023
   84SAPS   H9R 7933   4.034   4.184  10.020
   84SAPS  C210 7934   4.142   4.045   9.887
   84SAPS  H10R 7935   4.237   3.988   9.893
   84SAPS  H10S 7936   4.163   4.124   9.811
   84SAPS  C211 7937   4.031   3.954   9.831
   84SAPS  H11R 7938   3.981   3.897   9.910
   84SAPS  C212 7939   3.995   3.936   9.704
   84SAPS  H12R 7940   3.908   3.870   9.691
   84SAPS  C213 7941   4.051   4.009   9.584
   84SAPS  H13R 7942   4.015   3.949   9.498
   84SAPS  H13S 7943   4.162   4.018   9.591
   84SAPS  C214 7944   4.010   4.155   9.569
   84SAPS  H14R 7945   3.963   4.196   9.660
   84SAPS  C215 7946   4.025   4.232   9.461
   84SAPS  H15R 7947   3.975   4.329   9.466
   84SAPS  C216 7948   4.076   4.176   9.331
   84SAPS  H16R 7949   4.087   4.066   9.330
   84SAPS  H16S 7950   4.181   4.210   9.315
   84SAPS  C217 7951   4.011   4.238   9.208
   84SAPS  H17R 7952   4.012   4.349   9.204
   84SAPS  H17S 7953   3.908   4.208   9.180
   84SAPS  C218 7954   4.099   4.198   9.089
   84SAPS  H18R 7955   4.118   4.090   9.070
   84SAPS  H18S 7956   4.200   4.240   9.113
   84SAPS  C219 7957   4.053   4.259   8.950
   84SAPS  H19R 7958   4.137   4.235   8.882
   84SAPS  H19S 7959   4.052   4.370   8.956
   84SAPS  C220 7960   3.916   4.216   8.882
   84SAPS  H20R 7961   3.888   4.288   8.803
   84SAPS  H20S 7962   3.837   4.218   8.960
   84SAPS  H20T 7963   3.917   4.115   8.835
   84SAPS   C33 7964   3.967   3.493  10.430
   84SAPS   H3X 7965   4.038   3.567  10.389
   84SAPS   H3Y 7966   3.865   3.532  10.448
   84SAPS   C34 7967   3.958   3.386  10.322
   84SAPS   H4X 7968   3.884   3.308  10.351
   84SAPS   H4Y 7969   4.056   3.333  10.319
   84SAPS   C35 7970   3.900   3.437  10.187
   84SAPS   H5X 7971   3.952   3.535  10.174
   84SAPS   H5Y 7972   3.799   3.468  10.221
   84SAPS   C36 7973   3.912   3.341  10.073
   84SAPS   H6X 7974   3.851   3.248  10.084
   84SAPS   H6Y 7975   4.018   3.308  10.071
   84SAPS   C37 7976   3.870   3.419   9.950
   84SAPS   H7X 7977   3.933   3.509   9.935
   84SAPS   H7Y 7978   3.769   3.457   9.978
   84SAPS   C38 7979   3.876   3.333   9.821
   84SAPS   H8X 7980   3.813   3.242   9.823
   84SAPS   H8Y 7981   3.981   3.297   9.824
   84SAPS   C39 7982   3.840   3.420   9.699
   84SAPS   H9X 7983   3.906   3.509   9.699
   84SAPS   H9Y 7984   3.734   3.450   9.712
   84SAPS  C310 7985   3.858   3.340   9.568
   84SAPS  H10X 7986   3.800   3.245   9.569
   84SAPS  H10Y 7987   3.965   3.309   9.563
   84SAPS  C311 7988   3.831   3.428   9.447
   84SAPS  H11X 7989   3.914   3.502   9.441
   84SAPS  H11Y 7990   3.728   3.466   9.455
   84SAPS  C312 7991   3.842   3.350   9.314
   84SAPS  H12X 7992   3.808   3.245   9.327
   84SAPS  H12Y 7993   3.951   3.343   9.296
   84SAPS  C313 7994   3.758   3.414   9.204
   84SAPS  H13X 7995   3.798   3.377   9.107
   84SAPS  H13Y 7996   3.783   3.522   9.201
   84SAPS  C314 7997   3.610   3.384   9.194
   84SAPS  H14X 7998   3.571   3.406   9.297
   84SAPS  H14Y 7999   3.594   3.279   9.163
   84SAPS  C315 8000   3.535   3.475   9.097
   84SAPS  H15X 8001   3.587   3.473   8.999
   84SAPS  H15Y 8002   3.555   3.578   9.134
   84SAPS  C316 8003   3.390   3.437   9.085
   84SAPS  H16X 8004   3.336   3.471   9.176
   84SAPS  H16Y 8005   3.385   3.327   9.070
   84SAPS  C317 8006   3.317   3.515   8.971
   84SAPS  H17X 8007   3.331   3.454   8.879
   84SAPS  H17Y 8008   3.366   3.612   8.948
   84SAPS  C318 8009   3.174   3.541   9.009
   84SAPS  H18X 8010   3.132   3.602   8.927
   84SAPS  H18Y 8011   3.163   3.596   9.105
   84SAPS  H18Z 8012   3.120   3.446   9.031
   85SAPS     N 8013   0.835   5.690  11.326
   85SAPS   HN1 8014   0.886   5.697  11.417
   85SAPS   HN2 8015   0.884   5.754  11.261
   85SAPS   HN3 8016   0.732   5.700  11.336
   85SAPS   C12 8017   0.856   5.548  11.282
   85SAPS  H12A 8018   0.963   5.535  11.279
   85SAPS   C13 8019   0.793   5.433  11.363
   85SAPS  O13A 8020   0.739   5.465  11.472
   85SAPS  O13B 8021   0.817   5.312  11.329
   85SAPS   C11 8022   0.810   5.541  11.131
   85SAPS  H11A 8023   0.704   5.571  11.124
   85SAPS  H11B 8024   0.823   5.434  11.103
   85SAPS     P 8025   1.008   5.589  10.962
   85SAPS   O13 8026   1.086   5.710  10.918
   85SAPS   O14 8027   1.084   5.481  11.032
   85SAPS   O12 8028   0.890   5.635  11.056
   85SAPS   O11 8029   0.920   5.530  10.842
   85SAPS    C1 8030   0.880   5.591  10.728
   85SAPS    HA 8031   0.771   5.577  10.714
   85SAPS    HB 8032   0.905   5.699  10.713
   85SAPS    C2 8033   0.936   5.524  10.601
   85SAPS    HS 8034   1.044   5.549  10.588
   85SAPS   O21 8035   0.858   5.556  10.492
   85SAPS   C21 8036   0.889   5.674  10.443
   85SAPS   O22 8037   0.977   5.751  10.478
   85SAPS   C22 8038   0.799   5.703  10.327
   85SAPS   H2R 8039   0.755   5.609  10.287
   85SAPS   H2S 8040   0.720   5.768  10.371
   85SAPS    C3 8041   0.925   5.365  10.619
   85SAPS    HX 8042   0.820   5.331  10.612
   85SAPS    HY 8043   0.952   5.337  10.723
   85SAPS   O31 8044   1.002   5.305  10.517
   85SAPS   C31 8045   1.122   5.278  10.546
   85SAPS   O32 8046   1.176   5.277  10.657
   85SAPS   C32 8047   1.192   5.247  10.417
   85SAPS   H2X 8048   1.142   5.164  10.362
   85SAPS   H2Y 8049   1.300   5.223  10.432
   85SAPS   C23 8050   0.875   5.785  10.212
   85SAPS   H3R 8051   0.888   5.890  10.246
   85SAPS   H3S 8052   0.798   5.791  10.132
   85SAPS   C24 8053   1.006   5.722  10.165
   85SAPS   H4R 8054   1.060   5.697  10.259
   85SAPS   H4S 8055   1.059   5.800  10.106
   85SAPS   C25 8056   0.974   5.594  10.090
   85SAPS   H5R 8057   0.951   5.503  10.147
   85SAPS   C26 8058   0.992   5.559   9.969
   85SAPS   H6R 8059   0.971   5.455   9.942
   85SAPS   C27 8060   1.028   5.650   9.854
   85SAPS   H7R 8061   1.096   5.598   9.783
   85SAPS   H7S 8062   1.093   5.734   9.888
   85SAPS   C28 8063   0.903   5.691   9.783
   85SAPS   H8R 8064   0.836   5.752   9.845
   85SAPS   C29 8065   0.861   5.660   9.659
   85SAPS   H9R 8066   0.757   5.675   9.629
   85SAPS  C210 8067   0.956   5.592   9.556
   85SAPS  H10R 8068   0.909   5.495   9.527
   85SAPS  H10S 8069   1.059   5.577   9.594
   85SAPS  C211 8070   0.971   5.679   9.433
   85SAPS  H11R 8071   0.978   5.786   9.456
   85SAPS  C212 8072   0.969   5.638   9.307
   85SAPS  H12R 8073   0.974   5.714   9.228
   85SAPS  C213 8074   0.947   5.498   9.257
   85SAPS  H13R 8075   0.926   5.416   9.330
   85SAPS  H13S 8076   1.044   5.476   9.208
   85SAPS  C214 8077   0.844   5.499   9.151
   85SAPS  H14R 8078   0.739   5.491   9.184
   85SAPS  C215 8079   0.866   5.510   9.018
   85SAPS  H15R 8080   0.778   5.502   8.953
   85SAPS  C216 8081   0.999   5.514   8.945
   85SAPS  H16R 8082   1.064   5.436   8.991
   85SAPS  H16S 8083   1.039   5.617   8.954
   85SAPS  C217 8084   0.974   5.467   8.802
   85SAPS  H17R 8085   0.891   5.526   8.757
   85SAPS  H17S 8086   0.943   5.360   8.814
   85SAPS  C218 8087   1.092   5.490   8.713
   85SAPS  H18R 8088   1.105   5.393   8.662
   85SAPS  H18S 8089   1.193   5.500   8.757
   85SAPS  C219 8090   1.068   5.602   8.613
   85SAPS  H19R 8091   0.969   5.591   8.563
   85SAPS  H19S 8092   1.146   5.593   8.535
   85SAPS  C220 8093   1.069   5.744   8.676
   85SAPS  H20R 8094   1.034   5.822   8.605
   85SAPS  H20S 8095   1.173   5.767   8.707
   85SAPS  H20T 8096   1.000   5.741   8.763
   85SAPS   C33 8097   1.181   5.378  10.331
   85SAPS   H3X 8098   1.207   5.463  10.398
   85SAPS   H3Y 8099   1.077   5.400  10.300
   85SAPS   C34 8100   1.260   5.364  10.198
   85SAPS   H4X 8101   1.370   5.360  10.210
   85SAPS   H4Y 8102   1.248   5.456  10.137
   85SAPS   C35 8103   1.222   5.245  10.109
   85SAPS   H5X 8104   1.111   5.246  10.103
   85SAPS   H5Y 8105   1.272   5.155  10.151
   85SAPS   C36 8106   1.269   5.266   9.971
   85SAPS   H6X 8107   1.380   5.270   9.966
   85SAPS   H6Y 8108   1.231   5.356   9.918
   85SAPS   C37 8109   1.225   5.137   9.888
   85SAPS   H7X 8110   1.118   5.109   9.898
   85SAPS   H7Y 8111   1.278   5.049   9.932
   85SAPS   C38 8112   1.275   5.139   9.746
   85SAPS   H8X 8113   1.237   5.046   9.700
   85SAPS   H8Y 8114   1.386   5.147   9.740
   85SAPS   C39 8115   1.208   5.255   9.668
   85SAPS   H9X 8116   1.265   5.344   9.700
   85SAPS   H9Y 8117   1.104   5.265   9.707
   85SAPS  C310 8118   1.226   5.242   9.522
   85SAPS  H10X 8119   1.316   5.183   9.493
   85SAPS  H10Y 8120   1.249   5.341   9.477
   85SAPS  C311 8121   1.101   5.186   9.450
   85SAPS  H11X 8122   1.020   5.262   9.449
   85SAPS  H11Y 8123   1.064   5.087   9.481
   85SAPS  C312 8124   1.130   5.167   9.299
   85SAPS  H12X 8125   1.216   5.097   9.305
   85SAPS  H12Y 8126   1.175   5.264   9.269
   85SAPS  C313 8127   1.013   5.125   9.210
   85SAPS  H13X 8128   0.925   5.190   9.233
   85SAPS  H13Y 8129   0.996   5.022   9.249
   85SAPS  C314 8130   1.046   5.132   9.054
   85SAPS  H14X 8131   1.075   5.235   9.026
   85SAPS  H14Y 8132   0.947   5.113   9.008
   85SAPS  C315 8133   1.144   5.020   9.015
   85SAPS  H15X 8134   1.102   4.920   9.041
   85SAPS  H15Y 8135   1.236   5.033   9.075
   85SAPS  C316 8136   1.166   5.020   8.862
   85SAPS  H16X 8137   1.255   4.954   8.849
   85SAPS  H16Y 8138   1.198   5.122   8.832
   85SAPS  C317 8139   1.051   4.958   8.785
   85SAPS  H17X 8140   0.971   5.035   8.789
   85SAPS  H17Y 8141   1.007   4.864   8.826
   85SAPS  C318 8142   1.083   4.941   8.631
   85SAPS  H18X 8143   1.182   4.892   8.628
   85SAPS  H18Y 8144   1.096   5.034   8.573
   85SAPS  H18Z 8145   1.011   4.872   8.582
   86SAPS     N 8146   2.518   5.288  10.839
   86SAPS   HN1 8147   2.592   5.215  10.831
   86SAPS   HN2 8148   2.477   5.283  10.934
   86SAPS   HN3 8149   2.439   5.267  10.774
   86SAPS   C12 8150   2.579   5.423  10.792
   86SAPS  H12A 8151   2.580   5.407  10.685
   86SAPS   C13 8152   2.483   5.539  10.821
   86SAPS  O13A 8153   2.363   5.504  10.849
   86SAPS  O13B 8154   2.519   5.653  10.783
   86SAPS   C11 8155   2.716   5.447  10.848
   86SAPS  H11A 8156   2.691   5.458  10.956
   86SAPS  H11B 8157   2.767   5.542  10.823
   86SAPS     P 8158   2.952   5.352  10.880
   86SAPS   O13 8159   2.964   5.452  10.989
   86SAPS   O14 8160   2.991   5.220  10.933
   86SAPS   O12 8161   2.805   5.339  10.822
   86SAPS   O11 8162   3.036   5.389  10.752
   86SAPS    C1 8163   3.066   5.530  10.731
   86SAPS    HA 8164   2.981   5.598  10.750
   86SAPS    HB 8165   3.135   5.561  10.812
   86SAPS    C2 8166   3.131   5.548  10.591
   86SAPS    HS 8167   3.156   5.654  10.567
   86SAPS   O21 8168   3.047   5.486  10.498
   86SAPS   C21 8169   2.940   5.554  10.473
   86SAPS   O22 8170   2.905   5.656  10.529
   86SAPS   C22 8171   2.871   5.496  10.346
   86SAPS   H2R 8172   2.944   5.501  10.262
   86SAPS   H2S 8173   2.838   5.394  10.375
   86SAPS    C3 8174   3.281   5.490  10.589
   86SAPS    HX 8175   3.286   5.380  10.598
   86SAPS    HY 8176   3.316   5.518  10.691
   86SAPS   O31 8177   3.357   5.541  10.475
   86SAPS   C31 8178   3.351   5.452  10.373
   86SAPS   O32 8179   3.274   5.360  10.365
   86SAPS   C32 8180   3.451   5.489  10.261
   86SAPS   H2X 8181   3.553   5.471  10.302
   86SAPS   H2Y 8182   3.431   5.596  10.243
   86SAPS   C23 8183   2.754   5.576  10.287
   86SAPS   H3R 8184   2.754   5.565  10.177
   86SAPS   H3S 8185   2.771   5.685  10.298
   86SAPS   C24 8186   2.615   5.569  10.360
   86SAPS   H4R 8187   2.558   5.650  10.311
   86SAPS   H4S 8188   2.616   5.603  10.466
   86SAPS   C25 8189   2.557   5.431  10.351
   86SAPS   H5R 8190   2.583   5.379  10.445
   86SAPS   C26 8191   2.483   5.373  10.258
   86SAPS   H6R 8192   2.456   5.266  10.258
   86SAPS   C27 8193   2.440   5.438  10.131
   86SAPS   H7R 8194   2.530   5.426  10.067
   86SAPS   H7S 8195   2.433   5.548  10.137
   86SAPS   C28 8196   2.309   5.384  10.071
   86SAPS   H8R 8197   2.223   5.447  10.099
   86SAPS   C29 8198   2.285   5.269  10.004
   86SAPS   H9R 8199   2.183   5.243   9.971
   86SAPS  C210 8200   2.381   5.156   9.974
   86SAPS  H10R 8201   2.344   5.070  10.034
   86SAPS  H10S 8202   2.478   5.178  10.024
   86SAPS  C211 8203   2.386   5.122   9.828
   86SAPS  H11R 8204   2.287   5.122   9.779
   86SAPS  C212 8205   2.498   5.124   9.751
   86SAPS  H12R 8206   2.485   5.117   9.642
   86SAPS  C213 8207   2.637   5.150   9.799
   86SAPS  H13R 8208   2.713   5.111   9.728
   86SAPS  H13S 8209   2.648   5.084   9.888
   86SAPS  C214 8210   2.669   5.285   9.849
   86SAPS  H14R 8211   2.589   5.361   9.837
   86SAPS  C215 8212   2.792   5.332   9.871
   86SAPS  H15R 8213   2.803   5.429   9.922
   86SAPS  C216 8214   2.919   5.252   9.858
   86SAPS  H16R 8215   2.984   5.293   9.778
   86SAPS  H16S 8216   2.895   5.152   9.818
   86SAPS  C217 8217   2.992   5.223   9.992
   86SAPS  H17R 8218   3.017   5.312  10.055
   86SAPS  H17S 8219   3.084   5.166   9.967
   86SAPS  C218 8220   2.908   5.127  10.074
   86SAPS  H18R 8221   2.885   5.030  10.025
   86SAPS  H18S 8222   2.812   5.180  10.092
   86SAPS  C219 8223   2.977   5.101  10.212
   86SAPS  H19R 8224   2.905   5.033  10.262
   86SAPS  H19S 8225   2.977   5.194  10.272
   86SAPS  C220 8226   3.122   5.035  10.218
   86SAPS  H20R 8227   3.191   5.120  10.200
   86SAPS  H20S 8228   3.136   4.943  10.157
   86SAPS  H20T 8229   3.134   5.002  10.323
   86SAPS   C33 8230   3.425   5.429  10.123
   86SAPS   H3X 8231   3.480   5.479  10.041
   86SAPS   H3Y 8232   3.316   5.428  10.103
   86SAPS   C34 8233   3.460   5.279  10.132
   86SAPS   H4X 8234   3.412   5.224  10.215
   86SAPS   H4Y 8235   3.569   5.281  10.155
   86SAPS   C35 8236   3.415   5.199  10.004
   86SAPS   H5X 8237   3.305   5.210   9.995
   86SAPS   H5Y 8238   3.439   5.094  10.032
   86SAPS   C36 8239   3.471   5.238   9.873
   86SAPS   H6X 8240   3.570   5.192   9.856
   86SAPS   H6Y 8241   3.470   5.349   9.864
   86SAPS   C37 8242   3.384   5.185   9.757
   86SAPS   H7X 8243   3.284   5.233   9.750
   86SAPS   H7Y 8244   3.367   5.075   9.764
   86SAPS   C38 8245   3.472   5.202   9.631
   86SAPS   H8X 8246   3.566   5.142   9.632
   86SAPS   H8Y 8247   3.503   5.308   9.633
   86SAPS   C39 8248   3.391   5.201   9.501
   86SAPS   H9X 8249   3.310   5.277   9.501
   86SAPS   H9Y 8250   3.357   5.095   9.497
   86SAPS  C310 8251   3.479   5.223   9.369
   86SAPS  H10X 8252   3.570   5.160   9.365
   86SAPS  H10Y 8253   3.511   5.329   9.379
   86SAPS  C311 8254   3.404   5.199   9.237
   86SAPS  H11X 8255   3.335   5.286   9.230
   86SAPS  H11Y 8256   3.347   5.105   9.223
   86SAPS  C312 8257   3.502   5.195   9.119
   86SAPS  H12X 8258   3.579   5.118   9.140
   86SAPS  H12Y 8259   3.545   5.298   9.119
   86SAPS  C313 8260   3.441   5.163   8.985
   86SAPS  H13X 8261   3.388   5.067   9.004
   86SAPS  H13Y 8262   3.534   5.150   8.925
   86SAPS  C314 8263   3.358   5.279   8.928
   86SAPS  H14X 8264   3.419   5.370   8.909
   86SAPS  H14Y 8265   3.273   5.296   8.998
   86SAPS  C315 8266   3.295   5.248   8.790
   86SAPS  H15X 8267   3.260   5.143   8.799
   86SAPS  H15Y 8268   3.380   5.244   8.718
   86SAPS  C316 8269   3.183   5.346   8.750
   86SAPS  H16X 8270   3.124   5.374   8.840
   86SAPS  H16Y 8271   3.111   5.286   8.690
   86SAPS  C317 8272   3.232   5.464   8.673
   86SAPS  H17X 8273   3.290   5.429   8.585
   86SAPS  H17Y 8274   3.282   5.544   8.731
   86SAPS  C318 8275   3.108   5.532   8.610
   86SAPS  H18X 8276   3.045   5.462   8.552
   86SAPS  H18Y 8277   3.142   5.617   8.548
   86SAPS  H18Z 8278   3.046   5.565   8.696
   87SAPS     N 8279   3.767   6.344  10.999
   87SAPS   HN1 8280   3.825   6.368  11.082
   87SAPS   HN2 8281   3.729   6.250  11.023
   87SAPS   HN3 8282   3.821   6.353  10.911
   87SAPS   C12 8283   3.654   6.440  11.000
   87SAPS  H12A 8284   3.591   6.419  11.085
   87SAPS   C13 8285   3.691   6.591  11.019
   87SAPS  O13A 8286   3.813   6.627  11.035
   87SAPS  O13B 8287   3.601   6.673  10.987
   87SAPS   C11 8288   3.572   6.423  10.873
   87SAPS  H11A 8289   3.627   6.468  10.788
   87SAPS  H11B 8290   3.478   6.481  10.883
   87SAPS     P 8291   3.413   6.208  10.923
   87SAPS   O13 8292   3.410   6.064  10.877
   87SAPS   O14 8293   3.420   6.229  11.067
   87SAPS   O12 8294   3.547   6.281  10.853
   87SAPS   O11 8295   3.278   6.277  10.872
   87SAPS    C1 8296   3.265   6.373  10.769
   87SAPS    HA 8297   3.262   6.475  10.812
   87SAPS    HB 8298   3.360   6.381  10.713
   87SAPS    C2 8299   3.143   6.340  10.679
   87SAPS    HS 8300   3.056   6.326  10.747
   87SAPS   O21 8301   3.164   6.216  10.608
   87SAPS   C21 8302   3.051   6.142  10.578
   87SAPS   O22 8303   2.942   6.171  10.623
   87SAPS   C22 8304   3.081   6.014  10.503
   87SAPS   H2R 8305   3.184   5.978  10.524
   87SAPS   H2S 8306   3.008   5.958  10.565
   87SAPS    C3 8307   3.093   6.448  10.576
   87SAPS    HX 8308   3.050   6.535  10.630
   87SAPS    HY 8309   3.007   6.408  10.519
   87SAPS   O31 8310   3.206   6.488  10.501
   87SAPS   C31 8311   3.175   6.554  10.392
   87SAPS   O32 8312   3.061   6.563  10.346
   87SAPS   C32 8313   3.305   6.613  10.337
   87SAPS   H2X 8314   3.379   6.530  10.329
   87SAPS   H2Y 8315   3.334   6.681  10.420
   87SAPS   C23 8316   3.034   6.023  10.357
   87SAPS   H3R 8317   3.092   6.102  10.304
   87SAPS   H3S 8318   2.927   6.052  10.359
   87SAPS   C24 8319   3.032   5.888  10.279
   87SAPS   H4R 8320   2.960   5.892  10.195
   87SAPS   H4S 8321   2.991   5.808  10.345
   87SAPS   C25 8322   3.170   5.842  10.237
   87SAPS   H5R 8323   3.240   5.836  10.321
   87SAPS   C26 8324   3.207   5.774  10.129
   87SAPS   H6R 8325   3.313   5.752  10.116
   87SAPS   C27 8326   3.104   5.733  10.024
   87SAPS   H7R 8327   3.094   5.805   9.940
   87SAPS   H7S 8328   3.000   5.740  10.062
   87SAPS   C28 8329   3.120   5.584   9.979
   87SAPS   H8R 8330   3.092   5.506  10.051
   87SAPS   C29 8331   3.177   5.548   9.859
   87SAPS   H9R 8332   3.182   5.440   9.838
   87SAPS  C210 8333   3.220   5.646   9.751
   87SAPS  H10R 8334   3.292   5.719   9.792
   87SAPS  H10S 8335   3.128   5.703   9.724
   87SAPS  C211 8336   3.246   5.573   9.622
   87SAPS  H11R 8337   3.157   5.530   9.574
   87SAPS  C212 8338   3.363   5.557   9.552
   87SAPS  H12R 8339   3.364   5.501   9.458
   87SAPS  C213 8340   3.501   5.606   9.588
   87SAPS  H13R 8341   3.515   5.576   9.694
   87SAPS  H13S 8342   3.495   5.717   9.589
   87SAPS  C214 8343   3.613   5.561   9.504
   87SAPS  H14R 8344   3.648   5.462   9.538
   87SAPS  C215 8345   3.664   5.623   9.394
   87SAPS  H15R 8346   3.762   5.585   9.363
   87SAPS  C216 8347   3.623   5.758   9.342
   87SAPS  H16R 8348   3.706   5.813   9.293
   87SAPS  H16S 8349   3.572   5.819   9.419
   87SAPS  C217 8350   3.529   5.738   9.216
   87SAPS  H17R 8351   3.496   5.834   9.171
   87SAPS  H17S 8352   3.432   5.693   9.245
   87SAPS  C218 8353   3.593   5.650   9.099
   87SAPS  H18R 8354   3.603   5.545   9.134
   87SAPS  H18S 8355   3.691   5.692   9.068
   87SAPS  C219 8356   3.501   5.661   8.975
   87SAPS  H19R 8357   3.455   5.762   8.965
   87SAPS  H19S 8358   3.419   5.586   8.978
   87SAPS  C220 8359   3.587   5.631   8.854
   87SAPS  H20R 8360   3.650   5.540   8.860
   87SAPS  H20S 8361   3.659   5.711   8.828
   87SAPS  H20T 8362   3.514   5.625   8.769
   87SAPS   C33 8363   3.283   6.695  10.200
   87SAPS   H3X 8364   3.373   6.760  10.191
   87SAPS   H3Y 8365   3.194   6.759  10.217
   87SAPS   C34 8366   3.271   6.608  10.077
   87SAPS   H4X 8367   3.177   6.549  10.081
   87SAPS   H4Y 8368   3.351   6.532  10.064
   87SAPS   C35 8369   3.279   6.697   9.951
   87SAPS   H5X 8370   3.365   6.767   9.955
   87SAPS   H5Y 8371   3.189   6.762   9.951
   87SAPS   C36 8372   3.288   6.613   9.825
   87SAPS   H6X 8373   3.200   6.545   9.837
   87SAPS   H6Y 8374   3.379   6.552   9.807
   87SAPS   C37 8375   3.276   6.711   9.709
   87SAPS   H7X 8376   3.357   6.785   9.726
   87SAPS   H7Y 8377   3.181   6.768   9.718
   87SAPS   C38 8378   3.285   6.657   9.562
   87SAPS   H8X 8379   3.204   6.583   9.543
   87SAPS   H8Y 8380   3.384   6.610   9.550
   87SAPS   C39 8381   3.269   6.763   9.450
   87SAPS   H9X 8382   3.353   6.837   9.447
   87SAPS   H9Y 8383   3.173   6.818   9.460
   87SAPS  C310 8384   3.252   6.699   9.309
   87SAPS  H10X 8385   3.167   6.629   9.320
   87SAPS  H10Y 8386   3.339   6.638   9.277
   87SAPS  C311 8387   3.220   6.806   9.207
   87SAPS  H11X 8388   3.302   6.880   9.198
   87SAPS  H11Y 8389   3.127   6.855   9.240
   87SAPS  C312 8390   3.187   6.750   9.068
   87SAPS  H12X 8391   3.138   6.823   9.000
   87SAPS  H12Y 8392   3.115   6.667   9.083
   87SAPS  C313 8393   3.309   6.704   8.978
   87SAPS  H13X 8394   3.361   6.624   9.034
   87SAPS  H13Y 8395   3.374   6.788   8.947
   87SAPS  C314 8396   3.253   6.637   8.851
   87SAPS  H14X 8397   3.221   6.712   8.776
   87SAPS  H14Y 8398   3.157   6.588   8.877
   87SAPS  C315 8399   3.355   6.539   8.790
   87SAPS  H15X 8400   3.359   6.452   8.859
   87SAPS  H15Y 8401   3.454   6.587   8.776
   87SAPS  C316 8402   3.310   6.480   8.651
   87SAPS  H16X 8403   3.311   6.566   8.580
   87SAPS  H16Y 8404   3.206   6.443   8.659
   87SAPS  C317 8405   3.383   6.354   8.600
   87SAPS  H17X 8406   3.355   6.267   8.663
   87SAPS  H17Y 8407   3.489   6.382   8.615
   87SAPS  C318 8408   3.349   6.331   8.449
   87SAPS  H18X 8409   3.248   6.286   8.434
   87SAPS  H18Y 8410   3.421   6.258   8.408
   87SAPS  H18Z 8411   3.366   6.424   8.392
   88SAPS     N 8412   5.403   4.955  10.783
   88SAPS   HN1 8413   5.456   5.023  10.724
   88SAPS   HN2 8414   5.391   4.868  10.727
   88SAPS   HN3 8415   5.306   4.990  10.791
   88SAPS   C12 8416   5.445   4.918  10.926
   88SAPS  H12A 8417   5.551   4.937  10.937
   88SAPS   C13 8418   5.375   5.017  11.028
   88SAPS  O13A 8419   5.306   5.112  10.990
   88SAPS  O13B 8420   5.414   5.006  11.144
   88SAPS   C11 8421   5.399   4.775  10.949
   88SAPS  H11A 8422   5.289   4.763  10.960
   88SAPS  H11B 8423   5.437   4.750  11.051
   88SAPS     P 8424   5.503   4.544  10.883
   88SAPS   O13 8425   5.483   4.513  11.024
   88SAPS   O14 8426   5.468   4.432  10.794
   88SAPS   O12 8427   5.433   4.673  10.846
   88SAPS   O11 8428   5.658   4.574  10.868
   88SAPS    C1 8429   5.699   4.660  10.762
   88SAPS    HA 8430   5.618   4.709  10.704
   88SAPS    HB 8431   5.756   4.748  10.798
   88SAPS    C2 8432   5.804   4.593  10.667
   88SAPS    HS 8433   5.820   4.674  10.593
   88SAPS   O21 8434   5.759   4.476  10.591
   88SAPS   C21 8435   5.660   4.492  10.511
   88SAPS   O22 8436   5.604   4.602  10.490
   88SAPS   C22 8437   5.615   4.369  10.444
   88SAPS   H2R 8438   5.667   4.286  10.496
   88SAPS   H2S 8439   5.510   4.352  10.473
   88SAPS    C3 8440   5.946   4.567  10.729
   88SAPS    HX 8441   5.918   4.481  10.794
   88SAPS    HY 8442   5.979   4.651  10.794
   88SAPS   O31 8443   6.044   4.538  10.631
   88SAPS   C31 8444   6.163   4.498  10.680
   88SAPS   O32 8445   6.191   4.483  10.795
   88SAPS   C32 8446   6.254   4.476  10.558
   88SAPS   H2X 8447   6.354   4.462  10.603
   88SAPS   H2Y 8448   6.250   4.568  10.496
   88SAPS   C23 8449   5.627   4.372  10.290
   88SAPS   H3R 8450   5.590   4.270  10.263
   88SAPS   H3S 8451   5.734   4.384  10.262
   88SAPS   C24 8452   5.538   4.470  10.210
   88SAPS   H4R 8453   5.575   4.474  10.105
   88SAPS   H4S 8454   5.565   4.570  10.248
   88SAPS   C25 8455   5.393   4.450  10.217
   88SAPS   H5R 8456   5.351   4.455  10.319
   88SAPS   C26 8457   5.319   4.437  10.104
   88SAPS   H6R 8458   5.210   4.447  10.115
   88SAPS   C27 8459   5.370   4.423   9.962
   88SAPS   H7R 8460   5.448   4.344   9.964
   88SAPS   H7S 8461   5.435   4.512   9.949
   88SAPS   C28 8462   5.272   4.416   9.845
   88SAPS   H8R 8463   5.163   4.419   9.862
   88SAPS   C29 8464   5.303   4.381   9.721
   88SAPS   H9R 8465   5.229   4.403   9.642
   88SAPS  C210 8466   5.445   4.357   9.680
   88SAPS  H10R 8467   5.448   4.269   9.612
   88SAPS  H10S 8468   5.511   4.320   9.761
   88SAPS  C211 8469   5.507   4.477   9.612
   88SAPS  H11R 8470   5.531   4.570   9.665
   88SAPS  C212 8471   5.514   4.484   9.481
   88SAPS  H12R 8472   5.566   4.569   9.435
   88SAPS  C213 8473   5.443   4.389   9.388
   88SAPS  H13R 8474   5.371   4.320   9.437
   88SAPS  H13S 8475   5.531   4.327   9.363
   88SAPS  C214 8476   5.405   4.436   9.250
   88SAPS  H14R 8477   5.453   4.529   9.216
   88SAPS  C215 8478   5.332   4.367   9.162
   88SAPS  H15R 8479   5.316   4.412   9.063
   88SAPS  C216 8480   5.281   4.225   9.192
   88SAPS  H16R 8481   5.323   4.169   9.278
   88SAPS  H16S 8482   5.308   4.163   9.104
   88SAPS  C217 8483   5.127   4.234   9.211
   88SAPS  H17R 8484   5.102   4.318   9.278
   88SAPS  H17S 8485   5.100   4.140   9.264
   88SAPS  C218 8486   5.067   4.240   9.066
   88SAPS  H18R 8487   5.103   4.149   9.014
   88SAPS  H18S 8488   5.114   4.321   9.007
   88SAPS  C219 8489   4.909   4.243   9.061
   88SAPS  H19R 8490   4.874   4.162   9.129
   88SAPS  H19S 8491   4.877   4.214   8.959
   88SAPS  C220 8492   4.843   4.379   9.085
   88SAPS  H20R 8493   4.876   4.426   9.180
   88SAPS  H20S 8494   4.732   4.370   9.081
   88SAPS  H20T 8495   4.851   4.438   8.992
   88SAPS   C33 8496   6.203   4.364  10.471
   88SAPS   H3X 8497   6.113   4.376  10.407
   88SAPS   H3Y 8498   6.171   4.279  10.536
   88SAPS   C34 8499   6.305   4.298  10.379
   88SAPS   H4X 8500   6.379   4.253  10.448
   88SAPS   H4Y 8501   6.359   4.388  10.344
   88SAPS   C35 8502   6.240   4.209  10.270
   88SAPS   H5X 8503   6.182   4.271  10.198
   88SAPS   H5Y 8504   6.178   4.126  10.309
   88SAPS   C36 8505   6.350   4.132  10.185
   88SAPS   H6X 8506   6.434   4.100  10.251
   88SAPS   H6Y 8507   6.412   4.198  10.121
   88SAPS   C37 8508   6.293   4.019  10.105
   88SAPS   H7X 8509   6.206   3.972  10.156
   88SAPS   H7Y 8510   6.376   3.952  10.075
   88SAPS   C38 8511   6.237   4.064   9.968
   88SAPS   H8X 8512   6.316   4.124   9.918
   88SAPS   H8Y 8513   6.150   4.133   9.977
   88SAPS   C39 8514   6.199   3.943   9.879
   88SAPS   H9X 8515   6.103   3.903   9.919
   88SAPS   H9Y 8516   6.270   3.858   9.892
   88SAPS  C310 8517   6.180   3.982   9.726
   88SAPS  H10X 8518   6.286   4.003   9.700
   88SAPS  H10Y 8519   6.113   4.071   9.722
   88SAPS  C311 8520   6.127   3.860   9.647
   88SAPS  H11X 8521   6.023   3.836   9.676
   88SAPS  H11Y 8522   6.185   3.768   9.672
   88SAPS  C312 8523   6.123   3.892   9.495
   88SAPS  H12X 8524   6.226   3.894   9.453
   88SAPS  H12Y 8525   6.082   3.990   9.463
   88SAPS  C313 8526   6.047   3.778   9.411
   88SAPS  H13X 8527   5.939   3.780   9.434
   88SAPS  H13Y 8528   6.086   3.675   9.426
   88SAPS  C314 8529   6.065   3.809   9.257
   88SAPS  H14X 8530   6.174   3.807   9.240
   88SAPS  H14Y 8531   6.025   3.910   9.233
   88SAPS  C315 8532   5.995   3.705   9.169
   88SAPS  H15X 8533   5.891   3.712   9.207
   88SAPS  H15Y 8534   6.032   3.601   9.184
   88SAPS  C316 8535   6.005   3.748   9.024
   88SAPS  H16X 8536   6.112   3.760   8.995
   88SAPS  H16Y 8537   5.969   3.850   8.999
   88SAPS  C317 8538   5.937   3.652   8.922
   88SAPS  H17X 8539   5.953   3.547   8.952
   88SAPS  H17Y 8540   5.984   3.676   8.824
   88SAPS  C318 8541   5.793   3.674   8.912
   88SAPS  H18X 8542   5.772   3.783   8.910
   88SAPS  H18Y 8543   5.736   3.646   9.003
   88SAPS  H18Z 8544   5.749   3.608   8.834
   89SAPS     N 8545   5.074   0.245  10.731
   89SAPS   HN1 8546   5.073   0.320  10.658
   89SAPS   HN2 8547   5.137   0.173  10.691
   89SAPS   HN3 8548   4.981   0.198  10.736
   89SAPS   C12 8549   5.129   0.288  10.863
   89SAPS  H12A 8550   5.050   0.326  10.925
   89SAPS   C13 8551   5.192   0.169  10.945
   89SAPS  O13A 8552   5.165   0.053  10.913
   89SAPS  O13B 8553   5.209   0.196  11.071
   89SAPS   C11 8554   5.247   0.388  10.847
   89SAPS  H11A 8555   5.347   0.341  10.838
   89SAPS  H11B 8556   5.247   0.448  10.940
   89SAPS     P 8557   5.336   0.563  10.662
   89SAPS   O13 8558   5.265   0.678  10.603
   89SAPS   O14 8559   5.439   0.600  10.763
   89SAPS   O12 8560   5.219   0.476  10.731
   89SAPS   O11 8561   5.412   0.477  10.554
   89SAPS    C1 8562   5.345   0.392  10.465
   89SAPS    HA 8563   5.413   0.312  10.429
   89SAPS    HB 8564   5.257   0.336  10.504
   89SAPS    C2 8565   5.294   0.471  10.335
   89SAPS    HS 8566   5.205   0.532  10.361
   89SAPS   O21 8567   5.269   0.378  10.233
   89SAPS   C21 8568   5.169   0.417  10.142
   89SAPS   O22 8569   5.113   0.527  10.136
   89SAPS   C22 8570   5.164   0.297  10.042
   89SAPS   H2R 8571   5.263   0.251  10.024
   89SAPS   H2S 8572   5.101   0.218  10.089
   89SAPS    C3 8573   5.404   0.569  10.279
   89SAPS    HX 8574   5.504   0.520  10.278
   89SAPS    HY 8575   5.410   0.652  10.353
   89SAPS   O31 8576   5.389   0.613  10.145
   89SAPS   C31 8577   5.334   0.735  10.144
   89SAPS   O32 8578   5.297   0.797  10.243
   89SAPS   C32 8579   5.337   0.779   9.996
   89SAPS   H2X 8580   5.262   0.859   9.974
   89SAPS   H2Y 8581   5.324   0.699   9.920
   89SAPS   C23 8582   5.091   0.351   9.923
   89SAPS   H3R 8583   5.145   0.430   9.866
   89SAPS   H3S 8584   5.004   0.407   9.964
   89SAPS   C24 8585   5.060   0.246   9.821
   89SAPS   H4R 8586   4.999   0.298   9.745
   89SAPS   H4S 8587   4.999   0.170   9.873
   89SAPS   C25 8588   5.188   0.176   9.767
   89SAPS   H5R 8589   5.261   0.134   9.838
   89SAPS   C26 8590   5.218   0.147   9.637
   89SAPS   H6R 8591   5.305   0.087   9.608
   89SAPS   C27 8592   5.128   0.188   9.524
   89SAPS   H7R 8593   5.195   0.260   9.473
   89SAPS   H7S 8594   5.035   0.236   9.560
   89SAPS   C28 8595   5.099   0.075   9.430
   89SAPS   H8R 8596   5.136  -0.023   9.462
   89SAPS   C29 8597   5.056   0.091   9.304
   89SAPS   H9R 8598   5.050   0.002   9.239
   89SAPS  C210 8599   5.025   0.220   9.232
   89SAPS  H10R 8600   4.957   0.272   9.303
   89SAPS  H10S 8601   4.962   0.215   9.141
   89SAPS  C211 8602   5.143   0.311   9.212
   89SAPS  H11R 8603   5.121   0.408   9.260
   89SAPS  C212 8604   5.255   0.292   9.142
   89SAPS  H12R 8605   5.303   0.390   9.129
   89SAPS  C213 8606   5.278   0.178   9.041
   89SAPS  H13R 8607   5.336   0.204   8.950
   89SAPS  H13S 8608   5.182   0.135   9.005
   89SAPS  C214 8609   5.346   0.063   9.123
   89SAPS  H14R 8610   5.408   0.110   9.201
   89SAPS  C215 8611   5.369  -0.062   9.083
   89SAPS  H15R 8612   5.429  -0.130   9.145
   89SAPS  C216 8613   5.313  -0.118   8.955
   89SAPS  H16R 8614   5.298  -0.033   8.884
   89SAPS  H16S 8615   5.212  -0.162   8.964
   89SAPS  C217 8616   5.406  -0.225   8.888
   89SAPS  H17R 8617   5.383  -0.310   8.955
   89SAPS  H17S 8618   5.511  -0.194   8.905
   89SAPS  C218 8619   5.387  -0.258   8.744
   89SAPS  H18R 8620   5.403  -0.175   8.672
   89SAPS  H18S 8621   5.281  -0.283   8.726
   89SAPS  C219 8622   5.476  -0.375   8.691
   89SAPS  H19R 8623   5.577  -0.339   8.664
   89SAPS  H19S 8624   5.422  -0.404   8.598
   89SAPS  C220 8625   5.497  -0.507   8.774
   89SAPS  H20R 8626   5.574  -0.501   8.854
   89SAPS  H20S 8627   5.518  -0.586   8.700
   89SAPS  H20T 8628   5.397  -0.523   8.819
   89SAPS   C33 8629   5.471   0.847   9.966
   89SAPS   H3X 8630   5.537   0.760   9.945
   89SAPS   H3Y 8631   5.491   0.920  10.047
   89SAPS   C34 8632   5.480   0.947   9.843
   89SAPS   H4X 8633   5.587   0.975   9.834
   89SAPS   H4Y 8634   5.412   1.035   9.841
   89SAPS   C35 8635   5.458   0.866   9.717
   89SAPS   H5X 8636   5.353   0.834   9.699
   89SAPS   H5Y 8637   5.511   0.769   9.707
   89SAPS   C36 8638   5.483   0.954   9.596
   89SAPS   H6X 8639   5.593   0.956   9.580
   89SAPS   H6Y 8640   5.440   1.054   9.619
   89SAPS   C37 8641   5.425   0.903   9.460
   89SAPS   H7X 8642   5.316   0.924   9.463
   89SAPS   H7Y 8643   5.442   0.794   9.457
   89SAPS   C38 8644   5.482   0.978   9.340
   89SAPS   H8X 8645   5.590   0.952   9.336
   89SAPS   H8Y 8646   5.474   1.087   9.358
   89SAPS   C39 8647   5.409   0.943   9.212
   89SAPS   H9X 8648   5.307   0.986   9.224
   89SAPS   H9Y 8649   5.392   0.834   9.200
   89SAPS  C310 8650   5.462   0.991   9.081
   89SAPS  H10X 8651   5.565   0.957   9.058
   89SAPS  H10Y 8652   5.455   1.102   9.076
   89SAPS  C311 8653   5.370   0.932   8.968
   89SAPS  H11X 8654   5.265   0.963   8.987
   89SAPS  H11Y 8655   5.362   0.821   8.970
   89SAPS  C312 8656   5.410   0.982   8.831
   89SAPS  H12X 8657   5.520   0.975   8.815
   89SAPS  H12Y 8658   5.400   1.092   8.818
   89SAPS  C313 8659   5.325   0.903   8.725
   89SAPS  H13X 8660   5.218   0.932   8.727
   89SAPS  H13Y 8661   5.338   0.797   8.755
   89SAPS  C314 8662   5.378   0.928   8.580
   89SAPS  H14X 8663   5.458   0.858   8.549
   89SAPS  H14Y 8664   5.428   1.027   8.579
   89SAPS  C315 8665   5.261   0.914   8.474
   89SAPS  H15X 8666   5.312   0.926   8.376
   89SAPS  H15Y 8667   5.188   0.997   8.486
   89SAPS  C316 8668   5.188   0.776   8.461
   89SAPS  H16X 8669   5.099   0.791   8.397
   89SAPS  H16Y 8670   5.147   0.751   8.561
   89SAPS  C317 8671   5.268   0.663   8.406
   89SAPS  H17X 8672   5.354   0.646   8.473
   89SAPS  H17Y 8673   5.308   0.686   8.305
   89SAPS  C318 8674   5.192   0.535   8.404
   89SAPS  H18X 8675   5.117   0.528   8.323
   89SAPS  H18Y 8676   5.143   0.515   8.502
   89SAPS  H18Z 8677   5.256   0.445   8.390
   90SAPS     N 8678   0.711   0.531  10.654
   90SAPS   HN1 8679   0.762   0.618  10.680
   90SAPS   HN2 8680   0.725   0.513  10.552
   90SAPS   HN3 8681   0.611   0.560  10.654
   90SAPS   C12 8682   0.728   0.415  10.744
   90SAPS  H12A 8683   0.833   0.387  10.745
   90SAPS   C13 8684   0.697   0.440  10.888
   90SAPS  O13A 8685   0.631   0.543  10.922
   90SAPS  O13B 8686   0.731   0.357  10.978
   90SAPS   C11 8687   0.636   0.288  10.704
   90SAPS  H11A 8688   0.639   0.201  10.773
   90SAPS  H11B 8689   0.693   0.252  10.616
   90SAPS     P 8690   0.415   0.231  10.591
   90SAPS   O13 8691   0.451   0.092  10.619
   90SAPS   O14 8692   0.275   0.261  10.630
   90SAPS   O12 8693   0.502   0.323  10.675
   90SAPS   O11 8694   0.438   0.266  10.440
   90SAPS    C1 8695   0.330   0.278  10.351
   90SAPS    HA 8696   0.244   0.330  10.399
   90SAPS    HB 8697   0.370   0.326  10.259
   90SAPS    C2 8698   0.278   0.139  10.315
   90SAPS    HS 8699   0.266   0.082  10.409
   90SAPS   O21 8700   0.377   0.074  10.230
   90SAPS   C21 8701   0.366  -0.054  10.235
   90SAPS   O22 8702   0.281  -0.111  10.304
   90SAPS   C22 8703   0.466  -0.121  10.139
   90SAPS   H2R 8704   0.500  -0.046  10.064
   90SAPS   H2S 8705   0.560  -0.139  10.196
   90SAPS    C3 8706   0.138   0.163  10.241
   90SAPS    HX 8707   0.067   0.202  10.317
   90SAPS    HY 8708   0.095   0.066  10.209
   90SAPS   O31 8709   0.146   0.261  10.136
   90SAPS   C31 8710   0.189   0.216  10.013
   90SAPS   O32 8711   0.169   0.106   9.970
   90SAPS   C32 8712   0.246   0.334   9.935
   90SAPS   H2X 8713   0.307   0.391  10.008
   90SAPS   H2Y 8714   0.155   0.388   9.901
   90SAPS   C23 8715   0.422  -0.254  10.079
   90SAPS   H3R 8716   0.327  -0.240  10.024
   90SAPS   H3S 8717   0.405  -0.334  10.154
   90SAPS   C24 8718   0.531  -0.314   9.978
   90SAPS   H4R 8719   0.626  -0.329  10.033
   90SAPS   H4S 8720   0.551  -0.238   9.900
   90SAPS   C25 8721   0.490  -0.452   9.920
   90SAPS   H5R 8722   0.475  -0.537   9.989
   90SAPS   C26 8723   0.463  -0.468   9.784
   90SAPS   H6R 8724   0.420  -0.563   9.750
   90SAPS   C27 8725   0.489  -0.361   9.677
   90SAPS   H7R 8726   0.433  -0.266   9.689
   90SAPS   H7S 8727   0.457  -0.398   9.577
   90SAPS   C28 8728   0.627  -0.321   9.651
   90SAPS   H8R 8729   0.679  -0.279   9.738
   90SAPS   C29 8730   0.700  -0.330   9.537
   90SAPS   H9R 8731   0.799  -0.282   9.537
   90SAPS  C210 8732   0.640  -0.386   9.405
   90SAPS  H10R 8733   0.571  -0.470   9.426
   90SAPS  H10S 8734   0.719  -0.439   9.348
   90SAPS  C211 8735   0.580  -0.273   9.327
   90SAPS  H11R 8736   0.516  -0.217   9.397
   90SAPS  C212 8737   0.600  -0.225   9.202
   90SAPS  H12R 8738   0.553  -0.132   9.168
   90SAPS  C213 8739   0.695  -0.283   9.109
   90SAPS  H13R 8740   0.677  -0.392   9.097
   90SAPS  H13S 8741   0.798  -0.280   9.151
   90SAPS  C214 8742   0.686  -0.220   8.975
   90SAPS  H14R 8743   0.647  -0.118   8.961
   90SAPS  C215 8744   0.701  -0.284   8.860
   90SAPS  H15R 8745   0.703  -0.225   8.768
   90SAPS  C216 8746   0.753  -0.422   8.838
   90SAPS  H16R 8747   0.782  -0.481   8.928
   90SAPS  H16S 8748   0.845  -0.414   8.777
   90SAPS  C217 8749   0.647  -0.502   8.748
   90SAPS  H17R 8750   0.551  -0.490   8.803
   90SAPS  H17S 8751   0.682  -0.607   8.763
   90SAPS  C218 8752   0.646  -0.477   8.602
   90SAPS  H18R 8753   0.745  -0.494   8.555
   90SAPS  H18S 8754   0.618  -0.372   8.580
   90SAPS  C219 8755   0.546  -0.564   8.544
   90SAPS  H19R 8756   0.454  -0.566   8.606
   90SAPS  H19S 8757   0.574  -0.671   8.534
   90SAPS  C220 8758   0.507  -0.527   8.403
   90SAPS  H20R 8759   0.467  -0.424   8.396
   90SAPS  H20S 8760   0.426  -0.590   8.359
   90SAPS  H20T 8761   0.598  -0.517   8.340
   90SAPS   C33 8762   0.336   0.292   9.823
   90SAPS   H3X 8763   0.413   0.221   9.860
   90SAPS   H3Y 8764   0.375   0.380   9.767
   90SAPS   C34 8765   0.256   0.225   9.706
   90SAPS   H4X 8766   0.193   0.138   9.733
   90SAPS   H4Y 8767   0.332   0.184   9.636
   90SAPS   C35 8768   0.163   0.321   9.620
   90SAPS   H5X 8769   0.153   0.419   9.672
   90SAPS   H5Y 8770   0.058   0.286   9.620
   90SAPS   C36 8771   0.213   0.345   9.478
   90SAPS   H6X 8772   0.324   0.351   9.479
   90SAPS   H6Y 8773   0.172   0.442   9.439
   90SAPS   C37 8774   0.178   0.235   9.377
   90SAPS   H7X 8775   0.069   0.214   9.380
   90SAPS   H7Y 8776   0.224   0.139   9.410
   90SAPS   C38 8777   0.217   0.261   9.233
   90SAPS   H8X 8778   0.326   0.270   9.214
   90SAPS   H8Y 8779   0.159   0.354   9.216
   90SAPS   C39 8780   0.166   0.155   9.140
   90SAPS   H9X 8781   0.160   0.208   9.042
   90SAPS   H9Y 8782   0.061   0.122   9.158
   90SAPS  C310 8783   0.261   0.030   9.149
   90SAPS  H10X 8784   0.235  -0.022   9.244
   90SAPS  H10Y 8785   0.367   0.061   9.137
   90SAPS  C311 8786   0.224  -0.059   9.031
   90SAPS  H11X 8787   0.258  -0.003   8.942
   90SAPS  H11Y 8788   0.113  -0.066   9.028
   90SAPS  C312 8789   0.283  -0.201   9.032
   90SAPS  H12X 8790   0.247  -0.253   9.123
   90SAPS  H12Y 8791   0.393  -0.191   9.042
   90SAPS  C313 8792   0.244  -0.290   8.906
   90SAPS  H13X 8793   0.135  -0.310   8.901
   90SAPS  H13Y 8794   0.296  -0.388   8.915
   90SAPS  C314 8795   0.292  -0.217   8.777
   90SAPS  H14X 8796   0.403  -0.211   8.782
   90SAPS  H14Y 8797   0.243  -0.117   8.770
   90SAPS  C315 8798   0.244  -0.292   8.651
   90SAPS  H15X 8799   0.284  -0.396   8.652
   90SAPS  H15Y 8800   0.295  -0.251   8.561
   90SAPS  C316 8801   0.092  -0.276   8.623
   90SAPS  H16X 8802   0.084  -0.165   8.620
   90SAPS  H16Y 8803   0.040  -0.316   8.714
   90SAPS  C317 8804   0.043  -0.353   8.502
   90SAPS  H17X 8805   0.110  -0.326   8.418
   90SAPS  H17Y 8806  -0.061  -0.321   8.479
   90SAPS  C318 8807   0.042  -0.501   8.510
   90SAPS  H18X 8808  -0.021  -0.545   8.590
   90SAPS  H18Y 8809   0.147  -0.536   8.518
   90SAPS  H18Z 8810   0.004  -0.539   8.413
   91SAPS     N 8811   5.210   5.274   5.939
   91SAPS   HN1 8812   5.218   5.178   5.978
   91SAPS   HN2 8813   5.197   5.349   6.010
   91SAPS   HN3 8814   5.138   5.280   5.864
   91SAPS   C12 8815   5.356   5.301   5.897
   91SAPS  H12A 8816   5.384   5.238   5.814
   91SAPS   C13 8817   5.387   5.453   5.852
   91SAPS  O13A 8818   5.294   5.535   5.862
   91SAPS  O13B 8819   5.499   5.484   5.805
   91SAPS   C11 8820   5.439   5.262   6.025
   91SAPS  H11A 8821   5.404   5.317   6.115
   91SAPS  H11B 8822   5.543   5.285   5.993
   91SAPS     P 8823   5.552   5.033   6.084
   91SAPS   O13 8824   5.534   4.902   6.022
   91SAPS   O14 8825   5.672   5.104   6.061
   91SAPS   O12 8826   5.429   5.124   6.042
   91SAPS   O11 8827   5.517   5.027   6.238
   91SAPS    C1 8828   5.616   5.006   6.341
   91SAPS    HA 8829   5.604   4.900   6.374
   91SAPS    HB 8830   5.718   5.022   6.302
   91SAPS    C2 8831   5.579   5.095   6.460
   91SAPS    HS 8832   5.666   5.091   6.528
   91SAPS   O21 8833   5.454   5.055   6.528
   91SAPS   C21 8834   5.468   4.975   6.633
   91SAPS   O22 8835   5.568   4.918   6.668
   91SAPS   C22 8836   5.334   4.960   6.707
   91SAPS   H2R 8837   5.252   4.991   6.639
   91SAPS   H2S 8838   5.318   4.851   6.722
   91SAPS    C3 8839   5.558   5.241   6.416
   91SAPS    HX 8840   5.464   5.258   6.360
   91SAPS    HY 8841   5.641   5.261   6.345
   91SAPS   O31 8842   5.575   5.336   6.529
   91SAPS   C31 8843   5.465   5.369   6.594
   91SAPS   O32 8844   5.348   5.341   6.560
   91SAPS   C32 8845   5.515   5.424   6.728
   91SAPS   H2X 8846   5.571   5.519   6.714
   91SAPS   H2Y 8847   5.588   5.349   6.767
   91SAPS   C23 8848   5.357   5.023   6.844
   91SAPS   H3R 8849   5.406   5.122   6.836
   91SAPS   H3S 8850   5.432   4.960   6.896
   91SAPS   C24 8851   5.228   5.038   6.931
   91SAPS   H4R 8852   5.165   5.111   6.875
   91SAPS   H4S 8853   5.258   5.097   7.021
   91SAPS   C25 8854   5.154   4.912   6.959
   91SAPS   H5R 8855   5.064   4.907   6.897
   91SAPS   C26 8856   5.186   4.812   7.043
   91SAPS   H6R 8857   5.146   4.712   7.016
   91SAPS   C27 8858   5.308   4.817   7.138
   91SAPS   H7R 8859   5.288   4.893   7.217
   91SAPS   H7S 8860   5.394   4.859   7.082
   91SAPS   C28 8861   5.351   4.680   7.190
   91SAPS   H8R 8862   5.300   4.591   7.150
   91SAPS   C29 8863   5.449   4.658   7.287
   91SAPS   H9R 8864   5.490   4.557   7.295
   91SAPS  C210 8865   5.525   4.758   7.362
   91SAPS  H10R 8866   5.458   4.805   7.437
   91SAPS  H10S 8867   5.556   4.841   7.295
   91SAPS  C211 8868   5.647   4.709   7.422
   91SAPS  H11R 8869   5.733   4.708   7.354
   91SAPS  C212 8870   5.656   4.665   7.550
   91SAPS  H12R 8871   5.756   4.636   7.584
   91SAPS  C213 8872   5.544   4.651   7.652
   91SAPS  H13R 8873   5.484   4.557   7.644
   91SAPS  H13S 8874   5.470   4.732   7.638
   91SAPS  C214 8875   5.601   4.675   7.788
   91SAPS  H14R 8876   5.626   4.779   7.813
   91SAPS  C215 8877   5.630   4.587   7.886
   91SAPS  H15R 8878   5.666   4.637   7.977
   91SAPS  C216 8879   5.597   4.443   7.882
   91SAPS  H16R 8880   5.682   4.379   7.916
   91SAPS  H16S 8881   5.580   4.403   7.780
   91SAPS  C217 8882   5.477   4.388   7.962
   91SAPS  H17R 8883   5.459   4.282   7.933
   91SAPS  H17S 8884   5.383   4.443   7.937
   91SAPS  C218 8885   5.500   4.414   8.113
   91SAPS  H18R 8886   5.495   4.525   8.115
   91SAPS  H18S 8887   5.600   4.379   8.148
   91SAPS  C219 8888   5.405   4.345   8.207
   91SAPS  H19R 8889   5.399   4.236   8.186
   91SAPS  H19S 8890   5.304   4.387   8.189
   91SAPS  C220 8891   5.429   4.352   8.353
   91SAPS  H20R 8892   5.528   4.311   8.380
   91SAPS  H20S 8893   5.353   4.291   8.406
   91SAPS  H20T 8894   5.439   4.457   8.390
   91SAPS   C33 8895   5.404   5.444   6.829
   91SAPS   H3X 8896   5.350   5.349   6.849
   91SAPS   H3Y 8897   5.336   5.526   6.799
   91SAPS   C34 8898   5.467   5.470   6.974
   91SAPS   H4X 8899   5.406   5.537   7.038
   91SAPS   H4Y 8900   5.555   5.535   6.954
   91SAPS   C35 8901   5.504   5.352   7.059
   91SAPS   H5X 8902   5.554   5.289   6.982
   91SAPS   H5Y 8903   5.421   5.299   7.111
   91SAPS   C36 8904   5.614   5.374   7.159
   91SAPS   H6X 8905   5.669   5.466   7.129
   91SAPS   H6Y 8906   5.686   5.291   7.174
   91SAPS   C37 8907   5.548   5.395   7.292
   91SAPS   H7X 8908   5.505   5.302   7.335
   91SAPS   H7Y 8909   5.466   5.469   7.288
   91SAPS   C38 8910   5.651   5.444   7.400
   91SAPS   H8X 8911   5.735   5.371   7.400
   91SAPS   H8Y 8912   5.600   5.434   7.499
   91SAPS   C39 8913   5.715   5.585   7.380
   91SAPS   H9X 8914   5.630   5.649   7.348
   91SAPS   H9Y 8915   5.790   5.575   7.298
   91SAPS  C310 8916   5.808   5.626   7.501
   91SAPS  H10X 8917   5.811   5.736   7.489
   91SAPS  H10Y 8918   5.904   5.571   7.497
   91SAPS  C311 8919   5.743   5.600   7.635
   91SAPS  H11X 8920   5.726   5.491   7.647
   91SAPS  H11Y 8921   5.646   5.651   7.658
   91SAPS  C312 8922   5.835   5.631   7.754
   91SAPS  H12X 8923   5.865   5.737   7.744
   91SAPS  H12Y 8924   5.920   5.561   7.741
   91SAPS  C313 8925   5.763   5.622   7.892
   91SAPS  H13X 8926   5.724   5.520   7.907
   91SAPS  H13Y 8927   5.669   5.681   7.891
   91SAPS  C314 8928   5.850   5.648   8.017
   91SAPS  H14X 8929   5.865   5.755   8.041
   91SAPS  H14Y 8930   5.952   5.606   8.008
   91SAPS  C315 8931   5.786   5.569   8.138
   91SAPS  H15X 8932   5.795   5.461   8.114
   91SAPS  H15Y 8933   5.680   5.599   8.143
   91SAPS  C316 8934   5.854   5.618   8.270
   91SAPS  H16X 8935   5.827   5.725   8.282
   91SAPS  H16Y 8936   5.964   5.610   8.251
   91SAPS  C317 8937   5.815   5.527   8.387
   91SAPS  H17X 8938   5.828   5.419   8.365
   91SAPS  H17Y 8939   5.705   5.543   8.383
   91SAPS  C318 8940   5.871   5.569   8.523
   91SAPS  H18X 8941   5.976   5.533   8.531
   91SAPS  H18Y 8942   5.815   5.520   8.606
   91SAPS  H18Z 8943   5.859   5.678   8.541
   92SAPS     N 8944   5.078   2.790   6.138
   92SAPS   HN1 8945   5.165   2.783   6.081
   92SAPS   HN2 8946   5.087   2.720   6.215
   92SAPS   HN3 8947   5.003   2.765   6.071
   92SAPS   C12 8948   5.039   2.928   6.181
   92SAPS  H12A 8949   5.130   2.973   6.217
   92SAPS   C13 8950   4.978   3.020   6.076
   92SAPS  O13A 8951   4.937   2.975   5.964
   92SAPS  O13B 8952   4.966   3.141   6.105
   92SAPS   C11 8953   4.942   2.907   6.298
   92SAPS  H11A 8954   4.849   2.865   6.254
   92SAPS  H11B 8955   4.919   3.007   6.340
   92SAPS     P 8956   4.896   2.761   6.509
   92SAPS   O13 8957   4.786   2.689   6.448
   92SAPS   O14 8958   4.978   2.687   6.608
   92SAPS   O12 8959   4.995   2.813   6.400
   92SAPS   O11 8960   4.832   2.883   6.583
   92SAPS    C1 8961   4.902   2.966   6.671
   92SAPS    HA 8962   5.009   2.967   6.639
   92SAPS    HB 8963   4.864   3.070   6.667
   92SAPS    C2 8964   4.894   2.923   6.821
   92SAPS    HS 8965   4.932   2.819   6.826
   92SAPS   O21 8966   4.762   2.942   6.864
   92SAPS   C21 8967   4.685   2.832   6.860
   92SAPS   O22 8968   4.715   2.722   6.815
   92SAPS   C22 8969   4.561   2.858   6.935
   92SAPS   H2R 8970   4.590   2.928   7.016
   92SAPS   H2S 8971   4.481   2.904   6.872
   92SAPS    C3 8972   4.984   3.006   6.906
   92SAPS    HX 8973   4.964   2.971   7.010
   92SAPS    HY 8974   4.960   3.113   6.888
   92SAPS   O31 8975   5.122   2.990   6.863
   92SAPS   C31 8976   5.191   2.910   6.922
   92SAPS   O32 8977   5.149   2.832   7.010
   92SAPS   C32 8978   5.340   2.912   6.876
   92SAPS   H2X 8979   5.352   2.987   6.795
   92SAPS   H2Y 8980   5.348   2.810   6.832
   92SAPS   C23 8981   4.504   2.725   7.012
   92SAPS   H3R 8982   4.587   2.683   7.072
   92SAPS   H3S 8983   4.489   2.645   6.937
   92SAPS   C24 8984   4.383   2.754   7.104
   92SAPS   H4R 8985   4.401   2.837   7.176
   92SAPS   H4S 8986   4.363   2.660   7.160
   92SAPS   C25 8987   4.244   2.772   7.030
   92SAPS   H5R 8988   4.240   2.700   6.947
   92SAPS   C26 8989   4.145   2.863   7.045
   92SAPS   H6R 8990   4.050   2.857   6.990
   92SAPS   C27 8991   4.140   2.962   7.158
   92SAPS   H7R 8992   4.051   3.028   7.143
   92SAPS   H7S 8993   4.229   3.022   7.131
   92SAPS   C28 8994   4.152   2.910   7.304
   92SAPS   H8R 8995   4.085   2.827   7.334
   92SAPS   C29 8996   4.247   2.943   7.394
   92SAPS   H9R 8997   4.241   2.892   7.491
   92SAPS  C210 8998   4.351   3.052   7.388
   92SAPS  H10R 8999   4.323   3.118   7.303
   92SAPS  H10S 9000   4.452   3.014   7.362
   92SAPS  C211 9001   4.366   3.136   7.507
   92SAPS  H11R 9002   4.292   3.217   7.515
   92SAPS  C212 9003   4.461   3.117   7.602
   92SAPS  H12R 9004   4.476   3.194   7.679
   92SAPS  C213 9005   4.565   3.011   7.606
   92SAPS  H13R 9006   4.593   2.999   7.499
   92SAPS  H13S 9007   4.520   2.913   7.632
   92SAPS  C214 9008   4.692   3.039   7.687
   92SAPS  H14R 9009   4.745   3.129   7.653
   92SAPS  C215 9010   4.749   2.961   7.782
   92SAPS  H15R 9011   4.852   2.975   7.818
   92SAPS  C216 9012   4.689   2.836   7.847
   92SAPS  H16R 9013   4.749   2.751   7.808
   92SAPS  H16S 9014   4.587   2.806   7.815
   92SAPS  C217 9015   4.698   2.855   7.998
   92SAPS  H17R 9016   4.640   2.947   8.020
   92SAPS  H17S 9017   4.801   2.859   8.038
   92SAPS  C218 9018   4.625   2.738   8.074
   92SAPS  H18R 9019   4.679   2.642   8.055
   92SAPS  H18S 9020   4.527   2.728   8.023
   92SAPS  C219 9021   4.615   2.771   8.219
   92SAPS  H19R 9022   4.570   2.872   8.224
   92SAPS  H19S 9023   4.715   2.800   8.258
   92SAPS  C220 9024   4.551   2.664   8.299
   92SAPS  H20R 9025   4.467   2.613   8.246
   92SAPS  H20S 9026   4.517   2.706   8.396
   92SAPS  H20T 9027   4.626   2.595   8.343
   92SAPS   C33 9028   5.443   2.937   6.986
   92SAPS   H3X 9029   5.445   3.047   7.002
   92SAPS   H3Y 9030   5.540   2.896   6.950
   92SAPS   C34 9031   5.403   2.860   7.116
   92SAPS   H4X 9032   5.388   2.752   7.097
   92SAPS   H4Y 9033   5.312   2.910   7.155
   92SAPS   C35 9034   5.512   2.858   7.219
   92SAPS   H5X 9035   5.527   2.951   7.278
   92SAPS   H5Y 9036   5.605   2.828   7.166
   92SAPS   C36 9037   5.476   2.753   7.324
   92SAPS   H6X 9038   5.475   2.652   7.277
   92SAPS   H6Y 9039   5.372   2.768   7.360
   92SAPS   C37 9040   5.564   2.747   7.445
   92SAPS   H7X 9041   5.558   2.844   7.500
   92SAPS   H7Y 9042   5.667   2.722   7.412
   92SAPS   C38 9043   5.509   2.634   7.532
   92SAPS   H8X 9044   5.510   2.535   7.483
   92SAPS   H8Y 9045   5.403   2.661   7.552
   92SAPS   C39 9046   5.598   2.639   7.654
   92SAPS   H9X 9047   5.593   2.740   7.700
   92SAPS   H9Y 9048   5.704   2.615   7.633
   92SAPS  C310 9049   5.556   2.529   7.756
   92SAPS  H10X 9050   5.614   2.435   7.744
   92SAPS  H10Y 9051   5.445   2.523   7.749
   92SAPS  C311 9052   5.590   2.558   7.910
   92SAPS  H11X 9053   5.577   2.667   7.926
   92SAPS  H11Y 9054   5.697   2.534   7.928
   92SAPS  C312 9055   5.511   2.483   8.014
   92SAPS  H12X 9056   5.402   2.495   7.997
   92SAPS  H12Y 9057   5.540   2.539   8.105
   92SAPS  C313 9058   5.554   2.331   8.034
   92SAPS  H13X 9059   5.654   2.344   8.081
   92SAPS  H13Y 9060   5.574   2.272   7.942
   92SAPS  C314 9061   5.459   2.250   8.126
   92SAPS  H14X 9062   5.376   2.231   8.055
   92SAPS  H14Y 9063   5.422   2.314   8.209
   92SAPS  C315 9064   5.507   2.116   8.174
   92SAPS  H15X 9065   5.545   2.052   8.092
   92SAPS  H15Y 9066   5.425   2.059   8.224
   92SAPS  C316 9067   5.613   2.127   8.279
   92SAPS  H16X 9068   5.574   2.193   8.359
   92SAPS  H16Y 9069   5.704   2.177   8.241
   92SAPS  C317 9070   5.648   1.984   8.344
   92SAPS  H17X 9071   5.690   1.929   8.256
   92SAPS  H17Y 9072   5.562   1.920   8.374
   92SAPS  C318 9073   5.754   2.003   8.450
   92SAPS  H18X 9074   5.836   2.066   8.410
   92SAPS  H18Y 9075   5.784   1.907   8.498
   92SAPS  H18Z 9076   5.707   2.069   8.527
   93SAPS     N 9077   5.607   3.346   6.422
   93SAPS   HN1 9078   5.598   3.449   6.423
   93SAPS   HN2 9079   5.515   3.308   6.394
   93SAPS   HN3 9080   5.624   3.315   6.520
   93SAPS   C12 9081   5.710   3.304   6.317
   93SAPS  H12A 9082   5.700   3.196   6.317
   93SAPS   C13 9083   5.693   3.346   6.172
   93SAPS  O13A 9084   5.589   3.419   6.152
   93SAPS  O13B 9085   5.778   3.313   6.086
   93SAPS   C11 9086   5.840   3.356   6.381
   93SAPS  H11A 9087   5.846   3.465   6.359
   93SAPS  H11B 9088   5.910   3.296   6.318
   93SAPS     P 9089   6.011   3.381   6.578
   93SAPS   O13 9090   6.118   3.293   6.535
   93SAPS   O14 9091   6.021   3.530   6.554
   93SAPS   O12 9092   5.868   3.326   6.520
   93SAPS   O11 9093   5.989   3.362   6.731
   93SAPS    C1 9094   5.936   3.245   6.789
   93SAPS    HA 9095   5.913   3.161   6.721
   93SAPS    HB 9096   5.998   3.204   6.872
   93SAPS    C2 9097   5.798   3.280   6.844
   93SAPS    HS 9098   5.739   3.330   6.765
   93SAPS   O21 9099   5.813   3.365   6.958
   93SAPS   C21 9100   5.705   3.437   6.989
   93SAPS   O22 9101   5.599   3.428   6.931
   93SAPS   C22 9102   5.732   3.511   7.120
   93SAPS   H2R 9103   5.627   3.539   7.142
   93SAPS   H2S 9104   5.757   3.440   7.201
   93SAPS    C3 9105   5.722   3.148   6.879
   93SAPS    HX 9106   5.703   3.096   6.782
   93SAPS    HY 9107   5.623   3.170   6.923
   93SAPS   O31 9108   5.800   3.057   6.954
   93SAPS   C31 9109   5.796   3.074   7.086
   93SAPS   O32 9110   5.735   3.161   7.144
   93SAPS   C32 9111   5.903   2.989   7.148
   93SAPS   H2X 9112   5.997   3.049   7.144
   93SAPS   H2Y 9113   5.909   2.892   7.094
   93SAPS   C23 9114   5.818   3.640   7.114
   93SAPS   H3R 9115   5.797   3.693   7.019
   93SAPS   H3S 9116   5.921   3.599   7.105
   93SAPS   C24 9117   5.795   3.740   7.227
   93SAPS   H4R 9118   5.689   3.751   7.259
   93SAPS   H4S 9119   5.838   3.834   7.185
   93SAPS   C25 9120   5.886   3.702   7.342
   93SAPS   H5R 9121   5.984   3.665   7.310
   93SAPS   C26 9122   5.857   3.715   7.478
   93SAPS   H6R 9123   5.926   3.665   7.548
   93SAPS   C27 9124   5.734   3.788   7.532
   93SAPS   H7R 9125   5.681   3.853   7.459
   93SAPS   H7S 9126   5.769   3.853   7.616
   93SAPS   C28 9127   5.636   3.671   7.567
   93SAPS   H8R 9128   5.582   3.622   7.485
   93SAPS   C29 9129   5.613   3.634   7.691
   93SAPS   H9R 9130   5.547   3.550   7.716
   93SAPS  C210 9131   5.677   3.688   7.814
   93SAPS  H10R 9132   5.621   3.769   7.865
   93SAPS  H10S 9133   5.766   3.750   7.789
   93SAPS  C211 9134   5.709   3.577   7.908
   93SAPS  H11R 9135   5.808   3.530   7.900
   93SAPS  C212 9136   5.628   3.535   8.014
   93SAPS  H12R 9137   5.659   3.444   8.068
   93SAPS  C213 9138   5.494   3.603   8.045
   93SAPS  H13R 9139   5.485   3.693   7.981
   93SAPS  H13S 9140   5.502   3.645   8.148
   93SAPS  C214 9141   5.384   3.508   8.018
   93SAPS  H14R 9142   5.340   3.520   7.918
   93SAPS  C215 9143   5.338   3.398   8.090
   93SAPS  H15R 9144   5.247   3.342   8.061
   93SAPS  C216 9145   5.386   3.349   8.228
   93SAPS  H16R 9146   5.484   3.397   8.250
   93SAPS  H16S 9147   5.396   3.239   8.213
   93SAPS  C217 9148   5.299   3.365   8.353
   93SAPS  H17R 9149   5.367   3.321   8.428
   93SAPS  H17S 9150   5.203   3.311   8.340
   93SAPS  C218 9151   5.261   3.508   8.407
   93SAPS  H18R 9152   5.204   3.561   8.328
   93SAPS  H18S 9153   5.338   3.583   8.434
   93SAPS  C219 9154   5.171   3.492   8.530
   93SAPS  H19R 9155   5.218   3.430   8.609
   93SAPS  H19S 9156   5.084   3.428   8.501
   93SAPS  C220 9157   5.110   3.620   8.582
   93SAPS  H20R 9158   5.178   3.706   8.561
   93SAPS  H20S 9159   5.094   3.623   8.692
   93SAPS  H20T 9160   5.013   3.639   8.532
   93SAPS   C33 9161   5.865   2.948   7.296
   93SAPS   H3X 9162   5.808   2.853   7.299
   93SAPS   H3Y 9163   5.794   3.021   7.341
   93SAPS   C34 9164   5.983   2.915   7.379
   93SAPS   H4X 9165   6.051   3.003   7.382
   93SAPS   H4Y 9166   6.041   2.831   7.335
   93SAPS   C35 9167   5.936   2.872   7.521
   93SAPS   H5X 9168   5.834   2.829   7.512
   93SAPS   H5Y 9169   5.929   2.954   7.595
   93SAPS   C36 9170   6.020   2.757   7.563
   93SAPS   H6X 9171   6.124   2.795   7.548
   93SAPS   H6Y 9172   6.013   2.678   7.485
   93SAPS   C37 9173   5.994   2.679   7.694
   93SAPS   H7X 9174   6.074   2.602   7.689
   93SAPS   H7Y 9175   5.893   2.630   7.696
   93SAPS   C38 9176   6.024   2.754   7.830
   93SAPS   H8X 9177   5.942   2.828   7.843
   93SAPS   H8Y 9178   6.121   2.801   7.806
   93SAPS   C39 9179   6.027   2.662   7.951
   93SAPS   H9X 9180   6.099   2.579   7.933
   93SAPS   H9Y 9181   5.931   2.607   7.955
   93SAPS  C310 9182   6.045   2.728   8.092
   93SAPS  H10X 9183   5.962   2.801   8.101
   93SAPS  H10Y 9184   6.138   2.787   8.081
   93SAPS  C311 9185   6.042   2.632   8.211
   93SAPS  H11X 9186   6.079   2.688   8.300
   93SAPS  H11Y 9187   6.120   2.553   8.206
   93SAPS  C312 9188   5.898   2.570   8.217
   93SAPS  H12X 9189   5.892   2.465   8.181
   93SAPS  H12Y 9190   5.836   2.644   8.160
   93SAPS  C313 9191   5.847   2.567   8.363
   93SAPS  H13X 9192   5.740   2.538   8.371
   93SAPS  H13Y 9193   5.846   2.669   8.408
   93SAPS  C314 9194   5.952   2.487   8.458
   93SAPS  H14X 9195   6.049   2.541   8.458
   93SAPS  H14Y 9196   5.967   2.382   8.423
   93SAPS  C315 9197   5.899   2.475   8.596
   93SAPS  H15X 9198   5.946   2.388   8.648
   93SAPS  H15Y 9199   5.792   2.461   8.569
   93SAPS  C316 9200   5.929   2.611   8.665
   93SAPS  H16X 9201   5.959   2.685   8.587
   93SAPS  H16Y 9202   6.010   2.609   8.741
   93SAPS  C317 9203   5.802   2.664   8.740
   93SAPS  H17X 9204   5.787   2.610   8.836
   93SAPS  H17Y 9205   5.712   2.637   8.680
   93SAPS  C318 9206   5.819   2.817   8.749
   93SAPS  H18X 9207   5.831   2.848   8.644
   93SAPS  H18Y 9208   5.904   2.846   8.814
   93SAPS  H18Z 9209   5.728   2.868   8.788
   94SAPS     N 9210   6.185   5.408   5.695
   94SAPS   HN1 9211   6.229   5.317   5.719
   94SAPS   HN2 9212   6.099   5.382   5.643
   94SAPS   HN3 9213   6.255   5.464   5.644
   94SAPS   C12 9214   6.170   5.481   5.828
   94SAPS  H12A 9215   6.094   5.428   5.884
   94SAPS   C13 9216   6.302   5.490   5.920
   94SAPS  O13A 9217   6.419   5.476   5.874
   94SAPS  O13B 9218   6.295   5.540   6.032
   94SAPS   C11 9219   6.117   5.623   5.804
   94SAPS  H11A 9220   6.188   5.675   5.735
   94SAPS  H11B 9221   6.103   5.681   5.898
   94SAPS     P 9222   5.849   5.619   5.802
   94SAPS   O13 9223   5.747   5.701   5.737
   94SAPS   O14 9224   5.826   5.475   5.819
   94SAPS   O12 9225   5.991   5.640   5.735
   94SAPS   O11 9226   5.876   5.679   5.945
   94SAPS    C1 9227   5.917   5.600   6.059
   94SAPS    HA 9228   5.932   5.493   6.030
   94SAPS    HB 9229   6.011   5.639   6.104
   94SAPS    C2 9230   5.808   5.600   6.167
   94SAPS    HS 9231   5.777   5.706   6.182
   94SAPS   O21 9232   5.868   5.551   6.292
   94SAPS   C21 9233   5.921   5.643   6.374
   94SAPS   O22 9234   5.901   5.763   6.361
   94SAPS   C22 9235   5.982   5.577   6.494
   94SAPS   H2R 9236   6.044   5.488   6.469
   94SAPS   H2S 9237   6.057   5.637   6.549
   94SAPS    C3 9238   5.683   5.514   6.140
   94SAPS    HX 9239   5.701   5.404   6.137
   94SAPS    HY 9240   5.639   5.529   6.039
   94SAPS   O31 9241   5.578   5.532   6.251
   94SAPS   C31 9242   5.520   5.646   6.237
   94SAPS   O32 9243   5.538   5.726   6.149
   94SAPS   C32 9244   5.420   5.672   6.357
   94SAPS   H2X 9245   5.370   5.576   6.382
   94SAPS   H2Y 9246   5.345   5.746   6.324
   94SAPS   C23 9247   5.878   5.539   6.598
   94SAPS   H3R 9248   5.894   5.430   6.613
   94SAPS   H3S 9249   5.775   5.555   6.560
   94SAPS   C24 9250   5.890   5.609   6.737
   94SAPS   H4R 9251   5.998   5.606   6.761
   94SAPS   H4S 9252   5.821   5.558   6.808
   94SAPS   C25 9253   5.846   5.755   6.728
   94SAPS   H5R 9254   5.821   5.802   6.632
   94SAPS   C26 9255   5.837   5.826   6.843
   94SAPS   H6R 9256   5.796   5.928   6.833
   94SAPS   C27 9257   5.890   5.788   6.981
   94SAPS   H7R 9258   5.988   5.840   6.982
   94SAPS   H7S 9259   5.917   5.680   6.989
   94SAPS   C28 9260   5.801   5.819   7.096
   94SAPS   H8R 9261   5.700   5.773   7.098
   94SAPS   C29 9262   5.848   5.873   7.211
   94SAPS   H9R 9263   5.783   5.907   7.293
   94SAPS  C210 9264   5.984   5.938   7.230
   94SAPS  H10R 9265   5.999   6.010   7.146
   94SAPS  H10S 9266   6.065   5.864   7.213
   94SAPS  C211 9267   6.010   6.003   7.368
   94SAPS  H11R 9268   5.978   6.108   7.375
   94SAPS  C212 9269   6.056   5.944   7.481
   94SAPS  H12R 9270   6.045   6.009   7.568
   94SAPS  C213 9271   6.110   5.799   7.508
   94SAPS  H13R 9272   6.088   5.740   7.416
   94SAPS  H13S 9273   6.054   5.754   7.592
   94SAPS  C214 9274   6.259   5.786   7.537
   94SAPS  H14R 9275   6.322   5.804   7.449
   94SAPS  C215 9276   6.317   5.769   7.657
   94SAPS  H15R 9277   6.426   5.761   7.669
   94SAPS  C216 9278   6.244   5.747   7.783
   94SAPS  H16R 9279   6.298   5.671   7.845
   94SAPS  H16S 9280   6.141   5.709   7.769
   94SAPS  C217 9281   6.237   5.865   7.874
   94SAPS  H17R 9282   6.337   5.895   7.913
   94SAPS  H17S 9283   6.173   5.827   7.956
   94SAPS  C218 9284   6.162   5.987   7.820
   94SAPS  H18R 9285   6.057   5.966   7.790
   94SAPS  H18S 9286   6.215   6.034   7.734
   94SAPS  C219 9287   6.152   6.104   7.923
   94SAPS  H19R 9288   6.254   6.109   7.967
   94SAPS  H19S 9289   6.084   6.066   8.002
   94SAPS  C220 9290   6.100   6.237   7.864
   94SAPS  H20R 9291   5.993   6.241   7.832
   94SAPS  H20S 9292   6.175   6.261   7.786
   94SAPS  H20T 9293   6.115   6.310   7.946
   94SAPS   C33 9294   5.483   5.726   6.489
   94SAPS   H3X 9295   5.551   5.810   6.464
   94SAPS   H3Y 9296   5.543   5.642   6.530
   94SAPS   C34 9297   5.375   5.761   6.598
   94SAPS   H4X 9298   5.327   5.672   6.642
   94SAPS   H4Y 9299   5.293   5.819   6.550
   94SAPS   C35 9300   5.429   5.854   6.711
   94SAPS   H5X 9301   5.469   5.943   6.659
   94SAPS   H5Y 9302   5.519   5.794   6.738
   94SAPS   C36 9303   5.323   5.888   6.820
   94SAPS   H6X 9304   5.291   5.791   6.863
   94SAPS   H6Y 9305   5.245   5.959   6.784
   94SAPS   C37 9306   5.403   5.955   6.944
   94SAPS   H7X 9307   5.400   6.059   6.905
   94SAPS   H7Y 9308   5.510   5.927   6.944
   94SAPS   C38 9309   5.341   5.952   7.086
   94SAPS   H8X 9310   5.231   5.962   7.070
   94SAPS   H8Y 9311   5.377   6.040   7.144
   94SAPS   C39 9312   5.377   5.824   7.161
   94SAPS   H9X 9313   5.481   5.828   7.201
   94SAPS   H9Y 9314   5.363   5.734   7.097
   94SAPS  C310 9315   5.286   5.806   7.283
   94SAPS  H10X 9316   5.308   5.704   7.322
   94SAPS  H10Y 9317   5.183   5.817   7.245
   94SAPS  C311 9318   5.326   5.899   7.383
   94SAPS  H11X 9319   5.332   6.001   7.339
   94SAPS  H11Y 9320   5.423   5.875   7.431
   94SAPS  C312 9321   5.234   5.893   7.508
   94SAPS  H12X 9322   5.230   5.791   7.552
   94SAPS  H12Y 9323   5.131   5.920   7.478
   94SAPS  C313 9324   5.280   6.003   7.615
   94SAPS  H13X 9325   5.385   5.972   7.635
   94SAPS  H13Y 9326   5.225   6.007   7.711
   94SAPS  C314 9327   5.268   6.145   7.562
   94SAPS  H14X 9328   5.162   6.149   7.530
   94SAPS  H14Y 9329   5.321   6.160   7.465
   94SAPS  C315 9330   5.315   6.265   7.649
   94SAPS  H15X 9331   5.410   6.238   7.699
   94SAPS  H15Y 9332   5.247   6.286   7.734
   94SAPS  C316 9333   5.333   6.390   7.565
   94SAPS  H16X 9334   5.376   6.363   7.466
   94SAPS  H16Y 9335   5.394   6.464   7.623
   94SAPS  C317 9336   5.196   6.449   7.517
   94SAPS  H17X 9337   5.150   6.385   7.439
   94SAPS  H17Y 9338   5.206   6.545   7.463
   94SAPS  C318 9339   5.106   6.482   7.632
   94SAPS  H18X 9340   5.024   6.546   7.591
   94SAPS  H18Y 9341   5.163   6.548   7.701
   94SAPS  H18Z 9342   5.071   6.394   7.690
   95SAPS     N 9343   2.335   3.544   5.980
   95SAPS   HN1 9344   2.261   3.607   5.943
   95SAPS   HN2 9345   2.320   3.535   6.082
   95SAPS   HN3 9346   2.425   3.597   5.978
   95SAPS   C12 9347   2.329   3.404   5.916
   95SAPS  H12A 9348   2.229   3.365   5.934
   95SAPS   C13 9349   2.371   3.400   5.769
   95SAPS  O13A 9350   2.409   3.500   5.703
   95SAPS  O13B 9351   2.371   3.292   5.707
   95SAPS   C11 9352   2.442   3.323   5.991
   95SAPS  H11A 9353   2.545   3.354   5.965
   95SAPS  H11B 9354   2.432   3.219   5.955
   95SAPS     P 9355   2.509   3.268   6.232
   95SAPS   O13 9356   2.514   3.123   6.214
   95SAPS   O14 9357   2.640   3.331   6.237
   95SAPS   O12 9358   2.413   3.337   6.132
   95SAPS   O11 9359   2.438   3.294   6.366
   95SAPS    C1 9360   2.295   3.302   6.383
   95SAPS    HA 9361   2.258   3.371   6.304
   95SAPS    HB 9362   2.250   3.202   6.369
   95SAPS    C2 9363   2.248   3.349   6.523
   95SAPS    HS 9364   2.302   3.445   6.539
   95SAPS   O21 9365   2.275   3.247   6.629
   95SAPS   C21 9366   2.308   3.297   6.748
   95SAPS   O22 9367   2.335   3.416   6.770
   95SAPS   C22 9368   2.302   3.190   6.849
   95SAPS   H2R 9369   2.210   3.211   6.908
   95SAPS   H2S 9370   2.295   3.092   6.798
   95SAPS    C3 9371   2.098   3.369   6.525
   95SAPS    HX 9372   2.054   3.277   6.481
   95SAPS    HY 9373   2.078   3.438   6.440
   95SAPS   O31 9374   2.049   3.408   6.651
   95SAPS   C31 9375   1.928   3.461   6.636
   95SAPS   O32 9376   1.860   3.460   6.535
   95SAPS   C32 9377   1.887   3.505   6.768
   95SAPS   H2X 9378   1.940   3.599   6.796
   95SAPS   H2Y 9379   1.914   3.427   6.843
   95SAPS   C23 9380   2.433   3.184   6.935
   95SAPS   H3R 9381   2.441   3.278   6.992
   95SAPS   H3S 9382   2.515   3.164   6.863
   95SAPS   C24 9383   2.432   3.069   7.038
   95SAPS   H4R 9384   2.408   2.982   6.972
   95SAPS   H4S 9385   2.339   3.063   7.099
   95SAPS   C25 9386   2.565   3.070   7.108
   95SAPS   H5R 9387   2.656   3.048   7.050
   95SAPS   C26 9388   2.589   3.115   7.237
   95SAPS   H6R 9389   2.689   3.086   7.271
   95SAPS   C27 9390   2.492   3.149   7.347
   95SAPS   H7R 9391   2.405   3.204   7.307
   95SAPS   H7S 9392   2.534   3.230   7.411
   95SAPS   C28 9393   2.441   3.037   7.430
   95SAPS   H8R 9394   2.434   2.936   7.386
   95SAPS   C29 9395   2.407   3.036   7.557
   95SAPS   H9R 9396   2.364   2.944   7.599
   95SAPS  C210 9397   2.425   3.156   7.649
   95SAPS  H10R 9398   2.324   3.188   7.682
   95SAPS  H10S 9399   2.472   3.247   7.606
   95SAPS  C211 9400   2.506   3.110   7.765
   95SAPS  H11R 9401   2.588   3.039   7.745
   95SAPS  C212 9402   2.493   3.140   7.895
   95SAPS  H12R 9403   2.559   3.098   7.972
   95SAPS  C213 9404   2.410   3.240   7.973
   95SAPS  H13R 9405   2.330   3.286   7.910
   95SAPS  H13S 9406   2.477   3.322   8.006
   95SAPS  C214 9407   2.350   3.179   8.100
   95SAPS  H14R 9408   2.265   3.110   8.089
   95SAPS  C215 9409   2.402   3.193   8.227
   95SAPS  H15R 9410   2.366   3.132   8.311
   95SAPS  C216 9411   2.508   3.295   8.270
   95SAPS  H16R 9412   2.491   3.387   8.210
   95SAPS  H16S 9413   2.613   3.264   8.250
   95SAPS  C217 9414   2.505   3.332   8.421
   95SAPS  H17R 9415   2.589   3.400   8.446
   95SAPS  H17S 9416   2.528   3.238   8.476
   95SAPS  C218 9417   2.380   3.401   8.467
   95SAPS  H18R 9418   2.289   3.344   8.438
   95SAPS  H18S 9419   2.379   3.500   8.417
   95SAPS  C219 9420   2.389   3.449   8.616
   95SAPS  H19R 9421   2.485   3.501   8.637
   95SAPS  H19S 9422   2.399   3.352   8.669
   95SAPS  C220 9423   2.264   3.533   8.662
   95SAPS  H20R 9424   2.271   3.565   8.768
   95SAPS  H20S 9425   2.173   3.476   8.636
   95SAPS  H20T 9426   2.259   3.631   8.610
   95SAPS   C33 9427   1.731   3.522   6.783
   95SAPS   H3X 9428   1.686   3.543   6.684
   95SAPS   H3Y 9429   1.713   3.613   6.844
   95SAPS   C34 9430   1.662   3.393   6.832
   95SAPS   H4X 9431   1.712   3.304   6.787
   95SAPS   H4Y 9432   1.555   3.402   6.800
   95SAPS   C35 9433   1.662   3.387   6.978
   95SAPS   H5X 9434   1.641   3.485   7.025
   95SAPS   H5Y 9435   1.765   3.370   7.017
   95SAPS   C36 9436   1.557   3.286   7.040
   95SAPS   H6X 9437   1.562   3.192   6.981
   95SAPS   H6Y 9438   1.454   3.326   7.026
   95SAPS   C37 9439   1.580   3.252   7.192
   95SAPS   H7X 9440   1.572   3.343   7.255
   95SAPS   H7Y 9441   1.686   3.219   7.206
   95SAPS   C38 9442   1.476   3.153   7.243
   95SAPS   H8X 9443   1.480   3.054   7.192
   95SAPS   H8Y 9444   1.378   3.193   7.210
   95SAPS   C39 9445   1.477   3.131   7.398
   95SAPS   H9X 9446   1.575   3.093   7.433
   95SAPS   H9Y 9447   1.400   3.059   7.432
   95SAPS  C310 9448   1.441   3.264   7.473
   95SAPS  H10X 9449   1.356   3.310   7.418
   95SAPS  H10Y 9450   1.528   3.333   7.472
   95SAPS  C311 9451   1.405   3.234   7.615
   95SAPS  H11X 9452   1.491   3.180   7.659
   95SAPS  H11Y 9453   1.316   3.167   7.612
   95SAPS  C312 9454   1.376   3.354   7.703
   95SAPS  H12X 9455   1.315   3.432   7.653
   95SAPS  H12Y 9456   1.473   3.400   7.732
   95SAPS  C313 9457   1.302   3.306   7.829
   95SAPS  H13X 9458   1.292   3.400   7.888
   95SAPS  H13Y 9459   1.368   3.239   7.888
   95SAPS  C314 9460   1.161   3.245   7.812
   95SAPS  H14X 9461   1.165   3.138   7.783
   95SAPS  H14Y 9462   1.095   3.306   7.747
   95SAPS  C315 9463   1.073   3.253   7.947
   95SAPS  H15X 9464   0.983   3.192   7.926
   95SAPS  H15Y 9465   1.044   3.357   7.974
   95SAPS  C316 9466   1.160   3.213   8.071
   95SAPS  H16X 9467   1.240   3.289   8.086
   95SAPS  H16Y 9468   1.216   3.118   8.057
   95SAPS  C317 9469   1.082   3.203   8.202
   95SAPS  H17X 9470   1.005   3.123   8.207
   95SAPS  H17Y 9471   1.026   3.299   8.210
   95SAPS  C318 9472   1.174   3.185   8.316
   95SAPS  H18X 9473   1.121   3.178   8.413
   95SAPS  H18Y 9474   1.256   3.260   8.324
   95SAPS  H18Z 9475   1.225   3.087   8.303
   96SAPS     N 9476   2.103   4.703   6.325
   96SAPS   HN1 9477   2.149   4.761   6.253
   96SAPS   HN2 9478   2.025   4.656   6.275
   96SAPS   HN3 9479   2.073   4.765   6.404
   96SAPS   C12 9480   2.206   4.613   6.368
   96SAPS  H12A 9481   2.180   4.561   6.460
   96SAPS   C13 9482   2.240   4.495   6.269
   96SAPS  O13A 9483   2.169   4.481   6.168
   96SAPS  O13B 9484   2.334   4.414   6.309
   96SAPS   C11 9485   2.327   4.697   6.397
   96SAPS  H11A 9486   2.400   4.633   6.450
   96SAPS  H11B 9487   2.301   4.773   6.474
   96SAPS     P 9488   2.468   4.883   6.293
   96SAPS   O13 9489   2.557   4.894   6.172
   96SAPS   O14 9490   2.372   4.995   6.313
   96SAPS   O12 9491   2.383   4.752   6.277
   96SAPS   O11 9492   2.561   4.865   6.423
   96SAPS    C1 9493   2.676   4.781   6.437
   96SAPS    HA 9494   2.643   4.681   6.404
   96SAPS    HB 9495   2.744   4.808   6.354
   96SAPS    C2 9496   2.743   4.778   6.576
   96SAPS    HS 9497   2.834   4.714   6.565
   96SAPS   O21 9498   2.652   4.719   6.667
   96SAPS   C21 9499   2.678   4.598   6.723
   96SAPS   O22 9500   2.788   4.543   6.717
   96SAPS   C22 9501   2.553   4.542   6.783
   96SAPS   H2R 9502   2.467   4.612   6.793
   96SAPS   H2S 9503   2.507   4.456   6.729
   96SAPS    C3 9504   2.777   4.924   6.607
   96SAPS    HX 9505   2.696   4.995   6.579
   96SAPS    HY 9506   2.859   4.947   6.534
   96SAPS   O31 9507   2.821   4.941   6.743
   96SAPS   C31 9508   2.950   4.917   6.773
   96SAPS   O32 9509   3.039   4.905   6.693
   96SAPS   C32 9510   2.957   4.897   6.929
   96SAPS   H2X 9511   2.866   4.841   6.961
   96SAPS   H2Y 9512   2.942   5.002   6.961
   96SAPS   C23 9513   2.565   4.500   6.928
   96SAPS   H3R 9514   2.644   4.422   6.935
   96SAPS   H3S 9515   2.470   4.455   6.963
   96SAPS   C24 9516   2.621   4.609   7.013
   96SAPS   H4R 9517   2.704   4.661   6.961
   96SAPS   H4S 9518   2.676   4.571   7.102
   96SAPS   C25 9519   2.503   4.704   7.043
   96SAPS   H5R 9520   2.445   4.725   6.952
   96SAPS   C26 9521   2.468   4.745   7.164
   96SAPS   H6R 9522   2.382   4.813   7.167
   96SAPS   C27 9523   2.544   4.726   7.293
   96SAPS   H7R 9524   2.539   4.819   7.353
   96SAPS   H7S 9525   2.651   4.736   7.264
   96SAPS   C28 9526   2.506   4.606   7.371
   96SAPS   H8R 9527   2.443   4.529   7.324
   96SAPS   C29 9528   2.518   4.592   7.507
   96SAPS   H9R 9529   2.488   4.494   7.546
   96SAPS  C210 9530   2.569   4.696   7.601
   96SAPS  H10R 9531   2.626   4.780   7.556
   96SAPS  H10S 9532   2.626   4.644   7.680
   96SAPS  C211 9533   2.447   4.773   7.658
   96SAPS  H11R 9534   2.381   4.818   7.582
   96SAPS  C212 9535   2.409   4.794   7.781
   96SAPS  H12R 9536   2.322   4.858   7.798
   96SAPS  C213 9537   2.470   4.730   7.901
   96SAPS  H13R 9538   2.510   4.808   7.969
   96SAPS  H13S 9539   2.559   4.673   7.865
   96SAPS  C214 9540   2.369   4.648   7.973
   96SAPS  H14R 9541   2.296   4.601   7.906
   96SAPS  C215 9542   2.352   4.633   8.107
   96SAPS  H15R 9543   2.272   4.568   8.144
   96SAPS  C216 9544   2.438   4.681   8.221
   96SAPS  H16R 9545   2.404   4.774   8.273
   96SAPS  H16S 9546   2.536   4.714   8.179
   96SAPS  C217 9547   2.473   4.577   8.330
   96SAPS  H17R 9548   2.582   4.587   8.352
   96SAPS  H17S 9549   2.445   4.472   8.309
   96SAPS  C218 9550   2.411   4.605   8.473
   96SAPS  H18R 9551   2.425   4.711   8.502
   96SAPS  H18S 9552   2.471   4.557   8.553
   96SAPS  C219 9553   2.264   4.560   8.489
   96SAPS  H19R 9554   2.261   4.456   8.450
   96SAPS  H19S 9555   2.207   4.619   8.414
   96SAPS  C220 9556   2.199   4.570   8.617
   96SAPS  H20R 9557   2.245   4.517   8.703
   96SAPS  H20S 9558   2.099   4.521   8.616
   96SAPS  H20T 9559   2.188   4.676   8.649
   96SAPS   C33 9560   3.087   4.835   6.978
   96SAPS   H3X 9561   3.163   4.886   6.915
   96SAPS   H3Y 9562   3.100   4.727   6.954
   96SAPS   C34 9563   3.103   4.856   7.125
   96SAPS   H4X 9564   3.110   4.965   7.148
   96SAPS   H4Y 9565   3.202   4.816   7.156
   96SAPS   C35 9566   2.991   4.796   7.209
   96SAPS   H5X 9567   2.974   4.698   7.160
   96SAPS   H5Y 9568   2.902   4.861   7.222
   96SAPS   C36 9569   3.050   4.758   7.349
   96SAPS   H6X 9570   3.122   4.834   7.387
   96SAPS   H6Y 9571   3.088   4.653   7.340
   96SAPS   C37 9572   2.942   4.753   7.458
   96SAPS   H7X 9573   2.872   4.668   7.442
   96SAPS   H7Y 9574   2.899   4.855   7.458
   96SAPS   C38 9575   3.012   4.728   7.590
   96SAPS   H8X 9576   3.100   4.794   7.606
   96SAPS   H8Y 9577   3.042   4.621   7.591
   96SAPS   C39 9578   2.921   4.771   7.707
   96SAPS   H9X 9579   2.830   4.708   7.710
   96SAPS   H9Y 9580   2.903   4.880   7.699
   96SAPS  C310 9581   2.996   4.755   7.840
   96SAPS  H10X 9582   3.075   4.831   7.861
   96SAPS  H10Y 9583   3.043   4.655   7.833
   96SAPS  C311 9584   2.892   4.745   7.952
   96SAPS  H11X 9585   2.818   4.666   7.925
   96SAPS  H11Y 9586   2.838   4.841   7.960
   96SAPS  C312 9587   2.964   4.705   8.085
   96SAPS  H12X 9588   3.064   4.754   8.095
   96SAPS  H12Y 9589   2.987   4.596   8.094
   96SAPS  C313 9590   2.872   4.746   8.201
   96SAPS  H13X 9591   2.776   4.693   8.185
   96SAPS  H13Y 9592   2.868   4.857   8.205
   96SAPS  C314 9593   2.931   4.707   8.339
   96SAPS  H14X 9594   3.034   4.745   8.355
   96SAPS  H14Y 9595   2.930   4.596   8.337
   96SAPS  C315 9596   2.853   4.775   8.445
   96SAPS  H15X 9597   2.744   4.771   8.428
   96SAPS  H15Y 9598   2.878   4.883   8.436
   96SAPS  C316 9599   2.900   4.730   8.589
   96SAPS  H16X 9600   2.855   4.805   8.658
   96SAPS  H16Y 9601   3.010   4.720   8.596
   96SAPS  C317 9602   2.843   4.600   8.635
   96SAPS  H17X 9603   2.850   4.517   8.561
   96SAPS  H17Y 9604   2.738   4.623   8.661
   96SAPS  C318 9605   2.908   4.551   8.764
   96SAPS  H18X 9606   2.902   4.623   8.848
   96SAPS  H18Y 9607   3.017   4.536   8.754
   96SAPS  H18Z 9608   2.860   4.456   8.796
   97SAPS     N 9609   3.093   2.729   6.333
   97SAPS   HN1 9610   3.119   2.817   6.382
   97SAPS   HN2 9611   3.003   2.737   6.282
   97SAPS   HN3 9612   3.095   2.656   6.406
   97SAPS   C12 9613   3.187   2.695   6.230
   97SAPS  H12A 9614   3.170   2.599   6.185
   97SAPS   C13 9615   3.216   2.802   6.116
   97SAPS  O13A 9616   3.142   2.908   6.112
   97SAPS  O13B 9617   3.293   2.769   6.024
   97SAPS   C11 9618   3.332   2.679   6.294
   97SAPS  H11A 9619   3.358   2.779   6.335
   97SAPS  H11B 9620   3.397   2.652   6.208
   97SAPS     P 9621   3.472   2.522   6.451
   97SAPS   O13 9622   3.464   2.376   6.437
   97SAPS   O14 9623   3.582   2.596   6.385
   97SAPS   O12 9624   3.332   2.575   6.399
   97SAPS   O11 9625   3.459   2.566   6.602
   97SAPS    C1 9626   3.454   2.706   6.623
   97SAPS    HA 9627   3.534   2.761   6.568
   97SAPS    HB 9628   3.367   2.763   6.584
   97SAPS    C2 9629   3.468   2.747   6.778
   97SAPS    HS 9630   3.517   2.846   6.793
   97SAPS   O21 9631   3.566   2.648   6.831
   97SAPS   C21 9632   3.697   2.655   6.803
   97SAPS   O22 9633   3.751   2.742   6.741
   97SAPS   C22 9634   3.770   2.530   6.847
   97SAPS   H2R 9635   3.695   2.457   6.884
   97SAPS   H2S 9636   3.817   2.491   6.755
   97SAPS    C3 9637   3.344   2.742   6.862
   97SAPS    HX 9638   3.311   2.637   6.847
   97SAPS    HY 9639   3.269   2.808   6.814
   97SAPS   O31 9640   3.377   2.783   6.996
   97SAPS   C31 9641   3.400   2.681   7.080
   97SAPS   O32 9642   3.392   2.563   7.056
   97SAPS   C32 9643   3.453   2.738   7.213
   97SAPS   H2X 9644   3.445   2.849   7.209
   97SAPS   H2Y 9645   3.558   2.707   7.229
   97SAPS   C23 9646   3.879   2.553   6.944
   97SAPS   H3R 9647   3.948   2.634   6.911
   97SAPS   H3S 9648   3.935   2.457   6.943
   97SAPS   C24 9649   3.823   2.599   7.088
   97SAPS   H4R 9650   3.740   2.536   7.125
   97SAPS   H4S 9651   3.772   2.695   7.068
   97SAPS   C25 9652   3.933   2.614   7.193
   97SAPS   H5R 9653   4.016   2.684   7.177
   97SAPS   C26 9654   3.924   2.559   7.320
   97SAPS   H6R 9655   4.004   2.590   7.388
   97SAPS   C27 9656   3.813   2.472   7.383
   97SAPS   H7R 9657   3.814   2.371   7.337
   97SAPS   H7S 9658   3.709   2.505   7.363
   97SAPS   C28 9659   3.825   2.442   7.529
   97SAPS   H8R 9660   3.849   2.336   7.545
   97SAPS   C29 9661   3.823   2.524   7.634
   97SAPS   H9R 9662   3.836   2.484   7.736
   97SAPS  C210 9663   3.786   2.674   7.624
   97SAPS  H10R 9664   3.692   2.688   7.681
   97SAPS  H10S 9665   3.766   2.710   7.520
   97SAPS  C211 9666   3.905   2.752   7.686
   97SAPS  H11R 9667   3.974   2.793   7.610
   97SAPS  C212 9668   3.928   2.761   7.817
   97SAPS  H12R 9669   4.022   2.811   7.843
   97SAPS  C213 9670   3.853   2.707   7.936
   97SAPS  H13R 9671   3.773   2.632   7.917
   97SAPS  H13S 9672   3.776   2.779   7.971
   97SAPS  C214 9673   3.922   2.661   8.059
   97SAPS  H14R 9674   3.928   2.551   8.066
   97SAPS  C215 9675   3.972   2.736   8.155
   97SAPS  H15R 9676   4.022   2.693   8.243
   97SAPS  C216 9677   3.963   2.883   8.156
   97SAPS  H16R 9678   3.941   2.927   8.056
   97SAPS  H16S 9679   4.064   2.926   8.177
   97SAPS  C217 9680   3.875   2.959   8.260
   97SAPS  H17R 9681   3.773   2.918   8.246
   97SAPS  H17S 9682   3.867   3.061   8.216
   97SAPS  C218 9683   3.927   2.965   8.403
   97SAPS  H18R 9684   3.868   3.035   8.465
   97SAPS  H18S 9685   4.030   3.008   8.407
   97SAPS  C219 9686   3.937   2.831   8.474
   97SAPS  H19R 9687   3.890   2.750   8.414
   97SAPS  H19S 9688   3.888   2.840   8.574
   97SAPS  C220 9689   4.079   2.779   8.505
   97SAPS  H20R 9690   4.131   2.848   8.575
   97SAPS  H20S 9691   4.123   2.777   8.403
   97SAPS  H20T 9692   4.082   2.675   8.543
   97SAPS   C33 9693   3.371   2.680   7.326
   97SAPS   H3X 9694   3.414   2.583   7.357
   97SAPS   H3Y 9695   3.269   2.656   7.292
   97SAPS   C34 9696   3.363   2.783   7.438
   97SAPS   H4X 9697   3.309   2.870   7.396
   97SAPS   H4Y 9698   3.469   2.816   7.446
   97SAPS   C35 9699   3.316   2.741   7.578
   97SAPS   H5X 9700   3.349   2.639   7.607
   97SAPS   H5Y 9701   3.206   2.730   7.583
   97SAPS   C36 9702   3.371   2.847   7.684
   97SAPS   H6X 9703   3.321   2.943   7.657
   97SAPS   H6Y 9704   3.481   2.846   7.671
   97SAPS   C37 9705   3.324   2.814   7.834
   97SAPS   H7X 9706   3.215   2.809   7.853
   97SAPS   H7Y 9707   3.367   2.895   7.897
   97SAPS   C38 9708   3.389   2.681   7.886
   97SAPS   H8X 9709   3.500   2.688   7.879
   97SAPS   H8Y 9710   3.367   2.591   7.825
   97SAPS   C39 9711   3.340   2.648   8.028
   97SAPS   H9X 9712   3.231   2.633   8.018
   97SAPS   H9Y 9713   3.363   2.740   8.086
   97SAPS  C310 9714   3.401   2.526   8.097
   97SAPS  H10X 9715   3.402   2.441   8.025
   97SAPS  H10Y 9716   3.340   2.499   8.186
   97SAPS  C311 9717   3.544   2.544   8.139
   97SAPS  H11X 9718   3.537   2.630   8.208
   97SAPS  H11Y 9719   3.610   2.563   8.052
   97SAPS  C312 9720   3.586   2.423   8.225
   97SAPS  H12X 9721   3.593   2.339   8.154
   97SAPS  H12Y 9722   3.513   2.380   8.297
   97SAPS  C313 9723   3.723   2.436   8.281
   97SAPS  H13X 9724   3.735   2.527   8.344
   97SAPS  H13Y 9725   3.797   2.437   8.198
   97SAPS  C314 9726   3.742   2.320   8.374
   97SAPS  H14X 9727   3.750   2.223   8.320
   97SAPS  H14Y 9728   3.653   2.323   8.442
   97SAPS  C315 9729   3.854   2.349   8.479
   97SAPS  H15X 9730   3.859   2.264   8.551
   97SAPS  H15Y 9731   3.827   2.438   8.539
   97SAPS  C316 9732   3.989   2.374   8.413
   97SAPS  H16X 9733   3.989   2.483   8.393
   97SAPS  H16Y 9734   4.016   2.314   8.324
   97SAPS  C317 9735   4.110   2.337   8.508
   97SAPS  H17X 9736   4.096   2.229   8.529
   97SAPS  H17Y 9737   4.101   2.393   8.604
   97SAPS  C318 9738   4.247   2.369   8.444
   97SAPS  H18X 9739   4.235   2.459   8.380
   97SAPS  H18Y 9740   4.283   2.282   8.386
   97SAPS  H18Z 9741   4.320   2.389   8.526
   98SAPS     N 9742   1.734   2.897   5.871
   98SAPS   HN1 9743   1.691   2.832   5.941
   98SAPS   HN2 9744   1.791   2.841   5.804
   98SAPS   HN3 9745   1.804   2.955   5.921
   98SAPS   C12 9746   1.640   2.989   5.802
   98SAPS  H12A 9747   1.693   3.060   5.740
   98SAPS   C13 9748   1.528   2.924   5.708
   98SAPS  O13A 9749   1.518   2.800   5.697
   98SAPS  O13B 9750   1.451   2.999   5.641
   98SAPS   C11 9751   1.575   3.079   5.911
   98SAPS  H11A 9752   1.521   3.014   5.983
   98SAPS  H11B 9753   1.500   3.140   5.857
   98SAPS     P 9754   1.652   3.257   6.081
   98SAPS   O13 9755   1.772   3.339   6.113
   98SAPS   O14 9756   1.529   3.329   6.040
   98SAPS   O12 9757   1.680   3.150   5.970
   98SAPS   O11 9758   1.624   3.180   6.200
   98SAPS    C1 9759   1.674   3.049   6.225
   98SAPS    HA 9760   1.595   2.970   6.229
   98SAPS    HB 9761   1.753   3.010   6.157
   98SAPS    C2 9762   1.739   3.037   6.362
   98SAPS    HS 9763   1.779   2.933   6.369
   98SAPS   O21 9764   1.638   3.069   6.456
   98SAPS   C21 9765   1.623   2.991   6.558
   98SAPS   O22 9766   1.684   2.883   6.570
   98SAPS   C22 9767   1.546   3.062   6.665
   98SAPS   H2R 9768   1.565   3.014   6.764
   98SAPS   H2S 9769   1.565   3.171   6.653
   98SAPS    C3 9770   1.866   3.120   6.401
   98SAPS    HX 9771   1.844   3.228   6.381
   98SAPS    HY 9772   1.948   3.084   6.336
   98SAPS   O31 9773   1.904   3.117   6.541
   98SAPS   C31 9774   1.993   3.016   6.561
   98SAPS   O32 9775   2.042   2.945   6.475
   98SAPS   C32 9776   2.022   2.989   6.709
   98SAPS   H2X 9777   2.083   3.078   6.733
   98SAPS   H2Y 9778   2.086   2.898   6.704
   98SAPS   C23 9779   1.398   3.058   6.638
   98SAPS   H3R 9780   1.370   2.954   6.613
   98SAPS   H3S 9781   1.369   3.120   6.550
   98SAPS   C24 9782   1.320   3.117   6.751
   98SAPS   H4R 9783   1.334   3.227   6.752
   98SAPS   H4S 9784   1.359   3.078   6.848
   98SAPS   C25 9785   1.178   3.078   6.738
   98SAPS   H5R 9786   1.138   3.087   6.636
   98SAPS   C26 9787   1.094   3.044   6.839
   98SAPS   H6R 9788   0.989   3.033   6.806
   98SAPS   C27 9789   1.119   3.045   6.989
   98SAPS   H7R 9790   1.052   3.123   7.032
   98SAPS   H7S 9791   1.222   3.081   7.009
   98SAPS   C28 9792   1.087   2.909   7.043
   98SAPS   H8R 9793   1.029   2.845   6.974
   98SAPS   C29 9794   1.122   2.868   7.164
   98SAPS   H9R 9795   1.088   2.770   7.199
   98SAPS  C210 9796   1.201   2.942   7.272
   98SAPS  H10R 9797   1.243   3.040   7.240
   98SAPS  H10S 9798   1.289   2.882   7.303
   98SAPS  C211 9799   1.108   2.981   7.379
   98SAPS  H11R 9800   1.041   3.061   7.345
   98SAPS  C212 9801   1.095   2.928   7.501
   98SAPS  H12R 9802   1.003   2.953   7.556
   98SAPS  C213 9803   1.178   2.821   7.558
   98SAPS  H13R 9804   1.281   2.857   7.538
   98SAPS  H13S 9805   1.164   2.730   7.496
   98SAPS  C214 9806   1.142   2.794   7.702
   98SAPS  H14R 9807   1.041   2.751   7.710
   98SAPS  C215 9808   1.216   2.809   7.814
   98SAPS  H15R 9809   1.178   2.797   7.916
   98SAPS  C216 9810   1.347   2.873   7.816
   98SAPS  H16R 9811   1.339   2.981   7.792
   98SAPS  H16S 9812   1.410   2.832   7.735
   98SAPS  C217 9813   1.411   2.882   7.958
   98SAPS  H17R 9814   1.438   2.780   7.993
   98SAPS  H17S 9815   1.334   2.921   8.028
   98SAPS  C218 9816   1.521   2.989   7.960
   98SAPS  H18R 9817   1.487   3.075   7.898
   98SAPS  H18S 9818   1.613   2.953   7.908
   98SAPS  C219 9819   1.573   3.035   8.097
   98SAPS  H19R 9820   1.483   3.057   8.159
   98SAPS  H19S 9821   1.621   3.135   8.090
   98SAPS  C220 9822   1.659   2.942   8.183
   98SAPS  H20R 9823   1.611   2.845   8.207
   98SAPS  H20S 9824   1.672   2.994   8.280
   98SAPS  H20T 9825   1.749   2.916   8.123
   98SAPS   C33 9826   1.900   2.982   6.801
   98SAPS   H3X 9827   1.835   2.897   6.772
   98SAPS   H3Y 9828   1.836   3.072   6.784
   98SAPS   C34 9829   1.917   2.968   6.959
   98SAPS   H4X 9830   1.999   2.895   6.974
   98SAPS   H4Y 9831   1.822   2.919   6.991
   98SAPS   C35 9832   1.950   3.094   7.036
   98SAPS   H5X 9833   1.880   3.177   7.009
   98SAPS   H5Y 9834   2.047   3.127   6.994
   98SAPS   C36 9835   1.961   3.055   7.184
   98SAPS   H6X 9836   2.022   2.962   7.193
   98SAPS   H6Y 9837   1.861   3.029   7.226
   98SAPS   C37 9838   2.040   3.158   7.260
   98SAPS   H7X 9839   1.974   3.246   7.276
   98SAPS   H7Y 9840   2.130   3.191   7.203
   98SAPS   C38 9841   2.073   3.094   7.394
   98SAPS   H8X 9842   2.145   3.165   7.439
   98SAPS   H8Y 9843   2.131   2.999   7.385
   98SAPS   C39 9844   1.952   3.086   7.489
   98SAPS   H9X 9845   1.874   3.025   7.438
   98SAPS   H9Y 9846   1.905   3.186   7.505
   98SAPS  C310 9847   1.981   3.025   7.628
   98SAPS  H10X 9848   2.063   3.079   7.680
   98SAPS  H10Y 9849   2.007   2.918   7.619
   98SAPS  C311 9850   1.855   3.036   7.726
   98SAPS  H11X 9851   1.771   2.974   7.687
   98SAPS  H11Y 9852   1.815   3.139   7.716
   98SAPS  C312 9853   1.883   2.983   7.868
   98SAPS  H12X 9854   1.903   2.874   7.873
   98SAPS  H12Y 9855   1.800   3.003   7.939
   98SAPS  C313 9856   1.989   3.070   7.949
   98SAPS  H13X 9857   1.975   3.174   7.914
   98SAPS  H13Y 9858   2.085   3.037   7.903
   98SAPS  C314 9859   1.994   3.061   8.105
   98SAPS  H14X 9860   1.888   3.069   8.136
   98SAPS  H14Y 9861   2.054   3.138   8.158
   98SAPS  C315 9862   2.055   2.925   8.163
   98SAPS  H15X 9863   2.156   2.917   8.116
   98SAPS  H15Y 9864   1.997   2.836   8.130
   98SAPS  C316 9865   2.081   2.914   8.314
   98SAPS  H16X 9866   2.123   3.007   8.357
   98SAPS  H16Y 9867   2.152   2.831   8.335
   98SAPS  C317 9868   1.958   2.872   8.395
   98SAPS  H17X 9869   1.895   2.818   8.321
   98SAPS  H17Y 9870   1.906   2.966   8.422
   98SAPS  C318 9871   1.998   2.793   8.517
   98SAPS  H18X 9872   2.040   2.692   8.497
   98SAPS  H18Y 9873   1.917   2.764   8.587
   98SAPS  H18Z 9874   2.076   2.848   8.572
   99SAPS     N 9875   0.860   6.597   5.950
   99SAPS   HN1 9876   0.860   6.576   6.052
   99SAPS   HN2 9877   0.762   6.582   5.917
   99SAPS   HN3 9878   0.910   6.523   5.897
   99SAPS   C12 9879   0.914   6.735   5.925
   99SAPS  H12A 9880   1.017   6.725   5.957
   99SAPS   C13 9881   0.911   6.771   5.781
   99SAPS  O13A 9882   0.880   6.685   5.696
   99SAPS  O13B 9883   0.962   6.880   5.744
   99SAPS   C11 9884   0.847   6.841   6.029
   99SAPS  H11A 9885   0.744   6.844   5.986
   99SAPS  H11B 9886   0.901   6.937   6.017
   99SAPS     P 9887   0.710   6.748   6.227
   99SAPS   O13 9888   0.599   6.828   6.180
   99SAPS   O14 9889   0.704   6.602   6.212
   99SAPS   O12 9890   0.851   6.791   6.161
   99SAPS   O11 9891   0.735   6.791   6.385
   99SAPS    C1 9892   0.827   6.707   6.455
   99SAPS    HA 9893   0.774   6.617   6.492
   99SAPS    HB 9894   0.918   6.693   6.393
   99SAPS    C2 9895   0.865   6.785   6.596
   99SAPS    HS 9896   0.930   6.714   6.651
   99SAPS   O21 9897   0.744   6.813   6.672
   99SAPS   C21 9898   0.715   6.710   6.753
   99SAPS   O22 9899   0.767   6.604   6.755
   99SAPS   C22 9900   0.606   6.755   6.854
   99SAPS   H2R 9901   0.550   6.844   6.821
   99SAPS   H2S 9902   0.535   6.670   6.862
   99SAPS    C3 9903   0.953   6.916   6.569
   99SAPS    HX 9904   0.889   6.984   6.509
   99SAPS    HY 9905   1.030   6.888   6.493
   99SAPS   O31 9906   1.015   6.984   6.688
   99SAPS   C31 9907   0.934   7.078   6.741
   99SAPS   O32 9908   0.817   7.079   6.722
   99SAPS   C32 9909   1.018   7.181   6.836
   99SAPS   H2X 9910   1.010   7.153   6.943
   99SAPS   H2Y 9911   0.972   7.280   6.816
   99SAPS   C23 9912   0.677   6.801   6.985
   99SAPS   H3R 9913   0.725   6.900   6.968
   99SAPS   H3S 9914   0.752   6.725   7.017
   99SAPS   C24 9915   0.576   6.817   7.110
   99SAPS   H4R 9916   0.507   6.899   7.079
   99SAPS   H4S 9917   0.641   6.862   7.188
   99SAPS   C25 9918   0.503   6.702   7.159
   99SAPS   H5R 9919   0.451   6.635   7.089
   99SAPS   C26 9920   0.488   6.670   7.293
   99SAPS   H6R 9921   0.425   6.587   7.328
   99SAPS   C27 9922   0.535   6.750   7.408
   99SAPS   H7R 9923   0.479   6.843   7.384
   99SAPS   H7S 9924   0.642   6.781   7.402
   99SAPS   C28 9925   0.507   6.699   7.545
   99SAPS   H8R 9926   0.575   6.616   7.569
   99SAPS   C29 9927   0.432   6.752   7.637
   99SAPS   H9R 9928   0.414   6.692   7.728
   99SAPS  C210 9929   0.338   6.876   7.619
   99SAPS  H10R 9930   0.326   6.906   7.512
   99SAPS  H10S 9931   0.386   6.966   7.664
   99SAPS  C211 9932   0.199   6.842   7.678
   99SAPS  H11R 9933   0.124   6.793   7.615
   99SAPS  C212 9934   0.159   6.885   7.805
   99SAPS  H12R 9935   0.062   6.849   7.844
   99SAPS  C213 9936   0.244   6.968   7.900
   99SAPS  H13R 9937   0.341   6.998   7.857
   99SAPS  H13S 9938   0.262   6.895   7.983
   99SAPS  C214 9939   0.165   7.085   7.948
   99SAPS  H14R 9940   0.147   7.164   7.875
   99SAPS  C215 9941   0.113   7.105   8.069
   99SAPS  H15R 9942   0.063   7.200   8.095
   99SAPS  C216 9943   0.117   7.017   8.191
   99SAPS  H16R 9944   0.168   6.921   8.171
   99SAPS  H16S 9945   0.013   6.987   8.216
   99SAPS  C217 9946   0.156   7.086   8.323
   99SAPS  H17R 9947   0.163   7.003   8.397
   99SAPS  H17S 9948   0.082   7.167   8.341
   99SAPS  C218 9949   0.290   7.159   8.324
   99SAPS  H18R 9950   0.283   7.243   8.252
   99SAPS  H18S 9951   0.371   7.091   8.290
   99SAPS  C219 9952   0.328   7.230   8.450
   99SAPS  H19R 9953   0.370   7.166   8.530
   99SAPS  H19S 9954   0.236   7.270   8.497
   99SAPS  C220 9955   0.426   7.345   8.420
   99SAPS  H20R 9956   0.517   7.297   8.379
   99SAPS  H20S 9957   0.452   7.406   8.509
   99SAPS  H20T 9958   0.382   7.418   8.349
   99SAPS   C33 9959   1.162   7.191   6.794
   99SAPS   H3X 9960   1.169   7.215   6.685
   99SAPS   H3Y 9961   1.211   7.092   6.796
   99SAPS   C34 9962   1.250   7.282   6.877
   99SAPS   H4X 9963   1.219   7.258   6.981
   99SAPS   H4Y 9964   1.214   7.385   6.855
   99SAPS   C35 9965   1.403   7.267   6.843
   99SAPS   H5X 9966   1.420   7.285   6.734
   99SAPS   H5Y 9967   1.418   7.160   6.869
   99SAPS   C36 9968   1.492   7.355   6.936
   99SAPS   H6X 9969   1.453   7.459   6.944
   99SAPS   H6Y 9970   1.594   7.353   6.892
   99SAPS   C37 9971   1.508   7.307   7.080
   99SAPS   H7X 9972   1.538   7.200   7.072
   99SAPS   H7Y 9973   1.413   7.314   7.138
   99SAPS   C38 9974   1.613   7.385   7.159
   99SAPS   H8X 9975   1.592   7.493   7.149
   99SAPS   H8Y 9976   1.709   7.365   7.107
   99SAPS   C39 9977   1.620   7.329   7.296
   99SAPS   H9X 9978   1.668   7.229   7.282
   99SAPS   H9Y 9979   1.529   7.328   7.359
   99SAPS  C310 9980   1.727   7.402   7.383
   99SAPS  H10X 9981   1.667   7.488   7.420
   99SAPS  H10Y 9982   1.805   7.426   7.308
   99SAPS  C311 9983   1.791   7.312   7.499
   99SAPS  H11X 9984   1.870   7.249   7.453
   99SAPS  H11Y 9985   1.711   7.239   7.525
   99SAPS  C312 9986   1.827   7.390   7.622
   99SAPS  H12X 9987   1.729   7.436   7.649
   99SAPS  H12Y 9988   1.894   7.467   7.577
   99SAPS  C313 9989   1.866   7.302   7.742
   99SAPS  H13X 9990   1.966   7.254   7.740
   99SAPS  H13Y 9991   1.792   7.221   7.756
   99SAPS  C314 9992   1.855   7.370   7.878
   99SAPS  H14X 9993   1.875   7.289   7.951
   99SAPS  H14Y 9994   1.751   7.409   7.889
   99SAPS  C315 9995   1.932   7.499   7.901
   99SAPS  H15X 9996   1.901   7.580   7.831
   99SAPS  H15Y 9997   2.037   7.473   7.877
   99SAPS  C316 9998   1.916   7.570   8.040
   99SAPS  H16X 9999   1.813   7.610   8.032
   99SAPS  H16Y10000   1.992   7.651   8.039
   99SAPS  C31710001   1.943   7.490   8.164
   99SAPS  H17X10002   2.045   7.446   8.157
   99SAPS  H17Y10003   1.876   7.402   8.148
   99SAPS  C31810004   1.926   7.566   8.296
   99SAPS  H18X10005   1.977   7.510   8.378
   99SAPS  H18Y10006   1.817   7.561   8.318
   99SAPS  H18Z10007   1.959   7.672   8.295
  100SAPS     N10008   3.981   1.597   5.986
  100SAPS   HN110009   3.936   1.540   5.912
  100SAPS   HN210010   4.084   1.584   5.972
  100SAPS   HN310011   3.948   1.559   6.077
  100SAPS   C1210012   3.943   1.738   5.976
  100SAPS  H12A10013   4.021   1.784   5.917
  100SAPS   C1310014   3.804   1.774   5.901
  100SAPS  O13A10015   3.735   1.678   5.865
  100SAPS  O13B10016   3.763   1.895   5.897
  100SAPS   C1110017   3.927   1.793   6.122
  100SAPS  H11A10018   3.849   1.735   6.176
  100SAPS  H11B10019   3.895   1.900   6.121
  100SAPS     P10020   4.107   1.906   6.261
  100SAPS   O1310021   4.235   1.869   6.322
  100SAPS   O1410022   4.116   2.016   6.163
  100SAPS   O1210023   4.051   1.771   6.191
  100SAPS   O1110024   3.995   1.925   6.370
  100SAPS    C110025   3.976   1.834   6.478
  100SAPS    HA10026   3.878   1.784   6.460
  100SAPS    HB10027   4.051   1.752   6.485
  100SAPS    C210028   3.968   1.904   6.622
  100SAPS    HS10029   3.937   1.828   6.697
  100SAPS   O2110030   3.874   2.012   6.628
  100SAPS   C2110031   3.749   1.976   6.660
  100SAPS   O2210032   3.714   1.862   6.667
  100SAPS   C2210033   3.676   2.100   6.707
  100SAPS   H2R10034   3.672   2.173   6.623
  100SAPS   H2S10035   3.573   2.068   6.730
  100SAPS    C310036   4.109   1.956   6.660
  100SAPS    HX10037   4.128   2.039   6.589
  100SAPS    HY10038   4.183   1.875   6.642
  100SAPS   O3110039   4.123   1.998   6.799
  100SAPS   C3110040   4.128   2.122   6.831
  100SAPS   O3210041   4.107   2.217   6.757
  100SAPS   C3210042   4.187   2.135   6.972
  100SAPS   H2X10043   4.295   2.110   6.974
  100SAPS   H2Y10044   4.144   2.059   7.041
  100SAPS   C2310045   3.748   2.174   6.824
  100SAPS   H3R10046   3.679   2.250   6.868
  100SAPS   H3S10047   3.837   2.226   6.784
  100SAPS   C2410048   3.782   2.089   6.951
  100SAPS   H4R10049   3.848   2.138   7.026
  100SAPS   H4S10050   3.851   2.009   6.918
  100SAPS   C2510051   3.662   2.014   7.007
  100SAPS   H5R10052   3.616   1.935   6.946
  100SAPS   C2610053   3.588   2.055   7.112
  100SAPS   H6R10054   3.500   1.993   7.134
  100SAPS   C2710055   3.606   2.188   7.199
  100SAPS   H7R10056   3.660   2.259   7.133
  100SAPS   H7S10057   3.681   2.171   7.280
  100SAPS   C2810058   3.472   2.255   7.228
  100SAPS   H8R10059   3.420   2.278   7.134
  100SAPS   C2910060   3.424   2.305   7.344
  100SAPS   H9R10061   3.321   2.346   7.341
  100SAPS  C21010062   3.467   2.280   7.489
  100SAPS  H10R10063   3.377   2.296   7.551
  100SAPS  H10S10064   3.541   2.356   7.521
  100SAPS  C21110065   3.508   2.137   7.535
  100SAPS  H11R10066   3.494   2.059   7.459
  100SAPS  C21210067   3.573   2.112   7.652
  100SAPS  H12R10068   3.619   2.014   7.670
  100SAPS  C21310069   3.614   2.210   7.756
  100SAPS  H13R10070   3.548   2.297   7.736
  100SAPS  H13S10071   3.719   2.242   7.736
  100SAPS  C21410072   3.592   2.160   7.896
  100SAPS  H14R10073   3.508   2.215   7.940
  100SAPS  C21510074   3.671   2.072   7.970
  100SAPS  H15R10075   3.628   2.040   8.067
  100SAPS  C21610076   3.785   1.987   7.917
  100SAPS  H16R10077   3.798   1.995   7.807
  100SAPS  H16S10078   3.779   1.877   7.931
  100SAPS  C21710079   3.923   2.012   7.984
  100SAPS  H17R10080   4.004   1.953   7.937
  100SAPS  H17S10081   3.916   1.995   8.093
  100SAPS  C21810082   3.972   2.157   7.973
  100SAPS  H18R10083   3.887   2.218   8.010
  100SAPS  H18S10084   3.984   2.160   7.863
  100SAPS  C21910085   4.103   2.200   8.046
  100SAPS  H19R10086   4.181   2.140   7.995
  100SAPS  H19S10087   4.099   2.174   8.154
  100SAPS  C22010088   4.131   2.352   8.023
  100SAPS  H20R10089   4.145   2.377   7.916
  100SAPS  H20S10090   4.228   2.367   8.074
  100SAPS  H20T10091   4.049   2.383   8.092
  100SAPS   C3310092   4.161   2.278   7.033
  100SAPS   H3X10093   4.051   2.283   7.047
  100SAPS   H3Y10094   4.176   2.357   6.956
  100SAPS   C3410095   4.251   2.300   7.150
  100SAPS   H4X10096   4.355   2.320   7.118
  100SAPS   H4Y10097   4.244   2.205   7.209
  100SAPS   C3510098   4.219   2.419   7.235
  100SAPS   H5X10099   4.121   2.405   7.287
  100SAPS   H5Y10100   4.205   2.508   7.171
  100SAPS   C3610101   4.330   2.449   7.342
  100SAPS   H6X10102   4.426   2.468   7.290
  100SAPS   H6Y10103   4.343   2.355   7.398
  100SAPS   C3710104   4.301   2.567   7.436
  100SAPS   H7X10105   4.222   2.527   7.503
  100SAPS   H7Y10106   4.258   2.650   7.376
  100SAPS   C3810107   4.421   2.611   7.522
  100SAPS   H8X10108   4.369   2.687   7.584
  100SAPS   H8Y10109   4.498   2.658   7.458
  100SAPS   C3910110   4.478   2.495   7.601
  100SAPS   H9X10111   4.554   2.429   7.553
  100SAPS   H9Y10112   4.398   2.425   7.633
  100SAPS  C31010113   4.558   2.553   7.726
  100SAPS  H10X10114   4.476   2.595   7.788
  100SAPS  H10Y10115   4.625   2.634   7.690
  100SAPS  C31110116   4.631   2.445   7.808
  100SAPS  H11X10117   4.672   2.497   7.897
  100SAPS  H11Y10118   4.714   2.396   7.752
  100SAPS  C31210119   4.543   2.335   7.865
  100SAPS  H12X10120   4.463   2.306   7.793
  100SAPS  H12Y10121   4.483   2.369   7.953
  100SAPS  C31310122   4.623   2.215   7.920
  100SAPS  H13X10123   4.696   2.186   7.841
  100SAPS  H13Y10124   4.547   2.135   7.928
  100SAPS  C31410125   4.676   2.245   8.065
  100SAPS  H14X10126   4.757   2.321   8.062
  100SAPS  H14Y10127   4.723   2.149   8.098
  100SAPS  C31510128   4.576   2.286   8.171
  100SAPS  H15X10129   4.505   2.203   8.190
  100SAPS  H15Y10130   4.517   2.379   8.152
  100SAPS  C31610131   4.642   2.315   8.306
  100SAPS  H16X10132   4.572   2.354   8.383
  100SAPS  H16Y10133   4.724   2.389   8.294
  100SAPS  C31710134   4.703   2.183   8.370
  100SAPS  H17X10135   4.793   2.159   8.309
  100SAPS  H17Y10136   4.636   2.095   8.357
  100SAPS  C31810137   4.726   2.203   8.517
  100SAPS  H18X10138   4.634   2.190   8.578
  100SAPS  H18Y10139   4.762   2.307   8.526
  100SAPS  H18Z10140   4.802   2.138   8.565
  101OSM      N10141   2.102   2.636  10.875
  101OSM    C1510142   2.011   2.727  10.813
  101OSM   H15A10143   2.033   2.826  10.851
  101OSM   H15B10144   1.909   2.711  10.845
  101OSM   H15C10145   2.012   2.731  10.705
  101OSM    C1410146   2.095   2.669  11.023
  101OSM   H14A10147   1.993   2.666  11.058
  101OSM   H14B10148   2.132   2.771  11.032
  101OSM   H14C10149   2.161   2.602  11.076
  101OSM    C1310150   2.062   2.491  10.861
  101OSM   H13A10151   2.102   2.425  10.937
  101OSM   H13B10152   2.087   2.455  10.762
  101OSM   H13C10153   1.955   2.492  10.871
  101OSM    C1210154   2.238   2.671  10.827
  101OSM   H12A10155   2.306   2.630  10.900
  101OSM   H12B10156   2.258   2.777  10.833
  101OSM    C1110157   2.267   2.610  10.693
  101OSM   H11A10158   2.356   2.654  10.642
  101OSM   H11B10159   2.189   2.637  10.618
  101OSM      P10160   2.402   2.381  10.729
  101OSM    O1310161   2.470   2.444  10.845
  101OSM    O1410162   2.354   2.243  10.749
  101OSM    O1110163   2.501   2.389  10.605
  101OSM    O1210164   2.282   2.471  10.690
  101OSM    C1S10165   2.449   2.335  10.485
  101OSM    H1S10166   2.346   2.369  10.461
  101OSM    H1T10167   2.429   2.226  10.490
  101OSM     NF10168   2.473   2.349  10.240
  101OSM    HNF10169   2.502   2.276  10.180
  101OSM    C2S10170   2.542   2.368  10.365
  101OSM    H2S10171   2.572   2.475  10.372
  101OSM    C3S10172   2.681   2.296  10.381
  101OSM    H3S10173   2.652   2.189  10.372
  101OSM     O310174   2.738   2.311  10.512
  101OSM    HO310175   2.672   2.355  10.566
  101OSM    C4S10176   2.770   2.331  10.278
  101OSM    H4S10177   2.784   2.259  10.196
  101OSM    C5S10178   2.849   2.441  10.264
  101OSM    H5S10179   2.832   2.526  10.331
  101OSM    C6S10180   2.942   2.463  10.149
  101OSM    H6S10181   3.046   2.433  10.173
  101OSM    H6T10182   2.947   2.573  10.135
  101OSM    C7S10183   2.911   2.387  10.024
  101OSM    H7S10184   2.809   2.401   9.981
  101OSM    H7T10185   2.928   2.279  10.043
  101OSM    C8S10186   3.008   2.418   9.898
  101OSM    H8S10187   3.098   2.355   9.914
  101OSM    H8T10188   3.034   2.524   9.918
  101OSM    C9S10189   2.945   2.377   9.769
  101OSM    H9S10190   2.859   2.436   9.732
  101OSM    H9T10191   2.896   2.279   9.789
  101OSM   C10S10192   3.048   2.359   9.655
  101OSM   H10S10193   3.134   2.305   9.698
  101OSM   H10T10194   3.088   2.462   9.644
  101OSM   C11S10195   3.002   2.302   9.516
  101OSM   H11S10196   2.923   2.367   9.474
  101OSM   H11T10197   2.960   2.201   9.537
  101OSM   C12S10198   3.106   2.296   9.402
  101OSM   H12S10199   3.190   2.231   9.435
  101OSM   H12T10200   3.148   2.397   9.386
  101OSM   C13S10201   3.045   2.226   9.284
  101OSM   H13S10202   2.959   2.289   9.253
  101OSM   H13T10203   2.992   2.131   9.310
  101OSM   C14S10204   3.136   2.195   9.173
  101OSM   H14S10205   3.218   2.132   9.215
  101OSM   H14T10206   3.180   2.283   9.121
  101OSM   C15S10207   3.063   2.126   9.062
  101OSM   H15S10208   2.984   2.200   9.036
  101OSM   H15T10209   3.016   2.030   9.090
  101OSM   C16S10210   3.144   2.101   8.939
  101OSM   H16S10211   3.192   2.199   8.920
  101OSM   H16T10212   3.080   2.081   8.850
  101OSM   C17S10213   3.242   1.985   8.966
  101OSM   H17S10214   3.177   1.898   8.990
  101OSM   H17T10215   3.314   2.010   9.046
  101OSM   C18S10216   3.317   1.953   8.841
  101OSM   H18S10217   3.242   1.933   8.761
  101OSM   H18T10218   3.396   1.880   8.868
  101OSM   H18U10219   3.380   2.038   8.806
  101OSM    C1F10220   2.366   2.423  10.204
  101OSM     OF10221   2.325   2.510  10.283
  101OSM    C2F10222   2.298   2.390  10.080
  101OSM    H2F10223   2.285   2.280  10.069
  101OSM    H2G10224   2.364   2.414   9.994
  101OSM    C3F10225   2.169   2.454  10.033
  101OSM    H3F10226   2.092   2.438  10.112
  101OSM    H3G10227   2.126   2.411   9.940
  101OSM    C4F10228   2.189   2.610  10.020
  101OSM    H4F10229   2.217   2.652  10.119
  101OSM    H4G10230   2.092   2.661  10.001
  101OSM    C5F10231   2.285   2.655   9.904
  101OSM    H5F10232   2.391   2.652   9.936
  101OSM    H5G10233   2.268   2.763   9.882
  101OSM    C6F10234   2.285   2.572   9.772
  101OSM    H6F10235   2.300   2.465   9.799
  101OSM    H6G10236   2.365   2.615   9.708
  101OSM    C7F10237   2.149   2.584   9.700
  101OSM    H7F10238   2.097   2.682   9.704
  101OSM    H7G10239   2.070   2.526   9.752
  101OSM    C8F10240   2.163   2.533   9.553
  101OSM    H8F10241   2.205   2.430   9.556
  101OSM    H8G10242   2.231   2.606   9.505
  101OSM    C9F10243   2.025   2.515   9.492
  101OSM    H9F10244   1.968   2.429   9.530
  101OSM   C10F10245   1.975   2.585   9.392
  101OSM   H10F10246   1.879   2.549   9.354
  101OSM   C11F10247   2.056   2.694   9.327
  101OSM   H11F10248   2.136   2.638   9.273
  101OSM   H11G10249   2.109   2.760   9.399
  101OSM   C12F10250   1.983   2.795   9.235
  101OSM   H12F10251   2.059   2.871   9.206
  101OSM   H12G10252   1.909   2.848   9.300
  101OSM   C13F10253   1.915   2.721   9.120
  101OSM   H13F10254   1.839   2.649   9.158
  101OSM   H13G10255   1.994   2.678   9.053
  101OSM   C14F10256   1.835   2.820   9.026
  101OSM   H14F10257   1.752   2.877   9.074
  101OSM   H14G10258   1.788   2.757   8.948
  101OSM   C15F10259   1.928   2.915   8.955
  101OSM   H15F10260   1.990   2.854   8.886
  101OSM   H15G10261   2.001   2.966   9.022
  101OSM   C16F10262   1.861   3.033   8.878
  101OSM   H16F10263   1.815   3.101   8.953
  101OSM   H16G10264   1.784   2.994   8.807
  101OSM   C17F10265   1.969   3.114   8.809
  101OSM   H17F10266   2.025   3.041   8.747
  101OSM   H17G10267   2.043   3.159   8.879
  101OSM   C18F10268   1.900   3.227   8.730
  101OSM   H18F10269   1.973   3.288   8.673
  101OSM   H18G10270   1.840   3.290   8.798
  101OSM   H18H10271   1.835   3.172   8.658
  102OSM      N10272   2.029   1.859  11.171
  102OSM    C1510273   1.933   1.951  11.232
  102OSM   H15A10274   1.973   1.974  11.330
  102OSM   H15B10275   1.837   1.904  11.243
  102OSM   H15C10276   1.910   2.039  11.173
  102OSM    C1410277   2.166   1.916  11.152
  102OSM   H14A10278   2.228   1.839  11.110
  102OSM   H14B10279   2.206   1.950  11.246
  102OSM   H14C10280   2.165   1.997  11.081
  102OSM    C1310281   2.041   1.743  11.262
  102OSM   H13A10282   2.123   1.683  11.228
  102OSM   H13B10283   1.958   1.674  11.259
  102OSM   H13C10284   2.056   1.765  11.367
  102OSM    C1210285   1.977   1.817  11.033
  102OSM   H12A10286   1.883   1.771  11.061
  102OSM   H12B10287   2.031   1.734  10.990
  102OSM    C1110288   1.976   1.923  10.923
  102OSM   H11A10289   1.926   2.014  10.964
  102OSM   H11B10290   1.910   1.902  10.836
  102OSM      P10291   2.188   1.830  10.804
  102OSM    O1310292   2.310   1.883  10.736
  102OSM    O1410293   2.209   1.713  10.886
  102OSM    O1110294   2.088   1.785  10.689
  102OSM    O1210295   2.108   1.946  10.874
  102OSM    C1S10296   2.067   1.872  10.578
  102OSM    H1S10297   2.095   1.977  10.599
  102OSM    H1T10298   1.957   1.868  10.563
  102OSM     NF10299   2.078   1.918  10.336
  102OSM    HNF10300   1.996   1.901  10.282
  102OSM    C2S10301   2.130   1.831  10.439
  102OSM    H2S10302   2.237   1.855  10.454
  102OSM    C3S10303   2.115   1.680  10.402
  102OSM    H3S10304   2.006   1.659  10.404
  102OSM     O310305   2.175   1.586  10.495
  102OSM    HO310306   2.194   1.647  10.566
  102OSM    C4S10307   2.178   1.646  10.268
  102OSM    H4S10308   2.260   1.715  10.243
  102OSM    C5S10309   2.139   1.542  10.187
  102OSM    H5S10310   2.058   1.474  10.217
  102OSM    C6S10311   2.210   1.501  10.065
  102OSM    H6S10312   2.196   1.392  10.052
  102OSM    H6T10313   2.316   1.533  10.070
  102OSM    C7S10314   2.145   1.556   9.922
  102OSM    H7S10315   2.148   1.667   9.928
  102OSM    H7T10316   2.041   1.518   9.919
  102OSM    C8S10317   2.229   1.514   9.799
  102OSM    H8S10318   2.141   1.487   9.737
  102OSM    H8T10319   2.285   1.420   9.815
  102OSM    C9S10320   2.322   1.620   9.733
  102OSM    H9S10321   2.400   1.643   9.809
  102OSM    H9T10322   2.261   1.710   9.708
  102OSM   C10S10323   2.390   1.579   9.602
  102OSM   H10S10324   2.437   1.478   9.613
  102OSM   H10T10325   2.468   1.651   9.571
  102OSM   C11S10326   2.293   1.543   9.482
  102OSM   H11S10327   2.230   1.629   9.450
  102OSM   H11T10328   2.219   1.469   9.519
  102OSM   C12S10329   2.369   1.494   9.354
  102OSM   H12S10330   2.424   1.399   9.374
  102OSM   H12T10331   2.447   1.565   9.319
  102OSM   C13S10332   2.277   1.457   9.236
  102OSM   H13S10333   2.207   1.541   9.216
  102OSM   H13T10334   2.216   1.370   9.270
  102OSM   C14S10335   2.349   1.429   9.103
  102OSM   H14S10336   2.420   1.344   9.111
  102OSM   H14T10337   2.399   1.519   9.060
  102OSM   C15S10338   2.254   1.378   8.995
  102OSM   H15S10339   2.204   1.283   9.022
  102OSM   H15T10340   2.313   1.347   8.907
  102OSM   C16S10341   2.141   1.477   8.953
  102OSM   H16S10342   2.189   1.576   8.930
  102OSM   H16T10343   2.076   1.494   9.041
  102OSM   C17S10344   2.069   1.423   8.823
  102OSM   H17S10345   2.020   1.328   8.853
  102OSM   H17T10346   2.148   1.405   8.747
  102OSM   C18S10347   1.962   1.513   8.767
  102OSM   H18S10348   1.906   1.463   8.685
  102OSM   H18T10349   2.002   1.615   8.752
  102OSM   H18U10350   1.877   1.529   8.836
  102OSM    C1F10351   2.124   2.040  10.315
  102OSM     OF10352   2.215   2.089  10.379
  102OSM    C2F10353   2.052   2.115  10.204
  102OSM    H2F10354   2.085   2.222  10.206
  102OSM    H2G10355   1.942   2.108  10.217
  102OSM    C3F10356   2.097   2.061  10.062
  102OSM    H3F10357   2.077   1.952  10.065
  102OSM    H3G10358   2.206   2.065  10.043
  102OSM    C4F10359   2.021   2.129   9.948
  102OSM    H4F10360   2.031   2.239   9.960
  102OSM    H4G10361   1.916   2.095   9.953
  102OSM    C5F10362   2.093   2.086   9.818
  102OSM    H5F10363   2.090   1.975   9.814
  102OSM    H5G10364   2.198   2.123   9.826
  102OSM    C6F10365   2.028   2.132   9.687
  102OSM    H6F10366   2.006   2.241   9.691
  102OSM    H6G10367   1.927   2.086   9.682
  102OSM    C7F10368   2.096   2.093   9.558
  102OSM    H7F10369   2.129   1.989   9.577
  102OSM    H7G10370   2.181   2.164   9.550
  102OSM    C8F10371   2.018   2.098   9.431
  102OSM    H8F10372   1.960   2.192   9.425
  102OSM    H8G10373   1.938   2.022   9.446
  102OSM    C9F10374   2.098   2.063   9.304
  102OSM    H9F10375   2.130   1.960   9.287
  102OSM   C10F10376   2.127   2.156   9.209
  102OSM   H10F10377   2.203   2.131   9.133
  102OSM   C11F10378   2.101   2.305   9.201
  102OSM   H11F10379   2.196   2.357   9.174
  102OSM   H11G10380   2.076   2.341   9.303
  102OSM   C12F10381   2.000   2.338   9.089
  102OSM   H12F10382   2.028   2.277   9.000
  102OSM   H12G10383   2.022   2.444   9.066
  102OSM   C13F10384   1.853   2.320   9.124
  102OSM   H13F10385   1.819   2.392   9.201
  102OSM   H13G10386   1.853   2.218   9.169
  102OSM   C14F10387   1.761   2.329   9.006
  102OSM   H14F10388   1.671   2.277   9.045
  102OSM   H14G10389   1.807   2.268   8.926
  102OSM   C15F10390   1.744   2.462   8.946
  102OSM   H15F10391   1.842   2.513   8.934
  102OSM   H15G10392   1.696   2.524   9.025
  102OSM   C16F10393   1.667   2.469   8.812
  102OSM   H16F10394   1.561   2.486   8.837
  102OSM   H16G10395   1.669   2.368   8.766
  102OSM   C17F10396   1.709   2.586   8.718
  102OSM   H17F10397   1.809   2.558   8.680
  102OSM   H17G10398   1.726   2.678   8.777
  102OSM   C18F10399   1.607   2.612   8.607
  102OSM   H18F10400   1.657   2.665   8.523
  102OSM   H18G10401   1.546   2.695   8.649
  102OSM   H18H10402   1.549   2.521   8.579
  103OSM      N10403   3.367   4.088  11.279
  103OSM    C1510404   3.301   3.962  11.246
  103OSM   H15A10405   3.243   3.962  11.156
  103OSM   H15B10406   3.233   3.928  11.323
  103OSM   H15C10407   3.372   3.881  11.256
  103OSM    C1410408   3.266   4.200  11.299
  103OSM   H14A10409   3.214   4.220  11.207
  103OSM   H14B10410   3.315   4.292  11.326
  103OSM   H14C10411   3.203   4.179  11.384
  103OSM    C1310412   3.438   4.075  11.406
  103OSM   H13A10413   3.374   4.080  11.493
  103OSM   H13B10414   3.514   4.150  11.417
  103OSM   H13C10415   3.485   3.977  11.404
  103OSM    C1210416   3.462   4.121  11.168
  103OSM   H12A10417   3.534   4.040  11.168
  103OSM   H12B10418   3.513   4.211  11.198
  103OSM    C1110419   3.411   4.152  11.024
  103OSM   H11A10420   3.331   4.080  10.998
  103OSM   H11B10421   3.489   4.133  10.947
  103OSM      P10422   3.430   4.404  10.967
  103OSM    O1310423   3.354   4.518  11.023
  103OSM    O1410424   3.570   4.393  10.997
  103OSM    O1110425   3.420   4.399  10.809
  103OSM    O1210426   3.350   4.278  11.018
  103OSM    C1S10427   3.293   4.372  10.742
  103OSM    H1S10428   3.220   4.451  10.768
  103OSM    H1T10429   3.255   4.273  10.776
  103OSM     NF10430   3.192   4.385  10.526
  103OSM    HNF10431   3.144   4.298  10.513
  103OSM    C2S10432   3.318   4.376  10.594
  103OSM    H2S10433   3.371   4.471  10.576
  103OSM    C3S10434   3.394   4.248  10.548
  103OSM    H3S10435   3.321   4.165  10.551
  103OSM     O310436   3.496   4.200  10.637
  103OSM    HO310437   3.501   4.274  10.698
  103OSM    C4S10438   3.449   4.254  10.406
  103OSM    H4S10439   3.502   4.348  10.384
  103OSM    C5S10440   3.431   4.156  10.317
  103OSM    H5S10441   3.372   4.067  10.342
  103OSM    C6S10442   3.494   4.141  10.179
  103OSM    H6S10443   3.418   4.178  10.107
  103OSM    H6T10444   3.506   4.033  10.159
  103OSM    C7S10445   3.626   4.218  10.159
  103OSM    H7S10446   3.694   4.209  10.246
  103OSM    H7T10447   3.610   4.328  10.147
  103OSM    C8S10448   3.700   4.185  10.020
  103OSM    H8S10449   3.725   4.077  10.010
  103OSM    H8T10450   3.790   4.248  10.030
  103OSM    C9S10451   3.608   4.226   9.904
  103OSM    H9S10452   3.565   4.326   9.924
  103OSM    H9T10453   3.524   4.156   9.889
  103OSM   C10S10454   3.688   4.215   9.765
  103OSM   H10S10455   3.721   4.110   9.752
  103OSM   H10T10456   3.781   4.274   9.768
  103OSM   C11S10457   3.589   4.249   9.648
  103OSM   H11S10458   3.544   4.348   9.671
  103OSM   H11T10459   3.518   4.164   9.640
  103OSM   C12S10460   3.661   4.262   9.516
  103OSM   H12S10461   3.698   4.160   9.494
  103OSM   H12T10462   3.753   4.324   9.522
  103OSM   C13S10463   3.560   4.288   9.400
  103OSM   H13S10464   3.502   4.382   9.410
  103OSM   H13T10465   3.491   4.201   9.396
  103OSM   C14S10466   3.646   4.303   9.279
  103OSM   H14S10467   3.697   4.210   9.246
  103OSM   H14T10468   3.706   4.394   9.299
  103OSM   C15S10469   3.557   4.347   9.158
  103OSM   H15S10470   3.497   4.435   9.189
  103OSM   H15T10471   3.477   4.279   9.123
  103OSM   C16S10472   3.628   4.372   9.022
  103OSM   H16S10473   3.645   4.278   8.965
  103OSM   H16T10474   3.728   4.416   9.041
  103OSM   C17S10475   3.545   4.467   8.934
  103OSM   H17S10476   3.542   4.569   8.977
  103OSM   H17T10477   3.442   4.427   8.924
  103OSM   C18S10478   3.607   4.474   8.796
  103OSM   H18S10479   3.559   4.541   8.722
  103OSM   H18T10480   3.611   4.371   8.755
  103OSM   H18U10481   3.706   4.522   8.813
  103OSM    C1F10482   3.130   4.506  10.526
  103OSM     OF10483   3.166   4.598  10.594
  103OSM    C2F10484   3.000   4.518  10.461
  103OSM    H2F10485   2.944   4.607  10.497
  103OSM    H2G10486   2.937   4.428  10.476
  103OSM    C3F10487   3.013   4.530  10.305
  103OSM    H3F10488   3.057   4.435  10.268
  103OSM    H3G10489   3.089   4.605  10.273
  103OSM    C4F10490   2.886   4.580  10.233
  103OSM    H4F10491   2.859   4.679  10.276
  103OSM    H4G10492   2.806   4.508  10.262
  103OSM    C5F10493   2.892   4.591  10.083
  103OSM    H5F10494   2.793   4.583  10.035
  103OSM    H5G10495   2.956   4.510  10.041
  103OSM    C6F10496   2.955   4.721  10.015
  103OSM    H6F10497   3.047   4.758  10.065
  103OSM    H6G10498   2.873   4.793  10.031
  103OSM    C7F10499   2.997   4.698   9.868
  103OSM    H7F10500   2.911   4.650   9.818
  103OSM    H7G10501   3.072   4.616   9.874
  103OSM    C8F10502   3.064   4.829   9.813
  103OSM    H8F10503   3.140   4.870   9.882
  103OSM    H8G10504   2.983   4.905   9.808
  103OSM    C9F10505   3.124   4.801   9.674
  103OSM    H9F10506   3.220   4.749   9.688
  103OSM   C10F10507   3.068   4.817   9.554
  103OSM   H10F10508   3.127   4.799   9.463
  103OSM   C11F10509   2.930   4.874   9.543
  103OSM   H11F10510   2.884   4.894   9.641
  103OSM   H11G10511   2.867   4.795   9.497
  103OSM   C12F10512   2.927   4.990   9.446
  103OSM   H12F10513   2.818   5.003   9.427
  103OSM   H12G10514   2.975   4.973   9.347
  103OSM   C13F10515   2.980   5.126   9.497
  103OSM   H13F10516   2.961   5.142   9.605
  103OSM   H13G10517   3.089   5.120   9.476
  103OSM   C14F10518   2.916   5.249   9.427
  103OSM   H14F10519   2.973   5.338   9.462
  103OSM   H14G10520   2.810   5.272   9.452
  103OSM   C15F10521   2.926   5.250   9.274
  103OSM   H15F10522   2.850   5.180   9.233
  103OSM   H15G10523   3.029   5.213   9.253
  103OSM   C16F10524   2.899   5.382   9.210
  103OSM   H16F10525   2.951   5.449   9.281
  103OSM   H16G10526   2.788   5.383   9.209
  103OSM   C17F10527   2.972   5.397   9.074
  103OSM   H17F10528   2.949   5.314   9.004
  103OSM   H17G10529   3.083   5.398   9.087
  103OSM   C18F10530   2.939   5.529   9.002
  103OSM   H18F10531   3.013   5.550   8.922
  103OSM   H18G10532   2.943   5.613   9.075
  103OSM   H18H10533   2.835   5.540   8.965
  104OSM      N10534   0.909   4.067  10.973
  104OSM    C1510535   0.777   4.041  11.036
  104OSM   H15A10536   0.782   4.022  11.142
  104OSM   H15B10537   0.725   3.956  10.993
  104OSM   H15C10538   0.715   4.129  11.030
  104OSM    C1410539   0.971   4.199  11.027
  104OSM   H14A10540   1.063   4.230  10.979
  104OSM   H14B10541   0.975   4.190  11.135
  104OSM   H14C10542   0.899   4.280  11.015
  104OSM    C1310543   1.006   3.958  11.014
  104OSM   H13A10544   0.980   3.862  10.972
  104OSM   H13B10545   1.010   3.946  11.121
  104OSM   H13C10546   1.106   3.982  10.980
  104OSM    C1210547   0.884   4.086  10.827
  104OSM   H12A10548   0.976   4.128  10.790
  104OSM   H12B10549   0.805   4.158  10.810
  104OSM    C1110550   0.848   3.962  10.742
  104OSM   H11A10551   0.923   3.881  10.734
  104OSM   H11B10552   0.833   3.984  10.634
  104OSM      P10553   0.672   3.776  10.702
  104OSM    O1310554   0.782   3.679  10.700
  104OSM    O1410555   0.545   3.729  10.760
  104OSM    O1110556   0.646   3.839  10.559
  104OSM    O1210557   0.723   3.902  10.788
  104OSM    C1S10558   0.560   3.950  10.541
  104OSM    H1S10559   0.612   4.034  10.590
  104OSM    H1T10560   0.461   3.936  10.590
  104OSM     NF10561   0.446   4.080  10.359
  104OSM    HNF10562   0.358   4.049  10.323
  104OSM    C2S10563   0.546   3.977  10.387
  104OSM    H2S10564   0.646   4.010  10.352
  104OSM    C3S10565   0.496   3.849  10.309
  104OSM    H3S10566   0.415   3.813  10.376
  104OSM     O310567   0.588   3.743  10.324
  104OSM    HO310568   0.630   3.774  10.405
  104OSM    C4S10569   0.451   3.873  10.170
  104OSM    H4S10570   0.352   3.921  10.161
  104OSM    C5S10571   0.533   3.881  10.059
  104OSM    H5S10572   0.642   3.869  10.070
  104OSM    C6S10573   0.498   3.913   9.911
  104OSM    H6S10574   0.493   4.022   9.888
  104OSM    H6T10575   0.395   3.874   9.896
  104OSM    C7S10576   0.595   3.855   9.800
  104OSM    H7S10577   0.600   3.745   9.815
  104OSM    H7T10578   0.703   3.881   9.809
  104OSM    C8S10579   0.539   3.883   9.654
  104OSM    H8S10580   0.570   3.985   9.623
  104OSM    H8T10581   0.428   3.880   9.665
  104OSM    C9S10582   0.591   3.779   9.558
  104OSM    H9S10583   0.554   3.680   9.592
  104OSM    H9T10584   0.702   3.777   9.551
  104OSM   C10S10585   0.535   3.816   9.411
  104OSM   H10S10586   0.513   3.925   9.411
  104OSM   H10T10587   0.439   3.763   9.392
  104OSM   C11S10588   0.634   3.774   9.306
  104OSM   H11S10589   0.653   3.665   9.304
  104OSM   H11T10590   0.731   3.825   9.327
  104OSM   C12S10591   0.592   3.829   9.174
  104OSM   H12S10592   0.573   3.935   9.199
  104OSM   H12T10593   0.506   3.768   9.137
  104OSM   C13S10594   0.706   3.801   9.070
  104OSM   H13S10595   0.752   3.701   9.083
  104OSM   H13T10596   0.789   3.866   9.103
  104OSM   C14S10597   0.666   3.821   8.925
  104OSM   H14S10598   0.558   3.810   8.903
  104OSM   H14T10599   0.717   3.738   8.871
  104OSM   C15S10600   0.729   3.961   8.892
  104OSM   H15S10601   0.836   3.953   8.920
  104OSM   H15T10602   0.689   4.034   8.966
  104OSM   C16S10603   0.705   3.997   8.746
  104OSM   H16S10604   0.597   3.999   8.719
  104OSM   H16T10605   0.736   3.918   8.674
  104OSM   C17S10606   0.781   4.127   8.710
  104OSM   H17S10607   0.886   4.117   8.747
  104OSM   H17T10608   0.730   4.216   8.755
  104OSM   C18S10609   0.772   4.162   8.555
  104OSM   H18S10610   0.673   4.194   8.517
  104OSM   H18T10611   0.807   4.080   8.488
  104OSM   H18U10612   0.840   4.249   8.538
  104OSM    C1F10613   0.484   4.210  10.384
  104OSM     OF10614   0.569   4.248  10.461
  104OSM    C2F10615   0.398   4.313  10.314
  104OSM    H2F10616   0.382   4.400  10.381
  104OSM    H2G10617   0.305   4.258  10.289
  104OSM    C3F10618   0.468   4.350  10.179
  104OSM    H3F10619   0.492   4.258  10.121
  104OSM    H3G10620   0.567   4.398  10.192
  104OSM    C4F10621   0.374   4.433  10.090
  104OSM    H4F10622   0.332   4.523  10.140
  104OSM    H4G10623   0.287   4.371  10.062
  104OSM    C5F10624   0.451   4.487   9.966
  104OSM    H5F10625   0.516   4.565  10.011
  104OSM    H5G10626   0.373   4.543   9.911
  104OSM    C6F10627   0.520   4.373   9.896
  104OSM    H6F10628   0.446   4.291   9.903
  104OSM    H6G10629   0.614   4.355   9.952
  104OSM    C7F10630   0.548   4.410   9.749
  104OSM    H7F10631   0.624   4.337   9.714
  104OSM    H7G10632   0.587   4.514   9.744
  104OSM    C8F10633   0.422   4.401   9.658
  104OSM    H8F10634   0.344   4.468   9.700
  104OSM    H8G10635   0.386   4.295   9.656
  104OSM    C9F10636   0.462   4.447   9.520
  104OSM    H9F10637   0.487   4.553   9.508
  104OSM   C10F10638   0.478   4.369   9.410
  104OSM   H10F10639   0.496   4.416   9.312
  104OSM   C11F10640   0.448   4.218   9.401
  104OSM   H11F10641   0.462   4.176   9.503
  104OSM   H11G10642   0.502   4.165   9.320
  104OSM   C12F10643   0.304   4.189   9.356
  104OSM   H12F10644   0.249   4.227   9.445
  104OSM   H12G10645   0.281   4.081   9.352
  104OSM   C13F10646   0.249   4.256   9.229
  104OSM   H13F10647   0.236   4.361   9.261
  104OSM   H13G10648   0.149   4.213   9.206
  104OSM   C14F10649   0.338   4.242   9.108
  104OSM   H14F10650   0.388   4.144   9.116
  104OSM   H14G10651   0.423   4.311   9.124
  104OSM   C15F10652   0.275   4.266   8.965
  104OSM   H15F10653   0.224   4.364   8.969
  104OSM   H15G10654   0.197   4.192   8.939
  104OSM   C16F10655   0.392   4.261   8.865
  104OSM   H16F10656   0.441   4.161   8.864
  104OSM   H16G10657   0.477   4.327   8.893
  104OSM   C17F10658   0.340   4.289   8.722
  104OSM   H17F10659   0.337   4.400   8.712
  104OSM   H17G10660   0.240   4.243   8.728
  104OSM   C18F10661   0.439   4.226   8.625
  104OSM   H18F10662   0.398   4.208   8.523
  104OSM   H18G10663   0.466   4.123   8.659
  104OSM   H18H10664   0.530   4.288   8.611
  105OSM      N10665   0.215   3.418  11.176
  105OSM    C1510666   0.079   3.389  11.229
  105OSM   H15A10667   0.053   3.464  11.302
  105OSM   H15B10668   0.077   3.290  11.273
  105OSM   H15C10669  -0.000   3.390  11.155
  105OSM    C1410670   0.302   3.407  11.294
  105OSM   H14A10671   0.290   3.310  11.339
  105OSM   H14B10672   0.302   3.492  11.362
  105OSM   H14C10673   0.405   3.404  11.264
  105OSM    C1310674   0.261   3.314  11.089
  105OSM   H13A10675   0.208   3.312  10.996
  105OSM   H13B10676   0.254   3.216  11.134
  105OSM   H13C10677   0.365   3.319  11.059
  105OSM    C1210678   0.223   3.559  11.111
  105OSM   H12A10679   0.328   3.578  11.093
  105OSM   H12B10680   0.194   3.626  11.189
  105OSM    C1110681   0.133   3.584  10.982
  105OSM   H11A10682   0.133   3.694  10.965
  105OSM   H11B10683   0.029   3.555  11.008
  105OSM      P10684   0.075   3.478  10.742
  105OSM    O1310685   0.101   3.339  10.695
  105OSM    O1410686  -0.063   3.517  10.776
  105OSM    O1110687   0.121   3.582  10.624
  105OSM    O1210688   0.177   3.508  10.866
  105OSM    C1S10689   0.256   3.595  10.590
  105OSM    H1S10690   0.333   3.548  10.655
  105OSM    H1T10691   0.287   3.701  10.590
  105OSM     NF10692   0.434   3.515  10.436
  105OSM    HNF10693   0.487   3.583  10.387
  105OSM    C2S10694   0.284   3.526  10.451
  105OSM    H2S10695   0.239   3.424  10.446
  105OSM    C3S10696   0.202   3.606  10.343
  105OSM    H3S10697   0.227   3.714  10.355
  105OSM     O310698   0.059   3.610  10.344
  105OSM    HO310699   0.029   3.587  10.432
  105OSM    C4S10700   0.254   3.564  10.210
  105OSM    H4S10701   0.330   3.626  10.160
  105OSM    C5S10702   0.233   3.444  10.151
  105OSM    H5S10703   0.158   3.372  10.187
  105OSM    C6S10704   0.300   3.421  10.021
  105OSM    H6S10705   0.291   3.316   9.987
  105OSM    H6T10706   0.409   3.444  10.019
  105OSM    C7S10707   0.236   3.518   9.909
  105OSM    H7S10708   0.255   3.626   9.923
  105OSM    H7T10709   0.125   3.512   9.908
  105OSM    C8S10710   0.284   3.472   9.775
  105OSM    H8S10711   0.219   3.383   9.761
  105OSM    H8T10712   0.391   3.442   9.768
  105OSM    C9S10713   0.230   3.572   9.669
  105OSM    H9S10714   0.275   3.672   9.689
  105OSM    H9T10715   0.122   3.594   9.684
  105OSM   C10S10716   0.253   3.531   9.528
  105OSM   H10S10717   0.358   3.500   9.505
  105OSM   H10T10718   0.231   3.622   9.468
  105OSM   C11S10719   0.167   3.420   9.469
  105OSM   H11S10720   0.061   3.419   9.501
  105OSM   H11T10721   0.209   3.323   9.503
  105OSM   C12S10722   0.168   3.404   9.320
  105OSM   H12S10723   0.117   3.309   9.291
  105OSM   H12T10724   0.275   3.395   9.292
  105OSM   C13S10725   0.109   3.520   9.240
  105OSM   H13S10726   0.168   3.614   9.250
  105OSM   H13T10727   0.005   3.532   9.279
  105OSM   C14S10728   0.089   3.492   9.097
  105OSM   H14S10729   0.038   3.394   9.086
  105OSM   H14T10730   0.190   3.468   9.055
  105OSM   C15S10731  -0.000   3.588   9.004
  105OSM   H15S10732  -0.089   3.604   9.069
  105OSM   H15T10733  -0.034   3.534   8.913
  105OSM   C16S10734   0.062   3.722   8.967
  105OSM   H16S10735   0.095   3.757   9.067
  105OSM   H16T10736  -0.021   3.785   8.928
  105OSM   C17S10737   0.181   3.737   8.871
  105OSM   H17S10738   0.261   3.669   8.908
  105OSM   H17T10739   0.237   3.833   8.873
  105OSM   C18S10740   0.138   3.694   8.729
  105OSM   H18S10741   0.040   3.735   8.696
  105OSM   H18T10742   0.126   3.584   8.723
  105OSM   H18U10743   0.208   3.719   8.648
  105OSM    C1F10744   0.503   3.422  10.499
  105OSM     OF10745   0.447   3.346  10.580
  105OSM    C2F10746   0.648   3.416  10.478
  105OSM    H2F10747   0.688   3.385  10.577
  105OSM    H2G10748   0.689   3.517  10.458
  105OSM    C3F10749   0.691   3.310  10.377
  105OSM    H3F10750   0.640   3.212  10.393
  105OSM    H3G10751   0.798   3.296  10.403
  105OSM    C4F10752   0.675   3.337  10.226
  105OSM    H4F10753   0.570   3.360  10.202
  105OSM    H4G10754   0.711   3.245  10.175
  105OSM    C5F10755   0.759   3.461  10.186
  105OSM    H5F10756   0.868   3.445  10.202
  105OSM    H5G10757   0.732   3.550  10.247
  105OSM    C6F10758   0.753   3.489  10.040
  105OSM    H6F10759   0.650   3.515  10.009
  105OSM    H6G10760   0.796   3.407   9.979
  105OSM    C7F10761   0.841   3.611  10.001
  105OSM    H7F10762   0.836   3.700  10.068
  105OSM    H7G10763   0.803   3.648   9.903
  105OSM    C8F10764   0.986   3.581   9.977
  105OSM    H8F10765   0.995   3.501   9.900
  105OSM    H8G10766   1.031   3.525  10.062
  105OSM    C9F10767   1.075   3.693   9.935
  105OSM    H9F10768   1.098   3.761  10.018
  105OSM   C10F10769   1.135   3.715   9.818
  105OSM   H10F10770   1.203   3.800   9.804
  105OSM   C11F10771   1.114   3.636   9.695
  105OSM   H11F10772   1.128   3.527   9.715
  105OSM   H11G10773   1.190   3.675   9.624
  105OSM   C12F10774   0.973   3.645   9.633
  105OSM   H12F10775   0.945   3.750   9.611
  105OSM   H12G10776   0.889   3.611   9.698
  105OSM   C13F10777   0.953   3.560   9.506
  105OSM   H13F10778   0.853   3.587   9.464
  105OSM   H13G10779   0.953   3.452   9.530
  105OSM   C14F10780   1.047   3.585   9.388
  105OSM   H14F10781   1.018   3.526   9.299
  105OSM   H14G10782   1.150   3.554   9.417
  105OSM   C15F10783   1.037   3.736   9.338
  105OSM   H15F10784   1.024   3.813   9.418
  105OSM   H15G10785   0.938   3.727   9.289
  105OSM   C16F10786   1.144   3.772   9.229
  105OSM   H16F10787   1.245   3.778   9.276
  105OSM   H16G10788   1.128   3.876   9.195
  105OSM   C17F10789   1.151   3.676   9.110
  105OSM   H17F10790   1.157   3.571   9.145
  105OSM   H17G10791   1.246   3.692   9.055
  105OSM   C18F10792   1.033   3.666   9.018
  105OSM   H18F10793   0.941   3.656   9.079
  105OSM   H18G10794   1.048   3.575   8.956
  105OSM   H18H10795   1.025   3.752   8.948
  106OSM      N10796   1.436   1.954  10.898
  106OSM    C1510797   1.391   2.098  10.877
  106OSM   H15A10798   1.289   2.096  10.910
  106OSM   H15B10799   1.401   2.121  10.772
  106OSM   H15C10800   1.455   2.164  10.933
  106OSM    C1410801   1.418   1.906  11.040
  106OSM   H14A10802   1.483   1.962  11.105
  106OSM   H14B10803   1.444   1.801  11.034
  106OSM   H14C10804   1.322   1.918  11.088
  106OSM    C1310805   1.351   1.872  10.805
  106OSM   H13A10806   1.378   1.890  10.702
  106OSM   H13B10807   1.246   1.884  10.827
  106OSM   H13C10808   1.379   1.768  10.815
  106OSM    C1210809   1.584   1.943  10.862
  106OSM   H12A10810   1.617   1.850  10.906
  106OSM   H12B10811   1.629   2.022  10.920
  106OSM    C1110812   1.635   1.951  10.717
  106OSM   H11A10813   1.746   1.948  10.714
  106OSM   H11B10814   1.600   2.046  10.670
  106OSM      P10815   1.625   1.691  10.677
  106OSM    O1310816   1.747   1.683  10.759
  106OSM    O1410817   1.502   1.622  10.722
  106OSM    O1110818   1.662   1.623  10.541
  106OSM    O1210819   1.591   1.846  10.640
  106OSM    C1S10820   1.664   1.691  10.409
  106OSM    H1S10821   1.724   1.784  10.420
  106OSM    H1T10822   1.562   1.716  10.372
  106OSM     NF10823   1.682   1.666  10.173
  106OSM    HNF10824   1.622   1.617  10.110
  106OSM    C2S10825   1.715   1.597  10.303
  106OSM    H2S10826   1.826   1.596  10.301
  106OSM    C3S10827   1.667   1.450  10.321
  106OSM    H3S10828   1.556   1.451  10.323
  106OSM     O310829   1.700   1.392  10.446
  106OSM    HO310830   1.706   1.470  10.502
  106OSM    C4S10831   1.721   1.385  10.200
  106OSM    H4S10832   1.649   1.372  10.118
  106OSM    C5S10833   1.846   1.341  10.185
  106OSM    H5S10834   1.927   1.343  10.259
  106OSM    C6S10835   1.885   1.260  10.065
  106OSM    H6S10836   1.871   1.152  10.085
  106OSM    H6T10837   1.995   1.272  10.057
  106OSM    C7S10838   1.828   1.307   9.925
  106OSM    H7S10839   1.824   1.418   9.927
  106OSM    H7T10840   1.727   1.270   9.897
  106OSM    C8S10841   1.915   1.260   9.815
  106OSM    H8S10842   1.899   1.150   9.817
  106OSM    H8T10843   2.024   1.282   9.823
  106OSM    C9S10844   1.849   1.307   9.678
  106OSM    H9S10845   1.853   1.418   9.683
  106OSM    H9T10846   1.741   1.285   9.695
  106OSM   C10S10847   1.911   1.260   9.551
  106OSM   H10S10848   1.947   1.157   9.571
  106OSM   H10T10849   1.999   1.324   9.525
  106OSM   C11S10850   1.811   1.239   9.443
  106OSM   H11S10851   1.760   1.337   9.433
  106OSM   H11T10852   1.733   1.165   9.471
  106OSM   C12S10853   1.879   1.218   9.304
  106OSM   H12S10854   1.962   1.146   9.321
  106OSM   H12T10855   1.928   1.316   9.285
  106OSM   C13S10856   1.792   1.195   9.184
  106OSM   H13S10857   1.703   1.262   9.178
  106OSM   H13T10858   1.758   1.090   9.178
  106OSM   C14S10859   1.864   1.218   9.045
  106OSM   H14S10860   1.942   1.146   9.009
  106OSM   H14T10861   1.915   1.317   9.045
  106OSM   C15S10862   1.755   1.219   8.933
  106OSM   H15S10863   1.798   1.265   8.841
  106OSM   H15T10864   1.667   1.284   8.955
  106OSM   C16S10865   1.704   1.081   8.904
  106OSM   H16S10866   1.670   1.025   8.993
  106OSM   H16T10867   1.784   1.019   8.858
  106OSM   C17S10868   1.581   1.090   8.818
  106OSM   H17S10869   1.509   1.158   8.867
  106OSM   H17T10870   1.531   0.990   8.817
  106OSM   C18S10871   1.596   1.129   8.674
  106OSM   H18S10872   1.649   1.226   8.665
  106OSM   H18T10873   1.498   1.150   8.625
  106OSM   H18U10874   1.658   1.057   8.616
  106OSM    C1F10875   1.729   1.782  10.129
  106OSM     OF10876   1.780   1.866  10.199
  106OSM    C2F10877   1.705   1.806   9.981
  106OSM    H2F10878   1.650   1.900   9.958
  106OSM    H2G10879   1.639   1.723   9.948
  106OSM    C3F10880   1.828   1.808   9.884
  106OSM    H3F10881   1.906   1.737   9.921
  106OSM    H3G10882   1.877   1.907   9.870
  106OSM    C4F10883   1.784   1.742   9.748
  106OSM    H4F10884   1.706   1.807   9.704
  106OSM    H4G10885   1.754   1.635   9.752
  106OSM    C5F10886   1.903   1.719   9.647
  106OSM    H5F10887   1.970   1.640   9.688
  106OSM    H5G10888   1.958   1.815   9.638
  106OSM    C6F10889   1.870   1.655   9.510
  106OSM    H6F10890   1.792   1.576   9.518
  106OSM    H6G10891   1.959   1.595   9.480
  106OSM    C7F10892   1.840   1.764   9.406
  106OSM    H7F10893   1.936   1.813   9.378
  106OSM    H7G10894   1.777   1.835   9.463
  106OSM    C8F10895   1.768   1.713   9.284
  106OSM    H8F10896   1.692   1.793   9.269
  106OSM    H8G10897   1.700   1.629   9.312
  106OSM    C9F10898   1.850   1.690   9.165
  106OSM    H9F10899   1.890   1.587   9.157
  106OSM   C10F10900   1.859   1.762   9.058
  106OSM   H10F10901   1.929   1.726   8.981
  106OSM   C11F10902   1.794   1.898   9.039
  106OSM   H11F10903   1.857   1.983   9.073
  106OSM   H11G10904   1.697   1.896   9.094
  106OSM   C12F10905   1.775   1.906   8.886
  106OSM   H12F10906   1.694   1.982   8.880
  106OSM   H12G10907   1.729   1.815   8.841
  106OSM   C13F10908   1.894   1.955   8.804
  106OSM   H13F10909   1.988   1.899   8.823
  106OSM   H13G10910   1.918   2.051   8.854
  106OSM   C14F10911   1.870   1.974   8.652
  106OSM   H14F10912   1.856   1.870   8.615
  106OSM   H14G10913   1.964   2.019   8.614
  106OSM   C15F10914   1.746   2.061   8.613
  106OSM   H15F10915   1.736   2.138   8.693
  106OSM   H15G10916   1.655   1.998   8.614
  106OSM   C16F10917   1.769   2.128   8.470
  106OSM   H16F10918   1.831   2.048   8.424
  106OSM   H16G10919   1.823   2.225   8.472
  106OSM   C17F10920   1.634   2.149   8.398
  106OSM   H17F10921   1.581   2.053   8.385
  106OSM   H17G10922   1.643   2.188   8.295
  106OSM   C18F10923   1.542   2.241   8.476
  106OSM   H18F10924   1.450   2.267   8.421
  106OSM   H18G10925   1.587   2.342   8.481
  106OSM   H18H10926   1.510   2.199   8.574
  107OSM      N10927   1.837   6.467  10.973
  107OSM    C1510928   1.922   6.420  10.861
  107OSM   H15A10929   1.987   6.498  10.824
  107OSM   H15B10930   1.856   6.400  10.777
  107OSM   H15C10931   1.975   6.330  10.886
  107OSM    C1410932   1.776   6.592  10.929
  107OSM   H14A10933   1.714   6.582  10.841
  107OSM   H14B10934   1.847   6.668  10.899
  107OSM   H14C10935   1.725   6.639  11.012
  107OSM    C1310936   1.737   6.371  11.010
  107OSM   H13A10937   1.677   6.350  10.923
  107OSM   H13B10938   1.666   6.381  11.090
  107OSM   H13C10939   1.795   6.287  11.048
  107OSM    C1210940   1.928   6.495  11.095
  107OSM   H12A10941   1.866   6.532  11.175
  107OSM   H12B10942   1.989   6.577  11.058
  107OSM    C1110943   2.027   6.387  11.145
  107OSM   H11A10944   1.970   6.306  11.196
  107OSM   H11B10945   2.080   6.433  11.231
  107OSM      P10946   2.269   6.363  11.053
  107OSM    O1310947   2.297   6.482  11.139
  107OSM    O1410948   2.332   6.229  11.092
  107OSM    O1110949   2.318   6.390  10.905
  107OSM    O1210950   2.115   6.341  11.048
  107OSM    C1S10951   2.280   6.296  10.810
  107OSM    H1S10952   2.169   6.293  10.807
  107OSM    H1T10953   2.318   6.198  10.848
  107OSM     NF10954   2.259   6.246  10.576
  107OSM    HNF10955   2.278   6.148  10.578
  107OSM    C2S10956   2.337   6.321  10.675
  107OSM    H2S10957   2.333   6.428  10.646
  107OSM    C3S10958   2.483   6.274  10.677
  107OSM    H3S10959   2.486   6.167  10.706
  107OSM     O310960   2.560   6.326  10.783
  107OSM    HO310961   2.496   6.345  10.851
  107OSM    C4S10962   2.547   6.301  10.546
  107OSM    H4S10963   2.540   6.214  10.479
  107OSM    C5S10964   2.608   6.405  10.498
  107OSM    H5S10965   2.599   6.497  10.557
  107OSM    C6S10966   2.665   6.405  10.355
  107OSM    H6S10967   2.741   6.486  10.352
  107OSM    H6T10968   2.594   6.434  10.276
  107OSM    C7S10969   2.736   6.279  10.288
  107OSM    H7S10970   2.663   6.196  10.291
  107OSM    H7T10971   2.824   6.261  10.353
  107OSM    C8S10972   2.772   6.304  10.144
  107OSM    H8S10973   2.852   6.381  10.134
  107OSM    H8T10974   2.689   6.343  10.081
  107OSM    C9S10975   2.841   6.186  10.081
  107OSM    H9S10976   2.784   6.091  10.093
  107OSM    H9T10977   2.941   6.169  10.128
  107OSM   C10S10978   2.880   6.217   9.933
  107OSM   H10S10979   2.943   6.309   9.935
  107OSM   H10T10980   2.777   6.237   9.894
  107OSM   C11S10981   2.956   6.101   9.868
  107OSM   H11S10982   2.902   6.009   9.897
  107OSM   H11T10983   3.063   6.106   9.900
  107OSM   C12S10984   2.945   6.100   9.715
  107OSM   H12S10985   2.982   6.192   9.664
  107OSM   H12T10986   2.835   6.099   9.699
  107OSM   C13S10987   3.016   5.979   9.644
  107OSM   H13S10988   2.965   5.881   9.658
  107OSM   H13T10989   3.117   5.978   9.691
  107OSM   C14S10990   3.019   5.990   9.489
  107OSM   H14S10991   3.092   6.067   9.455
  107OSM   H14T10992   2.918   6.028   9.464
  107OSM   C15S10993   3.048   5.851   9.427
  107OSM   H15S10994   2.985   5.762   9.451
  107OSM   H15T10995   3.151   5.824   9.458
  107OSM   C16S10996   3.042   5.864   9.273
  107OSM   H16S10997   3.080   5.773   9.222
  107OSM   H16T10998   3.102   5.957   9.257
  107OSM   C17S10999   2.911   5.890   9.200
  107OSM   H17S11000   2.851   5.968   9.252
  107OSM   H17T11001   2.843   5.802   9.193
  107OSM   C18S11002   2.944   5.936   9.052
  107OSM   H18S11003   2.997   5.849   9.006
  107OSM   H18T11004   3.004   6.028   9.044
  107OSM   H18U11005   2.848   5.958   9.000
  107OSM    C1F11006   2.148   6.293  10.528
  107OSM     OF11007   2.091   6.387  10.584
  107OSM    C2F11008   2.075   6.206  10.423
  107OSM    H2F11009   1.974   6.250  10.408
  107OSM    H2G11010   2.077   6.100  10.456
  107OSM    C3F11011   2.146   6.205  10.290
  107OSM    H3F11012   2.190   6.303  10.260
  107OSM    H3G11013   2.080   6.160  10.213
  107OSM    C4F11014   2.259   6.094  10.282
  107OSM    H4F11015   2.205   6.000  10.308
  107OSM    H4G11016   2.341   6.096  10.356
  107OSM    C5F11017   2.323   6.087  10.142
  107OSM    H5F11018   2.380   6.178  10.113
  107OSM    H5G11019   2.247   6.082  10.060
  107OSM    C6F11020   2.416   5.966  10.114
  107OSM    H6F11021   2.344   5.882  10.126
  107OSM    H6G11022   2.487   5.960  10.199
  107OSM    C7F11023   2.468   5.976   9.967
  107OSM    H7F11024   2.524   6.072   9.966
  107OSM    H7G11025   2.389   5.987   9.889
  107OSM    C8F11026   2.561   5.861   9.926
  107OSM    H8F11027   2.503   5.767   9.927
  107OSM    H8G11028   2.639   5.851  10.005
  107OSM    C9F11029   2.620   5.884   9.793
  107OSM    H9F11030   2.695   5.964   9.797
  107OSM   C10F11031   2.586   5.827   9.673
  107OSM   H10F11032   2.628   5.863   9.578
  107OSM   C11F11033   2.491   5.717   9.648
  107OSM   H11F11034   2.418   5.748   9.571
  107OSM   H11G11035   2.432   5.696   9.739
  107OSM   C12F11036   2.554   5.585   9.609
  107OSM   H12F11037   2.586   5.542   9.706
  107OSM   H12G11038   2.646   5.597   9.548
  107OSM   C13F11039   2.463   5.489   9.529
  107OSM   H13F11040   2.529   5.399   9.525
  107OSM   H13G11041   2.445   5.519   9.424
  107OSM   C14F11042   2.337   5.443   9.611
  107OSM   H14F11043   2.268   5.525   9.636
  107OSM   H14G11044   2.378   5.407   9.707
  107OSM   C15F11045   2.248   5.323   9.555
  107OSM   H15F11046   2.175   5.295   9.635
  107OSM   H15G11047   2.312   5.233   9.546
  107OSM   C16F11048   2.158   5.378   9.440
  107OSM   H16F11049   2.232   5.432   9.376
  107OSM   H16G11050   2.081   5.450   9.475
  107OSM   C17F11051   2.091   5.269   9.352
  107OSM   H17F11052   2.034   5.192   9.409
  107OSM   H17G11053   2.167   5.211   9.296
  107OSM   C18F11054   1.984   5.335   9.262
  107OSM   H18F11055   1.954   5.268   9.178
  107OSM   H18G11056   2.024   5.433   9.229
  107OSM   H18H11057   1.894   5.348   9.325
  108OSM      N11058   6.153   2.978  10.992
  108OSM    C1511059   6.139   2.836  10.930
  108OSM   H15A11060   6.156   2.833  10.824
  108OSM   H15B11061   6.044   2.787  10.944
  108OSM   H15C11062   6.210   2.764  10.969
  108OSM    C1411063   6.118   2.973  11.139
  108OSM   H14A11064   6.183   2.915  11.202
  108OSM   H14B11065   6.017   2.938  11.155
  108OSM   H14C11066   6.111   3.071  11.184
  108OSM    C1311067   6.299   3.012  10.982
  108OSM   H13A11068   6.356   2.956  11.054
  108OSM   H13B11069   6.326   3.116  10.998
  108OSM   H13C11070   6.331   2.989  10.881
  108OSM    C1211071   6.057   3.073  10.926
  108OSM   H12A11072   5.962   3.028  10.949
  108OSM   H12B11073   6.067   3.076  10.819
  108OSM    C1111074   6.047   3.218  10.975
  108OSM   H11A11075   5.976   3.212  11.060
  108OSM   H11B11076   5.985   3.280  10.907
  108OSM      P11077   6.255   3.340  10.883
  108OSM    O1311078   6.204   3.478  10.868
  108OSM    O1411079   6.399   3.318  10.907
  108OSM    O1111080   6.211   3.256  10.758
  108OSM    O1211081   6.171   3.283  11.001
  108OSM    C1S11082   6.138   3.317  10.656
  108OSM    H1S11083   6.160   3.425  10.643
  108OSM    H1T11084   6.029   3.305  10.674
  108OSM     NF11085   6.066   3.334  10.431
  108OSM    HNF11086   5.969   3.337  10.453
  108OSM    C2S11087   6.149   3.246  10.517
  108OSM    H2S11088   6.255   3.247  10.484
  108OSM    C3S11089   6.102   3.097  10.525
  108OSM    H3S11090   6.002   3.099  10.574
  108OSM     O311091   6.179   3.023  10.615
  108OSM    HO311092   6.216   3.090  10.673
  108OSM    C4S11093   6.089   3.029  10.388
  108OSM    H4S11094   6.004   3.067  10.330
  108OSM    C5S11095   6.170   2.938  10.334
  108OSM    H5S11096   6.264   2.904  10.379
  108OSM    C6S11097   6.139   2.884  10.193
  108OSM    H6S11098   6.032   2.892  10.162
  108OSM    H6T11099   6.160   2.776  10.174
  108OSM    C7S11100   6.230   2.956  10.087
  108OSM    H7S11101   6.331   2.941  10.130
  108OSM    H7T11102   6.199   3.061  10.067
  108OSM    C8S11103   6.213   2.889   9.951
  108OSM    H8S11104   6.137   2.950   9.899
  108OSM    H8T11105   6.178   2.783   9.953
  108OSM    C9S11106   6.341   2.918   9.873
  108OSM    H9S11107   6.420   2.861   9.927
  108OSM    H9T11108   6.369   3.025   9.875
  108OSM   C10S11109   6.352   2.863   9.731
  108OSM   H10S11110   6.267   2.895   9.667
  108OSM   H10T11111   6.342   2.754   9.751
  108OSM   C11S11112   6.485   2.891   9.658
  108OSM   H11S11113   6.563   2.831   9.709
  108OSM   H11T11114   6.505   2.999   9.673
  108OSM   C12S11115   6.483   2.871   9.509
  108OSM   H12S11116   6.394   2.925   9.471
  108OSM   H12T11117   6.462   2.765   9.483
  108OSM   C13S11118   6.603   2.924   9.440
  108OSM   H13S11119   6.699   2.872   9.455
  108OSM   H13T11120   6.609   3.033   9.463
  108OSM   C14S11121   6.573   2.920   9.285
  108OSM   H14S11122   6.475   2.968   9.266
  108OSM   H14T11123   6.577   2.816   9.246
  108OSM   C15S11124   6.678   2.996   9.203
  108OSM   H15S11125   6.703   3.096   9.243
  108OSM   H15T11126   6.624   3.022   9.110
  108OSM   C16S11127   6.804   2.911   9.171
  108OSM   H16S11128   6.771   2.812   9.133
  108OSM   H16T11129   6.867   2.883   9.258
  108OSM   C17S11130   6.896   2.954   9.056
  108OSM   H17S11131   6.831   2.991   8.973
  108OSM   H17T11132   6.953   2.867   9.019
  108OSM   C18S11133   7.001   3.062   9.089
  108OSM   H18S11134   6.956   3.156   9.127
  108OSM   H18T11135   7.056   3.082   8.995
  108OSM   H18U11136   7.072   3.014   9.160
  108OSM    C1F11137   6.125   3.439  10.378
  108OSM     OF11138   6.246   3.455  10.368
  108OSM    C2F11139   6.044   3.555  10.353
  108OSM    H2F11140   6.079   3.634  10.422
  108OSM    H2G11141   5.936   3.542  10.376
  108OSM    C3F11142   6.045   3.605  10.210
  108OSM    H3F11143   6.148   3.615  10.169
  108OSM    H3G11144   6.000   3.707  10.204
  108OSM    C4F11145   5.967   3.510  10.110
  108OSM    H4F11146   5.860   3.507  10.140
  108OSM    H4G11147   6.011   3.408  10.118
  108OSM    C5F11148   5.977   3.558   9.964
  108OSM    H5F11149   6.085   3.571   9.942
  108OSM    H5G11150   5.934   3.660   9.952
  108OSM    C6F11151   5.918   3.468   9.864
  108OSM    H6F11152   5.808   3.478   9.875
  108OSM    H6G11153   5.947   3.361   9.859
  108OSM    C7F11154   5.947   3.514   9.712
  108OSM    H7F11155   6.055   3.516   9.687
  108OSM    H7G11156   5.917   3.619   9.689
  108OSM    C8F11157   5.881   3.413   9.610
  108OSM    H8F11158   5.774   3.419   9.639
  108OSM    H8G11159   5.927   3.314   9.631
  108OSM    C9F11160   5.894   3.457   9.465
  108OSM    H9F11161   5.990   3.507   9.448
  108OSM   C10F11162   5.815   3.429   9.363
  108OSM   H10F11163   5.846   3.480   9.270
  108OSM   C11F11164   5.689   3.340   9.355
  108OSM   H11F11165   5.622   3.405   9.296
  108OSM   H11G11166   5.642   3.319   9.454
  108OSM   C12F11167   5.693   3.209   9.273
  108OSM   H12F11168   5.726   3.234   9.170
  108OSM   H12G11169   5.589   3.171   9.266
  108OSM   C13F11170   5.774   3.095   9.323
  108OSM   H13F11171   5.867   3.143   9.359
  108OSM   H13G11172   5.804   3.024   9.243
  108OSM   C14F11173   5.720   3.043   9.459
  108OSM   H14F11174   5.647   2.965   9.429
  108OSM   H14G11175   5.680   3.129   9.516
  108OSM   C15F11176   5.820   2.975   9.554
  108OSM   H15F11177   5.822   3.032   9.649
  108OSM   H15G11178   5.923   2.976   9.513
  108OSM   C16F11179   5.787   2.827   9.555
  108OSM   H16F11180   5.810   2.805   9.449
  108OSM   H16G11181   5.683   2.817   9.592
  108OSM   C17F11182   5.878   2.736   9.651
  108OSM   H17F11183   5.816   2.645   9.666
  108OSM   H17G11184   5.877   2.771   9.756
  108OSM   C18F11185   6.021   2.730   9.603
  108OSM   H18F11186   6.084   2.665   9.668
  108OSM   H18G11187   6.066   2.830   9.616
  108OSM   H18H11188   6.034   2.694   9.498
  109OSM      N11189   0.155   4.703  10.949
  109OSM    C1511190   0.183   4.571  10.889
  109OSM   H15A11191   0.237   4.583  10.797
  109OSM   H15B11192   0.093   4.521  10.855
  109OSM   H15C11193   0.247   4.509  10.949
  109OSM    C1411194   0.068   4.677  11.070
  109OSM   H14A11195  -0.033   4.669  11.032
  109OSM   H14B11196   0.060   4.755  11.144
  109OSM   H14C11197   0.094   4.587  11.124
  109OSM    C1311198   0.284   4.764  11.004
  109OSM   H13A11199   0.323   4.692  11.074
  109OSM   H13B11200   0.263   4.859  11.049
  109OSM   H13C11201   0.358   4.770  10.926
  109OSM    C1211202   0.091   4.804  10.856
  109OSM   H12A11203   0.162   4.828  10.778
  109OSM   H12B11204   0.066   4.892  10.914
  109OSM    C1111205  -0.045   4.760  10.787
  109OSM   H11A11206  -0.082   4.846  10.727
  109OSM   H11B11207  -0.127   4.731  10.856
  109OSM      P11208  -0.135   4.585  10.614
  109OSM    O1311209  -0.089   4.495  10.506
  109OSM    O1411210  -0.221   4.529  10.722
  109OSM    O1111211  -0.210   4.708  10.555
  109OSM    O1211212  -0.008   4.649  10.693
  109OSM    C1S11213  -0.147   4.802  10.465
  109OSM    H1S11214  -0.042   4.822  10.493
  109OSM    H1T11215  -0.200   4.899  10.471
  109OSM     NF11216  -0.054   4.841  10.254
  109OSM    HNF11217  -0.078   4.932  10.219
  109OSM    C2S11218  -0.150   4.759  10.319
  109OSM    H2S11219  -0.120   4.653  10.309
  109OSM    C3S11220  -0.293   4.776  10.267
  109OSM    H3S11221  -0.320   4.883  10.257
  109OSM     O311222  -0.400   4.716  10.341
  109OSM    HO311223  -0.356   4.679  10.418
  109OSM    C4S11224  -0.305   4.720  10.126
  109OSM    H4S11225  -0.283   4.613  10.115
  109OSM    C5S11226  -0.338   4.795  10.019
  109OSM    H5S11227  -0.315   4.903  10.021
  109OSM    C6S11228  -0.344   4.735   9.879
  109OSM    H6S11229  -0.355   4.824   9.812
  109OSM    H6T11230  -0.437   4.675   9.866
  109OSM    C7S11231  -0.220   4.659   9.828
  109OSM    H7S11232  -0.213   4.567   9.890
  109OSM    H7T11233  -0.127   4.718   9.843
  109OSM    C8S11234  -0.230   4.614   9.679
  109OSM    H8S11235  -0.307   4.534   9.677
  109OSM    H8T11236  -0.136   4.572   9.637
  109OSM    C9S11237  -0.295   4.717   9.593
  109OSM    H9S11238  -0.260   4.819   9.619
  109OSM    H9T11239  -0.405   4.714   9.611
  109OSM   C10S11240  -0.260   4.697   9.441
  109OSM   H10S11241  -0.305   4.600   9.410
  109OSM   H10T11242  -0.151   4.704   9.420
  109OSM   C11S11243  -0.330   4.803   9.364
  109OSM   H11S11244  -0.285   4.898   9.400
  109OSM   H11T11245  -0.436   4.812   9.395
  109OSM   C12S11246  -0.314   4.785   9.210
  109OSM   H12S11247  -0.211   4.811   9.176
  109OSM   H12T11248  -0.381   4.857   9.159
  109OSM   C13S11249  -0.349   4.643   9.170
  109OSM   H13S11250  -0.451   4.620   9.207
  109OSM   H13T11251  -0.274   4.581   9.224
  109OSM   C14S11252  -0.346   4.616   9.019
  109OSM   H14S11253  -0.252   4.656   8.974
  109OSM   H14T11254  -0.437   4.659   8.972
  109OSM   C15S11255  -0.344   4.471   8.972
  109OSM   H15S11256  -0.441   4.426   9.001
  109OSM   H15T11257  -0.255   4.425   9.020
  109OSM   C16S11258  -0.331   4.449   8.821
  109OSM   H16S11259  -0.339   4.340   8.801
  109OSM   H16T11260  -0.232   4.483   8.784
  109OSM   C17S11261  -0.439   4.537   8.739
  109OSM   H17S11262  -0.417   4.643   8.766
  109OSM   H17T11263  -0.534   4.506   8.788
  109OSM   C18S11264  -0.438   4.507   8.589
  109OSM   H18S11265  -0.520   4.567   8.544
  109OSM   H18T11266  -0.453   4.401   8.559
  109OSM   H18U11267  -0.343   4.546   8.547
  109OSM    C1F11268   0.081   4.814  10.252
  109OSM     OF11269   0.126   4.710  10.301
  109OSM    C2F11270   0.165   4.908  10.190
  109OSM    H2F11271   0.223   4.961  10.268
  109OSM    H2G11272   0.101   4.979  10.133
  109OSM    C3F11273   0.279   4.838  10.110
  109OSM    H3F11274   0.334   4.764  10.172
  109OSM    H3G11275   0.353   4.916  10.081
  109OSM    C4F11276   0.223   4.776   9.984
  109OSM    H4F11277   0.164   4.685  10.007
  109OSM    H4G11278   0.308   4.747   9.918
  109OSM    C5F11279   0.136   4.883   9.904
  109OSM    H5F11280   0.179   4.985   9.906
  109OSM    H5G11281   0.039   4.891   9.957
  109OSM    C6F11282   0.103   4.840   9.754
  109OSM    H6F11283   0.006   4.890   9.734
  109OSM    H6G11284   0.089   4.731   9.737
  109OSM    C7F11285   0.202   4.893   9.649
  109OSM    H7F11286   0.303   4.854   9.674
  109OSM    H7G11287   0.181   5.000   9.666
  109OSM    C8F11288   0.174   4.869   9.499
  109OSM    H8F11289   0.247   4.930   9.441
  109OSM    H8G11290   0.071   4.899   9.470
  109OSM    C9F11291   0.192   4.724   9.468
  109OSM    H9F11292   0.192   4.666   9.562
  109OSM   C10F11293   0.202   4.671   9.351
  109OSM   H10F11294   0.198   4.562   9.343
  109OSM   C11F11295   0.207   4.748   9.219
  109OSM   H11F11296   0.307   4.735   9.173
  109OSM   H11G11297   0.191   4.857   9.235
  109OSM   C12F11298   0.101   4.698   9.117
  109OSM   H12F11299  -0.005   4.689   9.149
  109OSM   H12G11300   0.123   4.599   9.071
  109OSM   C13F11301   0.110   4.806   9.000
  109OSM   H13F11302   0.214   4.820   8.962
  109OSM   H13G11303   0.077   4.898   9.053
  109OSM   C14F11304   0.034   4.772   8.872
  109OSM   H14F11305   0.040   4.852   8.795
  109OSM   H14G11306  -0.073   4.774   8.901
  109OSM   C15F11307   0.071   4.642   8.800
  109OSM   H15F11308   0.016   4.560   8.850
  109OSM   H15G11309   0.181   4.631   8.785
  109OSM   C16F11310   0.015   4.636   8.659
  109OSM   H16F11311   0.040   4.727   8.599
  109OSM   H16G11312  -0.095   4.653   8.659
  109OSM   C17F11313   0.038   4.505   8.577
  109OSM   H17F11314  -0.006   4.422   8.635
  109OSM   H17G11315   0.147   4.485   8.565
  109OSM   C18F11316  -0.023   4.512   8.437
  109OSM   H18F11317   0.020   4.446   8.359
  109OSM   H18G11318  -0.014   4.610   8.386
  109OSM   H18H11319  -0.131   4.483   8.441
  110OSM      N11320   1.781   4.231  11.082
  110OSM    C1511321   1.927   4.250  11.063
  110OSM   H15A11322   1.941   4.330  10.992
  110OSM   H15B11323   1.974   4.156  11.040
  110OSM   H15C11324   1.976   4.291  11.150
  110OSM    C1411325   1.748   4.108  11.156
  110OSM   H14A11326   1.809   4.022  11.133
  110OSM   H14B11327   1.646   4.073  11.145
  110OSM   H14C11328   1.756   4.126  11.262
  110OSM    C1311329   1.717   4.351  11.148
  110OSM   H13A11330   1.612   4.326  11.159
  110OSM   H13B11331   1.728   4.434  11.080
  110OSM   H13C11332   1.767   4.378  11.240
  110OSM    C1211333   1.721   4.221  10.941
  110OSM   H12A11334   1.712   4.320  10.899
  110OSM   H12B11335   1.616   4.201  10.954
  110OSM    C1111336   1.783   4.134  10.836
  110OSM   H11A11337   1.884   4.165  10.804
  110OSM   H11B11338   1.743   4.163  10.736
  110OSM      P11339   1.640   3.923  10.843
  110OSM    O1311340   1.661   3.775  10.880
  110OSM    O1411341   1.540   4.000  10.918
  110OSM    O1111342   1.598   3.929  10.688
  110OSM    O1211343   1.777   3.992  10.860
  110OSM    C1S11344   1.450   3.919  10.653
  110OSM    H1S11345   1.402   4.018  10.669
  110OSM    H1T11346   1.398   3.845  10.717
  110OSM     NF11347   1.287   3.877  10.462
  110OSM    HNF11348   1.240   3.794  10.435
  110OSM    C2S11349   1.429   3.877  10.505
  110OSM    H2S11350   1.495   3.945  10.448
  110OSM    C3S11351   1.489   3.740  10.475
  110OSM    H3S11352   1.417   3.665  10.516
  110OSM     O311353   1.613   3.708  10.542
  110OSM    HO311354   1.610   3.770  10.615
  110OSM    C4S11355   1.496   3.700  10.325
  110OSM    H4S11356   1.401   3.666  10.280
  110OSM    C5S11357   1.610   3.702  10.250
  110OSM    H5S11358   1.705   3.732  10.297
  110OSM    C6S11359   1.613   3.682  10.101
  110OSM    H6S11360   1.719   3.662  10.075
  110OSM    H6T11361   1.576   3.764  10.035
  110OSM    C7S11362   1.541   3.549  10.065
  110OSM    H7S11363   1.433   3.573  10.055
  110OSM    H7T11364   1.550   3.467  10.139
  110OSM    C8S11365   1.574   3.484   9.927
  110OSM    H8S11366   1.492   3.410   9.916
  110OSM    H8T11367   1.674   3.435   9.919
  110OSM    C9S11368   1.553   3.586   9.808
  110OSM    H9S11369   1.639   3.653   9.825
  110OSM    H9T11370   1.450   3.622   9.827
  110OSM   C10S11371   1.556   3.505   9.674
  110OSM   H10S11372   1.477   3.427   9.686
  110OSM   H10T11373   1.657   3.458   9.671
  110OSM   C11S11374   1.534   3.588   9.539
  110OSM   H11S11375   1.628   3.631   9.499
  110OSM   H11T11376   1.476   3.679   9.566
  110OSM   C12S11377   1.466   3.506   9.420
  110OSM   H12S11378   1.426   3.579   9.346
  110OSM   H12T11379   1.378   3.442   9.440
  110OSM   C13S11380   1.561   3.405   9.354
  110OSM   H13S11381   1.586   3.332   9.434
  110OSM   H13T11382   1.656   3.459   9.337
  110OSM   C14S11383   1.518   3.341   9.222
  110OSM   H14S11384   1.415   3.299   9.230
  110OSM   H14T11385   1.588   3.261   9.191
  110OSM   C15S11386   1.509   3.450   9.110
  110OSM   H15S11387   1.599   3.515   9.114
  110OSM   H15T11388   1.420   3.515   9.126
  110OSM   C16S11389   1.497   3.388   8.970
  110OSM   H16S11390   1.505   3.277   8.979
  110OSM   H16T11391   1.578   3.428   8.905
  110OSM   C17S11392   1.359   3.411   8.914
  110OSM   H17S11393   1.324   3.516   8.925
  110OSM   H17T11394   1.288   3.343   8.965
  110OSM   C18S11395   1.362   3.396   8.760
  110OSM   H18S11396   1.433   3.470   8.715
  110OSM   H18T11397   1.261   3.414   8.717
  110OSM   H18U11398   1.382   3.289   8.735
  110OSM    C1F11399   1.213   3.992  10.458
  110OSM     OF11400   1.264   4.098  10.490
  110OSM    C2F11401   1.063   3.983  10.436
  110OSM    H2F11402   1.018   4.014  10.533
  110OSM    H2G11403   1.034   3.877  10.418
  110OSM    C3F11404   1.029   4.063  10.306
  110OSM    H3F11405   1.096   4.031  10.223
  110OSM    H3G11406   1.059   4.166  10.332
  110OSM    C4F11407   0.881   4.050  10.268
  110OSM    H4F11408   0.823   4.069  10.360
  110OSM    H4G11409   0.848   3.949  10.236
  110OSM    C5F11410   0.839   4.155  10.158
  110OSM    H5F11411   0.862   4.259  10.192
  110OSM    H5G11412   0.733   4.153  10.124
  110OSM    C6F11413   0.930   4.142  10.027
  110OSM    H6F11414   0.921   4.037   9.992
  110OSM    H6G11415   1.037   4.151  10.055
  110OSM    C7F11416   0.886   4.234   9.908
  110OSM    H7F11417   0.903   4.340   9.937
  110OSM    H7G11418   0.782   4.215   9.873
  110OSM    C8F11419   0.972   4.202   9.779
  110OSM    H8F11420   1.078   4.222   9.806
  110OSM    H8G11421   0.946   4.282   9.707
  110OSM    C9F11422   0.953   4.065   9.713
  110OSM    H9F11423   1.003   3.989   9.774
  110OSM   C10F11424   0.887   4.036   9.598
  110OSM   H10F11425   0.896   3.934   9.557
  110OSM   C11F11426   0.809   4.140   9.513
  110OSM   H11F11427   0.774   4.233   9.563
  110OSM   H11G11428   0.718   4.088   9.476
  110OSM   C12F11429   0.893   4.185   9.394
  110OSM   H12F11430   0.999   4.215   9.409
  110OSM   H12G11431   0.840   4.268   9.344
  110OSM   C13F11432   0.916   4.076   9.295
  110OSM   H13F11433   0.831   4.006   9.308
  110OSM   H13G11434   1.003   4.012   9.322
  110OSM   C14F11435   0.931   4.108   9.147
  110OSM   H14F11436   0.828   4.141   9.125
  110OSM   H14G11437   0.954   4.018   9.087
  110OSM   C15F11438   1.042   4.207   9.115
  110OSM   H15F11439   1.134   4.167   9.164
  110OSM   H15G11440   1.017   4.307   9.156
  110OSM   C16F11441   1.073   4.212   8.973
  110OSM   H16F11442   0.974   4.242   8.933
  110OSM   H16G11443   1.109   4.117   8.929
  110OSM   C17F11444   1.177   4.316   8.937
  110OSM   H17F11445   1.270   4.277   8.985
  110OSM   H17G11446   1.166   4.409   8.997
  110OSM   C18F11447   1.196   4.351   8.790
  110OSM   H18F11448   1.256   4.285   8.724
  110OSM   H18G11449   1.250   4.448   8.786
  110OSM   H18H11450   1.099   4.373   8.741
  111OSM      N11451   2.056   0.525  11.124
  111OSM    C1511452   2.208   0.518  11.151
  111OSM   H15A11453   2.226   0.470  11.246
  111OSM   H15B11454   2.250   0.617  11.163
  111OSM   H15C11455   2.261   0.462  11.076
  111OSM    C1411456   2.005   0.383  11.126
  111OSM   H14A11457   1.900   0.373  11.105
  111OSM   H14B11458   2.040   0.347  11.222
  111OSM   H14C11459   2.067   0.337  11.051
  111OSM    C1311460   1.991   0.587  11.236
  111OSM   H13A11461   1.883   0.592  11.228
  111OSM   H13B11462   2.021   0.690  11.249
  111OSM   H13C11463   2.002   0.532  11.328
  111OSM    C1211464   2.034   0.596  10.992
  111OSM   H12A11465   2.094   0.686  10.995
  111OSM   H12B11466   1.929   0.618  10.977
  111OSM    C1111467   2.096   0.528  10.861
  111OSM   H11A11468   2.048   0.584  10.778
  111OSM   H11B11469   2.067   0.422  10.849
  111OSM      P11470   2.325   0.659  10.828
  111OSM    O1311471   2.283   0.774  10.912
  111OSM    O1411472   2.465   0.614  10.837
  111OSM    O1111473   2.287   0.678  10.675
  111OSM    O1211474   2.239   0.535  10.876
  111OSM    C1S11475   2.272   0.570  10.581
  111OSM    H1S11476   2.240   0.481  10.640
  111OSM    H1T11477   2.368   0.555  10.527
  111OSM     NF11478   2.168   0.483  10.378
  111OSM    HNF11479   2.240   0.464  10.311
  111OSM    C2S11480   2.182   0.598  10.463
  111OSM    H2S11481   2.087   0.634  10.509
  111OSM    C3S11482   2.222   0.721  10.383
  111OSM    H3S11483   2.330   0.706  10.360
  111OSM     O311484   2.231   0.839  10.467
  111OSM    HO311485   2.257   0.802  10.552
  111OSM    C4S11486   2.140   0.738  10.262
  111OSM    H4S11487   2.190   0.692  10.175
  111OSM    C5S11488   2.025   0.804  10.262
  111OSM    H5S11489   1.983   0.840  10.357
  111OSM    C6S11490   1.927   0.811  10.141
  111OSM    H6S11491   1.957   0.902  10.084
  111OSM    H6T11492   1.822   0.831  10.173
  111OSM    C7S11493   1.952   0.704  10.028
  111OSM    H7S11494   1.858   0.719   9.971
  111OSM    H7T11495   1.955   0.603  10.075
  111OSM    C8S11496   2.071   0.725   9.932
  111OSM    H8S11497   2.168   0.702   9.982
  111OSM    H8T11498   2.065   0.822   9.878
  111OSM    C9S11499   2.062   0.620   9.812
  111OSM    H9S11500   1.965   0.609   9.760
  111OSM    H9T11501   2.083   0.520   9.856
  111OSM   C10S11502   2.158   0.657   9.697
  111OSM   H10S11503   2.251   0.699   9.742
  111OSM   H10T11504   2.126   0.748   9.641
  111OSM   C11S11505   2.214   0.546   9.613
  111OSM   H11S11506   2.241   0.461   9.680
  111OSM   H11T11507   2.308   0.581   9.565
  111OSM   C12S11508   2.114   0.495   9.503
  111OSM   H12S11509   2.061   0.586   9.467
  111OSM   H12T11510   2.025   0.444   9.545
  111OSM   C13S11511   2.179   0.409   9.398
  111OSM   H13S11512   2.218   0.323   9.456
  111OSM   H13T11513   2.251   0.478   9.348
  111OSM   C14S11514   2.077   0.347   9.290
  111OSM   H14S11515   2.035   0.431   9.230
  111OSM   H14T11516   2.002   0.281   9.339
  111OSM   C15S11517   2.136   0.256   9.180
  111OSM   H15S11518   2.052   0.214   9.121
  111OSM   H15T11519   2.168   0.169   9.241
  111OSM   C16S11520   2.246   0.307   9.088
  111OSM   H16S11521   2.313   0.225   9.053
  111OSM   H16T11522   2.300   0.389   9.139
  111OSM   C17S11523   2.197   0.381   8.958
  111OSM   H17S11524   2.120   0.456   8.986
  111OSM   H17T11525   2.138   0.309   8.898
  111OSM   C18S11526   2.307   0.448   8.884
  111OSM   H18S11527   2.355   0.521   8.954
  111OSM   H18T11528   2.270   0.502   8.795
  111OSM   H18U11529   2.376   0.373   8.839
  111OSM    C1F11530   2.092   0.390  10.427
  111OSM     OF11531   2.019   0.412  10.531
  111OSM    C2F11532   2.097   0.250  10.357
  111OSM    H2F11533   2.039   0.167  10.402
  111OSM    H2G11534   2.202   0.215  10.359
  111OSM    C3F11535   2.049   0.257  10.217
  111OSM    H3F11536   2.077   0.353  10.168
  111OSM    H3G11537   1.938   0.248  10.212
  111OSM    C4F11538   2.105   0.136  10.138
  111OSM    H4F11539   2.065   0.043  10.186
  111OSM    H4G11540   2.215   0.147  10.149
  111OSM    C5F11541   2.069   0.145   9.990
  111OSM    H5F11542   2.109   0.052   9.944
  111OSM    H5G11543   2.118   0.232   9.940
  111OSM    C6F11544   1.922   0.155   9.968
  111OSM    H6F11545   1.900   0.264   9.978
  111OSM    H6G11546   1.863   0.090  10.035
  111OSM    C7F11547   1.881   0.114   9.825
  111OSM    H7F11548   1.777   0.147   9.803
  111OSM    H7G11549   1.884   0.003   9.818
  111OSM    C8F11550   1.976   0.178   9.720
  111OSM    H8F11551   2.084   0.158   9.733
  111OSM    H8G11552   1.968   0.287   9.738
  111OSM    C9F11553   1.934   0.146   9.578
  111OSM    H9F11554   1.837   0.190   9.553
  111OSM   C10F11555   2.000   0.067   9.494
  111OSM   H10F11556   1.962   0.033   9.397
  111OSM   C11F11557   2.131  -0.008   9.525
  111OSM   H11F11558   2.111  -0.103   9.578
  111OSM   H11G11559   2.205   0.044   9.590
  111OSM   C12F11560   2.211  -0.050   9.402
  111OSM   H12F11561   2.270   0.039   9.371
  111OSM   H12G11562   2.153  -0.092   9.317
  111OSM   C13F11563   2.319  -0.160   9.436
  111OSM   H13F11564   2.255  -0.242   9.474
  111OSM   H13G11565   2.375  -0.116   9.521
  111OSM   C14F11566   2.404  -0.203   9.320
  111OSM   H14F11567   2.463  -0.291   9.355
  111OSM   H14G11568   2.479  -0.126   9.291
  111OSM   C15F11569   2.327  -0.244   9.190
  111OSM   H15F11570   2.276  -0.153   9.151
  111OSM   H15G11571   2.242  -0.313   9.211
  111OSM   C16F11572   2.423  -0.295   9.073
  111OSM   H16F11573   2.481  -0.385   9.101
  111OSM   H16G11574   2.488  -0.212   9.038
  111OSM   C17F11575   2.325  -0.357   8.969
  111OSM   H17F11576   2.241  -0.292   8.938
  111OSM   H17G11577   2.297  -0.452   9.019
  111OSM   C18F11578   2.394  -0.383   8.836
  111OSM   H18F11579   2.468  -0.465   8.847
  111OSM   H18G11580   2.447  -0.295   8.795
  111OSM   H18H11581   2.317  -0.418   8.764
  112OSM      N11582   3.057   4.831  10.884
  112OSM    C1511583   3.026   4.861  11.021
  112OSM   H15A11584   2.989   4.963  11.016
  112OSM   H15B11585   3.118   4.859  11.078
  112OSM   H15C11586   2.956   4.786  11.054
  112OSM    C1411587   3.126   4.949  10.830
  112OSM   H14A11588   3.225   4.964  10.870
  112OSM   H14B11589   3.082   5.044  10.854
  112OSM   H14C11590   3.136   4.947  10.722
  112OSM    C1311591   3.155   4.715  10.872
  112OSM   H13A11592   3.247   4.728  10.928
  112OSM   H13B11593   3.181   4.694  10.769
  112OSM   H13C11594   3.107   4.629  10.916
  112OSM    C1211595   2.933   4.805  10.807
  112OSM   H12A11596   2.954   4.817  10.701
  112OSM   H12B11597   2.855   4.876  10.830
  112OSM    C1111598   2.861   4.670  10.833
  112OSM   H11A11599   2.944   4.596  10.824
  112OSM   H11B11600   2.786   4.641  10.757
  112OSM      P11601   2.658   4.739  10.998
  112OSM    O1311602   2.608   4.671  11.121
  112OSM    O1411603   2.686   4.884  11.014
  112OSM    O1111604   2.562   4.711  10.875
  112OSM    O1211605   2.795   4.675  10.960
  112OSM    C1S11606   2.536   4.811  10.776
  112OSM    H1S11607   2.622   4.873  10.743
  112OSM    H1T11608   2.465   4.888  10.810
  112OSM     NF11609   2.455   4.846  10.547
  112OSM    HNF11610   2.364   4.881  10.525
  112OSM    C2S11611   2.476   4.750  10.647
  112OSM    H2S11612   2.536   4.663  10.611
  112OSM    C3S11613   2.332   4.692  10.673
  112OSM    H3S11614   2.264   4.780  10.664
  112OSM     O311615   2.318   4.635  10.804
  112OSM    HO311616   2.401   4.657  10.846
  112OSM    C4S11617   2.281   4.603  10.556
  112OSM    H4S11618   2.256   4.656  10.463
  112OSM    C5S11619   2.280   4.469  10.558
  112OSM    H5S11620   2.316   4.408  10.642
  112OSM    C6S11621   2.242   4.380  10.440
  112OSM    H6S11622   2.131   4.381  10.433
  112OSM    H6T11623   2.263   4.273  10.459
  112OSM    C7S11624   2.298   4.436  10.309
  112OSM    H7S11625   2.408   4.452  10.313
  112OSM    H7T11626   2.250   4.531  10.279
  112OSM    C8S11627   2.264   4.344  10.194
  112OSM    H8S11628   2.164   4.298  10.210
  112OSM    H8T11629   2.336   4.260  10.207
  112OSM    C9S11630   2.279   4.394  10.052
  112OSM    H9S11631   2.383   4.426  10.029
  112OSM    H9T11632   2.203   4.475  10.049
  112OSM   C10S11633   2.239   4.298   9.935
  112OSM   H10S11634   2.136   4.257   9.938
  112OSM   H10T11635   2.305   4.209   9.945
  112OSM   C11S11636   2.268   4.372   9.803
  112OSM   H11S11637   2.360   4.434   9.813
  112OSM   H11T11638   2.177   4.427   9.771
  112OSM   C12S11639   2.299   4.281   9.679
  112OSM   H12S11640   2.206   4.220   9.676
  112OSM   H12T11641   2.389   4.219   9.695
  112OSM   C13S11642   2.309   4.361   9.555
  112OSM   H13S11643   2.404   4.419   9.552
  112OSM   H13T11644   2.219   4.426   9.547
  112OSM   C14S11645   2.299   4.263   9.437
  112OSM   H14S11646   2.222   4.185   9.454
  112OSM   H14T11647   2.396   4.215   9.413
  112OSM   C15S11648   2.277   4.347   9.311
  112OSM   H15S11649   2.373   4.400   9.291
  112OSM   H15T11650   2.192   4.415   9.333
  112OSM   C16S11651   2.235   4.276   9.179
  112OSM   H16S11652   2.148   4.210   9.198
  112OSM   H16T11653   2.315   4.206   9.148
  112OSM   C17S11654   2.197   4.376   9.072
  112OSM   H17S11655   2.272   4.456   9.091
  112OSM   H17T11656   2.104   4.435   9.082
  112OSM   C18S11657   2.209   4.317   8.936
  112OSM   H18S11658   2.318   4.319   8.916
  112OSM   H18T11659   2.155   4.378   8.860
  112OSM   H18U11660   2.185   4.209   8.939
  112OSM    C1F11661   2.563   4.901  10.481
  112OSM     OF11662   2.675   4.876  10.514
  112OSM    C2F11663   2.536   4.989  10.358
  112OSM    H2F11664   2.570   5.092  10.378
  112OSM    H2G11665   2.427   4.979  10.340
  112OSM    C3F11666   2.606   4.926  10.234
  112OSM    H3F11667   2.715   4.917  10.253
  112OSM    H3G11668   2.601   5.009  10.161
  112OSM    C4F11669   2.540   4.802  10.174
  112OSM    H4F11670   2.433   4.805  10.202
  112OSM    H4G11671   2.589   4.714  10.220
  112OSM    C5F11672   2.562   4.796  10.022
  112OSM    H5F11673   2.670   4.806  10.000
  112OSM    H5G11674   2.513   4.881   9.970
  112OSM    C6F11675   2.523   4.665   9.963
  112OSM    H6F11676   2.414   4.648   9.945
  112OSM    H6G11677   2.558   4.586  10.033
  112OSM    C7F11678   2.589   4.630   9.827
  112OSM    H7F11679   2.607   4.521   9.825
  112OSM    H7G11680   2.688   4.679   9.816
  112OSM    C8F11681   2.505   4.675   9.713
  112OSM    H8F11682   2.507   4.785   9.728
  112OSM    H8G11683   2.399   4.644   9.712
  112OSM    C9F11684   2.570   4.642   9.581
  112OSM    H9F11685   2.591   4.537   9.558
  112OSM   C10F11686   2.590   4.729   9.477
  112OSM   H10F11687   2.637   4.699   9.382
  112OSM   C11F11688   2.548   4.869   9.487
  112OSM   H11F11689   2.631   4.919   9.540
  112OSM   H11G11690   2.455   4.869   9.549
  112OSM   C12F11691   2.524   4.944   9.359
  112OSM   H12F11692   2.423   4.933   9.315
  112OSM   H12G11693   2.593   4.911   9.277
  112OSM   C13F11694   2.540   5.097   9.373
  112OSM   H13F11695   2.639   5.118   9.418
  112OSM   H13G11696   2.455   5.144   9.427
  112OSM   C14F11697   2.541   5.170   9.241
  112OSM   H14F11698   2.614   5.118   9.176
  112OSM   H14G11699   2.577   5.271   9.267
  112OSM   C15F11700   2.407   5.181   9.173
  112OSM   H15F11701   2.344   5.240   9.243
  112OSM   H15G11702   2.368   5.078   9.158
  112OSM   C16F11703   2.412   5.252   9.039
  112OSM   H16F11704   2.455   5.187   8.959
  112OSM   H16G11705   2.473   5.344   9.044
  112OSM   C17F11706   2.262   5.293   9.011
  112OSM   H17F11707   2.211   5.338   9.099
  112OSM   H17G11708   2.209   5.202   8.976
  112OSM   C18F11709   2.262   5.385   8.891
  112OSM   H18F11710   2.156   5.403   8.863
  112OSM   H18G11711   2.313   5.334   8.806
  112OSM   H18H11712   2.315   5.481   8.910
  113OSM      N11713   6.421   1.496  11.409
  113OSM    C1511714   6.365   1.387  11.505
  113OSM   H15A11715   6.427   1.376  11.592
  113OSM   H15B11716   6.360   1.290  11.457
  113OSM   H15C11717   6.266   1.410  11.541
  113OSM    C1411718   6.423   1.626  11.482
  113OSM   H14A11719   6.325   1.670  11.484
  113OSM   H14B11720   6.486   1.704  11.440
  113OSM   H14C11721   6.450   1.610  11.585
  113OSM    C1311722   6.561   1.463  11.374
  113OSM   H13A11723   6.577   1.359  11.347
  113OSM   H13B11724   6.631   1.485  11.453
  113OSM   H13C11725   6.594   1.516  11.285
  113OSM    C1211726   6.336   1.512  11.285
  113OSM   H12A11727   6.238   1.521  11.330
  113OSM   H12B11728   6.348   1.420  11.230
  113OSM    C1111729   6.384   1.632  11.185
  113OSM   H11A11730   6.383   1.728  11.241
  113OSM   H11B11731   6.301   1.658  11.115
  113OSM      P11732   6.515   1.504  11.009
  113OSM    O1311733   6.647   1.525  10.940
  113OSM    O1411734   6.490   1.371  11.062
  113OSM    O1111735   6.400   1.547  10.905
  113OSM    O1211736   6.514   1.604  11.133
  113OSM    C1S11737   6.432   1.573  10.768
  113OSM    H1S11738   6.475   1.482  10.720
  113OSM    H1T11739   6.514   1.648  10.768
  113OSM     NF11740   6.347   1.646  10.555
  113OSM    HNF11741   6.389   1.732  10.527
  113OSM    C2S11742   6.313   1.631  10.694
  113OSM    H2S11743   6.240   1.548  10.698
  113OSM    C3S11744   6.269   1.764  10.761
  113OSM    H3S11745   6.359   1.828  10.779
  113OSM     O311746   6.211   1.736  10.889
  113OSM    HO311747   6.251   1.653  10.915
  113OSM    C4S11748   6.165   1.823  10.674
  113OSM    H4S11749   6.079   1.756  10.659
  113OSM    C5S11750   6.161   1.951  10.628
  113OSM    H5S11751   6.238   2.025  10.654
  113OSM    C6S11752   6.054   2.004  10.535
  113OSM    H6S11753   5.991   2.074  10.596
  113OSM    H6T11754   5.990   1.920  10.502
  113OSM    C7S11755   6.110   2.086  10.418
  113OSM    H7S11756   6.176   2.169  10.450
  113OSM    H7T11757   6.021   2.132  10.370
  113OSM    C8S11758   6.177   1.995  10.311
  113OSM    H8S11759   6.104   1.912  10.296
  113OSM    H8T11760   6.270   1.957  10.359
  113OSM    C9S11761   6.210   2.062  10.176
  113OSM    H9S11762   6.275   2.147  10.207
  113OSM    H9T11763   6.112   2.093  10.132
  113OSM   C10S11764   6.298   1.980  10.082
  113OSM   H10S11765   6.251   1.879  10.077
  113OSM   H10T11766   6.400   1.969  10.124
  113OSM   C11S11767   6.299   2.035   9.943
  113OSM   H11S11768   6.349   2.133   9.957
  113OSM   H11T11769   6.195   2.042   9.903
  113OSM   C12S11770   6.371   1.936   9.847
  113OSM   H12S11771   6.298   1.853   9.839
  113OSM   H12T11772   6.463   1.889   9.886
  113OSM   C13S11773   6.377   1.989   9.695
  113OSM   H13S11774   6.434   2.084   9.689
  113OSM   H13T11775   6.269   2.010   9.680
  113OSM   C14S11776   6.417   1.889   9.585
  113OSM   H14S11777   6.360   1.796   9.607
  113OSM   H14T11778   6.523   1.861   9.598
  113OSM   C15S11779   6.406   1.948   9.449
  113OSM   H15S11780   6.491   2.019   9.439
  113OSM   H15T11781   6.310   2.002   9.449
  113OSM   C16S11782   6.407   1.835   9.346
  113OSM   H16S11783   6.319   1.772   9.370
  113OSM   H16T11784   6.498   1.777   9.373
  113OSM   C17S11785   6.419   1.899   9.205
  113OSM   H17S11786   6.516   1.954   9.211
  113OSM   H17T11787   6.337   1.973   9.193
  113OSM   C18S11788   6.417   1.793   9.101
  113OSM   H18S11789   6.497   1.718   9.121
  113OSM   H18T11790   6.443   1.833   9.001
  113OSM   H18U11791   6.321   1.738   9.095
  113OSM    C1F11792   6.373   1.550  10.476
  113OSM     OF11793   6.348   1.428  10.499
  113OSM    C2F11794   6.465   1.586  10.365
  113OSM    H2F11795   6.565   1.547  10.394
  113OSM    H2G11796   6.492   1.693  10.359
  113OSM    C3F11797   6.427   1.528  10.229
  113OSM    H3F11798   6.320   1.552  10.212
  113OSM    H3G11799   6.441   1.418  10.227
  113OSM    C4F11800   6.508   1.591  10.116
  113OSM    H4F11801   6.614   1.564  10.137
  113OSM    H4G11802   6.507   1.701  10.128
  113OSM    C5F11803   6.456   1.554   9.979
  113OSM    H5F11804   6.350   1.585   9.970
  113OSM    H5G11805   6.445   1.444   9.974
  113OSM    C6F11806   6.565   1.581   9.868
  113OSM    H6F11807   6.655   1.520   9.888
  113OSM    H6G11808   6.606   1.684   9.876
  113OSM    C7F11809   6.515   1.557   9.731
  113OSM    H7F11810   6.430   1.626   9.713
  113OSM    H7G11811   6.465   1.458   9.738
  113OSM    C8F11812   6.618   1.572   9.612
  113OSM    H8F11813   6.668   1.670   9.599
  113OSM    H8G11814   6.564   1.562   9.516
  113OSM    C9F11815   6.726   1.472   9.621
  113OSM    H9F11816   6.727   1.427   9.721
  113OSM   C10F11817   6.827   1.472   9.539
  113OSM   H10F11818   6.910   1.403   9.555
  113OSM   C11F11819   6.840   1.559   9.414
  113OSM   H11F11820   6.944   1.555   9.375
  113OSM   H11G11821   6.823   1.666   9.440
  113OSM   C12F11822   6.752   1.517   9.290
  113OSM   H12F11823   6.744   1.610   9.229
  113OSM   H12G11824   6.653   1.482   9.326
  113OSM   C13F11825   6.802   1.398   9.209
  113OSM   H13F11826   6.831   1.306   9.264
  113OSM   H13G11827   6.899   1.434   9.169
  113OSM   C14F11828   6.721   1.362   9.092
  113OSM   H14F11829   6.695   1.460   9.048
  113OSM   H14G11830   6.631   1.311   9.133
  113OSM   C15F11831   6.800   1.275   8.990
  113OSM   H15F11832   6.839   1.181   9.036
  113OSM   H15G11833   6.873   1.347   8.948
  113OSM   C16F11834   6.712   1.232   8.873
  113OSM   H16F11835   6.777   1.196   8.791
  113OSM   H16G11836   6.649   1.318   8.841
  113OSM   C17F11837   6.630   1.110   8.910
  113OSM   H17F11838   6.558   1.147   8.986
  113OSM   H17G11839   6.702   1.041   8.959
  113OSM   C18F11840   6.557   1.042   8.789
  113OSM   H18F11841   6.627   1.028   8.704
  113OSM   H18G11842   6.481   1.109   8.742
  113OSM   H18H11843   6.513   0.944   8.817
  114OSM      N11844   0.992   4.640  11.119
  114OSM    C1511845   0.862   4.708  11.075
  114OSM   H15A11846   0.876   4.782  10.997
  114OSM   H15B11847   0.827   4.774  11.154
  114OSM   H15C11848   0.779   4.644  11.050
  114OSM    C1411849   1.091   4.746  11.161
  114OSM   H14A11850   1.189   4.701  11.155
  114OSM   H14B11851   1.075   4.789  11.258
  114OSM   H14C11852   1.099   4.829  11.092
  114OSM    C1311853   0.961   4.554  11.233
  114OSM   H13A11854   0.873   4.495  11.212
  114OSM   H13B11855   0.929   4.618  11.313
  114OSM   H13C11856   1.040   4.487  11.265
  114OSM    C1211857   1.052   4.573  10.994
  114OSM   H12A11858   1.070   4.642  10.912
  114OSM   H12B11859   0.980   4.510  10.945
  114OSM    C1111860   1.181   4.494  11.023
  114OSM   H11A11861   1.200   4.429  10.935
  114OSM   H11B11862   1.163   4.425  11.108
  114OSM      P11863   1.436   4.540  11.028
  114OSM    O1311864   1.524   4.631  11.105
  114OSM    O1411865   1.450   4.395  11.052
  114OSM    O1111866   1.462   4.562  10.876
  114OSM    O1211867   1.284   4.581  11.050
  114OSM    C1S11868   1.380   4.513  10.770
  114OSM    H1S11869   1.282   4.563  10.752
  114OSM    H1T11870   1.365   4.404  10.778
  114OSM     NF11871   1.371   4.479  10.520
  114OSM    HNF11872   1.390   4.390  10.480
  114OSM    C2S11873   1.457   4.519  10.631
  114OSM    H2S11874   1.475   4.628  10.618
  114OSM    C3S11875   1.598   4.449  10.633
  114OSM    H3S11876   1.584   4.342  10.662
  114OSM     O311877   1.683   4.484  10.741
  114OSM    HO311878   1.623   4.501  10.814
  114OSM    C4S11879   1.670   4.449  10.500
  114OSM    H4S11880   1.667   4.359  10.437
  114OSM    C5S11881   1.755   4.550  10.461
  114OSM    H5S11882   1.774   4.633  10.531
  114OSM    C6S11883   1.818   4.578  10.328
  114OSM    H6S11884   1.929   4.569  10.335
  114OSM    H6T11885   1.796   4.683  10.300
  114OSM    C7S11886   1.778   4.485  10.211
  114OSM    H7S11887   1.668   4.488  10.200
  114OSM    H7T11888   1.808   4.379  10.227
  114OSM    C8S11889   1.839   4.540  10.082
  114OSM    H8S11890   1.949   4.532  10.091
  114OSM    H8T11891   1.786   4.638  10.080
  114OSM    C9S11892   1.799   4.458   9.960
  114OSM    H9S11893   1.690   4.470   9.943
  114OSM    H9T11894   1.836   4.353   9.962
  114OSM   C10S11895   1.867   4.525   9.836
  114OSM   H10S11896   1.974   4.537   9.860
  114OSM   H10T11897   1.827   4.625   9.809
  114OSM   C11S11898   1.854   4.424   9.719
  114OSM   H11S11899   1.750   4.388   9.705
  114OSM   H11T11900   1.911   4.331   9.738
  114OSM   C12S11901   1.905   4.487   9.584
  114OSM   H12S11902   2.015   4.503   9.593
  114OSM   H12T11903   1.857   4.584   9.562
  114OSM   C13S11904   1.883   4.382   9.473
  114OSM   H13S11905   1.787   4.330   9.493
  114OSM   H13T11906   1.955   4.298   9.463
  114OSM   C14S11907   1.856   4.443   9.334
  114OSM   H14S11908   1.946   4.483   9.283
  114OSM   H14T11909   1.780   4.521   9.352
  114OSM   C15S11910   1.792   4.347   9.231
  114OSM   H15S11911   1.704   4.289   9.266
  114OSM   H15T11912   1.865   4.270   9.199
  114OSM   C16S11913   1.758   4.426   9.100
  114OSM   H16S11914   1.840   4.489   9.060
  114OSM   H16T11915   1.681   4.499   9.132
  114OSM   C17S11916   1.699   4.327   8.993
  114OSM   H17S11917   1.608   4.292   9.046
  114OSM   H17T11918   1.770   4.242   8.984
  114OSM   C18S11919   1.667   4.398   8.864
  114OSM   H18S11920   1.609   4.326   8.803
  114OSM   H18T11921   1.759   4.425   8.808
  114OSM   H18U11922   1.603   4.487   8.883
  114OSM    C1F11923   1.261   4.540  10.490
  114OSM     OF11924   1.245   4.657  10.506
  114OSM    C2F11925   1.152   4.458  10.444
  114OSM    H2F11926   1.096   4.433  10.537
  114OSM    H2G11927   1.195   4.361  10.411
  114OSM    C3F11928   1.057   4.543  10.348
  114OSM    H3F11929   1.023   4.627  10.412
  114OSM    H3G11930   0.962   4.488  10.332
  114OSM    C4F11931   1.114   4.590  10.214
  114OSM    H4F11932   1.135   4.498  10.156
  114OSM    H4G11933   1.209   4.645  10.231
  114OSM    C5F11934   1.015   4.675  10.140
  114OSM    H5F11935   0.988   4.771  10.190
  114OSM    H5G11936   0.931   4.610  10.110
  114OSM    C6F11937   1.074   4.724  10.008
  114OSM    H6F11938   1.165   4.787  10.017
  114OSM    H6G11939   0.999   4.789   9.958
  114OSM    C7F11940   1.078   4.617   9.898
  114OSM    H7F11941   0.981   4.569   9.875
  114OSM    H7G11942   1.134   4.532   9.942
  114OSM    C8F11943   1.138   4.670   9.768
  114OSM    H8F11944   1.133   4.581   9.702
  114OSM    H8G11945   1.243   4.702   9.780
  114OSM    C9F11946   1.055   4.782   9.702
  114OSM    H9F11947   1.018   4.868   9.760
  114OSM   C10F11948   1.015   4.780   9.572
  114OSM   H10F11949   0.962   4.865   9.528
  114OSM   C11F11950   1.032   4.668   9.470
  114OSM   H11F11951   1.110   4.595   9.500
  114OSM   H11G11952   1.069   4.711   9.374
  114OSM   C12F11953   0.899   4.604   9.453
  114OSM   H12F11954   0.820   4.646   9.519
  114OSM   H12G11955   0.905   4.494   9.471
  114OSM   C13F11956   0.852   4.616   9.306
  114OSM   H13F11957   0.943   4.588   9.249
  114OSM   H13G11958   0.828   4.723   9.287
  114OSM   C14F11959   0.719   4.539   9.271
  114OSM   H14F11960   0.631   4.574   9.329
  114OSM   H14G11961   0.725   4.432   9.300
  114OSM   C15F11962   0.695   4.565   9.123
  114OSM   H15F11963   0.718   4.672   9.102
  114OSM   H15G11964   0.587   4.547   9.102
  114OSM   C16F11965   0.775   4.471   9.029
  114OSM   H16F11966   0.744   4.365   9.043
  114OSM   H16G11967   0.878   4.478   9.070
  114OSM   C17F11968   0.770   4.510   8.882
  114OSM   H17F11969   0.667   4.489   8.845
  114OSM   H17G11970   0.823   4.432   8.823
  114OSM   C18F11971   0.817   4.649   8.841
  114OSM   H18F11972   0.923   4.674   8.864
  114OSM   H18G11973   0.755   4.723   8.895
  114OSM   H18H11974   0.801   4.668   8.733
  115OSM      N11975   5.692   3.940  11.010
  115OSM    C1511976   5.684   3.841  10.902
  115OSM   H15A11977   5.583   3.804  10.898
  115OSM   H15B11978   5.734   3.746  10.916
  115OSM   H15C11979   5.717   3.884  10.808
  115OSM    C1411980   5.839   3.952  11.038
  115OSM   H14A11981   5.897   3.963  10.948
  115OSM   H14B11982   5.886   3.860  11.068
  115OSM   H14C11983   5.862   4.037  11.100
  115OSM    C1311984   5.644   4.078  10.973
  115OSM   H13A11985   5.538   4.079  10.953
  115OSM   H13B11986   5.689   4.117  10.884
  115OSM   H13C11987   5.661   4.152  11.050
  115OSM    C1211988   5.616   3.884  11.129
  115OSM   H12A11989   5.632   3.950  11.213
  115OSM   H12B11990   5.648   3.783  11.151
  115OSM    C1111991   5.463   3.868  11.116
  115OSM   H11A11992   5.423   3.968  11.088
  115OSM   H11B11993   5.419   3.838  11.213
  115OSM      P11994   5.437   3.625  11.028
  115OSM    O1311995   5.573   3.576  11.070
  115OSM    O1411996   5.325   3.575  11.113
  115OSM    O1111997   5.417   3.570  10.883
  115OSM    O1211998   5.415   3.779  11.016
  115OSM    C1S11999   5.381   3.662  10.779
  115OSM    H1S12000   5.475   3.717  10.755
  115OSM    H1T12001   5.301   3.730  10.815
  115OSM     NF12002   5.278   3.703  10.558
  115OSM    HNF12003   5.180   3.718  10.546
  115OSM    C2S12004   5.316   3.602  10.654
  115OSM    H2S12005   5.397   3.545  10.604
  115OSM    C3S12006   5.208   3.491  10.684
  115OSM    H3S12007   5.121   3.544  10.728
  115OSM     O312008   5.248   3.394  10.782
  115OSM    HO312009   5.313   3.448  10.828
  115OSM    C4S12010   5.169   3.426  10.554
  115OSM    H4S12011   5.064   3.434  10.524
  115OSM    C5S12012   5.238   3.327  10.483
  115OSM    H5S12013   5.331   3.292  10.531
  115OSM    C6S12014   5.191   3.257  10.359
  115OSM    H6S12015   5.256   3.168  10.341
  115OSM    H6T12016   5.216   3.329  10.278
  115OSM    C7S12017   5.043   3.220  10.339
  115OSM    H7S12018   4.979   3.310  10.353
  115OSM    H7T12019   5.015   3.147  10.418
  115OSM    C8S12020   5.010   3.148  10.209
  115OSM    H8S12021   4.915   3.093  10.218
  115OSM    H8T12022   5.081   3.072  10.170
  115OSM    C9S12023   4.989   3.251  10.090
  115OSM    H9S12024   5.076   3.320  10.085
  115OSM    H9T12025   4.910   3.317  10.133
  115OSM   C10S12026   4.966   3.194   9.953
  115OSM   H10S12027   4.897   3.107   9.954
  115OSM   H10T12028   5.053   3.156   9.896
  115OSM   C11S12029   4.893   3.304   9.867
  115OSM   H11S12030   4.944   3.403   9.869
  115OSM   H11T12031   4.792   3.325   9.906
  115OSM   C12S12032   4.884   3.258   9.723
  115OSM   H12S12033   4.812   3.173   9.726
  115OSM   H12T12034   4.980   3.231   9.674
  115OSM   C13S12035   4.811   3.361   9.632
  115OSM   H13S12036   4.882   3.444   9.610
  115OSM   H13T12037   4.725   3.407   9.686
  115OSM   C14S12038   4.751   3.301   9.501
  115OSM   H14S12039   4.675   3.221   9.519
  115OSM   H14T12040   4.832   3.248   9.448
  115OSM   C15S12041   4.689   3.395   9.403
  115OSM   H15S12042   4.679   3.491   9.458
  115OSM   H15T12043   4.585   3.368   9.374
  115OSM   C16S12044   4.769   3.403   9.271
  115OSM   H16S12045   4.877   3.395   9.294
  115OSM   H16T12046   4.749   3.502   9.225
  115OSM   C17S12047   4.730   3.283   9.186
  115OSM   H17S12048   4.622   3.296   9.161
  115OSM   H17T12049   4.732   3.191   9.249
  115OSM   C18S12050   4.802   3.280   9.053
  115OSM   H18S12051   4.795   3.382   9.012
  115OSM   H18T12052   4.750   3.216   8.978
  115OSM   H18U12053   4.911   3.266   9.070
  115OSM    C1F12054   5.363   3.800  10.501
  115OSM     OF12055   5.486   3.817  10.516
  115OSM    C2F12056   5.277   3.893  10.426
  115OSM    H2F12057   5.204   3.942  10.495
  115OSM    H2G12058   5.213   3.828  10.363
  115OSM    C3F12059   5.353   3.992  10.332
  115OSM    H3F12060   5.449   3.954  10.291
  115OSM    H3G12061   5.404   4.069  10.394
  115OSM    C4F12062   5.257   4.033  10.227
  115OSM    H4F12063   5.220   3.941  10.177
  115OSM    H4G12064   5.294   4.110  10.155
  115OSM    C5F12065   5.133   4.111  10.280
  115OSM    H5F12066   5.185   4.193  10.334
  115OSM    H5G12067   5.065   4.057  10.348
  115OSM    C6F12068   5.035   4.163  10.169
  115OSM    H6F12069   4.977   4.078  10.126
  115OSM    H6G12070   5.087   4.205  10.081
  115OSM    C7F12071   4.939   4.271  10.227
  115OSM    H7F12072   4.998   4.354  10.272
  115OSM    H7G12073   4.880   4.222  10.307
  115OSM    C8F12074   4.839   4.344  10.127
  115OSM    H8F12075   4.825   4.450  10.157
  115OSM    H8G12076   4.748   4.280  10.136
  115OSM    C9F12077   4.885   4.341   9.984
  115OSM    H9F12078   4.896   4.240   9.943
  115OSM   C10F12079   4.924   4.447   9.908
  115OSM   H10F12080   4.952   4.436   9.802
  115OSM   C11F12081   4.925   4.591   9.954
  115OSM   H11F12082   5.028   4.629   9.940
  115OSM   H11G12083   4.901   4.609  10.061
  115OSM   C12F12084   4.831   4.684   9.875
  115OSM   H12F12085   4.829   4.786   9.918
  115OSM   H12G12086   4.730   4.639   9.888
  115OSM   C13F12087   4.863   4.706   9.727
  115OSM   H13F12088   4.768   4.742   9.681
  115OSM   H13G12089   4.872   4.604   9.685
  115OSM   C14F12090   4.990   4.787   9.702
  115OSM   H14F12091   5.072   4.712   9.715
  115OSM   H14G12092   5.012   4.856   9.786
  115OSM   C15F12093   4.980   4.863   9.571
  115OSM   H15F12094   5.062   4.938   9.573
  115OSM   H15G12095   4.881   4.911   9.565
  115OSM   C16F12096   4.999   4.770   9.459
  115OSM   H16F12097   4.918   4.693   9.463
  115OSM   H16G12098   5.089   4.706   9.465
  115OSM   C17F12099   4.991   4.825   9.313
  115OSM   H17F12100   5.065   4.906   9.294
  115OSM   H17G12101   4.895   4.879   9.303
  115OSM   C18F12102   4.998   4.709   9.218
  115OSM   H18F12103   4.954   4.616   9.261
  115OSM   H18G12104   5.099   4.683   9.180
  115OSM   H18H12105   4.934   4.728   9.129
  116OSM      N12106   1.242   0.398  10.913
  116OSM    C1512107   1.094   0.379  10.879
  116OSM   H15A12108   1.077   0.309  10.799
  116OSM   H15B12109   1.051   0.474  10.849
  116OSM   H15C12110   1.045   0.335  10.964
  116OSM    C1412111   1.294   0.263  10.924
  116OSM   H14A12112   1.402   0.268  10.929
  116OSM   H14B12113   1.274   0.203  10.836
  116OSM   H14C12114   1.256   0.205  11.007
  116OSM    C1312115   1.320   0.471  10.802
  116OSM   H13A12116   1.269   0.563  10.780
  116OSM   H13B12117   1.309   0.412  10.712
  116OSM   H13C12118   1.423   0.491  10.830
  116OSM    C1212119   1.260   0.480  11.041
  116OSM   H12A12120   1.217   0.424  11.122
  116OSM   H12B12121   1.201   0.571  11.035
  116OSM    C1112122   1.404   0.520  11.085
  116OSM   H11A12123   1.400   0.550  11.192
  116OSM   H11B12124   1.433   0.610  11.027
  116OSM      P12125   1.646   0.442  11.057
  116OSM    O1312126   1.688   0.532  11.167
  116OSM    O1412127   1.710   0.309  11.054
  116OSM    O1112128   1.642   0.507  10.918
  116OSM    O1212129   1.491   0.413  11.066
  116OSM    C1S12130   1.703   0.430  10.811
  116OSM    H1S12131   1.652   0.332  10.802
  116OSM    H1T12132   1.810   0.410  10.834
  116OSM     NF12133   1.724   0.409  10.569
  116OSM    HNF12134   1.822   0.413  10.549
  116OSM    C2S12135   1.692   0.497  10.677
  116OSM    H2S12136   1.590   0.540  10.670
  116OSM    C3S12137   1.773   0.635  10.682
  116OSM    H3S12138   1.882   0.613  10.682
  116OSM     O312139   1.764   0.717  10.803
  116OSM    HO312140   1.702   0.669  10.857
  116OSM    C4S12141   1.747   0.713  10.560
  116OSM    H4S12142   1.810   0.693  10.473
  116OSM    C5S12143   1.648   0.806  10.543
  116OSM    H5S12144   1.559   0.816  10.607
  116OSM    C6S12145   1.639   0.882  10.415
  116OSM    H6S12146   1.608   0.817  10.330
  116OSM    H6T12147   1.740   0.905  10.374
  116OSM    C7S12148   1.548   1.006  10.422
  116OSM    H7S12149   1.599   1.084  10.483
  116OSM    H7T12150   1.453   0.975  10.472
  116OSM    C8S12151   1.519   1.081  10.290
  116OSM    H8S12152   1.609   1.094  10.225
  116OSM    H8T12153   1.496   1.185  10.322
  116OSM    C9S12154   1.395   1.037  10.218
  116OSM    H9S12155   1.308   1.040  10.287
  116OSM    H9T12156   1.414   0.944  10.162
  116OSM   C10S12157   1.369   1.143  10.115
  116OSM   H10S12158   1.465   1.162  10.061
  116OSM   H10T12159   1.334   1.244  10.143
  116OSM   C11S12160   1.272   1.092  10.007
  116OSM   H11S12161   1.245   1.181   9.946
  116OSM   H11T12162   1.189   1.042  10.061
  116OSM   C12S12163   1.337   0.988   9.912
  116OSM   H12S12164   1.368   0.889   9.951
  116OSM   H12T12165   1.427   1.035   9.868
  116OSM   C13S12166   1.249   0.958   9.798
  116OSM   H13S12167   1.207   1.056   9.765
  116OSM   H13T12168   1.164   0.891   9.821
  116OSM   C14S12169   1.315   0.921   9.672
  116OSM   H14S12170   1.378   0.830   9.686
  116OSM   H14T12171   1.394   0.996   9.652
  116OSM   C15S12172   1.227   0.904   9.553
  116OSM   H15S12173   1.161   0.992   9.537
  116OSM   H15T12174   1.161   0.815   9.551
  116OSM   C16S12175   1.314   0.890   9.427
  116OSM   H16S12176   1.350   0.787   9.403
  116OSM   H16T12177   1.406   0.951   9.434
  116OSM   C17S12178   1.242   0.937   9.298
  116OSM   H17S12179   1.198   1.038   9.314
  116OSM   H17T12180   1.152   0.872   9.286
  116OSM   C18S12181   1.326   0.953   9.167
  116OSM   H18S12182   1.357   0.856   9.122
  116OSM   H18T12183   1.423   0.997   9.197
  116OSM   H18U12184   1.286   1.020   9.088
  116OSM    C1F12185   1.645   0.309  10.533
  116OSM     OF12186   1.530   0.300  10.579
  116OSM    C2F12187   1.699   0.209  10.445
  116OSM    H2F12188   1.730   0.117  10.499
  116OSM    H2G12189   1.782   0.245  10.380
  116OSM    C3F12190   1.584   0.162  10.349
  116OSM    H3F12191   1.511   0.244  10.327
  116OSM    H3G12192   1.522   0.093  10.410
  116OSM    C4F12193   1.631   0.096  10.215
  116OSM    H4F12194   1.677  -0.001  10.242
  116OSM    H4G12195   1.699   0.165  10.161
  116OSM    C5F12196   1.513   0.066  10.118
  116OSM    H5F12197   1.424   0.039  10.178
  116OSM    H5G12198   1.546  -0.019  10.055
  116OSM    C6F12199   1.476   0.169  10.008
  116OSM    H6F12200   1.571   0.202   9.961
  116OSM    H6G12201   1.438   0.254  10.069
  116OSM    C7F12202   1.358   0.135   9.912
  116OSM    H7F12203   1.306   0.232   9.894
  116OSM    H7G12204   1.287   0.065   9.959
  116OSM    C8F12205   1.396   0.067   9.775
  116OSM    H8F12206   1.424  -0.036   9.806
  116OSM    H8G12207   1.493   0.104   9.735
  116OSM    C9F12208   1.288   0.055   9.671
  116OSM    H9F12209   1.192   0.024   9.715
  116OSM   C10F12210   1.295   0.093   9.540
  116OSM   H10F12211   1.202   0.071   9.486
  116OSM   C11F12212   1.411   0.155   9.461
  116OSM   H11F12213   1.506   0.122   9.508
  116OSM   H11G12214   1.402   0.264   9.476
  116OSM   C12F12215   1.405   0.105   9.312
  116OSM   H12F12216   1.317   0.149   9.261
  116OSM   H12G12217   1.403  -0.006   9.307
  116OSM   C13F12218   1.529   0.140   9.215
  116OSM   H13F12219   1.563   0.244   9.233
  116OSM   H13G12220   1.497   0.138   9.108
  116OSM   C14F12221   1.660   0.051   9.236
  116OSM   H14F12222   1.622  -0.054   9.228
  116OSM   H14G12223   1.686   0.055   9.344
  116OSM   C15F12224   1.782   0.083   9.148
  116OSM   H15F12225   1.871   0.018   9.168
  116OSM   H15G12226   1.804   0.188   9.178
  116OSM   C16F12227   1.744   0.071   8.999
  116OSM   H16F12228   1.659   0.141   8.983
  116OSM   H16G12229   1.702  -0.027   8.965
  116OSM   C17F12230   1.846   0.123   8.894
  116OSM   H17F12231   1.892   0.221   8.920
  116OSM   H17G12232   1.799   0.142   8.795
  116OSM   C18F12233   1.968   0.038   8.870
  116OSM   H18F12234   2.035   0.018   8.957
  116OSM   H18G12235   2.042   0.081   8.799
  116OSM   H18H12236   1.947  -0.061   8.824
  117OSM      N12237   5.880   1.676  11.174
  117OSM    C1512238   5.992   1.667  11.267
  117OSM   H15A12239   6.048   1.760  11.271
  117OSM   H15B12240   6.053   1.587  11.229
  117OSM   H15C12241   5.967   1.646  11.370
  117OSM    C1412242   5.795   1.561  11.219
  117OSM   H14A12243   5.697   1.563  11.173
  117OSM   H14B12244   5.769   1.567  11.323
  117OSM   H14C12245   5.839   1.463  11.204
  117OSM    C1312246   5.786   1.800  11.196
  117OSM   H13A12247   5.830   1.896  11.175
  117OSM   H13B12248   5.767   1.797  11.302
  117OSM   H13C12249   5.694   1.796  11.141
  117OSM    C1212250   5.927   1.667  11.029
  117OSM   H12A12251   6.013   1.731  11.014
  117OSM   H12B12252   5.847   1.693  10.961
  117OSM    C1112253   5.986   1.528  10.988
  117OSM   H11A12254   6.027   1.529  10.885
  117OSM   H11B12255   5.897   1.462  10.992
  117OSM      P12256   6.074   1.308  11.106
  117OSM    O1312257   6.187   1.266  11.189
  117OSM    O1412258   5.939   1.282  11.157
  117OSM    O1112259   6.086   1.246  10.962
  117OSM    O1212260   6.082   1.467  11.080
  117OSM    C1S12261   6.205   1.255  10.889
  117OSM    H1S12262   6.289   1.201  10.938
  117OSM    H1T12263   6.235   1.360  10.872
  117OSM     NF12264   6.314   1.197  10.677
  117OSM    HNF12265   6.323   1.268  10.607
  117OSM    C2S12266   6.185   1.189  10.747
  117OSM    H2S12267   6.160   1.082  10.759
  117OSM    C3S12268   6.065   1.259  10.671
  117OSM    H3S12269   6.077   1.365  10.702
  117OSM     O312270   5.936   1.223  10.723
  117OSM    HO312271   5.964   1.178  10.802
  117OSM    C4S12272   6.062   1.246  10.522
  117OSM    H4S12273   6.100   1.335  10.470
  117OSM    C5S12274   6.026   1.133  10.459
  117OSM    H5S12275   6.010   1.042  10.518
  117OSM    C6S12276   6.025   1.108  10.310
  117OSM    H6S12277   5.922   1.086  10.275
  117OSM    H6T12278   6.071   1.013  10.275
  117OSM    C7S12279   6.088   1.221  10.227
  117OSM    H7S12280   6.197   1.231  10.249
  117OSM    H7T12281   6.045   1.322  10.246
  117OSM    C8S12282   6.084   1.185  10.076
  117OSM    H8S12283   5.982   1.146  10.052
  117OSM    H8T12284   6.161   1.107  10.062
  117OSM    C9S12285   6.126   1.294   9.979
  117OSM    H9S12286   6.229   1.323  10.011
  117OSM    H9T12287   6.079   1.394   9.992
  117OSM   C10S12288   6.126   1.246   9.832
  117OSM   H10S12289   6.022   1.235   9.795
  117OSM   H10T12290   6.171   1.145   9.827
  117OSM   C11S12291   6.186   1.344   9.732
  117OSM   H11S12292   6.285   1.365   9.778
  117OSM   H11T12293   6.128   1.438   9.729
  117OSM   C12S12294   6.181   1.292   9.594
  117OSM   H12S12295   6.074   1.273   9.569
  117OSM   H12T12296   6.233   1.195   9.583
  117OSM   C13S12297   6.243   1.391   9.497
  117OSM   H13S12298   6.353   1.401   9.514
  117OSM   H13T12299   6.203   1.493   9.519
  117OSM   C14S12300   6.209   1.347   9.358
  117OSM   H14S12301   6.100   1.351   9.340
  117OSM   H14T12302   6.257   1.248   9.346
  117OSM   C15S12303   6.283   1.425   9.247
  117OSM   H15S12304   6.394   1.428   9.255
  117OSM   H15T12305   6.240   1.528   9.247
  117OSM   C16S12306   6.264   1.361   9.107
  117OSM   H16S12307   6.156   1.352   9.085
  117OSM   H16T12308   6.305   1.257   9.115
  117OSM   C17S12309   6.343   1.429   8.989
  117OSM   H17S12310   6.449   1.415   9.020
  117OSM   H17T12311   6.328   1.539   8.987
  117OSM   C18S12312   6.306   1.388   8.846
  117OSM   H18S12313   6.344   1.286   8.824
  117OSM   H18T12314   6.353   1.453   8.770
  117OSM   H18U12315   6.197   1.371   8.836
  117OSM    C1F12316   6.427   1.122  10.693
  117OSM     OF12317   6.433   1.026  10.771
  117OSM    C2F12318   6.540   1.174  10.607
  117OSM    H2F12319   6.616   1.222  10.673
  117OSM    H2G12320   6.498   1.252  10.540
  117OSM    C3F12321   6.609   1.067  10.519
  117OSM    H3F12322   6.656   0.993  10.587
  117OSM    H3G12323   6.694   1.118  10.468
  117OSM    C4F12324   6.514   0.995  10.437
  117OSM    H4F12325   6.430   0.967  10.503
  117OSM    H4G12326   6.561   0.897  10.413
  117OSM    C5F12327   6.460   1.067  10.317
  117OSM    H5F12328   6.402   1.159  10.341
  117OSM    H5G12329   6.393   0.999  10.261
  117OSM    C6F12330   6.567   1.104  10.218
  117OSM    H6F12331   6.646   1.026  10.210
  117OSM    H6G12332   6.616   1.197  10.254
  117OSM    C7F12333   6.499   1.129  10.087
  117OSM    H7F12334   6.438   1.222  10.078
  117OSM    H7G12335   6.435   1.041  10.066
  117OSM    C8F12336   6.591   1.137   9.958
  117OSM    H8F12337   6.644   1.041   9.942
  117OSM    H8G12338   6.662   1.216   9.988
  117OSM    C9F12339   6.509   1.183   9.839
  117OSM    H9F12340   6.413   1.234   9.860
  117OSM   C10F12341   6.548   1.164   9.716
  117OSM   H10F12342   6.480   1.202   9.637
  117OSM   C11F12343   6.684   1.112   9.676
  117OSM   H11F12344   6.719   1.022   9.731
  117OSM   H11G12345   6.756   1.191   9.704
  117OSM   C12F12346   6.705   1.106   9.521
  117OSM   H12F12347   6.815   1.099   9.510
  117OSM   H12G12348   6.666   1.200   9.475
  117OSM   C13F12349   6.634   0.986   9.453
  117OSM   H13F12350   6.525   1.000   9.469
  117OSM   H13G12351   6.667   0.888   9.494
  117OSM   C14F12352   6.655   0.965   9.300
  117OSM   H14F12353   6.764   0.950   9.284
  117OSM   H14G12354   6.625   1.052   9.238
  117OSM   C15F12355   6.581   0.837   9.256
  117OSM   H15F12356   6.477   0.871   9.274
  117OSM   H15G12357   6.606   0.752   9.323
  117OSM   C16F12358   6.586   0.813   9.107
  117OSM   H16F12359   6.686   0.805   9.058
  117OSM   H16G12360   6.530   0.894   9.056
  117OSM   C17F12361   6.516   0.680   9.075
  117OSM   H17F12362   6.418   0.669   9.127
  117OSM   H17G12363   6.563   0.589   9.119
  117OSM   C18F12364   6.486   0.658   8.923
  117OSM   H18F12365   6.412   0.574   8.922
  117OSM   H18G12366   6.566   0.615   8.858
  117OSM   H18H12367   6.453   0.749   8.869
  118OSM      N12368   6.580   1.945  11.063
  118OSM    C1512369   6.592   1.868  10.929
  118OSM   H15A12370   6.546   1.770  10.939
  118OSM   H15B12371   6.696   1.870  10.901
  118OSM   H15C12372   6.538   1.933  10.861
  118OSM    C1412373   6.660   1.875  11.162
  118OSM   H14A12374   6.624   1.777  11.190
  118OSM   H14B12375   6.660   1.952  11.238
  118OSM   H14C12376   6.762   1.856  11.134
  118OSM    C1312377   6.642   2.077  11.042
  118OSM   H13A12378   6.739   2.071  10.993
  118OSM   H13B12379   6.630   2.150  11.120
  118OSM   H13C12380   6.591   2.127  10.961
  118OSM    C1212381   6.437   1.961  11.108
  118OSM   H12A12382   6.430   1.995  11.210
  118OSM   H12B12383   6.392   1.862  11.114
  118OSM    C1112384   6.349   2.062  11.028
  118OSM   H11A12385   6.244   2.035  11.051
  118OSM   H11B12386   6.363   2.042  10.920
  118OSM      P12387   6.262   2.309  11.066
  118OSM    O1312388   6.137   2.246  11.116
  118OSM    O1412389   6.316   2.426  11.142
  118OSM    O1112390   6.243   2.339  10.910
  118OSM    O1212391   6.375   2.197  11.062
  118OSM    C1S12392   6.348   2.417  10.840
  118OSM    H1S12393   6.449   2.376  10.860
  118OSM    H1T12394   6.356   2.523  10.874
  118OSM     NF12395   6.407   2.511  10.626
  118OSM    HNF12396   6.386   2.607  10.610
  118OSM    C2S12397   6.306   2.429  10.689
  118OSM    H2S12398   6.305   2.325  10.650
  118OSM    C3S12399   6.165   2.493  10.682
  118OSM    H3S12400   6.163   2.585  10.744
  118OSM     O312401   6.056   2.410  10.734
  118OSM    HO312402   6.105   2.330  10.756
  118OSM    C4S12403   6.135   2.535  10.540
  118OSM    H4S12404   6.152   2.642  10.520
  118OSM    C5S12405   6.086   2.453  10.450
  118OSM    H5S12406   6.055   2.355  10.489
  118OSM    C6S12407   6.046   2.488  10.316
  118OSM    H6S12408   6.065   2.597  10.305
  118OSM    H6T12409   5.936   2.477  10.305
  118OSM    C7S12410   6.111   2.397  10.211
  118OSM    H7S12411   6.068   2.294  10.218
  118OSM    H7T12412   6.218   2.376  10.234
  118OSM    C8S12413   6.118   2.467  10.072
  118OSM    H8S12414   6.164   2.567  10.088
  118OSM    H8T12415   6.018   2.480  10.025
  118OSM    C9S12416   6.200   2.383   9.975
  118OSM    H9S12417   6.134   2.298   9.948
  118OSM    H9T12418   6.284   2.333  10.028
  118OSM   C10S12419   6.230   2.465   9.849
  118OSM   H10S12420   6.314   2.534   9.874
  118OSM   H10T12421   6.151   2.532   9.810
  118OSM   C11S12422   6.274   2.378   9.734
  118OSM   H11S12423   6.195   2.301   9.722
  118OSM   H11T12424   6.364   2.314   9.748
  118OSM   C12S12425   6.289   2.448   9.596
  118OSM   H12S12426   6.365   2.526   9.615
  118OSM   H12T12427   6.193   2.492   9.561
  118OSM   C13S12428   6.314   2.338   9.488
  118OSM   H13S12429   6.228   2.269   9.486
  118OSM   H13T12430   6.397   2.278   9.530
  118OSM   C14S12431   6.350   2.385   9.349
  118OSM   H14S12432   6.412   2.477   9.355
  118OSM   H14T12433   6.250   2.412   9.307
  118OSM   C15S12434   6.428   2.279   9.265
  118OSM   H15S12435   6.348   2.209   9.234
  118OSM   H15T12436   6.504   2.225   9.324
  118OSM   C16S12437   6.468   2.329   9.129
  118OSM   H16S12438   6.544   2.411   9.133
  118OSM   H16T12439   6.383   2.380   9.079
  118OSM   C17S12440   6.531   2.225   9.041
  118OSM   H17S12441   6.469   2.133   9.031
  118OSM   H17T12442   6.624   2.203   9.097
  118OSM   C18S12443   6.568   2.262   8.901
  118OSM   H18S12444   6.619   2.177   8.851
  118OSM   H18T12445   6.638   2.348   8.887
  118OSM   H18U12446   6.476   2.297   8.850
  118OSM    C1F12447   6.529   2.474  10.596
  118OSM     OF12448   6.569   2.368  10.635
  118OSM    C2F12449   6.619   2.590  10.538
  118OSM    H2F12450   6.722   2.550  10.544
  118OSM    H2G12451   6.610   2.680  10.603
  118OSM    C3F12452   6.566   2.653  10.408
  118OSM    H3F12453   6.642   2.730  10.382
  118OSM    H3G12454   6.466   2.700  10.404
  118OSM    C4F12455   6.578   2.558  10.289
  118OSM    H4F12456   6.507   2.473  10.285
  118OSM    H4G12457   6.672   2.499  10.289
  118OSM    C5F12458   6.565   2.636  10.158
  118OSM    H5F12459   6.631   2.726  10.154
  118OSM    H5G12460   6.461   2.672  10.144
  118OSM    C6F12461   6.618   2.545  10.044
  118OSM    H6F12462   6.548   2.460  10.034
  118OSM    H6G12463   6.714   2.507  10.085
  118OSM    C7F12464   6.631   2.630   9.917
  118OSM    H7F12465   6.701   2.713   9.938
  118OSM    H7G12466   6.538   2.680   9.883
  118OSM    C8F12467   6.704   2.561   9.805
  118OSM    H8F12468   6.790   2.506   9.849
  118OSM    H8G12469   6.754   2.639   9.743
  118OSM    C9F12470   6.619   2.467   9.726
  118OSM    H9F12471   6.526   2.433   9.774
  118OSM   C10F12472   6.648   2.417   9.601
  118OSM   H10F12473   6.593   2.329   9.564
  118OSM   C11F12474   6.771   2.436   9.511
  118OSM   H11F12475   6.831   2.342   9.510
  118OSM   H11G12476   6.829   2.524   9.548
  118OSM   C12F12477   6.736   2.475   9.362
  118OSM   H12F12478   6.685   2.573   9.369
  118OSM   H12G12479   6.678   2.398   9.305
  118OSM   C13F12480   6.863   2.503   9.272
  118OSM   H13F12481   6.934   2.420   9.294
  118OSM   H13G12482   6.916   2.593   9.308
  118OSM   C14F12483   6.835   2.507   9.125
  118OSM   H14F12484   6.750   2.577   9.110
  118OSM   H14G12485   6.807   2.404   9.092
  118OSM   C15F12486   6.955   2.564   9.040
  118OSM   H15F12487   6.981   2.659   9.090
  118OSM   H15G12488   6.907   2.592   8.944
  118OSM   C16F12489   7.083   2.479   9.028
  118OSM   H16F12490   7.115   2.462   9.134
  118OSM   H16G12491   7.170   2.533   8.986
  118OSM   C17F12492   7.063   2.335   8.968
  118OSM   H17F12493   6.995   2.288   9.042
  118OSM   H17G12494   7.164   2.289   8.968
  118OSM   C18F12495   7.012   2.340   8.823
  118OSM   H18F12496   7.012   2.240   8.776
  118OSM   H18G12497   7.050   2.420   8.755
  118OSM   H18H12498   6.903   2.360   8.825
  119OSM      N12499   0.470   1.321  11.189
  119OSM    C1512500   0.344   1.304  11.262
  119OSM   H15A12501   0.289   1.218  11.229
  119OSM   H15B12502   0.279   1.390  11.254
  119OSM   H15C12503   0.362   1.281  11.366
  119OSM    C1412504   0.561   1.196  11.195
  119OSM   H14A12505   0.514   1.101  11.176
  119OSM   H14B12506   0.619   1.178  11.285
  119OSM   H14C12507   0.634   1.205  11.116
  119OSM    C1312508   0.448   1.338  11.038
  119OSM   H13A12509   0.528   1.376  10.976
  119OSM   H13B12510   0.373   1.415  11.029
  119OSM   H13C12511   0.413   1.245  10.997
  119OSM    C1212512   0.555   1.442  11.236
  119OSM   H12A12513   0.638   1.456  11.169
  119OSM   H12B12514   0.588   1.424  11.337
  119OSM    C1112515   0.477   1.576  11.236
  119OSM   H11A12516   0.530   1.664  11.278
  119OSM   H11B12517   0.392   1.556  11.304
  119OSM      P12518   0.515   1.713  11.023
  119OSM    O1312519   0.521   1.848  11.081
  119OSM    O1412520   0.643   1.651  10.992
  119OSM    O1112521   0.430   1.728  10.888
  119OSM    O1212522   0.423   1.617  11.107
  119OSM    C1S12523   0.443   1.616  10.792
  119OSM    H1S12524   0.394   1.533  10.848
  119OSM    H1T12525   0.548   1.590  10.769
  119OSM     NF12526   0.334   1.548  10.562
  119OSM    HNF12527   0.385   1.531  10.478
  119OSM    C2S12528   0.385   1.655  10.648
  119OSM    H2S12529   0.292   1.709  10.675
  119OSM    C3S12530   0.478   1.763  10.582
  119OSM    H3S12531   0.570   1.712  10.547
  119OSM     O312532   0.520   1.865  10.669
  119OSM    HO312533   0.468   1.842  10.747
  119OSM    C4S12534   0.410   1.818  10.453
  119OSM    H4S12535   0.309   1.861  10.464
  119OSM    C5S12536   0.457   1.824  10.330
  119OSM    H5S12537   0.558   1.794  10.296
  119OSM    C6S12538   0.373   1.890  10.223
  119OSM    H6S12539   0.413   1.992  10.204
  119OSM    H6T12540   0.269   1.911  10.258
  119OSM    C7S12541   0.371   1.813  10.088
  119OSM    H7S12542   0.344   1.706  10.104
  119OSM    H7T12543   0.470   1.801  10.040
  119OSM    C8S12544   0.276   1.889   9.995
  119OSM    H8S12545   0.327   1.983   9.964
  119OSM    H8T12546   0.181   1.916  10.045
  119OSM    C9S12547   0.246   1.799   9.863
  119OSM    H9S12548   0.197   1.868   9.791
  119OSM    H9T12549   0.171   1.722   9.889
  119OSM   C10S12550   0.375   1.745   9.806
  119OSM   H10S12551   0.417   1.664   9.870
  119OSM   H10T12552   0.450   1.827   9.802
  119OSM   C11S12553   0.349   1.689   9.665
  119OSM   H11S12554   0.335   1.780   9.602
  119OSM   H11T12555   0.247   1.646   9.667
  119OSM   C12S12556   0.458   1.594   9.609
  119OSM   H12S12557   0.480   1.513   9.682
  119OSM   H12T12558   0.551   1.650   9.584
  119OSM   C13S12559   0.416   1.527   9.480
  119OSM   H13S12560   0.311   1.490   9.474
  119OSM   H13T12561   0.484   1.441   9.462
  119OSM   C14S12562   0.426   1.629   9.367
  119OSM   H14S12563   0.527   1.677   9.366
  119OSM   H14T12564   0.350   1.709   9.379
  119OSM   C15S12565   0.415   1.592   9.216
  119OSM   H15S12566   0.307   1.574   9.200
  119OSM   H15T12567   0.468   1.495   9.202
  119OSM   C16S12568   0.480   1.691   9.115
  119OSM   H16S12569   0.426   1.787   9.126
  119OSM   H16T12570   0.453   1.633   9.025
  119OSM   C17S12571   0.631   1.707   9.134
  119OSM   H17S12572   0.687   1.698   9.039
  119OSM   H17T12573   0.679   1.621   9.186
  119OSM   C18S12574   0.667   1.845   9.192
  119OSM   H18S12575   0.616   1.924   9.132
  119OSM   H18T12576   0.776   1.866   9.204
  119OSM   H18U12577   0.620   1.851   9.293
  119OSM    C1F12578   0.235   1.462  10.598
  119OSM     OF12579   0.174   1.483  10.703
  119OSM    C2F12580   0.198   1.343  10.512
  119OSM    H2F12581   0.170   1.261  10.581
  119OSM    H2G12582   0.265   1.303  10.433
  119OSM    C3F12583   0.065   1.391  10.444
  119OSM    H3F12584  -0.015   1.415  10.517
  119OSM    H3G12585   0.026   1.301  10.393
  119OSM    C4F12586   0.070   1.516  10.348
  119OSM    H4F12587   0.112   1.601  10.405
  119OSM    H4G12588  -0.032   1.535  10.309
  119OSM    C5F12589   0.172   1.494  10.228
  119OSM    H5F12590   0.269   1.474  10.279
  119OSM    H5G12591   0.174   1.593  10.177
  119OSM    C6F12592   0.134   1.381  10.131
  119OSM    H6F12593   0.024   1.389  10.121
  119OSM    H6G12594   0.152   1.280  10.174
  119OSM    C7F12595   0.205   1.397   9.997
  119OSM    H7F12596   0.169   1.497   9.962
  119OSM    H7G12597   0.163   1.322   9.927
  119OSM    C8F12598   0.359   1.395  10.007
  119OSM    H8F12599   0.410   1.476  10.063
  119OSM    H8G12600   0.386   1.425   9.904
  119OSM    C9F12601   0.415   1.255  10.031
  119OSM    H9F12602   0.375   1.214  10.125
  119OSM   C10F12603   0.474   1.166   9.949
  119OSM   H10F12604   0.512   1.070   9.987
  119OSM   C11F12605   0.505   1.188   9.800
  119OSM   H11F12606   0.595   1.129   9.772
  119OSM   H11G12607   0.537   1.292   9.774
  119OSM   C12F12608   0.377   1.147   9.718
  119OSM   H12F12609   0.303   1.225   9.748
  119OSM   H12G12610   0.333   1.049   9.743
  119OSM   C13F12611   0.400   1.154   9.563
  119OSM   H13F12612   0.449   1.064   9.520
  119OSM   H13G12613   0.470   1.236   9.536
  119OSM   C14F12614   0.281   1.175   9.470
  119OSM   H14F12615   0.232   1.260   9.523
  119OSM   H14G12616   0.226   1.079   9.469
  119OSM   C15F12617   0.318   1.216   9.329
  119OSM   H15F12618   0.353   1.322   9.324
  119OSM   H15G12619   0.229   1.219   9.262
  119OSM   C16F12620   0.426   1.129   9.267
  119OSM   H16F12621   0.414   1.026   9.307
  119OSM   H16G12622   0.526   1.168   9.296
  119OSM   C17F12623   0.414   1.126   9.117
  119OSM   H17F12624   0.314   1.078   9.107
  119OSM   H17G12625   0.476   1.050   9.065
  119OSM   C18F12626   0.402   1.255   9.042
  119OSM   H18F12627   0.505   1.288   9.017
  119OSM   H18G12628   0.357   1.335   9.105
  119OSM   H18H12629   0.346   1.239   8.948
  120OSM      N12630   6.162   5.249  10.876
  120OSM    C1512631   6.119   5.163  10.989
  120OSM   H15A12632   6.133   5.210  11.086
  120OSM   H15B12633   6.161   5.064  10.987
  120OSM   H15C12634   6.011   5.160  10.990
  120OSM    C1412635   6.111   5.392  10.901
  120OSM   H14A12636   6.135   5.454  10.817
  120OSM   H14B12637   6.160   5.437  10.986
  120OSM   H14C12638   6.005   5.398  10.919
  120OSM    C1312639   6.308   5.265  10.876
  120OSM   H13A12640   6.356   5.169  10.888
  120OSM   H13B12641   6.341   5.324  10.961
  120OSM   H13C12642   6.340   5.312  10.783
  120OSM    C1212643   6.114   5.206  10.736
  120OSM   H12A12644   6.006   5.206  10.737
  120OSM   H12B12645   6.148   5.106  10.713
  120OSM    C1112646   6.144   5.287  10.605
  120OSM   H11A12647   6.111   5.392  10.618
  120OSM   H11B12648   6.083   5.242  10.523
  120OSM      P12649   6.360   5.177  10.520
  120OSM    O1312650   6.503   5.209  10.537
  120OSM    O1412651   6.307   5.049  10.562
  120OSM    O1112652   6.336   5.188  10.363
  120OSM    O1212653   6.284   5.295  10.582
  120OSM    C1S12654   6.321   5.317  10.307
  120OSM    H1S12655   6.349   5.406  10.368
  120OSM    H1T12656   6.214   5.323  10.279
  120OSM     NF12657   6.399   5.488  10.155
  120OSM    HNF12658   6.319   5.532  10.116
  120OSM    C2S12659   6.401   5.345  10.182
  120OSM    H2S12660   6.507   5.319  10.199
  120OSM    C3S12661   6.346   5.263  10.070
  120OSM    H3S12662   6.251   5.310  10.035
  120OSM     O312663   6.310   5.127  10.104
  120OSM    HO312664   6.293   5.139  10.198
  120OSM    C4S12665   6.428   5.269   9.942
  120OSM    H4S12666   6.388   5.334   9.863
  120OSM    C5S12667   6.532   5.193   9.907
  120OSM    H5S12668   6.577   5.119   9.975
  120OSM    C6S12669   6.602   5.201   9.777
  120OSM    H6S12670   6.643   5.101   9.751
  120OSM    H6T12671   6.692   5.267   9.778
  120OSM    C7S12672   6.517   5.249   9.653
  120OSM    H7S12673   6.494   5.355   9.675
  120OSM    H7T12674   6.425   5.188   9.636
  120OSM    C8S12675   6.614   5.237   9.523
  120OSM    H8S12676   6.686   5.155   9.545
  120OSM    H8T12677   6.678   5.325   9.503
  120OSM    C9S12678   6.534   5.204   9.404
  120OSM    H9S12679   6.470   5.292   9.381
  120OSM    H9T12680   6.468   5.120   9.433
  120OSM   C10S12681   6.614   5.176   9.273
  120OSM   H10S12682   6.689   5.097   9.296
  120OSM   H10T12683   6.672   5.268   9.249
  120OSM   C11S12684   6.524   5.147   9.150
  120OSM   H11S12685   6.463   5.234   9.119
  120OSM   H11T12686   6.448   5.067   9.162
  120OSM   C12S12687   6.596   5.101   9.019
  120OSM   H12S12688   6.667   5.020   9.043
  120OSM   H12T12689   6.657   5.180   8.971
  120OSM   C13S12690   6.488   5.051   8.914
  120OSM   H13S12691   6.402   5.121   8.912
  120OSM   H13T12692   6.447   4.957   8.954
  120OSM   C14S12693   6.559   5.023   8.783
  120OSM   H14S12694   6.633   4.942   8.803
  120OSM   H14T12695   6.622   5.106   8.746
  120OSM   C15S12696   6.459   4.969   8.680
  120OSM   H15S12697   6.398   5.056   8.645
  120OSM   H15T12698   6.397   4.889   8.726
  120OSM   C16S12699   6.533   4.921   8.559
  120OSM   H16S12700   6.605   4.841   8.587
  120OSM   H16T12701   6.601   4.997   8.516
  120OSM   C17S12702   6.450   4.869   8.445
  120OSM   H17S12703   6.369   4.944   8.429
  120OSM   H17T12704   6.401   4.776   8.479
  120OSM   C18S12705   6.532   4.827   8.318
  120OSM   H18S12706   6.460   4.792   8.241
  120OSM   H18T12707   6.596   4.741   8.345
  120OSM   H18U12708   6.590   4.917   8.290
  120OSM    C1F12709   6.484   5.578  10.208
  120OSM     OF12710   6.574   5.541  10.287
  120OSM    C2F12711   6.463   5.719  10.172
  120OSM    H2F12712   6.455   5.778  10.266
  120OSM    H2G12713   6.369   5.733  10.114
  120OSM    C3F12714   6.588   5.770  10.096
  120OSM    H3F12715   6.667   5.772  10.174
  120OSM    H3G12716   6.567   5.871  10.056
  120OSM    C4F12717   6.624   5.683   9.968
  120OSM    H4F12718   6.644   5.579  10.002
  120OSM    H4G12719   6.718   5.715   9.920
  120OSM    C5F12720   6.514   5.683   9.862
  120OSM    H5F12721   6.465   5.782   9.849
  120OSM    H5G12722   6.434   5.622   9.908
  120OSM    C6F12723   6.556   5.628   9.727
  120OSM    H6F12724   6.469   5.603   9.662
  120OSM    H6G12725   6.613   5.533   9.734
  120OSM    C7F12726   6.643   5.722   9.646
  120OSM    H7F12727   6.748   5.705   9.678
  120OSM    H7G12728   6.620   5.828   9.671
  120OSM    C8F12729   6.643   5.701   9.492
  120OSM    H8F12730   6.550   5.745   9.450
  120OSM    H8G12731   6.646   5.591   9.475
  120OSM    C9F12732   6.767   5.761   9.420
  120OSM    H9F12733   6.816   5.848   9.467
  120OSM   C10F12734   6.824   5.713   9.303
  120OSM   H10F12735   6.911   5.757   9.252
  120OSM   C11F12736   6.763   5.597   9.225
  120OSM   H11F12737   6.652   5.586   9.228
  120OSM   H11G12738   6.804   5.501   9.262
  120OSM   C12F12739   6.791   5.609   9.072
  120OSM   H12F12740   6.901   5.608   9.058
  120OSM   H12G12741   6.757   5.706   9.029
  120OSM   C13F12742   6.736   5.500   8.988
  120OSM   H13F12743   6.629   5.470   9.001
  120OSM   H13G12744   6.800   5.411   9.003
  120OSM   C14F12745   6.747   5.521   8.832
  120OSM   H14F12746   6.846   5.568   8.814
  120OSM   H14G12747   6.678   5.604   8.807
  120OSM   C15F12748   6.729   5.402   8.744
  120OSM   H15F12749   6.637   5.351   8.780
  120OSM   H15G12750   6.820   5.340   8.758
  120OSM   C16F12751   6.709   5.453   8.597
  120OSM   H16F12752   6.806   5.498   8.569
  120OSM   H16G12753   6.625   5.526   8.588
  120OSM   C17F12754   6.692   5.324   8.509
  120OSM   H17F12755   6.606   5.279   8.563
  120OSM   H17G12756   6.782   5.260   8.521
  120OSM   C18F12757   6.670   5.361   8.359
  120OSM   H18F12758   6.578   5.421   8.342
  120OSM   H18G12759   6.681   5.268   8.299
  120OSM   H18H12760   6.753   5.429   8.333
  121OSM      N12761   5.171   1.340  10.879
  121OSM    C1512762   5.260   1.284  10.986
  121OSM   H15A12763   5.213   1.206  11.043
  121OSM   H15B12764   5.272   1.366  11.055
  121OSM   H15C12765   5.357   1.257  10.947
  121OSM    C1412766   5.155   1.236  10.770
  121OSM   H14A12767   5.075   1.273  10.708
  121OSM   H14B12768   5.131   1.135  10.799
  121OSM   H14C12769   5.246   1.234  10.712
  121OSM    C1312770   5.037   1.372  10.937
  121OSM   H13A12771   5.017   1.282  10.994
  121OSM   H13B12772   4.964   1.399  10.863
  121OSM   H13C12773   5.027   1.445  11.016
  121OSM    C1212774   5.237   1.462  10.819
  121OSM   H12A12775   5.192   1.489  10.725
  121OSM   H12B12776   5.338   1.431  10.797
  121OSM    C1112777   5.253   1.586  10.911
  121OSM   H11A12778   5.147   1.617  10.923
  121OSM   H11B12779   5.302   1.672  10.858
  121OSM      P12780   5.482   1.556  11.046
  121OSM    O1312781   5.511   1.676  11.127
  121OSM    O1412782   5.522   1.430  11.105
  121OSM    O1112783   5.533   1.566  10.892
  121OSM    O1212784   5.321   1.548  11.033
  121OSM    C1S12785   5.574   1.437  10.837
  121OSM    H1S12786   5.497   1.358  10.843
  121OSM    H1T12787   5.659   1.399  10.898
  121OSM     NF12788   5.677   1.319  10.643
  121OSM    HNF12789   5.774   1.299  10.652
  121OSM    C2S12790   5.641   1.450  10.686
  121OSM    H2S12791   5.562   1.485  10.617
  121OSM    C3S12792   5.758   1.551  10.689
  121OSM    H3S12793   5.842   1.504  10.745
  121OSM     O312794   5.731   1.675  10.759
  121OSM    HO312795   5.648   1.656  10.804
  121OSM    C4S12796   5.807   1.576  10.544
  121OSM    H4S12797   5.730   1.583  10.465
  121OSM    C5S12798   5.940   1.564  10.509
  121OSM    H5S12799   6.014   1.548  10.589
  121OSM    C6S12800   6.010   1.584  10.375
  121OSM    H6S12801   6.087   1.510  10.345
  121OSM    H6T12802   6.068   1.678  10.391
  121OSM    C7S12803   5.934   1.616  10.243
  121OSM    H7S12804   5.863   1.699  10.265
  121OSM    H7T12805   5.862   1.531  10.231
  121OSM    C8S12806   6.022   1.660  10.131
  121OSM    H8S12807   6.086   1.570  10.118
  121OSM    H8T12808   6.084   1.747  10.159
  121OSM    C9S12809   5.954   1.682  10.004
  121OSM    H9S12810   5.891   1.774  10.007
  121OSM    H9T12811   5.892   1.592   9.985
  121OSM   C10S12812   6.047   1.687   9.884
  121OSM   H10S12813   6.133   1.616   9.882
  121OSM   H10T12814   6.102   1.782   9.895
  121OSM   C11S12815   5.977   1.691   9.749
  121OSM   H11S12816   5.879   1.741   9.766
  121OSM   H11T12817   5.959   1.584   9.726
  121OSM   C12S12818   6.043   1.761   9.627
  121OSM   H12S12819   6.144   1.730   9.593
  121OSM   H12T12820   6.058   1.868   9.653
  121OSM   C13S12821   5.950   1.743   9.504
  121OSM   H13S12822   5.849   1.782   9.527
  121OSM   H13T12823   5.948   1.634   9.480
  121OSM   C14S12824   5.997   1.814   9.370
  121OSM   H14S12825   6.104   1.785   9.365
  121OSM   H14T12826   5.995   1.923   9.390
  121OSM   C15S12827   5.918   1.765   9.252
  121OSM   H15S12828   5.844   1.845   9.229
  121OSM   H15T12829   5.855   1.675   9.268
  121OSM   C16S12830   6.012   1.737   9.136
  121OSM   H16S12831   6.067   1.641   9.147
  121OSM   H16T12832   6.089   1.814   9.117
  121OSM   C17S12833   5.931   1.720   9.007
  121OSM   H17S12834   5.848   1.792   8.991
  121OSM   H17T12835   5.890   1.616   9.000
  121OSM   C18S12836   6.023   1.735   8.887
  121OSM   H18S12837   5.964   1.735   8.794
  121OSM   H18T12838   6.094   1.651   8.866
  121OSM   H18U12839   6.069   1.836   8.891
  121OSM    C1F12840   5.601   1.218  10.610
  121OSM     OF12841   5.479   1.239  10.609
  121OSM    C2F12842   5.662   1.092  10.561
  121OSM    H2F12843   5.722   1.043  10.640
  121OSM    H2G12844   5.746   1.121  10.494
  121OSM    C3F12845   5.560   1.003  10.488
  121OSM    H3F12846   5.481   0.976  10.562
  121OSM    H3G12847   5.610   0.907  10.464
  121OSM    C4F12848   5.516   1.064  10.356
  121OSM    H4F12849   5.441   1.141  10.385
  121OSM    H4G12850   5.455   0.983  10.310
  121OSM    C5F12851   5.618   1.113  10.267
  121OSM    H5F12852   5.687   1.029  10.244
  121OSM    H5G12853   5.687   1.186  10.315
  121OSM    C6F12854   5.562   1.182  10.143
  121OSM    H6F12855   5.501   1.269  10.175
  121OSM    H6G12856   5.486   1.106  10.113
  121OSM    C7F12857   5.656   1.216  10.027
  121OSM    H7F12858   5.717   1.131   9.992
  121OSM    H7G12859   5.737   1.276  10.074
  121OSM    C8F12860   5.590   1.291   9.908
  121OSM    H8F12861   5.506   1.355   9.942
  121OSM    H8G12862   5.536   1.214   9.850
  121OSM    C9F12863   5.696   1.370   9.842
  121OSM    H9F12864   5.789   1.377   9.900
  121OSM   C10F12865   5.683   1.425   9.719
  121OSM   H10F12866   5.773   1.472   9.677
  121OSM   C11F12867   5.562   1.429   9.638
  121OSM   H11F12868   5.545   1.532   9.601
  121OSM   H11G12869   5.469   1.394   9.687
  121OSM   C12F12870   5.585   1.335   9.519
  121OSM   H12F12871   5.497   1.324   9.452
  121OSM   H12G12872   5.607   1.230   9.545
  121OSM   C13F12873   5.691   1.372   9.419
  121OSM   H13F12874   5.796   1.348   9.446
  121OSM   H13G12875   5.708   1.482   9.426
  121OSM   C14F12876   5.679   1.341   9.264
  121OSM   H14F12877   5.647   1.235   9.262
  121OSM   H14G12878   5.778   1.353   9.215
  121OSM   C15F12879   5.580   1.431   9.185
  121OSM   H15F12880   5.619   1.535   9.192
  121OSM   H15G12881   5.483   1.430   9.239
  121OSM   C16F12882   5.575   1.388   9.039
  121OSM   H16F12883   5.589   1.279   9.027
  121OSM   H16G12884   5.655   1.448   8.989
  121OSM   C17F12885   5.442   1.424   8.968
  121OSM   H17F12886   5.422   1.533   8.980
  121OSM   H17G12887   5.354   1.366   9.003
  121OSM   C18F12888   5.451   1.398   8.812
  121OSM   H18F12889   5.359   1.433   8.760
  121OSM   H18G12890   5.475   1.290   8.796
  121OSM   H18H12891   5.528   1.461   8.764
  122OSM      N12892   6.190   0.207  10.906
  122OSM    C1512893   6.066   0.294  10.926
  122OSM   H15A12894   5.989   0.221  10.947
  122OSM   H15B12895   6.056   0.354  10.837
  122OSM   H15C12896   6.079   0.367  11.005
  122OSM    C1412897   6.309   0.292  10.897
  122OSM   H14A12898   6.387   0.221  10.876
  122OSM   H14B12899   6.334   0.343  10.989
  122OSM   H14C12900   6.287   0.364  10.819
  122OSM    C1312901   6.206   0.129  11.033
  122OSM   H13A12902   6.113   0.080  11.057
  122OSM   H13B12903   6.236   0.189  11.118
  122OSM   H13C12904   6.277   0.048  11.024
  122OSM    C1212905   6.173   0.126  10.788
  122OSM   H12A12906   6.129   0.177  10.703
  122OSM   H12B12907   6.103   0.045  10.806
  122OSM    C1112908   6.298   0.033  10.747
  122OSM   H11A12909   6.388   0.097  10.738
  122OSM   H11B12910   6.281  -0.015  10.649
  122OSM      P12911   6.241  -0.195  10.858
  122OSM    O1312912   6.307  -0.307  10.932
  122OSM    O1412913   6.104  -0.153  10.904
  122OSM    O1112914   6.224  -0.244  10.706
  122OSM    O1212915   6.330  -0.069  10.840
  122OSM    C1S12916   6.317  -0.346  10.662
  122OSM    H1S12917   6.310  -0.434  10.729
  122OSM    H1T12918   6.422  -0.310  10.663
  122OSM     NF12919   6.433  -0.456  10.458
  122OSM    HNF12920   6.474  -0.403  10.384
  122OSM    C2S12921   6.296  -0.397  10.513
  122OSM    H2S12922   6.231  -0.487  10.504
  122OSM    C3S12923   6.237  -0.288  10.428
  122OSM    H3S12924   6.303  -0.203  10.454
  122OSM     O312925   6.111  -0.234  10.459
  122OSM    HO312926   6.080  -0.275  10.540
  122OSM    C4S12927   6.247  -0.310  10.277
  122OSM    H4S12928   6.207  -0.405  10.236
  122OSM    C5S12929   6.286  -0.206  10.193
  122OSM    H5S12930   6.320  -0.110  10.235
  122OSM    C6S12931   6.288  -0.211  10.045
  122OSM    H6S12932   6.333  -0.306  10.007
  122OSM    H6T12933   6.337  -0.127   9.991
  122OSM    C7S12934   6.149  -0.209   9.974
  122OSM    H7S12935   6.102  -0.310   9.972
  122OSM    H7T12936   6.158  -0.169   9.871
  122OSM    C8S12937   6.063  -0.099  10.029
  122OSM    H8S12938   6.040  -0.116  10.136
  122OSM    H8T12939   5.964  -0.104   9.980
  122OSM    C9S12940   6.100   0.049  10.011
  122OSM    H9S12941   6.194   0.073  10.064
  122OSM    H9T12942   6.021   0.100  10.071
  122OSM   C10S12943   6.093   0.093   9.864
  122OSM   H10S12944   6.003   0.055   9.812
  122OSM   H10T12945   6.183   0.049   9.815
  122OSM   C11S12946   6.116   0.240   9.843
  122OSM   H11S12947   6.212   0.270   9.890
  122OSM   H11T12948   6.038   0.295   9.900
  122OSM   C12S12949   6.125   0.298   9.701
  122OSM   H12S12950   6.191   0.228   9.644
  122OSM   H12T12951   6.168   0.400   9.695
  122OSM   C13S12952   5.995   0.298   9.629
  122OSM   H13S12953   5.924   0.377   9.660
  122OSM   H13T12954   5.942   0.204   9.656
  122OSM   C14S12955   5.994   0.292   9.473
  122OSM   H14S12956   5.892   0.275   9.433
  122OSM   H14T12957   6.071   0.218   9.441
  122OSM   C15S12958   6.040   0.428   9.417
  122OSM   H15S12959   6.133   0.464   9.467
  122OSM   H15T12960   5.953   0.491   9.445
  122OSM   C16S12961   6.059   0.444   9.270
  122OSM   H16S12962   5.964   0.424   9.217
  122OSM   H16T12963   6.121   0.360   9.233
  122OSM   C17S12964   6.107   0.579   9.218
  122OSM   H17S12965   6.201   0.607   9.270
  122OSM   H17T12966   6.033   0.659   9.241
  122OSM   C18S12967   6.141   0.574   9.070
  122OSM   H18S12968   6.066   0.521   9.007
  122OSM   H18T12969   6.245   0.535   9.062
  122OSM   H18U12970   6.153   0.677   9.030
  122OSM    C1F12971   6.512  -0.545  10.512
  122OSM     OF12972   6.482  -0.596  10.620
  122OSM    C2F12973   6.641  -0.569  10.448
  122OSM    H2F12974   6.713  -0.593  10.529
  122OSM    H2G12975   6.678  -0.477  10.397
  122OSM    C3F12976   6.629  -0.675  10.342
  122OSM    H3F12977   6.599  -0.629  10.246
  122OSM    H3G12978   6.561  -0.761  10.361
  122OSM    C4F12979   6.762  -0.744  10.308
  122OSM    H4F12980   6.758  -0.807  10.217
  122OSM    H4G12981   6.799  -0.810  10.389
  122OSM    C5F12982   6.885  -0.651  10.288
  122OSM    H5F12983   6.975  -0.714  10.305
  122OSM    H5G12984   6.880  -0.571  10.366
  122OSM    C6F12985   6.900  -0.588  10.150
  122OSM    H6F12986   6.983  -0.516  10.168
  122OSM    H6G12987   6.815  -0.527  10.114
  122OSM    C7F12988   6.951  -0.687  10.050
  122OSM    H7F12989   6.990  -0.775  10.106
  122OSM    H7G12990   7.033  -0.631   9.999
  122OSM    C8F12991   6.833  -0.719   9.944
  122OSM    H8F12992   6.795  -0.620   9.911
  122OSM    H8G12993   6.753  -0.758  10.011
  122OSM    C9F12994   6.869  -0.810   9.833
  122OSM    H9F12995   6.894  -0.915   9.854
  122OSM   C10F12996   6.881  -0.774   9.704
  122OSM   H10F12997   6.913  -0.844   9.625
  122OSM   C11F12998   6.879  -0.629   9.657
  122OSM   H11F12999   6.906  -0.567   9.746
  122OSM   H11G13000   6.782  -0.591   9.620
  122OSM   C12F13001   6.989  -0.598   9.556
  122OSM   H12F13002   7.089  -0.625   9.597
  122OSM   H12G13003   6.987  -0.489   9.536
  122OSM   C13F13004   6.972  -0.683   9.425
  122OSM   H13F13005   6.869  -0.659   9.390
  122OSM   H13G13006   6.972  -0.794   9.437
  122OSM   C14F13007   7.064  -0.645   9.308
  122OSM   H14F13008   7.170  -0.648   9.339
  122OSM   H14G13009   7.038  -0.539   9.286
  122OSM   C15F13010   7.043  -0.737   9.178
  122OSM   H15F13011   7.066  -0.843   9.204
  122OSM   H15G13012   7.115  -0.706   9.099
  122OSM   C16F13013   6.907  -0.724   9.108
  122OSM   H16F13014   6.846  -0.706   9.199
  122OSM   H16G13015   6.882  -0.826   9.070
  122OSM   C17F13016   6.903  -0.622   9.000
  122OSM   H17F13017   6.983  -0.634   8.925
  122OSM   H17G13018   6.925  -0.525   9.050
  122OSM   C18F13019   6.768  -0.615   8.930
  122OSM   H18F13020   6.763  -0.549   8.840
  122OSM   H18G13021   6.689  -0.576   8.998
  122OSM   H18H13022   6.737  -0.717   8.898
  123OSM      N13023   3.479   4.586   6.181
  123OSM    C1513024   3.461   4.486   6.291
  123OSM   H15A13025   3.503   4.391   6.261
  123OSM   H15B13026   3.357   4.464   6.310
  123OSM   H15C13027   3.505   4.516   6.385
  123OSM    C1413028   3.429   4.524   6.056
  123OSM   H14A13029   3.476   4.427   6.047
  123OSM   H14B13030   3.459   4.589   5.975
  123OSM   H14C13031   3.321   4.527   6.055
  123OSM    C1313032   3.399   4.702   6.215
  123OSM   H13A13033   3.405   4.768   6.130
  123OSM   H13B13034   3.441   4.759   6.297
  123OSM   H13C13035   3.298   4.676   6.243
  123OSM    C1213036   3.627   4.629   6.166
  123OSM   H12A13037   3.696   4.546   6.162
  123OSM   H12B13038   3.660   4.692   6.247
  123OSM    C1113039   3.665   4.712   6.041
  123OSM   H11A13040   3.669   4.645   5.952
  123OSM   H11B13041   3.773   4.733   6.060
  123OSM      P13042   3.673   4.965   5.983
  123OSM    O1313043   3.785   4.923   5.894
  123OSM    O1413044   3.586   5.070   5.928
  123OSM    O1113045   3.722   5.006   6.127
  123OSM    O1213046   3.586   4.831   6.021
  123OSM    C1S13047   3.626   5.016   6.234
  123OSM    H1S13048   3.548   4.937   6.228
  123OSM    H1T13049   3.573   5.112   6.222
  123OSM     NF13050   3.577   5.058   6.478
  123OSM    HNF13051   3.580   5.148   6.520
  123OSM    C2S13052   3.679   5.020   6.381
  123OSM    H2S13053   3.707   4.915   6.405
  123OSM    C3S13054   3.798   5.120   6.391
  123OSM    H3S13055   3.746   5.217   6.370
  123OSM     O313056   3.903   5.112   6.298
  123OSM    HO313057   3.866   5.049   6.235
  123OSM    C4S13058   3.872   5.107   6.517
  123OSM    H4S13059   3.952   5.032   6.504
  123OSM    C5S13060   3.854   5.182   6.629
  123OSM    H5S13061   3.784   5.267   6.624
  123OSM    C6S13062   3.961   5.176   6.732
  123OSM    H6S13063   3.918   5.221   6.824
  123OSM    H6T13064   4.047   5.238   6.699
  123OSM    C7S13065   4.029   5.038   6.772
  123OSM    H7S13066   4.091   5.000   6.688
  123OSM    H7T13067   3.945   4.969   6.793
  123OSM    C8S13068   4.115   5.043   6.906
  123OSM    H8S13069   4.206   5.099   6.875
  123OSM    H8T13070   4.132   4.940   6.943
  123OSM    C9S13071   4.050   5.112   7.028
  123OSM    H9S13072   3.957   5.057   7.056
  123OSM    H9T13073   4.031   5.219   7.007
  123OSM   C10S13074   4.135   5.110   7.150
  123OSM   H10S13075   4.240   5.143   7.132
  123OSM   H10T13076   4.137   5.010   7.198
  123OSM   C11S13077   4.080   5.197   7.265
  123OSM   H11S13078   3.971   5.178   7.279
  123OSM   H11T13079   4.081   5.302   7.230
  123OSM   C12S13080   4.158   5.167   7.397
  123OSM   H12S13081   4.181   5.258   7.457
  123OSM   H12T13082   4.257   5.131   7.360
  123OSM   C13S13083   4.091   5.060   7.486
  123OSM   H13S13084   4.113   4.955   7.460
  123OSM   H13T13085   3.982   5.075   7.473
  123OSM   C14S13086   4.122   5.080   7.639
  123OSM   H14S13087   4.028   5.077   7.698
  123OSM   H14T13088   4.161   5.183   7.652
  123OSM   C15S13089   4.228   4.975   7.693
  123OSM   H15S13090   4.321   4.995   7.635
  123OSM   H15T13091   4.190   4.873   7.670
  123OSM   C16S13092   4.257   4.993   7.843
  123OSM   H16S13093   4.290   4.892   7.874
  123OSM   H16T13094   4.158   5.020   7.885
  123OSM   C17S13095   4.352   5.113   7.869
  123OSM   H17S13096   4.302   5.212   7.879
  123OSM   H17T13097   4.429   5.126   7.790
  123OSM   C18S13098   4.428   5.092   8.000
  123OSM   H18S13099   4.472   5.187   8.037
  123OSM   H18T13100   4.510   5.020   7.978
  123OSM   H18U13101   4.360   5.051   8.078
  123OSM    C1F13102   3.465   4.984   6.503
  123OSM     OF13103   3.443   4.867   6.469
  123OSM    C2F13104   3.366   5.059   6.578
  123OSM    H2F13105   3.273   5.071   6.520
  123OSM    H2G13106   3.396   5.162   6.605
  123OSM    C3F13107   3.334   4.991   6.713
  123OSM    H3F13108   3.301   4.890   6.681
  123OSM    H3G13109   3.246   5.035   6.765
  123OSM    C4F13110   3.458   4.979   6.811
  123OSM    H4F13111   3.527   4.913   6.755
  123OSM    H4G13112   3.420   4.929   6.903
  123OSM    C5F13113   3.513   5.114   6.858
  123OSM    H5F13114   3.427   5.162   6.910
  123OSM    H5G13115   3.563   5.169   6.776
  123OSM    C6F13116   3.625   5.096   6.961
  123OSM    H6F13117   3.661   5.188   7.011
  123OSM    H6G13118   3.713   5.068   6.900
  123OSM    C7F13119   3.615   4.992   7.072
  123OSM    H7F13120   3.705   4.990   7.138
  123OSM    H7G13121   3.607   4.890   7.029
  123OSM    C8F13122   3.493   5.027   7.163
  123OSM    H8F13123   3.404   5.029   7.097
  123OSM    H8G13124   3.514   5.132   7.191
  123OSM    C9F13125   3.471   4.949   7.289
  123OSM    H9F13126   3.381   4.885   7.284
  123OSM   C10F13127   3.542   4.952   7.402
  123OSM   H10F13128   3.504   4.887   7.482
  123OSM   C11F13129   3.667   5.036   7.438
  123OSM   H11F13130   3.637   5.134   7.395
  123OSM   H11G13131   3.748   4.996   7.373
  123OSM   C12F13132   3.693   5.031   7.594
  123OSM   H12F13133   3.602   5.060   7.650
  123OSM   H12G13134   3.771   5.106   7.622
  123OSM   C13F13135   3.726   4.896   7.661
  123OSM   H13F13136   3.835   4.873   7.656
  123OSM   H13G13137   3.678   4.819   7.597
  123OSM   C14F13138   3.677   4.873   7.802
  123OSM   H14F13139   3.691   4.765   7.828
  123OSM   H14G13140   3.569   4.899   7.809
  123OSM   C15F13141   3.756   4.956   7.906
  123OSM   H15F13142   3.762   5.065   7.882
  123OSM   H15G13143   3.861   4.921   7.913
  123OSM   C16F13144   3.683   4.951   8.043
  123OSM   H16F13145   3.680   4.844   8.072
  123OSM   H16G13146   3.585   5.002   8.031
  123OSM   C17F13147   3.766   5.029   8.144
  123OSM   H17F13148   3.728   5.133   8.148
  123OSM   H17G13149   3.872   5.030   8.113
  123OSM   C18F13150   3.770   4.981   8.287
  123OSM   H18F13151   3.672   4.981   8.338
  123OSM   H18G13152   3.845   5.030   8.352
  123OSM   H18H13153   3.803   4.875   8.281
  124OSM      N13154   0.284   2.719   6.131
  124OSM    C1513155   0.332   2.585   6.073
  124OSM   H15A13156   0.341   2.603   5.967
  124OSM   H15B13157   0.256   2.510   6.090
  124OSM   H15C13158   0.424   2.545   6.113
  124OSM    C1413159   0.390   2.821   6.119
  124OSM   H14A13160   0.477   2.796   6.178
  124OSM   H14B13161   0.354   2.915   6.158
  124OSM   H14C13162   0.426   2.829   6.018
  124OSM    C1313163   0.172   2.789   6.059
  124OSM   H13A13164   0.205   2.815   5.960
  124OSM   H13B13165   0.156   2.880   6.114
  124OSM   H13C13166   0.078   2.735   6.063
  124OSM    C1213167   0.248   2.711   6.280
  124OSM   H12A13168   0.335   2.678   6.335
  124OSM   H12B13169   0.181   2.627   6.294
  124OSM    C1113170   0.202   2.834   6.352
  124OSM   H11A13171   0.199   2.807   6.459
  124OSM   H11B13172   0.100   2.862   6.320
  124OSM      P13173   0.249   3.083   6.322
  124OSM    O1313174   0.359   3.181   6.323
  124OSM    O1413175   0.168   3.078   6.200
  124OSM    O1113176   0.149   3.101   6.449
  124OSM    O1213177   0.297   2.934   6.350
  124OSM    C1S13178   0.199   3.108   6.579
  124OSM    H1S13179   0.260   3.197   6.602
  124OSM    H1T13180   0.275   3.029   6.595
  124OSM     NF13181   0.157   3.131   6.820
  124OSM    HNF13182   0.170   3.043   6.866
  124OSM    C2S13183   0.092   3.120   6.692
  124OSM    H2S13184   0.018   3.201   6.681
  124OSM    C3S13185   0.004   2.985   6.682
  124OSM    H3S13186   0.074   2.899   6.689
  124OSM     O313187  -0.065   2.963   6.553
  124OSM    HO313188  -0.024   3.026   6.493
  124OSM    C4S13189  -0.096   2.968   6.795
  124OSM    H4S13190  -0.057   2.917   6.884
  124OSM    C5S13191  -0.224   3.012   6.799
  124OSM    H5S13192  -0.258   3.056   6.704
  124OSM    C6S13193  -0.333   2.996   6.908
  124OSM    H6S13194  -0.421   2.941   6.869
  124OSM    H6T13195  -0.367   3.101   6.927
  124OSM    C7S13196  -0.290   2.932   7.034
  124OSM    H7S13197  -0.201   2.992   7.063
  124OSM    H7T13198  -0.273   2.823   7.025
  124OSM    C8S13199  -0.401   2.944   7.144
  124OSM    H8S13200  -0.478   2.873   7.108
  124OSM    H8T13201  -0.457   3.040   7.134
  124OSM    C9S13202  -0.352   2.907   7.277
  124OSM    H9S13203  -0.327   3.002   7.330
  124OSM    H9T13204  -0.248   2.869   7.280
  124OSM   C10S13205  -0.444   2.809   7.352
  124OSM   H10S13206  -0.476   2.729   7.282
  124OSM   H10T13207  -0.532   2.867   7.384
  124OSM   C11S13208  -0.378   2.752   7.482
  124OSM   H11S13209  -0.279   2.705   7.465
  124OSM   H11T13210  -0.456   2.679   7.514
  124OSM   C12S13211  -0.354   2.853   7.593
  124OSM   H12S13212  -0.434   2.930   7.591
  124OSM   H12T13213  -0.255   2.903   7.591
  124OSM   C13S13214  -0.363   2.783   7.733
  124OSM   H13S13215  -0.289   2.700   7.729
  124OSM   H13T13216  -0.458   2.726   7.736
  124OSM   C14S13217  -0.338   2.869   7.858
  124OSM   H14S13218  -0.409   2.955   7.854
  124OSM   H14T13219  -0.235   2.911   7.850
  124OSM   C15S13220  -0.351   2.786   7.981
  124OSM   H15S13221  -0.258   2.726   7.989
  124OSM   H15T13222  -0.433   2.711   7.971
  124OSM   C16S13223  -0.383   2.864   8.100
  124OSM   H16S13224  -0.486   2.905   8.104
  124OSM   H16T13225  -0.319   2.954   8.115
  124OSM   C17S13226  -0.357   2.775   8.222
  124OSM   H17S13227  -0.261   2.720   8.208
  124OSM   H17T13228  -0.434   2.696   8.217
  124OSM   C18S13229  -0.377   2.837   8.362
  124OSM   H18S13230  -0.381   2.762   8.444
  124OSM   H18T13231  -0.470   2.897   8.370
  124OSM   H18U13232  -0.296   2.909   8.386
  124OSM    C1F13233   0.215   3.246   6.858
  124OSM     OF13234   0.194   3.352   6.797
  124OSM    C2F13235   0.312   3.247   6.969
  124OSM    H2F13236   0.411   3.257   6.921
  124OSM    H2G13237   0.308   3.142   7.006
  124OSM    C3F13238   0.292   3.347   7.084
  124OSM    H3F13239   0.190   3.336   7.125
  124OSM    H3G13240   0.310   3.450   7.045
  124OSM    C4F13241   0.397   3.338   7.193
  124OSM    H4F13242   0.501   3.351   7.155
  124OSM    H4G13243   0.408   3.243   7.249
  124OSM    C5F13244   0.370   3.443   7.293
  124OSM    H5F13245   0.270   3.490   7.278
  124OSM    H5G13246   0.438   3.529   7.276
  124OSM    C6F13247   0.379   3.404   7.443
  124OSM    H6F13248   0.348   3.494   7.501
  124OSM    H6G13249   0.485   3.381   7.468
  124OSM    C7F13250   0.305   3.279   7.488
  124OSM    H7F13251   0.373   3.191   7.494
  124OSM    H7G13252   0.224   3.255   7.415
  124OSM    C8F13253   0.242   3.288   7.622
  124OSM    H8F13254   0.171   3.204   7.636
  124OSM    H8G13255   0.172   3.374   7.616
  124OSM    C9F13256   0.338   3.282   7.736
  124OSM    H9F13257   0.442   3.269   7.702
  124OSM   C10F13258   0.313   3.319   7.859
  124OSM   H10F13259   0.397   3.311   7.930
  124OSM   C11F13260   0.196   3.386   7.921
  124OSM   H11F13261   0.133   3.312   7.973
  124OSM   H11G13262   0.130   3.414   7.836
  124OSM   C12F13263   0.217   3.512   8.000
  124OSM   H12F13264   0.123   3.571   7.998
  124OSM   H12G13265   0.282   3.571   7.932
  124OSM   C13F13266   0.286   3.484   8.133
  124OSM   H13F13267   0.392   3.455   8.118
  124OSM   H13G13268   0.220   3.413   8.187
  124OSM   C14F13269   0.289   3.612   8.229
  124OSM   H14F13270   0.336   3.580   8.325
  124OSM   H14G13271   0.189   3.653   8.257
  124OSM   C15F13272   0.368   3.724   8.159
  124OSM   H15F13273   0.333   3.749   8.057
  124OSM   H15G13274   0.472   3.685   8.154
  124OSM   C16F13275   0.365   3.859   8.233
  124OSM   H16F13276   0.260   3.896   8.227
  124OSM   H16G13277   0.425   3.926   8.168
  124OSM   C17F13278   0.408   3.867   8.379
  124OSM   H17F13279   0.335   3.808   8.440
  124OSM   H17G13280   0.404   3.971   8.417
  124OSM   C18F13281   0.548   3.815   8.417
  124OSM   H18F13282   0.557   3.705   8.409
  124OSM   H18G13283   0.560   3.836   8.526
  124OSM   H18H13284   0.628   3.870   8.363
  125OSM      N13285   6.665   4.187   6.019
  125OSM    C1513286   6.786   4.174   6.104
  125OSM   H15A13287   6.828   4.270   6.131
  125OSM   H15B13288   6.863   4.112   6.060
  125OSM   H15C13289   6.761   4.136   6.203
  125OSM    C1413290   6.707   4.250   5.890
  125OSM   H14A13291   6.626   4.233   5.820
  125OSM   H14B13292   6.799   4.204   5.856
  125OSM   H14C13293   6.720   4.357   5.894
  125OSM    C1313294   6.615   4.054   5.988
  125OSM   H13A13295   6.581   3.997   6.073
  125OSM   H13B13296   6.695   4.005   5.935
  125OSM   H13C13297   6.533   4.052   5.918
  125OSM    C1213298   6.569   4.276   6.084
  125OSM   H12A13299   6.490   4.291   6.011
  125OSM   H12B13300   6.615   4.373   6.095
  125OSM    C1113301   6.492   4.230   6.212
  125OSM   H11A13302   6.556   4.214   6.301
  125OSM   H11B13303   6.445   4.132   6.190
  125OSM      P13304   6.253   4.284   6.297
  125OSM    O1313305   6.176   4.410   6.298
  125OSM    O1413306   6.198   4.172   6.220
  125OSM    O1113307   6.285   4.245   6.451
  125OSM    O1213308   6.398   4.330   6.240
  125OSM    C1S13309   6.376   4.329   6.518
  125OSM    H1S13310   6.356   4.437   6.497
  125OSM    H1T13311   6.478   4.324   6.475
  125OSM     NF13312   6.474   4.386   6.747
  125OSM    HNF13313   6.571   4.367   6.753
  125OSM    C2S13314   6.390   4.291   6.671
  125OSM    H2S13315   6.284   4.293   6.702
  125OSM    C3S13316   6.444   4.148   6.681
  125OSM    H3S13317   6.548   4.144   6.642
  125OSM     O313318   6.379   4.063   6.594
  125OSM    HO313319   6.376   4.125   6.521
  125OSM    C4S13320   6.445   4.095   6.825
  125OSM    H4S13321   6.540   4.104   6.880
  125OSM    C5S13322   6.343   4.026   6.883
  125OSM    H5S13323   6.251   4.024   6.823
  125OSM    C6S13324   6.333   3.965   7.017
  125OSM    H6S13325   6.308   3.858   7.005
  125OSM    H6T13326   6.246   4.010   7.069
  125OSM    C7S13327   6.460   3.976   7.111
  125OSM    H7S13328   6.485   4.084   7.122
  125OSM    H7T13329   6.538   3.928   7.048
  125OSM    C8S13330   6.445   3.908   7.248
  125OSM    H8S13331   6.382   3.963   7.322
  125OSM    H8T13332   6.546   3.898   7.293
  125OSM    C9S13333   6.406   3.757   7.227
  125OSM    H9S13334   6.471   3.714   7.148
  125OSM    H9T13335   6.302   3.753   7.188
  125OSM   C10S13336   6.417   3.676   7.363
  125OSM   H10S13337   6.526   3.661   7.382
  125OSM   H10T13338   6.382   3.574   7.338
  125OSM   C11S13339   6.341   3.736   7.478
  125OSM   H11S13340   6.241   3.760   7.437
  125OSM   H11T13341   6.382   3.833   7.513
  125OSM   C12S13342   6.333   3.653   7.605
  125OSM   H12S13343   6.431   3.645   7.658
  125OSM   H12T13344   6.316   3.548   7.572
  125OSM   C13S13345   6.229   3.702   7.708
  125OSM   H13S13346   6.131   3.685   7.658
  125OSM   H13T13347   6.254   3.809   7.726
  125OSM   C14S13348   6.233   3.632   7.841
  125OSM   H14S13349   6.324   3.664   7.898
  125OSM   H14T13350   6.236   3.522   7.826
  125OSM   C15S13351   6.120   3.673   7.932
  125OSM   H15S13352   6.025   3.625   7.899
  125OSM   H15T13353   6.100   3.782   7.937
  125OSM   C16S13354   6.142   3.624   8.074
  125OSM   H16S13355   6.225   3.685   8.116
  125OSM   H16T13356   6.176   3.519   8.070
  125OSM   C17S13357   6.021   3.647   8.166
  125OSM   H17S13358   5.933   3.598   8.120
  125OSM   H17T13359   5.994   3.754   8.162
  125OSM   C18S13360   6.021   3.588   8.311
  125OSM   H18S13361   6.059   3.485   8.292
  125OSM   H18T13362   5.917   3.588   8.350
  125OSM   H18U13363   6.088   3.641   8.381
  125OSM    C1F13364   6.425   4.507   6.774
  125OSM     OF13365   6.305   4.528   6.769
  125OSM    C2F13366   6.521   4.620   6.787
  125OSM    H2F13367   6.551   4.651   6.685
  125OSM    H2G13368   6.617   4.597   6.839
  125OSM    C3F13369   6.452   4.734   6.869
  125OSM    H3F13370   6.348   4.762   6.841
  125OSM    H3G13371   6.507   4.829   6.856
  125OSM    C4F13372   6.464   4.701   7.021
  125OSM    H4F13373   6.574   4.695   7.037
  125OSM    H4G13374   6.423   4.602   7.047
  125OSM    C5F13375   6.389   4.802   7.114
  125OSM    H5F13376   6.284   4.803   7.077
  125OSM    H5G13377   6.437   4.900   7.097
  125OSM    C6F13378   6.409   4.763   7.261
  125OSM    H6F13379   6.517   4.738   7.259
  125OSM    H6G13380   6.346   4.675   7.283
  125OSM    C7F13381   6.380   4.874   7.367
  125OSM    H7F13382   6.277   4.916   7.357
  125OSM    H7G13383   6.442   4.965   7.351
  125OSM    C8F13384   6.423   4.819   7.504
  125OSM    H8F13385   6.442   4.906   7.570
  125OSM    H8G13386   6.523   4.771   7.494
  125OSM    C9F13387   6.328   4.720   7.573
  125OSM    H9F13388   6.317   4.627   7.516
  125OSM   C10F13389   6.254   4.742   7.684
  125OSM   H10F13390   6.179   4.668   7.716
  125OSM   C11F13391   6.244   4.879   7.750
  125OSM   H11F13392   6.244   4.956   7.670
  125OSM   H11G13393   6.324   4.904   7.823
  125OSM   C12F13394   6.109   4.895   7.812
  125OSM   H12F13395   6.021   4.854   7.757
  125OSM   H12G13396   6.092   5.004   7.822
  125OSM   C13F13397   6.112   4.820   7.945
  125OSM   H13F13398   6.186   4.865   8.014
  125OSM   H13G13399   6.128   4.711   7.933
  125OSM   C14F13400   5.980   4.830   8.016
  125OSM   H14F13401   5.975   4.756   8.099
  125OSM   H14G13402   5.897   4.820   7.943
  125OSM   C15F13403   5.957   4.971   8.082
  125OSM   H15F13404   5.951   5.064   8.022
  125OSM   H15G13405   6.049   4.973   8.145
  125OSM   C16F13406   5.825   4.981   8.156
  125OSM   H16F13407   5.823   5.072   8.219
  125OSM   H16G13408   5.817   4.892   8.221
  125OSM   C17F13409   5.708   4.988   8.059
  125OSM   H17F13410   5.702   4.891   8.005
  125OSM   H17G13411   5.711   5.070   7.985
  125OSM   C18F13412   5.576   5.010   8.127
  125OSM   H18F13413   5.581   5.119   8.146
  125OSM   H18G13414   5.563   4.955   8.223
  125OSM   H18H13415   5.491   4.992   8.058
  126OSM      N13416   4.258   3.150   6.708
  126OSM    C1513417   4.244   3.128   6.851
  126OSM   H15A13418   4.253   3.220   6.906
  126OSM   H15B13419   4.318   3.062   6.893
  126OSM   H15C13420   4.146   3.088   6.874
  126OSM    C1413421   4.398   3.204   6.685
  126OSM   H14A13422   4.438   3.268   6.762
  126OSM   H14B13423   4.403   3.262   6.593
  126OSM   H14C13424   4.461   3.119   6.667
  126OSM    C1313425   4.240   3.022   6.634
  126OSM   H13A13426   4.141   2.982   6.646
  126OSM   H13B13427   4.308   2.943   6.662
  126OSM   H13C13428   4.239   3.037   6.527
  126OSM    C1213429   4.150   3.243   6.650
  126OSM   H12A13430   4.135   3.323   6.721
  126OSM   H12B13431   4.056   3.190   6.644
  126OSM    C1113432   4.192   3.298   6.518
  126OSM   H11A13433   4.096   3.332   6.472
  126OSM   H11B13434   4.239   3.220   6.454
  126OSM      P13435   4.234   3.555   6.561
  126OSM    O1313436   4.354   3.639   6.545
  126OSM    O1413437   4.112   3.597   6.490
  126OSM    O1113438   4.197   3.546   6.711
  126OSM    O1213439   4.280   3.407   6.536
  126OSM    C1S13440   4.176   3.669   6.782
  126OSM    H1S13441   4.099   3.735   6.737
  126OSM    H1T13442   4.270   3.729   6.781
  126OSM     NF13443   4.096   3.746   7.000
  126OSM    HNF13444   4.161   3.772   7.071
  126OSM    C2S13445   4.132   3.631   6.922
  126OSM    H2S13446   4.042   3.570   6.900
  126OSM    C3S13447   4.239   3.539   6.996
  126OSM    H3S13448   4.318   3.615   7.012
  126OSM     O313449   4.308   3.436   6.921
  126OSM    HO313450   4.278   3.454   6.832
  126OSM    C4S13451   4.180   3.481   7.127
  126OSM    H4S13452   4.194   3.540   7.219
  126OSM    C5S13453   4.108   3.367   7.136
  126OSM    H5S13454   4.111   3.290   7.058
  126OSM    C6S13455   4.040   3.327   7.258
  126OSM    H6S13456   4.074   3.224   7.279
  126OSM    H6T13457   3.931   3.320   7.239
  126OSM    C7S13458   4.064   3.397   7.398
  126OSM    H7S13459   4.070   3.508   7.385
  126OSM    H7T13460   4.160   3.362   7.442
  126OSM    C8S13461   3.956   3.368   7.499
  126OSM    H8S13462   3.960   3.257   7.504
  126OSM    H8T13463   3.859   3.404   7.458
  126OSM    C9S13464   3.973   3.428   7.636
  126OSM    H9S13465   3.882   3.407   7.696
  126OSM    H9T13466   3.969   3.538   7.627
  126OSM   C10S13467   4.093   3.393   7.721
  126OSM   H10S13468   4.102   3.467   7.803
  126OSM   H10T13469   4.188   3.406   7.665
  126OSM   C11S13470   4.082   3.247   7.774
  126OSM   H11S13471   4.069   3.177   7.689
  126OSM   H11T13472   3.986   3.245   7.831
  126OSM   C12S13473   4.199   3.213   7.868
  126OSM   H12S13474   4.223   3.286   7.948
  126OSM   H12T13475   4.294   3.230   7.812
  126OSM   C13S13476   4.215   3.064   7.912
  126OSM   H13S13477   4.213   3.005   7.818
  126OSM   H13T13478   4.136   3.022   7.979
  126OSM   C14S13479   4.353   3.027   7.966
  126OSM   H14S13480   4.433   3.048   7.893
  126OSM   H14T13481   4.352   2.918   7.988
  126OSM   C15S13482   4.398   3.109   8.086
  126OSM   H15S13483   4.405   3.217   8.058
  126OSM   H15T13484   4.493   3.070   8.129
  126OSM   C16S13485   4.289   3.099   8.198
  126OSM   H16S13486   4.271   2.994   8.230
  126OSM   H16T13487   4.188   3.135   8.166
  126OSM   C17S13488   4.331   3.180   8.322
  126OSM   H17S13489   4.255   3.175   8.403
  126OSM   H17T13490   4.328   3.288   8.299
  126OSM   C18S13491   4.460   3.147   8.387
  126OSM   H18S13492   4.544   3.127   8.317
  126OSM   H18T13493   4.454   3.054   8.448
  126OSM   H18U13494   4.487   3.231   8.455
  126OSM    C1F13495   3.990   3.828   6.989
  126OSM     OF13496   3.902   3.796   6.911
  126OSM    C2F13497   3.993   3.954   7.074
  126OSM    H2F13498   4.056   4.032   7.026
  126OSM    H2G13499   4.034   3.924   7.172
  126OSM    C3F13500   3.847   4.007   7.091
  126OSM    H3F13501   3.785   3.926   7.135
  126OSM    H3G13502   3.816   4.022   6.986
  126OSM    C4F13503   3.836   4.128   7.183
  126OSM    H4F13504   3.898   4.214   7.149
  126OSM    H4G13505   3.877   4.088   7.278
  126OSM    C5F13506   3.691   4.188   7.194
  126OSM    H5F13507   3.615   4.107   7.184
  126OSM    H5G13508   3.680   4.259   7.108
  126OSM    C6F13509   3.666   4.253   7.325
  126OSM    H6F13510   3.576   4.318   7.315
  126OSM    H6G13511   3.738   4.334   7.344
  126OSM    C7F13512   3.663   4.148   7.438
  126OSM    H7F13513   3.748   4.080   7.420
  126OSM    H7G13514   3.573   4.083   7.437
  126OSM    C8F13515   3.684   4.209   7.578
  126OSM    H8F13516   3.601   4.281   7.595
  126OSM    H8G13517   3.784   4.256   7.574
  126OSM    C9F13518   3.681   4.100   7.682
  126OSM    H9F13519   3.723   4.003   7.653
  126OSM   C10F13520   3.637   4.114   7.809
  126OSM   H10F13521   3.637   4.035   7.885
  126OSM   C11F13522   3.583   4.239   7.873
  126OSM   H11F13523   3.477   4.247   7.903
  126OSM   H11G13524   3.599   4.322   7.801
  126OSM   C12F13525   3.669   4.276   7.998
  126OSM   H12F13526   3.637   4.372   8.044
  126OSM   H12G13527   3.777   4.293   7.980
  126OSM   C13F13528   3.648   4.179   8.106
  126OSM   H13F13529   3.694   4.080   8.082
  126OSM   H13G13530   3.540   4.167   8.130
  126OSM   C14F13531   3.730   4.222   8.227
  126OSM   H14F13532   3.671   4.297   8.284
  126OSM   H14G13533   3.825   4.275   8.202
  126OSM   C15F13534   3.768   4.112   8.324
  126OSM   H15F13535   3.840   4.160   8.393
  126OSM   H15G13536   3.813   4.027   8.270
  126OSM   C16F13537   3.649   4.061   8.396
  126OSM   H16F13538   3.572   4.028   8.322
  126OSM   H16G13539   3.593   4.149   8.435
  126OSM   C17F13540   3.678   3.943   8.494
  126OSM   H17F13541   3.708   3.855   8.432
  126OSM   H17G13542   3.587   3.902   8.543
  126OSM   C18F13543   3.792   3.970   8.593
  126OSM   H18F13544   3.876   3.993   8.524
  126OSM   H18G13545   3.813   3.871   8.640
  126OSM   H18H13546   3.763   4.043   8.671
  127OSM      N13547   5.822   2.356   5.995
  127OSM    C1513548   5.903   2.465   6.057
  127OSM   H15A13549   5.949   2.429   6.148
  127OSM   H15B13550   5.839   2.541   6.099
  127OSM   H15C13551   5.969   2.511   5.985
  127OSM    C1413552   5.715   2.422   5.919
  127OSM   H14A13553   5.753   2.492   5.847
  127OSM   H14B13554   5.665   2.484   5.992
  127OSM   H14C13555   5.650   2.354   5.865
  127OSM    C1313556   5.892   2.259   5.898
  127OSM   H13A13557   5.910   2.301   5.800
  127OSM   H13B13558   5.837   2.168   5.880
  127OSM   H13C13559   5.992   2.234   5.929
  127OSM    C1213560   5.771   2.266   6.106
  127OSM   H12A13561   5.847   2.204   6.151
  127OSM   H12B13562   5.711   2.190   6.059
  127OSM    C1113563   5.689   2.333   6.225
  127OSM   H11A13564   5.752   2.405   6.281
  127OSM   H11B13565   5.660   2.252   6.295
  127OSM      P13566   5.430   2.322   6.155
  127OSM    O1313567   5.325   2.423   6.181
  127OSM    O1413568   5.434   2.250   6.029
  127OSM    O1113569   5.414   2.215   6.266
  127OSM    O1213570   5.569   2.396   6.183
  127OSM    C1S13571   5.391   2.251   6.402
  127OSM    H1S13572   5.301   2.314   6.416
  127OSM    H1T13573   5.477   2.309   6.443
  127OSM     NF13574   5.368   2.168   6.634
  127OSM    HNF13575   5.453   2.150   6.685
  127OSM    C2S13576   5.374   2.128   6.496
  127OSM    H2S13577   5.278   2.075   6.478
  127OSM    C3S13578   5.487   2.028   6.453
  127OSM    H3S13579   5.568   2.085   6.403
  127OSM     O313580   5.444   1.931   6.349
  127OSM    HO313581   5.357   1.964   6.322
  127OSM    C4S13582   5.539   1.958   6.574
  127OSM    H4S13583   5.642   1.985   6.602
  127OSM    C5S13584   5.486   1.852   6.643
  127OSM    H5S13585   5.402   1.794   6.603
  127OSM    C6S13586   5.553   1.767   6.752
  127OSM    H6S13587   5.657   1.759   6.715
  127OSM    H6T13588   5.515   1.662   6.751
  127OSM    C7S13589   5.545   1.824   6.889
  127OSM    H7S13590   5.588   1.926   6.901
  127OSM    H7T13591   5.596   1.766   6.969
  127OSM    C8S13592   5.395   1.837   6.925
  127OSM    H8S13593   5.349   1.898   6.844
  127OSM    H8T13594   5.382   1.906   7.012
  127OSM    C9S13595   5.322   1.703   6.944
  127OSM    H9S13596   5.341   1.641   6.853
  127OSM    H9T13597   5.213   1.721   6.938
  127OSM   C10S13598   5.358   1.643   7.077
  127OSM   H10S13599   5.309   1.701   7.158
  127OSM   H10T13600   5.467   1.650   7.100
  127OSM   C11S13601   5.315   1.496   7.082
  127OSM   H11S13602   5.367   1.442   7.000
  127OSM   H11T13603   5.206   1.482   7.071
  127OSM   C12S13604   5.371   1.430   7.214
  127OSM   H12S13605   5.462   1.483   7.249
  127OSM   H12T13606   5.400   1.326   7.189
  127OSM   C13S13607   5.273   1.432   7.327
  127OSM   H13S13608   5.210   1.341   7.316
  127OSM   H13T13609   5.196   1.511   7.313
  127OSM   C14S13610   5.320   1.451   7.470
  127OSM   H14S13611   5.233   1.474   7.536
  127OSM   H14T13612   5.392   1.535   7.474
  127OSM   C15S13613   5.403   1.334   7.537
  127OSM   H15S13614   5.474   1.371   7.614
  127OSM   H15T13615   5.464   1.286   7.458
  127OSM   C16S13616   5.310   1.222   7.585
  127OSM   H16S13617   5.258   1.176   7.498
  127OSM   H16T13618   5.240   1.265   7.660
  127OSM   C17S13619   5.402   1.112   7.646
  127OSM   H17S13620   5.462   1.156   7.728
  127OSM   H17T13621   5.475   1.083   7.567
  127OSM   C18S13622   5.333   0.982   7.692
  127OSM   H18S13623   5.270   0.938   7.611
  127OSM   H18T13624   5.256   1.005   7.768
  127OSM   H18U13625   5.411   0.912   7.728
  127OSM    C1F13626   5.262   2.240   6.676
  127OSM     OF13627   5.161   2.249   6.604
  127OSM    C2F13628   5.270   2.304   6.809
  127OSM    H2F13629   5.235   2.409   6.801
  127OSM    H2G13630   5.373   2.295   6.849
  127OSM    C3F13631   5.184   2.229   6.916
  127OSM    H3F13632   5.243   2.137   6.936
  127OSM    H3G13633   5.079   2.207   6.886
  127OSM    C4F13634   5.169   2.312   7.041
  127OSM    H4F13635   5.098   2.267   7.113
  127OSM    H4G13636   5.132   2.412   7.010
  127OSM    C5F13637   5.305   2.330   7.117
  127OSM    H5F13638   5.363   2.405   7.058
  127OSM    H5G13639   5.359   2.234   7.130
  127OSM    C6F13640   5.295   2.375   7.261
  127OSM    H6F13641   5.242   2.473   7.257
  127OSM    H6G13642   5.397   2.393   7.301
  127OSM    C7F13643   5.218   2.272   7.353
  127OSM    H7F13644   5.250   2.172   7.317
  127OSM    H7G13645   5.112   2.284   7.324
  127OSM    C8F13646   5.233   2.302   7.500
  127OSM    H8F13647   5.341   2.329   7.511
  127OSM    H8G13648   5.204   2.213   7.560
  127OSM    C9F13649   5.152   2.421   7.541
  127OSM    H9F13650   5.182   2.508   7.482
  127OSM   C10F13651   5.073   2.438   7.647
  127OSM   H10F13652   5.011   2.528   7.653
  127OSM   C11F13653   5.041   2.337   7.755
  127OSM   H11F13654   5.123   2.268   7.780
  127OSM   H11G13655   4.957   2.270   7.725
  127OSM   C12F13656   4.996   2.404   7.883
  127OSM   H12F13657   4.957   2.320   7.945
  127OSM   H12G13658   4.922   2.486   7.873
  127OSM   C13F13659   5.118   2.455   7.963
  127OSM   H13F13660   5.178   2.524   7.899
  127OSM   H13G13661   5.180   2.368   7.994
  127OSM   C14F13662   5.076   2.547   8.085
  127OSM   H14F13663   5.002   2.616   8.039
  127OSM   H14G13664   5.164   2.609   8.113
  127OSM   C15F13665   5.004   2.480   8.201
  127OSM   H15F13666   5.071   2.416   8.262
  127OSM   H15G13667   4.917   2.422   8.163
  127OSM   C16F13668   4.940   2.582   8.300
  127OSM   H16F13669   4.885   2.527   8.379
  127OSM   H16G13670   4.867   2.650   8.252
  127OSM   C17F13671   5.036   2.683   8.364
  127OSM   H17F13672   5.072   2.745   8.279
  127OSM   H17G13673   5.128   2.651   8.419
  127OSM   C18F13674   4.962   2.781   8.463
  127OSM   H18F13675   4.887   2.730   8.527
  127OSM   H18G13676   4.916   2.866   8.408
  127OSM   H18H13677   5.026   2.842   8.530
  128OSM      N13678   0.494   5.816   5.812
  128OSM    C1513679   0.456   5.717   5.712
  128OSM   H15A13680   0.483   5.618   5.746
  128OSM   H15B13681   0.513   5.728   5.621
  128OSM   H15C13682   0.351   5.715   5.684
  128OSM    C1413683   0.469   5.951   5.747
  128OSM   H14A13684   0.502   5.945   5.644
  128OSM   H14B13685   0.515   6.019   5.817
  128OSM   H14C13686   0.363   5.971   5.747
  128OSM    C1313687   0.397   5.795   5.922
  128OSM   H13A13688   0.311   5.745   5.878
  128OSM   H13B13689   0.366   5.889   5.966
  128OSM   H13C13690   0.433   5.741   6.008
  128OSM    C1213691   0.639   5.795   5.856
  128OSM   H12A13692   0.704   5.822   5.774
  128OSM   H12B13693   0.655   5.689   5.869
  128OSM    C1113694   0.688   5.874   5.977
  128OSM   H11A13695   0.654   5.975   5.949
  128OSM   H11B13696   0.799   5.880   5.970
  128OSM      P13697   0.673   5.668   6.138
  128OSM    O1313698   0.570   5.576   6.086
  128OSM    O1413699   0.810   5.634   6.109
  128OSM    O1113700   0.657   5.677   6.294
  128OSM    O1213701   0.635   5.817   6.094
  128OSM    C1S13702   0.652   5.551   6.362
  128OSM    H1S13703   0.742   5.491   6.337
  128OSM    H1T13704   0.557   5.495   6.351
  128OSM     NF13705   0.761   5.481   6.588
  128OSM    HNF13706   0.722   5.442   6.672
  128OSM    C2S13707   0.681   5.581   6.521
  128OSM    H2S13708   0.754   5.665   6.515
  128OSM    C3S13709   0.550   5.639   6.592
  128OSM    H3S13710   0.475   5.558   6.603
  128OSM     O313711   0.484   5.742   6.508
  128OSM    HO313712   0.533   5.722   6.427
  128OSM    C4S13713   0.572   5.694   6.735
  128OSM    H4S13714   0.553   5.631   6.823
  128OSM    C5S13715   0.611   5.826   6.760
  128OSM    H5S13716   0.613   5.891   6.671
  128OSM    C6S13717   0.648   5.900   6.884
  128OSM    H6S13718   0.563   5.970   6.903
  128OSM    H6T13719   0.733   5.968   6.860
  128OSM    C7S13720   0.688   5.819   7.005
  128OSM    H7S13721   0.779   5.756   6.988
  128OSM    H7T13722   0.601   5.754   7.029
  128OSM    C8S13723   0.703   5.897   7.133
  128OSM    H8S13724   0.615   5.962   7.146
  128OSM    H8T13725   0.786   5.969   7.116
  128OSM    C9S13726   0.725   5.808   7.251
  128OSM    H9S13727   0.811   5.744   7.222
  128OSM    H9T13728   0.643   5.734   7.263
  128OSM   C10S13729   0.759   5.870   7.387
  128OSM   H10S13730   0.694   5.960   7.396
  128OSM   H10T13731   0.859   5.918   7.379
  128OSM   C11S13732   0.737   5.779   7.508
  128OSM   H11S13733   0.790   5.681   7.506
  128OSM   H11T13734   0.629   5.751   7.505
  128OSM   C12S13735   0.768   5.854   7.645
  128OSM   H12S13736   0.728   5.957   7.654
  128OSM   H12T13737   0.878   5.863   7.643
  128OSM   C13S13738   0.726   5.769   7.761
  128OSM   H13S13739   0.807   5.696   7.782
  128OSM   H13T13740   0.634   5.708   7.756
  128OSM   C14S13741   0.719   5.858   7.884
  128OSM   H14S13742   0.644   5.931   7.846
  128OSM   H14T13743   0.811   5.916   7.904
  128OSM   C15S13744   0.661   5.788   8.008
  128OSM   H15S13745   0.690   5.681   8.019
  128OSM   H15T13746   0.550   5.778   8.001
  128OSM   C16S13747   0.717   5.865   8.130
  128OSM   H16S13748   0.652   5.867   8.220
  128OSM   H16T13749   0.721   5.973   8.104
  128OSM   C17S13750   0.852   5.821   8.185
  128OSM   H17S13751   0.875   5.888   8.270
  128OSM   H17T13752   0.931   5.829   8.106
  128OSM   C18S13753   0.850   5.683   8.253
  128OSM   H18S13754   0.841   5.615   8.166
  128OSM   H18T13755   0.764   5.678   8.323
  128OSM   H18U13756   0.947   5.662   8.303
  128OSM    C1F13757   0.866   5.415   6.544
  128OSM     OF13758   0.945   5.456   6.454
  128OSM    C2F13759   0.887   5.284   6.617
  128OSM    H2F13760   0.811   5.208   6.590
  128OSM    H2G13761   0.872   5.317   6.722
  128OSM    C3F13762   1.034   5.234   6.605
  128OSM    H3F13763   1.114   5.306   6.634
  128OSM    H3G13764   1.052   5.194   6.504
  128OSM    C4F13765   1.053   5.114   6.702
  128OSM    H4F13766   1.152   5.068   6.680
  128OSM    H4G13767   0.986   5.031   6.670
  128OSM    C5F13768   1.041   5.150   6.853
  128OSM    H5F13769   0.942   5.193   6.878
  128OSM    H5G13770   1.126   5.217   6.876
  128OSM    C6F13771   1.066   5.025   6.942
  128OSM    H6F13772   1.157   4.964   6.924
  128OSM    H6G13773   0.974   4.966   6.923
  128OSM    C7F13774   1.074   5.054   7.097
  128OSM    H7F13775   0.995   5.121   7.135
  128OSM    H7G13776   1.178   5.094   7.102
  128OSM    C8F13777   1.082   4.921   7.177
  128OSM    H8F13778   1.121   4.942   7.278
  128OSM    H8G13779   1.163   4.857   7.135
  128OSM    C9F13780   0.950   4.843   7.168
  128OSM    H9F13781   0.915   4.828   7.064
  128OSM   C10F13782   0.882   4.790   7.274
  128OSM   H10F13783   0.789   4.734   7.254
  128OSM   C11F13784   0.939   4.814   7.416
  128OSM   H11F13785   0.965   4.922   7.423
  128OSM   H11G13786   1.033   4.760   7.439
  128OSM   C12F13787   0.834   4.774   7.529
  128OSM   H12F13788   0.791   4.674   7.503
  128OSM   H12G13789   0.747   4.841   7.529
  128OSM   C13F13790   0.895   4.760   7.672
  128OSM   H13F13791   0.938   4.856   7.708
  128OSM   H13G13792   0.989   4.701   7.682
  128OSM   C14F13793   0.793   4.713   7.787
  128OSM   H14F13794   0.699   4.770   7.771
  128OSM   H14G13795   0.820   4.733   7.893
  128OSM   C15F13796   0.769   4.562   7.777
  128OSM   H15F13797   0.849   4.523   7.710
  128OSM   H15G13798   0.670   4.546   7.729
  128OSM   C16F13799   0.764   4.475   7.902
  128OSM   H16F13800   0.714   4.536   7.980
  128OSM   H16G13801   0.868   4.469   7.939
  128OSM   C17F13802   0.681   4.351   7.881
  128OSM   H17F13803   0.717   4.292   7.794
  128OSM   H17G13804   0.579   4.385   7.851
  128OSM   C18F13805   0.668   4.258   8.006
  128OSM   H18F13806   0.617   4.302   8.094
  128OSM   H18G13807   0.761   4.223   8.055
  128OSM   H18H13808   0.604   4.173   7.970
  129OSM      N13809   4.468   1.619   6.236
  129OSM    C1513810   4.524   1.494   6.263
  129OSM   H15A13811   4.472   1.424   6.200
  129OSM   H15B13812   4.508   1.470   6.367
  129OSM   H15C13813   4.631   1.498   6.249
  129OSM    C1413814   4.321   1.598   6.251
  129OSM   H14A13815   4.269   1.692   6.241
  129OSM   H14B13816   4.307   1.559   6.351
  129OSM   H14C13817   4.293   1.520   6.182
  129OSM    C1313818   4.505   1.707   6.353
  129OSM   H13A13819   4.509   1.648   6.443
  129OSM   H13B13820   4.429   1.782   6.367
  129OSM   H13C13821   4.598   1.758   6.335
  129OSM    C1213822   4.502   1.687   6.104
  129OSM   H12A13823   4.448   1.780   6.094
  129OSM   H12B13824   4.463   1.622   6.027
  129OSM    C1113825   4.649   1.717   6.065
  129OSM   H11A13826   4.666   1.759   5.964
  129OSM   H11B13827   4.707   1.622   6.055
  129OSM      P13828   4.861   1.788   6.208
  129OSM    O1313829   4.908   1.654   6.182
  129OSM    O1413830   4.949   1.896   6.159
  129OSM    O1113831   4.840   1.803   6.366
  129OSM    O1213832   4.710   1.805   6.153
  129OSM    C1S13833   4.828   1.932   6.425
  129OSM    H1S13834   4.739   1.990   6.393
  129OSM    H1T13835   4.925   1.984   6.410
  129OSM     NF13836   4.743   2.019   6.642
  129OSM    HNF13837   4.792   2.101   6.670
  129OSM    C2S13838   4.811   1.912   6.581
  129OSM    H2S13839   4.745   1.823   6.593
  129OSM    C3S13840   4.941   1.858   6.637
  129OSM    H3S13841   5.014   1.942   6.638
  129OSM     O313842   5.005   1.747   6.566
  129OSM    HO313843   4.961   1.749   6.480
  129OSM    C4S13844   4.928   1.824   6.783
  129OSM    H4S13845   4.918   1.715   6.795
  129OSM    C5S13846   4.956   1.908   6.884
  129OSM    H5S13847   4.995   2.010   6.878
  129OSM    C6S13848   4.943   1.862   7.031
  129OSM    H6S13849   4.948   1.752   7.049
  129OSM    H6T13850   4.842   1.898   7.059
  129OSM    C7S13851   5.044   1.906   7.129
  129OSM    H7S13852   5.040   2.017   7.128
  129OSM    H7T13853   5.147   1.877   7.101
  129OSM    C8S13854   5.006   1.860   7.268
  129OSM    H8S13855   4.968   1.755   7.264
  129OSM    H8T13856   4.924   1.931   7.290
  129OSM    C9S13857   5.122   1.866   7.369
  129OSM    H9S13858   5.166   1.968   7.378
  129OSM    H9T13859   5.207   1.809   7.326
  129OSM   C10S13860   5.095   1.814   7.515
  129OSM   H10S13861   5.191   1.812   7.571
  129OSM   H10T13862   5.046   1.715   7.523
  129OSM   C11S13863   4.996   1.914   7.592
  129OSM   H11S13864   4.892   1.899   7.556
  129OSM   H11T13865   5.026   2.021   7.579
  129OSM   C12S13866   5.000   1.876   7.745
  129OSM   H12S13867   5.101   1.856   7.787
  129OSM   H12T13868   4.940   1.783   7.753
  129OSM   C13S13869   4.938   1.986   7.820
  129OSM   H13S13870   4.840   2.013   7.775
  129OSM   H13T13871   4.994   2.080   7.807
  129OSM   C14S13872   4.930   1.956   7.964
  129OSM   H14S13873   4.886   1.853   7.968
  129OSM   H14T13874   4.851   2.022   8.006
  129OSM   C15S13875   5.060   1.958   8.046
  129OSM   H15S13876   5.143   1.947   7.974
  129OSM   H15T13877   5.060   1.858   8.095
  129OSM   C16S13878   5.080   2.068   8.155
  129OSM   H16S13879   4.997   2.141   8.156
  129OSM   H16T13880   5.173   2.126   8.135
  129OSM   C17S13881   5.103   2.020   8.300
  129OSM   H17S13882   5.194   1.957   8.298
  129OSM   H17T13883   5.022   1.947   8.322
  129OSM   C18S13884   5.124   2.138   8.391
  129OSM   H18S13885   5.156   2.099   8.490
  129OSM   H18T13886   5.036   2.205   8.396
  129OSM   H18U13887   5.206   2.203   8.354
  129OSM    C1F13888   4.621   2.055   6.630
  129OSM     OF13889   4.536   1.983   6.574
  129OSM    C2F13890   4.599   2.200   6.655
  129OSM    H2F13891   4.507   2.224   6.597
  129OSM    H2G13892   4.687   2.262   6.627
  129OSM    C3F13893   4.560   2.222   6.798
  129OSM    H3F13894   4.500   2.134   6.831
  129OSM    H3G13895   4.488   2.306   6.804
  129OSM    C4F13896   4.671   2.247   6.902
  129OSM    H4F13897   4.746   2.310   6.851
  129OSM    H4G13898   4.727   2.155   6.928
  129OSM    C5F13899   4.622   2.319   7.033
  129OSM    H5F13900   4.561   2.246   7.090
  129OSM    H5G13901   4.568   2.413   7.010
  129OSM    C6F13902   4.743   2.348   7.126
  129OSM    H6F13903   4.820   2.397   7.062
  129OSM    H6G13904   4.800   2.258   7.158
  129OSM    C7F13905   4.697   2.442   7.236
  129OSM    H7F13906   4.648   2.374   7.309
  129OSM    H7G13907   4.616   2.508   7.199
  129OSM    C8F13908   4.825   2.528   7.279
  129OSM    H8F13909   4.860   2.596   7.198
  129OSM    H8G13910   4.915   2.463   7.291
  129OSM    C9F13911   4.800   2.619   7.400
  129OSM    H9F13912   4.739   2.577   7.482
  129OSM   C10F13913   4.818   2.748   7.412
  129OSM   H10F13914   4.780   2.807   7.497
  129OSM   C11F13915   4.885   2.830   7.306
  129OSM   H11F13916   4.819   2.829   7.217
  129OSM   H11G13917   4.983   2.793   7.270
  129OSM   C12F13918   4.913   2.976   7.344
  129OSM   H12F13919   4.820   3.028   7.377
  129OSM   H12G13920   4.946   3.037   7.258
  129OSM   C13F13921   5.002   3.004   7.466
  129OSM   H13F13922   4.950   2.981   7.561
  129OSM   H13G13923   5.025   3.112   7.468
  129OSM   C14F13924   5.126   2.929   7.474
  129OSM   H14F13925   5.189   2.963   7.389
  129OSM   H14G13926   5.122   2.818   7.471
  129OSM   C15F13927   5.200   2.967   7.615
  129OSM   H15F13928   5.178   3.073   7.638
  129OSM   H15G13929   5.309   2.957   7.593
  129OSM   C16F13930   5.156   2.882   7.738
  129OSM   H16F13931   5.167   2.775   7.712
  129OSM   H16G13932   5.045   2.882   7.748
  129OSM   C17F13933   5.217   2.934   7.869
  129OSM   H17F13934   5.214   3.044   7.852
  129OSM   H17G13935   5.323   2.900   7.872
  129OSM   C18F13936   5.133   2.906   7.993
  129OSM   H18F13937   5.108   2.799   7.980
  129OSM   H18G13938   5.039   2.964   7.993
  129OSM   H18H13939   5.189   2.922   8.088
  130OSM      N13940   1.256   4.536   5.886
  130OSM    C1513941   1.113   4.564   5.858
  130OSM   H15A13942   1.055   4.478   5.885
  130OSM   H15B13943   1.104   4.589   5.753
  130OSM   H15C13944   1.067   4.649   5.906
  130OSM    C1413945   1.291   4.406   5.822
  130OSM   H14A13946   1.398   4.404   5.809
  130OSM   H14B13947   1.238   4.414   5.729
  130OSM   H14C13948   1.257   4.316   5.872
  130OSM    C1313949   1.346   4.636   5.821
  130OSM   H13A13950   1.333   4.649   5.715
  130OSM   H13B13951   1.447   4.624   5.855
  130OSM   H13C13952   1.329   4.733   5.864
  130OSM    C1213953   1.275   4.550   6.039
  130OSM   H12A13954   1.184   4.517   6.087
  130OSM   H12B13955   1.269   4.655   6.060
  130OSM    C1113956   1.405   4.501   6.100
  130OSM   H11A13957   1.415   4.392   6.083
  130OSM   H11B13958   1.386   4.494   6.209
  130OSM      P13959   1.535   4.720   6.106
  130OSM    O1313960   1.672   4.764   6.074
  130OSM    O1413961   1.422   4.804   6.064
  130OSM    O1113962   1.534   4.705   6.273
  130OSM    O1213963   1.523   4.572   6.060
  130OSM    C1S13964   1.426   4.750   6.354
  130OSM    H1S13965   1.335   4.710   6.306
  130OSM    H1T13966   1.426   4.861   6.368
  130OSM     NF13967   1.316   4.731   6.568
  130OSM    HNF13968   1.328   4.783   6.652
  130OSM    C2S13969   1.440   4.694   6.492
  130OSM    H2S13970   1.443   4.584   6.479
  130OSM    C3S13971   1.571   4.732   6.567
  130OSM    H3S13972   1.563   4.841   6.585
  130OSM     O313973   1.682   4.712   6.483
  130OSM    HO313974   1.650   4.684   6.397
  130OSM    C4S13975   1.591   4.659   6.697
  130OSM    H4S13976   1.572   4.720   6.787
  130OSM    C5S13977   1.651   4.536   6.712
  130OSM    H5S13978   1.681   4.473   6.627
  130OSM    C6S13979   1.690   4.476   6.839
  130OSM    H6S13980   1.796   4.444   6.838
  130OSM    H6T13981   1.647   4.373   6.846
  130OSM    C7S13982   1.674   4.558   6.969
  130OSM    H7S13983   1.573   4.604   6.972
  130OSM    H7T13984   1.741   4.647   6.975
  130OSM    C8S13985   1.667   4.468   7.096
  130OSM    H8S13986   1.766   4.417   7.101
  130OSM    H8T13987   1.585   4.395   7.085
  130OSM    C9S13988   1.651   4.545   7.226
  130OSM    H9S13989   1.563   4.613   7.220
  130OSM    H9T13990   1.739   4.609   7.250
  130OSM   C10S13991   1.646   4.453   7.349
  130OSM   H10S13992   1.729   4.378   7.353
  130OSM   H10T13993   1.544   4.410   7.348
  130OSM   C11S13994   1.657   4.527   7.484
  130OSM   H11S13995   1.563   4.587   7.481
  130OSM   H11T13996   1.747   4.592   7.477
  130OSM   C12S13997   1.643   4.441   7.602
  130OSM   H12S13998   1.719   4.361   7.603
  130OSM   H12T13999   1.543   4.391   7.607
  130OSM   C13S14000   1.647   4.516   7.732
  130OSM   H13S14001   1.590   4.611   7.717
  130OSM   H13T14002   1.754   4.536   7.756
  130OSM   C14S14003   1.603   4.429   7.856
  130OSM   H14S14004   1.658   4.333   7.870
  130OSM   H14T14005   1.499   4.398   7.829
  130OSM   C15S14006   1.609   4.508   7.982
  130OSM   H15S14007   1.516   4.568   7.993
  130OSM   H15T14008   1.700   4.572   7.977
  130OSM   C16S14009   1.627   4.411   8.102
  130OSM   H16S14010   1.727   4.365   8.095
  130OSM   H16T14011   1.564   4.323   8.079
  130OSM   C17S14012   1.610   4.462   8.244
  130OSM   H17S14013   1.525   4.531   8.267
  130OSM   H17T14014   1.692   4.536   8.257
  130OSM   C18S14015   1.625   4.348   8.348
  130OSM   H18S14016   1.677   4.381   8.440
  130OSM   H18T14017   1.672   4.262   8.295
  130OSM   H18U14018   1.526   4.316   8.386
  130OSM    C1F14019   1.195   4.691   6.535
  130OSM     OF14020   1.170   4.598   6.453
  130OSM    C2F14021   1.078   4.764   6.597
  130OSM    H2F14022   1.038   4.837   6.523
  130OSM    H2G14023   1.129   4.823   6.676
  130OSM    C3F14024   0.964   4.665   6.646
  130OSM    H3F14025   1.021   4.581   6.690
  130OSM    H3G14026   0.912   4.629   6.555
  130OSM    C4F14027   0.858   4.722   6.742
  130OSM    H4F14028   0.771   4.766   6.690
  130OSM    H4G14029   0.894   4.807   6.804
  130OSM    C5F14030   0.806   4.608   6.846
  130OSM    H5F14031   0.765   4.665   6.932
  130OSM    H5G14032   0.906   4.575   6.879
  130OSM    C6F14033   0.714   4.500   6.787
  130OSM    H6F14034   0.780   4.463   6.707
  130OSM    H6G14035   0.622   4.547   6.747
  130OSM    C7F14036   0.678   4.385   6.884
  130OSM    H7F14037   0.765   4.344   6.940
  130OSM    H7G14038   0.641   4.303   6.819
  130OSM    C8F14039   0.565   4.406   6.991
  130OSM    H8F14040   0.490   4.465   6.933
  130OSM    H8G14041   0.595   4.476   7.072
  130OSM    C9F14042   0.520   4.279   7.059
  130OSM    H9F14043   0.462   4.215   6.992
  130OSM   C10F14044   0.546   4.234   7.178
  130OSM   H10F14045   0.502   4.137   7.209
  130OSM   C11F14046   0.628   4.311   7.281
  130OSM   H11F14047   0.715   4.368   7.243
  130OSM   H11G14048   0.680   4.238   7.346
  130OSM   C12F14049   0.543   4.411   7.348
  130OSM   H12F14050   0.506   4.479   7.269
  130OSM   H12G14051   0.612   4.468   7.414
  130OSM   C13F14052   0.418   4.363   7.425
  130OSM   H13F14053   0.450   4.290   7.502
  130OSM   H13G14054   0.362   4.303   7.350
  130OSM   C14F14055   0.336   4.470   7.497
  130OSM   H14F14056   0.253   4.411   7.543
  130OSM   H14G14057   0.280   4.537   7.429
  130OSM   C15F14058   0.421   4.541   7.605
  130OSM   H15F14059   0.502   4.600   7.556
  130OSM   H15G14060   0.481   4.466   7.661
  130OSM   C16F14061   0.326   4.619   7.698
  130OSM   H16F14062   0.237   4.557   7.723
  130OSM   H16G14063   0.284   4.705   7.641
  130OSM   C17F14064   0.394   4.667   7.824
  130OSM   H17F14065   0.491   4.711   7.793
  130OSM   H17G14066   0.425   4.578   7.882
  130OSM   C18F14067   0.312   4.766   7.898
  130OSM   H18F14068   0.347   4.863   7.858
  130OSM   H18G14069   0.342   4.746   8.003
  130OSM   H18H14070   0.205   4.749   7.874
  131OSM      N14071   5.025   0.295   5.719
  131OSM    C1514072   4.902   0.205   5.696
  131OSM   H15A14073   4.854   0.238   5.605
  131OSM   H15B14074   4.846   0.199   5.788
  131OSM   H15C14075   4.932   0.106   5.666
  131OSM    C1414076   5.077   0.260   5.856
  131OSM   H14A14077   5.179   0.292   5.868
  131OSM   H14B14078   5.069   0.152   5.865
  131OSM   H14C14079   5.016   0.302   5.935
  131OSM    C1314080   5.116   0.256   5.610
  131OSM   H13A14081   5.201   0.320   5.627
  131OSM   H13B14082   5.084   0.265   5.507
  131OSM   H13C14083   5.146   0.152   5.620
  131OSM    C1214084   4.986   0.441   5.705
  131OSM   H12A14085   4.916   0.470   5.781
  131OSM   H12B14086   4.936   0.465   5.612
  131OSM    C1114087   5.100   0.551   5.722
  131OSM   H11A14088   5.064   0.644   5.672
  131OSM   H11B14089   5.190   0.522   5.663
  131OSM      P14090   5.033   0.645   5.956
  131OSM    O1314091   5.075   0.788   5.954
  131OSM    O1414092   4.895   0.622   5.922
  131OSM    O1114093   5.070   0.594   6.103
  131OSM    O1214094   5.134   0.573   5.859
  131OSM    C1S14095   5.211   0.604   6.130
  131OSM    H1S14096   5.258   0.694   6.086
  131OSM    H1T14097   5.271   0.525   6.079
  131OSM     NF14098   5.391   0.625   6.300
  131OSM    HNF14099   5.446   0.543   6.312
  131OSM    C2S14100   5.246   0.611   6.287
  131OSM    H2S14101   5.196   0.704   6.319
  131OSM    C3S14102   5.193   0.483   6.354
  131OSM    H3S14103   5.254   0.394   6.326
  131OSM     O314104   5.053   0.455   6.325
  131OSM    HO314105   5.029   0.510   6.249
  131OSM    C4S14106   5.203   0.491   6.505
  131OSM    H4S14107   5.123   0.558   6.540
  131OSM    C5S14108   5.268   0.410   6.598
  131OSM    H5S14109   5.338   0.334   6.561
  131OSM    C6S14110   5.258   0.416   6.754
  131OSM    H6S14111   5.361   0.409   6.795
  131OSM    H6T14112   5.214   0.321   6.791
  131OSM    C7S14113   5.203   0.537   6.816
  131OSM    H7S14114   5.102   0.559   6.775
  131OSM    H7T14115   5.266   0.623   6.785
  131OSM    C8S14116   5.184   0.532   6.971
  131OSM    H8S14117   5.156   0.635   7.002
  131OSM    H8T14118   5.283   0.531   7.020
  131OSM    C9S14119   5.072   0.442   7.025
  131OSM    H9S14120   5.100   0.335   7.018
  131OSM    H9T14121   4.989   0.455   6.952
  131OSM   C10S14122   5.040   0.456   7.170
  131OSM   H10S14123   4.963   0.381   7.197
  131OSM   H10T14124   5.011   0.561   7.193
  131OSM   C11S14125   5.156   0.420   7.259
  131OSM   H11S14126   5.250   0.458   7.215
  131OSM   H11T14127   5.170   0.310   7.271
  131OSM   C12S14128   5.136   0.482   7.401
  131OSM   H12S14129   5.091   0.584   7.401
  131OSM   H12T14130   5.238   0.514   7.429
  131OSM   C13S14131   5.059   0.395   7.504
  131OSM   H13S14132   5.092   0.291   7.483
  131OSM   H13T14133   4.953   0.408   7.474
  131OSM   C14S14134   5.096   0.428   7.653
  131OSM   H14S14135   5.206   0.419   7.666
  131OSM   H14T14136   5.048   0.354   7.720
  131OSM   C15S14137   5.040   0.567   7.681
  131OSM   H15S14138   4.929   0.561   7.681
  131OSM   H15T14139   5.082   0.635   7.604
  131OSM   C16S14140   5.083   0.629   7.815
  131OSM   H16S14141   5.194   0.618   7.815
  131OSM   H16T14142   5.053   0.561   7.897
  131OSM   C17S14143   5.042   0.776   7.840
  131OSM   H17S14144   4.933   0.773   7.857
  131OSM   H17T14145   5.077   0.828   7.748
  131OSM   C18S14146   5.114   0.830   7.959
  131OSM   H18S14147   5.098   0.935   7.990
  131OSM   H18T14148   5.224   0.816   7.956
  131OSM   H18U14149   5.086   0.776   8.053
  131OSM    C1F14150   5.452   0.736   6.287
  131OSM     OF14151   5.390   0.840   6.256
  131OSM    C2F14152   5.594   0.727   6.332
  131OSM    H2F14153   5.649   0.769   6.245
  131OSM    H2G14154   5.617   0.621   6.353
  131OSM    C3F14155   5.620   0.833   6.443
  131OSM    H3F14156   5.618   0.934   6.396
  131OSM    H3G14157   5.724   0.819   6.479
  131OSM    C4F14158   5.529   0.821   6.565
  131OSM    H4F14159   5.538   0.719   6.608
  131OSM    H4G14160   5.423   0.836   6.536
  131OSM    C5F14161   5.569   0.921   6.672
  131OSM    H5F14162   5.539   1.024   6.643
  131OSM    H5G14163   5.680   0.922   6.682
  131OSM    C6F14164   5.506   0.875   6.802
  131OSM    H6F14165   5.560   0.789   6.848
  131OSM    H6G14166   5.397   0.859   6.788
  131OSM    C7F14167   5.506   0.990   6.902
  131OSM    H7F14168   5.437   1.073   6.874
  131OSM    H7G14169   5.601   1.048   6.906
  131OSM    C8F14170   5.461   0.934   7.042
  131OSM    H8F14171   5.551   0.889   7.089
  131OSM    H8G14172   5.383   0.856   7.032
  131OSM    C9F14173   5.403   1.036   7.146
  131OSM    H9F14174   5.485   1.085   7.200
  131OSM   C10F14175   5.268   1.055   7.182
  131OSM   H10F14176   5.241   1.121   7.266
  131OSM   C11F14177   5.142   0.993   7.128
  131OSM   H11F14178   5.173   0.925   7.046
  131OSM   H11G14179   5.076   1.070   7.083
  131OSM   C12F14180   5.063   0.910   7.224
  131OSM   H12F14181   5.129   0.832   7.268
  131OSM   H12G14182   4.978   0.861   7.173
  131OSM   C13F14183   5.011   1.001   7.339
  131OSM   H13F14184   4.962   1.087   7.290
  131OSM   H13G14185   5.096   1.033   7.403
  131OSM   C14F14186   4.913   0.927   7.434
  131OSM   H14F14187   4.956   0.833   7.474
  131OSM   H14G14188   4.830   0.899   7.364
  131OSM   C15F14189   4.869   1.004   7.549
  131OSM   H15F14190   4.826   1.101   7.517
  131OSM   H15G14191   4.947   1.034   7.623
  131OSM   C16F14192   4.754   0.938   7.631
  131OSM   H16F14193   4.797   0.844   7.674
  131OSM   H16G14194   4.666   0.907   7.572
  131OSM   C17F14195   4.704   1.020   7.751
  131OSM   H17F14196   4.641   1.099   7.708
  131OSM   H17G14197   4.786   1.062   7.814
  131OSM   C18F14198   4.615   0.936   7.847
  131OSM   H18F14199   4.562   0.984   7.931
  131OSM   H18G14200   4.685   0.863   7.893
  131OSM   H18H14201   4.546   0.877   7.784
  132OSM      N14202   0.396   1.689   6.000
  132OSM    C1514203   0.376   1.576   5.902
  132OSM   H15A14204   0.472   1.534   5.875
  132OSM   H15B14205   0.334   1.622   5.814
  132OSM   H15C14206   0.303   1.508   5.943
  132OSM    C1414207   0.504   1.783   5.949
  132OSM   H14A14208   0.601   1.736   5.950
  132OSM   H14B14209   0.499   1.869   6.014
  132OSM   H14C14210   0.489   1.820   5.848
  132OSM    C1314211   0.271   1.767   5.998
  132OSM   H13A14212   0.189   1.720   6.050
  132OSM   H13B14213   0.240   1.797   5.899
  132OSM   H13C14214   0.300   1.854   6.056
  132OSM    C1214215   0.432   1.645   6.137
  132OSM   H12A14216   0.501   1.564   6.116
  132OSM   H12B14217   0.341   1.597   6.170
  132OSM    C1114218   0.466   1.745   6.248
  132OSM   H11A14219   0.560   1.799   6.222
  132OSM   H11B14220   0.487   1.681   6.337
  132OSM      P14221   0.389   1.992   6.273
  132OSM    O1314222   0.473   2.038   6.159
  132OSM    O1414223   0.254   2.051   6.272
  132OSM    O1114224   0.455   2.019   6.409
  132OSM    O1214225   0.354   1.836   6.269
  132OSM    C1S14226   0.402   1.946   6.522
  132OSM    H1S14227   0.429   1.840   6.506
  132OSM    H1T14228   0.292   1.957   6.534
  132OSM     NF14229   0.444   1.914   6.771
  132OSM    HNF14230   0.381   1.949   6.840
  132OSM    C2S14231   0.461   2.006   6.654
  132OSM    H2S14232   0.571   2.010   6.639
  132OSM    C3S14233   0.402   2.149   6.682
  132OSM    H3S14234   0.301   2.140   6.725
  132OSM     O314235   0.381   2.231   6.566
  132OSM    HO314236   0.408   2.174   6.494
  132OSM    C4S14237   0.480   2.230   6.779
  132OSM    H4S14238   0.426   2.227   6.875
  132OSM    C5S14239   0.585   2.309   6.759
  132OSM    H5S14240   0.640   2.306   6.664
  132OSM    C6S14241   0.650   2.393   6.862
  132OSM    H6S14242   0.655   2.502   6.839
  132OSM    H6T14243   0.756   2.366   6.880
  132OSM    C7S14244   0.590   2.380   7.000
  132OSM    H7S14245   0.598   2.275   7.036
  132OSM    H7T14246   0.486   2.418   6.992
  132OSM    C8S14247   0.651   2.478   7.100
  132OSM    H8S14248   0.625   2.583   7.075
  132OSM    H8T14249   0.760   2.460   7.083
  132OSM    C9S14250   0.602   2.454   7.243
  132OSM    H9S14251   0.623   2.347   7.265
  132OSM    H9T14252   0.495   2.480   7.258
  132OSM   C10S14253   0.668   2.534   7.347
  132OSM   H10S14254   0.604   2.620   7.375
  132OSM   H10T14255   0.765   2.572   7.309
  132OSM   C11S14256   0.698   2.466   7.475
  132OSM   H11S14257   0.774   2.386   7.464
  132OSM   H11T14258   0.608   2.432   7.531
  132OSM   C12S14259   0.756   2.570   7.576
  132OSM   H12S14260   0.672   2.639   7.602
  132OSM   H12T14261   0.842   2.620   7.526
  132OSM   C13S14262   0.813   2.499   7.704
  132OSM   H13S14263   0.858   2.573   7.774
  132OSM   H13T14264   0.896   2.427   7.687
  132OSM   C14S14265   0.695   2.431   7.773
  132OSM   H14S14266   0.677   2.337   7.717
  132OSM   H14T14267   0.597   2.483   7.781
  132OSM   C15S14268   0.708   2.408   7.919
  132OSM   H15S14269   0.801   2.367   7.963
  132OSM   H15T14270   0.635   2.328   7.944
  132OSM   C16S14271   0.665   2.524   8.009
  132OSM   H16S14272   0.558   2.542   7.985
  132OSM   H16T14273   0.725   2.616   7.992
  132OSM   C17S14274   0.662   2.481   8.156
  132OSM   H17S14275   0.769   2.460   8.178
  132OSM   H17T14276   0.596   2.393   8.171
  132OSM   C18S14277   0.598   2.591   8.247
  132OSM   H18S14278   0.663   2.680   8.251
  132OSM   H18T14279   0.595   2.548   8.349
  132OSM   H18U14280   0.498   2.623   8.208
  132OSM    C1F14281   0.514   1.802   6.780
  132OSM     OF14282   0.582   1.762   6.687
  132OSM    C2F14283   0.487   1.714   6.897
  132OSM    H2F14284   0.484   1.607   6.865
  132OSM    H2G14285   0.387   1.733   6.940
  132OSM    C3F14286   0.584   1.722   7.018
  132OSM    H3F14287   0.581   1.828   7.054
  132OSM    H3G14288   0.686   1.693   6.987
  132OSM    C4F14289   0.536   1.628   7.130
  132OSM    H4F14290   0.598   1.536   7.130
  132OSM    H4G14291   0.427   1.604   7.124
  132OSM    C5F14292   0.576   1.690   7.264
  132OSM    H5F14293   0.521   1.779   7.302
  132OSM    H5G14294   0.680   1.714   7.236
  132OSM    C6F14295   0.581   1.582   7.379
  132OSM    H6F14296   0.690   1.579   7.398
  132OSM    H6G14297   0.547   1.485   7.336
  132OSM    C7F14298   0.500   1.617   7.496
  132OSM    H7F14299   0.398   1.630   7.452
  132OSM    H7G14300   0.528   1.719   7.530
  132OSM    C8F14301   0.519   1.525   7.615
  132OSM    H8F14302   0.611   1.544   7.674
  132OSM    H8G14303   0.524   1.423   7.573
  132OSM    C9F14304   0.408   1.528   7.717
  132OSM    H9F14305   0.307   1.512   7.677
  132OSM   C10F14306   0.429   1.521   7.852
  132OSM   H10F14307   0.347   1.524   7.925
  132OSM   C11F14308   0.557   1.510   7.933
  132OSM   H11F14309   0.548   1.538   8.040
  132OSM   H11G14310   0.629   1.584   7.892
  132OSM   C12F14311   0.606   1.367   7.934
  132OSM   H12F14312   0.691   1.353   8.004
  132OSM   H12G14313   0.636   1.331   7.833
  132OSM   C13F14314   0.505   1.266   7.990
  132OSM   H13F14315   0.410   1.267   7.933
  132OSM   H13G14316   0.491   1.306   8.092
  132OSM   C14F14317   0.555   1.123   7.988
  132OSM   H14F14318   0.656   1.111   8.033
  132OSM   H14G14319   0.556   1.076   7.887
  132OSM   C15F14320   0.466   1.025   8.063
  132OSM   H15F14321   0.361   1.033   8.027
  132OSM   H15G14322   0.457   1.067   8.165
  132OSM   C16F14323   0.509   0.873   8.066
  132OSM   H16F14324   0.602   0.861   8.125
  132OSM   H16G14325   0.527   0.839   7.962
  132OSM   C17F14326   0.402   0.787   8.130
  132OSM   H17F14327   0.365   0.840   8.220
  132OSM   H17G14328   0.448   0.690   8.161
  132OSM   C18F14329   0.277   0.755   8.042
  132OSM   H18F14330   0.212   0.684   8.097
  132OSM   H18G14331   0.308   0.708   7.946
  132OSM   H18H14332   0.212   0.844   8.026
  133OSM      N14333   0.957   2.197   5.968
  133OSM    C1514334   1.086   2.132   5.930
  133OSM   H15A14335   1.075   2.053   5.857
  133OSM   H15B14336   1.140   2.087   6.013
  133OSM   H15C14337   1.144   2.218   5.898
  133OSM    C1414338   0.984   2.305   6.063
  133OSM   H14A14339   1.034   2.273   6.153
  133OSM   H14B14340   0.888   2.344   6.094
  133OSM   H14C14341   1.044   2.379   6.013
  133OSM    C1314342   0.895   2.256   5.838
  133OSM   H13A14343   0.883   2.189   5.754
  133OSM   H13B14344   0.952   2.341   5.803
  133OSM   H13C14345   0.795   2.293   5.853
  133OSM    C1214346   0.862   2.091   6.025
  133OSM   H12A14347   0.856   2.015   5.949
  133OSM   H12B14348   0.767   2.143   6.025
  133OSM    C1114349   0.889   2.040   6.165
  133OSM   H11A14350   0.798   1.979   6.180
  133OSM   H11B14351   0.875   2.124   6.236
  133OSM      P14352   1.033   1.821   6.162
  133OSM    O1314353   0.916   1.764   6.090
  133OSM    O1414354   1.167   1.781   6.113
  133OSM    O1114355   1.024   1.789   6.315
  133OSM    O1214356   1.019   1.979   6.175
  133OSM    C1S14357   0.922   1.724   6.388
  133OSM    H1S14358   0.919   1.613   6.377
  133OSM    H1T14359   0.825   1.757   6.344
  133OSM     NF14360   0.854   1.692   6.624
  133OSM    HNF14361   0.759   1.719   6.638
  133OSM    C2S14362   0.934   1.774   6.539
  133OSM    H2S14363   1.041   1.757   6.564
  133OSM    C3S14364   0.883   1.918   6.550
  133OSM    H3S14365   0.790   1.933   6.492
  133OSM     O314366   0.972   2.004   6.473
  133OSM    HO314367   1.007   1.948   6.403
  133OSM    C4S14368   0.862   1.970   6.690
  133OSM    H4S14369   0.768   1.937   6.737
  133OSM    C5S14370   0.943   2.054   6.761
  133OSM    H5S14371   1.043   2.072   6.721
  133OSM    C6S14372   0.933   2.104   6.898
  133OSM    H6S14373   0.932   2.215   6.895
  133OSM    H6T14374   1.023   2.080   6.959
  133OSM    C7S14375   0.810   2.055   6.970
  133OSM    H7S14376   0.808   1.944   6.979
  133OSM    H7T14377   0.714   2.075   6.917
  133OSM    C8S14378   0.809   2.100   7.117
  133OSM    H8S14379   0.787   2.209   7.127
  133OSM    H8T14380   0.910   2.094   7.163
  133OSM    C9S14381   0.714   2.021   7.204
  133OSM    H9S14382   0.741   1.916   7.179
  133OSM    H9T14383   0.608   2.049   7.184
  133OSM   C10S14384   0.745   2.036   7.354
  133OSM   H10S14385   0.768   2.143   7.374
  133OSM   H10T14386   0.842   1.990   7.383
  133OSM   C11S14387   0.632   1.986   7.439
  133OSM   H11S14388   0.647   1.877   7.455
  133OSM   H11T14389   0.534   1.996   7.387
  133OSM   C12S14390   0.642   2.052   7.570
  133OSM   H12S14391   0.601   2.155   7.556
  133OSM   H12T14392   0.749   2.065   7.594
  133OSM   C13S14393   0.577   1.969   7.686
  133OSM   H13S14394   0.622   1.868   7.699
  133OSM   H13T14395   0.470   1.949   7.667
  133OSM   C14S14396   0.583   2.051   7.820
  133OSM   H14S14397   0.538   2.148   7.792
  133OSM   H14T14398   0.681   2.066   7.870
  133OSM   C15S14399   0.501   1.984   7.932
  133OSM   H15S14400   0.539   1.880   7.938
  133OSM   H15T14401   0.399   1.977   7.888
  133OSM   C16S14402   0.517   2.042   8.079
  133OSM   H16S14403   0.496   2.151   8.080
  133OSM   H16T14404   0.623   2.022   8.107
  133OSM   C17S14405   0.423   1.986   8.174
  133OSM   H17S14406   0.322   2.015   8.138
  133OSM   H17T14407   0.446   2.036   8.270
  133OSM   C18S14408   0.408   1.831   8.192
  133OSM   H18S14409   0.507   1.794   8.226
  133OSM   H18T14410   0.373   1.774   8.104
  133OSM   H18U14411   0.345   1.814   8.282
  133OSM    C1F14412   0.901   1.571   6.662
  133OSM     OF14413   1.021   1.542   6.647
  133OSM    C2F14414   0.798   1.465   6.721
  133OSM    H2F14415   0.805   1.373   6.660
  133OSM    H2G14416   0.696   1.507   6.706
  133OSM    C3F14417   0.827   1.413   6.858
  133OSM    H3F14418   0.845   1.502   6.921
  133OSM    H3G14419   0.919   1.351   6.855
  133OSM    C4F14420   0.712   1.328   6.905
  133OSM    H4F14421   0.688   1.246   6.834
  133OSM    H4G14422   0.623   1.392   6.922
  133OSM    C5F14423   0.765   1.255   7.030
  133OSM    H5F14424   0.804   1.328   7.104
  133OSM    H5G14425   0.854   1.193   7.004
  133OSM    C6F14426   0.652   1.161   7.084
  133OSM    H6F14427   0.615   1.097   7.001
  133OSM    H6G14428   0.569   1.225   7.121
  133OSM    C7F14429   0.705   1.070   7.193
  133OSM    H7F14430   0.770   0.991   7.150
  133OSM    H7G14431   0.616   1.013   7.229
  133OSM    C8F14432   0.753   1.131   7.325
  133OSM    H8F14433   0.679   1.201   7.369
  133OSM    H8G14434   0.847   1.187   7.311
  133OSM    C9F14435   0.772   1.016   7.421
  133OSM    H9F14436   0.872   0.971   7.416
  133OSM   C10F14437   0.681   0.975   7.508
  133OSM   H10F14438   0.718   0.896   7.576
  133OSM   C11F14439   0.543   1.039   7.527
  133OSM   H11F14440   0.489   1.092   7.445
  133OSM   H11G14441   0.557   1.119   7.602
  133OSM   C12F14442   0.446   0.940   7.602
  133OSM   H12F14443   0.362   0.999   7.644
  133OSM   H12G14444   0.497   0.905   7.694
  133OSM   C13F14445   0.392   0.835   7.505
  133OSM   H13F14446   0.477   0.788   7.450
  133OSM   H13G14447   0.327   0.888   7.431
  133OSM   C14F14448   0.303   0.726   7.572
  133OSM   H14F14449   0.212   0.777   7.611
  133OSM   H14G14450   0.366   0.691   7.657
  133OSM   C15F14451   0.256   0.614   7.479
  133OSM   H15F14452   0.341   0.569   7.425
  133OSM   H15G14453   0.195   0.661   7.399
  133OSM   C16F14454   0.167   0.515   7.541
  133OSM   H16F14455   0.071   0.541   7.592
  133OSM   H16G14456   0.236   0.462   7.611
  133OSM   C17F14457   0.105   0.414   7.442
  133OSM   H17F14458   0.068   0.340   7.516
  133OSM   H17G14459   0.185   0.360   7.387
  133OSM   C18F14460   0.004   0.460   7.335
  133OSM   H18F14461  -0.035   0.367   7.288
  133OSM   H18G14462   0.036   0.534   7.259
  133OSM   H18H14463  -0.083   0.499   7.392
  134OSM      N14464   1.716   5.603   6.494
  134OSM    C1514465   1.577   5.569   6.470
  134OSM   H15A14466   1.571   5.462   6.456
  134OSM   H15B14467   1.553   5.614   6.375
  134OSM   H15C14468   1.518   5.583   6.559
  134OSM    C1414469   1.793   5.558   6.373
  134OSM   H14A14470   1.791   5.450   6.368
  134OSM   H14B14471   1.897   5.585   6.367
  134OSM   H14C14472   1.741   5.592   6.284
  134OSM    C1314473   1.737   5.754   6.503
  134OSM   H13A14474   1.675   5.801   6.579
  134OSM   H13B14475   1.713   5.800   6.409
  134OSM   H13C14476   1.838   5.773   6.536
  134OSM    C1214477   1.774   5.534   6.621
  134OSM   H12A14478   1.709   5.573   6.697
  134OSM   H12B14479   1.869   5.583   6.634
  134OSM    C1114480   1.794   5.385   6.624
  134OSM   H11A14481   1.700   5.336   6.590
  134OSM   H11B14482   1.834   5.349   6.722
  134OSM      P14483   1.976   5.227   6.514
  134OSM    O1314484   1.972   5.180   6.373
  134OSM    O1414485   2.114   5.245   6.573
  134OSM    O1114486   1.903   5.120   6.602
  134OSM    O1214487   1.899   5.360   6.529
  134OSM    C1S14488   1.950   5.094   6.735
  134OSM    H1S14489   1.884   5.159   6.796
  134OSM    H1T14490   2.053   5.120   6.766
  134OSM     NF14491   1.970   4.908   6.907
  134OSM    HNF14492   2.063   4.878   6.922
  134OSM    C2S14493   1.937   4.939   6.768
  134OSM    H2S14494   1.831   4.907   6.756
  134OSM    C3S14495   2.023   4.861   6.664
  134OSM    H3S14496   2.121   4.914   6.658
  134OSM     O314497   1.969   4.870   6.528
  134OSM    HO314498   1.897   4.932   6.536
  134OSM    C4S14499   2.033   4.711   6.692
  134OSM    H4S14500   1.950   4.649   6.656
  134OSM    C5S14501   2.138   4.640   6.732
  134OSM    H5S14502   2.229   4.698   6.755
  134OSM    C6S14503   2.152   4.494   6.747
  134OSM    H6S14504   2.223   4.456   6.670
  134OSM    H6T14505   2.062   4.434   6.723
  134OSM    C7S14506   2.200   4.457   6.881
  134OSM    H7S14507   2.294   4.516   6.886
  134OSM    H7T14508   2.229   4.351   6.869
  134OSM    C8S14509   2.094   4.480   6.995
  134OSM    H8S14510   1.997   4.429   6.976
  134OSM    H8T14511   2.067   4.587   7.010
  134OSM    C9S14512   2.154   4.425   7.128
  134OSM    H9S14513   2.261   4.451   7.142
  134OSM    H9T14514   2.156   4.314   7.121
  134OSM   C10S14515   2.071   4.473   7.247
  134OSM   H10S14516   1.970   4.430   7.229
  134OSM   H10T14517   2.065   4.584   7.252
  134OSM   C11S14518   2.123   4.436   7.390
  134OSM   H11S14519   2.225   4.481   7.389
  134OSM   H11T14520   2.119   4.326   7.401
  134OSM   C12S14521   2.056   4.487   7.514
  134OSM   H12S14522   1.949   4.458   7.512
  134OSM   H12T14523   2.060   4.598   7.509
  134OSM   C13S14524   2.125   4.428   7.642
  134OSM   H13S14525   2.233   4.452   7.636
  134OSM   H13T14526   2.129   4.317   7.643
  134OSM   C14S14527   2.063   4.476   7.769
  134OSM   H14S14528   1.955   4.478   7.744
  134OSM   H14T14529   2.088   4.582   7.792
  134OSM   C15S14530   2.103   4.390   7.888
  134OSM   H15S14531   2.214   4.398   7.891
  134OSM   H15T14532   2.092   4.281   7.869
  134OSM   C16S14533   2.037   4.445   8.017
  134OSM   H16S14534   1.926   4.438   8.018
  134OSM   H16T14535   2.063   4.552   8.027
  134OSM   C17S14536   2.078   4.385   8.158
  134OSM   H17S14537   2.184   4.355   8.175
  134OSM   H17T14538   2.027   4.286   8.161
  134OSM   C18S14539   2.021   4.468   8.280
  134OSM   H18S14540   2.047   4.413   8.373
  134OSM   H18T14541   1.913   4.488   8.262
  134OSM   H18U14542   2.068   4.568   8.284
  134OSM    C1F14543   1.894   4.935   7.014
  134OSM     OF14544   1.791   4.999   6.997
  134OSM    C2F14545   1.949   4.903   7.152
  134OSM    H2F14546   2.053   4.942   7.162
  134OSM    H2G14547   1.964   4.793   7.165
  134OSM    C3F14548   1.862   4.961   7.258
  134OSM    H3F14549   1.756   4.949   7.228
  134OSM    H3G14550   1.885   5.067   7.278
  134OSM    C4F14551   1.871   4.895   7.401
  134OSM    H4F14552   1.979   4.876   7.414
  134OSM    H4G14553   1.829   4.792   7.402
  134OSM    C5F14554   1.810   4.982   7.516
  134OSM    H5F14555   1.699   4.980   7.509
  134OSM    H5G14556   1.840   5.087   7.496
  134OSM    C6F14557   1.861   4.938   7.655
  134OSM    H6F14558   1.971   4.944   7.668
  134OSM    H6G14559   1.840   4.832   7.682
  134OSM    C7F14560   1.792   5.017   7.772
  134OSM    H7F14561   1.684   4.993   7.761
  134OSM    H7G14562   1.801   5.127   7.766
  134OSM    C8F14563   1.837   4.956   7.909
  134OSM    H8F14564   1.819   4.846   7.917
  134OSM    H8G14565   1.774   5.002   7.988
  134OSM    C9F14566   1.979   4.966   7.946
  134OSM    H9F14567   2.048   5.032   7.891
  134OSM   C10F14568   2.049   4.907   8.045
  134OSM   H10F14569   2.157   4.911   8.025
  134OSM   C11F14570   2.001   4.807   8.146
  134OSM   H11F14571   2.093   4.778   8.201
  134OSM   H11G14572   1.949   4.727   8.091
  134OSM   C12F14573   1.904   4.876   8.241
  134OSM   H12F14574   1.816   4.924   8.194
  134OSM   H12G14575   1.965   4.954   8.291
  134OSM   C13F14576   1.859   4.778   8.351
  134OSM   H13F14577   1.961   4.737   8.367
  134OSM   H13G14578   1.800   4.700   8.300
  134OSM   C14F14579   1.777   4.838   8.465
  134OSM   H14F14580   1.808   4.943   8.485
  134OSM   H14G14581   1.797   4.781   8.558
  134OSM   C15F14582   1.621   4.843   8.451
  134OSM   H15F14583   1.564   4.753   8.483
  134OSM   H15G14584   1.596   4.862   8.344
  134OSM   C16F14585   1.558   4.956   8.533
  134OSM   H16F14586   1.458   4.978   8.490
  134OSM   H16G14587   1.626   5.045   8.535
  134OSM   C17F14588   1.533   4.924   8.682
  134OSM   H17F14589   1.449   4.853   8.690
  134OSM   H17G14590   1.496   5.014   8.737
  134OSM   C18F14591   1.645   4.865   8.764
  134OSM   H18F14592   1.611   4.865   8.870
  134OSM   H18G14593   1.727   4.940   8.762
  134OSM   H18H14594   1.677   4.765   8.728
  135OSM      N14595   1.654   5.117   6.146
  135OSM    C1514596   1.639   5.259   6.173
  135OSM   H15A14597   1.691   5.280   6.265
  135OSM   H15B14598   1.538   5.282   6.206
  135OSM   H15C14599   1.669   5.323   6.091
  135OSM    C1414600   1.582   5.091   6.013
  135OSM   H14A14601   1.603   5.171   5.944
  135OSM   H14B14602   1.477   5.067   6.018
  135OSM   H14C14603   1.623   5.001   5.971
  135OSM    C1314604   1.799   5.094   6.129
  135OSM   H13A14605   1.835   5.155   6.047
  135OSM   H13B14606   1.821   4.989   6.116
  135OSM   H13C14607   1.851   5.136   6.214
  135OSM    C1214608   1.598   5.034   6.258
  135OSM   H12A14609   1.635   4.933   6.249
  135OSM   H12B14610   1.492   5.036   6.239
  135OSM    C1114611   1.633   5.081   6.395
  135OSM   H11A14612   1.742   5.101   6.393
  135OSM   H11B14613   1.627   4.998   6.469
  135OSM      P14614   1.405   5.195   6.478
  135OSM    O1314615   1.356   5.325   6.533
  135OSM    O1414616   1.330   5.129   6.367
  135OSM    O1114617   1.422   5.098   6.609
  135OSM    O1214618   1.556   5.201   6.434
  135OSM    C1S14619   1.522   5.148   6.707
  135OSM    H1S14620   1.530   5.259   6.705
  135OSM    H1T14621   1.620   5.099   6.692
  135OSM     NF14622   1.566   5.187   6.951
  135OSM    HNF14623   1.640   5.128   6.982
  135OSM    C2S14624   1.481   5.119   6.855
  135OSM    H2S14625   1.377   5.156   6.861
  135OSM    C3S14626   1.458   4.965   6.880
  135OSM    H3S14627   1.558   4.925   6.851
  135OSM     O314628   1.373   4.887   6.797
  135OSM    HO314629   1.345   4.960   6.741
  135OSM    C4S14630   1.426   4.925   7.014
  135OSM    H4S14631   1.320   4.941   7.039
  135OSM    C5S14632   1.507   4.876   7.113
  135OSM    H5S14633   1.613   4.855   7.099
  135OSM    C6S14634   1.454   4.864   7.253
  135OSM    H6S14635   1.537   4.807   7.301
  135OSM    H6T14636   1.359   4.806   7.251
  135OSM    C7S14637   1.414   4.990   7.335
  135OSM    H7S14638   1.347   5.055   7.274
  135OSM    H7T14639   1.507   5.045   7.362
  135OSM    C8S14640   1.346   4.956   7.466
  135OSM    H8S14641   1.257   4.893   7.443
  135OSM    H8T14642   1.301   5.048   7.509
  135OSM    C9S14643   1.443   4.883   7.563
  135OSM    H9S14644   1.529   4.941   7.602
  135OSM    H9T14645   1.494   4.796   7.516
  135OSM   C10S14646   1.376   4.815   7.687
  135OSM   H10S14647   1.449   4.742   7.728
  135OSM   H10T14648   1.290   4.761   7.642
  135OSM   C11S14649   1.330   4.908   7.799
  135OSM   H11S14650   1.244   4.974   7.773
  135OSM   H11T14651   1.416   4.973   7.826
  135OSM   C12S14652   1.289   4.813   7.922
  135OSM   H12S14653   1.286   4.881   8.010
  135OSM   H12T14654   1.361   4.730   7.937
  135OSM   C13S14655   1.156   4.750   7.895
  135OSM   H13S14656   1.165   4.693   7.799
  135OSM   H13T14657   1.080   4.825   7.866
  135OSM   C14S14658   1.102   4.668   8.009
  135OSM   H14S14659   1.175   4.588   8.034
  135OSM   H14T14660   1.007   4.617   7.982
  135OSM   C15S14661   1.055   4.761   8.130
  135OSM   H15S14662   0.966   4.819   8.099
  135OSM   H15T14663   1.133   4.837   8.151
  135OSM   C16S14664   1.024   4.680   8.261
  135OSM   H16S14665   0.947   4.605   8.234
  135OSM   H16T14666   0.974   4.738   8.341
  135OSM   C17S14667   1.146   4.606   8.317
  135OSM   H17S14668   1.221   4.681   8.350
  135OSM   H17T14669   1.199   4.532   8.254
  135OSM   C18S14670   1.104   4.535   8.448
  135OSM   H18S14671   1.197   4.495   8.494
  135OSM   H18T14672   1.038   4.448   8.425
  135OSM   H18U14673   1.057   4.599   8.525
  135OSM    C1F14674   1.566   5.314   6.981
  135OSM     OF14675   1.491   5.396   6.929
  135OSM    C2F14676   1.678   5.367   7.065
  135OSM    H2F14677   1.699   5.467   7.019
  135OSM    H2G14678   1.768   5.303   7.071
  135OSM    C3F14679   1.609   5.381   7.201
  135OSM    H3F14680   1.572   5.284   7.241
  135OSM    H3G14681   1.530   5.458   7.190
  135OSM    C4F14682   1.702   5.444   7.314
  135OSM    H4F14683   1.756   5.532   7.273
  135OSM    H4G14684   1.773   5.364   7.342
  135OSM    C5F14685   1.621   5.491   7.433
  135OSM    H5F14686   1.542   5.417   7.461
  135OSM    H5G14687   1.567   5.587   7.423
  135OSM    C6F14688   1.706   5.502   7.553
  135OSM    H6F14689   1.767   5.594   7.538
  135OSM    H6G14690   1.782   5.423   7.569
  135OSM    C7F14691   1.628   5.550   7.676
  135OSM    H7F14692   1.557   5.627   7.640
  135OSM    H7G14693   1.698   5.602   7.745
  135OSM    C8F14694   1.568   5.424   7.750
  135OSM    H8F14695   1.657   5.377   7.796
  135OSM    H8G14696   1.517   5.351   7.683
  135OSM    C9F14697   1.478   5.468   7.858
  135OSM    H9F14698   1.419   5.556   7.829
  135OSM   C10F14699   1.450   5.404   7.979
  135OSM   H10F14700   1.373   5.445   8.046
  135OSM   C11F14701   1.511   5.280   8.033
  135OSM   H11F14702   1.516   5.198   7.959
  135OSM   H11G14703   1.437   5.237   8.103
  135OSM   C12F14704   1.657   5.305   8.097
  135OSM   H12F14705   1.715   5.366   8.025
  135OSM   H12G14706   1.701   5.203   8.096
  135OSM   C13F14707   1.638   5.370   8.239
  135OSM   H13F14708   1.542   5.328   8.276
  135OSM   H13G14709   1.621   5.479   8.228
  135OSM   C14F14710   1.753   5.338   8.346
  135OSM   H14F14711   1.843   5.400   8.326
  135OSM   H14G14712   1.780   5.231   8.356
  135OSM   C15F14713   1.704   5.376   8.491
  135OSM   H15F14714   1.714   5.485   8.512
  135OSM   H15G14715   1.779   5.335   8.563
  135OSM   C16F14716   1.568   5.331   8.532
  135OSM   H16F14717   1.539   5.236   8.482
  135OSM   H16G14718   1.501   5.410   8.492
  135OSM   C17F14719   1.552   5.314   8.677
  135OSM   H17F14720   1.586   5.406   8.730
  135OSM   H17G14721   1.604   5.225   8.719
  135OSM   C18F14722   1.409   5.288   8.717
  135OSM   H18F14723   1.348   5.375   8.682
  135OSM   H18G14724   1.400   5.273   8.826
  135OSM   H18H14725   1.374   5.198   8.663
  136OSM      N14726   5.779   6.626   6.079
  136OSM    C1514727   5.641   6.559   6.096
  136OSM   H15A14728   5.656   6.453   6.081
  136OSM   H15B14729   5.574   6.587   6.017
  136OSM   H15C14730   5.581   6.582   6.183
  136OSM    C1414731   5.854   6.572   5.957
  136OSM   H14A14732   5.949   6.624   5.963
  136OSM   H14B14733   5.803   6.605   5.867
  136OSM   H14C14734   5.873   6.466   5.957
  136OSM    C1314735   5.758   6.773   6.064
  136OSM   H13A14736   5.853   6.823   6.052
  136OSM   H13B14737   5.704   6.817   6.147
  136OSM   H13C14738   5.698   6.793   5.976
  136OSM    C1214739   5.847   6.596   6.212
  136OSM   H12A14740   5.858   6.489   6.218
  136OSM   H12B14741   5.795   6.631   6.300
  136OSM    C1114742   5.989   6.661   6.237
  136OSM   H11A14743   6.014   6.646   6.344
  136OSM   H11B14744   5.983   6.771   6.225
  136OSM      P14745   6.247   6.619   6.192
  136OSM    O1314746   6.333   6.558   6.089
  136OSM    O1414747   6.263   6.759   6.227
  136OSM    O1114748   6.258   6.536   6.325
  136OSM    O1214749   6.092   6.611   6.145
  136OSM    C1S14750   6.180   6.414   6.333
  136OSM    H1S14751   6.227   6.343   6.262
  136OSM    H1T14752   6.073   6.426   6.306
  136OSM     NF14753   6.142   6.215   6.490
  136OSM    HNF14754   6.060   6.199   6.544
  136OSM    C2S14755   6.178   6.350   6.480
  136OSM    H2S14756   6.284   6.351   6.513
  136OSM    C3S14757   6.106   6.437   6.583
  136OSM    H3S14758   6.000   6.455   6.556
  136OSM     O314759   6.148   6.572   6.584
  136OSM    HO314760   6.201   6.564   6.504
  136OSM    C4S14761   6.119   6.382   6.721
  136OSM    H4S14762   6.225   6.373   6.750
  136OSM    C5S14763   6.024   6.343   6.811
  136OSM    H5S14764   5.917   6.346   6.785
  136OSM    C6S14765   6.056   6.291   6.948
  136OSM    H6S14766   6.066   6.181   6.946
  136OSM    H6T14767   5.967   6.315   7.011
  136OSM    C7S14768   6.171   6.367   7.010
  136OSM    H7S14769   6.164   6.478   6.999
  136OSM    H7T14770   6.275   6.340   6.983
  136OSM    C8S14771   6.174   6.361   7.163
  136OSM    H8S14772   6.279   6.373   7.198
  136OSM    H8T14773   6.149   6.258   7.195
  136OSM    C9S14774   6.080   6.461   7.227
  136OSM    H9S14775   5.975   6.451   7.193
  136OSM    H9T14776   6.103   6.570   7.223
  136OSM   C10S14777   6.068   6.429   7.372
  136OSM   H10S14778   6.163   6.433   7.429
  136OSM   H10T14779   6.033   6.325   7.389
  136OSM   C11S14780   5.977   6.526   7.450
  136OSM   H11S14781   5.872   6.531   7.416
  136OSM   H11T14782   6.025   6.626   7.445
  136OSM   C12S14783   5.966   6.481   7.601
  136OSM   H12S14784   6.066   6.492   7.647
  136OSM   H12T14785   5.948   6.372   7.608
  136OSM   C13S14786   5.862   6.554   7.686
  136OSM   H13S14787   5.766   6.549   7.630
  136OSM   H13T14788   5.877   6.662   7.705
  136OSM   C14S14789   5.839   6.499   7.832
  136OSM   H14S14790   5.942   6.483   7.871
  136OSM   H14T14791   5.796   6.397   7.823
  136OSM   C15S14792   5.765   6.593   7.931
  136OSM   H15S14793   5.665   6.608   7.885
  136OSM   H15T14794   5.825   6.686   7.923
  136OSM   C16S14795   5.756   6.544   8.074
  136OSM   H16S14796   5.693   6.452   8.077
  136OSM   H16T14797   5.707   6.624   8.133
  136OSM   C17S14798   5.885   6.531   8.140
  136OSM   H17S14799   5.935   6.630   8.144
  136OSM   H17T14800   5.949   6.459   8.085
  136OSM   C18S14801   5.869   6.470   8.279
  136OSM   H18S14802   5.781   6.508   8.335
  136OSM   H18T14803   5.953   6.480   8.352
  136OSM   H18U14804   5.844   6.363   8.262
  136OSM    C1F14805   6.205   6.111   6.429
  136OSM     OF14806   6.301   6.126   6.354
  136OSM    C2F14807   6.141   5.980   6.439
  136OSM    H2F14808   6.143   5.936   6.336
  136OSM    H2G14809   6.039   5.977   6.484
  136OSM    C3F14810   6.236   5.888   6.524
  136OSM    H3F14811   6.342   5.912   6.501
  136OSM    H3G14812   6.237   5.784   6.484
  136OSM    C4F14813   6.211   5.906   6.673
  136OSM    H4F14814   6.112   5.861   6.694
  136OSM    H4G14815   6.223   6.009   6.714
  136OSM    C5F14816   6.300   5.812   6.756
  136OSM    H5F14817   6.283   5.716   6.703
  136OSM    H5G14818   6.250   5.810   6.855
  136OSM    C6F14819   6.452   5.846   6.764
  136OSM    H6F14820   6.453   5.955   6.785
  136OSM    H6G14821   6.504   5.841   6.667
  136OSM    C7F14822   6.533   5.754   6.862
  136OSM    H7F14823   6.630   5.736   6.810
  136OSM    H7G14824   6.472   5.661   6.863
  136OSM    C8F14825   6.562   5.815   6.994
  136OSM    H8F14826   6.597   5.919   6.982
  136OSM    H8G14827   6.648   5.758   7.036
  136OSM    C9F14828   6.444   5.806   7.091
  136OSM    H9F14829   6.390   5.711   7.096
  136OSM   C10F14830   6.394   5.899   7.176
  136OSM   H10F14831   6.310   5.869   7.240
  136OSM   C11F14832   6.430   6.039   7.208
  136OSM   H11F14833   6.345   6.103   7.178
  136OSM   H11G14834   6.513   6.073   7.142
  136OSM   C12F14835   6.467   6.059   7.358
  136OSM   H12F14836   6.403   6.004   7.430
  136OSM   H12G14837   6.442   6.162   7.391
  136OSM   C13F14838   6.614   6.038   7.406
  136OSM   H13F14839   6.666   6.085   7.320
  136OSM   H13G14840   6.632   5.928   7.400
  136OSM   C14F14841   6.665   6.109   7.531
  136OSM   H14F14842   6.673   6.215   7.498
  136OSM   H14G14843   6.770   6.073   7.537
  136OSM   C15F14844   6.576   6.084   7.653
  136OSM   H15F14845   6.574   5.975   7.670
  136OSM   H15G14846   6.475   6.126   7.636
  136OSM   C16F14847   6.619   6.159   7.779
  136OSM   H16F14848   6.606   6.269   7.773
  136OSM   H16G14849   6.729   6.145   7.775
  136OSM   C17F14850   6.557   6.102   7.905
  136OSM   H17F14851   6.606   6.002   7.910
  136OSM   H17G14852   6.447   6.092   7.903
  136OSM   C18F14853   6.590   6.191   8.027
  136OSM   H18F14854   6.522   6.279   8.018
  136OSM   H18G14855   6.694   6.230   8.031
  136OSM   H18H14856   6.577   6.147   8.128
  137OSM      N14857   2.566   4.016   6.269
  137OSM    C1514858   2.504   3.893   6.210
  137OSM   H15A14859   2.413   3.864   6.260
  137OSM   H15B14860   2.573   3.809   6.215
  137OSM   H15C14861   2.478   3.913   6.107
  137OSM    C1414862   2.689   4.044   6.186
  137OSM   H14A14863   2.754   3.959   6.175
  137OSM   H14B14864   2.748   4.123   6.231
  137OSM   H14C14865   2.676   4.075   6.083
  137OSM    C1314866   2.468   4.128   6.255
  137OSM   H13A14867   2.364   4.104   6.275
  137OSM   H13B14868   2.478   4.167   6.155
  137OSM   H13C14869   2.487   4.204   6.329
  137OSM    C1214870   2.600   3.992   6.416
  137OSM   H12A14871   2.506   3.967   6.462
  137OSM   H12B14872   2.625   4.081   6.473
  137OSM    C1114873   2.711   3.888   6.443
  137OSM   H11A14874   2.680   3.793   6.396
  137OSM   H11B14875   2.701   3.857   6.549
  137OSM      P14876   2.939   4.013   6.472
  137OSM    O1314877   3.073   4.009   6.402
  137OSM    O1414878   2.876   4.146   6.480
  137OSM    O1114879   2.956   3.957   6.616
  137OSM    O1214880   2.841   3.911   6.400
  137OSM    C1S14881   3.004   4.037   6.724
  137OSM    H1S14882   2.973   4.143   6.711
  137OSM    H1T14883   3.114   4.023   6.731
  137OSM     NF14884   2.968   4.049   6.983
  137OSM    HNF14885   3.031   4.009   7.050
  137OSM    C2S14886   2.934   3.979   6.855
  137OSM    H2S14887   2.826   4.001   6.845
  137OSM    C3S14888   2.952   3.827   6.855
  137OSM    H3S14889   3.063   3.814   6.852
  137OSM     O314890   2.888   3.754   6.746
  137OSM    HO314891   2.881   3.825   6.682
  137OSM    C4S14892   2.907   3.768   6.986
  137OSM    H4S14893   2.997   3.768   7.050
  137OSM    C5S14894   2.788   3.736   7.032
  137OSM    H5S14895   2.698   3.759   6.972
  137OSM    C6S14896   2.758   3.698   7.173
  137OSM    H6S14897   2.683   3.767   7.217
  137OSM    H6T14898   2.852   3.711   7.230
  137OSM    C7S14899   2.705   3.557   7.193
  137OSM    H7S14900   2.777   3.483   7.151
  137OSM    H7T14901   2.611   3.542   7.134
  137OSM    C8S14902   2.685   3.520   7.349
  137OSM    H8S14903   2.783   3.495   7.395
  137OSM    H8T14904   2.609   3.439   7.359
  137OSM    C9S14905   2.611   3.627   7.436
  137OSM    H9S14906   2.518   3.633   7.375
  137OSM    H9T14907   2.643   3.733   7.435
  137OSM   C10S14908   2.572   3.605   7.577
  137OSM   H10S14909   2.524   3.505   7.580
  137OSM   H10T14910   2.494   3.680   7.606
  137OSM   C11S14911   2.692   3.609   7.676
  137OSM   H11S14912   2.730   3.713   7.674
  137OSM   H11T14913   2.771   3.540   7.640
  137OSM   C12S14914   2.668   3.587   7.829
  137OSM   H12S14915   2.750   3.623   7.895
  137OSM   H12T14916   2.642   3.480   7.845
  137OSM   C13S14917   2.543   3.665   7.884
  137OSM   H13S14918   2.453   3.635   7.827
  137OSM   H13T14919   2.553   3.768   7.844
  137OSM   C14S14920   2.515   3.651   8.037
  137OSM   H14S14921   2.503   3.544   8.062
  137OSM   H14T14922   2.420   3.705   8.059
  137OSM   C15S14923   2.630   3.715   8.116
  137OSM   H15S14924   2.631   3.823   8.092
  137OSM   H15T14925   2.729   3.669   8.096
  137OSM   C16S14926   2.600   3.699   8.264
  137OSM   H16S14927   2.582   3.599   8.308
  137OSM   H16T14928   2.509   3.761   8.277
  137OSM   C17S14929   2.703   3.759   8.348
  137OSM   H17S14930   2.707   3.870   8.348
  137OSM   H17T14931   2.807   3.736   8.317
  137OSM   C18S14932   2.707   3.734   8.500
  137OSM   H18S14933   2.772   3.812   8.545
  137OSM   H18T14934   2.741   3.630   8.520
  137OSM   H18U14935   2.605   3.749   8.540
  137OSM    C1F14936   2.937   4.178   7.015
  137OSM     OF14937   2.888   4.248   6.931
  137OSM    C2F14938   2.961   4.217   7.156
  137OSM    H2F14939   3.061   4.184   7.193
  137OSM    H2G14940   2.881   4.163   7.210
  137OSM    C3F14941   2.941   4.366   7.192
  137OSM    H3F14942   2.838   4.400   7.167
  137OSM    H3G14943   3.018   4.417   7.130
  137OSM    C4F14944   2.974   4.374   7.344
  137OSM    H4F14945   3.003   4.472   7.389
  137OSM    H4G14946   3.061   4.310   7.368
  137OSM    C5F14947   2.864   4.332   7.440
  137OSM    H5F14948   2.835   4.235   7.395
  137OSM    H5G14949   2.776   4.398   7.431
  137OSM    C6F14950   2.907   4.300   7.591
  137OSM    H6F14951   2.961   4.391   7.623
  137OSM    H6G14952   2.984   4.220   7.592
  137OSM    C7F14953   2.779   4.262   7.665
  137OSM    H7F14954   2.722   4.173   7.631
  137OSM    H7G14955   2.711   4.350   7.666
  137OSM    C8F14956   2.798   4.238   7.814
  137OSM    H8F14957   2.895   4.184   7.815
  137OSM    H8G14958   2.720   4.167   7.849
  137OSM    C9F14959   2.804   4.359   7.901
  137OSM    H9F14960   2.887   4.424   7.871
  137OSM   C10F14961   2.723   4.406   8.001
  137OSM   H10F14962   2.761   4.496   8.052
  137OSM   C11F14963   2.628   4.313   8.068
  137OSM   H11F14964   2.613   4.217   8.014
  137OSM   H11G14965   2.522   4.346   8.078
  137OSM   C12F14966   2.661   4.285   8.216
  137OSM   H12F14967   2.681   4.383   8.264
  137OSM   H12G14968   2.756   4.227   8.210
  137OSM   C13F14969   2.547   4.216   8.300
  137OSM   H13F14970   2.522   4.123   8.244
  137OSM   H13G14971   2.453   4.274   8.302
  137OSM   C14F14972   2.588   4.180   8.449
  137OSM   H14F14973   2.585   4.276   8.507
  137OSM   H14G14974   2.689   4.137   8.465
  137OSM   C15F14975   2.479   4.093   8.514
  137OSM   H15F14976   2.513   4.067   8.616
  137OSM   H15G14977   2.471   4.003   8.449
  137OSM   C16F14978   2.340   4.156   8.526
  137OSM   H16F14979   2.295   4.151   8.425
  137OSM   H16G14980   2.357   4.259   8.565
  137OSM   C17F14981   2.248   4.084   8.633
  137OSM   H17F14982   2.284   4.088   8.738
  137OSM   H17G14983   2.243   3.978   8.602
  137OSM   C18F14984   2.111   4.155   8.642
  137OSM   H18F14985   2.056   4.115   8.730
  137OSM   H18G14986   2.046   4.138   8.553
  137OSM   H18H14987   2.127   4.263   8.658
  138OSM      N14988   3.126   6.197   5.878
  138OSM    C1514989   3.123   6.225   5.730
  138OSM   H15A14990   3.018   6.228   5.705
  138OSM   H15B14991   3.163   6.143   5.671
  138OSM   H15C14992   3.186   6.308   5.701
  138OSM    C1414993   3.041   6.084   5.918
  138OSM   H14A14994   3.064   6.054   6.018
  138OSM   H14B14995   3.066   5.996   5.861
  138OSM   H14C14996   2.937   6.113   5.922
  138OSM    C1314997   3.262   6.166   5.917
  138OSM   H13A14998   3.293   6.089   5.848
  138OSM   H13B14999   3.259   6.115   6.013
  138OSM   H13C15000   3.321   6.256   5.913
  138OSM    C1215001   3.073   6.320   5.957
  138OSM   H12A15002   3.097   6.299   6.060
  138OSM   H12B15003   2.966   6.329   5.954
  138OSM    C1115004   3.121   6.468   5.921
  138OSM   H11A15005   3.081   6.536   5.999
  138OSM   H11B15006   3.088   6.501   5.820
  138OSM      P15007   3.358   6.532   6.023
  138OSM    O1315008   3.448   6.427   6.071
  138OSM    O1415009   3.427   6.648   5.962
  138OSM    O1115010   3.258   6.564   6.140
  138OSM    O1215011   3.260   6.475   5.911
  138OSM    C1S15012   3.210   6.484   6.246
  138OSM    H1S15013   3.254   6.382   6.249
  138OSM    H1T15014   3.101   6.470   6.227
  138OSM     NF15015   3.191   6.456   6.486
  138OSM    HNF15016   3.115   6.499   6.534
  138OSM    C2S15017   3.232   6.554   6.378
  138OSM    H2S15018   3.342   6.563   6.394
  138OSM    C3S15019   3.163   6.682   6.390
  138OSM    H3S15020   3.056   6.651   6.398
  138OSM     O315021   3.164   6.781   6.280
  138OSM    HO315022   3.215   6.737   6.212
  138OSM    C4S15023   3.201   6.750   6.516
  138OSM    H4S15024   3.307   6.775   6.530
  138OSM    C5S15025   3.111   6.806   6.594
  138OSM    H5S15026   3.003   6.799   6.576
  138OSM    C6S15027   3.130   6.877   6.720
  138OSM    H6S15028   3.028   6.872   6.765
  138OSM    H6T15029   3.165   6.980   6.702
  138OSM    C7S15030   3.231   6.812   6.819
  138OSM    H7S15031   3.334   6.851   6.804
  138OSM    H7T15032   3.230   6.701   6.818
  138OSM    C8S15033   3.202   6.848   6.967
  138OSM    H8S15034   3.108   6.815   7.016
  138OSM    H8T15035   3.205   6.958   6.953
  138OSM    C9S15036   3.310   6.808   7.062
  138OSM    H9S15037   3.408   6.846   7.027
  138OSM    H9T15038   3.316   6.697   7.066
  138OSM   C10S15039   3.276   6.871   7.197
  138OSM   H10S15040   3.171   6.840   7.220
  138OSM   H10T15041   3.277   6.982   7.193
  138OSM   C11S15042   3.363   6.828   7.320
  138OSM   H11S15043   3.470   6.837   7.292
  138OSM   H11T15044   3.347   6.719   7.338
  138OSM   C12S15045   3.309   6.898   7.447
  138OSM   H12S15046   3.202   6.876   7.466
  138OSM   H12T15047   3.318   7.009   7.440
  138OSM   C13S15048   3.386   6.852   7.573
  138OSM   H13S15049   3.494   6.878   7.562
  138OSM   H13T15050   3.362   6.745   7.589
  138OSM   C14S15051   3.335   6.910   7.702
  138OSM   H14S15052   3.226   6.897   7.721
  138OSM   H14T15053   3.346   7.020   7.689
  138OSM   C15S15054   3.421   6.873   7.824
  138OSM   H15S15055   3.380   6.927   7.911
  138OSM   H15T15056   3.525   6.903   7.799
  138OSM   C16S15057   3.435   6.724   7.863
  138OSM   H16S15058   3.453   6.657   7.776
  138OSM   H16T15059   3.335   6.691   7.898
  138OSM   C17S15060   3.551   6.695   7.968
  138OSM   H17S15061   3.548   6.779   8.040
  138OSM   H17T15062   3.646   6.696   7.909
  138OSM   C18S15063   3.544   6.564   8.041
  138OSM   H18S15064   3.638   6.509   8.060
  138OSM   H18T15065   3.470   6.507   7.982
  138OSM   H18U15066   3.494   6.583   8.139
  138OSM    C1F15067   3.258   6.345   6.530
  138OSM     OF15068   3.367   6.317   6.472
  138OSM    C2F15069   3.188   6.263   6.639
  138OSM    H2F15070   3.081   6.249   6.611
  138OSM    H2G15071   3.204   6.319   6.733
  138OSM    C3F15072   3.264   6.127   6.645
  138OSM    H3F15073   3.363   6.140   6.695
  138OSM    H3G15074   3.280   6.069   6.552
  138OSM    C4F15075   3.170   6.023   6.723
  138OSM    H4F15076   3.221   5.924   6.715
  138OSM    H4G15077   3.068   6.005   6.684
  138OSM    C5F15078   3.142   6.057   6.867
  138OSM    H5F15079   3.098   6.158   6.875
  138OSM    H5G15080   3.239   6.053   6.921
  138OSM    C6F15081   3.048   5.947   6.933
  138OSM    H6F15082   3.098   5.848   6.930
  138OSM    H6G15083   2.963   5.937   6.862
  138OSM    C7F15084   2.995   5.995   7.067
  138OSM    H7F15085   2.916   5.927   7.106
  138OSM    H7G15086   2.952   6.097   7.053
  138OSM    C8F15087   3.098   6.023   7.181
  138OSM    H8F15088   3.042   6.050   7.273
  138OSM    H8G15089   3.149   6.117   7.153
  138OSM    C9F15090   3.187   5.903   7.209
  138OSM    H9F15091   3.180   5.814   7.145
  138OSM   C10F15092   3.255   5.880   7.325
  138OSM   H10F15093   3.300   5.783   7.349
  138OSM   C11F15094   3.269   5.974   7.439
  138OSM   H11F15095   3.172   5.982   7.492
  138OSM   H11G15096   3.287   6.075   7.396
  138OSM   C12F15097   3.373   5.957   7.547
  138OSM   H12F15098   3.392   6.050   7.604
  138OSM   H12G15099   3.465   5.926   7.492
  138OSM   C13F15100   3.330   5.849   7.648
  138OSM   H13F15101   3.300   5.753   7.600
  138OSM   H13G15102   3.238   5.886   7.699
  138OSM   C14F15103   3.428   5.822   7.762
  138OSM   H14F15104   3.418   5.903   7.837
  138OSM   H14G15105   3.529   5.818   7.716
  138OSM   C15F15106   3.390   5.686   7.823
  138OSM   H15F15107   3.381   5.617   7.736
  138OSM   H15G15108   3.288   5.685   7.869
  138OSM   C16F15109   3.506   5.633   7.908
  138OSM   H16F15110   3.515   5.698   7.997
  138OSM   H16G15111   3.602   5.639   7.852
  138OSM   C17F15112   3.479   5.487   7.957
  138OSM   H17F15113   3.431   5.443   7.867
  138OSM   H17G15114   3.405   5.481   8.040
  138OSM   C18F15115   3.597   5.400   7.988
  138OSM   H18F15116   3.633   5.341   7.901
  138OSM   H18G15117   3.564   5.339   8.075
  138OSM   H18H15118   3.688   5.453   8.024
  139OSM      N15119   2.759   0.550   6.065
  139OSM    C1515120   2.668   0.506   5.950
  139OSM   H15A15121   2.564   0.535   5.958
  139OSM   H15B15122   2.675   0.400   5.932
  139OSM   H15C15123   2.713   0.552   5.864
  139OSM    C1415124   2.898   0.527   6.027
  139OSM   H14A15125   2.964   0.574   6.098
  139OSM   H14B15126   2.940   0.555   5.932
  139OSM   H14C15127   2.912   0.420   6.024
  139OSM    C1315128   2.743   0.695   6.078
  139OSM   H13A15129   2.770   0.753   5.991
  139OSM   H13B15130   2.807   0.728   6.158
  139OSM   H13C15131   2.642   0.724   6.103
  139OSM    C1215132   2.731   0.482   6.195
  139OSM   H12A15133   2.802   0.530   6.261
  139OSM   H12B15134   2.746   0.376   6.179
  139OSM    C1115135   2.585   0.512   6.249
  139OSM   H11A15136   2.566   0.621   6.255
  139OSM   H11B15137   2.575   0.475   6.354
  139OSM      P15138   2.449   0.310   6.153
  139OSM    O1315139   2.371   0.281   6.030
  139OSM    O1415140   2.573   0.230   6.173
  139OSM    O1115141   2.354   0.287   6.277
  139OSM    O1215142   2.485   0.465   6.165
  139OSM    C1S15143   2.377   0.323   6.411
  139OSM    H1S15144   2.381   0.433   6.419
  139OSM    H1T15145   2.471   0.278   6.449
  139OSM     NF15146   2.290   0.332   6.634
  139OSM    HNF15147   2.310   0.268   6.708
  139OSM    C2S15148   2.263   0.275   6.511
  139OSM    H2S15149   2.176   0.323   6.463
  139OSM    C3S15150   2.257   0.121   6.519
  139OSM    H3S15151   2.347   0.088   6.574
  139OSM     O315152   2.271   0.069   6.388
  139OSM    HO315153   2.318   0.140   6.342
  139OSM    C4S15154   2.119   0.079   6.575
  139OSM    H4S15155   2.050   0.051   6.494
  139OSM    C5S15156   2.075   0.086   6.700
  139OSM    H5S15157   2.142   0.108   6.785
  139OSM    C6S15158   1.939   0.048   6.740
  139OSM    H6S15159   1.937  -0.063   6.748
  139OSM    H6T15160   1.863   0.075   6.665
  139OSM    C7S15161   1.906   0.100   6.878
  139OSM    H7S15162   1.993   0.088   6.946
  139OSM    H7T15163   1.820   0.045   6.922
  139OSM    C8S15164   1.852   0.244   6.872
  139OSM    H8S15165   1.754   0.245   6.819
  139OSM    H8T15166   1.925   0.298   6.807
  139OSM    C9S15167   1.851   0.320   7.006
  139OSM    H9S15168   1.832   0.249   7.089
  139OSM    H9T15169   1.759   0.383   7.005
  139OSM   C10S15170   1.971   0.412   7.027
  139OSM   H10S15171   1.942   0.486   7.104
  139OSM   H10T15172   1.993   0.468   6.934
  139OSM   C11S15173   2.109   0.356   7.057
  139OSM   H11S15174   2.193   0.426   7.040
  139OSM   H11T15175   2.124   0.295   6.965
  139OSM   C12S15176   2.119   0.268   7.188
  139OSM   H12S15177   2.211   0.206   7.178
  139OSM   H12T15178   2.028   0.203   7.189
  139OSM   C13S15179   2.117   0.356   7.319
  139OSM   H13S15180   2.018   0.404   7.338
  139OSM   H13T15181   2.190   0.437   7.299
  139OSM   C14S15182   2.141   0.278   7.445
  139OSM   H14S15183   2.234   0.222   7.421
  139OSM   H14T15184   2.060   0.205   7.468
  139OSM   C15S15185   2.173   0.380   7.552
  139OSM   H15S15186   2.095   0.459   7.550
  139OSM   H15T15187   2.263   0.429   7.510
  139OSM   C16S15188   2.205   0.322   7.696
  139OSM   H16S15189   2.244   0.218   7.704
  139OSM   H16T15190   2.110   0.319   7.752
  139OSM   C17S15191   2.303   0.396   7.785
  139OSM   H17S15192   2.267   0.500   7.798
  139OSM   H17T15193   2.401   0.386   7.734
  139OSM   C18S15194   2.310   0.334   7.921
  139OSM   H18S15195   2.212   0.327   7.972
  139OSM   H18T15196   2.382   0.394   7.982
  139OSM   H18U15197   2.349   0.230   7.921
  139OSM    C1F15198   2.283   0.460   6.659
  139OSM     OF15199   2.232   0.532   6.573
  139OSM    C2F15200   2.319   0.513   6.798
  139OSM    H2F15201   2.404   0.452   6.834
  139OSM    H2G15202   2.231   0.526   6.864
  139OSM    C3F15203   2.393   0.649   6.778
  139OSM    H3F15204   2.321   0.720   6.733
  139OSM    H3G15205   2.481   0.644   6.709
  139OSM    C4F15206   2.438   0.711   6.909
  139OSM    H4F15207   2.356   0.695   6.983
  139OSM    H4G15208   2.453   0.821   6.902
  139OSM    C5F15209   2.576   0.657   6.959
  139OSM    H5F15210   2.647   0.704   6.889
  139OSM    H5G15211   2.590   0.547   6.945
  139OSM    C6F15212   2.602   0.719   7.094
  139OSM    H6F15213   2.627   0.826   7.079
  139OSM    H6G15214   2.702   0.683   7.129
  139OSM    C7F15215   2.500   0.698   7.207
  139OSM    H7F15216   2.455   0.598   7.195
  139OSM    H7G15217   2.407   0.757   7.193
  139OSM    C8F15218   2.551   0.723   7.337
  139OSM    H8F15219   2.463   0.743   7.402
  139OSM    H8G15220   2.609   0.818   7.328
  139OSM    C9F15221   2.643   0.622   7.396
  139OSM    H9F15222   2.695   0.550   7.331
  139OSM   C10F15223   2.670   0.600   7.528
  139OSM   H10F15224   2.723   0.505   7.546
  139OSM   C11F15225   2.630   0.683   7.647
  139OSM   H11F15226   2.524   0.673   7.677
  139OSM   H11G15227   2.635   0.792   7.626
  139OSM   C12F15228   2.722   0.643   7.768
  139OSM   H12F15229   2.818   0.698   7.756
  139OSM   H12G15230   2.748   0.536   7.775
  139OSM   C13F15231   2.650   0.671   7.903
  139OSM   H13F15232   2.547   0.633   7.888
  139OSM   H13G15233   2.650   0.780   7.926
  139OSM   C14F15234   2.725   0.618   8.021
  139OSM   H14F15235   2.818   0.676   8.041
  139OSM   H14G15236   2.755   0.513   7.997
  139OSM   C15F15237   2.649   0.626   8.160
  139OSM   H15F15238   2.565   0.555   8.149
  139OSM   H15G15239   2.611   0.731   8.171
  139OSM   C16F15240   2.732   0.586   8.279
  139OSM   H16F15241   2.786   0.489   8.270
  139OSM   H16G15242   2.670   0.593   8.371
  139OSM   C17F15243   2.826   0.708   8.296
  139OSM   H17F15244   2.792   0.803   8.249
  139OSM   H17G15245   2.922   0.694   8.242
  139OSM   C18F15246   2.855   0.744   8.439
  139OSM   H18F15247   2.931   0.826   8.437
  139OSM   H18G15248   2.877   0.659   8.507
  139OSM   H18H15249   2.758   0.784   8.477
  140OSM      N15250   2.426   2.332   6.232
  140OSM    C1515251   2.424   2.183   6.238
  140OSM   H15A15252   2.338   2.153   6.295
  140OSM   H15B15253   2.521   2.144   6.267
  140OSM   H15C15254   2.410   2.151   6.136
  140OSM    C1415255   2.542   2.360   6.155
  140OSM   H14A15256   2.576   2.461   6.172
  140OSM   H14B15257   2.527   2.349   6.049
  140OSM   H14C15258   2.626   2.298   6.182
  140OSM    C1315259   2.298   2.379   6.163
  140OSM   H13A15260   2.209   2.360   6.221
  140OSM   H13B15261   2.285   2.327   6.069
  140OSM   H13C15262   2.314   2.484   6.149
  140OSM    C1215263   2.445   2.387   6.370
  140OSM   H12A15264   2.530   2.340   6.418
  140OSM   H12B15265   2.362   2.366   6.436
  140OSM    C1115266   2.470   2.537   6.376
  140OSM   H11A15267   2.456   2.565   6.483
  140OSM   H11B15268   2.394   2.597   6.322
  140OSM      P15269   2.732   2.580   6.408
  140OSM    O1315270   2.846   2.534   6.330
  140OSM    O1415271   2.749   2.717   6.461
  140OSM    O1115272   2.691   2.487   6.534
  140OSM    O1215273   2.599   2.573   6.315
  140OSM    C1S15274   2.753   2.355   6.548
  140OSM    H1S15275   2.855   2.354   6.506
  140OSM    H1T15276   2.701   2.267   6.503
  140OSM     NF15277   2.859   2.221   6.739
  140OSM    HNF15278   2.828   2.126   6.742
  140OSM    C2S15279   2.762   2.318   6.703
  140OSM    H2S15280   2.805   2.412   6.743
  140OSM    C3S15281   2.621   2.297   6.756
  140OSM    H3S15282   2.565   2.219   6.698
  140OSM     O315283   2.540   2.418   6.747
  140OSM    HO315284   2.589   2.466   6.680
  140OSM    C4S15285   2.623   2.264   6.905
  140OSM    H4S15286   2.684   2.335   6.962
  140OSM    C5S15287   2.557   2.159   6.959
  140OSM    H5S15288   2.498   2.087   6.900
  140OSM    C6S15289   2.539   2.141   7.106
  140OSM    H6S15290   2.432   2.116   7.121
  140OSM    H6T15291   2.536   2.239   7.158
  140OSM    C7S15292   2.637   2.060   7.185
  140OSM    H7S15293   2.729   2.118   7.207
  140OSM    H7T15294   2.670   1.968   7.133
  140OSM    C8S15295   2.584   2.023   7.328
  140OSM    H8S15296   2.660   1.948   7.358
  140OSM    H8T15297   2.484   1.974   7.321
  140OSM    C9S15298   2.601   2.134   7.437
  140OSM    H9S15299   2.540   2.218   7.400
  140OSM    H9T15300   2.706   2.170   7.435
  140OSM   C10S15301   2.543   2.093   7.572
  140OSM   H10S15302   2.591   1.998   7.604
  140OSM   H10T15303   2.436   2.075   7.545
  140OSM   C11S15304   2.559   2.193   7.696
  140OSM   H11S15305   2.507   2.282   7.654
  140OSM   H11T15306   2.665   2.219   7.716
  140OSM   C12S15307   2.492   2.143   7.823
  140OSM   H12S15308   2.483   2.033   7.834
  140OSM   H12T15309   2.385   2.173   7.810
  140OSM   C13S15310   2.554   2.212   7.951
  140OSM   H13S15311   2.536   2.322   7.952
  140OSM   H13T15312   2.664   2.195   7.948
  140OSM   C14S15313   2.511   2.154   8.085
  140OSM   H14S15314   2.598   2.180   8.149
  140OSM   H14T15315   2.511   2.043   8.075
  140OSM   C15S15316   2.397   2.229   8.147
  140OSM   H15S15317   2.387   2.318   8.081
  140OSM   H15T15318   2.426   2.261   8.249
  140OSM   C16S15319   2.260   2.150   8.158
  140OSM   H16S15320   2.272   2.056   8.215
  140OSM   H16T15321   2.233   2.112   8.057
  140OSM   C17S15322   2.149   2.235   8.220
  140OSM   H17S15323   2.152   2.343   8.193
  140OSM   H17T15324   2.159   2.232   8.330
  140OSM   C18S15325   2.014   2.174   8.170
  140OSM   H18S15326   2.005   2.196   8.062
  140OSM   H18T15327   1.927   2.221   8.222
  140OSM   H18U15328   2.002   2.066   8.194
  140OSM    C1F15329   2.987   2.249   6.736
  140OSM     OF15330   3.026   2.344   6.676
  140OSM    C2F15331   3.080   2.160   6.812
  140OSM    H2F15332   3.170   2.218   6.841
  140OSM    H2G15333   3.128   2.079   6.753
  140OSM    C3F15334   3.025   2.105   6.943
  140OSM    H3F15335   3.101   2.043   6.995
  140OSM    H3G15336   2.936   2.041   6.927
  140OSM    C4F15337   2.991   2.209   7.048
  140OSM    H4F15338   2.957   2.147   7.134
  140OSM    H4G15339   2.903   2.264   7.010
  140OSM    C5F15340   3.106   2.302   7.097
  140OSM    H5F15341   3.155   2.349   7.009
  140OSM    H5G15342   3.185   2.237   7.140
  140OSM    C6F15343   3.065   2.399   7.201
  140OSM    H6F15344   3.010   2.475   7.142
  140OSM    H6G15345   3.164   2.443   7.228
  140OSM    C7F15346   2.998   2.339   7.317
  140OSM    H7F15347   3.066   2.260   7.354
  140OSM    H7G15348   2.900   2.299   7.285
  140OSM    C8F15349   2.963   2.438   7.431
  140OSM    H8F15350   2.878   2.388   7.483
  140OSM    H8G15351   2.912   2.529   7.393
  140OSM    C9F15352   3.083   2.464   7.525
  140OSM    H9F15353   3.159   2.529   7.478
  140OSM   C10F15354   3.098   2.408   7.648
  140OSM   H10F15355   3.200   2.417   7.689
  140OSM   C11F15356   3.007   2.307   7.716
  140OSM   H11F15357   2.938   2.280   7.633
  140OSM   H11G15358   2.945   2.353   7.796
  140OSM   C12F15359   3.101   2.194   7.756
  140OSM   H12F15360   3.176   2.162   7.681
  140OSM   H12G15361   3.032   2.112   7.787
  140OSM   C13F15362   3.176   2.231   7.890
  140OSM   H13F15363   3.135   2.323   7.938
  140OSM   H13G15364   3.281   2.244   7.855
  140OSM   C14F15365   3.178   2.114   7.992
  140OSM   H14F15366   3.219   2.029   7.932
  140OSM   H14G15367   3.073   2.093   8.019
  140OSM   C15F15368   3.258   2.154   8.118
  140OSM   H15F15369   3.236   2.262   8.132
  140OSM   H15G15370   3.365   2.139   8.091
  140OSM   C16F15371   3.240   2.070   8.244
  140OSM   H16F15372   3.256   1.963   8.220
  140OSM   H16G15373   3.138   2.082   8.286
  140OSM   C17F15374   3.335   2.110   8.360
  140OSM   H17F15375   3.316   2.214   8.394
  140OSM   H17G15376   3.431   2.118   8.305
  140OSM   C18F15377   3.336   1.998   8.465
  140OSM   H18F15378   3.394   2.041   8.549
  140OSM   H18G15379   3.386   1.911   8.419
  140OSM   H18H15380   3.232   1.976   8.500
  141OSM      N15381   1.684   3.701   6.209
  141OSM    C1515382   1.645   3.826   6.270
  141OSM   H15A15383   1.575   3.881   6.209
  141OSM   H15B15384   1.734   3.888   6.271
  141OSM   H15C15385   1.610   3.818   6.371
  141OSM    C1415386   1.760   3.623   6.310
  141OSM   H14A15387   1.864   3.651   6.315
  141OSM   H14B15388   1.768   3.520   6.280
  141OSM   H14C15389   1.715   3.614   6.408
  141OSM    C1315390   1.554   3.628   6.172
  141OSM   H13A15391   1.576   3.524   6.149
  141OSM   H13B15392   1.504   3.683   6.094
  141OSM   H13C15393   1.497   3.642   6.263
  141OSM    C1215394   1.764   3.727   6.085
  141OSM   H12A15395   1.711   3.797   6.023
  141OSM   H12B15396   1.789   3.634   6.038
  141OSM    C1115397   1.901   3.792   6.106
  141OSM   H11A15398   1.893   3.873   6.182
  141OSM   H11B15399   1.923   3.841   6.009
  141OSM      P15400   2.132   3.722   6.216
  141OSM    O1315401   2.216   3.603   6.215
  141OSM    O1415402   2.190   3.844   6.155
  141OSM    O1115403   2.083   3.749   6.368
  141OSM    O1215404   2.000   3.697   6.138
  141OSM    C1S15405   2.181   3.769   6.468
  141OSM    H1S15406   2.283   3.790   6.428
  141OSM    H1T15407   2.199   3.673   6.521
  141OSM     NF15408   2.234   3.863   6.685
  141OSM    HNF15409   2.208   3.807   6.763
  141OSM    C2S15410   2.143   3.880   6.566
  141OSM    H2S15411   2.161   3.979   6.519
  141OSM    C3S15412   1.990   3.871   6.588
  141OSM    H3S15413   1.949   3.768   6.596
  141OSM     O315414   1.912   3.921   6.475
  141OSM    HO315415   1.971   3.928   6.399
  141OSM    C4S15416   1.961   3.935   6.723
  141OSM    H4S15417   2.007   3.876   6.804
  141OSM    C5S15418   1.895   4.051   6.754
  141OSM    H5S15419   1.858   4.100   6.663
  141OSM    C6S15420   1.874   4.111   6.892
  141OSM    H6S15421   1.767   4.138   6.904
  141OSM    H6T15422   1.934   4.204   6.890
  141OSM    C7S15423   1.917   4.025   7.019
  141OSM    H7S15424   2.024   3.996   7.017
  141OSM    H7T15425   1.866   3.926   7.024
  141OSM    C8S15426   1.892   4.104   7.152
  141OSM    H8S15427   1.783   4.126   7.158
  141OSM    H8T15428   1.944   4.201   7.139
  141OSM    C9S15429   1.933   4.026   7.279
  141OSM    H9S15430   2.041   4.009   7.262
  141OSM    H9T15431   1.889   3.924   7.290
  141OSM   C10S15432   1.902   4.099   7.414
  141OSM   H10S15433   1.794   4.122   7.417
  141OSM   H10T15434   1.950   4.198   7.432
  141OSM   C11S15435   1.938   4.018   7.538
  141OSM   H11S15436   2.048   4.010   7.544
  141OSM   H11T15437   1.900   3.913   7.543
  141OSM   C12S15438   1.886   4.101   7.662
  141OSM   H12S15439   1.777   4.114   7.644
  141OSM   H12T15440   1.945   4.195   7.668
  141OSM   C13S15441   1.887   4.023   7.789
  141OSM   H13S15442   1.993   3.997   7.809
  141OSM   H13T15443   1.827   3.930   7.777
  141OSM   C14S15444   1.821   4.083   7.910
  141OSM   H14S15445   1.713   4.104   7.896
  141OSM   H14T15446   1.875   4.178   7.928
  141OSM   C15S15447   1.829   3.992   8.039
  141OSM   H15S15448   1.872   4.055   8.120
  141OSM   H15T15449   1.908   3.917   8.017
  141OSM   C16S15450   1.704   3.928   8.078
  141OSM   H16S15451   1.677   3.856   7.998
  141OSM   H16T15452   1.625   4.007   8.086
  141OSM   C17S15453   1.725   3.844   8.200
  141OSM   H17S15454   1.808   3.771   8.191
  141OSM   H17T15455   1.639   3.776   8.217
  141OSM   C18S15456   1.735   3.924   8.327
  141OSM   H18S15457   1.843   3.949   8.340
  141OSM   H18T15458   1.713   3.872   8.423
  141OSM   H18U15459   1.679   4.019   8.320
  141OSM    C1F15460   2.363   3.911   6.684
  141OSM     OF15461   2.391   3.986   6.591
  141OSM    C2F15462   2.452   3.849   6.785
  141OSM    H2F15463   2.553   3.884   6.755
  141OSM    H2G15464   2.445   3.739   6.776
  141OSM    C3F15465   2.409   3.898   6.922
  141OSM    H3F15466   2.473   3.847   6.997
  141OSM    H3G15467   2.309   3.860   6.949
  141OSM    C4F15468   2.411   4.051   6.934
  141OSM    H4F15469   2.340   4.100   6.865
  141OSM    H4G15470   2.515   4.081   6.907
  141OSM    C5F15471   2.396   4.102   7.074
  141OSM    H5F15472   2.290   4.082   7.103
  141OSM    H5G15473   2.402   4.213   7.075
  141OSM    C6F15474   2.495   4.040   7.181
  141OSM    H6F15475   2.600   4.052   7.147
  141OSM    H6G15476   2.469   3.933   7.190
  141OSM    C7F15477   2.503   4.117   7.316
  141OSM    H7F15478   2.550   4.215   7.293
  141OSM    H7G15479   2.570   4.059   7.383
  141OSM    C8F15480   2.361   4.139   7.380
  141OSM    H8F15481   2.304   4.045   7.393
  141OSM    H8G15482   2.307   4.192   7.298
  141OSM    C9F15483   2.386   4.221   7.513
  141OSM    H9F15484   2.379   4.330   7.503
  141OSM   C10F15485   2.419   4.169   7.634
  141OSM   H10F15486   2.447   4.245   7.709
  141OSM   C11F15487   2.410   4.024   7.674
  141OSM   H11F15488   2.505   3.976   7.704
  141OSM   H11G15489   2.384   3.960   7.586
  141OSM   C12F15490   2.323   4.012   7.803
  141OSM   H12F15491   2.319   3.905   7.830
  141OSM   H12G15492   2.220   4.044   7.777
  141OSM   C13F15493   2.377   4.072   7.932
  141OSM   H13F15494   2.405   4.179   7.917
  141OSM   H13G15495   2.466   4.020   7.972
  141OSM   C14F15496   2.279   4.075   8.050
  141OSM   H14F15497   2.178   4.107   8.017
  141OSM   H14G15498   2.321   4.147   8.122
  141OSM   C15F15499   2.259   3.932   8.111
  141OSM   H15F15500   2.355   3.889   8.146
  141OSM   H15G15501   2.218   3.863   8.034
  141OSM   C16F15502   2.161   3.930   8.228
  141OSM   H16F15503   2.074   3.992   8.195
  141OSM   H16G15504   2.196   3.975   8.323
  141OSM   C17F15505   2.115   3.787   8.265
  141OSM   H17F15506   2.078   3.731   8.176
  141OSM   H17G15507   2.038   3.804   8.344
  141OSM   C18F15508   2.222   3.693   8.324
  141OSM   H18F15509   2.306   3.696   8.251
  141OSM   H18G15510   2.191   3.586   8.328
  141OSM   H18H15511   2.266   3.728   8.419
  142OSM      N15512   2.304   5.383   6.223
  142OSM    C1515513   2.388   5.265   6.199
  142OSM   H15A15514   2.491   5.283   6.227
  142OSM   H15B15515   2.378   5.215   6.104
  142OSM   H15C15516   2.367   5.183   6.267
  142OSM    C1415517   2.345   5.490   6.125
  142OSM   H14A15518   2.447   5.517   6.148
  142OSM   H14B15519   2.281   5.577   6.123
  142OSM   H14C15520   2.348   5.461   6.021
  142OSM    C1315521   2.159   5.350   6.188
  142OSM   H13A15522   2.137   5.252   6.227
  142OSM   H13B15523   2.148   5.348   6.081
  142OSM   H13C15524   2.082   5.423   6.209
  142OSM    C1215525   2.318   5.431   6.367
  142OSM   H12A15526   2.422   5.452   6.387
  142OSM   H12B15527   2.281   5.355   6.434
  142OSM    C1115528   2.227   5.549   6.415
  142OSM   H11A15529   2.232   5.546   6.526
  142OSM   H11B15530   2.126   5.524   6.376
  142OSM      P15531   2.168   5.799   6.360
  142OSM    O1315532   2.246   5.918   6.318
  142OSM    O1415533   2.037   5.769   6.303
  142OSM    O1115534   2.146   5.807   6.514
  142OSM    O1215535   2.272   5.675   6.358
  142OSM    C1S15536   2.248   5.865   6.598
  142OSM    H1S15537   2.271   5.968   6.561
  142OSM    H1T15538   2.337   5.802   6.583
  142OSM     NF15539   2.324   5.894   6.827
  142OSM    HNF15540   2.383   5.825   6.868
  142OSM    C2S15541   2.208   5.858   6.748
  142OSM    H2S15542   2.125   5.929   6.765
  142OSM    C3S15543   2.153   5.715   6.783
  142OSM    H3S15544   2.237   5.644   6.769
  142OSM     O315545   2.051   5.653   6.698
  142OSM    HO315546   2.058   5.694   6.612
  142OSM    C4S15547   2.114   5.716   6.928
  142OSM    H4S15548   2.209   5.722   6.983
  142OSM    C5S15549   1.996   5.717   6.991
  142OSM    H5S15550   1.900   5.725   6.937
  142OSM    C6S15551   1.978   5.698   7.137
  142OSM    H6S15552   1.930   5.601   7.166
  142OSM    H6T15553   1.900   5.772   7.166
  142OSM    C7S15554   2.099   5.717   7.223
  142OSM    H7S15555   2.140   5.820   7.233
  142OSM    H7T15556   2.180   5.645   7.202
  142OSM    C8S15557   2.063   5.698   7.368
  142OSM    H8S15558   2.027   5.596   7.392
  142OSM    H8T15559   1.999   5.781   7.405
  142OSM    C9S15560   2.192   5.718   7.455
  142OSM    H9S15561   2.246   5.807   7.415
  142OSM    H9T15562   2.257   5.629   7.454
  142OSM   C10S15563   2.160   5.752   7.597
  142OSM   H10S15564   2.107   5.663   7.637
  142OSM   H10T15565   2.087   5.835   7.598
  142OSM   C11S15566   2.286   5.775   7.676
  142OSM   H11S15567   2.347   5.853   7.625
  142OSM   H11T15568   2.347   5.682   7.670
  142OSM   C12S15569   2.252   5.803   7.819
  142OSM   H12S15570   2.199   5.723   7.875
  142OSM   H12T15571   2.187   5.893   7.820
  142OSM   C13S15572   2.381   5.809   7.901
  142OSM   H13S15573   2.458   5.863   7.843
  142OSM   H13T15574   2.419   5.704   7.905
  142OSM   C14S15575   2.371   5.865   8.043
  142OSM   H14S15576   2.317   5.962   8.041
  142OSM   H14T15577   2.477   5.886   8.067
  142OSM   C15S15578   2.316   5.767   8.142
  142OSM   H15S15579   2.374   5.673   8.134
  142OSM   H15T15580   2.210   5.739   8.123
  142OSM   C16S15581   2.334   5.808   8.297
  142OSM   H16S15582   2.294   5.912   8.304
  142OSM   H16T15583   2.439   5.818   8.331
  142OSM   C17S15584   2.273   5.701   8.392
  142OSM   H17S15585   2.344   5.622   8.425
  142OSM   H17T15586   2.190   5.651   8.339
  142OSM   C18S15587   2.228   5.755   8.523
  142OSM   H18S15588   2.318   5.779   8.584
  142OSM   H18T15589   2.156   5.686   8.572
  142OSM   H18U15590   2.187   5.858   8.524
  142OSM    C1F15591   2.363   6.019   6.837
  142OSM     OF15592   2.316   6.105   6.767
  142OSM    C2F15593   2.454   6.053   6.948
  142OSM    H2F15594   2.558   6.032   6.916
  142OSM    H2G15595   2.443   5.990   7.039
  142OSM    C3F15596   2.432   6.205   6.985
  142OSM    H3F15597   2.342   6.199   7.049
  142OSM    H3G15598   2.420   6.271   6.897
  142OSM    C4F15599   2.550   6.269   7.063
  142OSM    H4F15600   2.516   6.372   7.089
  142OSM    H4G15601   2.645   6.288   7.010
  142OSM    C5F15602   2.574   6.195   7.191
  142OSM    H5F15603   2.593   6.087   7.173
  142OSM    H5G15604   2.472   6.203   7.235
  142OSM    C6F15605   2.675   6.272   7.273
  142OSM    H6F15606   2.626   6.367   7.302
  142OSM    H6G15607   2.762   6.294   7.206
  142OSM    C7F15608   2.715   6.199   7.403
  142OSM    H7F15609   2.799   6.253   7.451
  142OSM    H7G15610   2.767   6.104   7.381
  142OSM    C8F15611   2.598   6.202   7.506
  142OSM    H8F15612   2.510   6.134   7.494
  142OSM    H8G15613   2.557   6.305   7.516
  142OSM    C9F15614   2.642   6.151   7.645
  142OSM    H9F15615   2.735   6.091   7.649
  142OSM   C10F15616   2.576   6.171   7.766
  142OSM   H10F15617   2.621   6.132   7.858
  142OSM   C11F15618   2.454   6.260   7.793
  142OSM   H11F15619   2.362   6.204   7.820
  142OSM   H11G15620   2.417   6.302   7.698
  142OSM   C12F15621   2.476   6.365   7.903
  142OSM   H12F15622   2.395   6.440   7.901
  142OSM   H12G15623   2.573   6.419   7.897
  142OSM   C13F15624   2.475   6.309   8.048
  142OSM   H13F15625   2.492   6.390   8.123
  142OSM   H13G15626   2.558   6.235   8.056
  142OSM   C14F15627   2.347   6.249   8.099
  142OSM   H14F15628   2.327   6.151   8.051
  142OSM   H14G15629   2.265   6.307   8.052
  142OSM   C15F15630   2.315   6.251   8.245
  142OSM   H15F15631   2.207   6.230   8.258
  142OSM   H15G15632   2.315   6.353   8.289
  142OSM   C16F15633   2.420   6.161   8.327
  142OSM   H16F15634   2.512   6.222   8.334
  142OSM   H16G15635   2.445   6.070   8.268
  142OSM   C17F15636   2.359   6.124   8.461
  142OSM   H17F15637   2.265   6.064   8.454
  142OSM   H17G15638   2.350   6.226   8.504
  142OSM   C18F15639   2.468   6.056   8.543
  142OSM   H18F15640   2.551   6.127   8.565
  142OSM   H18G15641   2.513   5.975   8.484
  142OSM   H18H15642   2.415   6.016   8.633
  143OSM      N15643   3.420   1.324   5.987
  143OSM    C1515644   3.323   1.434   5.964
  143OSM   H15A15645   3.366   1.526   6.000
  143OSM   H15B15646   3.224   1.417   6.004
  143OSM   H15C15647   3.311   1.454   5.858
  143OSM    C1415648   3.350   1.202   5.939
  143OSM   H14A15649   3.421   1.121   5.946
  143OSM   H14B15650   3.318   1.217   5.837
  143OSM   H14C15651   3.260   1.180   5.994
  143OSM    C1315652   3.533   1.351   5.890
  143OSM   H13A15653   3.491   1.345   5.791
  143OSM   H13B15654   3.605   1.271   5.897
  143OSM   H13C15655   3.575   1.448   5.911
  143OSM    C1215656   3.466   1.312   6.138
  143OSM   H12A15657   3.376   1.289   6.193
  143OSM   H12B15658   3.497   1.410   6.174
  143OSM    C1115659   3.583   1.219   6.154
  143OSM   H11A15660   3.570   1.135   6.082
  143OSM   H11B15661   3.569   1.188   6.259
  143OSM      P15662   3.763   1.391   6.220
  143OSM    O1315663   3.902   1.414   6.176
  143OSM    O1415664   3.669   1.505   6.210
  143OSM    O1115665   3.756   1.327   6.359
  143OSM    O1215666   3.710   1.278   6.120
  143OSM    C1S15667   3.839   1.214   6.381
  143OSM    H1S15668   3.944   1.248   6.373
  143OSM    H1T15669   3.815   1.130   6.312
  143OSM     NF15670   3.947   1.091   6.560
  143OSM    HNF15671   3.943   0.993   6.578
  143OSM    C2S15672   3.825   1.168   6.527
  143OSM    H2S15673   3.819   1.254   6.596
  143OSM    C3S15674   3.680   1.108   6.541
  143OSM    H3S15675   3.682   1.023   6.470
  143OSM     O315676   3.577   1.199   6.501
  143OSM    HO315677   3.635   1.266   6.462
  143OSM    C4S15678   3.656   1.043   6.683
  143OSM    H4S15679   3.716   0.954   6.705
  143OSM    C5S15680   3.573   1.099   6.779
  143OSM    H5S15681   3.521   1.193   6.758
  143OSM    C6S15682   3.557   1.042   6.914
  143OSM    H6S15683   3.622   0.952   6.926
  143OSM    H6T15684   3.456   0.996   6.913
  143OSM    C7S15685   3.560   1.135   7.034
  143OSM    H7S15686   3.480   1.210   7.018
  143OSM    H7T15687   3.661   1.180   7.045
  143OSM    C8S15688   3.517   1.063   7.159
  143OSM    H8S15689   3.592   0.985   7.182
  143OSM    H8T15690   3.422   1.011   7.137
  143OSM    C9S15691   3.494   1.150   7.281
  143OSM    H9S15692   3.387   1.139   7.305
  143OSM    H9T15693   3.511   1.254   7.247
  143OSM   C10S15694   3.581   1.114   7.404
  143OSM   H10S15695   3.688   1.140   7.385
  143OSM   H10T15696   3.579   1.004   7.415
  143OSM   C11S15697   3.518   1.175   7.521
  143OSM   H11S15698   3.426   1.122   7.552
  143OSM   H11T15699   3.491   1.281   7.497
  143OSM   C12S15700   3.620   1.177   7.642
  143OSM   H12S15701   3.717   1.227   7.619
  143OSM   H12T15702   3.639   1.072   7.671
  143OSM   C13S15703   3.550   1.245   7.763
  143OSM   H13S15704   3.440   1.226   7.755
  143OSM   H13T15705   3.560   1.354   7.747
  143OSM   C14S15706   3.610   1.204   7.901
  143OSM   H14S15707   3.572   1.282   7.971
  143OSM   H14T15708   3.721   1.200   7.898
  143OSM   C15S15709   3.558   1.069   7.943
  143OSM   H15S15710   3.589   0.986   7.876
  143OSM   H15T15711   3.447   1.064   7.942
  143OSM   C16S15712   3.618   1.029   8.075
  143OSM   H16S15713   3.729   1.029   8.073
  143OSM   H16T15714   3.584   0.925   8.095
  143OSM   C17S15715   3.557   1.107   8.200
  143OSM   H17S15716   3.446   1.099   8.203
  143OSM   H17T15717   3.601   1.209   8.204
  143OSM   C18S15718   3.606   1.038   8.331
  143OSM   H18S15719   3.564   0.935   8.336
  143OSM   H18T15720   3.572   1.103   8.414
  143OSM   H18U15721   3.717   1.033   8.341
  143OSM    C1F15722   4.056   1.162   6.601
  143OSM     OF15723   4.068   1.288   6.602
  143OSM    C2F15724   4.172   1.083   6.649
  143OSM    H2F15725   4.232   1.089   6.555
  143OSM    H2G15726   4.145   0.979   6.675
  143OSM    C3F15727   4.236   1.155   6.767
  143OSM    H3F15728   4.277   1.257   6.752
  143OSM    H3G15729   4.331   1.102   6.789
  143OSM    C4F15730   4.148   1.156   6.897
  143OSM    H4F15731   4.092   1.060   6.896
  143OSM    H4G15732   4.066   1.228   6.881
  143OSM    C5F15733   4.217   1.181   7.025
  143OSM    H5F15734   4.266   1.281   7.024
  143OSM    H5G15735   4.294   1.104   7.044
  143OSM    C6F15736   4.125   1.194   7.150
  143OSM    H6F15737   4.189   1.191   7.241
  143OSM    H6G15738   4.054   1.108   7.152
  143OSM    C7F15739   4.048   1.323   7.167
  143OSM    H7F15740   3.998   1.347   7.071
  143OSM    H7G15741   4.119   1.406   7.191
  143OSM    C8F15742   3.943   1.314   7.274
  143OSM    H8F15743   3.871   1.231   7.263
  143OSM    H8G15744   3.876   1.402   7.266
  143OSM    C9F15745   4.015   1.294   7.403
  143OSM    H9F15746   4.067   1.201   7.429
  143OSM   C10F15747   4.021   1.387   7.499
  143OSM   H10F15748   4.074   1.361   7.592
  143OSM   C11F15749   3.954   1.523   7.504
  143OSM   H11F15750   3.933   1.570   7.405
  143OSM   H11G15751   4.017   1.601   7.552
  143OSM   C12F15752   3.814   1.515   7.573
  143OSM   H12F15753   3.819   1.488   7.681
  143OSM   H12G15754   3.762   1.432   7.522
  143OSM   C13F15755   3.729   1.644   7.567
  143OSM   H13F15756   3.790   1.733   7.593
  143OSM   H13G15757   3.656   1.630   7.649
  143OSM   C14F15758   3.658   1.667   7.428
  143OSM   H14F15759   3.595   1.581   7.397
  143OSM   H14G15760   3.731   1.669   7.344
  143OSM   C15F15761   3.566   1.788   7.430
  143OSM   H15F15762   3.615   1.888   7.428
  143OSM   H15G15763   3.502   1.774   7.520
  143OSM   C16F15764   3.448   1.772   7.325
  143OSM   H16F15765   3.421   1.665   7.314
  143OSM   H16G15766   3.481   1.813   7.227
  143OSM   C17F15767   3.317   1.846   7.360
  143OSM   H17F15768   3.337   1.954   7.381
  143OSM   H17G15769   3.278   1.813   7.458
  143OSM   C18F15770   3.215   1.841   7.248
  143OSM   H18F15771   3.139   1.919   7.269
  143OSM   H18G15772   3.167   1.741   7.242
  143OSM   H18H15773   3.268   1.872   7.155
  144OSM      N15774   2.143   0.708   6.218
  144OSM    C1515775   2.132   0.839   6.145
  144OSM   H15A15776   2.114   0.818   6.040
  144OSM   H15B15777   2.223   0.896   6.146
  144OSM   H15C15778   2.052   0.900   6.185
  144OSM    C1415779   2.012   0.642   6.227
  144OSM   H14A15780   2.007   0.570   6.307
  144OSM   H14B15781   2.002   0.579   6.140
  144OSM   H14C15782   1.926   0.706   6.218
  144OSM    C1315783   2.246   0.624   6.141
  144OSM   H13A15784   2.342   0.671   6.122
  144OSM   H13B15785   2.197   0.604   6.047
  144OSM   H13C15786   2.279   0.535   6.193
  144OSM    C1215787   2.187   0.750   6.358
  144OSM   H12A15788   2.191   0.660   6.418
  144OSM   H12B15789   2.120   0.825   6.395
  144OSM    C1115790   2.336   0.802   6.374
  144OSM   H11A15791   2.406   0.726   6.333
  144OSM   H11B15792   2.364   0.803   6.482
  144OSM      P15793   2.466   0.981   6.235
  144OSM    O1315794   2.482   0.868   6.132
  144OSM    O1415795   2.440   1.113   6.177
  144OSM    O1115796   2.587   0.980   6.327
  144OSM    O1215797   2.349   0.939   6.334
  144OSM    C1S15798   2.588   1.035   6.458
  144OSM    H1S15799   2.489   1.074   6.487
  144OSM    H1T15800   2.658   1.121   6.459
  144OSM     NF15801   2.644   0.998   6.690
  144OSM    HNF15802   2.733   1.018   6.729
  144OSM    C2S15803   2.640   0.929   6.558
  144OSM    H2S15804   2.566   0.846   6.563
  144OSM    C3S15805   2.782   0.876   6.519
  144OSM    H3S15806   2.859   0.956   6.524
  144OSM     O315807   2.798   0.825   6.385
  144OSM    HO315808   2.722   0.864   6.341
  144OSM    C4S15809   2.823   0.772   6.623
  144OSM    H4S15810   2.860   0.813   6.718
  144OSM    C5S15811   2.830   0.641   6.601
  144OSM    H5S15812   2.804   0.614   6.498
  144OSM    C6S15813   2.877   0.526   6.688
  144OSM    H6S15814   2.958   0.466   6.642
  144OSM    H6T15815   2.790   0.460   6.710
  144OSM    C7S15816   2.923   0.585   6.826
  144OSM    H7S15817   2.855   0.663   6.867
  144OSM    H7T15818   3.022   0.633   6.812
  144OSM    C8S15819   2.931   0.464   6.921
  144OSM    H8S15820   2.986   0.380   6.874
  144OSM    H8T15821   2.825   0.443   6.945
  144OSM    C9S15822   3.017   0.492   7.046
  144OSM    H9S15823   2.991   0.592   7.085
  144OSM    H9T15824   3.124   0.506   7.019
  144OSM   C10S15825   2.984   0.403   7.163
  144OSM   H10S15826   3.015   0.301   7.133
  144OSM   H10T15827   2.874   0.411   7.176
  144OSM   C11S15828   3.058   0.455   7.294
  144OSM   H11S15829   3.020   0.559   7.293
  144OSM   H11T15830   3.166   0.452   7.270
  144OSM   C12S15831   3.011   0.397   7.433
  144OSM   H12S15832   3.022   0.288   7.444
  144OSM   H12T15833   2.909   0.435   7.458
  144OSM   C13S15834   3.082   0.471   7.546
  144OSM   H13S15835   3.046   0.575   7.532
  144OSM   H13T15836   3.193   0.475   7.552
  144OSM   C14S15837   3.039   0.414   7.679
  144OSM   H14S15838   3.070   0.308   7.673
  144OSM   H14T15839   2.929   0.423   7.693
  144OSM   C15S15840   3.110   0.469   7.794
  144OSM   H15S15841   3.107   0.580   7.799
  144OSM   H15T15842   3.213   0.429   7.792
  144OSM   C16S15843   3.049   0.421   7.928
  144OSM   H16S15844   2.938   0.419   7.918
  144OSM   H16T15845   3.082   0.484   8.013
  144OSM   C17S15846   3.093   0.277   7.970
  144OSM   H17S15847   3.200   0.279   7.999
  144OSM   H17T15848   3.084   0.211   7.881
  144OSM   C18S15849   3.019   0.229   8.097
  144OSM   H18S15850   3.003   0.316   8.164
  144OSM   H18T15851   3.079   0.155   8.154
  144OSM   H18U15852   2.916   0.200   8.069
  144OSM    C1F15853   2.538   1.041   6.757
  144OSM     OF15854   2.423   1.024   6.717
  144OSM    C2F15855   2.568   1.115   6.886
  144OSM    H2F15856   2.571   1.224   6.868
  144OSM    H2G15857   2.665   1.093   6.935
  144OSM    C3F15858   2.463   1.094   6.992
  144OSM    H3F15859   2.451   0.986   7.015
  144OSM    H3G15860   2.362   1.113   6.950
  144OSM    C4F15861   2.478   1.191   7.121
  144OSM    H4F15862   2.376   1.194   7.165
  144OSM    H4G15863   2.504   1.289   7.076
  144OSM    C5F15864   2.569   1.152   7.237
  144OSM    H5F15865   2.661   1.158   7.176
  144OSM    H5G15866   2.555   1.048   7.273
  144OSM    C6F15867   2.576   1.254   7.343
  144OSM    H6F15868   2.484   1.265   7.404
  144OSM    H6G15869   2.583   1.358   7.303
  144OSM    C7F15870   2.699   1.226   7.439
  144OSM    H7F15871   2.741   1.321   7.478
  144OSM    H7G15872   2.787   1.191   7.382
  144OSM    C8F15873   2.671   1.133   7.558
  144OSM    H8F15874   2.760   1.096   7.613
  144OSM    H8G15875   2.615   1.047   7.516
  144OSM    C9F15876   2.571   1.197   7.649
  144OSM    H9F15877   2.469   1.188   7.610
  144OSM   C10F15878   2.589   1.231   7.778
  144OSM   H10F15879   2.500   1.257   7.836
  144OSM   C11F15880   2.724   1.219   7.845
  144OSM   H11F15881   2.798   1.160   7.788
  144OSM   H11G15882   2.711   1.163   7.940
  144OSM   C12F15883   2.796   1.349   7.881
  144OSM   H12F15884   2.734   1.411   7.950
  144OSM   H12G15885   2.802   1.415   7.792
  144OSM   C13F15886   2.930   1.317   7.945
  144OSM   H13F15887   2.983   1.415   7.944
  144OSM   H13G15888   2.989   1.248   7.881
  144OSM   C14F15889   2.918   1.241   8.079
  144OSM   H14F15890   2.879   1.141   8.051
  144OSM   H14G15891   2.847   1.297   8.143
  144OSM   C15F15892   3.054   1.228   8.154
  144OSM   H15F15893   3.095   1.331   8.163
  144OSM   H15G15894   3.114   1.168   8.081
  144OSM   C16F15895   3.032   1.149   8.281
  144OSM   H16F15896   2.995   1.047   8.259
  144OSM   H16G15897   2.960   1.196   8.352
  144OSM   C17F15898   3.165   1.138   8.366
  144OSM   H17F15899   3.237   1.076   8.310
  144OSM   H17G15900   3.140   1.089   8.463
  144OSM   C18F15901   3.236   1.268   8.393
  144OSM   H18F15902   3.184   1.330   8.469
  144OSM   H18G15903   3.235   1.331   8.301
  144OSM   H18H15904   3.341   1.258   8.427
  145SAPE     N15905   0.883   1.556  10.918
  145SAPE   HN115906   0.795   1.574  10.969
  145SAPE   HN215907   0.891   1.452  10.914
  145SAPE   HN315908   0.971   1.589  10.962
  145SAPE   C1215909   0.884   1.622  10.780
  145SAPE  H12A15910   0.824   1.715  10.793
  145SAPE  H12B15911   0.824   1.556  10.714
  145SAPE   C1115912   1.024   1.645  10.726
  145SAPE  H11A15913   1.084   1.699  10.803
  145SAPE  H11B15914   1.016   1.706  10.633
  145SAPE     P15915   1.087   1.457  10.561
  145SAPE   O1315916   1.203   1.363  10.557
  145SAPE   O1415917   0.953   1.406  10.528
  145SAPE   O1215918   1.089   1.521  10.712
  145SAPE   O1115919   1.113   1.574  10.454
  145SAPE    C115920   1.244   1.627  10.419
  145SAPE    HA15921   1.254   1.724  10.471
  145SAPE    HB15922   1.325   1.560  10.458
  145SAPE    C215923   1.249   1.641  10.263
  145SAPE    HS15924   1.352   1.678  10.248
  145SAPE   O2115925   1.159   1.737  10.208
  145SAPE   C2115926   1.189   1.862  10.240
  145SAPE   O2215927   1.285   1.901  10.298
  145SAPE   C2215928   1.083   1.951  10.172
  145SAPE   H2R15929   1.035   1.889  10.093
  145SAPE   H2S15930   1.017   1.970  10.260
  145SAPE    C315931   1.227   1.506  10.193
  145SAPE    HX15932   1.125   1.476  10.226
  145SAPE    HY15933   1.289   1.426  10.239
  145SAPE   O3115934   1.224   1.526  10.052
  145SAPE   C3115935   1.342   1.533   9.995
  145SAPE   O3215936   1.451   1.523  10.052
  145SAPE   C3215937   1.311   1.540   9.843
  145SAPE   H2X15938   1.215   1.589   9.813
  145SAPE   H2Y15939   1.286   1.435   9.818
  145SAPE   C2315940   1.131   2.083  10.104
  145SAPE   H3R15941   1.195   2.133  10.180
  145SAPE   H3S15942   1.060   2.166  10.083
  145SAPE   C2415943   1.241   2.057   9.991
  145SAPE   H4R15944   1.202   2.016   9.896
  145SAPE   H4S15945   1.324   2.001  10.038
  145SAPE   C2515946   1.295   2.192   9.946
  145SAPE   H5R15947   1.224   2.264   9.903
  145SAPE   C2615948   1.421   2.237   9.961
  145SAPE   H6R15949   1.454   2.332   9.918
  145SAPE   C2715950   1.534   2.172  10.030
  145SAPE   H7R15951   1.628   2.188   9.974
  145SAPE   H7S15952   1.518   2.062  10.041
  145SAPE   C2815953   1.552   2.235  10.163
  145SAPE   H8R15954   1.470   2.230  10.236
  145SAPE   C2915955   1.670   2.279  10.210
  145SAPE   H9R15956   1.672   2.331  10.307
  145SAPE  C21015957   1.794   2.317  10.134
  145SAPE  H10R15958   1.826   2.250  10.051
  145SAPE  H10S15959   1.879   2.309  10.205
  145SAPE  C21115960   1.790   2.464  10.102
  145SAPE  H11R15961   1.761   2.531  10.184
  145SAPE  C21215962   1.780   2.519   9.981
  145SAPE  H12R15963   1.769   2.628   9.974
  145SAPE  C21315964   1.773   2.437   9.854
  145SAPE  H13R15965   1.775   2.328   9.876
  145SAPE  H13S15966   1.863   2.448   9.790
  145SAPE  C21415967   1.662   2.475   9.757
  145SAPE  H14R15968   1.612   2.572   9.771
  145SAPE  C21515969   1.636   2.396   9.648
  145SAPE  H15R15970   1.550   2.419   9.584
  145SAPE  C21615971   1.711   2.276   9.602
  145SAPE  H16R15972   1.761   2.231   9.690
  145SAPE  H16S15973   1.773   2.306   9.514
  145SAPE  C21715974   1.619   2.181   9.523
  145SAPE  H17R15975   1.672   2.095   9.478
  145SAPE  H17S15976   1.572   2.232   9.436
  145SAPE  C21815977   1.505   2.129   9.611
  145SAPE  H18R15978   1.437   2.210   9.645
  145SAPE  H18S15979   1.544   2.078   9.701
  145SAPE  C21915980   1.419   2.024   9.533
  145SAPE  H19R15981   1.497   1.947   9.516
  145SAPE  H19S15982   1.399   2.071   9.435
  145SAPE  C22015983   1.310   1.964   9.614
  145SAPE  H20R15984   1.343   1.924   9.712
  145SAPE  H20S15985   1.269   1.883   9.550
  145SAPE  H20T15986   1.228   2.038   9.621
  145SAPE   C3315987   1.429   1.567   9.765
  145SAPE   H3X15988   1.527   1.518   9.784
  145SAPE   H3Y15989   1.459   1.671   9.791
  145SAPE   C3415990   1.415   1.562   9.617
  145SAPE   H4X15991   1.503   1.615   9.574
  145SAPE   H4Y15992   1.329   1.619   9.575
  145SAPE   C3515993   1.423   1.425   9.551
  145SAPE   H5X15994   1.353   1.351   9.595
  145SAPE   H5Y15995   1.526   1.386   9.554
  145SAPE   C3615996   1.399   1.436   9.404
  145SAPE   H6X15997   1.459   1.526   9.378
  145SAPE   H6Y15998   1.290   1.446   9.387
  145SAPE   C3715999   1.459   1.318   9.321
  145SAPE   H7X16000   1.420   1.220   9.354
  145SAPE   H7Y16001   1.570   1.312   9.326
  145SAPE   C3816002   1.421   1.334   9.170
  145SAPE   H8X16003   1.313   1.360   9.171
  145SAPE   H8Y16004   1.431   1.237   9.117
  145SAPE   C3916005   1.492   1.451   9.090
  145SAPE   H9X16006   1.600   1.432   9.109
  145SAPE   H9Y16007   1.472   1.547   9.142
  145SAPE  C31016008   1.465   1.464   8.939
  145SAPE  H10X16009   1.360   1.454   8.905
  145SAPE  H10Y16010   1.507   1.375   8.887
  145SAPE  C31116011   1.530   1.592   8.873
  145SAPE  H11X16012   1.618   1.631   8.929
  145SAPE  H11Y16013   1.463   1.679   8.888
  145SAPE  C31216014   1.547   1.552   8.727
  145SAPE  H12X16015   1.444   1.549   8.685
  145SAPE  H12Y16016   1.598   1.456   8.703
  145SAPE  C31316017   1.622   1.657   8.649
  145SAPE  H13X16018   1.729   1.662   8.680
  145SAPE  H13Y16019   1.577   1.753   8.680
  145SAPE  C31416020   1.609   1.634   8.498
  145SAPE  H14X16021   1.512   1.676   8.464
  145SAPE  H14Y16022   1.608   1.524   8.478
  145SAPE  C31516023   1.722   1.699   8.424
  145SAPE  H15X16024   1.821   1.681   8.472
  145SAPE  H15Y16025   1.706   1.809   8.423
  145SAPE  C31616026   1.725   1.645   8.282
  145SAPE  H16X16027   1.629   1.674   8.233
  145SAPE  H16Y16028   1.729   1.533   8.283
  145SAPE  C31716029   1.844   1.697   8.197
  145SAPE  H17X16030   1.937   1.663   8.248
  145SAPE  H17Y16031   1.834   1.807   8.197
  145SAPE  C31816032   1.857   1.648   8.052
  145SAPE  H18X16033   1.881   1.540   8.041
  145SAPE  H18Y16034   1.947   1.704   8.018
  145SAPE  H18Z16035   1.769   1.671   7.989
  146SAPE     N16036   0.361   2.843  10.979
  146SAPE   HN116037   0.378   2.891  11.070
  146SAPE   HN216038   0.259   2.851  10.964
  146SAPE   HN316039   0.403   2.750  10.997
  146SAPE   C1216040   0.438   2.921  10.875
  146SAPE  H12A16041   0.541   2.881  10.875
  146SAPE  H12B16042   0.453   3.026  10.906
  146SAPE   C1116043   0.376   2.903  10.743
  146SAPE  H11A16044   0.371   2.798  10.705
  146SAPE  H11B16045   0.438   2.959  10.671
  146SAPE     P16046   0.129   2.894  10.661
  146SAPE   O1316047   0.153   2.749  10.658
  146SAPE   O1416048   0.005   2.931  10.734
  146SAPE   O1216049   0.248   2.971  10.738
  146SAPE   O1116050   0.131   2.961  10.517
  146SAPE    C116051   0.136   3.106  10.511
  146SAPE    HA16052   0.035   3.143  10.540
  146SAPE    HB16053   0.210   3.154  10.579
  146SAPE    C216054   0.167   3.135  10.362
  146SAPE    HS16055   0.142   3.241  10.338
  146SAPE   O2116056   0.097   3.053  10.269
  146SAPE   C2116057  -0.032   3.082  10.262
  146SAPE   O2216058  -0.093   3.176  10.312
  146SAPE   C2216059  -0.103   2.982  10.170
  146SAPE   H2R16060  -0.029   2.905  10.139
  146SAPE   H2S16061  -0.185   2.937  10.230
  146SAPE    C316062   0.322   3.117  10.342
  146SAPE    HX16063   0.347   3.027  10.402
  146SAPE    HY16064   0.366   3.212  10.380
  146SAPE   O3116065   0.338   3.098  10.204
  146SAPE   C3116066   0.446   3.031  10.170
  146SAPE   O3216067   0.526   2.979  10.248
  146SAPE   C3216068   0.448   3.027  10.015
  146SAPE   H2X16069   0.410   3.126   9.981
  146SAPE   H2Y16070   0.369   2.955   9.984
  146SAPE   C2316071  -0.174   3.058  10.057
  146SAPE   H3R16072  -0.216   3.158  10.077
  146SAPE   H3S16073  -0.275   3.014  10.043
  146SAPE   C2416074  -0.104   3.056   9.919
  146SAPE   H4R16075  -0.161   3.096   9.833
  146SAPE   H4S16076  -0.088   2.950   9.888
  146SAPE   C2516077   0.031   3.119   9.924
  146SAPE   H5R16078   0.066   3.170  10.015
  146SAPE   C2616079   0.123   3.113   9.824
  146SAPE   H6R16080   0.226   3.130   9.857
  146SAPE   C2716081   0.113   3.034   9.695
  146SAPE   H7R16082   0.188   3.076   9.624
  146SAPE   H7S16083   0.024   3.056   9.632
  146SAPE   C2816084   0.136   2.887   9.710
  146SAPE   H8R16085   0.079   2.843   9.793
  146SAPE   C2916086   0.218   2.806   9.636
  146SAPE   H9R16087   0.220   2.701   9.670
  146SAPE  C21016088   0.305   2.848   9.516
  146SAPE  H10R16089   0.318   2.959   9.511
  146SAPE  H10S16090   0.258   2.818   9.420
  146SAPE  C21116091   0.436   2.779   9.525
  146SAPE  H11R16092   0.481   2.777   9.626
  146SAPE  C21216093   0.510   2.747   9.420
  146SAPE  H12R16094   0.609   2.714   9.454
  146SAPE  C21316095   0.471   2.776   9.278
  146SAPE  H13R16096   0.455   2.884   9.255
  146SAPE  H13S16097   0.382   2.713   9.255
  146SAPE  C21416098   0.572   2.720   9.178
  146SAPE  H14R16099   0.649   2.652   9.217
  146SAPE  C21516100   0.576   2.747   9.051
  146SAPE  H15R16101   0.653   2.702   8.986
  146SAPE  C21616102   0.485   2.839   8.968
  146SAPE  H16R16103   0.418   2.900   9.031
  146SAPE  H16S16104   0.415   2.781   8.904
  146SAPE  C21716105   0.574   2.924   8.881
  146SAPE  H17R16106   0.661   2.968   8.936
  146SAPE  H17S16107   0.525   3.015   8.841
  146SAPE  C21816108   0.639   2.854   8.757
  146SAPE  H18R16109   0.709   2.773   8.788
  146SAPE  H18S16110   0.707   2.930   8.713
  146SAPE  C21916111   0.532   2.803   8.663
  146SAPE  H19R16112   0.449   2.875   8.648
  146SAPE  H19S16113   0.485   2.711   8.703
  146SAPE  C22016114   0.594   2.775   8.524
  146SAPE  H20R16115   0.626   2.874   8.484
  146SAPE  H20S16116   0.513   2.728   8.464
  146SAPE  H20T16117   0.685   2.712   8.529
  146SAPE   C3316118   0.588   2.993   9.958
  146SAPE   H3X16119   0.590   2.882   9.949
  146SAPE   H3Y16120   0.668   3.019  10.030
  146SAPE   C3416121   0.610   3.055   9.821
  146SAPE   H4X16122   0.539   3.012   9.747
  146SAPE   H4Y16123   0.713   3.023   9.793
  146SAPE   C3516124   0.617   3.210   9.816
  146SAPE   H5X16125   0.679   3.245   9.902
  146SAPE   H5Y16126   0.519   3.260   9.835
  146SAPE   C3616127   0.672   3.262   9.681
  146SAPE   H6X16128   0.777   3.230   9.663
  146SAPE   H6Y16129   0.667   3.373   9.692
  146SAPE   C3716130   0.599   3.223   9.553
  146SAPE   H7X16131   0.489   3.238   9.562
  146SAPE   H7Y16132   0.626   3.116   9.537
  146SAPE   C3816133   0.651   3.308   9.440
  146SAPE   H8X16134   0.758   3.278   9.429
  146SAPE   H8Y16135   0.659   3.413   9.475
  146SAPE   C3916136   0.572   3.283   9.315
  146SAPE   H9X16137   0.465   3.303   9.336
  146SAPE   H9Y16138   0.561   3.180   9.276
  146SAPE  C31016139   0.589   3.374   9.188
  146SAPE  H10X16140   0.697   3.380   9.162
  146SAPE  H10Y16141   0.557   3.475   9.219
  146SAPE  C31116142   0.526   3.316   9.059
  146SAPE  H11X16143   0.418   3.319   9.082
  146SAPE  H11Y16144   0.564   3.214   9.034
  146SAPE  C31216145   0.538   3.418   8.943
  146SAPE  H12X16146   0.500   3.521   8.963
  146SAPE  H12Y16147   0.473   3.379   8.861
  146SAPE  C31316148   0.677   3.420   8.880
  146SAPE  H13X16149   0.705   3.313   8.870
  146SAPE  H13Y16150   0.750   3.473   8.944
  146SAPE  C31416151   0.679   3.467   8.735
  146SAPE  H14X16152   0.651   3.573   8.721
  146SAPE  H14Y16153   0.589   3.418   8.692
  146SAPE  C31516154   0.802   3.417   8.656
  146SAPE  H15X16155   0.754   3.405   8.557
  146SAPE  H15Y16156   0.835   3.320   8.699
  146SAPE  C31616157   0.917   3.514   8.657
  146SAPE  H16X16158   0.956   3.525   8.760
  146SAPE  H16Y16159   0.868   3.612   8.641
  146SAPE  C31716160   1.028   3.494   8.555
  146SAPE  H17X16161   0.982   3.468   8.457
  146SAPE  H17Y16162   1.087   3.402   8.573
  146SAPE  C31816163   1.112   3.619   8.541
  146SAPE  H18X16164   1.188   3.609   8.461
  146SAPE  H18Y16165   1.166   3.629   8.637
  146SAPE  H18Z16166   1.053   3.709   8.515
  147SAPE     N16167   1.724   5.823  11.071
  147SAPE   HN116168   1.623   5.837  11.094
  147SAPE   HN216169   1.753   5.735  11.118
  147SAPE   HN316170   1.774   5.904  11.111
  147SAPE   C1216171   1.743   5.838  10.921
  147SAPE  H12A16172   1.703   5.746  10.873
  147SAPE  H12B16173   1.851   5.846  10.895
  147SAPE   C1116174   1.671   5.961  10.864
  147SAPE  H11A16175   1.671   5.958  10.753
  147SAPE  H11B16176   1.731   6.054  10.876
  147SAPE     P16177   1.440   6.059  10.842
  147SAPE   O1316178   1.317   6.076  10.923
  147SAPE   O1416179   1.519   6.175  10.799
  147SAPE   O1216180   1.535   5.964  10.915
  147SAPE   O1116181   1.407   5.977  10.716
  147SAPE    C116182   1.328   5.858  10.724
  147SAPE    HA16183   1.283   5.841  10.824
  147SAPE    HB16184   1.239   5.866  10.657
  147SAPE    C216185   1.416   5.739  10.681
  147SAPE    HS16186   1.471   5.702  10.770
  147SAPE   O2116187   1.500   5.785  10.572
  147SAPE   C2116188   1.624   5.734  10.570
  147SAPE   O2216189   1.680   5.666  10.649
  147SAPE   C2216190   1.685   5.770  10.432
  147SAPE   H2R16191   1.634   5.702  10.360
  147SAPE   H2S16192   1.656   5.873  10.404
  147SAPE    C316193   1.327   5.617  10.637
  147SAPE    HX16194   1.273   5.660  10.550
  147SAPE    HY16195   1.249   5.585  10.709
  147SAPE   O3116196   1.406   5.501  10.595
  147SAPE   C3116197   1.468   5.441  10.695
  147SAPE   O3216198   1.456   5.464  10.809
  147SAPE   C3216199   1.559   5.328  10.635
  147SAPE   H2X16200   1.663   5.351  10.666
  147SAPE   H2Y16201   1.554   5.348  10.525
  147SAPE   C2316202   1.844   5.773  10.425
  147SAPE   H3R16203   1.882   5.668  10.423
  147SAPE   H3S16204   1.876   5.802  10.527
  147SAPE   C2416205   1.915   5.848  10.313
  147SAPE   H4R16206   2.026   5.849  10.321
  147SAPE   H4S16207   1.885   5.952  10.338
  147SAPE   C2516208   1.855   5.813  10.173
  147SAPE   H5R16209   1.755   5.766  10.165
  147SAPE   C2616210   1.904   5.829  10.051
  147SAPE   H6R16211   1.851   5.789   9.964
  147SAPE   C2716212   2.042   5.900  10.038
  147SAPE   H7R16213   2.083   5.892  10.141
  147SAPE   H7S16214   2.022   6.008  10.026
  147SAPE   C2816215   2.138   5.842   9.939
  147SAPE   H8R16216   2.223   5.789   9.986
  147SAPE   C2916217   2.127   5.834   9.806
  147SAPE   H9R16218   2.205   5.787   9.744
  147SAPE  C21016219   2.026   5.892   9.716
  147SAPE  H10R16220   2.050   5.988   9.665
  147SAPE  H10S16221   1.936   5.918   9.775
  147SAPE  C21116222   1.979   5.787   9.618
  147SAPE  H11R16223   1.889   5.735   9.651
  147SAPE  C21216224   2.033   5.757   9.500
  147SAPE  H12R16225   1.995   5.669   9.446
  147SAPE  C21316226   2.153   5.821   9.430
  147SAPE  H13R16227   2.240   5.824   9.498
  147SAPE  H13S16228   2.125   5.924   9.397
  147SAPE  C21416229   2.198   5.747   9.306
  147SAPE  H14R16230   2.279   5.675   9.325
  147SAPE  C21516231   2.140   5.767   9.178
  147SAPE  H15R16232   2.191   5.706   9.102
  147SAPE  C21616233   2.020   5.846   9.140
  147SAPE  H16R16234   2.040   5.896   9.043
  147SAPE  H16S16235   2.019   5.926   9.218
  147SAPE  C21716236   1.896   5.753   9.138
  147SAPE  H17R16237   1.807   5.815   9.114
  147SAPE  H17S16238   1.875   5.703   9.236
  147SAPE  C21816239   1.904   5.642   9.035
  147SAPE  H18R16240   1.816   5.574   9.043
  147SAPE  H18S16241   1.989   5.577   9.067
  147SAPE  C21916242   1.908   5.688   8.889
  147SAPE  H19R16243   1.998   5.751   8.872
  147SAPE  H19S16244   1.819   5.751   8.870
  147SAPE  C22016245   1.909   5.564   8.790
  147SAPE  H20R16246   1.899   5.591   8.683
  147SAPE  H20S16247   1.820   5.501   8.808
  147SAPE  H20T16248   1.998   5.498   8.800
  147SAPE   C3316249   1.513   5.186  10.666
  147SAPE   H3X16250   1.405   5.177  10.644
  147SAPE   H3Y16251   1.522   5.173  10.776
  147SAPE   C3416252   1.595   5.077  10.588
  147SAPE   H4X16253   1.599   4.979  10.641
  147SAPE   H4Y16254   1.701   5.106  10.576
  147SAPE   C3516255   1.544   5.056  10.441
  147SAPE   H5X16256   1.553   5.158  10.397
  147SAPE   H5Y16257   1.435   5.035  10.440
  147SAPE   C3616258   1.606   4.941  10.373
  147SAPE   H6X16259   1.596   4.845  10.428
  147SAPE   H6Y16260   1.715   4.961  10.372
  147SAPE   C3716261   1.564   4.912  10.226
  147SAPE   H7X16262   1.454   4.916  10.211
  147SAPE   H7Y16263   1.589   4.807  10.200
  147SAPE   C3816264   1.638   4.992  10.115
  147SAPE   H8X16265   1.748   4.974  10.120
  147SAPE   H8Y16266   1.629   5.099  10.145
  147SAPE   C3916267   1.565   4.962   9.981
  147SAPE   H9X16268   1.594   5.038   9.905
  147SAPE   H9Y16269   1.456   4.973   9.995
  147SAPE  C31016270   1.600   4.825   9.920
  147SAPE  H10X16271   1.564   4.742   9.984
  147SAPE  H10Y16272   1.710   4.812   9.924
  147SAPE  C31116273   1.547   4.826   9.778
  147SAPE  H11X16274   1.610   4.883   9.706
  147SAPE  H11Y16275   1.448   4.873   9.763
  147SAPE  C31216276   1.523   4.687   9.715
  147SAPE  H12X16277   1.452   4.631   9.779
  147SAPE  H12Y16278   1.620   4.634   9.711
  147SAPE  C31316279   1.479   4.690   9.563
  147SAPE  H13X16280   1.380   4.739   9.556
  147SAPE  H13Y16281   1.463   4.585   9.528
  147SAPE  C31416282   1.584   4.749   9.466
  147SAPE  H14X16283   1.676   4.689   9.481
  147SAPE  H14Y16284   1.610   4.854   9.489
  147SAPE  C31516285   1.527   4.757   9.325
  147SAPE  H15X16286   1.605   4.806   9.263
  147SAPE  H15Y16287   1.435   4.820   9.322
  147SAPE  C31616288   1.475   4.637   9.262
  147SAPE  H16X16289   1.380   4.619   9.317
  147SAPE  H16Y16290   1.544   4.552   9.281
  147SAPE  C31716291   1.435   4.650   9.115
  147SAPE  H17X16292   1.463   4.555   9.065
  147SAPE  H17Y16293   1.504   4.718   9.061
  147SAPE  C31816294   1.286   4.679   9.091
  147SAPE  H18X16295   1.251   4.766   9.150
  147SAPE  H18Y16296   1.228   4.586   9.110
  147SAPE  H18Z16297   1.273   4.704   8.983
  148SAPE     N16298   3.194   1.598  10.766
  148SAPE   HN116299   3.132   1.528  10.723
  148SAPE   HN216300   3.154   1.614  10.860
  148SAPE   HN316301   3.186   1.676  10.697
  148SAPE   C1216302   3.337   1.558  10.765
  148SAPE  H12A16303   3.356   1.474  10.835
  148SAPE  H12B16304   3.396   1.646  10.799
  148SAPE   C1116305   3.380   1.531  10.620
  148SAPE  H11A16306   3.478   1.479  10.619
  148SAPE  H11B16307   3.392   1.627  10.565
  148SAPE     P16308   3.199   1.494  10.434
  148SAPE   O1316309   3.080   1.562  10.495
  148SAPE   O1416310   3.284   1.572  10.332
  148SAPE   O1216311   3.301   1.443  10.544
  148SAPE   O1116312   3.146   1.365  10.356
  148SAPE    C116313   3.015   1.314  10.386
  148SAPE    HA16314   2.996   1.282  10.491
  148SAPE    HB16315   2.933   1.382  10.357
  148SAPE    C216316   2.990   1.186  10.299
  148SAPE    HS16317   3.053   1.107  10.346
  148SAPE   O2116318   3.031   1.211  10.169
  148SAPE   C2116319   3.087   1.110  10.105
  148SAPE   O2216320   3.115   1.001  10.151
  148SAPE   C2216321   3.125   1.156   9.960
  148SAPE   H2R16322   3.030   1.137   9.904
  148SAPE   H2S16323   3.139   1.265   9.973
  148SAPE    C316324   2.842   1.131  10.304
  148SAPE    HX16325   2.776   1.213  10.270
  148SAPE    HY16326   2.816   1.114  10.411
  148SAPE   O3116327   2.825   1.013  10.228
  148SAPE   C3116328   2.832   0.897  10.298
  148SAPE   O3216329   2.878   0.874  10.404
  148SAPE   C3216330   2.769   0.785  10.216
  148SAPE   H2X16331   2.701   0.722  10.276
  148SAPE   H2Y16332   2.863   0.731  10.195
  148SAPE   C2316333   3.246   1.089   9.895
  148SAPE   H3R16334   3.255   0.990   9.944
  148SAPE   H3S16335   3.341   1.146   9.912
  148SAPE   C2416336   3.229   1.080   9.741
  148SAPE   H4R16337   3.150   1.004   9.726
  148SAPE   H4S16338   3.320   1.029   9.702
  148SAPE   C2516339   3.206   1.213   9.672
  148SAPE   H5R16340   3.214   1.304   9.733
  148SAPE   C2616341   3.195   1.237   9.539
  148SAPE   H6R16342   3.156   1.335   9.509
  148SAPE   C2716343   3.194   1.131   9.427
  148SAPE   H7R16344   3.109   1.061   9.435
  148SAPE   H7S16345   3.283   1.065   9.431
  148SAPE   C2816346   3.188   1.198   9.294
  148SAPE   H8R16347   3.103   1.268   9.297
  148SAPE   C2916348   3.259   1.186   9.183
  148SAPE   H9R16349   3.226   1.246   9.097
  148SAPE  C21016350   3.374   1.087   9.169
  148SAPE  H10R16351   3.341   0.981   9.166
  148SAPE  H10S16352   3.434   1.100   9.262
  148SAPE  C21116353   3.470   1.130   9.064
  148SAPE  H11R16354   3.515   1.230   9.064
  148SAPE  C21216355   3.516   1.046   8.968
  148SAPE  H12R16356   3.601   1.079   8.906
  148SAPE  C21316357   3.484   0.900   8.949
  148SAPE  H13R16358   3.460   0.888   8.841
  148SAPE  H13S16359   3.390   0.872   9.000
  148SAPE  C21416360   3.611   0.821   8.994
  148SAPE  H14R16361   3.617   0.828   9.104
  148SAPE  C21516362   3.698   0.757   8.917
  148SAPE  H15R16363   3.787   0.720   8.970
  148SAPE  C21616364   3.700   0.749   8.765
  148SAPE  H16R16365   3.757   0.837   8.727
  148SAPE  H16S16366   3.598   0.773   8.727
  148SAPE  C21716367   3.760   0.626   8.703
  148SAPE  H17R16368   3.866   0.600   8.726
  148SAPE  H17S16369   3.756   0.643   8.593
  148SAPE  C21816370   3.673   0.505   8.744
  148SAPE  H18R16371   3.567   0.537   8.758
  148SAPE  H18S16372   3.719   0.476   8.840
  148SAPE  C21916373   3.680   0.398   8.636
  148SAPE  H19R16374   3.787   0.372   8.616
  148SAPE  H19S16375   3.647   0.432   8.536
  148SAPE  C22016376   3.606   0.269   8.681
  148SAPE  H20R16377   3.498   0.295   8.687
  148SAPE  H20S16378   3.636   0.231   8.781
  148SAPE  H20T16379   3.614   0.197   8.596
  148SAPE   C3316380   2.710   0.836  10.073
  148SAPE   H3X16381   2.646   0.927  10.078
  148SAPE   H3Y16382   2.645   0.761  10.023
  148SAPE   C3416383   2.807   0.869   9.959
  148SAPE   H4X16384   2.869   0.780   9.935
  148SAPE   H4Y16385   2.878   0.953   9.974
  148SAPE   C3516386   2.734   0.904   9.826
  148SAPE   H5X16387   2.701   1.009   9.821
  148SAPE   H5Y16388   2.648   0.835   9.814
  148SAPE   C3616389   2.818   0.875   9.701
  148SAPE   H6X16390   2.848   0.769   9.690
  148SAPE   H6Y16391   2.914   0.930   9.711
  148SAPE   C3716392   2.740   0.903   9.568
  148SAPE   H7X16393   2.696   1.005   9.579
  148SAPE   H7Y16394   2.662   0.827   9.547
  148SAPE   C3816395   2.837   0.900   9.453
  148SAPE   H8X16396   2.898   0.808   9.460
  148SAPE   H8Y16397   2.903   0.988   9.471
  148SAPE   C3916398   2.764   0.896   9.310
  148SAPE   H9X16399   2.724   0.997   9.285
  148SAPE   H9Y16400   2.675   0.830   9.320
  148SAPE  C31016401   2.855   0.837   9.202
  148SAPE  H10X16402   2.901   0.747   9.248
  148SAPE  H10Y16403   2.927   0.916   9.171
  148SAPE  C31116404   2.773   0.802   9.073
  148SAPE  H11X16405   2.713   0.881   9.024
  148SAPE  H11Y16406   2.683   0.742   9.101
  148SAPE  C31216407   2.858   0.716   8.969
  148SAPE  H12X16408   2.917   0.644   9.030
  148SAPE  H12Y16409   2.927   0.785   8.916
  148SAPE  C31316410   2.771   0.636   8.876
  148SAPE  H13X16411   2.710   0.569   8.940
  148SAPE  H13Y16412   2.834   0.570   8.813
  148SAPE  C31416413   2.667   0.720   8.802
  148SAPE  H14X16414   2.730   0.798   8.756
  148SAPE  H14Y16415   2.598   0.782   8.864
  148SAPE  C31516416   2.586   0.643   8.694
  148SAPE  H15X16417   2.545   0.548   8.736
  148SAPE  H15Y16418   2.652   0.610   8.611
  148SAPE  C31616419   2.469   0.733   8.644
  148SAPE  H16X16420   2.517   0.832   8.628
  148SAPE  H16Y16421   2.393   0.748   8.724
  148SAPE  C31716422   2.407   0.685   8.515
  148SAPE  H17X16423   2.481   0.680   8.432
  148SAPE  H17Y16424   2.322   0.754   8.494
  148SAPE  C31816425   2.338   0.547   8.527
  148SAPE  H18X16426   2.338   0.511   8.421
  148SAPE  H18Y16427   2.237   0.562   8.571
  148SAPE  H18Z16428   2.404   0.477   8.581
  149SAPE     N16429   5.886   2.279  11.050
  149SAPE   HN116430   5.988   2.270  11.069
  149SAPE   HN216431   5.832   2.220  11.117
  149SAPE   HN316432   5.870   2.252  10.950
  149SAPE   C1216433   5.847   2.417  11.093
  149SAPE  H12A16434   5.895   2.425  11.193
  149SAPE  H12B16435   5.738   2.414  11.114
  149SAPE   C1116436   5.906   2.514  10.993
  149SAPE  H11A16437   5.862   2.485  10.896
  149SAPE  H11B16438   6.015   2.494  10.989
  149SAPE     P16439   5.764   2.745  11.012
  149SAPE   O1316440   5.669   2.697  11.116
  149SAPE   O1416441   5.810   2.885  11.015
  149SAPE   O1216442   5.887   2.648  11.025
  149SAPE   O1116443   5.698   2.723  10.872
  149SAPE    C116444   5.767   2.704  10.751
  149SAPE    HA16445   5.872   2.671  10.765
  149SAPE    HB16446   5.707   2.631  10.693
  149SAPE    C216447   5.753   2.836  10.672
  149SAPE    HS16448   5.791   2.917  10.739
  149SAPE   O2116449   5.616   2.860  10.636
  149SAPE   C2116450   5.573   2.982  10.592
  149SAPE   O2216451   5.652   3.079  10.591
  149SAPE   C2216452   5.427   2.988  10.563
  149SAPE   H2R16453   5.371   3.019  10.654
  149SAPE   H2S16454   5.413   3.070  10.490
  149SAPE    C316455   5.833   2.834  10.538
  149SAPE    HX16456   5.942   2.847  10.558
  149SAPE    HY16457   5.801   2.917  10.472
  149SAPE   O3116458   5.807   2.708  10.472
  149SAPE   C3116459   5.776   2.712  10.341
  149SAPE   O3216460   5.792   2.811  10.269
  149SAPE   C3216461   5.712   2.584  10.294
  149SAPE   H2X16462   5.606   2.598  10.324
  149SAPE   H2Y16463   5.738   2.489  10.345
  149SAPE   C2316464   5.369   2.857  10.489
  149SAPE   H3R16465   5.347   2.788  10.573
  149SAPE   H3S16466   5.452   2.822  10.425
  149SAPE   C2416467   5.249   2.869  10.394
  149SAPE   H4R16468   5.273   2.952  10.324
  149SAPE   H4S16469   5.163   2.887  10.462
  149SAPE   C2516470   5.214   2.734  10.334
  149SAPE   H5R16471   5.176   2.651  10.396
  149SAPE   C2616472   5.205   2.713  10.199
  149SAPE   H6R16473   5.179   2.611  10.166
  149SAPE   C2716474   5.237   2.812  10.092
  149SAPE   H7R16475   5.346   2.827  10.110
  149SAPE   H7S16476   5.190   2.909  10.117
  149SAPE   C2816477   5.210   2.751   9.955
  149SAPE   H8R16478   5.203   2.642   9.937
  149SAPE   C2916479   5.203   2.824   9.844
  149SAPE   H9R16480   5.168   2.768   9.755
  149SAPE  C21016481   5.223   2.971   9.820
  149SAPE  H10R16482   5.229   3.016   9.921
  149SAPE  H10S16483   5.136   3.009   9.763
  149SAPE  C21116484   5.345   2.989   9.733
  149SAPE  H11R16485   5.439   3.025   9.778
  149SAPE  C21216486   5.358   2.968   9.602
  149SAPE  H12R16487   5.460   2.962   9.560
  149SAPE  C21316488   5.251   2.939   9.504
  149SAPE  H13R16489   5.179   2.867   9.550
  149SAPE  H13S16490   5.292   2.889   9.414
  149SAPE  C21416491   5.183   3.061   9.451
  149SAPE  H14R16492   5.105   3.103   9.516
  149SAPE  C21516493   5.204   3.117   9.334
  149SAPE  H15R16494   5.152   3.210   9.307
  149SAPE  C21616495   5.310   3.089   9.237
  149SAPE  H16R16496   5.372   2.999   9.254
  149SAPE  H16S16497   5.369   3.182   9.252
  149SAPE  C21716498   5.264   3.093   9.085
  149SAPE  H17R16499   5.163   3.137   9.069
  149SAPE  H17S16500   5.255   2.988   9.049
  149SAPE  C21816501   5.374   3.144   8.983
  149SAPE  H18R16502   5.355   3.094   8.886
  149SAPE  H18S16503   5.479   3.119   9.012
  149SAPE  C21916504   5.354   3.299   8.976
  149SAPE  H19R16505   5.454   3.335   8.942
  149SAPE  H19S16506   5.341   3.339   9.078
  149SAPE  C22016507   5.250   3.355   8.878
  149SAPE  H20R16508   5.145   3.327   8.901
  149SAPE  H20S16509   5.276   3.307   8.781
  149SAPE  H20T16510   5.253   3.466   8.872
  149SAPE   C3316511   5.724   2.571  10.137
  149SAPE   H3X16512   5.821   2.526  10.107
  149SAPE   H3Y16513   5.702   2.671  10.094
  149SAPE   C3416514   5.615   2.474  10.090
  149SAPE   H4X16515   5.520   2.512  10.134
  149SAPE   H4Y16516   5.633   2.368  10.118
  149SAPE   C3516517   5.589   2.501   9.934
  149SAPE   H5X16518   5.668   2.441   9.883
  149SAPE   H5Y16519   5.609   2.608   9.913
  149SAPE   C3616520   5.455   2.455   9.884
  149SAPE   H6X16521   5.374   2.527   9.904
  149SAPE   H6Y16522   5.433   2.352   9.919
  149SAPE   C3716523   5.448   2.437   9.728
  149SAPE   H7X16524   5.340   2.419   9.712
  149SAPE   H7Y16525   5.510   2.347   9.707
  149SAPE   C3816526   5.514   2.544   9.643
  149SAPE   H8X16527   5.623   2.539   9.661
  149SAPE   H8Y16528   5.486   2.651   9.656
  149SAPE   C3916529   5.473   2.513   9.498
  149SAPE   H9X16530   5.363   2.518   9.486
  149SAPE   H9Y16531   5.492   2.406   9.477
  149SAPE  C31016532   5.551   2.606   9.403
  149SAPE  H10X16533   5.643   2.554   9.366
  149SAPE  H10Y16534   5.577   2.691   9.469
  149SAPE  C31116535   5.459   2.647   9.289
  149SAPE  H11X16536   5.370   2.698   9.332
  149SAPE  H11Y16537   5.413   2.554   9.248
  149SAPE  C31216538   5.518   2.739   9.180
  149SAPE  H12X16539   5.550   2.834   9.227
  149SAPE  H12Y16540   5.439   2.769   9.109
  149SAPE  C31316541   5.637   2.685   9.098
  149SAPE  H13X16542   5.638   2.728   8.996
  149SAPE  H13Y16543   5.623   2.575   9.083
  149SAPE  C31416544   5.775   2.716   9.156
  149SAPE  H14X16545   5.761   2.710   9.266
  149SAPE  H14Y16546   5.790   2.824   9.140
  149SAPE  C31516547   5.880   2.622   9.113
  149SAPE  H15X16548   5.899   2.633   9.004
  149SAPE  H15Y16549   5.848   2.516   9.125
  149SAPE  C31616550   6.018   2.630   9.195
  149SAPE  H16X16551   6.084   2.548   9.160
  149SAPE  H16Y16552   6.007   2.614   9.304
  149SAPE  C31716553   6.088   2.765   9.180
  149SAPE  H17X16554   6.020   2.852   9.185
  149SAPE  H17Y16555   6.132   2.779   9.079
  149SAPE  C31816556   6.199   2.785   9.291
  149SAPE  H18X16557   6.270   2.857   9.244
  149SAPE  H18Y16558   6.244   2.685   9.302
  149SAPE  H18Z16559   6.149   2.828   9.380
  150SAPE     N16560   0.165   2.491  10.719
  150SAPE   HN116561   0.264   2.472  10.744
  150SAPE   HN216562   0.127   2.423  10.650
  150SAPE   HN316563   0.171   2.590  10.687
  150SAPE   C1216564   0.080   2.505  10.843
  150SAPE  H12A16565  -0.005   2.572  10.820
  150SAPE  H12B16566   0.149   2.555  10.914
  150SAPE   C1116567   0.028   2.366  10.898
  150SAPE  H11A16568  -0.048   2.328  10.825
  150SAPE  H11B16569  -0.029   2.390  10.990
  150SAPE     P16570   0.187   2.148  10.853
  150SAPE   O1316571   0.303   2.096  10.931
  150SAPE   O1416572   0.082   2.049  10.818
  150SAPE   O1216573   0.126   2.275  10.933
  150SAPE   O1116574   0.242   2.213  10.719
  150SAPE    C116575   0.362   2.175  10.657
  150SAPE    HA16576   0.451   2.198  10.718
  150SAPE    HB16577   0.359   2.066  10.635
  150SAPE    C216578   0.374   2.247  10.512
  150SAPE    HS16579   0.367   2.357  10.530
  150SAPE   O2116580   0.268   2.200  10.424
  150SAPE   C2116581   0.156   2.268  10.421
  150SAPE   O2216582   0.118   2.352  10.503
  150SAPE   C2216583   0.071   2.213  10.298
  150SAPE   H2R16584   0.065   2.297  10.226
  150SAPE   H2S16585   0.110   2.125  10.243
  150SAPE    C316586   0.506   2.230  10.449
  150SAPE    HX16587   0.539   2.126  10.472
  150SAPE    HY16588   0.568   2.307  10.501
  150SAPE   O3116589   0.493   2.251  10.311
  150SAPE   C3116590   0.610   2.244  10.255
  150SAPE   O3216591   0.714   2.219  10.313
  150SAPE   C3216592   0.595   2.266  10.102
  150SAPE   H2X16593   0.586   2.377  10.092
  150SAPE   H2Y16594   0.500   2.220  10.067
  150SAPE   C2316595  -0.063   2.166  10.351
  150SAPE   H3R16596  -0.132   2.242  10.393
  150SAPE   H3S16597  -0.049   2.088  10.429
  150SAPE   C2416598  -0.144   2.095  10.235
  150SAPE   H4R16599  -0.229   2.044  10.285
  150SAPE   H4S16600  -0.082   2.009  10.202
  150SAPE   C2516601  -0.197   2.195  10.131
  150SAPE   H5R16602  -0.277   2.265  10.159
  150SAPE   C2616603  -0.154   2.191  10.006
  150SAPE   H6R16604  -0.194   2.267   9.937
  150SAPE   C2716605  -0.040   2.102   9.954
  150SAPE   H7R16606  -0.093   2.039   9.880
  150SAPE   H7S16607   0.002   2.025  10.021
  150SAPE   C2816608   0.065   2.184   9.882
  150SAPE   H8R16609   0.128   2.244   9.948
  150SAPE   C2916610   0.097   2.169   9.752
  150SAPE   H9R16611   0.165   2.244   9.711
  150SAPE  C21016612   0.040   2.080   9.646
  150SAPE  H10R16613  -0.037   2.136   9.589
  150SAPE  H10S16614  -0.011   1.988   9.682
  150SAPE  C21116615   0.158   2.039   9.563
  150SAPE  H11R16616   0.252   2.020   9.618
  150SAPE  C21216617   0.154   2.020   9.428
  150SAPE  H12R16618   0.245   1.988   9.374
  150SAPE  C21316619   0.038   2.037   9.332
  150SAPE  H13R16620  -0.045   2.097   9.375
  150SAPE  H13S16621  -0.003   1.935   9.314
  150SAPE  C21416622   0.078   2.080   9.193
  150SAPE  H14R16623   0.060   2.187   9.173
  150SAPE  C21516624   0.101   1.996   9.089
  150SAPE  H15R16625   0.140   2.038   8.995
  150SAPE  C21616626   0.100   1.845   9.093
  150SAPE  H16R16627   0.018   1.800   9.153
  150SAPE  H16S16628   0.195   1.820   9.146
  150SAPE  C21716629   0.097   1.782   8.960
  150SAPE  H17R16630   0.140   1.681   8.974
  150SAPE  H17S16631   0.154   1.843   8.887
  150SAPE  C21816632  -0.052   1.763   8.921
  150SAPE  H18R16633  -0.091   1.867   8.915
  150SAPE  H18S16634  -0.105   1.702   8.998
  150SAPE  C21916635  -0.056   1.694   8.787
  150SAPE  H19R16636   0.000   1.599   8.774
  150SAPE  H19S16637  -0.012   1.756   8.707
  150SAPE  C22016638  -0.201   1.671   8.741
  150SAPE  H20R16639  -0.205   1.647   8.633
  150SAPE  H20S16640  -0.278   1.746   8.768
  150SAPE  H20T16641  -0.239   1.578   8.789
  150SAPE   C3316642   0.722   2.215  10.025
  150SAPE   H3X16643   0.807   2.220  10.096
  150SAPE   H3Y16644   0.737   2.270   9.930
  150SAPE   C3416645   0.706   2.063   9.989
  150SAPE   H4X16646   0.606   2.065   9.940
  150SAPE   H4Y16647   0.701   1.989  10.071
  150SAPE   C3516648   0.812   2.007   9.895
  150SAPE   H5X16649   0.900   2.001   9.963
  150SAPE   H5Y16650   0.845   2.078   9.817
  150SAPE   C3616651   0.772   1.873   9.829
  150SAPE   H6X16652   0.699   1.899   9.749
  150SAPE   H6Y16653   0.706   1.813   9.895
  150SAPE   C3716654   0.892   1.799   9.772
  150SAPE   H7X16655   0.861   1.701   9.731
  150SAPE   H7Y16656   0.964   1.773   9.852
  150SAPE   C3816657   0.974   1.859   9.652
  150SAPE   H8X16658   1.076   1.814   9.655
  150SAPE   H8Y16659   0.985   1.969   9.658
  150SAPE   C3916660   0.914   1.828   9.516
  150SAPE   H9X16661   0.812   1.870   9.519
  150SAPE   H9Y16662   0.905   1.719   9.495
  150SAPE  C31016663   0.982   1.903   9.399
  150SAPE  H10X16664   1.039   1.991   9.434
  150SAPE  H10Y16665   0.904   1.948   9.333
  150SAPE  C31116666   1.079   1.804   9.325
  150SAPE  H11X16667   1.004   1.740   9.273
  150SAPE  H11Y16668   1.138   1.746   9.399
  150SAPE  C31216669   1.154   1.879   9.210
  150SAPE  H12X16670   1.235   1.822   9.160
  150SAPE  H12Y16671   1.214   1.961   9.255
  150SAPE  C31316672   1.081   1.916   9.076
  150SAPE  H13X16673   1.146   1.989   9.022
  150SAPE  H13Y16674   0.988   1.965   9.114
  150SAPE  C31416675   1.051   1.797   8.977
  150SAPE  H14X16676   0.967   1.749   9.034
  150SAPE  H14Y16677   1.141   1.733   8.985
  150SAPE  C31516678   1.012   1.836   8.843
  150SAPE  H15X16679   1.021   1.755   8.766
  150SAPE  H15Y16680   1.075   1.921   8.810
  150SAPE  C31616681   0.872   1.902   8.835
  150SAPE  H16X16682   0.865   1.991   8.902
  150SAPE  H16Y16683   0.796   1.825   8.861
  150SAPE  C31716684   0.839   1.937   8.687
  150SAPE  H17X16685   0.938   1.961   8.642
  150SAPE  H17Y16686   0.769   2.021   8.669
  150SAPE  C31816687   0.791   1.806   8.610
  150SAPE  H18X16688   0.822   1.807   8.503
  150SAPE  H18Y16689   0.681   1.809   8.597
  150SAPE  H18Z16690   0.814   1.709   8.657
  151SAPE     N16691   4.484   5.498  10.368
  151SAPE   HN116692   4.578   5.473  10.405
  151SAPE   HN216693   4.429   5.543  10.444
  151SAPE   HN316694   4.432   5.412  10.339
  151SAPE   C1216695   4.501   5.606  10.266
  151SAPE  H12A16696   4.524   5.550  10.173
  151SAPE  H12B16697   4.597   5.657  10.287
  151SAPE   C1116698   4.377   5.693  10.264
  151SAPE  H11A16699   4.288   5.627  10.258
  151SAPE  H11B16700   4.386   5.765  10.180
  151SAPE     P16701   4.372   5.918  10.386
  151SAPE   O1316702   4.293   5.969  10.497
  151SAPE   O1416703   4.514   5.956  10.383
  151SAPE   O1216704   4.357   5.759  10.386
  151SAPE   O1116705   4.307   5.967  10.250
  151SAPE    C116706   4.284   6.105  10.226
  151SAPE    HA16707   4.221   6.112  10.135
  151SAPE    HB16708   4.232   6.163  10.304
  151SAPE    C216709   4.421   6.181  10.182
  151SAPE    HS16710   4.482   6.188  10.274
  151SAPE   O2116711   4.376   6.298  10.127
  151SAPE   C2116712   4.346   6.396  10.200
  151SAPE   O2216713   4.363   6.414  10.318
  151SAPE   C2216714   4.278   6.502  10.112
  151SAPE   H2R16715   4.333   6.501  10.015
  151SAPE   H2S16716   4.174   6.469  10.090
  151SAPE    C316717   4.511   6.106  10.074
  151SAPE    HX16718   4.447   6.065   9.993
  151SAPE    HY16719   4.554   6.015  10.122
  151SAPE   O3116720   4.626   6.183  10.018
  151SAPE   C3116721   4.700   6.120   9.936
  151SAPE   O3216722   4.696   5.999   9.911
  151SAPE   C3216723   4.803   6.216   9.869
  151SAPE   H2X16724   4.837   6.287   9.947
  151SAPE   H2Y16725   4.765   6.293   9.798
  151SAPE   C2316726   4.270   6.643  10.163
  151SAPE   H3R16727   4.355   6.673  10.228
  151SAPE   H3S16728   4.182   6.644  10.230
  151SAPE   C2416729   4.276   6.751  10.059
  151SAPE   H4R16730   4.362   6.737   9.991
  151SAPE   H4S16731   4.295   6.839  10.123
  151SAPE   C2516732   4.144   6.766   9.989
  151SAPE   H5R16733   4.059   6.797  10.051
  151SAPE   C2616734   4.124   6.738   9.863
  151SAPE   H6R16735   4.021   6.735   9.828
  151SAPE   C2716736   4.233   6.705   9.763
  151SAPE   H7R16737   4.334   6.692   9.806
  151SAPE   H7S16738   4.247   6.790   9.693
  151SAPE   C2816739   4.194   6.586   9.674
  151SAPE   H8R16740   4.141   6.503   9.723
  151SAPE   C2916741   4.206   6.581   9.537
  151SAPE   H9R16742   4.165   6.499   9.476
  151SAPE  C21016743   4.294   6.667   9.448
  151SAPE  H10R16744   4.369   6.729   9.502
  151SAPE  H10S16745   4.221   6.736   9.400
  151SAPE  C21116746   4.361   6.570   9.352
  151SAPE  H11R16747   4.438   6.514   9.408
  151SAPE  C21216748   4.327   6.544   9.225
  151SAPE  H12R16749   4.381   6.473   9.161
  151SAPE  C21316750   4.225   6.626   9.151
  151SAPE  H13R16751   4.150   6.664   9.224
  151SAPE  H13S16752   4.148   6.565   9.100
  151SAPE  C21416753   4.285   6.728   9.060
  151SAPE  H14R16754   4.336   6.803   9.122
  151SAPE  C21516755   4.299   6.727   8.929
  151SAPE  H15R16756   4.344   6.820   8.891
  151SAPE  C21616757   4.250   6.631   8.826
  151SAPE  H16R16758   4.195   6.690   8.750
  151SAPE  H16S16759   4.167   6.579   8.879
  151SAPE  C21716760   4.364   6.541   8.762
  151SAPE  H17R16761   4.426   6.499   8.844
  151SAPE  H17S16762   4.430   6.606   8.700
  151SAPE  C21816763   4.312   6.425   8.675
  151SAPE  H18R16764   4.392   6.358   8.636
  151SAPE  H18S16765   4.253   6.470   8.592
  151SAPE  C21916766   4.219   6.329   8.758
  151SAPE  H19R16767   4.126   6.386   8.778
  151SAPE  H19S16768   4.261   6.297   8.855
  151SAPE  C22016769   4.178   6.196   8.679
  151SAPE  H20R16770   4.267   6.137   8.649
  151SAPE  H20S16771   4.116   6.227   8.591
  151SAPE  H20T16772   4.131   6.127   8.752
  151SAPE   C3316773   4.932   6.152   9.816
  151SAPE   H3X16774   4.960   6.073   9.889
  151SAPE   H3Y16775   5.008   6.233   9.821
  151SAPE   C3416776   4.922   6.083   9.671
  151SAPE   H4X16777   4.824   6.036   9.648
  151SAPE   H4Y16778   5.003   6.008   9.679
  151SAPE   C3516779   4.955   6.184   9.559
  151SAPE   H5X16780   5.062   6.216   9.564
  151SAPE   H5Y16781   4.882   6.266   9.549
  151SAPE   C3616782   4.962   6.101   9.422
  151SAPE   H6X16783   4.858   6.064   9.411
  151SAPE   H6Y16784   5.026   6.012   9.440
  151SAPE   C3716785   4.997   6.184   9.307
  151SAPE   H7X16786   5.105   6.207   9.307
  151SAPE   H7Y16787   4.944   6.281   9.316
  151SAPE   C3816788   4.946   6.122   9.174
  151SAPE   H8X16789   4.835   6.110   9.182
  151SAPE   H8Y16790   4.991   6.021   9.167
  151SAPE   C3916791   4.992   6.203   9.050
  151SAPE   H9X16792   5.099   6.233   9.059
  151SAPE   H9Y16793   4.927   6.293   9.052
  151SAPE  C31016794   4.983   6.137   8.910
  151SAPE  H10X16795   5.010   6.213   8.834
  151SAPE  H10Y16796   4.878   6.108   8.889
  151SAPE  C31116797   5.092   6.035   8.888
  151SAPE  H11X16798   5.068   5.937   8.934
  151SAPE  H11Y16799   5.190   6.070   8.927
  151SAPE  C31216800   5.116   6.000   8.739
  151SAPE  H12X16801   5.025   5.978   8.679
  151SAPE  H12Y16802   5.170   5.903   8.736
  151SAPE  C31316803   5.189   6.111   8.657
  151SAPE  H13X16804   5.297   6.111   8.681
  151SAPE  H13Y16805   5.132   6.205   8.677
  151SAPE  C31416806   5.171   6.111   8.501
  151SAPE  H14X16807   5.061   6.117   8.483
  151SAPE  H14Y16808   5.213   6.015   8.463
  151SAPE  C31516809   5.237   6.236   8.435
  151SAPE  H15X16810   5.344   6.221   8.461
  151SAPE  H15Y16811   5.200   6.327   8.487
  151SAPE  C31616812   5.224   6.239   8.288
  151SAPE  H16X16813   5.136   6.294   8.248
  151SAPE  H16Y16814   5.223   6.132   8.255
  151SAPE  C31716815   5.349   6.302   8.218
  151SAPE  H17X16816   5.436   6.243   8.252
  151SAPE  H17Y16817   5.368   6.403   8.260
  151SAPE  C31816818   5.337   6.299   8.068
  151SAPE  H18X16819   5.264   6.376   8.037
  151SAPE  H18Y16820   5.299   6.200   8.034
  151SAPE  H18Z16821   5.431   6.328   8.016
  152SAPE     N16822   5.601   5.523  11.002
  152SAPE   HN116823   5.537   5.570  11.069
  152SAPE   HN216824   5.548   5.447  10.956
  152SAPE   HN316825   5.678   5.477  11.055
  152SAPE   C1216826   5.656   5.616  10.901
  152SAPE  H12A16827   5.682   5.706  10.961
  152SAPE  H12B16828   5.580   5.638  10.823
  152SAPE   C1116829   5.785   5.572  10.851
  152SAPE  H11A16830   5.865   5.563  10.927
  152SAPE  H11B16831   5.814   5.652  10.780
  152SAPE     P16832   5.740   5.442  10.626
  152SAPE   O1316833   5.692   5.304  10.590
  152SAPE   O1416834   5.647   5.552  10.597
  152SAPE   O1216835   5.765   5.445  10.782
  152SAPE   O1116836   5.880   5.460  10.562
  152SAPE    C116837   5.904   5.592  10.508
  152SAPE    HA16838   5.821   5.663  10.490
  152SAPE    HB16839   5.979   5.651  10.565
  152SAPE    C216840   5.965   5.579  10.363
  152SAPE    HS16841   6.041   5.498  10.370
  152SAPE   O2116842   6.016   5.709  10.317
  152SAPE   C2116843   6.108   5.701  10.214
  152SAPE   O2216844   6.151   5.592  10.173
  152SAPE   C2216845   6.136   5.845  10.167
  152SAPE   H2R16846   6.071   5.915  10.224
  152SAPE   H2S16847   6.240   5.870  10.197
  152SAPE    C316848   5.861   5.525  10.262
  152SAPE    HX16849   5.772   5.592  10.265
  152SAPE    HY16850   5.807   5.433  10.294
  152SAPE   O3116851   5.904   5.509  10.121
  152SAPE   C3116852   5.934   5.391  10.076
  152SAPE   O3216853   5.910   5.285  10.129
  152SAPE   C3216854   5.998   5.406   9.944
  152SAPE   H2X16855   6.103   5.425   9.975
  152SAPE   H2Y16856   5.952   5.493   9.893
  152SAPE   C2316857   6.133   5.863  10.015
  152SAPE   H3R16858   6.045   5.813   9.968
  152SAPE   H3S16859   6.221   5.806   9.979
  152SAPE   C2416860   6.135   6.012   9.972
  152SAPE   H4R16861   6.038   6.054  10.009
  152SAPE   H4S16862   6.142   6.016   9.861
  152SAPE   C2516863   6.247   6.083  10.037
  152SAPE   H5R16864   6.214   6.118  10.136
  152SAPE   C2616865   6.361   6.121   9.976
  152SAPE   H6R16866   6.431   6.181  10.036
  152SAPE   C2716867   6.423   6.088   9.841
  152SAPE   H7R16868   6.357   6.008   9.802
  152SAPE   H7S16869   6.526   6.048   9.849
  152SAPE   C2816870   6.416   6.215   9.756
  152SAPE   H8R16871   6.397   6.307   9.812
  152SAPE   C2916872   6.434   6.211   9.619
  152SAPE   H9R16873   6.422   6.304   9.562
  152SAPE  C21016874   6.479   6.093   9.543
  152SAPE  H10R16875   6.386   6.045   9.505
  152SAPE  H10S16876   6.540   6.018   9.597
  152SAPE  C21116877   6.574   6.142   9.436
  152SAPE  H11R16878   6.643   6.220   9.470
  152SAPE  C21216879   6.582   6.110   9.302
  152SAPE  H12R16880   6.657   6.172   9.251
  152SAPE  C21316881   6.497   6.017   9.222
  152SAPE  H13R16882   6.478   5.933   9.292
  152SAPE  H13S16883   6.553   5.976   9.135
  152SAPE  C21416884   6.359   6.071   9.186
  152SAPE  H14R16885   6.297   6.115   9.266
  152SAPE  C21516886   6.290   6.046   9.074
  152SAPE  H15R16887   6.203   6.112   9.060
  152SAPE  C21616888   6.342   5.977   8.950
  152SAPE  H16R16889   6.265   5.900   8.925
  152SAPE  H16S16890   6.435   5.916   8.961
  152SAPE  C21716891   6.359   6.080   8.842
  152SAPE  H17R16892   6.425   6.165   8.872
  152SAPE  H17S16893   6.259   6.113   8.806
  152SAPE  C21816894   6.429   6.022   8.716
  152SAPE  H18R16895   6.364   5.936   8.689
  152SAPE  H18S16896   6.524   5.979   8.753
  152SAPE  C21916897   6.451   6.130   8.608
  152SAPE  H19R16898   6.490   6.225   8.651
  152SAPE  H19S16899   6.343   6.150   8.586
  152SAPE  C22016900   6.525   6.082   8.485
  152SAPE  H20R16901   6.631   6.070   8.518
  152SAPE  H20S16902   6.524   6.156   8.402
  152SAPE  H20T16903   6.491   5.980   8.459
  152SAPE   C3316904   5.987   5.270   9.859
  152SAPE   H3X16905   5.881   5.240   9.847
  152SAPE   H3Y16906   6.019   5.190   9.929
  152SAPE   C3416907   6.077   5.262   9.736
  152SAPE   H4X16908   6.169   5.310   9.778
  152SAPE   H4Y16909   6.032   5.328   9.659
  152SAPE   C3516910   6.101   5.119   9.692
  152SAPE   H5X16911   6.057   5.051   9.768
  152SAPE   H5Y16912   6.210   5.096   9.683
  152SAPE   C3616913   6.027   5.081   9.553
  152SAPE   H6X16914   5.931   5.136   9.552
  152SAPE   H6Y16915   6.010   4.972   9.539
  152SAPE   C3716916   6.107   5.140   9.437
  152SAPE   H7X16917   6.214   5.112   9.428
  152SAPE   H7Y16918   6.102   5.251   9.445
  152SAPE   C3816919   6.051   5.086   9.305
  152SAPE   H8X16920   5.955   5.141   9.292
  152SAPE   H8Y16921   6.033   4.977   9.313
  152SAPE   C3916922   6.134   5.116   9.175
  152SAPE   H9X16923   6.238   5.078   9.178
  152SAPE   H9Y16924   6.136   5.227   9.167
  152SAPE  C31016925   6.065   5.047   9.045
  152SAPE  H10X16926   6.094   5.114   8.961
  152SAPE  H10Y16927   5.955   5.051   9.057
  152SAPE  C31116928   6.111   4.897   9.024
  152SAPE  H11X16929   6.090   4.854   9.125
  152SAPE  H11Y16930   6.222   4.899   9.020
  152SAPE  C31216931   6.040   4.819   8.920
  152SAPE  H12X16932   5.932   4.842   8.929
  152SAPE  H12Y16933   6.055   4.709   8.914
  152SAPE  C31316934   6.085   4.868   8.779
  152SAPE  H13X16935   6.192   4.846   8.759
  152SAPE  H13Y16936   6.077   4.978   8.764
  152SAPE  C31416937   5.997   4.800   8.674
  152SAPE  H14X16938   5.897   4.848   8.673
  152SAPE  H14Y16939   5.974   4.692   8.689
  152SAPE  C31516940   6.060   4.820   8.530
  152SAPE  H15X16941   6.170   4.822   8.545
  152SAPE  H15Y16942   6.024   4.917   8.490
  152SAPE  C31616943   6.015   4.702   8.438
  152SAPE  H16X16944   6.051   4.607   8.481
  152SAPE  H16Y16945   6.071   4.717   8.343
  152SAPE  C31716946   5.864   4.689   8.429
  152SAPE  H17X16947   5.817   4.782   8.390
  152SAPE  H17Y16948   5.815   4.670   8.526
  152SAPE  C31816949   5.816   4.585   8.327
  152SAPE  H18X16950   5.874   4.493   8.347
  152SAPE  H18Y16951   5.835   4.610   8.220
  152SAPE  H18Z16952   5.707   4.573   8.343
  153SAPE     N16953   5.411   6.724  10.981
  153SAPE   HN116954   5.332   6.766  10.929
  153SAPE   HN216955   5.434   6.638  10.927
  153SAPE   HN316956   5.372   6.707  11.076
  153SAPE   C1216957   5.522   6.828  10.976
  153SAPE  H12A16958   5.615   6.786  11.018
  153SAPE  H12B16959   5.490   6.920  11.030
  153SAPE   C1116960   5.562   6.865  10.830
  153SAPE  H11A16961   5.629   6.796  10.774
  153SAPE  H11B16962   5.631   6.951  10.845
  153SAPE     P16963   5.390   6.824  10.642
  153SAPE   O1316964   5.410   6.677  10.662
  153SAPE   O1416965   5.257   6.866  10.604
  153SAPE   O1216966   5.447   6.905  10.761
  153SAPE   O1116967   5.489   6.869  10.527
  153SAPE    C116968   5.621   6.805  10.513
  153SAPE    HA16969   5.708   6.864  10.547
  153SAPE    HB16970   5.634   6.705  10.558
  153SAPE    C216971   5.645   6.769  10.358
  153SAPE    HS16972   5.747   6.725  10.345
  153SAPE   O2116973   5.627   6.881  10.268
  153SAPE   C2116974   5.707   6.975  10.289
  153SAPE   O2216975   5.812   6.964  10.347
  153SAPE   C2216976   5.677   7.096  10.197
  153SAPE   H2R16977   5.567   7.105  10.196
  153SAPE   H2S16978   5.725   7.190  10.233
  153SAPE    C316979   5.553   6.647  10.322
  153SAPE    HX16980   5.451   6.688  10.339
  153SAPE    HY16981   5.563   6.552  10.379
  153SAPE   O3116982   5.551   6.630  10.179
  153SAPE   C3116983   5.644   6.545  10.141
  153SAPE   O3216984   5.719   6.481  10.211
  153SAPE   C3216985   5.656   6.559   9.987
  153SAPE   H2X16986   5.593   6.480   9.941
  153SAPE   H2Y16987   5.756   6.530   9.948
  153SAPE   C2316988   5.740   7.064  10.058
  153SAPE   H3R16989   5.677   6.989  10.004
  153SAPE   H3S16990   5.844   7.024  10.052
  153SAPE   C2416991   5.744   7.193   9.968
  153SAPE   H4R16992   5.800   7.180   9.874
  153SAPE   H4S16993   5.786   7.278  10.025
  153SAPE   C2516994   5.605   7.230   9.935
  153SAPE   H5R16995   5.536   7.262  10.015
  153SAPE   C2616996   5.552   7.234   9.810
  153SAPE   H6R16997   5.446   7.264   9.799
  153SAPE   C2716998   5.628   7.213   9.673
  153SAPE   H7R16999   5.695   7.125   9.685
  153SAPE   H7S17000   5.687   7.305   9.651
  153SAPE   C2817001   5.530   7.174   9.575
  153SAPE   H8R17002   5.437   7.132   9.614
  153SAPE   C2917003   5.533   7.201   9.446
  153SAPE   H9R17004   5.452   7.167   9.380
  153SAPE  C21017005   5.649   7.247   9.371
  153SAPE  H10R17006   5.647   7.180   9.282
  153SAPE  H10S17007   5.734   7.202   9.426
  153SAPE  C21117008   5.671   7.395   9.344
  153SAPE  H11R17009   5.693   7.462   9.429
  153SAPE  C21217010   5.671   7.447   9.221
  153SAPE  H12R17011   5.679   7.557   9.221
  153SAPE  C21317012   5.656   7.377   9.093
  153SAPE  H13R17013   5.550   7.401   9.067
  153SAPE  H13S17014   5.681   7.269   9.100
  153SAPE  C21417015   5.754   7.435   8.994
  153SAPE  H14R17016   5.850   7.468   9.036
  153SAPE  C21517017   5.723   7.454   8.863
  153SAPE  H15R17018   5.779   7.514   8.790
  153SAPE  C21617019   5.589   7.415   8.789
  153SAPE  H16R17020   5.562   7.499   8.723
  153SAPE  H16S17021   5.510   7.400   8.865
  153SAPE  C21717022   5.603   7.291   8.704
  153SAPE  H17R17023   5.687   7.307   8.633
  153SAPE  H17S17024   5.514   7.274   8.639
  153SAPE  C21817025   5.616   7.158   8.785
  153SAPE  H18R17026   5.538   7.158   8.864
  153SAPE  H18S17027   5.707   7.154   8.848
  153SAPE  C21917028   5.599   7.030   8.706
  153SAPE  H19R17029   5.674   7.043   8.625
  153SAPE  H19S17030   5.496   7.020   8.666
  153SAPE  C22017031   5.619   6.911   8.794
  153SAPE  H20R17032   5.672   6.935   8.890
  153SAPE  H20S17033   5.687   6.839   8.743
  153SAPE  H20T17034   5.524   6.857   8.811
  153SAPE   C3317035   5.631   6.696   9.924
  153SAPE   H3X17036   5.703   6.764   9.975
  153SAPE   H3Y17037   5.527   6.735   9.929
  153SAPE   C3417038   5.651   6.693   9.765
  153SAPE   H4X17039   5.565   6.630   9.735
  153SAPE   H4Y17040   5.752   6.647   9.755
  153SAPE   C3517041   5.633   6.829   9.690
  153SAPE   H5X17042   5.726   6.890   9.699
  153SAPE   H5Y17043   5.540   6.876   9.728
  153SAPE   C3617044   5.617   6.808   9.537
  153SAPE   H6X17045   5.581   6.905   9.495
  153SAPE   H6Y17046   5.536   6.736   9.516
  153SAPE   C3717047   5.744   6.747   9.481
  153SAPE   H7X17048   5.749   6.638   9.501
  153SAPE   H7Y17049   5.833   6.784   9.535
  153SAPE   C3817050   5.755   6.782   9.330
  153SAPE   H8X17051   5.785   6.887   9.311
  153SAPE   H8Y17052   5.658   6.751   9.285
  153SAPE   C3917053   5.875   6.701   9.270
  153SAPE   H9X17054   5.876   6.601   9.318
  153SAPE   H9Y17055   5.963   6.762   9.301
  153SAPE  C31017056   5.858   6.675   9.119
  153SAPE  H10X17057   5.878   6.769   9.062
  153SAPE  H10Y17058   5.756   6.647   9.084
  153SAPE  C31117059   5.952   6.560   9.064
  153SAPE  H11X17060   5.945   6.464   9.120
  153SAPE  H11Y17061   6.060   6.582   9.066
  153SAPE  C31217062   5.906   6.528   8.920
  153SAPE  H12X17063   5.911   6.623   8.863
  153SAPE  H12Y17064   5.802   6.491   8.927
  153SAPE  C31317065   5.985   6.420   8.855
  153SAPE  H13X17066   5.979   6.336   8.929
  153SAPE  H13Y17067   6.091   6.452   8.854
  153SAPE  C31417068   5.944   6.382   8.712
  153SAPE  H14X17069   5.970   6.464   8.642
  153SAPE  H14Y17070   5.834   6.368   8.708
  153SAPE  C31517071   6.012   6.249   8.674
  153SAPE  H15X17072   6.107   6.238   8.731
  153SAPE  H15Y17073   6.014   6.253   8.563
  153SAPE  C31617074   5.919   6.129   8.698
  153SAPE  H16X17075   5.821   6.141   8.646
  153SAPE  H16Y17076   5.891   6.129   8.806
  153SAPE  C31717077   5.989   6.006   8.652
  153SAPE  H17X17078   5.931   5.915   8.682
  153SAPE  H17Y17079   6.092   6.004   8.694
  153SAPE  C31817080   5.998   5.994   8.501
  153SAPE  H18X17081   6.026   5.893   8.467
  153SAPE  H18Y17082   6.076   6.056   8.453
  153SAPE  H18Z17083   5.904   6.020   8.448
  154SAPE     N17084   0.441   6.649  10.792
  154SAPE   HN117085   0.475   6.728  10.734
  154SAPE   HN217086   0.357   6.678  10.845
  154SAPE   HN317087   0.513   6.612  10.857
  154SAPE   C1217088   0.394   6.544  10.691
  154SAPE  H12A17089   0.484   6.511  10.636
  154SAPE  H12B17090   0.331   6.615  10.633
  154SAPE   C1117091   0.329   6.426  10.759
  154SAPE  H11A17092   0.388   6.395  10.847
  154SAPE  H11B17093   0.330   6.338  10.690
  154SAPE     P17094   0.068   6.397  10.747
  154SAPE   O1317095   0.094   6.252  10.720
  154SAPE   O1417096  -0.052   6.423  10.830
  154SAPE   O1217097   0.195   6.455  10.808
  154SAPE   O1117098   0.055   6.480  10.608
  154SAPE    C117099   0.028   6.623  10.609
  154SAPE    HA17100  -0.013   6.657  10.707
  154SAPE    HB17101   0.116   6.689  10.594
  154SAPE    C217102  -0.069   6.666  10.497
  154SAPE    HS17103  -0.167   6.617  10.518
  154SAPE   O2117104  -0.019   6.644  10.365
  154SAPE   C2117105  -0.093   6.571  10.280
  154SAPE   O2217106  -0.206   6.540  10.308
  154SAPE   C2217107  -0.017   6.584  10.151
  154SAPE   H2R17108   0.035   6.681  10.136
  154SAPE   H2S17109   0.064   6.507  10.154
  154SAPE    C317110  -0.109   6.814  10.508
  154SAPE    HX17111  -0.022   6.878  10.484
  154SAPE    HY17112  -0.140   6.834  10.613
  154SAPE   O3117113  -0.224   6.835  10.423
  154SAPE   C3117114  -0.255   6.961  10.406
  154SAPE   O3217115  -0.194   7.054  10.461
  154SAPE   C3217116  -0.378   6.986  10.321
  154SAPE   H2X17117  -0.433   7.066  10.376
  154SAPE   H2Y17118  -0.442   6.898  10.300
  154SAPE   C2317119  -0.112   6.552  10.039
  154SAPE   H3R17120  -0.192   6.628  10.055
  154SAPE   H3S17121  -0.142   6.446  10.047
  154SAPE   C2417122  -0.054   6.593   9.897
  154SAPE   H4R17123  -0.035   6.702   9.897
  154SAPE   H4S17124  -0.145   6.583   9.834
  154SAPE   C2517125   0.055   6.501   9.851
  154SAPE   H5R17126   0.064   6.406   9.905
  154SAPE   C2617127   0.131   6.522   9.742
  154SAPE   H6R17128   0.221   6.462   9.723
  154SAPE   C2717129   0.130   6.658   9.673
  154SAPE   H7R17130   0.147   6.743   9.742
  154SAPE   H7S17131   0.027   6.685   9.640
  154SAPE   C2817132   0.226   6.669   9.562
  154SAPE   H8R17133   0.318   6.717   9.598
  154SAPE   C2917134   0.216   6.612   9.437
  154SAPE   H9R17135   0.310   6.608   9.380
  154SAPE  C21017136   0.099   6.532   9.390
  154SAPE  H10R17137   0.072   6.467   9.477
  154SAPE  H10S17138   0.138   6.464   9.312
  154SAPE  C21117139  -0.013   6.621   9.345
  154SAPE  H11R17140  -0.030   6.720   9.390
  154SAPE  C21217141  -0.096   6.589   9.250
  154SAPE  H12R17142  -0.180   6.657   9.227
  154SAPE  C21317143  -0.090   6.462   9.165
  154SAPE  H13R17144  -0.045   6.380   9.225
  154SAPE  H13S17145  -0.012   6.469   9.087
  154SAPE  C21417146  -0.226   6.425   9.117
  154SAPE  H14R17147  -0.289   6.371   9.190
  154SAPE  C21517148  -0.270   6.435   8.992
  154SAPE  H15R17149  -0.377   6.420   8.973
  154SAPE  C21617150  -0.203   6.498   8.868
  154SAPE  H16R17151  -0.165   6.434   8.786
  154SAPE  H16S17152  -0.113   6.552   8.902
  154SAPE  C21717153  -0.302   6.600   8.799
  154SAPE  H17R17154  -0.229   6.662   8.742
  154SAPE  H17S17155  -0.360   6.656   8.876
  154SAPE  C21817156  -0.403   6.533   8.702
  154SAPE  H18R17157  -0.504   6.537   8.749
  154SAPE  H18S17158  -0.385   6.424   8.695
  154SAPE  C21917159  -0.416   6.596   8.571
  154SAPE  H19R17160  -0.491   6.532   8.519
  154SAPE  H19S17161  -0.322   6.581   8.514
  154SAPE  C22017162  -0.455   6.742   8.580
  154SAPE  H20R17163  -0.543   6.762   8.644
  154SAPE  H20S17164  -0.476   6.781   8.478
  154SAPE  H20T17165  -0.367   6.798   8.618
  154SAPE   C3317166  -0.355   7.056  10.181
  154SAPE   H3X17167  -0.303   7.153  10.196
  154SAPE   H3Y17168  -0.448   7.102  10.140
  154SAPE   C3417169  -0.284   6.969  10.082
  154SAPE   H4X17170  -0.346   6.879  10.060
  154SAPE   H4Y17171  -0.191   6.944  10.138
  154SAPE   C3517172  -0.257   7.044   9.951
  154SAPE   H5X17173  -0.209   7.143   9.967
  154SAPE   H5Y17174  -0.360   7.056   9.911
  154SAPE   C3617175  -0.162   6.973   9.848
  154SAPE   H6X17176  -0.067   6.944   9.898
  154SAPE   H6Y17177  -0.146   7.058   9.778
  154SAPE   C3717178  -0.227   6.859   9.768
  154SAPE   H7X17179  -0.263   6.783   9.841
  154SAPE   H7Y17180  -0.145   6.820   9.704
  154SAPE   C3817181  -0.347   6.894   9.683
  154SAPE   H8X17182  -0.327   6.989   9.629
  154SAPE   H8Y17183  -0.433   6.919   9.748
  154SAPE   C3917184  -0.390   6.772   9.597
  154SAPE   H9X17185  -0.419   6.686   9.660
  154SAPE   H9Y17186  -0.301   6.739   9.540
  154SAPE  C31017187  -0.508   6.791   9.496
  154SAPE  H10X17188  -0.466   6.856   9.416
  154SAPE  H10Y17189  -0.593   6.849   9.536
  154SAPE  C31117190  -0.549   6.662   9.419
  154SAPE  H11X17191  -0.466   6.615   9.362
  154SAPE  H11Y17192  -0.627   6.700   9.349
  154SAPE  C31217193  -0.617   6.562   9.505
  154SAPE  H12X17194  -0.715   6.600   9.541
  154SAPE  H12Y17195  -0.549   6.537   9.589
  154SAPE  C31317196  -0.651   6.433   9.424
  154SAPE  H13X17197  -0.560   6.400   9.371
  154SAPE  H13Y17198  -0.728   6.459   9.348
  154SAPE  C31417199  -0.701   6.314   9.516
  154SAPE  H14X17200  -0.615   6.272   9.572
  154SAPE  H14Y17201  -0.736   6.232   9.451
  154SAPE  C31517202  -0.795   6.362   9.618
  154SAPE  H15X17203  -0.882   6.420   9.581
  154SAPE  H15Y17204  -0.745   6.425   9.695
  154SAPE  C31617205  -0.865   6.248   9.701
  154SAPE  H16X17206  -0.788   6.181   9.744
  154SAPE  H16Y17207  -0.927   6.188   9.631
  154SAPE  C31717208  -0.951   6.313   9.807
  154SAPE  H17X17209  -1.011   6.400   9.771
  154SAPE  H17Y17210  -0.878   6.362   9.875
  154SAPE  C31817211  -1.031   6.209   9.872
  154SAPE  H18X17212  -1.124   6.257   9.910
  154SAPE  H18Y17213  -0.979   6.147   9.947
  154SAPE  H18Z17214  -1.079   6.146   9.794
  155SAPE     N17215   0.684   0.811  10.921
  155SAPE   HN117216   0.738   0.800  10.833
  155SAPE   HN217217   0.652   0.713  10.939
  155SAPE   HN317218   0.601   0.868  10.894
  155SAPE   C1217219   0.745   0.882  11.038
  155SAPE  H12A17220   0.808   0.814  11.099
  155SAPE  H12B17221   0.667   0.921  11.108
  155SAPE   C1117222   0.821   1.008  10.986
  155SAPE  H11A17223   0.908   0.978  10.924
  155SAPE  H11B17224   0.855   1.059  11.079
  155SAPE     P17225   0.776   1.219  10.840
  155SAPE   O1317226   0.658   1.303  10.802
  155SAPE   O1417227   0.894   1.280  10.897
  155SAPE   O1217228   0.726   1.092  10.926
  155SAPE   O1117229   0.824   1.144  10.706
  155SAPE    C117230   0.725   1.066  10.634
  155SAPE    HA17231   0.697   0.981  10.699
  155SAPE    HB17232   0.634   1.125  10.607
  155SAPE    C217233   0.773   1.004  10.506
  155SAPE    HS17234   0.871   0.956  10.528
  155SAPE   O2117235   0.777   1.104  10.399
  155SAPE   C2117236   0.897   1.143  10.359
  155SAPE   O2217237   1.003   1.100  10.403
  155SAPE   C2217238   0.873   1.247  10.251
  155SAPE   H2R17239   0.780   1.299  10.279
  155SAPE   H2S17240   0.954   1.323  10.260
  155SAPE    C317241   0.669   0.894  10.459
  155SAPE    HX17242   0.576   0.950  10.434
  155SAPE    HY17243   0.656   0.815  10.536
  155SAPE   O3117244   0.710   0.810  10.347
  155SAPE   C3117245   0.661   0.854  10.231
  155SAPE   O3217246   0.603   0.958  10.210
  155SAPE   C3217247   0.700   0.757  10.123
  155SAPE   H2X17248   0.669   0.655  10.152
  155SAPE   H2Y17249   0.808   0.775  10.107
  155SAPE   C2317250   0.882   1.186  10.113
  155SAPE   H3R17251   0.841   1.083  10.104
  155SAPE   H3S17252   0.990   1.188  10.084
  155SAPE   C2417253   0.809   1.281  10.021
  155SAPE   H4R17254   0.707   1.312  10.052
  155SAPE   H4S17255   0.791   1.215   9.934
  155SAPE   C2517256   0.877   1.412   9.990
  155SAPE   H5R17257   0.874   1.492  10.065
  155SAPE   C2617258   0.937   1.442   9.876
  155SAPE   H6R17259   0.979   1.542   9.857
  155SAPE   C2717260   0.954   1.348   9.761
  155SAPE   H7R17261   0.962   1.245   9.801
  155SAPE   H7S17262   1.051   1.379   9.717
  155SAPE   C2817263   0.849   1.353   9.648
  155SAPE   H8R17264   0.747   1.331   9.684
  155SAPE   C2917265   0.857   1.373   9.516
  155SAPE   H9R17266   0.761   1.375   9.462
  155SAPE  C21017267   0.976   1.400   9.428
  155SAPE  H10R17268   1.061   1.443   9.484
  155SAPE  H10S17269   0.937   1.486   9.369
  155SAPE  C21117270   1.038   1.292   9.351
  155SAPE  H11R17271   1.073   1.200   9.400
  155SAPE  C21217272   1.054   1.298   9.215
  155SAPE  H12R17273   1.088   1.205   9.167
  155SAPE  C21317274   1.025   1.413   9.118
  155SAPE  H13R17275   1.112   1.427   9.051
  155SAPE  H13S17276   1.023   1.515   9.161
  155SAPE  C21417277   0.895   1.403   9.039
  155SAPE  H14R17278   0.797   1.417   9.088
  155SAPE  C21517279   0.890   1.384   8.904
  155SAPE  H15R17280   0.790   1.375   8.859
  155SAPE  C21617281   1.006   1.365   8.811
  155SAPE  H16R17282   1.030   1.257   8.809
  155SAPE  H16S17283   1.103   1.415   8.833
  155SAPE  C21717284   0.981   1.428   8.670
  155SAPE  H17R17285   0.936   1.530   8.675
  155SAPE  H17S17286   0.915   1.366   8.606
  155SAPE  C21817287   1.110   1.457   8.592
  155SAPE  H18R17288   1.187   1.501   8.658
  155SAPE  H18S17289   1.079   1.526   8.511
  155SAPE  C21917290   1.176   1.342   8.511
  155SAPE  H19R17291   1.092   1.311   8.446
  155SAPE  H19S17292   1.198   1.254   8.575
  155SAPE  C22017293   1.294   1.380   8.421
  155SAPE  H20R17294   1.297   1.331   8.321
  155SAPE  H20S17295   1.390   1.362   8.473
  155SAPE  H20T17296   1.300   1.489   8.405
  155SAPE   C3317297   0.629   0.795   9.988
  155SAPE   H3X17298   0.609   0.902   9.968
  155SAPE   H3Y17299   0.525   0.757   9.991
  155SAPE   C3417300   0.707   0.744   9.862
  155SAPE   H4X17301   0.723   0.634   9.861
  155SAPE   H4Y17302   0.806   0.791   9.875
  155SAPE   C3517303   0.658   0.799   9.724
  155SAPE   H5X17304   0.654   0.910   9.736
  155SAPE   H5Y17305   0.560   0.750   9.707
  155SAPE   C3617306   0.747   0.771   9.604
  155SAPE   H6X17307   0.759   0.665   9.576
  155SAPE   H6Y17308   0.851   0.806   9.624
  155SAPE   C3717309   0.720   0.854   9.480
  155SAPE   H7X17310   0.697   0.956   9.519
  155SAPE   H7Y17311   0.620   0.833   9.435
  155SAPE   C3817312   0.820   0.845   9.365
  155SAPE   H8X17313   0.821   0.741   9.326
  155SAPE   H8Y17314   0.919   0.852   9.414
  155SAPE   C3917315   0.792   0.945   9.248
  155SAPE   H9X17316   0.804   1.052   9.277
  155SAPE   H9Y17317   0.685   0.941   9.218
  155SAPE  C31017318   0.879   0.923   9.121
  155SAPE  H10X17319   0.858   0.822   9.079
  155SAPE  H10Y17320   0.985   0.920   9.154
  155SAPE  C31117321   0.858   1.032   9.009
  155SAPE  H11X17322   0.895   1.131   9.043
  155SAPE  H11Y17323   0.749   1.042   8.990
  155SAPE  C31217324   0.933   0.992   8.876
  155SAPE  H12X17325   0.916   1.066   8.795
  155SAPE  H12Y17326   0.910   0.887   8.847
  155SAPE  C31317327   1.085   0.991   8.896
  155SAPE  H13X17328   1.104   0.918   8.977
  155SAPE  H13Y17329   1.109   1.088   8.944
  155SAPE  C31417330   1.173   0.961   8.766
  155SAPE  H14X17331   1.283   0.969   8.780
  155SAPE  H14Y17332   1.134   1.019   8.680
  155SAPE  C31517333   1.139   0.812   8.728
  155SAPE  H15X17334   1.029   0.793   8.722
  155SAPE  H15Y17335   1.176   0.752   8.814
  155SAPE  C31617336   1.210   0.785   8.594
  155SAPE  H16X17337   1.301   0.849   8.597
  155SAPE  H16Y17338   1.137   0.815   8.516
  155SAPE  C31717339   1.238   0.635   8.578
  155SAPE  H17X17340   1.152   0.565   8.568
  155SAPE  H17Y17341   1.296   0.610   8.670
  155SAPE  C31817342   1.329   0.598   8.454
  155SAPE  H18X17343   1.348   0.488   8.459
  155SAPE  H18Y17344   1.429   0.645   8.459
  155SAPE  H18Z17345   1.271   0.617   8.362
  156SAPE     N17346   5.506   5.719  10.438
  156SAPE   HN117347   5.539   5.766  10.351
  156SAPE   HN217348   5.576   5.668  10.496
  156SAPE   HN317349   5.451   5.644  10.393
  156SAPE   C1217350   5.419   5.816  10.512
  156SAPE  H12A17351   5.477   5.901  10.553
  156SAPE  H12B17352   5.373   5.767  10.601
  156SAPE   C1117353   5.300   5.852  10.423
  156SAPE  H11A17354   5.331   5.905  10.331
  156SAPE  H11B17355   5.237   5.928  10.474
  156SAPE     P17356   5.081   5.706  10.461
  156SAPE   O1317357   5.107   5.638  10.591
  156SAPE   O1417358   4.997   5.827  10.458
  156SAPE   O1217359   5.220   5.734  10.390
  156SAPE   O1117360   5.018   5.602  10.364
  156SAPE    C117361   5.091   5.510  10.290
  156SAPE    HA17362   5.180   5.474  10.345
  156SAPE    HB17363   5.018   5.430  10.265
  156SAPE    C217364   5.144   5.557  10.151
  156SAPE    HS17365   5.236   5.616  10.173
  156SAPE   O2117366   5.046   5.634  10.085
  156SAPE   C2117367   5.096   5.722   9.984
  156SAPE   O2217368   5.209   5.769   9.987
  156SAPE   C2217369   4.992   5.736   9.877
  156SAPE   H2R17370   4.912   5.660   9.889
  156SAPE   H2S17371   4.945   5.835   9.896
  156SAPE    C317372   5.192   5.437  10.065
  156SAPE    HX17373   5.099   5.378  10.050
  156SAPE    HY17374   5.252   5.366  10.125
  156SAPE   O3117375   5.249   5.452   9.938
  156SAPE   C3117376   5.374   5.493   9.940
  156SAPE   O3217377   5.440   5.511  10.042
  156SAPE   C3217378   5.436   5.511   9.797
  156SAPE   H2X17379   5.437   5.620   9.774
  156SAPE   H2Y17380   5.381   5.461   9.715
  156SAPE   C2317381   5.041   5.735   9.726
  156SAPE   H3R17382   5.111   5.650   9.716
  156SAPE   H3S17383   5.106   5.825   9.714
  156SAPE   C2417384   4.928   5.724   9.621
  156SAPE   H4R17385   4.869   5.818   9.627
  156SAPE   H4S17386   4.862   5.637   9.643
  156SAPE   C2517387   4.979   5.715   9.484
  156SAPE   H5R17388   5.088   5.707   9.478
  156SAPE   C2617389   4.909   5.701   9.370
  156SAPE   H6R17390   4.966   5.700   9.276
  156SAPE   C2717391   4.762   5.685   9.343
  156SAPE   H7R17392   4.700   5.686   9.435
  156SAPE   H7S17393   4.748   5.580   9.308
  156SAPE   C2817394   4.713   5.783   9.248
  156SAPE   H8R17395   4.676   5.877   9.290
  156SAPE   C2917396   4.687   5.769   9.118
  156SAPE   H9R17397   4.658   5.862   9.068
  156SAPE  C21017398   4.710   5.644   9.034
  156SAPE  H10R17399   4.653   5.566   9.089
  156SAPE  H10S17400   4.817   5.613   9.038
  156SAPE  C21117401   4.658   5.642   8.896
  156SAPE  H11R17402   4.553   5.611   8.888
  156SAPE  C21217403   4.730   5.681   8.795
  156SAPE  H12R17404   4.700   5.657   8.692
  156SAPE  C21317405   4.872   5.741   8.805
  156SAPE  H13R17406   4.898   5.780   8.906
  156SAPE  H13S17407   4.881   5.831   8.739
  156SAPE  C21417408   4.978   5.636   8.773
  156SAPE  H14R17409   5.035   5.597   8.858
  156SAPE  C21517410   5.018   5.597   8.645
  156SAPE  H15R17411   5.103   5.528   8.633
  156SAPE  C21617412   4.951   5.641   8.519
  156SAPE  H16R17413   4.846   5.676   8.528
  156SAPE  H16S17414   4.951   5.557   8.446
  156SAPE  C21717415   5.033   5.747   8.446
  156SAPE  H17R17416   5.138   5.716   8.432
  156SAPE  H17S17417   5.035   5.841   8.505
  156SAPE  C21817418   4.971   5.787   8.308
  156SAPE  H18R17419   4.970   5.697   8.243
  156SAPE  H18S17420   5.036   5.862   8.256
  156SAPE  C21917421   4.830   5.850   8.336
  156SAPE  H19R17422   4.856   5.927   8.411
  156SAPE  H19S17423   4.767   5.765   8.371
  156SAPE  C22017424   4.767   5.915   8.211
  156SAPE  H20R17425   4.836   5.979   8.152
  156SAPE  H20S17426   4.676   5.974   8.232
  156SAPE  H20T17427   4.726   5.836   8.143
  156SAPE   C3317428   5.578   5.458   9.779
  156SAPE   H3X17429   5.571   5.347   9.776
  156SAPE   H3Y17430   5.648   5.500   9.855
  156SAPE   C3417431   5.635   5.483   9.637
  156SAPE   H4X17432   5.632   5.594   9.632
  156SAPE   H4Y17433   5.556   5.440   9.573
  156SAPE   C3517434   5.770   5.420   9.627
  156SAPE   H5X17435   5.776   5.312   9.652
  156SAPE   H5Y17436   5.833   5.467   9.706
  156SAPE   C3617437   5.821   5.444   9.480
  156SAPE   H6X17438   5.932   5.443   9.489
  156SAPE   H6Y17439   5.784   5.548   9.470
  156SAPE   C3717440   5.756   5.354   9.374
  156SAPE   H7X17441   5.645   5.361   9.376
  156SAPE   H7Y17442   5.783   5.247   9.388
  156SAPE   C3817443   5.795   5.397   9.232
  156SAPE   H8X17444   5.903   5.418   9.219
  156SAPE   H8Y17445   5.746   5.496   9.220
  156SAPE   C3917446   5.747   5.290   9.131
  156SAPE   H9X17447   5.636   5.284   9.130
  156SAPE   H9Y17448   5.793   5.191   9.153
  156SAPE  C31017449   5.794   5.337   8.992
  156SAPE  H10X17450   5.903   5.358   8.995
  156SAPE  H10Y17451   5.736   5.427   8.961
  156SAPE  C31117452   5.757   5.221   8.885
  156SAPE  H11X17453   5.651   5.190   8.897
  156SAPE  H11Y17454   5.812   5.130   8.920
  156SAPE  C31217455   5.793   5.244   8.737
  156SAPE  H12X17456   5.900   5.270   8.726
  156SAPE  H12Y17457   5.730   5.330   8.705
  156SAPE  C31317458   5.753   5.123   8.652
  156SAPE  H13X17459   5.827   5.043   8.675
  156SAPE  H13Y17460   5.770   5.147   8.545
  156SAPE  C31417461   5.603   5.061   8.655
  156SAPE  H14X17462   5.534   5.137   8.611
  156SAPE  H14Y17463   5.576   5.044   8.761
  156SAPE  C31517464   5.576   4.920   8.593
  156SAPE  H15X17465   5.632   4.842   8.648
  156SAPE  H15Y17466   5.618   4.919   8.490
  156SAPE  C31617467   5.424   4.892   8.582
  156SAPE  H16X17468   5.367   4.972   8.528
  156SAPE  H16Y17469   5.384   4.898   8.685
  156SAPE  C31717470   5.398   4.753   8.513
  156SAPE  H17X17471   5.296   4.713   8.529
  156SAPE  H17Y17472   5.469   4.685   8.565
  156SAPE  C31817473   5.424   4.747   8.365
  156SAPE  H18X17474   5.362   4.814   8.302
  156SAPE  H18Y17475   5.381   4.649   8.336
  156SAPE  H18Z17476   5.532   4.742   8.340
  157SAPE     N17477   3.840   5.856  10.635
  157SAPE   HN117478   3.894   5.939  10.602
  157SAPE   HN217479   3.842   5.782  10.562
  157SAPE   HN317480   3.740   5.879  10.653
  157SAPE   C1217481   3.905   5.803  10.758
  157SAPE  H12A17482   3.833   5.729  10.800
  157SAPE  H12B17483   3.943   5.890  10.816
  157SAPE   C1117484   4.039   5.731  10.727
  157SAPE  H11A17485   4.080   5.709  10.828
  157SAPE  H11B17486   4.109   5.806  10.685
  157SAPE     P17487   3.984   5.478  10.699
  157SAPE   O1317488   4.083   5.421  10.787
  157SAPE   O1417489   3.854   5.484  10.765
  157SAPE   O1217490   4.028   5.625  10.638
  157SAPE   O1117491   3.967   5.398  10.566
  157SAPE    C117492   4.055   5.396  10.456
  157SAPE    HA17493   4.089   5.498  10.428
  157SAPE    HB17494   4.144   5.330  10.469
  157SAPE    C217495   3.980   5.348  10.335
  157SAPE    HS17496   4.039   5.271  10.279
  157SAPE   O2117497   3.932   5.458  10.256
  157SAPE   C2117498   3.958   5.463  10.131
  157SAPE   O2217499   4.036   5.398  10.068
  157SAPE   C2217500   3.863   5.569  10.076
  157SAPE   H2R17501   3.785   5.589  10.152
  157SAPE   H2S17502   3.922   5.662  10.057
  157SAPE    C317503   3.856   5.264  10.374
  157SAPE    HX17504   3.777   5.328  10.419
  157SAPE    HY17505   3.886   5.185  10.447
  157SAPE   O3117506   3.806   5.210  10.250
  157SAPE   C3117507   3.825   5.086  10.211
  157SAPE   O3217508   3.902   5.010  10.270
  157SAPE   C3217509   3.750   5.049  10.084
  157SAPE   H2X17510   3.706   5.136  10.032
  157SAPE   H2Y17511   3.674   4.972  10.111
  157SAPE   C2317512   3.813   5.516   9.939
  157SAPE   H3R17513   3.726   5.448   9.935
  157SAPE   H3S17514   3.901   5.470   9.890
  157SAPE   C2417515   3.782   5.636   9.849
  157SAPE   H4R17516   3.757   5.597   9.748
  157SAPE   H4S17517   3.875   5.697   9.840
  157SAPE   C2517518   3.671   5.723   9.892
  157SAPE   H5R17519   3.587   5.657   9.919
  157SAPE   C2617520   3.664   5.858   9.909
  157SAPE   H6R17521   3.570   5.909   9.932
  157SAPE   C2717522   3.776   5.957   9.889
  157SAPE   H7R17523   3.736   6.055   9.857
  157SAPE   H7S17524   3.844   5.920   9.809
  157SAPE   C2817525   3.853   5.987  10.015
  157SAPE   H8R17526   3.811   5.974  10.116
  157SAPE   C2917527   3.978   6.026  10.012
  157SAPE   H9R17528   4.035   6.023  10.106
  157SAPE  C21017529   4.069   6.036   9.893
  157SAPE  H10R17530   4.011   6.043   9.799
  157SAPE  H10S17531   4.127   5.941   9.895
  157SAPE  C21117532   4.161   6.154   9.893
  157SAPE  H11R17533   4.142   6.217   9.981
  157SAPE  C21217534   4.266   6.177   9.820
  157SAPE  H12R17535   4.327   6.266   9.839
  157SAPE  C21317536   4.301   6.103   9.692
  157SAPE  H13R17537   4.288   6.175   9.609
  157SAPE  H13S17538   4.236   6.021   9.654
  157SAPE  C21417539   4.437   6.048   9.684
  157SAPE  H14R17540   4.451   5.961   9.749
  157SAPE  C21517541   4.536   6.099   9.608
  157SAPE  H15R17542   4.640   6.064   9.603
  157SAPE  C21617543   4.521   6.227   9.532
  157SAPE  H16R17544   4.622   6.268   9.511
  157SAPE  H16S17545   4.463   6.309   9.580
  157SAPE  C21717546   4.460   6.199   9.387
  157SAPE  H17R17547   4.412   6.293   9.353
  157SAPE  H17S17548   4.377   6.126   9.385
  157SAPE  C21817549   4.567   6.175   9.276
  157SAPE  H18R17550   4.619   6.078   9.292
  157SAPE  H18S17551   4.644   6.255   9.288
  157SAPE  C21917552   4.530   6.182   9.126
  157SAPE  H19R17553   4.625   6.186   9.069
  157SAPE  H19S17554   4.481   6.281   9.121
  157SAPE  C22017555   4.436   6.072   9.073
  157SAPE  H20R17556   4.413   6.086   8.965
  157SAPE  H20S17557   4.340   6.067   9.129
  157SAPE  H20T17558   4.486   5.973   9.077
  157SAPE   C3317559   3.851   5.007   9.968
  157SAPE   H3X17560   3.803   4.966   9.876
  157SAPE   H3Y17561   3.904   4.920  10.012
  157SAPE   C3417562   3.951   5.116   9.923
  157SAPE   H4X17563   4.015   5.136  10.012
  157SAPE   H4Y17564   3.908   5.216   9.902
  157SAPE   C3517565   4.043   5.069   9.810
  157SAPE   H5X17566   4.055   4.961   9.833
  157SAPE   H5Y17567   4.144   5.115   9.800
  157SAPE   C3617568   3.987   5.079   9.655
  157SAPE   H6X17569   3.905   5.005   9.648
  157SAPE   H6Y17570   4.071   5.052   9.588
  157SAPE   C3717571   3.937   5.219   9.626
  157SAPE   H7X17572   4.001   5.308   9.642
  157SAPE   H7Y17573   3.862   5.237   9.707
  157SAPE   C3817574   3.862   5.242   9.495
  157SAPE   H8X17575   3.796   5.329   9.508
  157SAPE   H8Y17576   3.792   5.157   9.478
  157SAPE   C3917577   3.942   5.262   9.363
  157SAPE   H9X17578   4.012   5.177   9.347
  157SAPE   H9Y17579   3.998   5.358   9.361
  157SAPE  C31017580   3.853   5.273   9.233
  157SAPE  H10X17581   3.796   5.369   9.242
  157SAPE  H10Y17582   3.783   5.187   9.227
  157SAPE  C31117583   3.938   5.270   9.107
  157SAPE  H11X17584   3.991   5.172   9.110
  157SAPE  H11Y17585   4.012   5.353   9.099
  157SAPE  C31217586   3.863   5.278   8.976
  157SAPE  H12X17587   3.806   5.373   8.980
  157SAPE  H12Y17588   3.777   5.206   8.976
  157SAPE  C31317589   3.935   5.267   8.843
  157SAPE  H13X17590   3.984   5.168   8.836
  157SAPE  H13Y17591   4.024   5.333   8.833
  157SAPE  C31417592   3.838   5.293   8.730
  157SAPE  H14X17593   3.812   5.400   8.740
  157SAPE  H14Y17594   3.748   5.227   8.733
  157SAPE  C31517595   3.907   5.275   8.592
  157SAPE  H15X17596   3.916   5.166   8.573
  157SAPE  H15Y17597   4.010   5.307   8.617
  157SAPE  C31617598   3.826   5.321   8.474
  157SAPE  H16X17599   3.863   5.274   8.380
  157SAPE  H16Y17600   3.856   5.427   8.462
  157SAPE  C31717601   3.676   5.297   8.476
  157SAPE  H17X17602   3.630   5.333   8.571
  157SAPE  H17Y17603   3.664   5.187   8.482
  157SAPE  C31817604   3.602   5.359   8.352
  157SAPE  H18X17605   3.613   5.282   8.272
  157SAPE  H18Y17606   3.664   5.448   8.329
  157SAPE  H18Z17607   3.497   5.387   8.375
  158SAPE     N17608   5.198   6.550  10.506
  158SAPE   HN117609   5.179   6.634  10.447
  158SAPE   HN217610   5.107   6.525  10.549
  158SAPE   HN317611   5.270   6.572  10.577
  158SAPE   C1217612   5.239   6.435  10.410
  158SAPE  H12A17613   5.325   6.480  10.356
  158SAPE  H12B17614   5.149   6.412  10.349
  158SAPE   C1117615   5.283   6.311  10.486
  158SAPE  H11A17616   5.299   6.237  10.404
  158SAPE  H11B17617   5.203   6.283  10.558
  158SAPE     P17618   5.501   6.228  10.597
  158SAPE   O1317619   5.617   6.285  10.663
  158SAPE   O1417620   5.420   6.133  10.674
  158SAPE   O1217621   5.404   6.347  10.555
  158SAPE   O1117622   5.540   6.157  10.462
  158SAPE    C117623   5.616   6.223  10.362
  158SAPE    HA17624   5.567   6.319  10.334
  158SAPE    HB17625   5.716   6.243  10.404
  158SAPE    C217626   5.648   6.132  10.240
  158SAPE    HS17627   5.690   6.181  10.150
  158SAPE   O2117628   5.537   6.063  10.188
  158SAPE   C2117629   5.442   6.128  10.120
  158SAPE   O2217630   5.447   6.249  10.108
  158SAPE   C2217631   5.347   6.038  10.043
  158SAPE   H2R17632   5.398   5.940  10.033
  158SAPE   H2S17633   5.262   6.011  10.110
  158SAPE    C317634   5.751   6.018  10.271
  158SAPE    HX17635   5.725   5.957  10.360
  158SAPE    HY17636   5.845   6.075  10.283
  158SAPE   O3117637   5.776   5.936  10.152
  158SAPE   C3117638   5.702   5.827  10.136
  158SAPE   O3217639   5.622   5.787  10.216
  158SAPE   C3217640   5.737   5.760   9.997
  158SAPE   H2X17641   5.652   5.691   9.978
  158SAPE   H2Y17642   5.830   5.699  10.004
  158SAPE   C2317643   5.293   6.105   9.917
  158SAPE   H3R17644   5.277   6.213   9.935
  158SAPE   H3S17645   5.189   6.068   9.901
  158SAPE   C2417646   5.376   6.088   9.784
  158SAPE   H4R17647   5.478   6.129   9.801
  158SAPE   H4S17648   5.325   6.159   9.716
  158SAPE   C2517649   5.396   5.944   9.746
  158SAPE   H5R17650   5.448   5.878   9.816
  158SAPE   C2617651   5.356   5.892   9.625
  158SAPE   H6R17652   5.368   5.783   9.614
  158SAPE   C2717653   5.284   5.964   9.514
  158SAPE   H7R17654   5.221   6.044   9.560
  158SAPE   H7S17655   5.211   5.890   9.477
  158SAPE   C2817656   5.374   6.034   9.415
  158SAPE   H8R17657   5.395   6.140   9.434
  158SAPE   C2917658   5.411   5.975   9.302
  158SAPE   H9R17659   5.494   6.013   9.240
  158SAPE  C21017660   5.382   5.828   9.257
  158SAPE  H10R17661   5.361   5.762   9.344
  158SAPE  H10S17662   5.479   5.796   9.215
  158SAPE  C21117663   5.268   5.809   9.155
  158SAPE  H11R17664   5.182   5.875   9.174
  158SAPE  C21217665   5.255   5.706   9.067
  158SAPE  H12R17666   5.169   5.707   8.998
  158SAPE  C21317667   5.341   5.581   9.042
  158SAPE  H13R17668   5.298   5.494   9.096
  158SAPE  H13S17669   5.440   5.594   9.090
  158SAPE  C21417670   5.336   5.558   8.894
  158SAPE  H14R17671   5.378   5.647   8.844
  158SAPE  C21517672   5.312   5.442   8.827
  158SAPE  H15R17673   5.303   5.442   8.717
  158SAPE  C21617674   5.263   5.317   8.886
  158SAPE  H16R17675   5.178   5.340   8.955
  158SAPE  H16S17676   5.347   5.274   8.945
  158SAPE  C21717677   5.197   5.224   8.782
  158SAPE  H17R17678   5.268   5.181   8.708
  158SAPE  H17S17679   5.121   5.278   8.723
  158SAPE  C21817680   5.121   5.103   8.841
  158SAPE  H18R17681   5.037   5.148   8.898
  158SAPE  H18S17682   5.187   5.049   8.912
  158SAPE  C21917683   5.074   4.999   8.742
  158SAPE  H19R17684   5.162   4.945   8.701
  158SAPE  H19S17685   5.004   5.038   8.665
  158SAPE  C22017686   5.000   4.889   8.823
  158SAPE  H20R17687   5.063   4.859   8.910
  158SAPE  H20S17688   4.981   4.803   8.756
  158SAPE  H20T17689   4.904   4.932   8.857
  158SAPE   C3317690   5.762   5.867   9.888
  158SAPE   H3X17691   5.855   5.925   9.906
  158SAPE   H3Y17692   5.673   5.933   9.878
  158SAPE   C3417693   5.760   5.796   9.749
  158SAPE   H4X17694   5.653   5.788   9.719
  158SAPE   H4Y17695   5.803   5.694   9.756
  158SAPE   C3517696   5.823   5.869   9.625
  158SAPE   H5X17697   5.784   5.973   9.619
  158SAPE   H5Y17698   5.791   5.812   9.535
  158SAPE   C3617699   5.980   5.869   9.628
  158SAPE   H6X17700   6.016   5.926   9.717
  158SAPE   H6Y17701   6.017   5.931   9.543
  158SAPE   C3717702   6.034   5.731   9.630
  158SAPE   H7X17703   5.983   5.655   9.566
  158SAPE   H7Y17704   6.025   5.701   9.737
  158SAPE   C3817705   6.194   5.722   9.605
  158SAPE   H8X17706   6.243   5.638   9.657
  158SAPE   H8Y17707   6.233   5.812   9.657
  158SAPE   C3917708   6.223   5.742   9.454
  158SAPE   H9X17709   6.334   5.737   9.444
  158SAPE   H9Y17710   6.192   5.841   9.415
  158SAPE  C31017711   6.173   5.645   9.349
  158SAPE  H10X17712   6.062   5.647   9.355
  158SAPE  H10Y17713   6.207   5.553   9.402
  158SAPE  C31117714   6.237   5.663   9.212
  158SAPE  H11X17715   6.346   5.678   9.227
  158SAPE  H11Y17716   6.197   5.758   9.172
  158SAPE  C31217717   6.216   5.550   9.109
  158SAPE  H12X17718   6.110   5.525   9.093
  158SAPE  H12Y17719   6.259   5.458   9.154
  158SAPE  C31317720   6.278   5.589   8.975
  158SAPE  H13X17721   6.387   5.599   8.995
  158SAPE  H13Y17722   6.226   5.682   8.942
  158SAPE  C31417723   6.274   5.478   8.867
  158SAPE  H14X17724   6.166   5.475   8.844
  158SAPE  H14Y17725   6.306   5.384   8.918
  158SAPE  C31517726   6.362   5.498   8.738
  158SAPE  H15X17727   6.464   5.509   8.781
  158SAPE  H15Y17728   6.325   5.593   8.693
  158SAPE  C31617729   6.344   5.385   8.636
  158SAPE  H16X17730   6.361   5.284   8.680
  158SAPE  H16Y17731   6.419   5.411   8.559
  158SAPE  C31717732   6.205   5.393   8.569
  158SAPE  H17X17733   6.178   5.494   8.531
  158SAPE  H17Y17734   6.136   5.349   8.644
  158SAPE  C31817735   6.192   5.314   8.435
  158SAPE  H18X17736   6.086   5.307   8.404
  158SAPE  H18Y17737   6.236   5.214   8.458
  158SAPE  H18Z17738   6.255   5.349   8.351
  159SAPE     N17739   4.605   3.496   6.188
  159SAPE   HN117740   4.617   3.488   6.085
  159SAPE   HN217741   4.637   3.403   6.223
  159SAPE   HN317742   4.505   3.506   6.214
  159SAPE   C1217743   4.686   3.606   6.244
  159SAPE  H12A17744   4.646   3.704   6.210
  159SAPE  H12B17745   4.787   3.608   6.198
  159SAPE   C1117746   4.698   3.601   6.396
  159SAPE  H11A17747   4.599   3.607   6.446
  159SAPE  H11B17748   4.752   3.692   6.431
  159SAPE     P17749   4.910   3.496   6.499
  159SAPE   O1317750   4.974   3.368   6.507
  159SAPE   O1417751   4.984   3.587   6.406
  159SAPE   O1217752   4.762   3.480   6.441
  159SAPE   O1117753   4.899   3.563   6.641
  159SAPE    C117754   4.822   3.513   6.748
  159SAPE    HA17755   4.781   3.600   6.803
  159SAPE    HB17756   4.740   3.444   6.717
  159SAPE    C217757   4.907   3.432   6.843
  159SAPE    HS17758   4.951   3.344   6.792
  159SAPE   O2117759   4.834   3.395   6.957
  159SAPE   C2117760   4.734   3.304   6.938
  159SAPE   O2217761   4.718   3.245   6.837
  159SAPE   C2217762   4.659   3.294   7.073
  159SAPE   H2R17763   4.564   3.245   7.043
  159SAPE   H2S17764   4.727   3.229   7.132
  159SAPE    C317765   5.044   3.507   6.891
  159SAPE    HX17766   5.012   3.605   6.931
  159SAPE    HY17767   5.100   3.531   6.798
  159SAPE   O3117768   5.116   3.441   6.999
  159SAPE   C3117769   5.189   3.341   6.961
  159SAPE   O3217770   5.189   3.292   6.849
  159SAPE   C3217771   5.281   3.288   7.074
  159SAPE   H2X17772   5.389   3.302   7.051
  159SAPE   H2Y17773   5.260   3.178   7.075
  159SAPE   C2317774   4.631   3.429   7.139
  159SAPE   H3R17775   4.592   3.503   7.065
  159SAPE   H3S17776   4.728   3.463   7.183
  159SAPE   C2417777   4.516   3.410   7.244
  159SAPE   H4R17778   4.544   3.335   7.321
  159SAPE   H4S17779   4.430   3.366   7.188
  159SAPE   C2517780   4.475   3.544   7.307
  159SAPE   H5R17781   4.436   3.616   7.234
  159SAPE   C2617782   4.486   3.574   7.435
  159SAPE   H6R17783   4.445   3.664   7.482
  159SAPE   C2717784   4.532   3.478   7.544
  159SAPE   H7R17785   4.603   3.406   7.499
  159SAPE   H7S17786   4.448   3.424   7.594
  159SAPE   C2817787   4.623   3.543   7.649
  159SAPE   H8R17788   4.706   3.600   7.604
  159SAPE   C2917789   4.624   3.524   7.785
  159SAPE   H9R17790   4.699   3.572   7.849
  159SAPE  C21017791   4.535   3.426   7.855
  159SAPE  H10R17792   4.578   3.382   7.948
  159SAPE  H10S17793   4.511   3.342   7.787
  159SAPE  C21117794   4.410   3.500   7.907
  159SAPE  H11R17795   4.328   3.511   7.834
  159SAPE  C21217796   4.383   3.548   8.036
  159SAPE  H12R17797   4.293   3.609   8.052
  159SAPE  C21317798   4.482   3.525   8.147
  159SAPE  H13R17799   4.582   3.500   8.106
  159SAPE  H13S17800   4.448   3.438   8.208
  159SAPE  C21417801   4.496   3.646   8.237
  159SAPE  H14R17802   4.397   3.690   8.257
  159SAPE  C21517803   4.604   3.698   8.299
  159SAPE  H15R17804   4.593   3.793   8.353
  159SAPE  C21617805   4.751   3.650   8.285
  159SAPE  H16R17806   4.803   3.747   8.271
  159SAPE  H16S17807   4.770   3.586   8.196
  159SAPE  C21717808   4.789   3.577   8.414
  159SAPE  H17R17809   4.801   3.649   8.498
  159SAPE  H17S17810   4.887   3.529   8.393
  159SAPE  C21817811   4.693   3.459   8.447
  159SAPE  H18R17812   4.675   3.405   8.351
  159SAPE  H18S17813   4.597   3.493   8.490
  159SAPE  C21917814   4.741   3.357   8.556
  159SAPE  H19R17815   4.836   3.312   8.519
  159SAPE  H19S17816   4.673   3.270   8.552
  159SAPE  C22017817   4.760   3.429   8.692
  159SAPE  H20R17818   4.789   3.352   8.767
  159SAPE  H20S17819   4.660   3.470   8.716
  159SAPE  H20T17820   4.827   3.517   8.676
  159SAPE   C3317821   5.237   3.331   7.216
  159SAPE   H3X17822   5.126   3.328   7.223
  159SAPE   H3Y17823   5.262   3.438   7.235
  159SAPE   C3417824   5.291   3.244   7.336
  159SAPE   H4X17825   5.298   3.140   7.299
  159SAPE   H4Y17826   5.218   3.258   7.418
  159SAPE   C3517827   5.442   3.292   7.356
  159SAPE   H5X17828   5.430   3.401   7.375
  159SAPE   H5Y17829   5.495   3.272   7.261
  159SAPE   C3617830   5.495   3.220   7.475
  159SAPE   H6X17831   5.604   3.243   7.476
  159SAPE   H6Y17832   5.492   3.109   7.469
  159SAPE   C3717833   5.441   3.269   7.608
  159SAPE   H7X17834   5.330   3.275   7.610
  159SAPE   H7Y17835   5.484   3.370   7.626
  159SAPE   C3817836   5.478   3.174   7.718
  159SAPE   H8X17837   5.479   3.069   7.682
  159SAPE   H8Y17838   5.415   3.196   7.807
  159SAPE   C3917839   5.627   3.203   7.765
  159SAPE   H9X17840   5.646   3.312   7.766
  159SAPE   H9Y17841   5.696   3.158   7.690
  159SAPE  C31017842   5.668   3.153   7.902
  159SAPE  H10X17843   5.588   3.182   7.973
  159SAPE  H10Y17844   5.754   3.207   7.947
  159SAPE  C31117845   5.684   3.001   7.912
  159SAPE  H11X17846   5.772   2.968   7.853
  159SAPE  H11Y17847   5.592   2.951   7.876
  159SAPE  C31217848   5.707   2.955   8.061
  159SAPE  H12X17849   5.755   3.034   8.123
  159SAPE  H12Y17850   5.763   2.859   8.051
  159SAPE  C31317851   5.574   2.930   8.137
  159SAPE  H13X17852   5.512   2.860   8.077
  159SAPE  H13Y17853   5.524   3.028   8.150
  159SAPE  C31417854   5.594   2.878   8.282
  159SAPE  H14X17855   5.675   2.936   8.331
  159SAPE  H14Y17856   5.632   2.773   8.283
  159SAPE  C31517857   5.463   2.890   8.359
  159SAPE  H15X17858   5.376   2.833   8.318
  159SAPE  H15Y17859   5.423   2.992   8.375
  159SAPE  C31617860   5.471   2.828   8.502
  159SAPE  H16X17861   5.549   2.883   8.559
  159SAPE  H16Y17862   5.503   2.723   8.485
  159SAPE  C31717863   5.340   2.827   8.577
  159SAPE  H17X17864   5.265   2.767   8.520
  159SAPE  H17Y17865   5.304   2.930   8.596
  159SAPE  C31817866   5.353   2.761   8.715
  159SAPE  H18X17867   5.403   2.662   8.712
  159SAPE  H18Y17868   5.255   2.766   8.767
  159SAPE  H18Z17869   5.413   2.835   8.773
  160SAPE     N17870   3.833   3.931   6.663
  160SAPE   HN117871   3.887   3.896   6.745
  160SAPE   HN217872   3.760   3.861   6.638
  160SAPE   HN317873   3.901   3.914   6.586
  160SAPE   C1217874   3.773   4.070   6.672
  160SAPE  H12A17875   3.847   4.138   6.721
  160SAPE  H12B17876   3.681   4.075   6.734
  160SAPE   C1117877   3.740   4.119   6.531
  160SAPE  H11A17878   3.663   4.046   6.499
  160SAPE  H11B17879   3.833   4.108   6.471
  160SAPE     P17880   3.776   4.374   6.466
  160SAPE   O1317881   3.900   4.374   6.552
  160SAPE   O1417882   3.799   4.355   6.326
  160SAPE   O1217883   3.676   4.257   6.521
  160SAPE   O1117884   3.703   4.509   6.490
  160SAPE    C117885   3.755   4.625   6.544
  160SAPE    HA17886   3.857   4.639   6.501
  160SAPE    HB17887   3.700   4.715   6.509
  160SAPE    C217888   3.755   4.628   6.700
  160SAPE    HS17889   3.832   4.555   6.731
  160SAPE   O2117890   3.631   4.586   6.744
  160SAPE   C2117891   3.618   4.519   6.857
  160SAPE   O2217892   3.716   4.477   6.919
  160SAPE   C2217893   3.469   4.505   6.900
  160SAPE   H2R17894   3.427   4.608   6.906
  160SAPE   H2S17895   3.418   4.442   6.824
  160SAPE    C317896   3.798   4.764   6.743
  160SAPE    HX17897   3.730   4.841   6.700
  160SAPE    HY17898   3.890   4.811   6.702
  160SAPE   O3117899   3.791   4.770   6.891
  160SAPE   C3117900   3.904   4.737   6.948
  160SAPE   O3217901   4.008   4.716   6.894
  160SAPE   C3217902   3.873   4.740   7.098
  160SAPE   H2X17903   3.785   4.673   7.106
  160SAPE   H2Y17904   3.837   4.842   7.123
  160SAPE   C2317905   3.459   4.426   7.035
  160SAPE   H3R17906   3.533   4.468   7.106
  160SAPE   H3S17907   3.500   4.323   7.026
  160SAPE   C2417908   3.312   4.436   7.088
  160SAPE   H4R17909   3.235   4.387   7.025
  160SAPE   H4S17910   3.277   4.542   7.088
  160SAPE   C2517911   3.289   4.376   7.225
  160SAPE   H5R17912   3.262   4.269   7.226
  160SAPE   C2617913   3.322   4.437   7.342
  160SAPE   H6R17914   3.313   4.383   7.438
  160SAPE   C2717915   3.376   4.574   7.362
  160SAPE   H7R17916   3.296   4.607   7.432
  160SAPE   H7S17917   3.377   4.634   7.269
  160SAPE   C2817918   3.516   4.575   7.413
  160SAPE   H8R17919   3.592   4.566   7.335
  160SAPE   C2917920   3.555   4.571   7.541
  160SAPE   H9R17921   3.659   4.543   7.568
  160SAPE  C21017922   3.459   4.590   7.660
  160SAPE  H10R17923   3.389   4.671   7.631
  160SAPE  H10S17924   3.517   4.629   7.746
  160SAPE  C21117925   3.388   4.481   7.725
  160SAPE  H11R17926   3.399   4.383   7.677
  160SAPE  C21217927   3.334   4.487   7.849
  160SAPE  H12R17928   3.285   4.400   7.894
  160SAPE  C21317929   3.316   4.603   7.945
  160SAPE  H13R17930   3.208   4.602   7.971
  160SAPE  H13S17931   3.316   4.699   7.890
  160SAPE  C21417932   3.417   4.607   8.061
  160SAPE  H14R17933   3.513   4.648   8.026
  160SAPE  C21517934   3.397   4.578   8.190
  160SAPE  H15R17935   3.481   4.578   8.260
  160SAPE  C21617936   3.272   4.519   8.250
  160SAPE  H16R17937   3.176   4.552   8.204
  160SAPE  H16S17938   3.245   4.560   8.350
  160SAPE  C21717939   3.272   4.368   8.263
  160SAPE  H17R17940   3.343   4.321   8.335
  160SAPE  H17S17941   3.288   4.339   8.157
  160SAPE  C21817942   3.132   4.311   8.306
  160SAPE  H18R17943   3.138   4.205   8.273
  160SAPE  H18S17944   3.060   4.358   8.237
  160SAPE  C21917945   3.086   4.341   8.454
  160SAPE  H19R17946   3.039   4.441   8.451
  160SAPE  H19S17947   3.163   4.327   8.533
  160SAPE  C22017948   2.965   4.252   8.497
  160SAPE  H20R17949   2.890   4.265   8.416
  160SAPE  H20S17950   2.928   4.276   8.598
  160SAPE  H20T17951   3.007   4.149   8.498
  160SAPE   C3317952   3.995   4.705   7.183
  160SAPE   H3X17953   4.076   4.781   7.169
  160SAPE   H3Y17954   4.036   4.608   7.148
  160SAPE   C3417955   3.959   4.690   7.328
  160SAPE   H4X17956   3.862   4.635   7.337
  160SAPE   H4Y17957   3.937   4.787   7.378
  160SAPE   C3517958   4.064   4.608   7.405
  160SAPE   H5X17959   4.141   4.676   7.447
  160SAPE   H5Y17960   4.116   4.542   7.332
  160SAPE   C3617961   4.003   4.526   7.526
  160SAPE   H6X17962   4.089   4.460   7.551
  160SAPE   H6Y17963   3.910   4.472   7.498
  160SAPE   C3717964   3.979   4.612   7.652
  160SAPE   H7X17965   3.898   4.685   7.632
  160SAPE   H7Y17966   4.072   4.670   7.665
  160SAPE   C3817967   3.949   4.528   7.776
  160SAPE   H8X17968   4.033   4.458   7.795
  160SAPE   H8Y17969   3.856   4.467   7.773
  160SAPE   C3917970   3.932   4.617   7.897
  160SAPE   H9X17971   3.863   4.575   7.973
  160SAPE   H9Y17972   3.882   4.711   7.864
  160SAPE  C31017973   4.070   4.643   7.964
  160SAPE  H10X17974   4.149   4.686   7.898
  160SAPE  H10Y17975   4.102   4.551   8.017
  160SAPE  C31117976   4.041   4.744   8.074
  160SAPE  H11X17977   3.965   4.702   8.144
  160SAPE  H11Y17978   4.011   4.842   8.032
  160SAPE  C31217979   4.162   4.771   8.161
  160SAPE  H12X17980   4.261   4.787   8.114
  160SAPE  H12Y17981   4.176   4.679   8.221
  160SAPE  C31317982   4.135   4.881   8.258
  160SAPE  H13X17983   4.044   4.847   8.313
  160SAPE  H13Y17984   4.119   4.970   8.195
  160SAPE  C31417985   4.244   4.889   8.368
  160SAPE  H14X17986   4.340   4.914   8.317
  160SAPE  H14Y17987   4.269   4.792   8.416
  160SAPE  C31517988   4.213   4.989   8.479
  160SAPE  H15X17989   4.104   4.982   8.499
  160SAPE  H15Y17990   4.230   5.095   8.451
  160SAPE  C31617991   4.290   4.955   8.604
  160SAPE  H16X17992   4.388   5.001   8.581
  160SAPE  H16Y17993   4.307   4.845   8.611
  160SAPE  C31717994   4.236   5.010   8.731
  160SAPE  H17X17995   4.129   4.980   8.734
  160SAPE  H17Y17996   4.230   5.121   8.725
  160SAPE  C31817997   4.298   4.960   8.865
  160SAPE  H18X17998   4.253   5.014   8.950
  160SAPE  H18Y17999   4.409   4.968   8.870
  160SAPE  H18Z18000   4.273   4.852   8.873
  161SAPE     N18001   6.237   3.257   6.305
  161SAPE   HN118002   6.211   3.283   6.402
  161SAPE   HN218003   6.331   3.297   6.285
  161SAPE   HN318004   6.166   3.287   6.235
  161SAPE   C1218005   6.258   3.109   6.302
  161SAPE  H12A18006   6.291   3.080   6.404
  161SAPE  H12B18007   6.352   3.086   6.247
  161SAPE   C1118008   6.132   3.028   6.268
  161SAPE  H11A18009   6.101   3.061   6.167
  161SAPE  H11B18010   6.054   3.067   6.337
  161SAPE     P18011   6.038   2.790   6.311
  161SAPE   O1318012   5.934   2.803   6.206
  161SAPE   O1418013   6.098   2.654   6.341
  161SAPE   O1218014   6.154   2.890   6.274
  161SAPE   O1118015   5.977   2.841   6.443
  161SAPE    C118016   6.046   2.833   6.569
  161SAPE    HA18017   6.156   2.836   6.553
  161SAPE    HB18018   6.025   2.923   6.629
  161SAPE    C218019   6.020   2.699   6.642
  161SAPE    HS18020   6.034   2.607   6.581
  161SAPE   O2118021   5.881   2.709   6.690
  161SAPE   C2118022   5.789   2.679   6.602
  161SAPE   O2218023   5.802   2.616   6.500
  161SAPE   C2218024   5.652   2.742   6.641
  161SAPE   H2R18025   5.671   2.806   6.730
  161SAPE   H2S18026   5.636   2.822   6.566
  161SAPE    C318027   6.110   2.687   6.764
  161SAPE    HX18028   6.111   2.775   6.831
  161SAPE    HY18029   6.211   2.688   6.718
  161SAPE   O3118030   6.080   2.565   6.841
  161SAPE   C3118031   6.186   2.510   6.891
  161SAPE   O3218032   6.297   2.552   6.893
  161SAPE   C3218033   6.139   2.385   6.972
  161SAPE   H2X18034   6.092   2.306   6.910
  161SAPE   H2Y18035   6.063   2.419   7.046
  161SAPE   C2318036   5.538   2.641   6.639
  161SAPE   H3R18037   5.536   2.593   6.539
  161SAPE   H3S18038   5.442   2.695   6.653
  161SAPE   C2418039   5.544   2.525   6.738
  161SAPE   H4R18040   5.640   2.473   6.719
  161SAPE   H4S18041   5.467   2.457   6.697
  161SAPE   C2518042   5.519   2.565   6.886
  161SAPE   H5R18043   5.417   2.599   6.910
  161SAPE   C2618044   5.608   2.562   6.989
  161SAPE   H6R18045   5.568   2.583   7.089
  161SAPE   C2718046   5.756   2.536   6.987
  161SAPE   H7R18047   5.802   2.551   6.886
  161SAPE   H7S18048   5.788   2.433   7.012
  161SAPE   C2818049   5.837   2.625   7.072
  161SAPE   H8R18050   5.863   2.717   7.018
  161SAPE   C2918051   5.895   2.595   7.186
  161SAPE   H9R18052   5.960   2.674   7.227
  161SAPE  C21018053   5.883   2.457   7.243
  161SAPE  H10R18054   5.974   2.444   7.305
  161SAPE  H10S18055   5.902   2.377   7.169
  161SAPE  C21118056   5.749   2.434   7.316
  161SAPE  H11R18057   5.658   2.440   7.254
  161SAPE  C21218058   5.750   2.402   7.449
  161SAPE  H12R18059   5.653   2.377   7.496
  161SAPE  C21318060   5.858   2.378   7.539
  161SAPE  H13R18061   5.827   2.433   7.631
  161SAPE  H13S18062   5.954   2.422   7.504
  161SAPE  C21418063   5.887   2.234   7.559
  161SAPE  H14R18064   5.880   2.167   7.472
  161SAPE  C21518065   5.926   2.179   7.679
  161SAPE  H15R18066   5.933   2.070   7.696
  161SAPE  C21618067   5.934   2.245   7.812
  161SAPE  H16R18068   5.837   2.268   7.861
  161SAPE  H16S18069   5.981   2.345   7.800
  161SAPE  C21718070   6.024   2.162   7.895
  161SAPE  H17R18071   6.122   2.160   7.843
  161SAPE  H17S18072   5.997   2.055   7.887
  161SAPE  C21818073   6.045   2.218   8.039
  161SAPE  H18R18074   5.946   2.227   8.090
  161SAPE  H18S18075   6.099   2.312   8.016
  161SAPE  C21918076   6.120   2.122   8.129
  161SAPE  H19R18077   6.154   2.183   8.216
  161SAPE  H19S18078   6.212   2.090   8.074
  161SAPE  C22018079   6.028   2.011   8.176
  161SAPE  H20R18080   5.990   1.945   8.095
  161SAPE  H20S18081   5.937   2.057   8.221
  161SAPE  H20T18082   6.079   1.961   8.261
  161SAPE   C3318083   6.260   2.311   7.047
  161SAPE   H3X18084   6.354   2.294   6.990
  161SAPE   H3Y18085   6.222   2.211   7.076
  161SAPE   C3418086   6.305   2.390   7.168
  161SAPE   H4X18087   6.211   2.397   7.227
  161SAPE   H4Y18088   6.326   2.494   7.136
  161SAPE   C3518089   6.424   2.341   7.255
  161SAPE   H5X18090   6.518   2.384   7.214
  161SAPE   H5Y18091   6.426   2.230   7.251
  161SAPE   C3618092   6.411   2.383   7.402
  161SAPE   H6X18093   6.412   2.493   7.417
  161SAPE   H6Y18094   6.514   2.372   7.443
  161SAPE   C3718095   6.303   2.308   7.486
  161SAPE   H7X18096   6.314   2.197   7.481
  161SAPE   H7Y18097   6.200   2.324   7.449
  161SAPE   C3818098   6.310   2.325   7.641
  161SAPE   H8X18099   6.249   2.244   7.688
  161SAPE   H8Y18100   6.263   2.423   7.665
  161SAPE   C3918101   6.446   2.320   7.718
  161SAPE   H9X18102   6.524   2.392   7.686
  161SAPE   H9Y18103   6.487   2.217   7.709
  161SAPE  C31018104   6.420   2.330   7.873
  161SAPE  H10X18105   6.365   2.236   7.896
  161SAPE  H10Y18106   6.355   2.417   7.895
  161SAPE  C31118107   6.544   2.325   7.960
  161SAPE  H11X18108   6.617   2.390   7.907
  161SAPE  H11Y18109   6.585   2.223   7.951
  161SAPE  C31218110   6.516   2.383   8.100
  161SAPE  H12X18111   6.532   2.493   8.093
  161SAPE  H12Y18112   6.590   2.346   8.174
  161SAPE  C31318113   6.375   2.366   8.156
  161SAPE  H13X18114   6.347   2.259   8.139
  161SAPE  H13Y18115   6.307   2.434   8.101
  161SAPE  C31418116   6.357   2.386   8.305
  161SAPE  H14X18117   6.249   2.395   8.331
  161SAPE  H14Y18118   6.407   2.482   8.329
  161SAPE  C31518119   6.432   2.272   8.376
  161SAPE  H15X18120   6.540   2.280   8.354
  161SAPE  H15Y18121   6.411   2.169   8.340
  161SAPE  C31618122   6.406   2.273   8.524
  161SAPE  H16X18123   6.411   2.378   8.559
  161SAPE  H16Y18124   6.495   2.239   8.581
  161SAPE  C31718125   6.272   2.209   8.563
  161SAPE  H17X18126   6.285   2.101   8.541
  161SAPE  H17Y18127   6.190   2.248   8.499
  161SAPE  C31818128   6.220   2.225   8.704
  161SAPE  H18X18129   6.115   2.189   8.711
  161SAPE  H18Y18130   6.221   2.330   8.742
  161SAPE  H18Z18131   6.294   2.167   8.764
  162SAPE     N18132   5.224   5.033   6.300
  162SAPE   HN118133   5.156   4.955   6.309
  162SAPE   HN218134   5.217   5.062   6.200
  162SAPE   HN318135   5.316   4.988   6.317
  162SAPE   C1218136   5.190   5.161   6.382
  162SAPE  H12A18137   5.259   5.238   6.341
  162SAPE  H12B18138   5.191   5.142   6.491
  162SAPE   C1118139   5.049   5.220   6.352
  162SAPE  H11A18140   5.021   5.320   6.392
  162SAPE  H11B18141   4.975   5.146   6.390
  162SAPE     P18142   4.883   5.254   6.155
  162SAPE   O1318143   4.889   5.334   6.036
  162SAPE   O1418144   4.816   5.123   6.152
  162SAPE   O1218145   5.038   5.235   6.208
  162SAPE   O1118146   4.814   5.338   6.267
  162SAPE    C118147   4.846   5.471   6.271
  162SAPE    HA18148   4.954   5.498   6.263
  162SAPE    HB18149   4.794   5.518   6.184
  162SAPE    C218150   4.789   5.538   6.397
  162SAPE    HS18151   4.799   5.649   6.392
  162SAPE   O2118152   4.854   5.494   6.512
  162SAPE   C2118153   4.980   5.538   6.544
  162SAPE   O2218154   5.040   5.619   6.476
  162SAPE   C2218155   5.034   5.457   6.656
  162SAPE   H2R18156   5.034   5.353   6.619
  162SAPE   H2S18157   5.135   5.500   6.673
  162SAPE    C318158   4.635   5.507   6.397
  162SAPE    HX18159   4.631   5.397   6.404
  162SAPE    HY18160   4.591   5.536   6.299
  162SAPE   O3118161   4.572   5.562   6.514
  162SAPE   C3118162   4.578   5.493   6.626
  162SAPE   O3218163   4.626   5.379   6.628
  162SAPE   C3218164   4.494   5.558   6.733
  162SAPE   H2X18165   4.403   5.601   6.686
  162SAPE   H2Y18166   4.549   5.640   6.785
  162SAPE   C2318167   4.948   5.466   6.785
  162SAPE   H3R18168   4.858   5.400   6.785
  162SAPE   H3S18169   4.906   5.568   6.796
  162SAPE   C2418170   5.038   5.411   6.896
  162SAPE   H4R18171   5.131   5.471   6.908
  162SAPE   H4S18172   5.068   5.312   6.855
  162SAPE   C2518173   4.946   5.393   7.022
  162SAPE   H5R18174   4.861   5.326   7.001
  162SAPE   C2618175   4.965   5.448   7.148
  162SAPE   H6R18176   4.895   5.424   7.230
  162SAPE   C2718177   5.084   5.534   7.182
  162SAPE   H7R18178   5.043   5.607   7.255
  162SAPE   H7S18179   5.131   5.590   7.098
  162SAPE   C2818180   5.187   5.456   7.258
  162SAPE   H8R18181   5.237   5.389   7.187
  162SAPE   C2918182   5.207   5.439   7.391
  162SAPE   H9R18183   5.285   5.370   7.428
  162SAPE  C21018184   5.125   5.503   7.500
  162SAPE  H10R18185   5.031   5.546   7.462
  162SAPE  H10S18186   5.175   5.598   7.529
  162SAPE  C21118187   5.112   5.422   7.627
  162SAPE  H11R18188   5.038   5.342   7.612
  162SAPE  C21218189   5.161   5.452   7.748
  162SAPE  H12R18190   5.136   5.386   7.833
  162SAPE  C21318191   5.239   5.578   7.790
  162SAPE  H13R18192   5.177   5.644   7.854
  162SAPE  H13S18193   5.274   5.648   7.711
  162SAPE  C21418194   5.364   5.526   7.860
  162SAPE  H14R18195   5.412   5.440   7.812
  162SAPE  C21518196   5.414   5.577   7.975
  162SAPE  H15R18197   5.511   5.544   8.014
  162SAPE  C21618198   5.336   5.668   8.065
  162SAPE  H16R18199   5.226   5.663   8.047
  162SAPE  H16S18200   5.366   5.774   8.051
  162SAPE  C21718201   5.355   5.618   8.212
  162SAPE  H17R18202   5.306   5.701   8.267
  162SAPE  H17S18203   5.464   5.636   8.223
  162SAPE  C21818204   5.312   5.475   8.239
  162SAPE  H18R18205   5.380   5.405   8.187
  162SAPE  H18S18206   5.210   5.458   8.198
  162SAPE  C21918207   5.314   5.451   8.392
  162SAPE  H19R18208   5.232   5.387   8.433
  162SAPE  H19S18209   5.311   5.551   8.439
  162SAPE  C22018210   5.440   5.390   8.444
  162SAPE  H20R18211   5.453   5.404   8.554
  162SAPE  H20S18212   5.536   5.423   8.399
  162SAPE  H20T18213   5.434   5.281   8.424
  162SAPE   C3318214   4.436   5.470   6.845
  162SAPE   H3X18215   4.520   5.415   6.893
  162SAPE   H3Y18216   4.388   5.385   6.791
  162SAPE   C3418217   4.337   5.542   6.931
  162SAPE   H4X18218   4.257   5.573   6.862
  162SAPE   H4Y18219   4.387   5.633   6.972
  162SAPE   C3518220   4.271   5.448   7.035
  162SAPE   H5X18221   4.230   5.361   6.979
  162SAPE   H5Y18222   4.183   5.504   7.074
  162SAPE   C3618223   4.367   5.403   7.147
  162SAPE   H6X18224   4.454   5.354   7.098
  162SAPE   H6Y18225   4.331   5.326   7.219
  162SAPE   C3718226   4.430   5.514   7.238
  162SAPE   H7X18227   4.362   5.543   7.322
  162SAPE   H7Y18228   4.453   5.598   7.169
  162SAPE   C3818229   4.552   5.484   7.332
  162SAPE   H8X18230   4.572   5.560   7.410
  162SAPE   H8Y18231   4.638   5.465   7.264
  162SAPE   C3918232   4.524   5.361   7.418
  162SAPE   H9X18233   4.512   5.272   7.352
  162SAPE   H9Y18234   4.425   5.369   7.468
  162SAPE  C31018235   4.637   5.344   7.515
  162SAPE  H10X18236   4.637   5.412   7.602
  162SAPE  H10Y18237   4.734   5.378   7.471
  162SAPE  C31118238   4.653   5.197   7.573
  162SAPE  H11X18239   4.695   5.136   7.491
  162SAPE  H11Y18240   4.551   5.155   7.587
  162SAPE  C31218241   4.741   5.192   7.699
  162SAPE  H12X18242   4.701   5.250   7.786
  162SAPE  H12Y18243   4.840   5.237   7.677
  162SAPE  C31318244   4.769   5.044   7.744
  162SAPE  H13X18245   4.805   4.988   7.656
  162SAPE  H13Y18246   4.679   4.984   7.771
  162SAPE  C31418247   4.869   5.042   7.869
  162SAPE  H14X18248   4.886   4.946   7.923
  162SAPE  H14Y18249   4.823   5.113   7.940
  162SAPE  C31518250   5.015   5.099   7.835
  162SAPE  H15X18251   5.013   5.209   7.819
  162SAPE  H15Y18252   5.063   5.066   7.740
  162SAPE  C31618253   5.116   5.066   7.945
  162SAPE  H16X18254   5.221   5.090   7.915
  162SAPE  H16Y18255   5.119   4.956   7.959
  162SAPE  C31718256   5.076   5.149   8.070
  162SAPE  H17X18257   4.983   5.100   8.105
  162SAPE  H17Y18258   5.068   5.257   8.046
  162SAPE  C31818259   5.178   5.141   8.176
  162SAPE  H18X18260   5.285   5.152   8.146
  162SAPE  H18Y18261   5.166   5.046   8.233
  162SAPE  H18Z18262   5.159   5.225   8.246
  163SAPE     N18263   3.474   3.301   6.425
  163SAPE   HN118264   3.385   3.355   6.421
  163SAPE   HN218265   3.546   3.357   6.374
  163SAPE   HN318266   3.458   3.213   6.372
  163SAPE   C1218267   3.515   3.284   6.566
  163SAPE  H12A18268   3.625   3.270   6.563
  163SAPE  H12B18269   3.465   3.200   6.619
  163SAPE   C1118270   3.481   3.401   6.653
  163SAPE  H11A18271   3.541   3.378   6.744
  163SAPE  H11B18272   3.373   3.408   6.676
  163SAPE     P18273   3.643   3.602   6.655
  163SAPE   O1318274   3.759   3.509   6.662
  163SAPE   O1418275   3.666   3.735   6.593
  163SAPE   O1218276   3.516   3.531   6.595
  163SAPE   O1118277   3.599   3.635   6.805
  163SAPE    C118278   3.516   3.747   6.830
  163SAPE    HA18279   3.578   3.833   6.866
  163SAPE    HB18280   3.450   3.789   6.751
  163SAPE    C218281   3.423   3.700   6.954
  163SAPE    HS18282   3.349   3.781   6.970
  163SAPE   O2118283   3.501   3.664   7.071
  163SAPE   C2118284   3.554   3.754   7.146
  163SAPE   O2218285   3.525   3.871   7.133
  163SAPE   C2218286   3.632   3.687   7.262
  163SAPE   H2R18287   3.566   3.613   7.312
  163SAPE   H2S18288   3.720   3.632   7.224
  163SAPE    C318289   3.338   3.581   6.920
  163SAPE    HX18290   3.395   3.486   6.918
  163SAPE    HY18291   3.290   3.587   6.820
  163SAPE   O3118292   3.226   3.579   7.010
  163SAPE   C3118293   3.171   3.460   7.034
  163SAPE   O3218294   3.192   3.358   6.971
  163SAPE   C3218295   3.088   3.473   7.157
  163SAPE   H2X18296   3.007   3.398   7.144
  163SAPE   H2Y18297   3.043   3.574   7.169
  163SAPE   C2318298   3.685   3.786   7.372
  163SAPE   H3R18299   3.612   3.867   7.392
  163SAPE   H3S18300   3.772   3.845   7.336
  163SAPE   C2418301   3.739   3.718   7.496
  163SAPE   H4R18302   3.842   3.757   7.510
  163SAPE   H4S18303   3.733   3.612   7.463
  163SAPE   C2518304   3.663   3.745   7.621
  163SAPE   H5R18305   3.556   3.761   7.603
  163SAPE   C2618306   3.704   3.764   7.749
  163SAPE   H6R18307   3.631   3.795   7.825
  163SAPE   C2718308   3.852   3.772   7.788
  163SAPE   H7R18309   3.916   3.825   7.715
  163SAPE   H7S18310   3.890   3.669   7.807
  163SAPE   C2818311   3.871   3.848   7.922
  163SAPE   H8R18312   3.879   3.958   7.926
  163SAPE   C2918313   3.879   3.782   8.046
  163SAPE   H9R18314   3.851   3.837   8.137
  163SAPE  C21018315   3.861   3.631   8.066
  163SAPE  H10R18316   3.811   3.572   7.986
  163SAPE  H10S18317   3.786   3.610   8.145
  163SAPE  C21118318   3.994   3.569   8.103
  163SAPE  H11R18319   4.061   3.550   8.017
  163SAPE  C21218320   4.029   3.521   8.223
  163SAPE  H12R18321   4.124   3.467   8.220
  163SAPE  C21318322   3.944   3.528   8.344
  163SAPE  H13R18323   3.842   3.492   8.320
  163SAPE  H13S18324   3.926   3.632   8.379
  163SAPE  C21418325   3.983   3.451   8.465
  163SAPE  H14R18326   3.923   3.368   8.505
  163SAPE  C21518327   4.105   3.477   8.526
  163SAPE  H15R18328   4.141   3.412   8.607
  163SAPE  C21618329   4.207   3.579   8.501
  163SAPE  H16R18330   4.213   3.608   8.394
  163SAPE  H16S18331   4.310   3.538   8.509
  163SAPE  C21718332   4.202   3.706   8.587
  163SAPE  H17R18333   4.202   3.681   8.695
  163SAPE  H17S18334   4.112   3.764   8.559
  163SAPE  C21818335   4.324   3.803   8.573
  163SAPE  H18R18336   4.336   3.836   8.468
  163SAPE  H18S18337   4.417   3.748   8.601
  163SAPE  C21918338   4.318   3.934   8.653
  163SAPE  H19R18339   4.416   3.985   8.645
  163SAPE  H19S18340   4.315   3.908   8.761
  163SAPE  C22018341   4.199   4.028   8.615
  163SAPE  H20R18342   4.113   3.968   8.578
  163SAPE  H20S18343   4.227   4.106   8.541
  163SAPE  H20T18344   4.177   4.081   8.710
  163SAPE   C3318345   3.161   3.452   7.290
  163SAPE   H3X18346   3.252   3.516   7.287
  163SAPE   H3Y18347   3.194   3.346   7.289
  163SAPE   C3418348   3.075   3.491   7.403
  163SAPE   H4X18349   2.989   3.421   7.391
  163SAPE   H4Y18350   3.047   3.598   7.393
  163SAPE   C3518351   3.137   3.459   7.540
  163SAPE   H5X18352   3.222   3.522   7.573
  163SAPE   H5Y18353   3.167   3.352   7.531
  163SAPE   C3618354   3.042   3.464   7.654
  163SAPE   H6X18355   2.952   3.405   7.627
  163SAPE   H6Y18356   3.010   3.570   7.655
  163SAPE   C3718357   3.105   3.430   7.785
  163SAPE   H7X18358   3.171   3.514   7.816
  163SAPE   H7Y18359   3.162   3.335   7.788
  163SAPE   C3818360   2.996   3.413   7.891
  163SAPE   H8X18361   2.931   3.336   7.844
  163SAPE   H8Y18362   2.941   3.510   7.890
  163SAPE   C3918363   3.053   3.368   8.023
  163SAPE   H9X18364   3.134   3.438   8.049
  163SAPE   H9Y18365   3.111   3.275   8.004
  163SAPE  C31018366   2.957   3.335   8.139
  163SAPE  H10X18367   3.014   3.259   8.196
  163SAPE  H10Y18368   2.864   3.289   8.100
  163SAPE  C31118369   2.926   3.445   8.237
  163SAPE  H11X18370   2.822   3.426   8.272
  163SAPE  H11Y18371   2.929   3.550   8.201
  163SAPE  C31218372   3.014   3.456   8.357
  163SAPE  H12X18373   2.966   3.543   8.407
  163SAPE  H12Y18374   3.117   3.485   8.329
  163SAPE  C31318375   3.014   3.334   8.457
  163SAPE  H13X18376   3.113   3.285   8.441
  163SAPE  H13Y18377   2.928   3.264   8.444
  163SAPE  C31418378   3.022   3.382   8.604
  163SAPE  H14X18379   2.939   3.456   8.614
  163SAPE  H14Y18380   3.117   3.439   8.616
  163SAPE  C31518381   3.021   3.282   8.716
  163SAPE  H15X18382   2.944   3.203   8.703
  163SAPE  H15Y18383   2.995   3.333   8.811
  163SAPE  C31618384   3.161   3.219   8.728
  163SAPE  H16X18385   3.226   3.302   8.765
  163SAPE  H16Y18386   3.190   3.173   8.631
  163SAPE  C31718387   3.166   3.097   8.825
  163SAPE  H17X18388   3.093   3.020   8.793
  163SAPE  H17Y18389   3.129   3.134   8.923
  163SAPE  C31818390   3.306   3.047   8.843
  163SAPE  H18X18391   3.377   3.130   8.862
  163SAPE  H18Y18392   3.326   3.007   8.742
  163SAPE  H18Z18393   3.317   2.965   8.917
  164SAPE     N18394   6.054   0.931   5.609
  164SAPE   HN118395   6.005   0.974   5.690
  164SAPE   HN218396   6.155   0.953   5.609
  164SAPE   HN318397   6.019   0.963   5.517
  164SAPE   C1218398   6.046   0.784   5.628
  164SAPE  H12A18399   6.109   0.737   5.550
  164SAPE  H12B18400   5.943   0.747   5.609
  164SAPE   C1118401   6.093   0.735   5.759
  164SAPE  H11A18402   6.090   0.625   5.770
  164SAPE  H11B18403   6.035   0.773   5.846
  164SAPE     P18404   6.312   0.740   5.905
  164SAPE   O1318405   6.399   0.625   5.861
  164SAPE   O1418406   6.388   0.858   5.959
  164SAPE   O1218407   6.222   0.776   5.782
  164SAPE   O1118408   6.211   0.679   6.018
  164SAPE    C118409   6.118   0.761   6.088
  164SAPE    HA18410   6.114   0.865   6.048
  164SAPE    HB18411   6.013   0.725   6.081
  164SAPE    C218412   6.145   0.772   6.239
  164SAPE    HS18413   6.236   0.829   6.266
  164SAPE   O2118414   6.152   0.640   6.291
  164SAPE   C2118415   6.272   0.593   6.325
  164SAPE   O2218416   6.378   0.644   6.300
  164SAPE   C2218417   6.262   0.464   6.413
  164SAPE   H2R18418   6.157   0.456   6.449
  164SAPE   H2S18419   6.289   0.379   6.348
  164SAPE    C318420   6.025   0.841   6.310
  164SAPE    HX18421   5.933   0.786   6.281
  164SAPE    HY18422   6.010   0.945   6.275
  164SAPE   O3118423   6.039   0.841   6.452
  164SAPE   C3118424   6.127   0.929   6.495
  164SAPE   O3218425   6.196   1.002   6.426
  164SAPE   C3218426   6.124   0.926   6.646
  164SAPE   H2X18427   6.192   1.001   6.691
  164SAPE   H2Y18428   6.158   0.825   6.676
  164SAPE   C2318429   6.360   0.457   6.538
  164SAPE   H3R18430   6.466   0.472   6.506
  164SAPE   H3S18431   6.362   0.358   6.587
  164SAPE   C2418432   6.308   0.568   6.635
  164SAPE   H4R18433   6.324   0.665   6.582
  164SAPE   H4S18434   6.372   0.570   6.726
  164SAPE   C2518435   6.163   0.558   6.683
  164SAPE   H5R18436   6.101   0.628   6.624
  164SAPE   C2618437   6.109   0.480   6.784
  164SAPE   H6R18438   6.006   0.504   6.815
  164SAPE   C2718439   6.188   0.382   6.875
  164SAPE   H7R18440   6.261   0.329   6.809
  164SAPE   H7S18441   6.114   0.303   6.899
  164SAPE   C2818442   6.261   0.453   6.984
  164SAPE   H8R18443   6.190   0.508   7.048
  164SAPE   C2918444   6.388   0.461   7.006
  164SAPE   H9R18445   6.424   0.525   7.089
  164SAPE  C21018446   6.493   0.413   6.906
  164SAPE  H10R18447   6.536   0.504   6.859
  164SAPE  H10S18448   6.452   0.353   6.822
  164SAPE  C21118449   6.609   0.345   6.966
  164SAPE  H11R18450   6.579   0.256   7.022
  164SAPE  C21218451   6.735   0.394   6.979
  164SAPE  H12R18452   6.811   0.328   7.023
  164SAPE  C21318453   6.792   0.520   6.914
  164SAPE  H13R18454   6.808   0.602   6.987
  164SAPE  H13S18455   6.716   0.585   6.866
  164SAPE  C21418456   6.919   0.497   6.839
  164SAPE  H14R18457   6.902   0.472   6.733
  164SAPE  C21518458   7.053   0.497   6.878
  164SAPE  H15R18459   7.137   0.461   6.816
  164SAPE  C21618460   7.096   0.529   7.019
  164SAPE  H16R18461   7.150   0.438   7.053
  164SAPE  H16S18462   7.013   0.530   7.094
  164SAPE  C21718463   7.178   0.660   7.033
  164SAPE  H17R18464   7.268   0.647   6.968
  164SAPE  H17S18465   7.192   0.662   7.143
  164SAPE  C21818466   7.100   0.789   6.996
  164SAPE  H18R18467   6.999   0.785   7.041
  164SAPE  H18S18468   7.084   0.792   6.886
  164SAPE  C21918469   7.178   0.910   7.042
  164SAPE  H19R18470   7.275   0.904   6.988
  164SAPE  H19S18471   7.189   0.899   7.152
  164SAPE  C22018472   7.103   1.039   7.019
  164SAPE  H20R18473   7.002   1.021   7.062
  164SAPE  H20S18474   7.088   1.074   6.915
  164SAPE  H20T18475   7.154   1.114   7.084
  164SAPE   C3318476   5.983   0.944   6.711
  164SAPE   H3X18477   5.915   0.870   6.663
  164SAPE   H3Y18478   5.931   1.042   6.703
  164SAPE   C3418479   5.978   0.923   6.866
  164SAPE   H4X18480   5.877   0.940   6.909
  164SAPE   H4Y18481   6.062   0.973   6.919
  164SAPE   C3518482   5.977   0.775   6.905
  164SAPE   H5X18483   6.079   0.741   6.875
  164SAPE   H5Y18484   5.906   0.730   6.832
  164SAPE   C3618485   5.971   0.725   7.051
  164SAPE   H6X18486   5.975   0.615   7.060
  164SAPE   H6Y18487   5.880   0.766   7.101
  164SAPE   C3718488   6.096   0.762   7.130
  164SAPE   H7X18489   6.102   0.870   7.154
  164SAPE   H7Y18490   6.183   0.742   7.062
  164SAPE   C3818491   6.105   0.686   7.258
  164SAPE   H8X18492   6.103   0.575   7.247
  164SAPE   H8Y18493   6.017   0.715   7.320
  164SAPE   C3918494   6.239   0.706   7.337
  164SAPE   H9X18495   6.266   0.813   7.352
  164SAPE   H9Y18496   6.328   0.663   7.286
  164SAPE  C31018497   6.230   0.644   7.479
  164SAPE  H10X18498   6.333   0.612   7.505
  164SAPE  H10Y18499   6.180   0.545   7.487
  164SAPE  C31118500   6.168   0.741   7.577
  164SAPE  H11X18501   6.087   0.790   7.518
  164SAPE  H11Y18502   6.246   0.817   7.600
  164SAPE  C31218503   6.097   0.696   7.699
  164SAPE  H12X18504   6.011   0.636   7.662
  164SAPE  H12Y18505   6.057   0.786   7.751
  164SAPE  C31318506   6.183   0.616   7.798
  164SAPE  H13X18507   6.286   0.657   7.789
  164SAPE  H13Y18508   6.196   0.511   7.764
  164SAPE  C31418509   6.136   0.616   7.942
  164SAPE  H14X18510   6.039   0.562   7.951
  164SAPE  H14Y18511   6.126   0.723   7.971
  164SAPE  C31518512   6.250   0.556   8.026
  164SAPE  H15X18513   6.333   0.626   8.002
  164SAPE  H15Y18514   6.273   0.452   7.994
  164SAPE  C31618515   6.227   0.529   8.176
  164SAPE  H16X18516   6.136   0.465   8.170
  164SAPE  H16Y18517   6.226   0.631   8.219
  164SAPE  C31718518   6.336   0.439   8.237
  164SAPE  H17X18519   6.430   0.498   8.247
  164SAPE  H17Y18520   6.355   0.343   8.186
  164SAPE  C31818521   6.306   0.390   8.380
  164SAPE  H18X18522   6.237   0.303   8.370
  164SAPE  H18Y18523   6.282   0.476   8.445
  164SAPE  H18Z18524   6.402   0.348   8.419
  165SAPE     N18525   6.042   3.724   6.364
  165SAPE   HN118526   6.043   3.644   6.430
  165SAPE   HN218527   6.099   3.802   6.401
  165SAPE   HN318528   5.949   3.771   6.369
  165SAPE   C1218529   6.072   3.671   6.225
  165SAPE  H12A18530   6.042   3.753   6.156
  165SAPE  H12B18531   6.007   3.582   6.207
  165SAPE   C1118532   6.222   3.642   6.209
  165SAPE  H11A18533   6.263   3.744   6.225
  165SAPE  H11B18534   6.245   3.619   6.102
  165SAPE     P18535   6.432   3.537   6.297
  165SAPE   O1318536   6.467   3.394   6.287
  165SAPE   O1418537   6.495   3.622   6.189
  165SAPE   O1218538   6.270   3.545   6.302
  165SAPE   O1118539   6.475   3.586   6.441
  165SAPE    C118540   6.369   3.585   6.540
  165SAPE    HA18541   6.280   3.643   6.509
  165SAPE    HB18542   6.335   3.483   6.566
  165SAPE    C218543   6.416   3.661   6.665
  165SAPE    HS18544   6.413   3.768   6.636
  165SAPE   O2118545   6.547   3.613   6.710
  165SAPE   C2118546   6.602   3.695   6.798
  165SAPE   O2218547   6.569   3.815   6.818
  165SAPE   C2218548   6.728   3.626   6.849
  165SAPE   H2R18549   6.754   3.534   6.792
  165SAPE   H2S18550   6.809   3.699   6.829
  165SAPE    C318551   6.305   3.646   6.776
  165SAPE    HX18552   6.211   3.669   6.722
  165SAPE    HY18553   6.323   3.714   6.862
  165SAPE   O3118554   6.301   3.505   6.824
  165SAPE   C3118555   6.216   3.483   6.927
  165SAPE   O3218556   6.140   3.567   6.977
  165SAPE   C3218557   6.245   3.353   6.989
  165SAPE   H2X18558   6.339   3.379   7.041
  165SAPE   H2Y18559   6.255   3.282   6.904
  165SAPE   C2318560   6.719   3.603   6.995
  165SAPE   H3R18561   6.718   3.700   7.049
  165SAPE   H3S18562   6.819   3.562   7.020
  165SAPE   C2418563   6.613   3.498   7.041
  165SAPE   H4R18564   6.516   3.510   6.987
  165SAPE   H4S18565   6.598   3.523   7.148
  165SAPE   C2518566   6.665   3.364   7.015
  165SAPE   H5R18567   6.692   3.343   6.910
  165SAPE   C2618568   6.677   3.264   7.103
  165SAPE   H6R18569   6.722   3.173   7.061
  165SAPE   C2718570   6.633   3.262   7.248
  165SAPE   H7R18571   6.596   3.162   7.278
  165SAPE   H7S18572   6.548   3.333   7.253
  165SAPE   C2818573   6.742   3.309   7.338
  165SAPE   H8R18574   6.850   3.303   7.318
  165SAPE   C2918575   6.703   3.358   7.457
  165SAPE   H9R18576   6.786   3.407   7.511
  165SAPE  C21018577   6.571   3.377   7.523
  165SAPE  H10R18578   6.498   3.415   7.448
  165SAPE  H10S18579   6.571   3.462   7.593
  165SAPE  C21118580   6.512   3.251   7.580
  165SAPE  H11R18581   6.465   3.183   7.507
  165SAPE  C21218582   6.515   3.220   7.711
  165SAPE  H12R18583   6.456   3.135   7.746
  165SAPE  C21318584   6.588   3.292   7.829
  165SAPE  H13R18585   6.682   3.336   7.789
  165SAPE  H13S18586   6.621   3.210   7.897
  165SAPE  C21418587   6.499   3.393   7.898
  165SAPE  H14R18588   6.463   3.479   7.839
  165SAPE  C21518589   6.448   3.381   8.020
  165SAPE  H15R18590   6.393   3.464   8.067
  165SAPE  C21618591   6.485   3.272   8.123
  165SAPE  H16R18592   6.570   3.207   8.094
  165SAPE  H16S18593   6.394   3.211   8.140
  165SAPE  C21718594   6.538   3.354   8.244
  165SAPE  H17R18595   6.460   3.407   8.302
  165SAPE  H17S18596   6.621   3.425   8.222
  165SAPE  C21818597   6.592   3.272   8.363
  165SAPE  H18R18598   6.646   3.187   8.315
  165SAPE  H18S18599   6.505   3.210   8.392
  165SAPE  C21918600   6.656   3.355   8.473
  165SAPE  H19R18601   6.662   3.303   8.571
  165SAPE  H19S18602   6.606   3.454   8.479
  165SAPE  C22018603   6.800   3.379   8.443
  165SAPE  H20R18604   6.849   3.429   8.529
  165SAPE  H20S18605   6.823   3.439   8.352
  165SAPE  H20T18606   6.849   3.281   8.426
  165SAPE   C3318607   6.143   3.316   7.101
  165SAPE   H3X18608   6.161   3.207   7.104
  165SAPE   H3Y18609   6.040   3.331   7.063
  165SAPE   C3418610   6.153   3.388   7.239
  165SAPE   H4X18611   6.139   3.497   7.220
  165SAPE   H4Y18612   6.257   3.387   7.278
  165SAPE   C3518613   6.072   3.334   7.354
  165SAPE   H5X18614   6.109   3.230   7.372
  165SAPE   H5Y18615   5.967   3.336   7.318
  165SAPE   C3618616   6.093   3.408   7.489
  165SAPE   H6X18617   6.075   3.516   7.472
  165SAPE   H6Y18618   6.192   3.399   7.540
  165SAPE   C3718619   5.993   3.372   7.598
  165SAPE   H7X18620   5.892   3.361   7.552
  165SAPE   H7Y18621   5.997   3.458   7.668
  165SAPE   C3818622   6.033   3.245   7.669
  165SAPE   H8X18623   6.062   3.169   7.593
  165SAPE   H8Y18624   5.941   3.205   7.716
  165SAPE   C3918625   6.139   3.277   7.780
  165SAPE   H9X18626   6.123   3.378   7.824
  165SAPE   H9Y18627   6.234   3.277   7.723
  165SAPE  C31018628   6.147   3.176   7.896
  165SAPE  H10X18629   6.254   3.147   7.910
  165SAPE  H10Y18630   6.111   3.079   7.855
  165SAPE  C31118631   6.068   3.211   8.023
  165SAPE  H11X18632   5.962   3.224   7.993
  165SAPE  H11Y18633   6.105   3.308   8.061
  165SAPE  C31218634   6.083   3.111   8.131
  165SAPE  H12X18635   6.193   3.110   8.148
  165SAPE  H12Y18636   6.060   3.008   8.097
  165SAPE  C31318637   6.015   3.153   8.261
  165SAPE  H13X18638   5.908   3.171   8.238
  165SAPE  H13Y18639   6.068   3.245   8.293
  165SAPE  C31418640   6.033   3.060   8.386
  165SAPE  H14X18641   6.135   3.062   8.429
  165SAPE  H14Y18642   6.031   2.954   8.353
  165SAPE  C31518643   5.932   3.087   8.506
  165SAPE  H15X18644   5.973   3.047   8.602
  165SAPE  H15Y18645   5.836   3.037   8.482
  165SAPE  C31618646   5.909   3.231   8.529
  165SAPE  H16X18647   5.877   3.289   8.440
  165SAPE  H16Y18648   6.006   3.274   8.562
  165SAPE  C31718649   5.796   3.258   8.630
  165SAPE  H17X18650   5.815   3.360   8.670
  165SAPE  H17Y18651   5.803   3.195   8.722
  165SAPE  C31818652   5.653   3.246   8.582
  165SAPE  H18X18653   5.575   3.281   8.652
  165SAPE  H18Y18654   5.627   3.142   8.553
  165SAPE  H18Z18655   5.649   3.298   8.484
  166SAPE     N18656   5.478   6.577   5.625
  166SAPE   HN118657   5.487   6.479   5.658
  166SAPE   HN218658   5.443   6.582   5.527
  166SAPE   HN318659   5.562   6.633   5.648
  166SAPE   C1218660   5.364   6.641   5.711
  166SAPE  H12A18661   5.369   6.591   5.811
  166SAPE  H12B18662   5.266   6.623   5.663
  166SAPE   C1118663   5.357   6.793   5.744
  166SAPE  H11A18664   5.281   6.810   5.824
  166SAPE  H11B18665   5.328   6.849   5.652
  166SAPE     P18666   5.524   6.981   5.853
  166SAPE   O1318667   5.666   6.984   5.894
  166SAPE   O1418668   5.477   7.090   5.761
  166SAPE   O1218669   5.488   6.846   5.782
  166SAPE   O1118670   5.439   6.998   5.982
  166SAPE    C118671   5.418   6.894   6.074
  166SAPE    HA18672   5.309   6.870   6.072
  166SAPE    HB18673   5.484   6.809   6.045
  166SAPE    C218674   5.453   6.944   6.218
  166SAPE    HS18675   5.395   7.036   6.241
  166SAPE   O2118676   5.595   6.969   6.229
  166SAPE   C2118677   5.630   7.099   6.244
  166SAPE   O2218678   5.558   7.193   6.281
  166SAPE   C2218679   5.782   7.124   6.237
  166SAPE   H2R18680   5.803   7.078   6.138
  166SAPE   H2S18681   5.790   7.234   6.249
  166SAPE    C318682   5.408   6.830   6.319
  166SAPE    HX18683   5.406   6.726   6.279
  166SAPE    HY18684   5.301   6.855   6.336
  166SAPE   O3118685   5.460   6.839   6.456
  166SAPE   C3118686   5.564   6.760   6.471
  166SAPE   O3218687   5.611   6.684   6.385
  166SAPE   C3218688   5.611   6.772   6.618
  166SAPE   H2X18689   5.518   6.762   6.677
  166SAPE   H2Y18690   5.676   6.862   6.627
  166SAPE   C2318691   5.860   7.066   6.360
  166SAPE   H3R18692   5.965   7.097   6.345
  166SAPE   H3S18693   5.862   6.956   6.346
  166SAPE   C2418694   5.802   7.103   6.500
  166SAPE   H4R18695   5.857   7.045   6.577
  166SAPE   H4S18696   5.695   7.072   6.497
  166SAPE   C2518697   5.807   7.245   6.541
  166SAPE   H5R18698   5.828   7.314   6.458
  166SAPE   C2618699   5.746   7.306   6.653
  166SAPE   H6R18700   5.770   7.412   6.671
  166SAPE   C2718701   5.676   7.226   6.760
  166SAPE   H7R18702   5.639   7.130   6.719
  166SAPE   H7S18703   5.583   7.280   6.789
  166SAPE   C2818704   5.760   7.203   6.885
  166SAPE   H8R18705   5.849   7.141   6.868
  166SAPE   C2918706   5.738   7.256   7.009
  166SAPE   H9R18707   5.819   7.240   7.082
  166SAPE  C21018708   5.628   7.345   7.054
  166SAPE  H10R18709   5.552   7.355   6.973
  166SAPE  H10S18710   5.671   7.446   7.068
  166SAPE  C21118711   5.570   7.281   7.179
  166SAPE  H11R18712   5.504   7.195   7.158
  166SAPE  C21218713   5.580   7.325   7.307
  166SAPE  H12R18714   5.550   7.270   7.397
  166SAPE  C21318715   5.665   7.438   7.354
  166SAPE  H13R18716   5.596   7.519   7.386
  166SAPE  H13S18717   5.711   7.488   7.266
  166SAPE  C21418718   5.766   7.408   7.459
  166SAPE  H14R18719   5.865   7.378   7.421
  166SAPE  C21518720   5.741   7.408   7.587
  166SAPE  H15R18721   5.819   7.377   7.657
  166SAPE  C21618722   5.619   7.476   7.650
  166SAPE  H16R18723   5.566   7.538   7.574
  166SAPE  H16S18724   5.659   7.536   7.734
  166SAPE  C21718725   5.522   7.377   7.714
  166SAPE  H17R18726   5.477   7.300   7.647
  166SAPE  H17S18727   5.426   7.421   7.749
  166SAPE  C21818728   5.568   7.279   7.830
  166SAPE  H18R18729   5.640   7.341   7.888
  166SAPE  H18S18730   5.615   7.185   7.793
  166SAPE  C21918731   5.456   7.231   7.931
  166SAPE  H19R18732   5.357   7.222   7.881
  166SAPE  H19S18733   5.453   7.312   8.007
  166SAPE  C22018734   5.486   7.096   8.008
  166SAPE  H20R18735   5.388   7.050   8.032
  166SAPE  H20S18736   5.536   7.125   8.103
  166SAPE  H20T18737   5.539   7.034   7.933
  166SAPE   C3318738   5.693   6.655   6.665
  166SAPE   H3X18739   5.790   6.666   6.610
  166SAPE   H3Y18740   5.651   6.554   6.653
  166SAPE   C3418741   5.744   6.664   6.807
  166SAPE   H4X18742   5.759   6.557   6.833
  166SAPE   H4Y18743   5.667   6.689   6.884
  166SAPE   C3518744   5.875   6.753   6.824
  166SAPE   H5X18745   5.845   6.849   6.776
  166SAPE   H5Y18746   5.964   6.718   6.767
  166SAPE   C3618747   5.915   6.793   6.969
  166SAPE   H6X18748   6.004   6.859   6.972
  166SAPE   H6Y18749   5.944   6.703   7.028
  166SAPE   C3718750   5.796   6.859   7.046
  166SAPE   H7X18751   5.723   6.786   7.088
  166SAPE   H7Y18752   5.736   6.924   6.979
  166SAPE   C3818753   5.834   6.967   7.155
  166SAPE   H8X18754   5.743   7.027   7.175
  166SAPE   H8Y18755   5.905   7.041   7.112
  166SAPE   C3918756   5.901   6.901   7.275
  166SAPE   H9X18757   6.000   6.857   7.248
  166SAPE   H9Y18758   5.836   6.818   7.311
  166SAPE  C31018759   5.934   7.008   7.382
  166SAPE  H10X18760   5.837   7.049   7.419
  166SAPE  H10Y18761   5.993   7.094   7.346
  166SAPE  C31118762   6.004   6.956   7.511
  166SAPE  H11X18763   6.096   7.017   7.518
  166SAPE  H11Y18764   6.029   6.849   7.493
  166SAPE  C31218765   5.923   6.963   7.638
  166SAPE  H12X18766   5.835   6.896   7.635
  166SAPE  H12Y18767   5.895   7.070   7.646
  166SAPE  C31318768   6.003   6.934   7.764
  166SAPE  H13X18769   6.108   6.969   7.757
  166SAPE  H13Y18770   5.997   6.828   7.798
  166SAPE  C31418771   5.938   7.001   7.887
  166SAPE  H14X18772   5.830   6.974   7.878
  166SAPE  H14Y18773   5.944   7.110   7.869
  166SAPE  C31518774   6.012   6.958   8.013
  166SAPE  H15X18775   6.117   6.992   8.002
  166SAPE  H15Y18776   6.009   6.849   8.034
  166SAPE  C31618777   5.967   7.017   8.153
  166SAPE  H16X18778   5.968   7.127   8.135
  166SAPE  H16Y18779   6.047   7.001   8.228
  166SAPE  C31718780   5.834   6.963   8.200
  166SAPE  H17X18781   5.838   6.852   8.206
  166SAPE  H17Y18782   5.757   6.981   8.121
  166SAPE  C31818783   5.787   7.013   8.335
  166SAPE  H18X18784   5.846   6.974   8.421
  166SAPE  H18Y18785   5.678   6.996   8.347
  166SAPE  H18Z18786   5.801   7.123   8.338
  167SAPE     N18787   6.594   6.565   6.158
  167SAPE   HN118788   6.598   6.665   6.184
  167SAPE   HN218789   6.664   6.538   6.086
  167SAPE   HN318790   6.502   6.547   6.112
  167SAPE   C1218791   6.611   6.471   6.273
  167SAPE  H12A18792   6.523   6.478   6.340
  167SAPE  H12B18793   6.697   6.500   6.337
  167SAPE   C1118794   6.631   6.323   6.230
  167SAPE  H11A18795   6.533   6.278   6.204
  167SAPE  H11B18796   6.668   6.265   6.317
  167SAPE     P18797   6.881   6.360   6.140
  167SAPE   O1318798   6.973   6.250   6.094
  167SAPE   O1418799   6.899   6.493   6.074
  167SAPE   O1218800   6.727   6.314   6.126
  167SAPE   O1118801   6.903   6.375   6.302
  167SAPE    C118802   6.992   6.288   6.383
  167SAPE    HA18803   7.071   6.248   6.316
  167SAPE    HB18804   7.045   6.350   6.459
  167SAPE    C218805   6.912   6.190   6.468
  167SAPE    HS18806   6.874   6.116   6.395
  167SAPE   O2118807   6.813   6.260   6.536
  167SAPE   C2118808   6.707   6.183   6.566
  167SAPE   O2218809   6.691   6.070   6.520
  167SAPE   C2218810   6.609   6.250   6.670
  167SAPE   H2R18811   6.620   6.361   6.673
  167SAPE   H2S18812   6.507   6.230   6.633
  167SAPE    C318813   7.005   6.105   6.569
  167SAPE    HX18814   7.037   6.178   6.647
  167SAPE    HY18815   7.084   6.049   6.515
  167SAPE   O3118816   6.936   5.998   6.641
  167SAPE   C3118817   7.014   5.939   6.736
  167SAPE   O3218818   7.124   5.974   6.774
  167SAPE   C3218819   6.933   5.825   6.799
  167SAPE   H2X18820   6.858   5.798   6.722
  167SAPE   H2Y18821   6.872   5.868   6.882
  167SAPE   C2318822   6.628   6.199   6.819
  167SAPE   H3R18823   6.661   6.094   6.820
  167SAPE   H3S18824   6.527   6.205   6.866
  167SAPE   C2418825   6.727   6.278   6.906
  167SAPE   H4R18826   6.719   6.220   7.000
  167SAPE   H4S18827   6.681   6.376   6.930
  167SAPE   C2518828   6.871   6.302   6.871
  167SAPE   H5R18829   6.884   6.350   6.772
  167SAPE   C2618830   6.979   6.276   6.950
  167SAPE   H6R18831   7.079   6.285   6.905
  167SAPE   C2718832   6.969   6.211   7.087
  167SAPE   H7R18833   6.896   6.127   7.080
  167SAPE   H7S18834   6.921   6.276   7.162
  167SAPE   C2818835   7.101   6.147   7.131
  167SAPE   H8R18836   7.164   6.113   7.047
  167SAPE   C2918837   7.149   6.135   7.252
  167SAPE   H9R18838   7.240   6.075   7.268
  167SAPE  C21018839   7.082   6.184   7.380
  167SAPE  H10R18840   7.128   6.127   7.464
  167SAPE  H10S18841   6.974   6.158   7.377
  167SAPE  C21118842   7.095   6.336   7.404
  167SAPE  H11R18843   7.112   6.401   7.317
  167SAPE  C21218844   7.076   6.386   7.532
  167SAPE  H12R18845   7.099   6.493   7.541
  167SAPE  C21318846   7.043   6.305   7.652
  167SAPE  H13R18847   7.063   6.198   7.630
  167SAPE  H13S18848   6.932   6.312   7.647
  167SAPE  C21418849   7.093   6.349   7.791
  167SAPE  H14R18850   7.196   6.313   7.806
  167SAPE  C21518851   7.040   6.442   7.877
  167SAPE  H15R18852   7.095   6.477   7.966
  167SAPE  C21618853   6.903   6.502   7.853
  167SAPE  H16R18854   6.826   6.422   7.858
  167SAPE  H16S18855   6.884   6.546   7.753
  167SAPE  C21718856   6.865   6.604   7.964
  167SAPE  H17R18857   6.781   6.666   7.928
  167SAPE  H17S18858   6.958   6.665   7.973
  167SAPE  C21818859   6.842   6.544   8.103
  167SAPE  H18R18860   6.920   6.469   8.130
  167SAPE  H18S18861   6.743   6.493   8.097
  167SAPE  C21918862   6.850   6.658   8.212
  167SAPE  H19R18863   6.778   6.639   8.295
  167SAPE  H19S18864   6.811   6.749   8.159
  167SAPE  C22018865   6.983   6.669   8.279
  167SAPE  H20R18866   7.051   6.734   8.219
  167SAPE  H20S18867   7.029   6.573   8.312
  167SAPE  H20T18868   6.972   6.722   8.376
  167SAPE   C3318869   7.014   5.700   6.846
  167SAPE   H3X18870   7.087   5.661   6.772
  167SAPE   H3Y18871   6.939   5.619   6.853
  167SAPE   C3418872   7.086   5.708   6.982
  167SAPE   H4X18873   7.179   5.764   6.962
  167SAPE   H4Y18874   7.126   5.609   7.015
  167SAPE   C3518875   7.003   5.775   7.089
  167SAPE   H5X18876   6.908   5.718   7.101
  167SAPE   H5Y18877   6.990   5.883   7.066
  167SAPE   C3618878   7.080   5.763   7.218
  167SAPE   H6X18879   7.181   5.809   7.217
  167SAPE   H6Y18880   7.101   5.656   7.236
  167SAPE   C3718881   7.001   5.829   7.330
  167SAPE   H7X18882   6.903   5.780   7.351
  167SAPE   H7Y18883   6.985   5.935   7.299
  167SAPE   C3818884   7.080   5.831   7.465
  167SAPE   H8X18885   7.179   5.882   7.457
  167SAPE   H8Y18886   7.106   5.725   7.486
  167SAPE   C3918887   6.990   5.882   7.577
  167SAPE   H9X18888   6.895   5.827   7.568
  167SAPE   H9Y18889   6.976   5.992   7.569
  167SAPE  C31018890   7.050   5.880   7.715
  167SAPE  H10X18891   7.154   5.916   7.702
  167SAPE  H10Y18892   7.064   5.773   7.745
  167SAPE  C31118893   6.976   5.955   7.820
  167SAPE  H11X18894   6.870   5.925   7.830
  167SAPE  H11Y18895   6.955   6.061   7.791
  167SAPE  C31218896   7.043   5.961   7.956
  167SAPE  H12X18897   7.143   6.006   7.938
  167SAPE  H12Y18898   7.045   5.863   8.009
  167SAPE  C31318899   6.969   6.058   8.048
  167SAPE  H13X18900   6.863   6.034   8.073
  167SAPE  H13Y18901   6.958   6.150   7.985
  167SAPE  C31418902   7.047   6.100   8.174
  167SAPE  H14X18903   6.993   6.180   8.229
  167SAPE  H14Y18904   7.150   6.131   8.148
  167SAPE  C31518905   7.053   5.981   8.276
  167SAPE  H15X18906   7.095   6.016   8.373
  167SAPE  H15Y18907   7.133   5.913   8.240
  167SAPE  C31618908   6.926   5.902   8.303
  167SAPE  H16X18909   6.889   5.852   8.210
  167SAPE  H16Y18910   6.853   5.980   8.333
  167SAPE  C31718911   6.942   5.798   8.411
  167SAPE  H17X18912   7.013   5.720   8.377
  167SAPE  H17Y18913   6.850   5.737   8.407
  167SAPE  C31818914   6.959   5.845   8.556
  167SAPE  H18X18915   6.952   5.761   8.629
  167SAPE  H18Y18916   6.884   5.920   8.590
  167SAPE  H18Z18917   7.054   5.898   8.575
  168SAPE     N18918   1.254   0.993   6.436
  168SAPE   HN118919   1.153   0.968   6.442
  168SAPE   HN218920   1.271   1.048   6.350
  168SAPE   HN318921   1.296   0.899   6.425
  168SAPE   C1218922   1.303   1.067   6.554
  168SAPE  H12A18923   1.264   1.011   6.642
  168SAPE  H12B18924   1.255   1.167   6.547
  168SAPE   C1118925   1.456   1.074   6.567
  168SAPE  H11A18926   1.501   0.972   6.571
  168SAPE  H11B18927   1.480   1.133   6.657
  168SAPE     P18928   1.607   1.240   6.422
  168SAPE   O1318929   1.706   1.185   6.328
  168SAPE   O1418930   1.553   1.368   6.383
  168SAPE   O1218931   1.508   1.125   6.443
  168SAPE   O1118932   1.685   1.253   6.559
  168SAPE    C118933   1.771   1.147   6.601
  168SAPE    HA18934   1.714   1.051   6.606
  168SAPE    HB18935   1.859   1.132   6.535
  168SAPE    C218936   1.830   1.176   6.738
  168SAPE    HS18937   1.884   1.088   6.779
  168SAPE   O2118938   1.746   1.218   6.841
  168SAPE   C2118939   1.646   1.140   6.871
  168SAPE   O2218940   1.627   1.029   6.823
  168SAPE   C2218941   1.567   1.209   6.980
  168SAPE   H2R18942   1.638   1.266   7.044
  168SAPE   H2S18943   1.500   1.283   6.933
  168SAPE    C318944   1.937   1.284   6.723
  168SAPE    HX18945   1.909   1.371   6.659
  168SAPE    HY18946   2.016   1.235   6.662
  168SAPE   O3118947   1.983   1.347   6.852
  168SAPE   C3118948   2.073   1.274   6.929
  168SAPE   O3218949   2.120   1.170   6.891
  168SAPE   C3218950   2.086   1.335   7.065
  168SAPE   H2X18951   2.063   1.443   7.054
  168SAPE   H2Y18952   2.188   1.324   7.108
  168SAPE   C2318953   1.487   1.116   7.066
  168SAPE   H3R18954   1.412   1.059   7.009
  168SAPE   H3S18955   1.428   1.176   7.139
  168SAPE   C2418956   1.579   1.023   7.146
  168SAPE   H4R18957   1.669   1.068   7.194
  168SAPE   H4S18958   1.623   0.961   7.064
  168SAPE   C2518959   1.501   0.937   7.243
  168SAPE   H5R18960   1.449   0.851   7.198
  168SAPE   C2618961   1.499   0.963   7.374
  168SAPE   H6R18962   1.441   0.901   7.444
  168SAPE   C2718963   1.573   1.077   7.447
  168SAPE   H7R18964   1.610   1.156   7.379
  168SAPE   H7S18965   1.657   1.026   7.499
  168SAPE   C2818966   1.480   1.137   7.548
  168SAPE   H8R18967   1.431   1.228   7.511
  168SAPE   C2918968   1.438   1.087   7.665
  168SAPE   H9R18969   1.371   1.136   7.738
  168SAPE  C21018970   1.500   0.957   7.716
  168SAPE  H10R18971   1.490   0.967   7.826
  168SAPE  H10S18972   1.611   0.955   7.710
  168SAPE  C21118973   1.447   0.819   7.690
  168SAPE  H11R18974   1.526   0.751   7.655
  168SAPE  C21218975   1.327   0.759   7.709
  168SAPE  H12R18976   1.322   0.653   7.681
  168SAPE  C21318977   1.200   0.814   7.764
  168SAPE  H13R18978   1.202   0.925   7.778
  168SAPE  H13S18979   1.178   0.785   7.869
  168SAPE  C21418980   1.089   0.776   7.673
  168SAPE  H14R18981   1.113   0.795   7.568
  168SAPE  C21518982   0.964   0.735   7.697
  168SAPE  H15R18983   0.893   0.708   7.617
  168SAPE  C21618984   0.917   0.695   7.834
  168SAPE  H16R18985   0.849   0.774   7.872
  168SAPE  H16S18986   1.001   0.675   7.903
  168SAPE  C21718987   0.828   0.569   7.817
  168SAPE  H17R18988   0.871   0.484   7.759
  168SAPE  H17S18989   0.735   0.592   7.761
  168SAPE  C21818990   0.776   0.523   7.954
  168SAPE  H18R18991   0.751   0.616   8.008
  168SAPE  H18S18992   0.860   0.482   8.016
  168SAPE  C21918993   0.659   0.425   7.942
  168SAPE  H19R18994   0.696   0.361   7.859
  168SAPE  H19S18995   0.573   0.483   7.902
  168SAPE  C22018996   0.623   0.352   8.065
  168SAPE  H20R18997   0.690   0.264   8.077
  168SAPE  H20S18998   0.518   0.316   8.067
  168SAPE  H20T18999   0.635   0.419   8.153
  168SAPE   C3319000   1.983   1.278   7.166
  168SAPE   H3X19001   1.961   1.171   7.146
  168SAPE   H3Y19002   1.892   1.341   7.165
  168SAPE   C3419003   2.030   1.298   7.317
  168SAPE   H4X19004   2.036   1.408   7.333
  168SAPE   H4Y19005   2.132   1.258   7.336
  168SAPE   C3519006   1.920   1.254   7.419
  168SAPE   H5X19007   1.908   1.143   7.422
  168SAPE   H5Y19008   1.817   1.290   7.399
  168SAPE   C3619009   1.956   1.278   7.570
  168SAPE   H6X19010   1.876   1.247   7.640
  168SAPE   H6Y19011   1.969   1.387   7.579
  168SAPE   C3719012   2.098   1.220   7.608
  168SAPE   H7X19013   2.171   1.283   7.554
  168SAPE   H7Y19014   2.100   1.111   7.586
  168SAPE   C3819015   2.131   1.240   7.763
  168SAPE   H8X19016   2.126   1.348   7.792
  168SAPE   H8Y19017   2.237   1.211   7.777
  168SAPE   C3919018   2.040   1.164   7.855
  168SAPE   H9X19019   2.051   1.056   7.832
  168SAPE   H9Y19020   1.936   1.180   7.821
  168SAPE  C31019021   2.067   1.190   8.000
  168SAPE  H10X19022   2.172   1.185   8.035
  168SAPE  H10Y19023   1.992   1.125   8.050
  168SAPE  C31119024   2.040   1.334   8.063
  168SAPE  H11X19025   1.930   1.351   8.064
  168SAPE  H11Y19026   2.092   1.408   7.999
  168SAPE  C31219027   2.082   1.351   8.202
  168SAPE  H12X19028   2.050   1.448   8.246
  168SAPE  H12Y19029   2.190   1.342   8.228
  168SAPE  C31319030   2.023   1.239   8.299
  168SAPE  H13X19031   2.060   1.137   8.275
  168SAPE  H13Y19032   1.915   1.240   8.275
  168SAPE  C31419033   2.049   1.280   8.443
  168SAPE  H14X19034   2.005   1.378   8.470
  168SAPE  H14Y19035   2.158   1.287   8.461
  168SAPE  C31519036   1.989   1.178   8.548
  168SAPE  H15X19037   1.883   1.169   8.519
  168SAPE  H15Y19038   1.993   1.216   8.652
  168SAPE  C31619039   2.066   1.045   8.555
  168SAPE  H16X19040   2.172   1.061   8.583
  168SAPE  H16Y19041   2.076   1.012   8.450
  168SAPE  C31719042   2.010   0.941   8.644
  168SAPE  H17X19043   1.917   0.908   8.593
  168SAPE  H17Y19044   1.986   0.982   8.745
  168SAPE  C31819045   2.103   0.819   8.664
  168SAPE  H18X19046   2.195   0.853   8.717
  168SAPE  H18Y19047   2.123   0.782   8.561
  168SAPE  H18Z19048   2.045   0.735   8.708
  169SAPE     N19049   1.287   3.218   6.022
  169SAPE   HN119050   1.371   3.278   6.010
  169SAPE   HN219051   1.291   3.210   6.126
  169SAPE   HN319052   1.304   3.130   5.970
  169SAPE   C1219053   1.153   3.282   5.991
  169SAPE  H12A19054   1.141   3.309   5.884
  169SAPE  H12B19055   1.159   3.374   6.053
  169SAPE   C1119056   1.031   3.208   6.044
  169SAPE  H11A19057   1.024   3.128   5.967
  169SAPE  H11B19058   0.937   3.267   6.038
  169SAPE     P19059   1.003   3.252   6.308
  169SAPE   O1319060   1.072   3.204   6.430
  169SAPE   O1419061   1.013   3.395   6.274
  169SAPE   O1219062   1.042   3.160   6.182
  169SAPE   O1119063   0.848   3.214   6.302
  169SAPE    C119064   0.789   3.099   6.359
  169SAPE    HA19065   0.745   3.045   6.273
  169SAPE    HB19066   0.868   3.028   6.392
  169SAPE    C219067   0.681   3.118   6.465
  169SAPE    HS19068   0.612   3.193   6.420
  169SAPE   O2119069   0.755   3.176   6.573
  169SAPE   C2119070   0.688   3.239   6.671
  169SAPE   O2219071   0.568   3.259   6.677
  169SAPE   C2219072   0.796   3.280   6.779
  169SAPE   H2R19073   0.725   3.309   6.860
  169SAPE   H2S19074   0.862   3.196   6.809
  169SAPE    C319075   0.617   2.977   6.486
  169SAPE    HX19076   0.699   2.903   6.485
  169SAPE    HY19077   0.555   2.952   6.396
  169SAPE   O3119078   0.538   2.984   6.605
  169SAPE   C3119079   0.483   2.869   6.644
  169SAPE   O3219080   0.481   2.767   6.582
  169SAPE   C3219081   0.435   2.892   6.783
  169SAPE   H2X19082   0.328   2.863   6.782
  169SAPE   H2Y19083   0.444   3.001   6.803
  169SAPE   C2319084   0.870   3.405   6.739
  169SAPE   H3R19085   0.809   3.473   6.676
  169SAPE   H3S19086   0.963   3.374   6.686
  169SAPE   C2419087   0.912   3.485   6.871
  169SAPE   H4R19088   0.826   3.533   6.922
  169SAPE   H4S19089   0.980   3.568   6.842
  169SAPE   C2519090   0.980   3.396   6.966
  169SAPE   H5R19091   1.055   3.325   6.929
  169SAPE   C2619092   0.956   3.388   7.101
  169SAPE   H6R19093   1.018   3.324   7.165
  169SAPE   C2719094   0.867   3.461   7.196
  169SAPE   H7R19095   0.792   3.526   7.147
  169SAPE   H7S19096   0.935   3.522   7.260
  169SAPE   C2819097   0.789   3.360   7.282
  169SAPE   H8R19098   0.695   3.326   7.237
  169SAPE   C2919099   0.824   3.314   7.404
  169SAPE   H9R19100   0.760   3.237   7.450
  169SAPE  C21019101   0.957   3.331   7.475
  169SAPE  H10R19102   1.042   3.328   7.403
  169SAPE  H10S19103   0.973   3.243   7.541
  169SAPE  C21119104   0.960   3.466   7.548
  169SAPE  H11R19105   1.029   3.543   7.513
  169SAPE  C21219106   0.892   3.484   7.665
  169SAPE  H12R19107   0.886   3.588   7.699
  169SAPE  C21319108   0.805   3.379   7.743
  169SAPE  H13R19109   0.845   3.333   7.836
  169SAPE  H13S19110   0.789   3.286   7.684
  169SAPE  C21419111   0.675   3.448   7.750
  169SAPE  H14R19112   0.601   3.411   7.677
  169SAPE  C21519113   0.630   3.521   7.853
  169SAPE  H15R19114   0.523   3.548   7.855
  169SAPE  C21619115   0.702   3.549   7.987
  169SAPE  H16R19116   0.802   3.501   7.980
  169SAPE  H16S19117   0.637   3.502   8.064
  169SAPE  C21719118   0.729   3.700   8.011
  169SAPE  H17R19119   0.732   3.716   8.121
  169SAPE  H17S19120   0.643   3.754   7.967
  169SAPE  C21819121   0.862   3.738   7.952
  169SAPE  H18R19122   0.879   3.701   7.849
  169SAPE  H18S19123   0.944   3.687   8.007
  169SAPE  C21919124   0.895   3.888   7.967
  169SAPE  H19R19125   0.999   3.892   7.929
  169SAPE  H19S19126   0.886   3.924   8.072
  169SAPE  C22019127   0.802   3.974   7.875
  169SAPE  H20R19128   0.827   3.944   7.771
  169SAPE  H20S19129   0.837   4.077   7.896
  169SAPE  H20T19130   0.693   3.959   7.893
  169SAPE   C3319131   0.509   2.812   6.897
  169SAPE   H3X19132   0.492   2.703   6.880
  169SAPE   H3Y19133   0.452   2.817   6.993
  169SAPE   C3419134   0.661   2.831   6.917
  169SAPE   H4X19135   0.716   2.817   6.822
  169SAPE   H4Y19136   0.708   2.762   6.991
  169SAPE   C3519137   0.688   2.979   6.954
  169SAPE   H5X19138   0.653   3.050   6.876
  169SAPE   H5Y19139   0.798   2.997   6.957
  169SAPE   C3619140   0.619   3.020   7.088
  169SAPE   H6X19141   0.509   3.010   7.083
  169SAPE   H6Y19142   0.642   3.129   7.096
  169SAPE   C3719143   0.675   2.956   7.215
  169SAPE   H7X19144   0.780   2.985   7.234
  169SAPE   H7Y19145   0.658   2.846   7.204
  169SAPE   C3819146   0.600   3.012   7.333
  169SAPE   H8X19147   0.492   2.985   7.337
  169SAPE   H8Y19148   0.601   3.122   7.321
  169SAPE   C3919149   0.664   2.971   7.471
  169SAPE   H9X19150   0.774   2.976   7.461
  169SAPE   H9Y19151   0.650   2.861   7.467
  169SAPE  C31019152   0.604   3.041   7.589
  169SAPE  H10X19153   0.501   3.005   7.609
  169SAPE  H10Y19154   0.596   3.149   7.565
  169SAPE  C31119155   0.699   3.021   7.710
  169SAPE  H11X19156   0.798   3.066   7.687
  169SAPE  H11Y19157   0.733   2.915   7.717
  169SAPE  C31219158   0.643   3.069   7.839
  169SAPE  H12X19159   0.540   3.031   7.858
  169SAPE  H12Y19160   0.639   3.179   7.848
  169SAPE  C31319161   0.719   3.016   7.968
  169SAPE  H13X19162   0.818   3.066   7.975
  169SAPE  H13Y19163   0.722   2.905   7.957
  169SAPE  C31419164   0.634   3.054   8.089
  169SAPE  H14X19165   0.673   2.995   8.176
  169SAPE  H14Y19166   0.525   3.036   8.074
  169SAPE  C31519167   0.646   3.199   8.123
  169SAPE  H15X19168   0.562   3.250   8.071
  169SAPE  H15Y19169   0.747   3.242   8.102
  169SAPE  C31619170   0.637   3.227   8.274
  169SAPE  H16X19171   0.643   3.337   8.288
  169SAPE  H16Y19172   0.730   3.187   8.319
  169SAPE  C31719173   0.514   3.174   8.347
  169SAPE  H17X19174   0.517   3.068   8.381
  169SAPE  H17Y19175   0.423   3.176   8.285
  169SAPE  C31819176   0.491   3.260   8.472
  169SAPE  H18X19177   0.493   3.368   8.449
  169SAPE  H18Y19178   0.574   3.244   8.544
  169SAPE  H18Z19179   0.393   3.230   8.516
  170SAPE     N19180   2.117   0.160   5.977
  170SAPE   HN119181   2.201   0.211   6.012
  170SAPE   HN219182   2.133   0.132   5.878
  170SAPE   HN319183   2.040   0.230   5.981
  170SAPE   C1219184   2.088   0.044   6.072
  170SAPE  H12A19185   2.182  -0.007   6.103
  170SAPE  H12B19186   2.039  -0.029   6.004
  170SAPE   C1119187   2.005   0.097   6.187
  170SAPE  H11A19188   2.070   0.162   6.250
  170SAPE  H11B19189   1.968   0.001   6.230
  170SAPE     P19190   1.872   0.322   6.161
  170SAPE   O1319191   1.961   0.397   6.065
  170SAPE   O1419192   1.727   0.343   6.157
  170SAPE   O1219193   1.896   0.173   6.139
  170SAPE   O1119194   1.936   0.343   6.299
  170SAPE    C119195   1.874   0.323   6.428
  170SAPE    HA19196   1.837   0.219   6.432
  170SAPE    HB19197   1.955   0.341   6.502
  170SAPE    C219198   1.764   0.427   6.458
  170SAPE    HS19199   1.689   0.424   6.376
  170SAPE   O2119200   1.828   0.555   6.457
  170SAPE   C2119201   1.750   0.655   6.496
  170SAPE   O2219202   1.625   0.656   6.501
  170SAPE   C2219203   1.838   0.772   6.550
  170SAPE   H2R19204   1.880   0.826   6.462
  170SAPE   H2S19205   1.774   0.844   6.606
  170SAPE    C319206   1.688   0.383   6.591
  170SAPE    HX19207   1.600   0.448   6.610
  170SAPE    HY19208   1.755   0.402   6.677
  170SAPE   O3119209   1.643   0.247   6.590
  170SAPE   C3119210   1.529   0.231   6.536
  170SAPE   O3219211   1.447   0.319   6.513
  170SAPE   C3219212   1.509   0.083   6.496
  170SAPE   H2X19213   1.599   0.058   6.436
  170SAPE   H2Y19214   1.419   0.091   6.432
  170SAPE   C2319215   1.954   0.720   6.633
  170SAPE   H3R19216   2.031   0.801   6.626
  170SAPE   H3S19217   2.004   0.636   6.581
  170SAPE   C2419218   1.927   0.665   6.774
  170SAPE   H4R19219   2.028   0.639   6.812
  170SAPE   H4S19220   1.859   0.577   6.767
  170SAPE   C2519221   1.873   0.765   6.869
  170SAPE   H5R19222   1.769   0.798   6.852
  170SAPE   C2619223   1.923   0.798   6.989
  170SAPE   H6R19224   1.869   0.866   7.056
  170SAPE   C2719225   2.055   0.751   7.052
  170SAPE   H7R19226   2.116   0.683   6.989
  170SAPE   H7S19227   2.034   0.700   7.148
  170SAPE   C2819228   2.136   0.874   7.073
  170SAPE   H8R19229   2.188   0.915   6.985
  170SAPE   C2919230   2.165   0.935   7.187
  170SAPE   H9R19231   2.247   1.008   7.199
  170SAPE  C21019232   2.110   0.893   7.319
  170SAPE  H10R19233   2.000   0.881   7.310
  170SAPE  H10S19234   2.123   0.975   7.393
  170SAPE  C21119235   2.175   0.771   7.377
  170SAPE  H11R19236   2.166   0.691   7.302
  170SAPE  C21219237   2.204   0.740   7.506
  170SAPE  H12R19238   2.247   0.641   7.527
  170SAPE  C21319239   2.200   0.829   7.626
  170SAPE  H13R19240   2.157   0.773   7.711
  170SAPE  H13S19241   2.126   0.911   7.615
  170SAPE  C21419242   2.324   0.911   7.661
  170SAPE  H14R19243   2.391   0.945   7.581
  170SAPE  C21519244   2.374   0.928   7.788
  170SAPE  H15R19245   2.467   0.983   7.808
  170SAPE  C21619246   2.317   0.886   7.921
  170SAPE  H16R19247   2.352   0.782   7.937
  170SAPE  H16S19248   2.206   0.894   7.925
  170SAPE  C21719249   2.388   0.959   8.037
  170SAPE  H17R19250   2.374   1.069   8.039
  170SAPE  H17S19251   2.497   0.940   8.048
  170SAPE  C21819252   2.325   0.910   8.173
  170SAPE  H18R19253   2.336   0.802   8.198
  170SAPE  H18S19254   2.215   0.927   8.170
  170SAPE  C21919255   2.390   0.979   8.293
  170SAPE  H19R19256   2.500   0.962   8.292
  170SAPE  H19S19257   2.349   0.937   8.387
  170SAPE  C22019258   2.375   1.128   8.293
  170SAPE  H20R19259   2.271   1.139   8.255
  170SAPE  H20S19260   2.448   1.175   8.223
  170SAPE  H20T19261   2.385   1.182   8.390
  170SAPE   C3319262   1.485   0.005   6.627
  170SAPE   H3X19263   1.566   0.027   6.700
  170SAPE   H3Y19264   1.484  -0.106   6.619
  170SAPE   C3419265   1.352   0.041   6.690
  170SAPE   H4X19266   1.269  -0.008   6.634
  170SAPE   H4Y19267   1.329   0.149   6.691
  170SAPE   C3519268   1.346   0.013   6.837
  170SAPE   H5X19269   1.418   0.084   6.884
  170SAPE   H5Y19270   1.389  -0.087   6.861
  170SAPE   C3619271   1.216   0.021   6.906
  170SAPE   H6X19272   1.158   0.111   6.877
  170SAPE   H6Y19273   1.233   0.049   7.012
  170SAPE   C3719274   1.133  -0.112   6.918
  170SAPE   H7X19275   1.196  -0.203   6.909
  170SAPE   H7Y19276   1.068  -0.123   6.829
  170SAPE   C3819277   1.046  -0.109   7.044
  170SAPE   H8X19278   0.950  -0.163   7.040
  170SAPE   H8Y19279   1.000  -0.008   7.037
  170SAPE   C3919280   1.120  -0.146   7.171
  170SAPE   H9X19281   1.200  -0.070   7.185
  170SAPE   H9Y19282   1.192  -0.230   7.160
  170SAPE  C31019283   1.031  -0.164   7.290
  170SAPE  H10X19284   0.961  -0.246   7.264
  170SAPE  H10Y19285   0.968  -0.074   7.306
  170SAPE  C31119286   1.101  -0.182   7.418
  170SAPE  H11X19287   1.168  -0.269   7.404
  170SAPE  H11Y19288   1.016  -0.211   7.483
  170SAPE  C31219289   1.190  -0.068   7.468
  170SAPE  H12X19290   1.121   0.017   7.488
  170SAPE  H12Y19291   1.259  -0.042   7.385
  170SAPE  C31319292   1.273  -0.105   7.593
  170SAPE  H13X19293   1.333  -0.017   7.627
  170SAPE  H13Y19294   1.348  -0.179   7.559
  170SAPE  C31419295   1.193  -0.155   7.719
  170SAPE  H14X19296   1.115  -0.226   7.683
  170SAPE  H14Y19297   1.138  -0.066   7.756
  170SAPE  C31519298   1.284  -0.217   7.831
  170SAPE  H15X19299   1.374  -0.153   7.845
  170SAPE  H15Y19300   1.312  -0.316   7.791
  170SAPE  C31619301   1.223  -0.214   7.971
  170SAPE  H16X19302   1.132  -0.278   7.969
  170SAPE  H16Y19303   1.189  -0.114   8.006
  170SAPE  C31719304   1.320  -0.264   8.081
  170SAPE  H17X19305   1.425  -0.235   8.056
  170SAPE  H17Y19306   1.318  -0.375   8.076
  170SAPE  C31819307   1.268  -0.220   8.221
  170SAPE  H18X19308   1.157  -0.213   8.224
  170SAPE  H18Y19309   1.313  -0.124   8.253
  170SAPE  H18Z19310   1.304  -0.298   8.291
  171SAPE     N19311   2.797   1.196   6.038
  171SAPE   HN119312   2.735   1.247   6.105
  171SAPE   HN219313   2.861   1.270   6.001
  171SAPE   HN319314   2.742   1.149   5.964
  171SAPE   C1219315   2.853   1.084   6.123
  171SAPE  H12A19316   2.931   1.036   6.059
  171SAPE  H12B19317   2.774   1.008   6.143
  171SAPE   C1119318   2.922   1.133   6.247
  171SAPE  H11A19319   2.975   1.050   6.298
  171SAPE  H11B19320   2.850   1.156   6.329
  171SAPE     P19321   3.132   1.273   6.308
  171SAPE   O1319322   3.226   1.167   6.297
  171SAPE   O1419323   3.194   1.406   6.262
  171SAPE   O1219324   3.005   1.244   6.228
  171SAPE   O1119325   3.073   1.282   6.456
  171SAPE    C119326   3.162   1.302   6.560
  171SAPE    HA19327   3.261   1.259   6.535
  171SAPE    HB19328   3.182   1.410   6.576
  171SAPE    C219329   3.109   1.257   6.700
  171SAPE    HS19330   3.005   1.291   6.682
  171SAPE   O2119331   3.174   1.329   6.801
  171SAPE   C2119332   3.101   1.346   6.915
  171SAPE   O2219333   2.985   1.309   6.933
  171SAPE   C2219334   3.186   1.422   7.019
  171SAPE   H2R19335   3.285   1.442   6.972
  171SAPE   H2S19336   3.130   1.516   7.039
  171SAPE    C319337   3.138   1.101   6.713
  171SAPE    HX19338   3.242   1.080   6.677
  171SAPE    HY19339   3.070   1.047   6.644
  171SAPE   O3119340   3.134   1.062   6.852
  171SAPE   C3119341   3.023   1.008   6.894
  171SAPE   O3219342   2.922   0.990   6.830
  171SAPE   C3219343   3.031   0.998   7.048
  171SAPE   H2X19344   3.013   1.099   7.090
  171SAPE   H2Y19345   3.133   0.965   7.075
  171SAPE   C2319346   3.232   1.355   7.149
  171SAPE   H3R19347   3.326   1.399   7.188
  171SAPE   H3S19348   3.263   1.254   7.113
  171SAPE   C2419349   3.130   1.358   7.266
  171SAPE   H4R19350   3.040   1.301   7.236
  171SAPE   H4S19351   3.097   1.464   7.270
  171SAPE   C2519352   3.183   1.297   7.393
  171SAPE   H5R19353   3.164   1.190   7.408
  171SAPE   C2619354   3.236   1.368   7.501
  171SAPE   H6R19355   3.278   1.310   7.585
  171SAPE   C2719356   3.255   1.520   7.505
  171SAPE   H7R19357   3.214   1.561   7.409
  171SAPE   H7S19358   3.360   1.553   7.497
  171SAPE   C2819359   3.178   1.579   7.623
  171SAPE   H8R19360   3.070   1.592   7.611
  171SAPE   C2919361   3.230   1.631   7.732
  171SAPE   H9R19362   3.172   1.692   7.803
  171SAPE  C21019363   3.375   1.637   7.770
  171SAPE  H10R19364   3.444   1.617   7.686
  171SAPE  H10S19365   3.393   1.544   7.829
  171SAPE  C21119366   3.403   1.764   7.854
  171SAPE  H11R19367   3.454   1.846   7.801
  171SAPE  C21219368   3.381   1.784   7.989
  171SAPE  H12R19369   3.401   1.882   8.033
  171SAPE  C21319370   3.326   1.685   8.085
  171SAPE  H13R19371   3.226   1.649   8.055
  171SAPE  H13S19372   3.311   1.734   8.184
  171SAPE  C21419373   3.424   1.566   8.104
  171SAPE  H14R19374   3.427   1.490   8.024
  171SAPE  C21519375   3.489   1.534   8.214
  171SAPE  H15R19376   3.539   1.436   8.217
  171SAPE  C21619377   3.491   1.604   8.349
  171SAPE  H16R19378   3.514   1.540   8.437
  171SAPE  H16S19379   3.391   1.650   8.370
  171SAPE  C21719380   3.609   1.706   8.354
  171SAPE  H17R19381   3.585   1.783   8.278
  171SAPE  H17S19382   3.709   1.663   8.329
  171SAPE  C21819383   3.622   1.771   8.488
  171SAPE  H18R19384   3.685   1.708   8.554
  171SAPE  H18S19385   3.528   1.784   8.545
  171SAPE  C21919386   3.697   1.909   8.478
  171SAPE  H19R19387   3.634   1.988   8.430
  171SAPE  H19S19388   3.796   1.911   8.427
  171SAPE  C22019389   3.724   1.968   8.623
  171SAPE  H20R19390   3.779   1.904   8.695
  171SAPE  H20S19391   3.628   1.994   8.672
  171SAPE  H20T19392   3.782   2.062   8.613
  171SAPE   C3319393   2.934   0.885   7.102
  171SAPE   H3X19394   2.986   0.787   7.107
  171SAPE   H3Y19395   2.844   0.887   7.037
  171SAPE   C3419396   2.885   0.915   7.238
  171SAPE   H4X19397   2.831   0.825   7.273
  171SAPE   H4Y19398   2.811   0.996   7.222
  171SAPE   C3519399   2.984   0.964   7.348
  171SAPE   H5X19400   2.928   0.989   7.440
  171SAPE   H5Y19401   3.039   1.050   7.304
  171SAPE   C3619402   3.078   0.850   7.396
  171SAPE   H6X19403   3.133   0.816   7.306
  171SAPE   H6Y19404   3.012   0.765   7.425
  171SAPE   C3719405   3.166   0.879   7.510
  171SAPE   H7X19406   3.242   0.954   7.478
  171SAPE   H7Y19407   3.227   0.786   7.521
  171SAPE   C3819408   3.087   0.900   7.637
  171SAPE   H8X19409   3.015   0.816   7.648
  171SAPE   H8Y19410   3.048   1.002   7.619
  171SAPE   C3919411   3.165   0.896   7.766
  171SAPE   H9X19412   3.231   0.985   7.755
  171SAPE   H9Y19413   3.243   0.816   7.760
  171SAPE  C31019414   3.079   0.896   7.892
  171SAPE  H10X19415   2.987   0.834   7.892
  171SAPE  H10Y19416   3.043   1.001   7.891
  171SAPE  C31119417   3.164   0.888   8.016
  171SAPE  H11X19418   3.093   0.920   8.094
  171SAPE  H11Y19419   3.252   0.956   8.013
  171SAPE  C31219420   3.209   0.746   8.028
  171SAPE  H12X19421   3.261   0.716   7.934
  171SAPE  H12Y19422   3.114   0.689   8.039
  171SAPE  C31319423   3.301   0.723   8.151
  171SAPE  H13X19424   3.245   0.743   8.245
  171SAPE  H13Y19425   3.391   0.787   8.134
  171SAPE  C31419426   3.345   0.573   8.154
  171SAPE  H14X19427   3.381   0.538   8.055
  171SAPE  H14Y19428   3.252   0.517   8.177
  171SAPE  C31519429   3.454   0.538   8.256
  171SAPE  H15X19430   3.477   0.430   8.248
  171SAPE  H15Y19431   3.420   0.541   8.362
  171SAPE  C31619432   3.580   0.620   8.237
  171SAPE  H16X19433   3.644   0.593   8.323
  171SAPE  H16Y19434   3.560   0.729   8.243
  171SAPE  C31719435   3.661   0.567   8.121
  171SAPE  H17X19436   3.585   0.561   8.041
  171SAPE  H17Y19437   3.699   0.463   8.133
  171SAPE  C31819438   3.770   0.656   8.068
  171SAPE  H18X19439   3.730   0.756   8.043
  171SAPE  H18Y19440   3.812   0.608   7.976
  171SAPE  H18Z19441   3.856   0.664   8.138
  172SAPE     N19442   2.280   6.406   6.048
  172SAPE   HN119443   2.258   6.381   5.950
  172SAPE   HN219444   2.192   6.391   6.102
  172SAPE   HN319445   2.319   6.501   6.034
  172SAPE   C1219446   2.385   6.330   6.116
  172SAPE  H12A19447   2.464   6.315   6.039
  172SAPE  H12B19448   2.326   6.238   6.139
  172SAPE   C1119449   2.447   6.391   6.241
  172SAPE  H11A19450   2.504   6.324   6.309
  172SAPE  H11B19451   2.362   6.427   6.302
  172SAPE     P19452   2.680   6.521   6.223
  172SAPE   O1319453   2.754   6.398   6.188
  172SAPE   O1419454   2.719   6.646   6.153
  172SAPE   O1219455   2.531   6.496   6.197
  172SAPE   O1119456   2.682   6.534   6.379
  172SAPE    C119457   2.653   6.665   6.444
  172SAPE    HA19458   2.750   6.716   6.464
  172SAPE    HB19459   2.602   6.739   6.379
  172SAPE    C219460   2.576   6.634   6.580
  172SAPE    HS19461   2.559   6.731   6.631
  172SAPE   O2119462   2.648   6.537   6.661
  172SAPE   C2119463   2.756   6.587   6.721
  172SAPE   O2219464   2.795   6.702   6.705
  172SAPE   C2219465   2.814   6.480   6.820
  172SAPE   H2R19466   2.735   6.474   6.897
  172SAPE   H2S19467   2.831   6.380   6.776
  172SAPE    C319468   2.432   6.573   6.562
  172SAPE    HX19469   2.446   6.484   6.496
  172SAPE    HY19470   2.381   6.653   6.505
  172SAPE   O3119471   2.363   6.534   6.687
  172SAPE   C3119472   2.229   6.523   6.668
  172SAPE   O3219473   2.169   6.540   6.567
  172SAPE   C3219474   2.161   6.509   6.803
  172SAPE   H2X19475   2.185   6.406   6.838
  172SAPE   H2Y19476   2.052   6.519   6.788
  172SAPE   C2319477   2.945   6.519   6.888
  172SAPE   H3R19478   2.935   6.614   6.945
  172SAPE   H3S19479   3.022   6.544   6.812
  172SAPE   C2419480   2.995   6.405   6.986
  172SAPE   H4R19481   2.995   6.313   6.924
  172SAPE   H4S19482   2.916   6.392   7.064
  172SAPE   C2519483   3.127   6.428   7.050
  172SAPE   H5R19484   3.215   6.419   6.985
  172SAPE   C2619485   3.159   6.454   7.182
  172SAPE   H6R19486   3.263   6.443   7.215
  172SAPE   C2719487   3.060   6.478   7.294
  172SAPE   H7R19488   3.014   6.382   7.324
  172SAPE   H7S19489   2.979   6.545   7.257
  172SAPE   C2819490   3.120   6.549   7.419
  172SAPE   H8R19491   3.148   6.655   7.408
  172SAPE   C2919492   3.159   6.485   7.524
  172SAPE   H9R19493   3.184   6.545   7.613
  172SAPE  C21019494   3.145   6.334   7.557
  172SAPE  H10R19495   3.128   6.279   7.462
  172SAPE  H10S19496   3.058   6.311   7.622
  172SAPE  C21119497   3.276   6.295   7.615
  172SAPE  H11R19498   3.345   6.249   7.543
  172SAPE  C21219499   3.301   6.285   7.749
  172SAPE  H12R19500   3.399   6.240   7.772
  172SAPE  C21319501   3.227   6.326   7.870
  172SAPE  H13R19502   3.120   6.296   7.865
  172SAPE  H13S19503   3.219   6.437   7.873
  172SAPE  C21419504   3.277   6.278   8.003
  172SAPE  H14R19505   3.331   6.356   8.059
  172SAPE  C21519506   3.272   6.155   8.056
  172SAPE  H15R19507   3.308   6.125   8.155
  172SAPE  C21619508   3.172   6.051   8.008
  172SAPE  H16R19509   3.211   5.947   8.008
  172SAPE  H16S19510   3.153   6.058   7.899
  172SAPE  C21719511   3.052   6.059   8.105
  172SAPE  H17R19512   3.078   6.054   8.212
  172SAPE  H17S19513   2.987   5.972   8.084
  172SAPE  C21819514   2.957   6.183   8.077
  172SAPE  H18R19515   2.942   6.172   7.967
  172SAPE  H18S19516   3.023   6.271   8.091
  172SAPE  C21919517   2.820   6.201   8.149
  172SAPE  H19R19518   2.760   6.110   8.126
  172SAPE  H19S19519   2.763   6.289   8.112
  172SAPE  C22019520   2.841   6.212   8.301
  172SAPE  H20R19521   2.748   6.207   8.362
  172SAPE  H20S19522   2.901   6.305   8.312
  172SAPE  H20T19523   2.905   6.129   8.338
  172SAPE   C3319524   2.206   6.593   6.919
  172SAPE   H3X19525   2.181   6.699   6.900
  172SAPE   H3Y19526   2.313   6.575   6.946
  172SAPE   C3419527   2.119   6.562   7.049
  172SAPE   H4X19528   2.099   6.453   7.064
  172SAPE   H4Y19529   2.021   6.606   7.021
  172SAPE   C3519530   2.192   6.611   7.174
  172SAPE   H5X19531   2.253   6.701   7.149
  172SAPE   H5Y19532   2.269   6.537   7.205
  172SAPE   C3619533   2.099   6.638   7.289
  172SAPE   H6X19534   2.038   6.547   7.310
  172SAPE   H6Y19535   2.017   6.705   7.252
  172SAPE   C3719536   2.178   6.684   7.408
  172SAPE   H7X19537   2.114   6.735   7.483
  172SAPE   H7Y19538   2.247   6.758   7.361
  172SAPE   C3819539   2.261   6.575   7.477
  172SAPE   H8X19540   2.337   6.524   7.415
  172SAPE   H8Y19541   2.195   6.490   7.504
  172SAPE   C3919542   2.321   6.639   7.608
  172SAPE   H9X19543   2.339   6.747   7.590
  172SAPE   H9Y19544   2.425   6.600   7.619
  172SAPE  C31019545   2.229   6.623   7.725
  172SAPE  H10X19546   2.230   6.522   7.770
  172SAPE  H10Y19547   2.124   6.637   7.692
  172SAPE  C31119548   2.251   6.724   7.843
  172SAPE  H11X19549   2.239   6.833   7.825
  172SAPE  H11Y19550   2.353   6.702   7.881
  172SAPE  C31219551   2.152   6.696   7.961
  172SAPE  H12X19552   2.162   6.591   7.995
  172SAPE  H12Y19553   2.051   6.716   7.920
  172SAPE  C31319554   2.182   6.786   8.076
  172SAPE  H13X19555   2.142   6.884   8.044
  172SAPE  H13Y19556   2.291   6.795   8.094
  172SAPE  C31419557   2.097   6.761   8.205
  172SAPE  H14X19558   1.988   6.771   8.182
  172SAPE  H14Y19559   2.121   6.842   8.276
  172SAPE  C31519560   2.130   6.634   8.277
  172SAPE  H15X19561   2.237   6.636   8.306
  172SAPE  H15Y19562   2.116   6.547   8.210
  172SAPE  C31619563   2.038   6.604   8.400
  172SAPE  H16X19564   2.064   6.501   8.432
  172SAPE  H16Y19565   1.931   6.615   8.371
  172SAPE  C31719566   2.069   6.700   8.519
  172SAPE  H17X19567   2.018   6.650   8.604
  172SAPE  H17Y19568   2.013   6.794   8.502
  172SAPE  C31819569   2.207   6.727   8.573
  172SAPE  H18X19570   2.255   6.788   8.493
  172SAPE  H18Y19571   2.265   6.637   8.604
  172SAPE  H18Z19572   2.205   6.795   8.661
  173SOPE     N19573   2.963   3.970  11.088
  173SOPE   HN119574   2.876   3.985  11.144
  173SOPE   HN219575   3.025   3.908  11.143
  173SOPE   HN319576   3.021   4.056  11.079
  173SOPE   C1219577   2.935   3.931  10.939
  173SOPE  H12A19578   2.859   3.997  10.893
  173SOPE  H12B19579   2.894   3.827  10.938
  173SOPE   C1119580   3.068   3.937  10.865
  173SOPE  H11A19581   3.093   4.045  10.870
  173SOPE  H11B19582   3.059   3.916  10.757
  173SOPE     P19583   3.202   3.715  10.926
  173SOPE   O1319584   3.069   3.653  10.950
  173SOPE   O1419585   3.305   3.669  11.020
  173SOPE   O1219586   3.176   3.868  10.935
  173SOPE   O1119587   3.261   3.693  10.779
  173SOPE    C119588   3.338   3.783  10.703
  173SOPE    HA19589   3.432   3.815  10.753
  173SOPE    HB19590   3.283   3.878  10.688
  173SOPE    C219591   3.355   3.724  10.560
  173SOPE    HS19592   3.423   3.790  10.503
  173SOPE   O2119593   3.236   3.701  10.481
  173SOPE   C2119594   3.171   3.811  10.444
  173SOPE   O2219595   3.201   3.922  10.482
  173SOPE   C2219596   3.070   3.777  10.329
  173SOPE   H2R19597   2.966   3.778  10.368
  173SOPE   H2S19598   3.092   3.671  10.304
  173SOPE    C319599   3.437   3.593  10.564
  173SOPE    HX19600   3.404   3.526  10.645
  173SOPE    HY19601   3.534   3.622  10.610
  173SOPE   O3119602   3.450   3.535  10.429
  173SOPE   C3119603   3.360   3.439  10.410
  173SOPE   O3219604   3.274   3.395  10.480
  173SOPE   C3219605   3.384   3.388  10.262
  173SOPE   H2X19606   3.375   3.277  10.264
  173SOPE   H2Y19607   3.480   3.427  10.222
  173SOPE   C2319608   3.071   3.855  10.201
  173SOPE   H3R19609   3.100   3.960  10.226
  173SOPE   H3S19610   2.978   3.857  10.141
  173SOPE   C2419611   3.173   3.792  10.102
  173SOPE   H4R19612   3.274   3.784  10.149
  173SOPE   H4S19613   3.127   3.691  10.093
  173SOPE   C2519614   3.159   3.860   9.962
  173SOPE   H5R19615   3.219   3.802   9.889
  173SOPE   H5S19616   3.056   3.848   9.922
  173SOPE   C2619617   3.202   4.004   9.950
  173SOPE   H6R19618   3.136   4.073  10.007
  173SOPE   H6S19619   3.297   4.020  10.006
  173SOPE   C2719620   3.214   4.049   9.797
  173SOPE   H7R19621   3.286   3.974   9.760
  173SOPE   H7S19622   3.115   4.030   9.750
  173SOPE   C2819623   3.250   4.196   9.786
  173SOPE   H8R19624   3.339   4.216   9.849
  173SOPE   H8S19625   3.301   4.209   9.688
  173SOPE   C2919626   3.129   4.282   9.820
  173SOPE   H9119627   3.088   4.287   9.922
  173SOPE  C21019628   3.073   4.362   9.725
  173SOPE  H10119629   2.990   4.428   9.755
  173SOPE  C21119630   3.113   4.354   9.579
  173SOPE  H11R19631   3.103   4.249   9.544
  173SOPE  H11S19632   3.219   4.387   9.566
  173SOPE  C21219633   3.018   4.449   9.502
  173SOPE  H12R19634   3.002   4.553   9.539
  173SOPE  H12S19635   2.922   4.393   9.507
  173SOPE  C21319636   3.064   4.473   9.359
  173SOPE  H13R19637   3.087   4.369   9.329
  173SOPE  H13S19638   3.161   4.527   9.357
  173SOPE  C21419639   2.966   4.537   9.266
  173SOPE  H14R19640   3.021   4.568   9.174
  173SOPE  H14S19641   2.915   4.628   9.303
  173SOPE  C21519642   2.855   4.441   9.223
  173SOPE  H15R19643   2.807   4.385   9.306
  173SOPE  H15S19644   2.910   4.364   9.166
  173SOPE  C21619645   2.756   4.517   9.129
  173SOPE  H16R19646   2.802   4.591   9.061
  173SOPE  H16S19647   2.692   4.574   9.200
  173SOPE  C21719648   2.650   4.437   9.053
  173SOPE  H17R19649   2.591   4.388   9.133
  173SOPE  H17S19650   2.690   4.354   8.992
  173SOPE  C21819651   2.569   4.531   8.965
  173SOPE  H18R19652   2.517   4.471   8.887
  173SOPE  H18S19653   2.639   4.610   8.931
  173SOPE  H18T19654   2.489   4.569   9.032
  173SOPE   C3319655   3.257   3.424  10.177
  173SOPE   H3X19656   3.270   3.533  10.157
  173SOPE   H3Y19657   3.157   3.436  10.224
  173SOPE   C3419658   3.229   3.347  10.046
  173SOPE   H4X19659   3.188   3.247  10.072
  173SOPE   H4Y19660   3.325   3.320   9.996
  173SOPE   C3519661   3.144   3.415   9.945
  173SOPE   H5X19662   3.171   3.381   9.843
  173SOPE   H5Y19663   3.172   3.522   9.956
  173SOPE   C3619664   2.998   3.387   9.979
  173SOPE   H6X19665   2.962   3.469  10.045
  173SOPE   H6Y19666   2.980   3.295  10.038
  173SOPE   C3719667   2.899   3.392   9.851
  173SOPE   H7X19668   2.939   3.471   9.784
  173SOPE   H7Y19669   2.797   3.418   9.887
  173SOPE   C3819670   2.889   3.256   9.782
  173SOPE   H8X19671   2.865   3.181   9.860
  173SOPE   H8Y19672   2.988   3.237   9.736
  173SOPE   C3919673   2.797   3.252   9.660
  173SOPE   H9X19674   2.810   3.342   9.596
  173SOPE   H9Y19675   2.692   3.247   9.696
  173SOPE  C31019676   2.840   3.136   9.565
  173SOPE  H10X19677   2.796   3.048   9.616
  173SOPE  H10Y19678   2.951   3.141   9.558
  173SOPE  C31119679   2.778   3.160   9.426
  173SOPE  H11X19680   2.808   3.250   9.368
  173SOPE  H11Y19681   2.667   3.168   9.434
  173SOPE  C31219682   2.800   3.038   9.329
  173SOPE  H12X19683   2.734   2.959   9.368
  173SOPE  H12Y19684   2.905   3.005   9.341
  173SOPE  C31319685   2.763   3.072   9.187
  173SOPE  H13X19686   2.819   3.165   9.164
  173SOPE  H13Y19687   2.657   3.100   9.165
  173SOPE  C31419688   2.808   2.964   9.086
  173SOPE  H14X19689   2.774   2.860   9.106
  173SOPE  H14Y19690   2.917   2.948   9.095
  173SOPE  C31519691   2.775   2.999   8.934
  173SOPE  H15X19692   2.805   3.100   8.897
  173SOPE  H15Y19693   2.665   2.991   8.938
  173SOPE  C31619694   2.830   2.907   8.825
  173SOPE  H16X19695   2.796   2.805   8.854
  173SOPE  H16Y19696   2.941   2.901   8.818
  173SOPE  C31719697   2.768   2.936   8.687
  173SOPE  H17X19698   2.754   3.045   8.673
  173SOPE  H17Y19699   2.666   2.894   8.685
  173SOPE  C31819700   2.838   2.862   8.572
  173SOPE  H18X19701   2.788   2.878   8.474
  173SOPE  H18Y19702   2.825   2.755   8.601
  173SOPE  H18Z19703   2.943   2.894   8.558
  174SOPE     N19704   2.669   3.355  10.903
  174SOPE   HN119705   2.771   3.343  10.890
  174SOPE   HN219706   2.633   3.440  10.951
  174SOPE   HN319707   2.629   3.267  10.941
  174SOPE   C1219708   2.606   3.376  10.775
  174SOPE  H12A19709   2.645   3.473  10.736
  174SOPE  H12B19710   2.499   3.398  10.795
  174SOPE   C1119711   2.615   3.266  10.671
  174SOPE  H11A19712   2.564   3.308  10.582
  174SOPE  H11B19713   2.567   3.174  10.712
  174SOPE     P19714   2.833   3.125  10.691
  174SOPE   O1319715   2.747   3.011  10.719
  174SOPE   O1419716   2.899   3.179  10.817
  174SOPE   O1219717   2.750   3.240  10.623
  174SOPE   O1119718   2.937   3.078  10.587
  174SOPE    C119719   3.021   3.177  10.526
  174SOPE    HA19720   3.124   3.179  10.565
  174SOPE    HB19721   2.989   3.281  10.549
  174SOPE    C219722   3.025   3.166  10.368
  174SOPE    HS19723   3.106   3.236  10.337
  174SOPE   O2119724   2.901   3.187  10.298
  174SOPE   C2119725   2.836   3.294  10.330
  174SOPE   O2219726   2.887   3.400  10.374
  174SOPE   C2219727   2.694   3.282  10.294
  174SOPE   H2R19728   2.644   3.381  10.284
  174SOPE   H2S19729   2.644   3.231  10.380
  174SOPE    C319730   3.086   3.038  10.338
  174SOPE    HX19731   3.025   2.952  10.373
  174SOPE    HY19732   3.176   3.020  10.400
  174SOPE   O3119733   3.127   3.029  10.198
  174SOPE   C3119734   3.062   2.940  10.123
  174SOPE   O3219735   2.980   2.856  10.156
  174SOPE   C3219736   3.124   2.948   9.988
  174SOPE   H2X19737   3.218   2.889   9.997
  174SOPE   H2Y19738   3.146   3.055   9.971
  174SOPE   C2319739   2.668   3.207  10.157
  174SOPE   H3R19740   2.695   3.099  10.156
  174SOPE   H3S19741   2.731   3.252  10.077
  174SOPE   C2419742   2.518   3.210  10.112
  174SOPE   H4R19743   2.469   3.136  10.178
  174SOPE   H4S19744   2.484   3.315  10.126
  174SOPE   C2519745   2.512   3.159   9.966
  174SOPE   H5R19746   2.549   3.238   9.897
  174SOPE   H5S19747   2.580   3.072   9.963
  174SOPE   C2619748   2.375   3.113   9.920
  174SOPE   H6R19749   2.349   3.034   9.994
  174SOPE   H6S19750   2.299   3.194   9.927
  174SOPE   C2719751   2.373   3.045   9.782
  174SOPE   H7R19752   2.455   3.082   9.717
  174SOPE   H7S19753   2.394   2.936   9.788
  174SOPE   C2819754   2.240   3.064   9.708
  174SOPE   H8R19755   2.156   3.054   9.780
  174SOPE   H8S19756   2.244   3.168   9.671
  174SOPE   C2919757   2.241   2.968   9.594
  174SOPE   H9119758   2.202   2.869   9.623
  174SOPE  C21019759   2.265   2.994   9.458
  174SOPE  H10119760   2.260   2.920   9.377
  174SOPE  C21119761   2.320   3.127   9.403
  174SOPE  H11R19762   2.382   3.180   9.479
  174SOPE  H11S19763   2.235   3.193   9.376
  174SOPE  C21219764   2.410   3.097   9.282
  174SOPE  H12R19765   2.464   3.002   9.302
  174SOPE  H12S19766   2.482   3.181   9.276
  174SOPE  C21319767   2.324   3.082   9.158
  174SOPE  H13R19768   2.275   3.181   9.141
  174SOPE  H13S19769   2.242   3.010   9.177
  174SOPE  C21419770   2.403   3.041   9.033
  174SOPE  H14R19771   2.456   2.947   9.060
  174SOPE  H14S19772   2.484   3.115   9.011
  174SOPE  C21519773   2.316   2.999   8.912
  174SOPE  H15R19774   2.247   3.081   8.885
  174SOPE  H15S19775   2.262   2.905   8.938
  174SOPE  C21619776   2.414   2.973   8.790
  174SOPE  H16R19777   2.485   2.895   8.824
  174SOPE  H16S19778   2.470   3.068   8.774
  174SOPE  C21719779   2.331   2.941   8.661
  174SOPE  H17R19780   2.258   3.020   8.634
  174SOPE  H17S19781   2.270   2.848   8.667
  174SOPE  C21819782   2.419   2.925   8.541
  174SOPE  H18R19783   2.376   2.908   8.439
  174SOPE  H18S19784   2.479   2.834   8.560
  174SOPE  H18T19785   2.493   3.007   8.541
  174SOPE   C3319786   3.040   2.878   9.875
  174SOPE   H3X19787   2.943   2.931   9.859
  174SOPE   H3Y19788   3.000   2.782   9.914
  174SOPE   C3419789   3.121   2.850   9.746
  174SOPE   H4X19790   3.200   2.775   9.768
  174SOPE   H4Y19791   3.165   2.948   9.720
  174SOPE   C3519792   3.028   2.795   9.634
  174SOPE   H5X19793   2.938   2.860   9.631
  174SOPE   H5Y19794   3.005   2.688   9.655
  174SOPE   C3619795   3.103   2.812   9.501
  174SOPE   H6X19796   3.209   2.783   9.512
  174SOPE   H6Y19797   3.098   2.915   9.461
  174SOPE   C3719798   3.046   2.718   9.394
  174SOPE   H7X19799   2.935   2.725   9.390
  174SOPE   H7Y19800   3.072   2.615   9.425
  174SOPE   C3819801   3.116   2.738   9.259
  174SOPE   H8X19802   3.218   2.697   9.269
  174SOPE   H8Y19803   3.112   2.843   9.223
  174SOPE   C3919804   3.050   2.649   9.157
  174SOPE   H9X19805   2.942   2.675   9.155
  174SOPE   H9Y19806   3.060   2.544   9.192
  174SOPE  C31019807   3.114   2.662   9.014
  174SOPE  H10X19808   3.223   2.648   9.030
  174SOPE  H10Y19809   3.090   2.760   8.967
  174SOPE  C31119810   3.066   2.549   8.924
  174SOPE  H11X19811   2.957   2.562   8.911
  174SOPE  H11Y19812   3.093   2.450   8.965
  174SOPE  C31219813   3.139   2.551   8.787
  174SOPE  H12X19814   3.242   2.591   8.796
  174SOPE  H12Y19815   3.081   2.618   8.720
  174SOPE  C31319816   3.140   2.413   8.722
  174SOPE  H13X19817   3.039   2.370   8.742
  174SOPE  H13Y19818   3.216   2.350   8.772
  174SOPE  C31419819   3.164   2.415   8.566
  174SOPE  H14X19820   3.162   2.310   8.531
  174SOPE  H14Y19821   3.265   2.451   8.537
  174SOPE  C31519822   3.064   2.505   8.488
  174SOPE  H15X19823   3.096   2.611   8.499
  174SOPE  H15Y19824   2.965   2.499   8.537
  174SOPE  C31619825   3.047   2.465   8.342
  174SOPE  H16X19826   3.022   2.357   8.332
  174SOPE  H16Y19827   3.145   2.480   8.291
  174SOPE  C31719828   2.953   2.554   8.258
  174SOPE  H17X19829   2.954   2.517   8.154
  174SOPE  H17Y19830   2.980   2.661   8.247
  174SOPE  C31819831   2.800   2.549   8.285
  174SOPE  H18X19832   2.769   2.443   8.293
  174SOPE  H18Y19833   2.734   2.589   8.206
  174SOPE  H18Z19834   2.779   2.602   8.381
  175SOPE     N19835   4.955   5.438  10.709
  175SOPE   HN119836   4.911   5.512  10.769
  175SOPE   HN219837   5.012   5.371  10.765
  175SOPE   HN319838   5.017   5.499  10.653
  175SOPE   C1219839   4.857   5.362  10.628
  175SOPE  H12A19840   4.790   5.439  10.583
  175SOPE  H12B19841   4.792   5.314  10.704
  175SOPE   C1119842   4.917   5.259  10.533
  175SOPE  H11A19843   4.978   5.315  10.459
  175SOPE  H11B19844   4.834   5.207  10.480
  175SOPE     P19845   5.120   5.076  10.554
  175SOPE   O1319846   5.151   4.975  10.657
  175SOPE   O1419847   5.231   5.167  10.510
  175SOPE   O1219848   4.996   5.156  10.595
  175SOPE   O1119849   5.077   4.995  10.424
  175SOPE    C119850   4.947   4.925  10.414
  175SOPE    HA19851   4.894   4.934  10.511
  175SOPE    HB19852   4.959   4.816  10.400
  175SOPE    C219853   4.856   4.977  10.299
  175SOPE    HS19854   4.791   5.059  10.337
  175SOPE   O2119855   4.764   4.876  10.245
  175SOPE   C2119856   4.670   4.848  10.326
  175SOPE   O2219857   4.655   4.890  10.439
  175SOPE   C2219858   4.569   4.763  10.250
  175SOPE   H2R19859   4.508   4.727  10.336
  175SOPE   H2S19860   4.609   4.667  10.213
  175SOPE    C319861   4.942   5.023  10.186
  175SOPE    HX19862   5.006   4.941  10.146
  175SOPE    HY19863   5.014   5.101  10.216
  175SOPE   O3119864   4.857   5.067  10.074
  175SOPE   C3119865   4.836   5.199  10.063
  175SOPE   O3219866   4.888   5.285  10.127
  175SOPE   C3219867   4.730   5.233   9.950
  175SOPE   H2X19868   4.641   5.280   9.996
  175SOPE   H2Y19869   4.702   5.139   9.897
  175SOPE   C2319870   4.484   4.841  10.156
  175SOPE   H3R19871   4.432   4.930  10.196
  175SOPE   H3S19872   4.399   4.774  10.131
  175SOPE   C2419873   4.552   4.877  10.031
  175SOPE   H4R19874   4.636   4.949  10.037
  175SOPE   H4S19875   4.579   4.778   9.988
  175SOPE   C2519876   4.449   4.939   9.932
  175SOPE   H5R19877   4.360   4.875   9.944
  175SOPE   H5S19878   4.422   5.041   9.967
  175SOPE   C2619879   4.506   4.941   9.788
  175SOPE   H6R19880   4.562   5.037   9.789
  175SOPE   H6S19881   4.582   4.860   9.783
  175SOPE   C2719882   4.402   4.938   9.672
  175SOPE   H7R19883   4.368   4.832   9.671
  175SOPE   H7S19884   4.316   5.004   9.694
  175SOPE   C2819885   4.468   4.979   9.540
  175SOPE   H8R19886   4.508   5.079   9.568
  175SOPE   H8S19887   4.553   4.913   9.514
  175SOPE   C2919888   4.375   4.999   9.421
  175SOPE   H9119889   4.273   5.024   9.453
  175SOPE  C21019890   4.386   4.958   9.294
  175SOPE  H10119891   4.302   4.990   9.231
  175SOPE  C21119892   4.503   4.893   9.219
  175SOPE  H11R19893   4.589   4.881   9.289
  175SOPE  H11S19894   4.529   4.965   9.139
  175SOPE  C21219895   4.462   4.760   9.157
  175SOPE  H12R19896   4.375   4.787   9.094
  175SOPE  H12S19897   4.432   4.692   9.239
  175SOPE  C21319898   4.569   4.686   9.071
  175SOPE  H13R19899   4.521   4.597   9.026
  175SOPE  H13S19900   4.645   4.660   9.148
  175SOPE  C21419901   4.639   4.773   8.958
  175SOPE  H14R19902   4.704   4.851   9.003
  175SOPE  H14S19903   4.568   4.846   8.913
  175SOPE  C21519904   4.721   4.699   8.856
  175SOPE  H15R19905   4.816   4.663   8.901
  175SOPE  H15S19906   4.749   4.778   8.784
  175SOPE  C21619907   4.653   4.584   8.784
  175SOPE  H16R19908   4.625   4.498   8.848
  175SOPE  H16S19909   4.721   4.545   8.705
  175SOPE  C21719910   4.526   4.622   8.712
  175SOPE  H17R19911   4.541   4.690   8.625
  175SOPE  H17S19912   4.458   4.680   8.779
  175SOPE  C21819913   4.448   4.502   8.658
  175SOPE  H18R19914   4.511   4.421   8.616
  175SOPE  H18S19915   4.371   4.528   8.582
  175SOPE  H18T19916   4.405   4.445   8.743
  175SOPE   C3319917   4.796   5.334   9.854
  175SOPE   H3X19918   4.820   5.429   9.906
  175SOPE   H3Y19919   4.730   5.372   9.773
  175SOPE   C3419920   4.913   5.272   9.781
  175SOPE   H4X19921   4.872   5.178   9.739
  175SOPE   H4Y19922   5.004   5.272   9.845
  175SOPE   C3519923   4.946   5.360   9.660
  175SOPE   H5X19924   4.980   5.464   9.679
  175SOPE   H5Y19925   4.849   5.364   9.606
  175SOPE   C3619926   5.053   5.287   9.573
  175SOPE   H6X19927   5.015   5.186   9.548
  175SOPE   H6Y19928   5.147   5.277   9.631
  175SOPE   C3719929   5.069   5.366   9.438
  175SOPE   H7X19930   5.146   5.310   9.381
  175SOPE   H7Y19931   5.102   5.472   9.447
  175SOPE   C3819932   4.949   5.351   9.349
  175SOPE   H8X19933   4.970   5.394   9.249
  175SOPE   H8Y19934   4.862   5.403   9.395
  175SOPE   C3919935   4.892   5.203   9.336
  175SOPE   H9X19936   4.845   5.170   9.431
  175SOPE   H9Y19937   4.979   5.138   9.311
  175SOPE  C31019938   4.786   5.180   9.224
  175SOPE  H10X19939   4.694   5.231   9.260
  175SOPE  H10Y19940   4.768   5.072   9.211
  175SOPE  C31119941   4.820   5.230   9.090
  175SOPE  H11X19942   4.920   5.203   9.052
  175SOPE  H11Y19943   4.817   5.341   9.083
  175SOPE  C31219944   4.723   5.182   8.983
  175SOPE  H12X19945   4.623   5.217   9.015
  175SOPE  H12Y19946   4.715   5.072   8.968
  175SOPE  C31319947   4.748   5.249   8.847
  175SOPE  H13X19948   4.839   5.209   8.798
  175SOPE  H13Y19949   4.755   5.359   8.861
  175SOPE  C31419950   4.634   5.211   8.745
  175SOPE  H14X19951   4.537   5.232   8.794
  175SOPE  H14Y19952   4.628   5.101   8.730
  175SOPE  C31519953   4.645   5.296   8.614
  175SOPE  H15X19954   4.744   5.279   8.567
  175SOPE  H15Y19955   4.643   5.404   8.637
  175SOPE  C31619956   4.536   5.251   8.514
  175SOPE  H16X19957   4.445   5.261   8.578
  175SOPE  H16Y19958   4.554   5.145   8.487
  175SOPE  C31719959   4.524   5.337   8.384
  175SOPE  H17X19960   4.460   5.274   8.319
  175SOPE  H17Y19961   4.626   5.330   8.340
  175SOPE  C31819962   4.471   5.477   8.405
  175SOPE  H18X19963   4.544   5.540   8.461
  175SOPE  H18Y19964   4.378   5.476   8.467
  175SOPE  H18Z19965   4.443   5.526   8.309
  176SOPE     N19966   4.719   4.448  11.014
  176SOPE   HN119967   4.784   4.502  10.954
  176SOPE   HN219968   4.665   4.513  11.075
  176SOPE   HN319969   4.777   4.400  11.086
  176SOPE   C1219970   4.631   4.352  10.932
  176SOPE  H12A19971   4.636   4.248  10.971
  176SOPE  H12B19972   4.668   4.353  10.827
  176SOPE   C1119973   4.482   4.401  10.926
  176SOPE  H11A19974   4.434   4.413  11.026
  176SOPE  H11B19975   4.429   4.322  10.869
  176SOPE     P19976   4.337   4.598  10.826
  176SOPE   O1319977   4.348   4.704  10.719
  176SOPE   O1419978   4.284   4.651  10.958
  176SOPE   O1219979   4.478   4.527  10.858
  176SOPE   O1119980   4.246   4.476  10.774
  176SOPE    C119981   4.211   4.450  10.641
  176SOPE    HA19982   4.226   4.541  10.578
  176SOPE    HB19983   4.104   4.427  10.620
  176SOPE    C219984   4.300   4.331  10.581
  176SOPE    HS19985   4.390   4.315  10.644
  176SOPE   O2119986   4.332   4.365  10.445
  176SOPE   C2119987   4.425   4.297  10.389
  176SOPE   O2219988   4.489   4.208  10.443
  176SOPE   C2219989   4.442   4.335  10.241
  176SOPE   H2R19990   4.446   4.239  10.186
  176SOPE   H2S19991   4.536   4.389  10.216
  176SOPE    C319992   4.233   4.195  10.588
  176SOPE    HX19993   4.210   4.185  10.696
  176SOPE    HY19994   4.298   4.112  10.553
  176SOPE   O3119995   4.104   4.200  10.519
  176SOPE   C3119996   4.034   4.080  10.516
  176SOPE   O3219997   4.068   3.987  10.581
  176SOPE   C3219998   3.906   4.068  10.427
  176SOPE   H2X19999   3.930   4.105  10.325
  176SOPE   H2Y20000   3.817   4.126  10.459
  176SOPE   C2320001   4.342   4.423  10.172
  176SOPE   H3R20002   4.309   4.506  10.237
  176SOPE   H3S20003   4.265   4.346  10.151
  176SOPE   C2420004   4.397   4.479  10.040
  176SOPE   H4R20005   4.312   4.530   9.989
  176SOPE   H4S20006   4.488   4.542  10.048
  176SOPE   C2520007   4.429   4.360   9.938
  176SOPE   H5R20008   4.517   4.300   9.971
  176SOPE   H5S20009   4.343   4.291   9.953
  176SOPE   C2620010   4.462   4.414   9.799
  176SOPE   H6R20011   4.530   4.502   9.809
  176SOPE   H6S20012   4.521   4.330   9.756
  176SOPE   C2720013   4.335   4.430   9.711
  176SOPE   H7R20014   4.279   4.334   9.718
  176SOPE   H7S20015   4.277   4.515   9.754
  176SOPE   C2820016   4.362   4.471   9.566
  176SOPE   H8R20017   4.260   4.496   9.532
  176SOPE   H8S20018   4.419   4.566   9.565
  176SOPE   C2920019   4.424   4.354   9.495
  176SOPE   H9120020   4.363   4.263   9.500
  176SOPE  C21020021   4.547   4.342   9.444
  176SOPE  H10120022   4.572   4.237   9.421
  176SOPE  C21120023   4.654   4.445   9.438
  176SOPE  H11R20024   4.615   4.543   9.473
  176SOPE  H11S20025   4.699   4.457   9.337
  176SOPE  C21220026   4.772   4.411   9.539
  176SOPE  H12R20027   4.733   4.404   9.643
  176SOPE  H12S20028   4.846   4.491   9.520
  176SOPE  C21320029   4.835   4.270   9.507
  176SOPE  H13R20030   4.881   4.270   9.406
  176SOPE  H13S20031   4.761   4.187   9.499
  176SOPE  C21420032   4.945   4.231   9.604
  176SOPE  H14R20033   4.901   4.226   9.706
  176SOPE  H14S20034   5.029   4.303   9.602
  176SOPE  C21520035   4.998   4.095   9.576
  176SOPE  H15R20036   4.998   4.083   9.466
  176SOPE  H15S20037   4.935   4.015   9.621
  176SOPE  C21620038   5.145   4.068   9.632
  176SOPE  H16R20039   5.192   4.152   9.577
  176SOPE  H16S20040   5.171   3.966   9.595
  176SOPE  C21720041   5.177   4.079   9.779
  176SOPE  H17R20042   5.154   4.182   9.812
  176SOPE  H17S20043   5.287   4.064   9.793
  176SOPE  C21820044   5.087   3.982   9.863
  176SOPE  H18R20045   5.076   3.882   9.816
  176SOPE  H18S20046   4.981   4.016   9.872
  176SOPE  H18T20047   5.135   3.968   9.962
  176SOPE   C3320048   3.871   3.915  10.410
  176SOPE   H3X20049   3.873   3.867  10.511
  176SOPE   H3Y20050   3.944   3.883  10.333
  176SOPE   C3420051   3.729   3.891  10.359
  176SOPE   H4X20052   3.726   3.943  10.260
  176SOPE   H4Y20053   3.646   3.932  10.420
  176SOPE   C3520054   3.723   3.743  10.317
  176SOPE   H5X20055   3.677   3.709  10.412
  176SOPE   H5Y20056   3.819   3.690  10.301
  176SOPE   C3620057   3.629   3.717  10.194
  176SOPE   H6X20058   3.534   3.764  10.226
  176SOPE   H6Y20059   3.599   3.611  10.183
  176SOPE   C3720060   3.683   3.772  10.063
  176SOPE   H7X20061   3.761   3.697  10.036
  176SOPE   H7Y20062   3.729   3.873  10.070
  176SOPE   C3820063   3.568   3.770   9.956
  176SOPE   H8X20064   3.539   3.877   9.964
  176SOPE   H8Y20065   3.489   3.701   9.992
  176SOPE   C3920066   3.619   3.730   9.817
  176SOPE   H9X20067   3.657   3.626   9.824
  176SOPE   H9Y20068   3.709   3.789   9.788
  176SOPE  C31020069   3.506   3.727   9.715
  176SOPE  H10X20070   3.460   3.828   9.706
  176SOPE  H10Y20071   3.422   3.660   9.744
  176SOPE  C31120072   3.561   3.693   9.576
  176SOPE  H11X20073   3.482   3.673   9.500
  176SOPE  H11Y20074   3.614   3.596   9.584
  176SOPE  C31220075   3.658   3.795   9.518
  176SOPE  H12X20076   3.763   3.775   9.550
  176SOPE  H12Y20077   3.624   3.892   9.560
  176SOPE  C31320078   3.665   3.793   9.369
  176SOPE  H13X20079   3.563   3.780   9.327
  176SOPE  H13Y20080   3.704   3.692   9.344
  176SOPE  C31420081   3.725   3.911   9.303
  176SOPE  H14X20082   3.833   3.925   9.324
  176SOPE  H14Y20083   3.680   4.007   9.339
  176SOPE  C31520084   3.714   3.912   9.145
  176SOPE  H15X20085   3.730   4.016   9.109
  176SOPE  H15Y20086   3.606   3.896   9.125
  176SOPE  C31620087   3.819   3.822   9.092
  176SOPE  H16X20088   3.798   3.714   9.104
  176SOPE  H16Y20089   3.919   3.853   9.127
  176SOPE  C31720090   3.824   3.818   8.940
  176SOPE  H17X20091   3.882   3.908   8.908
  176SOPE  H17Y20092   3.720   3.829   8.904
  176SOPE  C31820093   3.896   3.696   8.887
  176SOPE  H18X20094   3.921   3.697   8.779
  176SOPE  H18Y20095   3.839   3.602   8.904
  176SOPE  H18Z20096   3.992   3.678   8.939
  177SOPE     N20097   3.623   2.448  11.424
  177SOPE   HN120098   3.555   2.524  11.443
  177SOPE   HN220099   3.570   2.361  11.404
  177SOPE   HN320100   3.686   2.431  11.505
  177SOPE   C1220101   3.708   2.485  11.302
  177SOPE  H12A20102   3.792   2.545  11.343
  177SOPE  H12B20103   3.649   2.546  11.230
  177SOPE   C1120104   3.751   2.355  11.226
  177SOPE  H11A20105   3.824   2.313  11.298
  177SOPE  H11B20106   3.810   2.384  11.137
  177SOPE     P20107   3.568   2.250  11.071
  177SOPE   O1320108   3.487   2.376  11.061
  177SOPE   O1420109   3.499   2.123  11.037
  177SOPE   O1220110   3.641   2.256  11.209
  177SOPE   O1120111   3.676   2.278  10.969
  177SOPE    C120112   3.777   2.184  10.922
  177SOPE    HA20113   3.760   2.086  10.972
  177SOPE    HB20114   3.879   2.211  10.957
  177SOPE    C220115   3.781   2.173  10.768
  177SOPE    HS20116   3.862   2.102  10.739
  177SOPE   O2120117   3.805   2.307  10.720
  177SOPE   C2120118   3.881   2.322  10.617
  177SOPE   O2220119   3.944   2.235  10.556
  177SOPE   C2220120   3.905   2.470  10.587
  177SOPE   H2R20121   4.015   2.476  10.601
  177SOPE   H2S20122   3.856   2.534  10.663
  177SOPE    C320123   3.641   2.115  10.726
  177SOPE    HX20124   3.561   2.192  10.735
  177SOPE    HY20125   3.609   2.035  10.795
  177SOPE   O3120126   3.643   2.049  10.594
  177SOPE   C3120127   3.618   2.135  10.490
  177SOPE   O3220128   3.590   2.255  10.504
  177SOPE   C3220129   3.634   2.059  10.365
  177SOPE   H2X20130   3.551   2.071  10.292
  177SOPE   H2Y20131   3.619   1.950  10.378
  177SOPE   C2320132   3.859   2.521  10.449
  177SOPE   H3R20133   3.753   2.497  10.425
  177SOPE   H3S20134   3.933   2.483  10.375
  177SOPE   C2420135   3.878   2.672  10.438
  177SOPE   H4R20136   3.813   2.734  10.503
  177SOPE   H4S20137   3.984   2.686  10.469
  177SOPE   C2520138   3.848   2.732  10.299
  177SOPE   H5R20139   3.738   2.724  10.285
  177SOPE   H5S20140   3.865   2.841  10.289
  177SOPE   C2620141   3.903   2.664  10.173
  177SOPE   H6R20142   4.009   2.642  10.194
  177SOPE   H6S20143   3.851   2.565  10.169
  177SOPE   C2720144   3.878   2.740  10.040
  177SOPE   H7R20145   3.769   2.755  10.028
  177SOPE   H7S20146   3.923   2.838  10.065
  177SOPE   C2820147   3.950   2.681   9.925
  177SOPE   H8R20148   3.947   2.762   9.849
  177SOPE   H8S20149   4.055   2.651   9.944
  177SOPE   C2920150   3.881   2.565   9.865
  177SOPE   H9120151   3.862   2.486   9.939
  177SOPE  C21020152   3.823   2.551   9.742
  177SOPE  H10120153   3.778   2.457   9.708
  177SOPE  C21120154   3.830   2.650   9.625
  177SOPE  H11R20155   3.866   2.750   9.658
  177SOPE  H11S20156   3.734   2.655   9.569
  177SOPE  C21220157   3.932   2.609   9.513
  177SOPE  H12R20158   4.034   2.631   9.552
  177SOPE  H12S20159   3.909   2.688   9.439
  177SOPE  C21320160   3.912   2.476   9.444
  177SOPE  H13R20161   3.819   2.503   9.389
  177SOPE  H13S20162   3.881   2.399   9.518
  177SOPE  C21420163   4.008   2.434   9.341
  177SOPE  H14R20164   3.976   2.332   9.308
  177SOPE  H14S20165   4.096   2.411   9.405
  177SOPE  C21520166   4.032   2.535   9.224
  177SOPE  H15R20167   4.092   2.625   9.249
  177SOPE  H15S20168   3.931   2.570   9.192
  177SOPE  C21620169   4.086   2.458   9.101
  177SOPE  H16R20170   4.004   2.386   9.078
  177SOPE  H16S20171   4.178   2.398   9.117
  177SOPE  C21720172   4.106   2.561   8.989
  177SOPE  H17R20173   4.168   2.638   9.040
  177SOPE  H17S20174   4.011   2.610   8.961
  177SOPE  C21820175   4.169   2.502   8.869
  177SOPE  H18R20176   4.122   2.403   8.850
  177SOPE  H18S20177   4.278   2.483   8.873
  177SOPE  H18T20178   4.153   2.567   8.780
  177SOPE   C3320179   3.769   2.081  10.287
  177SOPE   H3X20180   3.757   2.021  10.194
  177SOPE   H3Y20181   3.853   2.028  10.336
  177SOPE   C3420182   3.788   2.231  10.255
  177SOPE   H4X20183   3.895   2.254  10.235
  177SOPE   H4Y20184   3.766   2.297  10.341
  177SOPE   C3520185   3.704   2.277  10.132
  177SOPE   H5X20186   3.717   2.388  10.127
  177SOPE   H5Y20187   3.597   2.247  10.137
  177SOPE   C3620188   3.768   2.215  10.005
  177SOPE   H6X20189   3.757   2.104  10.001
  177SOPE   H6Y20190   3.874   2.248   9.992
  177SOPE   C3720191   3.685   2.251   9.877
  177SOPE   H7X20192   3.697   2.361   9.867
  177SOPE   H7Y20193   3.579   2.229   9.903
  177SOPE   C3820194   3.719   2.171   9.746
  177SOPE   H8X20195   3.700   2.063   9.768
  177SOPE   H8Y20196   3.829   2.172   9.727
  177SOPE   C3920197   3.651   2.230   9.620
  177SOPE   H9X20198   3.677   2.338   9.614
  177SOPE   H9Y20199   3.540   2.225   9.621
  177SOPE  C31020200   3.694   2.158   9.487
  177SOPE  H10X20201   3.707   2.050   9.513
  177SOPE  H10Y20202   3.789   2.194   9.441
  177SOPE  C31120203   3.593   2.170   9.376
  177SOPE  H11X20204   3.523   2.255   9.388
  177SOPE  H11Y20205   3.535   2.075   9.374
  177SOPE  C31220206   3.659   2.177   9.240
  177SOPE  H12X20207   3.741   2.102   9.240
  177SOPE  H12Y20208   3.703   2.279   9.236
  177SOPE  C31320209   3.560   2.160   9.116
  177SOPE  H13X20210   3.487   2.244   9.109
  177SOPE  H13Y20211   3.505   2.067   9.142
  177SOPE  C31420212   3.624   2.138   8.974
  177SOPE  H14X20213   3.551   2.072   8.923
  177SOPE  H14Y20214   3.699   2.059   8.994
  177SOPE  C31520215   3.671   2.258   8.892
  177SOPE  H15X20216   3.700   2.225   8.791
  177SOPE  H15Y20217   3.767   2.292   8.938
  177SOPE  C31620218   3.580   2.381   8.890
  177SOPE  H16X20219   3.567   2.429   8.989
  177SOPE  H16Y20220   3.477   2.351   8.861
  177SOPE  C31720221   3.620   2.490   8.792
  177SOPE  H17X20222   3.545   2.571   8.804
  177SOPE  H17Y20223   3.621   2.469   8.683
  177SOPE  C31820224   3.757   2.544   8.837
  177SOPE  H18X20225   3.770   2.637   8.777
  177SOPE  H18Y20226   3.833   2.470   8.805
  177SOPE  H18Z20227   3.766   2.566   8.945
  178SOPE     N20228   1.106   1.118  10.653
  178SOPE   HN120229   1.065   1.085  10.564
  178SOPE   HN220230   1.030   1.115  10.724
  178SOPE   HN320231   1.134   1.216  10.631
  178SOPE   C1220232   1.229   1.027  10.688
  178SOPE  H12A20233   1.219   1.016  10.798
  178SOPE  H12B20234   1.323   1.080  10.661
  178SOPE   C1120235   1.202   0.888  10.617
  178SOPE  H11A20236   1.270   0.807  10.648
  178SOPE  H11B20237   1.222   0.915  10.511
  178SOPE     P20238   1.009   0.728  10.701
  178SOPE   O1320239   0.870   0.738  10.739
  178SOPE   O1420240   1.096   0.672  10.808
  178SOPE   O1220241   1.062   0.857  10.630
  178SOPE   O1120242   1.015   0.619  10.587
  178SOPE    C120243   0.977   0.648  10.454
  178SOPE    HA20244   0.989   0.757  10.435
  178SOPE    HB20245   0.870   0.628  10.431
  178SOPE    C220246   1.064   0.570  10.351
  178SOPE    HS20247   1.054   0.461  10.371
  178SOPE   O2120248   1.197   0.618  10.353
  178SOPE   C2120249   1.289   0.523  10.377
  178SOPE   O2220250   1.263   0.404  10.383
  178SOPE   C2220251   1.431   0.580  10.371
  178SOPE   H2R20252   1.474   0.540  10.466
  178SOPE   H2S20253   1.430   0.691  10.374
  178SOPE    C320254   0.991   0.575  10.209
  178SOPE    HX20255   0.961   0.680  10.186
  178SOPE    HY20256   0.894   0.521  10.206
  178SOPE   O3120257   1.068   0.516  10.105
  178SOPE   C3120258   1.061   0.576   9.980
  178SOPE   O3220259   1.010   0.683   9.962
  178SOPE   C3220260   1.122   0.485   9.876
  178SOPE   H2X20261   1.084   0.381   9.887
  178SOPE   H2Y20262   1.229   0.484   9.905
  178SOPE   C2320263   1.525   0.544  10.251
  178SOPE   H3R20264   1.546   0.437  10.234
  178SOPE   H3S20265   1.623   0.593  10.268
  178SOPE   C2420266   1.474   0.603  10.121
  178SOPE   H4R20267   1.377   0.562  10.086
  178SOPE   H4S20268   1.458   0.709  10.149
  178SOPE   C2520269   1.576   0.615  10.005
  178SOPE   H5R20270   1.574   0.719   9.966
  178SOPE   H5S20271   1.680   0.595  10.037
  178SOPE   C2620272   1.547   0.514   9.894
  178SOPE   H6R20273   1.549   0.410   9.932
  178SOPE   H6S20274   1.445   0.531   9.855
  178SOPE   C2720275   1.659   0.509   9.792
  178SOPE   H7R20276   1.679   0.614   9.763
  178SOPE   H7S20277   1.758   0.470   9.822
  178SOPE   C2820278   1.609   0.436   9.659
  178SOPE   H8R20279   1.608   0.330   9.692
  178SOPE   H8S20280   1.504   0.469   9.644
  178SOPE   C2920281   1.701   0.457   9.536
  178SOPE   H9120282   1.800   0.408   9.537
  178SOPE  C21020283   1.673   0.516   9.424
  178SOPE  H10120284   1.761   0.539   9.362
  178SOPE  C21120285   1.539   0.586   9.398
  178SOPE  H11R20286   1.546   0.694   9.425
  178SOPE  H11S20287   1.466   0.548   9.472
  178SOPE  C21220288   1.483   0.572   9.256
  178SOPE  H12R20289   1.394   0.637   9.248
  178SOPE  H12S20290   1.447   0.471   9.226
  178SOPE  C21320291   1.579   0.632   9.145
  178SOPE  H13R20292   1.643   0.711   9.189
  178SOPE  H13S20293   1.518   0.677   9.064
  178SOPE  C21420294   1.662   0.529   9.071
  178SOPE  H14R20295   1.619   0.429   9.051
  178SOPE  H14S20296   1.751   0.520   9.137
  178SOPE  C21520297   1.716   0.584   8.936
  178SOPE  H15R20298   1.800   0.514   8.921
  178SOPE  H15S20299   1.756   0.688   8.940
  178SOPE  C21620300   1.623   0.558   8.821
  178SOPE  H16R20301   1.539   0.630   8.832
  178SOPE  H16S20302   1.588   0.453   8.836
  178SOPE  C21720303   1.684   0.561   8.680
  178SOPE  H17R20304   1.597   0.525   8.620
  178SOPE  H17S20305   1.765   0.486   8.666
  178SOPE  C21820306   1.722   0.703   8.630
  178SOPE  H18R20307   1.630   0.766   8.620
  178SOPE  H18S20308   1.752   0.706   8.523
  178SOPE  H18T20309   1.795   0.769   8.683
  178SOPE   C3320310   1.122   0.534   9.728
  178SOPE   H3X20311   1.161   0.638   9.733
  178SOPE   H3Y20312   1.016   0.527   9.694
  178SOPE   C3420313   1.207   0.445   9.631
  178SOPE   H4X20314   1.170   0.341   9.626
  178SOPE   H4Y20315   1.308   0.439   9.678
  178SOPE   C3520316   1.214   0.501   9.485
  178SOPE   H5X20317   1.283   0.442   9.421
  178SOPE   H5Y20318   1.265   0.600   9.492
  178SOPE   C3620319   1.086   0.499   9.404
  178SOPE   H6X20320   1.003   0.536   9.468
  178SOPE   H6Y20321   1.061   0.392   9.388
  178SOPE   C3720322   1.103   0.565   9.262
  178SOPE   H7X20323   1.187   0.636   9.263
  178SOPE   H7Y20324   1.012   0.625   9.241
  178SOPE   C3820325   1.132   0.455   9.157
  178SOPE   H8X20326   1.042   0.389   9.150
  178SOPE   H8Y20327   1.217   0.401   9.204
  178SOPE   C3920328   1.165   0.519   9.024
  178SOPE   H9X20329   1.248   0.593   9.032
  178SOPE   H9Y20330   1.084   0.586   8.990
  178SOPE  C31020331   1.178   0.413   8.916
  178SOPE  H10X20332   1.153   0.459   8.818
  178SOPE  H10Y20333   1.092   0.345   8.933
  178SOPE  C31120334   1.313   0.341   8.908
  178SOPE  H11X20335   1.325   0.263   8.986
  178SOPE  H11Y20336   1.399   0.412   8.905
  178SOPE  C31220337   1.301   0.267   8.772
  178SOPE  H12X20338   1.326   0.352   8.705
  178SOPE  H12Y20339   1.196   0.246   8.744
  178SOPE  C31320340   1.403   0.157   8.745
  178SOPE  H13X20341   1.382   0.064   8.802
  178SOPE  H13Y20342   1.498   0.200   8.784
  178SOPE  C31420343   1.413   0.126   8.596
  178SOPE  H14X20344   1.391   0.222   8.545
  178SOPE  H14Y20345   1.323   0.075   8.556
  178SOPE  C31520346   1.537   0.061   8.549
  178SOPE  H15X20347   1.627   0.105   8.597
  178SOPE  H15Y20348   1.548   0.057   8.438
  178SOPE  C31620349   1.527  -0.099   8.577
  178SOPE  H16X20350   1.489  -0.152   8.487
  178SOPE  H16Y20351   1.450  -0.107   8.657
  178SOPE  C31720352   1.657  -0.167   8.633
  178SOPE  H17X20353   1.705  -0.108   8.714
  178SOPE  H17Y20354   1.735  -0.158   8.554
  178SOPE  C31820355   1.652  -0.314   8.662
  178SOPE  H18X20356   1.669  -0.324   8.771
  178SOPE  H18Y20357   1.740  -0.361   8.613
  178SOPE  H18Z20358   1.558  -0.371   8.646
  179SOPE     N20359   0.155   1.569   6.571
  179SOPE   HN120360   0.258   1.586   6.579
  179SOPE   HN220361   0.138   1.469   6.547
  179SOPE   HN320362   0.115   1.632   6.499
  179SOPE   C1220363   0.076   1.595   6.691
  179SOPE  H12A20364   0.122   1.547   6.780
  179SOPE  H12B20365  -0.030   1.564   6.683
  179SOPE   C1120366   0.089   1.749   6.717
  179SOPE  H11A20367   0.198   1.758   6.736
  179SOPE  H11B20368   0.046   1.771   6.817
  179SOPE     P20369  -0.117   1.854   6.593
  179SOPE   O1320370  -0.175   1.722   6.591
  179SOPE   O1420371  -0.152   1.947   6.480
  179SOPE   O1220372   0.045   1.838   6.611
  179SOPE   O1120373  -0.148   1.917   6.726
  179SOPE    C120374  -0.121   2.051   6.769
  179SOPE    HA20375  -0.202   2.084   6.839
  179SOPE    HB20376  -0.112   2.121   6.684
  179SOPE    C220377   0.017   2.069   6.851
  179SOPE    HS20378   0.093   2.027   6.781
  179SOPE   O2120379   0.012   2.005   6.975
  179SOPE   C2120380   0.130   1.951   7.020
  179SOPE   O2220381   0.231   1.951   6.950
  179SOPE   C2220382   0.117   1.904   7.158
  179SOPE   H2R20383   0.051   1.815   7.169
  179SOPE   H2S20384   0.087   1.992   7.219
  179SOPE    C320385   0.034   2.227   6.865
  179SOPE    HX20386  -0.065   2.261   6.900
  179SOPE    HY20387   0.072   2.263   6.767
  179SOPE   O3120388   0.136   2.252   6.966
  179SOPE   C3120389   0.102   2.297   7.081
  179SOPE   O3220390  -0.014   2.314   7.126
  179SOPE   C3220391   0.227   2.317   7.171
  179SOPE   H2X20392   0.239   2.427   7.167
  179SOPE   H2Y20393   0.310   2.262   7.122
  179SOPE   C2320394   0.256   1.876   7.223
  179SOPE   H3R20395   0.326   1.945   7.171
  179SOPE   H3S20396   0.285   1.770   7.208
  179SOPE   C2420397   0.261   1.912   7.379
  179SOPE   H4R20398   0.359   1.892   7.427
  179SOPE   H4S20399   0.244   2.022   7.375
  179SOPE   C2520400   0.156   1.838   7.467
  179SOPE   H5R20401   0.052   1.874   7.448
  179SOPE   H5S20402   0.166   1.728   7.452
  179SOPE   C2620403   0.184   1.861   7.620
  179SOPE   H6R20404   0.289   1.842   7.651
  179SOPE   H6S20405   0.183   1.970   7.641
  179SOPE   C2720406   0.081   1.793   7.712
  179SOPE   H7R20407  -0.017   1.843   7.700
  179SOPE   H7S20408   0.070   1.683   7.702
  179SOPE   C2820409   0.110   1.806   7.864
  179SOPE   H8R20410   0.217   1.785   7.888
  179SOPE   H8S20411   0.102   1.912   7.893
  179SOPE   C2920412   0.024   1.737   7.971
  179SOPE   H9120413   0.044   1.630   7.987
  179SOPE  C21020414  -0.052   1.798   8.057
  179SOPE  H10120415  -0.104   1.748   8.140
  179SOPE  C21120416  -0.078   1.951   8.070
  179SOPE  H11R20417  -0.185   1.964   8.093
  179SOPE  H11S20418  -0.055   2.009   7.978
  179SOPE  C21220419   0.000   2.009   8.193
  179SOPE  H12R20420  -0.012   2.119   8.192
  179SOPE  H12S20421   0.105   1.979   8.172
  179SOPE  C21320422  -0.044   1.944   8.318
  179SOPE  H13R20423  -0.019   1.836   8.311
  179SOPE  H13S20424  -0.152   1.970   8.323
  179SOPE  C21420425   0.022   2.011   8.445
  179SOPE  H14R20426  -0.036   1.955   8.521
  179SOPE  H14S20427   0.001   2.120   8.457
  179SOPE  C21520428   0.172   1.975   8.453
  179SOPE  H15R20429   0.213   2.024   8.362
  179SOPE  H15S20430   0.187   1.867   8.433
  179SOPE  C21620431   0.213   2.019   8.589
  179SOPE  H16R20432   0.195   1.936   8.661
  179SOPE  H16S20433   0.155   2.110   8.619
  179SOPE  C21720434   0.362   2.065   8.589
  179SOPE  H17R20435   0.359   2.159   8.529
  179SOPE  H17S20436   0.412   1.994   8.520
  179SOPE  C21820437   0.432   2.078   8.718
  179SOPE  H18R20438   0.374   2.066   8.812
  179SOPE  H18S20439   0.459   2.186   8.721
  179SOPE  H18T20440   0.527   2.020   8.715
  179SOPE   C3320441   0.186   2.288   7.318
  179SOPE   H3X20442   0.146   2.186   7.329
  179SOPE   H3Y20443   0.109   2.360   7.354
  179SOPE   C3420444   0.307   2.299   7.417
  179SOPE   H4X20445   0.336   2.406   7.426
  179SOPE   H4Y20446   0.397   2.246   7.380
  179SOPE   C3520447   0.292   2.259   7.567
  179SOPE   H5X20448   0.394   2.263   7.611
  179SOPE   H5Y20449   0.263   2.152   7.572
  179SOPE   C3620450   0.178   2.343   7.631
  179SOPE   H6X20451   0.085   2.342   7.570
  179SOPE   H6Y20452   0.213   2.448   7.627
  179SOPE   C3720453   0.155   2.311   7.778
  179SOPE   H7X20454   0.140   2.201   7.779
  179SOPE   H7Y20455   0.063   2.347   7.827
  179SOPE   C3820456   0.275   2.353   7.875
  179SOPE   H8X20457   0.283   2.464   7.862
  179SOPE   H8Y20458   0.371   2.316   7.834
  179SOPE   C3920459   0.266   2.336   8.027
  179SOPE   H9X20460   0.358   2.361   8.083
  179SOPE   H9Y20461   0.241   2.229   8.043
  179SOPE  C31020462   0.162   2.424   8.101
  179SOPE  H10X20463   0.059   2.432   8.061
  179SOPE  H10Y20464   0.198   2.527   8.122
  179SOPE  C31120465   0.144   2.386   8.251
  179SOPE  H11X20466   0.234   2.406   8.312
  179SOPE  H11Y20467   0.118   2.278   8.258
  179SOPE  C31220468   0.039   2.472   8.322
  179SOPE  H12X20469  -0.061   2.441   8.284
  179SOPE  H12Y20470   0.054   2.575   8.283
  179SOPE  C31320471   0.047   2.472   8.475
  179SOPE  H13X20472   0.128   2.544   8.500
  179SOPE  H13Y20473   0.076   2.375   8.521
  179SOPE  C31420474  -0.077   2.526   8.534
  179SOPE  H14X20475  -0.159   2.451   8.537
  179SOPE  H14Y20476  -0.107   2.620   8.483
  179SOPE  C31520477  -0.066   2.577   8.681
  179SOPE  H15X20478   0.007   2.657   8.702
  179SOPE  H15Y20479  -0.049   2.489   8.747
  179SOPE  C31620480  -0.204   2.623   8.729
  179SOPE  H16X20481  -0.273   2.540   8.754
  179SOPE  H16Y20482  -0.253   2.688   8.654
  179SOPE  C31720483  -0.207   2.711   8.857
  179SOPE  H17X20484  -0.144   2.802   8.843
  179SOPE  H17Y20485  -0.166   2.655   8.943
  179SOPE  C31820486  -0.346   2.744   8.910
  179SOPE  H18X20487  -0.353   2.801   9.005
  179SOPE  H18Y20488  -0.412   2.656   8.926
  179SOPE  H18Z20489  -0.384   2.801   8.822
  180SOPE     N20490   5.908   1.867   6.061
  180SOPE   HN120491   5.874   1.773   6.090
  180SOPE   HN220492   5.894   1.935   6.137
  180SOPE   HN320493   5.872   1.907   5.971
  180SOPE   C1220494   6.059   1.861   6.046
  180SOPE  H12A20495   6.079   1.786   5.966
  180SOPE  H12B20496   6.098   1.817   6.140
  180SOPE   C1120497   6.119   2.004   6.029
  180SOPE  H11A20498   6.098   2.040   5.926
  180SOPE  H11B20499   6.229   1.988   6.039
  180SOPE     P20500   6.129   2.125   6.259
  180SOPE   O1320501   6.174   2.264   6.264
  180SOPE   O1420502   6.238   2.021   6.272
  180SOPE   O1220503   6.060   2.101   6.117
  180SOPE   O1120504   6.009   2.094   6.354
  180SOPE    C120505   5.947   2.196   6.436
  180SOPE    HA20506   5.838   2.189   6.421
  180SOPE    HB20507   5.983   2.300   6.423
  180SOPE    C220508   5.969   2.177   6.585
  180SOPE    HS20509   6.071   2.213   6.612
  180SOPE   O2120510   5.929   2.042   6.622
  180SOPE   C2120511   6.006   1.980   6.714
  180SOPE   O2220512   6.107   2.021   6.762
  180SOPE   C2220513   5.937   1.845   6.747
  180SOPE   H2R20514   5.924   1.788   6.652
  180SOPE   H2S20515   5.830   1.869   6.760
  180SOPE    C320516   5.888   2.283   6.664
  180SOPE    HX20517   5.796   2.322   6.615
  180SOPE    HY20518   5.952   2.374   6.658
  180SOPE   O3120519   5.873   2.251   6.807
  180SOPE   C3120520   5.754   2.206   6.844
  180SOPE   O3220521   5.653   2.203   6.774
  180SOPE   C3220522   5.767   2.155   6.987
  180SOPE   H2X20523   5.850   2.209   7.037
  180SOPE   H2Y20524   5.787   2.047   6.971
  180SOPE   C2320525   6.008   1.765   6.864
  180SOPE   H3R20526   6.097   1.823   6.897
  180SOPE   H3S20527   6.036   1.669   6.816
  180SOPE   C2420528   5.907   1.753   6.979
  180SOPE   H4R20529   5.891   1.858   7.011
  180SOPE   H4S20530   5.814   1.702   6.946
  180SOPE   C2520531   5.968   1.680   7.092
  180SOPE   H5R20532   5.995   1.576   7.065
  180SOPE   H5S20533   6.068   1.722   7.115
  180SOPE   C2620534   5.884   1.686   7.220
  180SOPE   H6R20535   5.873   1.794   7.243
  180SOPE   H6S20536   5.782   1.645   7.202
  180SOPE   C2720537   5.950   1.616   7.344
  180SOPE   H7R20538   5.950   1.508   7.317
  180SOPE   H7S20539   6.056   1.650   7.337
  180SOPE   C2820540   5.898   1.638   7.490
  180SOPE   H8R20541   5.898   1.748   7.503
  180SOPE   H8S20542   5.791   1.610   7.496
  180SOPE   C2920543   5.990   1.572   7.590
  180SOPE   H9120544   6.096   1.576   7.559
  180SOPE  C21020545   5.954   1.523   7.711
  180SOPE  H10120546   6.023   1.457   7.765
  180SOPE  C21120547   5.814   1.520   7.760
  180SOPE  H11R20548   5.753   1.435   7.723
  180SOPE  H11S20549   5.760   1.608   7.719
  180SOPE  C21220550   5.813   1.527   7.919
  180SOPE  H12R20551   5.873   1.448   7.967
  180SOPE  H12S20552   5.711   1.491   7.943
  180SOPE  C21320553   5.817   1.669   7.977
  180SOPE  H13R20554   5.733   1.727   7.933
  180SOPE  H13S20555   5.914   1.719   7.960
  180SOPE  C21420556   5.809   1.662   8.127
  180SOPE  H14R20557   5.717   1.602   8.144
  180SOPE  H14S20558   5.798   1.767   8.164
  180SOPE  C21520559   5.927   1.607   8.200
  180SOPE  H15R20560   6.014   1.659   8.156
  180SOPE  H15S20561   5.944   1.497   8.195
  180SOPE  C21620562   5.914   1.649   8.344
  180SOPE  H16R20563   5.867   1.749   8.358
  180SOPE  H16S20564   6.009   1.650   8.402
  180SOPE  C21720565   5.821   1.553   8.422
  180SOPE  H17R20566   5.873   1.457   8.401
  180SOPE  H17S20567   5.714   1.556   8.390
  180SOPE  C21820568   5.815   1.574   8.573
  180SOPE  H18R20569   5.918   1.554   8.611
  180SOPE  H18S20570   5.746   1.502   8.623
  180SOPE  H18T20571   5.792   1.680   8.595
  180SOPE   C3320572   5.631   2.188   7.057
  180SOPE   H3X20573   5.551   2.142   6.995
  180SOPE   H3Y20574   5.600   2.295   7.052
  180SOPE   C3420575   5.631   2.134   7.203
  180SOPE   H4X20576   5.548   2.186   7.255
  180SOPE   H4Y20577   5.735   2.134   7.243
  180SOPE   C3520578   5.590   1.984   7.206
  180SOPE   H5X20579   5.655   1.921   7.141
  180SOPE   H5Y20580   5.482   1.977   7.181
  180SOPE   C3620581   5.608   1.923   7.345
  180SOPE   H6X20582   5.713   1.922   7.379
  180SOPE   H6Y20583   5.581   1.816   7.334
  180SOPE   C3720584   5.521   2.001   7.447
  180SOPE   H7X20585   5.417   2.008   7.409
  180SOPE   H7Y20586   5.573   2.099   7.445
  180SOPE   C3820587   5.530   1.949   7.591
  180SOPE   H8X20588   5.635   1.948   7.626
  180SOPE   H8Y20589   5.504   1.842   7.575
  180SOPE   C3920590   5.433   2.008   7.693
  180SOPE   H9X20591   5.329   1.995   7.658
  180SOPE   H9Y20592   5.460   2.115   7.681
  180SOPE  C31020593   5.448   1.962   7.839
  180SOPE  H10X20594   5.376   2.021   7.900
  180SOPE  H10Y20595   5.552   1.989   7.865
  180SOPE  C31120596   5.422   1.818   7.875
  180SOPE  H11X20597   5.504   1.748   7.850
  180SOPE  H11Y20598   5.332   1.782   7.821
  180SOPE  C31220599   5.401   1.796   8.029
  180SOPE  H12X20600   5.308   1.850   8.055
  180SOPE  H12Y20601   5.490   1.842   8.078
  180SOPE  C31320602   5.409   1.648   8.066
  180SOPE  H13X20603   5.400   1.648   8.177
  180SOPE  H13Y20604   5.508   1.602   8.043
  180SOPE  C31420605   5.293   1.560   8.006
  180SOPE  H14X20606   5.314   1.569   7.897
  180SOPE  H14Y20607   5.197   1.610   8.032
  180SOPE  C31520608   5.301   1.416   8.051
  180SOPE  H15X20609   5.314   1.406   8.161
  180SOPE  H15Y20610   5.402   1.380   8.024
  180SOPE  C31620611   5.188   1.323   8.003
  180SOPE  H16X20612   5.184   1.326   7.892
  180SOPE  H16Y20613   5.097   1.375   8.037
  180SOPE  C31720614   5.187   1.183   8.061
  180SOPE  H17X20615   5.278   1.135   8.019
  180SOPE  H17Y20616   5.097   1.127   8.028
  180SOPE  C31820617   5.201   1.181   8.211
  180SOPE  H18X20618   5.189   1.081   8.258
  180SOPE  H18Y20619   5.127   1.247   8.261
  180SOPE  H18Z20620   5.304   1.213   8.240
  181SOPE     N20621   5.526   5.785   5.862
  181SOPE   HN120622   5.456   5.709   5.858
  181SOPE   HN220623   5.601   5.746   5.801
  181SOPE   HN320624   5.577   5.796   5.953
  181SOPE   C1220625   5.470   5.917   5.816
  181SOPE  H12A20626   5.379   5.934   5.876
  181SOPE  H12B20627   5.442   5.898   5.710
  181SOPE   C1120628   5.582   6.026   5.836
  181SOPE  H11A20629   5.539   6.119   5.793
  181SOPE  H11B20630   5.675   6.015   5.776
  181SOPE     P20631   5.605   6.161   6.060
  181SOPE   O1320632   5.622   6.278   5.978
  181SOPE   O1420633   5.698   6.141   6.168
  181SOPE   O1220634   5.623   6.035   5.972
  181SOPE   O1120635   5.454   6.139   6.114
  181SOPE    C120636   5.417   6.028   6.197
  181SOPE    HA20637   5.506   5.965   6.218
  181SOPE    HB20638   5.352   5.959   6.141
  181SOPE    C220639   5.358   6.087   6.330
  181SOPE    HS20640   5.334   5.998   6.392
  181SOPE   O2120641   5.243   6.168   6.309
  181SOPE   C2120642   5.122   6.101   6.320
  181SOPE   O2220643   5.119   5.981   6.344
  181SOPE   C2220644   5.006   6.200   6.304
  181SOPE   H2R20645   4.925   6.163   6.370
  181SOPE   H2S20646   4.972   6.176   6.201
  181SOPE    C320647   5.464   6.165   6.420
  181SOPE    HX20648   5.496   6.250   6.357
  181SOPE    HY20649   5.555   6.101   6.423
  181SOPE   O3120650   5.411   6.212   6.547
  181SOPE   C3120651   5.514   6.264   6.617
  181SOPE   O3220652   5.626   6.288   6.566
  181SOPE   C3220653   5.475   6.290   6.760
  181SOPE   H2X20654   5.387   6.226   6.785
  181SOPE   H2Y20655   5.441   6.394   6.780
  181SOPE   C2320656   5.033   6.349   6.314
  181SOPE   H3R20657   4.936   6.398   6.288
  181SOPE   H3S20658   5.106   6.377   6.235
  181SOPE   C2420659   5.080   6.404   6.447
  181SOPE   H4R20660   5.000   6.388   6.522
  181SOPE   H4S20661   5.178   6.356   6.470
  181SOPE   C2520662   5.097   6.561   6.462
  181SOPE   H5R20663   5.145   6.602   6.371
  181SOPE   H5S20664   4.998   6.611   6.469
  181SOPE   C2620665   5.187   6.614   6.580
  181SOPE   H6R20666   5.275   6.550   6.558
  181SOPE   H6S20667   5.206   6.722   6.559
  181SOPE   C2720668   5.127   6.592   6.719
  181SOPE   H7R20669   5.027   6.640   6.729
  181SOPE   H7S20670   5.103   6.485   6.735
  181SOPE   C2820671   5.220   6.643   6.833
  181SOPE   H8R20672   5.316   6.586   6.831
  181SOPE   H8S20673   5.245   6.748   6.807
  181SOPE   C2920674   5.159   6.639   6.971
  181SOPE   H9120675   5.071   6.572   6.970
  181SOPE  C21020676   5.209   6.668   7.088
  181SOPE  H10120677   5.141   6.668   7.175
  181SOPE  C21120678   5.346   6.721   7.116
  181SOPE  H11R20679   5.389   6.782   7.033
  181SOPE  H11S20680   5.414   6.634   7.130
  181SOPE  C21220681   5.363   6.797   7.242
  181SOPE  H12R20682   5.329   6.742   7.333
  181SOPE  H12S20683   5.306   6.892   7.243
  181SOPE  C21320684   5.506   6.831   7.273
  181SOPE  H13R20685   5.544   6.897   7.193
  181SOPE  H13S20686   5.584   6.753   7.255
  181SOPE  C21420687   5.531   6.898   7.412
  181SOPE  H14R20688   5.440   6.959   7.431
  181SOPE  H14S20689   5.612   6.970   7.388
  181SOPE  C21520690   5.576   6.789   7.510
  181SOPE  H15R20691   5.684   6.764   7.502
  181SOPE  H15S20692   5.525   6.692   7.490
  181SOPE  C21620693   5.535   6.823   7.654
  181SOPE  H16R20694   5.560   6.928   7.680
  181SOPE  H16S20695   5.587   6.759   7.729
  181SOPE  C21720696   5.386   6.791   7.667
  181SOPE  H17R20697   5.364   6.686   7.637
  181SOPE  H17S20698   5.335   6.855   7.592
  181SOPE  C21820699   5.317   6.803   7.800
  181SOPE  H18R20700   5.315   6.904   7.847
  181SOPE  H18S20701   5.370   6.725   7.857
  181SOPE  H18T20702   5.209   6.780   7.787
  181SOPE   C3320703   5.596   6.262   6.858
  181SOPE   H3X20704   5.684   6.325   6.834
  181SOPE   H3Y20705   5.620   6.154   6.847
  181SOPE   C3420706   5.561   6.274   7.009
  181SOPE   H4X20707   5.505   6.188   7.051
  181SOPE   H4Y20708   5.500   6.366   7.016
  181SOPE   C3520709   5.687   6.294   7.086
  181SOPE   H5X20710   5.732   6.387   7.046
  181SOPE   H5Y20711   5.752   6.204   7.084
  181SOPE   C3620712   5.661   6.323   7.238
  181SOPE   H6X20713   5.584   6.404   7.245
  181SOPE   H6Y20714   5.756   6.361   7.280
  181SOPE   C3720715   5.625   6.198   7.317
  181SOPE   H7X20716   5.668   6.108   7.269
  181SOPE   H7Y20717   5.517   6.174   7.323
  181SOPE   C3820718   5.674   6.217   7.459
  181SOPE   H8X20719   5.599   6.282   7.509
  181SOPE   H8Y20720   5.779   6.254   7.462
  181SOPE   C3920721   5.685   6.087   7.545
  181SOPE   H9X20722   5.755   6.011   7.505
  181SOPE   H9Y20723   5.588   6.034   7.536
  181SOPE  C31020724   5.730   6.120   7.682
  181SOPE  H10X20725   5.693   6.217   7.722
  181SOPE  H10Y20726   5.840   6.119   7.693
  181SOPE  C31120727   5.672   6.022   7.793
  181SOPE  H11X20728   5.705   5.918   7.773
  181SOPE  H11Y20729   5.562   6.017   7.784
  181SOPE  C31220730   5.715   6.063   7.935
  181SOPE  H12X20731   5.705   6.172   7.953
  181SOPE  H12Y20732   5.823   6.038   7.951
  181SOPE  C31320733   5.622   5.990   8.035
  181SOPE  H13X20734   5.622   5.880   8.023
  181SOPE  H13Y20735   5.515   6.012   8.014
  181SOPE  C31420736   5.657   6.005   8.187
  181SOPE  H14X20737   5.651   6.114   8.205
  181SOPE  H14Y20738   5.765   5.986   8.201
  181SOPE  C31520739   5.582   5.896   8.269
  181SOPE  H15X20740   5.622   5.795   8.245
  181SOPE  H15Y20741   5.475   5.904   8.240
  181SOPE  C31620742   5.600   5.903   8.421
  181SOPE  H16X20743   5.589   6.010   8.449
  181SOPE  H16Y20744   5.702   5.868   8.447
  181SOPE  C31720745   5.495   5.820   8.495
  181SOPE  H17X20746   5.505   5.713   8.468
  181SOPE  H17Y20747   5.397   5.866   8.470
  181SOPE  C31820748   5.515   5.823   8.650
  181SOPE  H18X20749   5.441   5.892   8.696
  181SOPE  H18Y20750   5.620   5.849   8.673
  181SOPE  H18Z20751   5.498   5.723   8.695
  182SOPE     N20752   6.349   1.656   6.553
  182SOPE   HN120753   6.437   1.697   6.591
  182SOPE   HN220754   6.295   1.606   6.626
  182SOPE   HN320755   6.371   1.592   6.474
  182SOPE   C1220756   6.265   1.768   6.485
  182SOPE  H12A20757   6.331   1.810   6.406
  182SOPE  H12B20758   6.245   1.839   6.567
  182SOPE   C1120759   6.140   1.715   6.416
  182SOPE  H11A20760   6.106   1.806   6.362
  182SOPE  H11B20761   6.063   1.672   6.483
  182SOPE     P20762   6.067   1.520   6.252
  182SOPE   O1320763   6.139   1.424   6.165
  182SOPE   O1420764   5.962   1.603   6.196
  182SOPE   O1220765   6.173   1.619   6.317
  182SOPE   O1120766   5.996   1.446   6.376
  182SOPE    C120767   6.051   1.338   6.449
  182SOPE    HA20768   6.160   1.352   6.462
  182SOPE    HB20769   6.024   1.241   6.402
  182SOPE    C220770   5.970   1.340   6.580
  182SOPE    HS20771   5.960   1.449   6.602
  182SOPE   O2120772   6.041   1.281   6.691
  182SOPE   C2120773   6.142   1.353   6.750
  182SOPE   O2220774   6.187   1.457   6.709
  182SOPE   C2220775   6.189   1.273   6.873
  182SOPE   H2R20776   6.254   1.187   6.845
  182SOPE   H2S20777   6.090   1.238   6.907
  182SOPE    C320778   5.823   1.300   6.558
  182SOPE    HX20779   5.833   1.199   6.513
  182SOPE    HY20780   5.774   1.374   6.491
  182SOPE   O3120781   5.748   1.296   6.683
  182SOPE   C3120782   5.725   1.413   6.740
  182SOPE   O3220783   5.762   1.521   6.692
  182SOPE   C3220784   5.666   1.401   6.881
  182SOPE   H2X20785   5.574   1.341   6.861
  182SOPE   H2Y20786   5.650   1.506   6.912
  182SOPE   C2320787   6.252   1.358   6.982
  182SOPE   H3R20788   6.231   1.467   6.988
  182SOPE   H3S20789   6.362   1.349   6.972
  182SOPE   C2420790   6.212   1.306   7.121
  182SOPE   H4R20791   6.105   1.331   7.139
  182SOPE   H4S20792   6.230   1.198   7.137
  182SOPE   C2520793   6.286   1.374   7.231
  182SOPE   H5R20794   6.392   1.340   7.230
  182SOPE   H5S20795   6.287   1.482   7.206
  182SOPE   C2620796   6.222   1.351   7.374
  182SOPE   H6R20797   6.245   1.446   7.427
  182SOPE   H6S20798   6.112   1.358   7.362
  182SOPE   C2720799   6.260   1.224   7.448
  182SOPE   H7R20800   6.233   1.138   7.382
  182SOPE   H7S20801   6.370   1.226   7.462
  182SOPE   C2820802   6.192   1.215   7.583
  182SOPE   H8R20803   6.094   1.265   7.599
  182SOPE   H8S20804   6.176   1.110   7.615
  182SOPE   C2920805   6.272   1.281   7.694
  182SOPE   H9120806   6.293   1.388   7.685
  182SOPE  C21020807   6.336   1.222   7.797
  182SOPE  H10120808   6.395   1.293   7.857
  182SOPE  C21120809   6.331   1.073   7.823
  182SOPE  H11R20810   6.431   1.032   7.845
  182SOPE  H11S20811   6.295   1.020   7.732
  182SOPE  C21220812   6.242   1.029   7.941
  182SOPE  H12R20813   6.233   0.919   7.924
  182SOPE  H12S20814   6.139   1.067   7.925
  182SOPE  C21320815   6.295   1.070   8.079
  182SOPE  H13R20816   6.292   1.178   8.103
  182SOPE  H13S20817   6.401   1.036   8.087
  182SOPE  C21420818   6.213   1.015   8.208
  182SOPE  H14R20819   6.266   1.043   8.302
  182SOPE  H14S20820   6.191   0.907   8.200
  182SOPE  C21520821   6.071   1.076   8.218
  182SOPE  H15R20822   6.022   1.063   8.120
  182SOPE  H15S20823   6.099   1.182   8.235
  182SOPE  C21620824   5.982   1.019   8.331
  182SOPE  H16R20825   6.044   0.990   8.418
  182SOPE  H16S20826   5.923   0.931   8.297
  182SOPE  C21720827   5.887   1.130   8.393
  182SOPE  H17R20828   5.852   1.189   8.306
  182SOPE  H17S20829   5.944   1.200   8.457
  182SOPE  C21820830   5.769   1.072   8.467
  182SOPE  H18R20831   5.679   1.135   8.449
  182SOPE  H18S20832   5.800   1.089   8.573
  182SOPE  H18T20833   5.752   0.965   8.441
  182SOPE   C3320834   5.772   1.330   6.971
  182SOPE   H3X20835   5.867   1.386   6.960
  182SOPE   H3Y20836   5.796   1.230   6.928
  182SOPE   C3420837   5.723   1.336   7.115
  182SOPE   H4X20838   5.620   1.296   7.128
  182SOPE   H4Y20839   5.705   1.443   7.140
  182SOPE   C3520840   5.808   1.264   7.215
  182SOPE   H5X20841   5.774   1.297   7.316
  182SOPE   H5Y20842   5.914   1.291   7.195
  182SOPE   C3620843   5.791   1.104   7.210
  182SOPE   H6X20844   5.810   1.065   7.108
  182SOPE   H6Y20845   5.687   1.075   7.238
  182SOPE   C3720846   5.893   1.016   7.293
  182SOPE   H7X20847   5.990   1.016   7.240
  182SOPE   H7Y20848   5.841   0.918   7.281
  182SOPE   C3820849   5.917   1.061   7.436
  182SOPE   H8X20850   5.960   1.164   7.440
  182SOPE   H8Y20851   5.990   0.980   7.457
  182SOPE   C3920852   5.803   1.043   7.533
  182SOPE   H9X20853   5.730   0.963   7.510
  182SOPE   H9Y20854   5.743   1.136   7.542
  182SOPE  C31020855   5.860   1.007   7.671
  182SOPE  H10X20856   5.956   1.062   7.685
  182SOPE  H10Y20857   5.891   0.903   7.695
  182SOPE  C31120858   5.759   1.040   7.782
  182SOPE  H11X20859   5.674   0.973   7.759
  182SOPE  H11Y20860   5.733   1.147   7.765
  182SOPE  C31220861   5.810   1.024   7.928
  182SOPE  H12X20862   5.893   1.094   7.954
  182SOPE  H12Y20863   5.836   0.919   7.952
  182SOPE  C31320864   5.694   1.060   8.024
  182SOPE  H13X20865   5.665   1.165   8.004
  182SOPE  H13Y20866   5.719   1.055   8.133
  182SOPE  C31420867   5.558   0.990   8.006
  182SOPE  H14X20868   5.515   0.991   7.903
  182SOPE  H14Y20869   5.478   1.047   8.057
  182SOPE  C31520870   5.550   0.847   8.056
  182SOPE  H15X20871   5.617   0.782   7.996
  182SOPE  H15Y20872   5.446   0.821   8.029
  182SOPE  C31620873   5.580   0.817   8.204
  182SOPE  H16X20874   5.499   0.860   8.267
  182SOPE  H16Y20875   5.669   0.877   8.234
  182SOPE  C31720876   5.607   0.673   8.239
  182SOPE  H17X20877   5.683   0.622   8.176
  182SOPE  H17Y20878   5.520   0.616   8.202
  182SOPE  C31820879   5.643   0.648   8.380
  182SOPE  H18X20880   5.559   0.637   8.451
  182SOPE  H18Y20881   5.709   0.729   8.416
  182SOPE  H18Z20882   5.690   0.548   8.397
  183SOPE     N20883   1.086   5.671   6.273
  183SOPE   HN120884   0.990   5.633   6.258
  183SOPE   HN220885   1.112   5.731   6.192
  183SOPE   HN320886   1.156   5.595   6.282
  183SOPE   C1220887   1.099   5.746   6.400
  183SOPE  H12A20888   1.058   5.696   6.490
  183SOPE  H12B20889   1.044   5.841   6.381
  183SOPE   C1120890   1.254   5.784   6.428
  183SOPE  H11A20891   1.307   5.687   6.431
  183SOPE  H11B20892   1.253   5.823   6.532
  183SOPE     P20893   1.452   5.908   6.309
  183SOPE   O1320894   1.459   6.042   6.242
  183SOPE   O1420895   1.503   5.785   6.243
  183SOPE   O1220896   1.304   5.884   6.341
  183SOPE   O1120897   1.498   5.924   6.457
  183SOPE    C120898   1.465   6.030   6.547
  183SOPE    HA20899   1.355   6.050   6.550
  183SOPE    HB20900   1.498   6.127   6.504
  183SOPE    C220901   1.522   6.000   6.689
  183SOPE    HS20902   1.485   6.077   6.759
  183SOPE   O2120903   1.665   5.994   6.682
  183SOPE   C2120904   1.724   6.102   6.719
  183SOPE   O2220905   1.669   6.211   6.739
  183SOPE   C2220906   1.868   6.079   6.693
  183SOPE   H2R20907   1.900   6.127   6.598
  183SOPE   H2S20908   1.894   5.971   6.692
  183SOPE    C320909   1.469   5.861   6.745
  183SOPE    HX20910   1.516   5.785   6.678
  183SOPE    HY20911   1.359   5.858   6.732
  183SOPE   O3120912   1.497   5.853   6.882
  183SOPE   C3120913   1.592   5.766   6.914
  183SOPE   O3220914   1.664   5.708   6.834
  183SOPE   C3220915   1.601   5.748   7.061
  183SOPE   H2X20916   1.674   5.668   7.086
  183SOPE   H2Y20917   1.499   5.712   7.084
  183SOPE   C2320918   1.944   6.150   6.801
  183SOPE   H3R20919   1.927   6.259   6.798
  183SOPE   H3S20920   2.051   6.131   6.776
  183SOPE   C2420921   1.929   6.084   6.942
  183SOPE   H4R20922   1.824   6.082   6.976
  183SOPE   H4S20923   1.968   5.979   6.941
  183SOPE   C2520924   2.013   6.145   7.052
  183SOPE   H5R20925   2.119   6.122   7.030
  183SOPE   H5S20926   2.013   6.256   7.064
  183SOPE   C2620927   2.004   6.091   7.196
  183SOPE   H6R20928   1.903   6.067   7.235
  183SOPE   H6S20929   2.040   5.986   7.194
  183SOPE   C2720930   2.085   6.171   7.302
  183SOPE   H7R20931   2.190   6.203   7.288
  183SOPE   H7S20932   2.023   6.263   7.318
  183SOPE   C2820933   2.058   6.092   7.439
  183SOPE   H8R20934   1.950   6.078   7.460
  183SOPE   H8S20935   2.095   5.990   7.415
  183SOPE   C2920936   2.141   6.134   7.564
  183SOPE   H9120937   2.234   6.078   7.581
  183SOPE  C21020938   2.102   6.225   7.660
  183SOPE  H10120939   2.175   6.248   7.738
  183SOPE  C21120940   1.981   6.307   7.670
  183SOPE  H11R20941   1.913   6.280   7.586
  183SOPE  H11S20942   2.014   6.413   7.659
  183SOPE  C21220943   1.895   6.302   7.803
  183SOPE  H12R20944   1.853   6.199   7.805
  183SOPE  H12S20945   1.806   6.367   7.789
  183SOPE  C21320946   1.967   6.318   7.936
  183SOPE  H13R20947   2.040   6.402   7.946
  183SOPE  H13S20948   2.039   6.235   7.947
  183SOPE  C21420949   1.877   6.319   8.057
  183SOPE  H14R20950   1.795   6.390   8.032
  183SOPE  H14S20951   1.927   6.366   8.145
  183SOPE  C21520952   1.823   6.182   8.092
  183SOPE  H15R20953   1.908   6.116   8.118
  183SOPE  H15S20954   1.767   6.137   8.007
  183SOPE  C21620955   1.720   6.177   8.209
  183SOPE  H16R20956   1.752   6.238   8.296
  183SOPE  H16S20957   1.715   6.069   8.232
  183SOPE  C21720958   1.582   6.232   8.163
  183SOPE  H17R20959   1.543   6.200   8.064
  183SOPE  H17S20960   1.587   6.342   8.145
  183SOPE  C21820961   1.469   6.213   8.274
  183SOPE  H18R20962   1.465   6.106   8.304
  183SOPE  H18S20963   1.372   6.252   8.237
  183SOPE  H18T20964   1.499   6.277   8.361
  183SOPE   C3320965   1.623   5.875   7.147
  183SOPE   H3X20966   1.535   5.940   7.133
  183SOPE   H3Y20967   1.710   5.935   7.113
  183SOPE   C3420968   1.643   5.835   7.293
  183SOPE   H4X20969   1.735   5.774   7.285
  183SOPE   H4Y20970   1.558   5.776   7.334
  183SOPE   C3520971   1.656   5.951   7.388
  183SOPE   H5X20972   1.563   6.011   7.389
  183SOPE   H5Y20973   1.735   6.019   7.350
  183SOPE   C3620974   1.688   5.902   7.531
  183SOPE   H6X20975   1.794   5.872   7.515
  183SOPE   H6Y20976   1.629   5.810   7.555
  183SOPE   C3720977   1.680   6.007   7.640
  183SOPE   H7X20978   1.580   6.056   7.634
  183SOPE   H7Y20979   1.748   6.094   7.628
  183SOPE   C3820980   1.708   5.949   7.779
  183SOPE   H8X20981   1.626   5.877   7.796
  183SOPE   H8Y20982   1.698   6.036   7.848
  183SOPE   C3920983   1.845   5.878   7.796
  183SOPE   H9X20984   1.935   5.929   7.757
  183SOPE   H9Y20985   1.843   5.776   7.751
  183SOPE  C31020986   1.880   5.845   7.951
  183SOPE  H10X20987   1.856   5.930   8.018
  183SOPE  H10Y20988   1.991   5.835   7.955
  183SOPE  C31120989   1.812   5.732   8.016
  183SOPE  H11X20990   1.816   5.632   7.967
  183SOPE  H11Y20991   1.706   5.766   8.009
  183SOPE  C31220992   1.864   5.694   8.159
  183SOPE  H12X20993   1.965   5.651   8.143
  183SOPE  H12Y20994   1.803   5.607   8.191
  183SOPE  C31320995   1.844   5.799   8.263
  183SOPE  H13X20996   1.741   5.839   8.252
  183SOPE  H13Y20997   1.903   5.890   8.243
  183SOPE  C31420998   1.859   5.752   8.412
  183SOPE  H14X20999   1.967   5.746   8.440
  183SOPE  H14Y21000   1.815   5.651   8.419
  183SOPE  C31521001   1.799   5.845   8.517
  183SOPE  H15X21002   1.837   5.947   8.496
  183SOPE  H15Y21003   1.840   5.829   8.619
  183SOPE  C31621004   1.646   5.857   8.513
  183SOPE  H16X21005   1.586   5.778   8.562
  183SOPE  H16Y21006   1.617   5.873   8.407
  183SOPE  C31721007   1.596   5.986   8.588
  183SOPE  H17X21008   1.636   6.073   8.531
  183SOPE  H17Y21009   1.639   5.997   8.690
  183SOPE  C31821010   1.451   6.010   8.605
  183SOPE  H18X21011   1.402   5.960   8.519
  183SOPE  H18Y21012   1.417   6.115   8.600
  183SOPE  H18Z21013   1.417   5.974   8.705
  184SOPE     N21014   1.322   6.268   6.188
  184SOPE   HN121015   1.382   6.185   6.206
  184SOPE   HN221016   1.242   6.239   6.128
  184SOPE   HN321017   1.388   6.343   6.160
  184SOPE   C1221018   1.252   6.291   6.318
  184SOPE  H12A21019   1.233   6.401   6.322
  184SOPE  H12B21020   1.324   6.263   6.398
  184SOPE   C1121021   1.127   6.207   6.332
  184SOPE  H11A21022   1.080   6.223   6.431
  184SOPE  H11B21023   1.158   6.100   6.337
  184SOPE     P21024   0.965   6.144   6.141
  184SOPE   O1321025   1.056   6.086   6.039
  184SOPE   O1421026   0.845   6.220   6.097
  184SOPE   O1221027   1.044   6.246   6.226
  184SOPE   O1121028   0.928   6.032   6.245
  184SOPE    C121029   0.796   6.015   6.292
  184SOPE    HA21030   0.778   5.906   6.307
  184SOPE    HB21031   0.725   6.042   6.211
  184SOPE    C221032   0.765   6.077   6.423
  184SOPE    HS21033   0.798   6.183   6.415
  184SOPE   O2121034   0.830   5.999   6.524
  184SOPE   C2121035   0.904   6.060   6.606
  184SOPE   O2221036   0.912   6.184   6.625
  184SOPE   C2221037   1.009   5.963   6.661
  184SOPE   H2R21038   1.081   5.951   6.578
  184SOPE   H2S21039   0.959   5.868   6.692
  184SOPE    C321040   0.609   6.088   6.446
  184SOPE    HX21041   0.574   5.982   6.444
  184SOPE    HY21042   0.563   6.130   6.354
  184SOPE   O3121043   0.575   6.150   6.568
  184SOPE   C3121044   0.584   6.279   6.567
  184SOPE   O3221045   0.633   6.348   6.481
  184SOPE   C3221046   0.539   6.334   6.701
  184SOPE   H2X21047   0.429   6.328   6.712
  184SOPE   H2Y21048   0.579   6.436   6.718
  184SOPE   C2321049   1.087   6.018   6.783
  184SOPE   H3R21050   1.121   6.119   6.752
  184SOPE   H3S21051   1.168   5.947   6.808
  184SOPE   C2421052   1.009   6.054   6.908
  184SOPE   H4R21053   0.907   6.087   6.881
  184SOPE   H4S21054   0.983   5.958   6.958
  184SOPE   C2521055   1.092   6.142   7.002
  184SOPE   H5R21056   1.200   6.134   6.979
  184SOPE   H5S21057   1.065   6.250   6.993
  184SOPE   C2621058   1.080   6.095   7.148
  184SOPE   H6R21059   0.978   6.120   7.184
  184SOPE   H6S21060   1.084   5.984   7.140
  184SOPE   C2721061   1.188   6.147   7.241
  184SOPE   H7R21062   1.281   6.092   7.218
  184SOPE   H7S21063   1.200   6.257   7.227
  184SOPE   C2821064   1.165   6.119   7.387
  184SOPE   H8R21065   1.078   6.174   7.429
  184SOPE   H8S21066   1.155   6.009   7.398
  184SOPE   C2921067   1.292   6.168   7.468
  184SOPE   H9121068   1.381   6.162   7.405
  184SOPE  C21021069   1.296   6.205   7.597
  184SOPE  H10121070   1.399   6.224   7.632
  184SOPE  C21121071   1.170   6.200   7.688
  184SOPE  H11R21072   1.076   6.221   7.633
  184SOPE  H11S21073   1.179   6.273   7.771
  184SOPE  C21221074   1.150   6.064   7.755
  184SOPE  H12R21075   1.163   5.986   7.678
  184SOPE  H12S21076   1.043   6.058   7.784
  184SOPE  C21321077   1.246   6.043   7.868
  184SOPE  H13R21078   1.243   6.134   7.932
  184SOPE  H13S21079   1.348   6.042   7.824
  184SOPE  C21421080   1.219   5.916   7.946
  184SOPE  H14R21081   1.241   5.830   7.880
  184SOPE  H14S21082   1.112   5.921   7.973
  184SOPE  C21521083   1.315   5.903   8.066
  184SOPE  H15R21084   1.274   5.967   8.147
  184SOPE  H15S21085   1.416   5.942   8.041
  184SOPE  C21621086   1.316   5.751   8.117
  184SOPE  H16R21087   1.338   5.679   8.035
  184SOPE  H16S21088   1.214   5.742   8.159
  184SOPE  C21721089   1.399   5.734   8.253
  184SOPE  H17R21090   1.373   5.816   8.323
  184SOPE  H17S21091   1.505   5.752   8.222
  184SOPE  C21821092   1.376   5.602   8.324
  184SOPE  H18R21093   1.428   5.614   8.421
  184SOPE  H18S21094   1.404   5.518   8.257
  184SOPE  H18T21095   1.271   5.579   8.352
  184SOPE   C3321096   0.599   6.258   6.824
  184SOPE   H3X21097   0.692   6.209   6.791
  184SOPE   H3Y21098   0.532   6.172   6.845
  184SOPE   C3421099   0.626   6.345   6.944
  184SOPE   H4X21100   0.530   6.387   6.980
  184SOPE   H4Y21101   0.712   6.411   6.922
  184SOPE   C3521102   0.680   6.262   7.058
  184SOPE   H5X21103   0.772   6.204   7.035
  184SOPE   H5Y21104   0.603   6.185   7.083
  184SOPE   C3621105   0.704   6.349   7.185
  184SOPE   H6X21106   0.621   6.422   7.190
  184SOPE   H6Y21107   0.798   6.409   7.184
  184SOPE   C3721108   0.718   6.265   7.320
  184SOPE   H7X21109   0.806   6.201   7.299
  184SOPE   H7Y21110   0.632   6.197   7.335
  184SOPE   C3821111   0.740   6.358   7.445
  184SOPE   H8X21112   0.644   6.414   7.455
  184SOPE   H8Y21113   0.819   6.433   7.424
  184SOPE   C3921114   0.754   6.273   7.569
  184SOPE   H9X21115   0.838   6.204   7.546
  184SOPE   H9Y21116   0.666   6.212   7.598
  184SOPE  C31021117   0.805   6.351   7.697
  184SOPE  H10X21118   0.710   6.404   7.719
  184SOPE  H10Y21119   0.895   6.413   7.682
  184SOPE  C31121120   0.833   6.252   7.814
  184SOPE  H11X21121   0.923   6.193   7.790
  184SOPE  H11Y21122   0.757   6.172   7.830
  184SOPE  C31221123   0.863   6.334   7.938
  184SOPE  H12X21124   0.770   6.369   7.988
  184SOPE  H12Y21125   0.937   6.415   7.919
  184SOPE  C31321126   0.919   6.237   8.047
  184SOPE  H13X21127   1.006   6.203   7.986
  184SOPE  H13Y21128   0.864   6.143   8.069
  184SOPE  C31421129   0.983   6.304   8.171
  184SOPE  H14X21130   0.902   6.341   8.237
  184SOPE  H14Y21131   1.054   6.388   8.155
  184SOPE  C31521132   1.047   6.193   8.260
  184SOPE  H15X21133   1.157   6.187   8.246
  184SOPE  H15Y21134   1.010   6.089   8.247
  184SOPE  C31621135   1.027   6.217   8.411
  184SOPE  H16X21136   0.999   6.120   8.458
  184SOPE  H16Y21137   0.945   6.291   8.413
  184SOPE  C31721138   1.159   6.273   8.469
  184SOPE  H17X21139   1.171   6.378   8.436
  184SOPE  H17Y21140   1.247   6.215   8.433
  184SOPE  C31821141   1.165   6.262   8.623
  184SOPE  H18X21142   1.260   6.301   8.663
  184SOPE  H18Y21143   1.165   6.154   8.649
  184SOPE  H18Z21144   1.081   6.312   8.677
  185SAPI   C1221145   4.085   3.310  11.238
  185SAPI    H221146   4.093   3.389  11.159
  185SAPI    O221147   4.216   3.249  11.252
  185SAPI   HO221148   4.234   3.202  11.171
  185SAPI   C1321149   4.035   3.367  11.365
  185SAPI    H321150   3.935   3.412  11.349
  185SAPI    O321151   4.119   3.471  11.412
  185SAPI   HO321152   4.084   3.558  11.389
  185SAPI   C1421153   4.021   3.255  11.467
  185SAPI    H421154   4.120   3.244  11.515
  185SAPI    O421155   3.928   3.295  11.569
  185SAPI   HO421156   3.837   3.301  11.539
  185SAPI   C1521157   3.988   3.112  11.409
  185SAPI    H521158   3.878   3.118  11.426
  185SAPI    O521159   4.030   3.002  11.490
  185SAPI   HO521160   4.116   2.971  11.461
  185SAPI   C1621161   3.976   3.091  11.256
  185SAPI    H621162   4.075   3.045  11.236
  185SAPI    O621163   3.867   3.008  11.208
  185SAPI   HO621164   3.843   3.045  11.123
  185SAPI   C1121165   3.974   3.222  11.176
  185SAPI    H121166   3.874   3.270  11.188
  185SAPI     P21167   3.920   3.246  10.917
  185SAPI   O1321168   3.949   3.391  10.894
  185SAPI   O1421169   3.783   3.209  10.943
  185SAPI   O1221170   4.017   3.200  11.042
  185SAPI   O1121171   3.969   3.163  10.795
  185SAPI    C121172   3.938   3.026  10.769
  185SAPI    HA21173   4.028   2.967  10.795
  185SAPI    HB21174   3.853   2.986  10.828
  185SAPI    C221175   3.898   2.989  10.621
  185SAPI    HS21176   3.889   2.878  10.621
  185SAPI   O2121177   3.997   3.041  10.528
  185SAPI   C2121178   4.108   2.977  10.513
  185SAPI   O2221179   4.144   2.878  10.579
  185SAPI   C2221180   4.189   3.033  10.396
  185SAPI   H2R21181   4.137   3.119  10.350
  185SAPI   H2S21182   4.283   3.071  10.443
  185SAPI    C321183   3.766   3.049  10.590
  185SAPI    HX21184   3.784   3.159  10.594
  185SAPI    HY21185   3.692   3.013  10.664
  185SAPI   O3121186   3.727   3.007  10.457
  185SAPI   C3121187   3.611   3.067  10.416
  185SAPI   O3221188   3.558   3.163  10.472
  185SAPI   C3221189   3.552   2.995  10.292
  185SAPI   H2X21190   3.444   2.981  10.310
  185SAPI   H2Y21191   3.603   2.896  10.294
  185SAPI   C2321192   4.221   2.926  10.291
  185SAPI   H3R21193   4.148   2.842  10.284
  185SAPI   H3S21194   4.316   2.877  10.320
  185SAPI   C2421195   4.254   2.982  10.154
  185SAPI   H4R21196   4.315   2.906  10.101
  185SAPI   H4S21197   4.317   3.073  10.158
  185SAPI   C2521198   4.129   3.007  10.076
  185SAPI   H5R21199   4.037   3.018  10.135
  185SAPI   C2621200   4.120   3.034   9.941
  185SAPI   H6R21201   4.029   3.081   9.902
  185SAPI   C2721202   4.241   3.026   9.847
  185SAPI   H7R21203   4.335   3.006   9.902
  185SAPI   H7S21204   4.273   3.121   9.799
  185SAPI   C2821205   4.218   2.931   9.735
  185SAPI   H8R21206   4.255   2.830   9.760
  185SAPI   C2921207   4.175   2.936   9.606
  185SAPI   H9R21208   4.174   2.846   9.543
  185SAPI  C21021209   4.101   3.057   9.555
  185SAPI  H10R21210   4.164   3.133   9.504
  185SAPI  H10S21211   4.066   3.118   9.642
  185SAPI  C21121212   4.000   3.009   9.460
  185SAPI  H11R21213   3.911   2.961   9.504
  185SAPI  C21221214   4.016   2.997   9.326
  185SAPI  H12R21215   3.959   2.928   9.262
  185SAPI  C21321216   4.139   3.053   9.256
  185SAPI  H13R21217   4.189   3.137   9.308
  185SAPI  H13S21218   4.104   3.100   9.161
  185SAPI  C21421219   4.247   2.957   9.226
  185SAPI  H14R21220   4.260   2.882   9.306
  185SAPI  C21521221   4.338   2.951   9.129
  185SAPI  H15R21222   4.402   2.862   9.125
  185SAPI  C21621223   4.349   3.029   8.999
  185SAPI  H16R21224   4.447   3.080   8.984
  185SAPI  H16S21225   4.270   3.106   8.996
  185SAPI  C21721226   4.330   2.938   8.877
  185SAPI  H17R21227   4.339   3.008   8.791
  185SAPI  H17S21228   4.234   2.883   8.878
  185SAPI  C21821229   4.433   2.827   8.855
  185SAPI  H18R21230   4.382   2.763   8.781
  185SAPI  H18S21231   4.435   2.752   8.937
  185SAPI  C21921232   4.569   2.877   8.816
  185SAPI  H19R21233   4.622   2.910   8.908
  185SAPI  H19S21234   4.560   2.962   8.745
  185SAPI  C22021235   4.650   2.772   8.744
  185SAPI  H20R21236   4.751   2.816   8.727
  185SAPI  H20S21237   4.615   2.759   8.639
  185SAPI  H20T21238   4.653   2.672   8.792
  185SAPI   C3321239   3.571   3.075  10.163
  185SAPI   H3X21240   3.677   3.068  10.133
  185SAPI   H3Y21241   3.559   3.184  10.181
  185SAPI   C3421242   3.487   3.034  10.046
  185SAPI   H4X21243   3.379   3.054  10.065
  185SAPI   H4Y21244   3.494   2.925  10.027
  185SAPI   C3521245   3.531   3.099   9.917
  185SAPI   H5X21246   3.627   3.052   9.886
  185SAPI   H5Y21247   3.533   3.209   9.932
  185SAPI   C3621248   3.430   3.094   9.801
  185SAPI   H6X21249   3.331   3.137   9.829
  185SAPI   H6Y21250   3.420   2.984   9.788
  185SAPI   C3721251   3.481   3.153   9.668
  185SAPI   H7X21252   3.583   3.114   9.649
  185SAPI   H7Y21253   3.483   3.264   9.672
  185SAPI   C3821254   3.400   3.109   9.537
  185SAPI   H8X21255   3.396   2.998   9.544
  185SAPI   H8Y21256   3.449   3.122   9.438
  185SAPI   C3921257   3.257   3.161   9.515
  185SAPI   H9X21258   3.192   3.127   9.598
  185SAPI   H9Y21259   3.219   3.118   9.420
  185SAPI  C31021260   3.247   3.315   9.499
  185SAPI  H10X21261   3.330   3.342   9.430
  185SAPI  H10Y21262   3.274   3.368   9.593
  185SAPI  C31121263   3.116   3.371   9.444
  185SAPI  H11X21264   3.033   3.343   9.512
  185SAPI  H11Y21265   3.096   3.328   9.344
  185SAPI  C31221266   3.124   3.524   9.429
  185SAPI  H12X21267   3.202   3.547   9.353
  185SAPI  H12Y21268   3.159   3.570   9.523
  185SAPI  C31321269   2.989   3.590   9.394
  185SAPI  H13X21270   2.919   3.561   9.475
  185SAPI  H13Y21271   2.947   3.553   9.297
  185SAPI  C31421272   2.993   3.741   9.396
  185SAPI  H14X21273   3.031   3.769   9.497
  185SAPI  H14Y21274   2.892   3.786   9.382
  185SAPI  C31521275   3.083   3.782   9.289
  185SAPI  H15X21276   3.043   3.733   9.198
  185SAPI  H15Y21277   3.184   3.743   9.314
  185SAPI  C31621278   3.062   3.930   9.258
  185SAPI  H16X21279   3.079   3.996   9.346
  185SAPI  H16Y21280   2.957   3.927   9.224
  185SAPI  C31721281   3.145   3.979   9.142
  185SAPI  H17X21282   3.103   4.074   9.103
  185SAPI  H17Y21283   3.147   3.894   9.071
  185SAPI  C31821284   3.289   4.006   9.180
  185SAPI  H18X21285   3.331   3.913   9.226
  185SAPI  H18Y21286   3.294   4.092   9.250
  185SAPI  H18Z21287   3.343   4.021   9.084
  186SAPI   C1221288   4.181   1.010  10.498
  186SAPI    H221289   4.274   1.031  10.442
  186SAPI    O221290   4.126   1.135  10.548
  186SAPI   HO221291   4.201   1.180  10.588
  186SAPI   C1321292   4.088   0.950  10.398
  186SAPI    H321293   4.145   0.862  10.361
  186SAPI    O321294   4.067   1.036  10.289
  186SAPI   HO321295   4.038   1.119  10.329
  186SAPI   C1421296   3.952   0.909  10.456
  186SAPI    H421297   3.906   1.002  10.495
  186SAPI    O421298   3.864   0.851  10.359
  186SAPI   HO421299   3.847   0.917  10.292
  186SAPI   C1521300   3.958   0.826  10.585
  186SAPI    H521301   3.961   0.718  10.558
  186SAPI    O521302   3.840   0.844  10.663
  186SAPI   HO521303   3.814   0.936  10.658
  186SAPI   C1621304   4.084   0.845  10.665
  186SAPI    H621305   4.051   0.906  10.752
  186SAPI    O621306   4.126   0.725  10.729
  186SAPI   HO621307   4.146   0.660  10.661
  186SAPI   C1121308   4.207   0.922  10.610
  186SAPI    H121309   4.263   0.837  10.566
  186SAPI     P21310   4.440   1.010  10.725
  186SAPI   O1321311   4.523   0.891  10.712
  186SAPI   O1421312   4.464   1.109  10.836
  186SAPI   O1221313   4.278   0.976  10.724
  186SAPI   O1121314   4.459   1.090  10.592
  186SAPI    C121315   4.582   1.111  10.521
  186SAPI    HA21316   4.609   1.219  10.524
  186SAPI    HB21317   4.671   1.064  10.568
  186SAPI    C221318   4.577   1.076  10.369
  186SAPI    HS21319   4.676   1.092  10.321
  186SAPI   O2121320   4.465   1.142  10.302
  186SAPI   C2121321   4.478   1.274  10.289
  186SAPI   O2221322   4.574   1.342  10.325
  186SAPI   C2221323   4.349   1.333  10.218
  186SAPI   H2R21324   4.265   1.348  10.288
  186SAPI   H2S21325   4.373   1.436  10.186
  186SAPI    C321326   4.561   0.924  10.345
  186SAPI    HX21327   4.461   0.904  10.390
  186SAPI    HY21328   4.623   0.870  10.419
  186SAPI   O3121329   4.586   0.877  10.213
  186SAPI   C3121330   4.705   0.842  10.181
  186SAPI   O3221331   4.806   0.840  10.252
  186SAPI   C3221332   4.708   0.801  10.033
  186SAPI   H2X21333   4.665   0.889   9.979
  186SAPI   H2Y21334   4.642   0.713  10.019
  186SAPI   C2321335   4.288   1.250  10.104
  186SAPI   H3R21336   4.194   1.299  10.070
  186SAPI   H3S21337   4.273   1.150  10.150
  186SAPI   C2421338   4.373   1.213   9.984
  186SAPI   H4R21339   4.315   1.152   9.911
  186SAPI   H4S21340   4.461   1.153  10.015
  186SAPI   C2521341   4.435   1.328   9.915
  186SAPI   H5R21342   4.495   1.391   9.982
  186SAPI   C2621343   4.445   1.352   9.783
  186SAPI   H6R21344   4.479   1.450   9.748
  186SAPI   C2721345   4.375   1.263   9.678
  186SAPI   H7R21346   4.363   1.159   9.714
  186SAPI   H7S21347   4.443   1.255   9.590
  186SAPI   C2821348   4.234   1.302   9.644
  186SAPI   H8R21349   4.160   1.296   9.726
  186SAPI   C2921350   4.190   1.335   9.518
  186SAPI   H9R21351   4.083   1.358   9.512
  186SAPI  C21021352   4.280   1.337   9.392
  186SAPI  H10R21353   4.359   1.260   9.406
  186SAPI  H10S21354   4.334   1.433   9.412
  186SAPI  C21121355   4.219   1.339   9.257
  186SAPI  H11R21356   4.117   1.298   9.253
  186SAPI  C21221357   4.275   1.384   9.146
  186SAPI  H12R21358   4.210   1.375   9.058
  186SAPI  C21321359   4.423   1.421   9.132
  186SAPI  H13R21360   4.460   1.455   9.231
  186SAPI  H13S21361   4.430   1.515   9.073
  186SAPI  C21421362   4.521   1.314   9.071
  186SAPI  H14R21363   4.606   1.283   9.134
  186SAPI  C21521364   4.509   1.268   8.952
  186SAPI  H15R21365   4.560   1.174   8.926
  186SAPI  C21621366   4.413   1.314   8.845
  186SAPI  H16R21367   4.377   1.419   8.849
  186SAPI  H16S21368   4.317   1.258   8.852
  186SAPI  C21721369   4.468   1.298   8.705
  186SAPI  H17R21370   4.492   1.192   8.686
  186SAPI  H17S21371   4.557   1.363   8.698
  186SAPI  C21821372   4.388   1.373   8.605
  186SAPI  H18R21373   4.378   1.479   8.635
  186SAPI  H18S21374   4.285   1.332   8.599
  186SAPI  C21921375   4.445   1.362   8.456
  186SAPI  H19R21376   4.542   1.415   8.453
  186SAPI  H19S21377   4.375   1.413   8.386
  186SAPI  C22021378   4.451   1.216   8.394
  186SAPI  H20R21379   4.365   1.148   8.411
  186SAPI  H20S21380   4.523   1.155   8.454
  186SAPI  H20T21381   4.487   1.211   8.289
  186SAPI   C3321382   4.852   0.764   9.989
  186SAPI   H3X21383   4.887   0.671  10.037
  186SAPI   H3Y21384   4.927   0.840  10.020
  186SAPI   C3421385   4.864   0.754   9.837
  186SAPI   H4X21386   4.851   0.858   9.801
  186SAPI   H4Y21387   4.792   0.684   9.790
  186SAPI   C3521388   5.011   0.720   9.793
  186SAPI   H5X21389   5.037   0.618   9.828
  186SAPI   H5Y21390   5.080   0.787   9.848
  186SAPI   C3621391   5.050   0.733   9.647
  186SAPI   H6X21392   5.158   0.714   9.629
  186SAPI   H6Y21393   5.034   0.842   9.631
  186SAPI   C3721394   4.960   0.647   9.560
  186SAPI   H7X21395   4.853   0.670   9.579
  186SAPI   H7Y21396   4.970   0.546   9.606
  186SAPI   C3821397   5.005   0.630   9.414
  186SAPI   H8X21398   4.933   0.560   9.367
  186SAPI   H8Y21399   5.104   0.580   9.408
  186SAPI   C3921400   5.007   0.763   9.323
  186SAPI   H9X21401   5.099   0.821   9.345
  186SAPI   H9Y21402   4.923   0.833   9.339
  186SAPI  C31021403   4.994   0.721   9.179
  186SAPI  H10X21404   4.900   0.670   9.150
  186SAPI  H10Y21405   5.069   0.639   9.171
  186SAPI  C31121406   5.041   0.819   9.062
  186SAPI  H11X21407   5.138   0.858   9.098
  186SAPI  H11Y21408   4.971   0.905   9.048
  186SAPI  C31221409   5.066   0.750   8.926
  186SAPI  H12X21410   5.130   0.820   8.869
  186SAPI  H12Y21411   4.968   0.729   8.879
  186SAPI  C31321412   5.137   0.611   8.923
  186SAPI  H13X21413   5.061   0.547   8.972
  186SAPI  H13Y21414   5.235   0.601   8.975
  186SAPI  C31421415   5.161   0.559   8.774
  186SAPI  H14X21416   5.230   0.634   8.730
  186SAPI  H14Y21417   5.073   0.568   8.708
  186SAPI  C31521418   5.220   0.419   8.758
  186SAPI  H15X21419   5.295   0.391   8.835
  186SAPI  H15Y21420   5.273   0.417   8.660
  186SAPI  C31621421   5.114   0.311   8.758
  186SAPI  H16X21422   5.019   0.353   8.721
  186SAPI  H16Y21423   5.087   0.272   8.858
  186SAPI  C31721424   5.152   0.189   8.669
  186SAPI  H17X21425   5.253   0.153   8.698
  186SAPI  H17Y21426   5.154   0.239   8.570
  186SAPI  C31821427   5.053   0.072   8.677
  186SAPI  H18X21428   5.086  -0.011   8.610
  186SAPI  H18Y21429   4.952   0.093   8.638
  186SAPI  H18Z21430   5.052   0.030   8.780
  187SAPI   C1221431   1.456   2.544   6.163
  187SAPI    H221432   1.352   2.581   6.150
  187SAPI    O221433   1.464   2.432   6.072
  187SAPI   HO221434   1.495   2.358   6.125
  187SAPI   C1321435   1.549   2.663   6.135
  187SAPI    H321436   1.539   2.742   6.212
  187SAPI    O321437   1.516   2.732   6.014
  187SAPI   HO321438   1.510   2.664   5.946
  187SAPI   C1421439   1.689   2.614   6.136
  187SAPI    H421440   1.688   2.542   6.052
  187SAPI    O421441   1.787   2.713   6.106
  187SAPI   HO421442   1.873   2.693   6.144
  187SAPI   C1521443   1.730   2.529   6.258
  187SAPI    H521444   1.773   2.599   6.333
  187SAPI    O521445   1.839   2.440   6.232
  187SAPI   HO521446   1.865   2.406   6.318
  187SAPI   C1621447   1.617   2.440   6.322
  187SAPI    H621448   1.620   2.342   6.270
  187SAPI    O621449   1.642   2.413   6.459
  187SAPI   HO621450   1.657   2.492   6.512
  187SAPI   C1121451   1.477   2.506   6.302
  187SAPI    H121452   1.486   2.596   6.368
  187SAPI     P21453   1.233   2.479   6.412
  187SAPI   O1321454   1.135   2.374   6.395
  187SAPI   O1421455   1.206   2.607   6.345
  187SAPI   O1221456   1.374   2.419   6.354
  187SAPI   O1121457   1.261   2.510   6.560
  187SAPI    C121458   1.274   2.644   6.618
  187SAPI    HA21459   1.379   2.676   6.601
  187SAPI    HB21460   1.214   2.718   6.562
  187SAPI    C221461   1.248   2.642   6.776
  187SAPI    HS21462   1.257   2.742   6.823
  187SAPI   O2121463   1.344   2.552   6.836
  187SAPI   C2121464   1.460   2.592   6.861
  187SAPI   O2221465   1.502   2.703   6.822
  187SAPI   C2221466   1.541   2.492   6.943
  187SAPI   H2R21467   1.509   2.392   6.906
  187SAPI   H2S21468   1.650   2.509   6.935
  187SAPI    C321469   1.106   2.587   6.806
  187SAPI    HX21470   1.104   2.489   6.754
  187SAPI    HY21471   1.039   2.654   6.748
  187SAPI   O3121472   1.082   2.587   6.947
  187SAPI   C3121473   1.106   2.471   7.010
  187SAPI   O3221474   1.128   2.364   6.954
  187SAPI   C3221475   1.081   2.488   7.158
  187SAPI   H2X21476   1.000   2.559   7.185
  187SAPI   H2Y21477   1.181   2.529   7.186
  187SAPI   C2321478   1.504   2.485   7.101
  187SAPI   H3R21479   1.585   2.420   7.141
  187SAPI   H3S21480   1.402   2.443   7.113
  187SAPI   C2421481   1.513   2.615   7.172
  187SAPI   H4R21482   1.463   2.599   7.270
  187SAPI   H4S21483   1.451   2.692   7.122
  187SAPI   C2521484   1.653   2.669   7.187
  187SAPI   H5R21485   1.696   2.717   7.097
  187SAPI   C2621486   1.712   2.682   7.308
  187SAPI   H6R21487   1.808   2.736   7.304
  187SAPI   C2721488   1.662   2.640   7.445
  187SAPI   H7R21489   1.561   2.682   7.461
  187SAPI   H7S21490   1.716   2.708   7.515
  187SAPI   C2821491   1.661   2.493   7.476
  187SAPI   H8R21492   1.716   2.436   7.400
  187SAPI   C2921493   1.609   2.437   7.585
  187SAPI   H9R21494   1.613   2.330   7.610
  187SAPI  C21021495   1.533   2.506   7.695
  187SAPI  H10R21496   1.562   2.612   7.710
  187SAPI  H10S21497   1.582   2.466   7.786
  187SAPI  C21121498   1.383   2.503   7.675
  187SAPI  H11R21499   1.354   2.556   7.583
  187SAPI  C21221500   1.297   2.434   7.748
  187SAPI  H12R21501   1.190   2.443   7.721
  187SAPI  C21321502   1.333   2.366   7.881
  187SAPI  H13R21503   1.434   2.320   7.886
  187SAPI  H13S21504   1.271   2.274   7.885
  187SAPI  C21421505   1.324   2.455   8.001
  187SAPI  H14R21506   1.358   2.559   7.989
  187SAPI  C21521507   1.260   2.435   8.119
  187SAPI  H15R21508   1.245   2.516   8.192
  187SAPI  C21621509   1.189   2.312   8.170
  187SAPI  H16R21510   1.216   2.284   8.274
  187SAPI  H16S21511   1.228   2.233   8.101
  187SAPI  C21721512   1.039   2.321   8.178
  187SAPI  H17R21513   0.986   2.340   8.082
  187SAPI  H17S21514   1.013   2.411   8.238
  187SAPI  C21821515   0.984   2.202   8.253
  187SAPI  H18R21516   1.043   2.181   8.344
  187SAPI  H18S21517   0.979   2.111   8.190
  187SAPI  C21921518   0.845   2.217   8.306
  187SAPI  H19R21519   0.804   2.117   8.334
  187SAPI  H19S21520   0.780   2.253   8.223
  187SAPI  C22021521   0.830   2.323   8.415
  187SAPI  H20R21522   0.729   2.322   8.463
  187SAPI  H20S21523   0.853   2.427   8.384
  187SAPI  H20T21524   0.889   2.294   8.505
  187SAPI   C3321525   1.056   2.354   7.229
  187SAPI   H3X21526   0.986   2.286   7.175
  187SAPI   H3Y21527   1.013   2.378   7.329
  187SAPI   C3421528   1.183   2.266   7.246
  187SAPI   H4X21529   1.259   2.326   7.300
  187SAPI   H4Y21530   1.234   2.245   7.150
  187SAPI   C3521531   1.159   2.135   7.327
  187SAPI   H5X21532   1.259   2.087   7.330
  187SAPI   H5Y21533   1.087   2.067   7.276
  187SAPI   C3621534   1.113   2.149   7.476
  187SAPI   H6X21535   1.013   2.197   7.483
  187SAPI   H6Y21536   1.184   2.221   7.522
  187SAPI   C3721537   1.115   2.018   7.551
  187SAPI   H7X21538   1.216   1.970   7.558
  187SAPI   H7Y21539   1.056   1.952   7.484
  187SAPI   C3821540   1.062   2.037   7.699
  187SAPI   H8X21541   0.955   2.064   7.691
  187SAPI   H8Y21542   1.124   2.109   7.757
  187SAPI   C3921543   1.065   1.901   7.770
  187SAPI   H9X21544   1.170   1.874   7.794
  187SAPI   H9Y21545   1.021   1.828   7.699
  187SAPI  C31021546   0.983   1.907   7.904
  187SAPI  H10X21547   0.879   1.942   7.885
  187SAPI  H10Y21548   1.029   1.985   7.969
  187SAPI  C31121549   0.981   1.775   7.979
  187SAPI  H11X21550   1.082   1.734   8.002
  187SAPI  H11Y21551   0.925   1.701   7.917
  187SAPI  C31221552   0.899   1.795   8.109
  187SAPI  H12X21553   0.793   1.804   8.077
  187SAPI  H12Y21554   0.929   1.892   8.155
  187SAPI  C31321555   0.931   1.691   8.219
  187SAPI  H13X21556   0.905   1.733   8.319
  187SAPI  H13Y21557   1.042   1.685   8.217
  187SAPI  C31421558   0.874   1.555   8.195
  187SAPI  H14X21559   0.954   1.478   8.205
  187SAPI  H14Y21560   0.837   1.544   8.091
  187SAPI  C31521561   0.766   1.530   8.301
  187SAPI  H15X21562   0.683   1.600   8.283
  187SAPI  H15Y21563   0.801   1.553   8.404
  187SAPI  C31621564   0.708   1.385   8.307
  187SAPI  H16X21565   0.797   1.319   8.314
  187SAPI  H16Y21566   0.647   1.356   8.220
  187SAPI  C31721567   0.620   1.353   8.430
  187SAPI  H17X21568   0.534   1.423   8.426
  187SAPI  H17Y21569   0.678   1.370   8.522
  187SAPI  C31821570   0.568   1.210   8.417
  187SAPI  H18X21571   0.520   1.177   8.512
  187SAPI  H18Y21572   0.643   1.133   8.390
  187SAPI  H18Z21573   0.489   1.213   8.338
  188SAPI   C1221574   2.666   5.992   6.526
  188SAPI    H221575   2.640   5.925   6.611
  188SAPI    O221576   2.549   6.033   6.461
  188SAPI   HO221577   2.524   5.958   6.406
  188SAPI   C1321578   2.753   6.109   6.579
  188SAPI    H321579   2.843   6.067   6.628
  188SAPI    O321580   2.686   6.181   6.683
  188SAPI   HO321581   2.648   6.252   6.631
  188SAPI   C1421582   2.797   6.196   6.464
  188SAPI    H421583   2.709   6.227   6.404
  188SAPI    O421584   2.855   6.321   6.499
  188SAPI   HO421585   2.812   6.398   6.460
  188SAPI   C1521586   2.878   6.117   6.362
  188SAPI    H521587   2.974   6.087   6.410
  188SAPI    O521588   2.915   6.185   6.240
  188SAPI   HO521589   2.878   6.273   6.231
  188SAPI   C1621590   2.816   5.983   6.321
  188SAPI    H621591   2.738   5.993   6.241
  188SAPI    O621592   2.910   5.896   6.257
  188SAPI   HO621593   2.940   5.836   6.326
  188SAPI   C1121594   2.754   5.903   6.434
  188SAPI    H121595   2.833   5.878   6.507
  188SAPI     P21596   2.714   5.637   6.428
  188SAPI   O1321597   2.858   5.610   6.400
  188SAPI   O1421598   2.619   5.550   6.360
  188SAPI   O1221599   2.682   5.793   6.389
  188SAPI   O1121600   2.691   5.626   6.584
  188SAPI    C121601   2.558   5.637   6.643
  188SAPI    HA21602   2.538   5.733   6.695
  188SAPI    HB21603   2.480   5.635   6.563
  188SAPI    C221604   2.546   5.517   6.746
  188SAPI    HS21605   2.440   5.517   6.779
  188SAPI   O2121606   2.639   5.545   6.853
  188SAPI   C2121607   2.593   5.633   6.945
  188SAPI   O2221608   2.479   5.674   6.954
  188SAPI   C2221609   2.708   5.668   7.038
  188SAPI   H2R21610   2.741   5.576   7.092
  188SAPI   H2S21611   2.788   5.717   6.979
  188SAPI    C321612   2.567   5.381   6.678
  188SAPI    HX21613   2.665   5.367   6.627
  188SAPI    HY21614   2.488   5.373   6.601
  188SAPI   O3121615   2.548   5.275   6.778
  188SAPI   C3121616   2.661   5.220   6.823
  188SAPI   O3221617   2.776   5.246   6.785
  188SAPI   C3221618   2.631   5.128   6.942
  188SAPI   H2X21619   2.655   5.028   6.900
  188SAPI   H2Y21620   2.524   5.152   6.962
  188SAPI   C2321621   2.665   5.767   7.154
  188SAPI   H3R21622   2.617   5.846   7.093
  188SAPI   H3S21623   2.762   5.798   7.198
  188SAPI   C2421624   2.574   5.712   7.262
  188SAPI   H4R21625   2.624   5.620   7.301
  188SAPI   H4S21626   2.480   5.669   7.220
  188SAPI   C2521627   2.549   5.819   7.374
  188SAPI   H5R21628   2.458   5.880   7.366
  188SAPI   C2621629   2.616   5.828   7.490
  188SAPI   H6R21630   2.578   5.896   7.567
  188SAPI   C2721631   2.726   5.744   7.542
  188SAPI   H7R21632   2.749   5.666   7.467
  188SAPI   H7S21633   2.693   5.698   7.638
  188SAPI   C2821634   2.843   5.842   7.568
  188SAPI   H8R21635   2.851   5.922   7.493
  188SAPI   C2921636   2.932   5.829   7.670
  188SAPI   H9R21637   3.006   5.906   7.694
  188SAPI  C21021638   2.903   5.743   7.787
  188SAPI  H10R21639   2.995   5.696   7.828
  188SAPI  H10S21640   2.842   5.658   7.749
  188SAPI  C21121641   2.823   5.817   7.894
  188SAPI  H11R21642   2.788   5.917   7.865
  188SAPI  C21221643   2.774   5.764   8.008
  188SAPI  H12R21644   2.723   5.829   8.081
  188SAPI  C21321645   2.792   5.616   8.050
  188SAPI  H13R21646   2.855   5.560   7.978
  188SAPI  H13S21647   2.703   5.550   8.062
  188SAPI  C21421648   2.857   5.606   8.189
  188SAPI  H14R21649   2.786   5.623   8.271
  188SAPI  C21521650   2.979   5.566   8.224
  188SAPI  H15R21651   3.013   5.569   8.328
  188SAPI  C21621652   3.091   5.554   8.127
  188SAPI  H16R21653   3.055   5.565   8.022
  188SAPI  H16S21654   3.127   5.449   8.129
  188SAPI  C21721655   3.202   5.658   8.155
  188SAPI  H17R21656   3.153   5.757   8.139
  188SAPI  H17S21657   3.278   5.655   8.074
  188SAPI  C21821658   3.263   5.652   8.293
  188SAPI  H18R21659   3.237   5.553   8.337
  188SAPI  H18S21660   3.210   5.720   8.362
  188SAPI  C21921661   3.419   5.674   8.297
  188SAPI  H19R21662   3.451   5.765   8.241
  188SAPI  H19S21663   3.470   5.584   8.257
  188SAPI  C22021664   3.481   5.689   8.435
  188SAPI  H20R21665   3.471   5.596   8.494
  188SAPI  H20S21666   3.454   5.778   8.495
  188SAPI  H20T21667   3.591   5.705   8.428
  188SAPI   C3321668   2.704   5.185   7.060
  188SAPI   H3X21669   2.671   5.287   7.090
  188SAPI   H3Y21670   2.813   5.200   7.045
  188SAPI   C3421671   2.689   5.099   7.182
  188SAPI   H4X21672   2.709   4.995   7.149
  188SAPI   H4Y21673   2.580   5.096   7.206
  188SAPI   C3521674   2.761   5.144   7.305
  188SAPI   H5X21675   2.757   5.255   7.316
  188SAPI   H5Y21676   2.869   5.118   7.309
  188SAPI   C3621677   2.690   5.090   7.426
  188SAPI   H6X21678   2.676   4.980   7.425
  188SAPI   H6Y21679   2.592   5.141   7.433
  188SAPI   C3721680   2.773   5.125   7.551
  188SAPI   H7X21681   2.773   5.235   7.568
  188SAPI   H7Y21682   2.879   5.090   7.549
  188SAPI   C3821683   2.698   5.073   7.675
  188SAPI   H8X21684   2.714   4.963   7.672
  188SAPI   H8Y21685   2.591   5.103   7.678
  188SAPI   C3921686   2.760   5.138   7.797
  188SAPI   H9X21687   2.758   5.249   7.797
  188SAPI   H9Y21688   2.866   5.105   7.801
  188SAPI  C31021689   2.684   5.089   7.917
  188SAPI  H10X21690   2.671   4.979   7.904
  188SAPI  H10Y21691   2.587   5.142   7.912
  188SAPI  C31121692   2.751   5.119   8.060
  188SAPI  H11X21693   2.752   5.230   8.064
  188SAPI  H11Y21694   2.853   5.078   8.077
  188SAPI  C31221695   2.659   5.073   8.184
  188SAPI  H12X21696   2.664   4.962   8.190
  188SAPI  H12Y21697   2.555   5.093   8.149
  188SAPI  C31321698   2.682   5.136   8.324
  188SAPI  H13X21699   2.787   5.165   8.350
  188SAPI  H13Y21700   2.646   5.080   8.413
  188SAPI  C31421701   2.613   5.272   8.348
  188SAPI  H14X21702   2.510   5.264   8.307
  188SAPI  H14Y21703   2.671   5.350   8.294
  188SAPI  C31521704   2.595   5.307   8.494
  188SAPI  H15X21705   2.571   5.221   8.560
  188SAPI  H15Y21706   2.507   5.373   8.505
  188SAPI  C31621707   2.726   5.369   8.543
  188SAPI  H16X21708   2.769   5.436   8.466
  188SAPI  H16Y21709   2.804   5.292   8.560
  188SAPI  C31721710   2.705   5.437   8.683
  188SAPI  H17X21711   2.611   5.496   8.672
  188SAPI  H17Y21712   2.797   5.498   8.695
  188SAPI  C31821713   2.668   5.343   8.800
  188SAPI  H18X21714   2.679   5.385   8.902
  188SAPI  H18Y21715   2.738   5.260   8.777
  188SAPI  H18Z21716   2.567   5.302   8.780
  189POPC     N21717   3.009   6.722  11.019
  189POPC   C1221718   2.957   6.746  11.159
  189POPC  H12A21719   2.999   6.841  11.187
  189POPC  H12B21720   2.996   6.667  11.220
  189POPC   C1321721   2.934   6.613  10.943
  189POPC  H13A21722   2.831   6.642  10.928
  189POPC  H13B21723   2.981   6.606  10.846
  189POPC  H13C21724   2.943   6.515  10.989
  189POPC   C1421725   3.001   6.851  10.938
  189POPC  H14A21726   3.015   6.833  10.832
  189POPC  H14B21727   2.907   6.902  10.951
  189POPC  H14C21728   3.075   6.920  10.976
  189POPC   C1521729   3.156   6.690  11.035
  189POPC  H15A21730   3.181   6.591  11.070
  189POPC  H15B21731   3.200   6.760  11.104
  189POPC  H15C21732   3.206   6.702  10.940
  189POPC   C1121733   2.802   6.760  11.178
  189POPC  H11A21734   2.790   6.763  11.289
  189POPC  H11B21735   2.748   6.671  11.138
  189POPC     P21736   2.640   6.874  11.012
  189POPC   O1321737   2.618   7.002  10.944
  189POPC   O1421738   2.525   6.810  11.080
  189POPC   O1221739   2.751   6.879  11.121
  189POPC   O1121740   2.693   6.776  10.903
  189POPC    C121741   2.606   6.707  10.808
  189POPC    HA21742   2.500   6.711  10.841
  189POPC    HB21743   2.634   6.600  10.820
  189POPC    C221744   2.637   6.771  10.670
  189POPC    HS21745   2.611   6.879  10.671
  189POPC   O2121746   2.546   6.701  10.575
  189POPC   C2121747   2.500   6.770  10.478
  189POPC   O2221748   2.527   6.887  10.457
  189POPC   C2221749   2.404   6.683  10.404
  189POPC   H2R21750   2.311   6.685  10.464
  189POPC   H2S21751   2.449   6.582  10.413
  189POPC    C321752   2.784   6.751  10.635
  189POPC    HX21753   2.807   6.644  10.652
  189POPC    HY21754   2.851   6.808  10.703
  189POPC   O3121755   2.819   6.765  10.493
  189POPC   C3121756   2.879   6.880  10.458
  189POPC   O3221757   2.883   6.973  10.534
  189POPC   C3221758   2.920   6.887  10.311
  189POPC   H2X21759   3.030   6.872  10.316
  189POPC   H2Y21760   2.899   6.990  10.276
  189POPC   C2321761   2.378   6.719  10.258
  189POPC   H3R21762   2.432   6.809  10.222
  189POPC   H3S21763   2.271   6.748  10.253
  189POPC   C2421764   2.400   6.606  10.160
  189POPC   H4R21765   2.364   6.512  10.208
  189POPC   H4S21766   2.509   6.582  10.158
  189POPC   C2521767   2.354   6.616  10.012
  189POPC   H5R21768   2.403   6.702   9.962
  189POPC   H5S21769   2.247   6.647  10.008
  189POPC   C2621770   2.388   6.484   9.937
  189POPC   H6R21771   2.335   6.394   9.975
  189POPC   H6S21772   2.496   6.472   9.962
  189POPC   C2721773   2.361   6.488   9.780
  189POPC   H7R21774   2.398   6.591   9.758
  189POPC   H7S21775   2.255   6.482   9.749
  189POPC   C2821776   2.443   6.377   9.704
  189POPC   H8R21777   2.540   6.376   9.757
  189POPC   H8S21778   2.444   6.413   9.599
  189POPC   C2921779   2.377   6.239   9.713
  189POPC   H9121780   2.356   6.216   9.818
  189POPC  C21021781   2.317   6.178   9.609
  189POPC  H10121782   2.265   6.082   9.624
  189POPC  C21121783   2.331   6.205   9.459
  189POPC  H11R21784   2.319   6.313   9.437
  189POPC  H11S21785   2.239   6.167   9.409
  189POPC  C21221786   2.458   6.144   9.407
  189POPC  H12R21787   2.454   6.035   9.428
  189POPC  H12S21788   2.547   6.193   9.451
  189POPC  C21321789   2.476   6.150   9.257
  189POPC  H13R21790   2.584   6.133   9.237
  189POPC  H13S21791   2.450   6.254   9.227
  189POPC  C21421792   2.390   6.038   9.182
  189POPC  H14R21793   2.285   6.062   9.211
  189POPC  H14S21794   2.426   5.940   9.219
  189POPC  C21521795   2.418   6.030   9.030
  189POPC  H15R21796   2.408   6.130   8.983
  189POPC  H15S21797   2.339   5.970   8.982
  189POPC  C21621798   2.546   5.967   8.983
  189POPC  H16R21799   2.635   6.020   9.023
  189POPC  H16S21800   2.552   5.974   8.872
  189POPC  C21721801   2.565   5.820   9.015
  189POPC  H17R21802   2.534   5.805   9.121
  189POPC  H17S21803   2.670   5.785   9.006
  189POPC  C21821804   2.481   5.743   8.917
  189POPC  H18R21805   2.494   5.779   8.813
  189POPC  H18S21806   2.375   5.739   8.951
  189POPC  H18T21807   2.513   5.637   8.900
  189POPC   C3321808   2.839   6.788  10.227
  189POPC   H3X21809   2.731   6.804  10.244
  189POPC   H3Y21810   2.865   6.689  10.271
  189POPC   C3421811   2.872   6.797  10.080
  189POPC   H4X21812   2.979   6.771  10.066
  189POPC   H4Y21813   2.867   6.905  10.054
  189POPC   C3521814   2.799   6.702   9.984
  189POPC   H5X21815   2.701   6.747   9.956
  189POPC   H5Y21816   2.792   6.600  10.026
  189POPC   C3621817   2.883   6.676   9.854
  189POPC   H6X21818   2.983   6.638   9.881
  189POPC   H6Y21819   2.895   6.771   9.796
  189POPC   C3721820   2.801   6.576   9.761
  189POPC   H7X21821   2.718   6.626   9.707
  189POPC   H7Y21822   2.756   6.487   9.811
  189POPC   C3821823   2.889   6.529   9.645
  189POPC   H8X21824   2.968   6.464   9.688
  189POPC   H8Y21825   2.935   6.615   9.591
  189POPC   C3921826   2.810   6.454   9.530
  189POPC   H9X21827   2.701   6.466   9.518
  189POPC   H9Y21828   2.810   6.345   9.551
  189POPC  C31021829   2.882   6.471   9.388
  189POPC  H10X21830   2.990   6.448   9.394
  189POPC  H10Y21831   2.883   6.578   9.358
  189POPC  C31121832   2.828   6.390   9.262
  189POPC  H11X21833   2.717   6.403   9.258
  189POPC  H11Y21834   2.849   6.281   9.264
  189POPC  C31221835   2.887   6.449   9.128
  189POPC  H12X21836   2.995   6.422   9.133
  189POPC  H12Y21837   2.878   6.559   9.127
  189POPC  C31321838   2.827   6.381   9.000
  189POPC  H13X21839   2.718   6.360   9.007
  189POPC  H13Y21840   2.873   6.280   8.994
  189POPC  C31421841   2.861   6.454   8.864
  189POPC  H14X21842   2.969   6.482   8.864
  189POPC  H14Y21843   2.818   6.556   8.861
  189POPC  C31521844   2.819   6.369   8.744
  189POPC  H15X21845   2.812   6.425   8.647
  189POPC  H15Y21846   2.715   6.334   8.759
  189POPC  C31621847   2.904   6.248   8.711
  189POPC  H16X21848   3.008   6.279   8.690
  189POPC  H16Y21849   2.873   6.207   8.612
  189POPC  H16Z21850   2.909   6.161   8.780
  190POPC     N21851   4.555   3.455  11.316
  190POPC   C1221852   4.571   3.425  11.166
  190POPC  H12A21853   4.600   3.509  11.104
  190POPC  H12B21854   4.473   3.411  11.124
  190POPC   C1321855   4.539   3.323  11.395
  190POPC  H13A21856   4.619   3.255  11.369
  190POPC  H13B21857   4.536   3.351  11.499
  190POPC  H13C21858   4.452   3.266  11.366
  190POPC   C1421859   4.661   3.547  11.363
  190POPC  H14A21860   4.650   3.646  11.321
  190POPC  H14B21861   4.660   3.555  11.471
  190POPC  H14C21862   4.751   3.495  11.333
  190POPC   C1521863   4.417   3.523  11.339
  190POPC  H15A21864   4.394   3.540  11.443
  190POPC  H15B21865   4.342   3.454  11.304
  190POPC  H15C21866   4.405   3.611  11.278
  190POPC   C1121867   4.651   3.297  11.118
  190POPC  H11A21868   4.747   3.306  11.173
  190POPC  H11B21869   4.663   3.303  11.008
  190POPC     P21870   4.496   3.080  11.076
  190POPC   O1321871   4.373   3.146  11.035
  190POPC   O1421872   4.472   2.959  11.152
  190POPC   O1221873   4.591   3.172  11.157
  190POPC   O1121874   4.567   3.029  10.944
  190POPC    C121875   4.709   3.006  10.934
  190POPC    HA21876   4.718   2.898  10.913
  190POPC    HB21877   4.766   3.021  11.027
  190POPC    C221878   4.762   3.088  10.813
  190POPC    HS21879   4.768   3.192  10.854
  190POPC   O2121880   4.673   3.074  10.700
  190POPC   C2121881   4.705   3.155  10.596
  190POPC   O2221882   4.788   3.244  10.608
  190POPC   C2221883   4.631   3.106  10.474
  190POPC   H2R21884   4.566   3.016  10.485
  190POPC   H2S21885   4.706   3.075  10.398
  190POPC    C321886   4.914   3.048  10.788
  190POPC    HX21887   4.978   3.076  10.874
  190POPC    HY21888   4.960   3.118  10.716
  190POPC   O3121889   4.934   2.908  10.758
  190POPC   C3121890   4.902   2.879  10.627
  190POPC   O3221891   4.894   2.963  10.537
  190POPC   C3221892   4.889   2.728  10.599
  190POPC   H2X21893   4.924   2.670  10.687
  190POPC   H2Y21894   4.963   2.698  10.522
  190POPC   C2321895   4.550   3.215  10.400
  190POPC   H3R21896   4.588   3.318  10.416
  190POPC   H3S21897   4.449   3.213  10.448
  190POPC   C2421898   4.546   3.204  10.253
  190POPC   H4R21899   4.508   3.107  10.213
  190POPC   H4S21900   4.650   3.210  10.215
  190POPC   C2521901   4.473   3.317  10.185
  190POPC   H5R21902   4.524   3.411  10.215
  190POPC   H5S21903   4.372   3.336  10.227
  190POPC   C2621904   4.491   3.319  10.028
  190POPC   H6R21905   4.457   3.221   9.988
  190POPC   H6S21906   4.599   3.316  10.004
  190POPC   C2721907   4.423   3.428   9.953
  190POPC   H7R21908   4.459   3.409   9.850
  190POPC   H7S21909   4.470   3.517  10.001
  190POPC   C2821910   4.270   3.441   9.949
  190POPC   H8R21911   4.234   3.456  10.053
  190POPC   H8S21912   4.226   3.346   9.913
  190POPC   C2921913   4.232   3.549   9.848
  190POPC   H9121914   4.209   3.649   9.887
  190POPC  C21021915   4.216   3.531   9.718
  190POPC  H10121916   4.172   3.612   9.658
  190POPC  C21121917   4.240   3.410   9.642
  190POPC  H11R21918   4.161   3.333   9.659
  190POPC  H11S21919   4.342   3.375   9.669
  190POPC  C21221920   4.239   3.433   9.492
  190POPC  H12R21921   4.134   3.440   9.457
  190POPC  H12S21922   4.297   3.350   9.447
  190POPC  C21321923   4.318   3.559   9.449
  190POPC  H13R21924   4.413   3.568   9.506
  190POPC  H13S21925   4.266   3.656   9.466
  190POPC  C21421926   4.367   3.555   9.306
  190POPC  H14R21927   4.435   3.468   9.292
  190POPC  H14S21928   4.432   3.643   9.292
  190POPC  C21521929   4.254   3.555   9.195
  190POPC  H15R21930   4.212   3.657   9.181
  190POPC  H15S21931   4.179   3.486   9.239
  190POPC  C21621932   4.301   3.504   9.066
  190POPC  H16R21933   4.221   3.474   8.995
  190POPC  H16S21934   4.356   3.408   9.079
  190POPC  C21721935   4.387   3.607   8.982
  190POPC  H17R21936   4.462   3.655   9.049
  190POPC  H17S21937   4.310   3.678   8.945
  190POPC  C21821938   4.462   3.548   8.864
  190POPC  H18R21939   4.391   3.520   8.783
  190POPC  H18S21940   4.512   3.457   8.901
  190POPC  H18T21941   4.546   3.610   8.824
  190POPC   C3321942   4.747   2.673  10.552
  190POPC   H3X21943   4.670   2.680  10.633
  190POPC   H3Y21944   4.769   2.564  10.555
  190POPC   C3421945   4.689   2.731  10.423
  190POPC   H4X21946   4.677   2.841  10.436
  190POPC   H4Y21947   4.583   2.701  10.413
  190POPC   C3521948   4.763   2.698  10.292
  190POPC   H5X21949   4.780   2.588  10.293
  190POPC   H5Y21950   4.861   2.746  10.312
  190POPC   C3621951   4.692   2.773  10.183
  190POPC   H6X21952   4.680   2.881  10.204
  190POPC   H6Y21953   4.588   2.740  10.165
  190POPC   C3721954   4.760   2.765  10.048
  190POPC   H7X21955   4.747   2.661  10.013
  190POPC   H7Y21956   4.868   2.783  10.061
  190POPC   C3821957   4.693   2.860   9.954
  190POPC   H8X21958   4.741   2.959   9.964
  190POPC   H8Y21959   4.587   2.874   9.985
  190POPC   C3921960   4.692   2.811   9.806
  190POPC   H9X21961   4.633   2.890   9.755
  190POPC   H9Y21962   4.650   2.709   9.797
  190POPC  C31021963   4.833   2.811   9.741
  190POPC  H10X21964   4.896   2.731   9.786
  190POPC  H10Y21965   4.883   2.909   9.754
  190POPC  C31121966   4.818   2.785   9.589
  190POPC  H11X21967   4.754   2.695   9.579
  190POPC  H11Y21968   4.920   2.771   9.547
  190POPC  C31221969   4.778   2.913   9.506
  190POPC  H12X21970   4.876   2.962   9.489
  190POPC  H12Y21971   4.719   2.982   9.570
  190POPC  C31321972   4.721   2.865   9.380
  190POPC  H13X21973   4.697   2.958   9.323
  190POPC  H13Y21974   4.630   2.804   9.396
  190POPC  C31421975   4.821   2.783   9.290
  190POPC  H14X21976   4.772   2.768   9.192
  190POPC  H14Y21977   4.838   2.690   9.349
  190POPC  C31521978   4.962   2.843   9.263
  190POPC  H15X21979   5.006   2.867   9.363
  190POPC  H15Y21980   4.949   2.943   9.215
  190POPC  C31621981   5.064   2.753   9.190
  190POPC  H16X21982   5.159   2.809   9.189
  190POPC  H16Y21983   5.044   2.730   9.083
  190POPC  H16Z21984   5.076   2.661   9.251
  191POPC     N21985   5.506   4.280   6.179
  191POPC   C1221986   5.478   4.351   6.315
  191POPC  H12A21987   5.471   4.456   6.292
  191POPC  H12B21988   5.569   4.335   6.371
  191POPC   C1321989   5.516   4.129   6.195
  191POPC  H13A21990   5.430   4.093   6.249
  191POPC  H13B21991   5.519   4.088   6.095
  191POPC  H13C21992   5.601   4.097   6.255
  191POPC   C1421993   5.393   4.312   6.093
  191POPC  H14A21994   5.397   4.269   5.994
  191POPC  H14B21995   5.294   4.293   6.131
  191POPC  H14C21996   5.394   4.418   6.071
  191POPC   C1521997   5.629   4.339   6.121
  191POPC  H15A21998   5.715   4.338   6.186
  191POPC  H15B21999   5.615   4.441   6.088
  191POPC  H15C22000   5.659   4.279   6.036
  191POPC   C1122001   5.363   4.297   6.399
  191POPC  H11A22002   5.358   4.341   6.501
  191POPC  H11B22003   5.372   4.187   6.408
  191POPC     P22004   5.157   4.454   6.336
  191POPC   O1322005   5.039   4.448   6.251
  191POPC   O1422006   5.254   4.566   6.314
  191POPC   O1222007   5.232   4.319   6.334
  191POPC   O1122008   5.109   4.443   6.491
  191POPC    C122009   5.001   4.349   6.520
  191POPC    HA22010   5.008   4.260   6.454
  191POPC    HB22011   4.903   4.399   6.511
  191POPC    C222012   5.011   4.278   6.661
  191POPC    HS22013   4.931   4.202   6.670
  191POPC   O2122014   5.009   4.376   6.769
  191POPC   C2122015   4.895   4.431   6.797
  191POPC   O2222016   4.786   4.421   6.735
  191POPC   C2222017   4.916   4.525   6.917
  191POPC   H2R22018   4.987   4.605   6.887
  191POPC   H2S22019   4.973   4.474   6.998
  191POPC    C322020   5.141   4.192   6.677
  191POPC    HX22021   5.225   4.264   6.688
  191POPC    HY22022   5.162   4.148   6.577
  191POPC   O3122023   5.132   4.094   6.787
  191POPC   C3122024   5.229   4.004   6.789
  191POPC   O3222025   5.325   4.007   6.716
  191POPC   C3222026   5.206   3.897   6.899
  191POPC   H2X22027   5.102   3.861   6.909
  191POPC   H2Y22028   5.212   3.963   6.988
  191POPC   C2322029   4.798   4.594   6.992
  191POPC   H3R22030   4.713   4.537   7.034
  191POPC   H3S22031   4.756   4.683   6.940
  191POPC   C2422032   4.842   4.667   7.122
  191POPC   H4R22033   4.788   4.758   7.157
  191POPC   H4S22034   4.943   4.703   7.092
  191POPC   C2522035   4.860   4.572   7.246
  191POPC   H5R22036   4.905   4.477   7.209
  191POPC   H5S22037   4.764   4.541   7.294
  191POPC   C2622038   4.952   4.641   7.339
  191POPC   H6R22039   4.920   4.745   7.364
  191POPC   H6S22040   5.052   4.660   7.293
  191POPC   C2722041   4.976   4.561   7.472
  191POPC   H7R22042   5.006   4.463   7.429
  191POPC   H7S22043   4.883   4.552   7.532
  191POPC   C2822044   5.089   4.624   7.555
  191POPC   H8R22045   5.073   4.724   7.599
  191POPC   H8S22046   5.168   4.644   7.479
  191POPC   C2922047   5.151   4.533   7.654
  191POPC   H9122048   5.232   4.469   7.615
  191POPC  C21022049   5.093   4.505   7.776
  191POPC  H10122050   5.118   4.413   7.829
  191POPC  C21122051   4.971   4.583   7.837
  191POPC  H11R22052   4.876   4.527   7.850
  191POPC  H11S22053   4.961   4.682   7.786
  191POPC  C21222054   5.007   4.625   7.982
  191POPC  H12R22055   4.927   4.697   8.010
  191POPC  H12S22056   5.112   4.661   7.977
  191POPC  C21322057   5.004   4.517   8.100
  191POPC  H13R22058   5.059   4.427   8.067
  191POPC  H13S22059   4.897   4.486   8.105
  191POPC  C21422060   5.052   4.565   8.237
  191POPC  H14R22061   5.011   4.663   8.267
  191POPC  H14S22062   5.161   4.580   8.221
  191POPC  C21522063   5.044   4.466   8.354
  191POPC  H15R22064   5.089   4.368   8.326
  191POPC  H15S22065   4.938   4.452   8.385
  191POPC  C21622066   5.125   4.501   8.483
  191POPC  H16R22067   5.106   4.608   8.503
  191POPC  H16S22068   5.232   4.475   8.471
  191POPC  C21722069   5.073   4.423   8.611
  191POPC  H17R22070   5.091   4.314   8.601
  191POPC  H17S22071   4.965   4.449   8.612
  191POPC  C21822072   5.133   4.474   8.744
  191POPC  H18R22073   5.085   4.434   8.835
  191POPC  H18S22074   5.110   4.582   8.739
  191POPC  H18T22075   5.243   4.457   8.753
  191POPC   C3322076   5.301   3.767   6.904
  191POPC   H3X22077   5.408   3.786   6.882
  191POPC   H3Y22078   5.266   3.693   6.830
  191POPC   C3422079   5.311   3.708   7.047
  191POPC   H4X22080   5.369   3.614   7.044
  191POPC   H4Y22081   5.211   3.675   7.082
  191POPC   C3522082   5.382   3.797   7.150
  191POPC   H5X22083   5.329   3.894   7.158
  191POPC   H5Y22084   5.480   3.812   7.101
  191POPC   C3622085   5.396   3.732   7.290
  191POPC   H6X22086   5.449   3.800   7.358
  191POPC   H6Y22087   5.462   3.644   7.273
  191POPC   C3722088   5.259   3.703   7.354
  191POPC   H7X22089   5.195   3.638   7.291
  191POPC   H7Y22090   5.211   3.803   7.357
  191POPC   C3822091   5.277   3.649   7.495
  191POPC   H8X22092   5.335   3.719   7.559
  191POPC   H8Y22093   5.343   3.560   7.485
  191POPC   C3922094   5.142   3.622   7.564
  191POPC   H9X22095   5.088   3.551   7.498
  191POPC   H9Y22096   5.090   3.719   7.580
  191POPC  C31022097   5.143   3.570   7.703
  191POPC  H10X22098   5.187   3.640   7.777
  191POPC  H10Y22099   5.202   3.476   7.711
  191POPC  C31122100   4.998   3.539   7.752
  191POPC  H11X22101   4.945   3.465   7.688
  191POPC  H11Y22102   4.931   3.625   7.729
  191POPC  C31222103   4.977   3.511   7.892
  191POPC  H12X22104   4.929   3.591   7.953
  191POPC  H12Y22105   5.075   3.524   7.943
  191POPC  C31322106   4.927   3.372   7.919
  191POPC  H13X22107   4.992   3.300   7.866
  191POPC  H13Y22108   4.820   3.357   7.894
  191POPC  C31422109   4.939   3.332   8.066
  191POPC  H14X22110   4.914   3.423   8.125
  191POPC  H14Y22111   5.045   3.317   8.096
  191POPC  C31522112   4.838   3.227   8.112
  191POPC  H15X22113   4.844   3.142   8.041
  191POPC  H15Y22114   4.733   3.265   8.119
  191POPC  C31622115   4.860   3.177   8.255
  191POPC  H16X22116   4.944   3.106   8.261
  191POPC  H16Y22117   4.768   3.129   8.296
  191POPC  H16Z22118   4.886   3.270   8.309
  192POPC     N22119   3.791   6.619   6.104
  192POPC   C1222120   3.902   6.667   6.197
  192POPC  H12A22121   3.952   6.751   6.150
  192POPC  H12B22122   3.966   6.582   6.217
  192POPC   C1322123   3.851   6.538   5.992
  192POPC  H13A22124   3.930   6.475   6.031
  192POPC  H13B22125   3.780   6.480   5.934
  192POPC  H13C22126   3.900   6.605   5.923
  192POPC   C1422127   3.715   6.514   6.183
  192POPC  H14A22128   3.775   6.425   6.188
  192POPC  H14B22129   3.698   6.551   6.283
  192POPC  H14C22130   3.614   6.498   6.147
  192POPC   C1522131   3.706   6.729   6.055
  192POPC  H15A22132   3.774   6.805   6.020
  192POPC  H15B22133   3.643   6.769   6.133
  192POPC  H15C22134   3.636   6.689   5.983
  192POPC   C1122135   3.858   6.729   6.337
  192POPC  H11A22136   3.940   6.750   6.408
  192POPC  H11B22137   3.791   6.653   6.384
  192POPC     P22138   3.848   6.981   6.252
  192POPC   O1322139   3.730   7.068   6.213
  192POPC   O1422140   3.953   6.941   6.154
  192POPC   O1222141   3.784   6.852   6.314
  192POPC   O1122142   3.928   7.039   6.366
  192POPC    C122143   3.863   7.048   6.496
  192POPC    HA22144   3.832   6.948   6.533
  192POPC    HB22145   3.774   7.115   6.496
  192POPC    C222146   3.965   7.092   6.603
  192POPC    HS22147   4.004   7.190   6.568
  192POPC   O2122148   4.072   6.992   6.628
  192POPC   C2122149   4.193   7.045   6.652
  192POPC   O2222150   4.219   7.162   6.650
  192POPC   C2222151   4.287   6.931   6.667
  192POPC   H2R22152   4.359   6.940   6.583
  192POPC   H2S22153   4.242   6.830   6.652
  192POPC    C322154   3.888   7.124   6.738
  192POPC    HX22155   3.814   7.206   6.723
  192POPC    HY22156   3.977   7.158   6.796
  192POPC   O3122157   3.824   7.002   6.804
  192POPC   C3122158   3.864   6.978   6.930
  192POPC   O3222159   3.940   7.050   6.994
  192POPC   C3222160   3.814   6.845   6.977
  192POPC   H2X22161   3.841   6.769   6.900
  192POPC   H2Y22162   3.704   6.844   6.990
  192POPC   C2322163   4.371   6.932   6.799
  192POPC   H3R22164   4.427   7.028   6.799
  192POPC   H3S22165   4.448   6.851   6.800
  192POPC   C2422166   4.289   6.920   6.930
  192POPC   H4R22167   4.229   6.827   6.933
  192POPC   H4S22168   4.224   7.009   6.922
  192POPC   C2522169   4.364   6.932   7.062
  192POPC   H5R22170   4.439   7.014   7.056
  192POPC   H5S22171   4.438   6.849   7.066
  192POPC   C2622172   4.277   6.933   7.188
  192POPC   H6R22173   4.193   6.863   7.168
  192POPC   H6S22174   4.242   7.037   7.204
  192POPC   C2722175   4.356   6.889   7.315
  192POPC   H7R22176   4.440   6.957   7.341
  192POPC   H7S22177   4.411   6.797   7.288
  192POPC   C2822178   4.255   6.858   7.429
  192POPC   H8R22179   4.309   6.809   7.514
  192POPC   H8S22180   4.183   6.780   7.395
  192POPC   C2922181   4.200   6.993   7.466
  192POPC   H9122182   4.127   7.027   7.392
  192POPC  C21022183   4.237   7.069   7.563
  192POPC  H10122184   4.174   7.158   7.579
  192POPC  C21122185   4.331   7.027   7.676
  192POPC  H11R22186   4.330   7.107   7.753
  192POPC  H11S22187   4.437   7.024   7.642
  192POPC  C21222188   4.302   6.899   7.756
  192POPC  H12R22189   4.224   6.842   7.701
  192POPC  H12S22190   4.250   6.923   7.851
  192POPC  C21322191   4.422   6.810   7.792
  192POPC  H13R22192   4.491   6.807   7.705
  192POPC  H13S22193   4.394   6.703   7.800
  192POPC  C21422194   4.493   6.850   7.922
  192POPC  H14R22195   4.503   6.961   7.915
  192POPC  H14S22196   4.593   6.802   7.926
  192POPC  C21522197   4.406   6.806   8.041
  192POPC  H15R22198   4.359   6.709   8.015
  192POPC  H15S22199   4.326   6.880   8.061
  192POPC  C21622200   4.479   6.795   8.179
  192POPC  H16R22201   4.490   6.900   8.215
  192POPC  H16S22202   4.577   6.743   8.175
  192POPC  C21722203   4.399   6.721   8.290
  192POPC  H17R22204   4.453   6.750   8.383
  192POPC  H17S22205   4.391   6.611   8.274
  192POPC  C21822206   4.253   6.771   8.305
  192POPC  H18R22207   4.193   6.714   8.379
  192POPC  H18S22208   4.193   6.779   8.212
  192POPC  H18T22209   4.261   6.871   8.351
  192POPC   C3322210   3.887   6.819   7.107
  192POPC   H3X22211   3.860   6.893   7.186
  192POPC   H3Y22212   3.997   6.827   7.094
  192POPC   C3422213   3.867   6.679   7.164
  192POPC   H4X22214   3.871   6.611   7.076
  192POPC   H4Y22215   3.764   6.678   7.204
  192POPC   C3522216   3.973   6.632   7.265
  192POPC   H5X22217   4.075   6.653   7.226
  192POPC   H5Y22218   3.962   6.522   7.277
  192POPC   C3622219   3.928   6.690   7.406
  192POPC   H6X22220   3.818   6.676   7.416
  192POPC   H6Y22221   3.953   6.798   7.403
  192POPC   C3722222   3.991   6.614   7.520
  192POPC   H7X22223   4.102   6.627   7.522
  192POPC   H7Y22224   3.988   6.503   7.508
  192POPC   C3822225   3.929   6.655   7.655
  192POPC   H8X22226   3.820   6.670   7.641
  192POPC   H8Y22227   3.954   6.760   7.682
  192POPC   C3922228   3.973   6.566   7.770
  192POPC   H9X22229   4.077   6.602   7.780
  192POPC   H9Y22230   3.982   6.460   7.740
  192POPC  C31022231   3.896   6.588   7.903
  192POPC  H10X22232   3.808   6.520   7.893
  192POPC  H10Y22233   3.855   6.691   7.916
  192POPC  C31122234   3.982   6.566   8.027
  192POPC  H11X22235   3.918   6.567   8.118
  192POPC  H11Y22236   4.055   6.649   8.032
  192POPC  C31222237   4.055   6.436   8.031
  192POPC  H12X22238   4.125   6.423   7.946
  192POPC  H12Y22239   3.982   6.354   8.016
  192POPC  C31322240   4.142   6.417   8.155
  192POPC  H13X22241   4.082   6.440   8.246
  192POPC  H13Y22242   4.224   6.492   8.160
  192POPC  C31422243   4.186   6.276   8.179
  192POPC  H14X22244   4.237   6.236   8.088
  192POPC  H14Y22245   4.090   6.222   8.192
  192POPC  C31522246   4.283   6.262   8.293
  192POPC  H15X22247   4.219   6.266   8.384
  192POPC  H15Y22248   4.347   6.352   8.307
  192POPC  C31622249   4.377   6.140   8.291
  192POPC  H16X22250   4.445   6.130   8.204
  192POPC  H16Y22251   4.320   6.046   8.308
  192POPC  H16Z22252   4.450   6.151   8.374
  193SOD    SOD22253   0.585   1.015   1.342
  194SOD    SOD22254   2.506   5.353   3.505
  195SOD    SOD22255   5.371   4.877  15.010
  196SOD    SOD22256   6.231   3.366  12.660
  197SOD    SOD22257   3.673   6.489   3.744
  198SOD    SOD22258   0.411   6.188  11.450
  199SOD    SOD22259   4.980   3.643   5.090
  200SOD    SOD22260   3.056   6.357   0.709
  201SOD    SOD22261   3.176   3.234  14.679
  202SOD    SOD22262   2.838   5.962  11.321
  203SOD    SOD22263   4.672   4.608   6.612
  204SOD    SOD22264   2.142   2.546   4.374
  205SOD    SOD22265   5.944   4.928  10.375
  206SOD    SOD22266   1.186   0.414  16.410
  207SOD    SOD22267   1.572   3.232   4.549
  208SOD    SOD22268   3.546   1.467  15.956
  209SOD    SOD22269   4.296   2.922  15.249
  210SOD    SOD22270   0.252   2.877  16.680
  211SOD    SOD22271   3.760   2.524   1.953
  212SOD    SOD22272   1.023   3.913   2.299
  213SOD    SOD22273   1.324   6.118  14.163
  214SOD    SOD22274   1.772   0.786   3.434
  215SOD    SOD22275   4.525   4.841   2.875
  216SOD    SOD22276   6.333   0.775  16.770
  217SOD    SOD22277   0.095   0.449   2.808
  218SOD    SOD22278   4.476   2.688  13.581
  219SOD    SOD22279   2.937   1.930  10.770
  220SOD    SOD22280   0.543   1.841  13.622
  221SOD    SOD22281   2.800   2.102   1.776
  222SOD    SOD22282   4.640   2.500  11.925
  223SOD    SOD22283   5.032   1.059   5.583
  224SOD    SOD22284   1.027   5.023   5.761
  225SOD    SOD22285   0.065   1.100  10.958
  226SOD    SOD22286   5.434   2.353   1.240
  227SOD    SOD22287   3.178   2.124   6.091
  228SOD    SOD22288   3.925   5.809  13.832
  229SOD    SOD22289   2.387   4.671   0.413
  230SOD    SOD22290   1.909   0.462  11.627
  231SOD    SOD22291   2.447   5.119  12.563
  232SOD    SOD22292   6.732   4.999  13.798
  233SOD    SOD22293   2.807   1.553  11.493
  234SOD    SOD22294   4.115   3.552   2.362
  235SOD    SOD22295   2.350   3.419  12.038
  236SOD    SOD22296   5.487   2.947  12.339
  237SOD    SOD22297   0.045   3.674   1.209
  238SOD    SOD22298   4.456   5.129  11.983
  239SOD    SOD22299   1.350   2.409   4.236
  240SOD    SOD22300   4.638   0.421   0.629
  241SOD    SOD22301   3.286   2.885   0.758
  242SOD    SOD22302   0.132   0.130   5.968
  243SOD    SOD22303   2.934   0.613  12.236
  244SOD    SOD22304   1.631   2.469   1.720
  245SOD    SOD22305   4.589   2.008   0.971
  246SOD    SOD22306   4.483   2.131   5.868
  247SOD    SOD22307   1.003   3.641   3.525
  248SOD    SOD22308   2.450   5.640   2.250
  249SOD    SOD22309   3.342   1.340   3.440
  250SOD    SOD22310   6.489   4.055   3.776
  251SOD    SOD22311   1.551   1.714   5.488
  252SOD    SOD22312   0.831   0.669   1.332
  253SOD    SOD22313   3.511   2.577  15.061
  254SOD    SOD22314   4.510   0.568   1.923
  255SOD    SOD22315   2.886   0.266  13.417
  256SOD    SOD22316   6.769   5.858   5.923
  257SOD    SOD22317   5.392   0.590   1.262
  258SOD    SOD22318   0.523   3.329  10.791
  259SOD    SOD22319   2.642   2.591  10.773
  260SOD    SOD22320   4.039   0.246  11.416
  261SOD    SOD22321   3.802   1.424  14.177
  262SOD    SOD22322   5.072   0.384   2.112
  263SOD    SOD22323   6.420   3.547  10.432
  264SOD    SOD22324   3.948   2.568   5.519
  265SOD    SOD22325   3.394   1.798   6.165
  266SOD    SOD22326   1.094   6.679  11.597
  267SOD    SOD22327   5.886   2.265  16.791
  268SOD    SOD22328   2.618   2.766  16.754
  269SOD    SOD22329   5.785   0.651  12.543
  270CLA    CLA22330   0.419   0.424  14.156
  271CLA    CLA22331   2.306   6.432  15.688
  272CLA    CLA22332   5.329   6.717   5.362
  273CLA    CLA22333   1.956   5.323  13.113
  274CLA    CLA22334   3.509   2.738  14.837
  275CLA    CLA22335   0.278   5.516   4.218
  276CLA    CLA22336   0.553   5.588  13.384
  277CLA    CLA22337   6.112   3.616  17.027
  278CLA    CLA22338   4.283   4.574   5.174
  279CLA    CLA22339   2.375   2.603  11.799
  280CLA    CLA22340   2.907   2.566  14.604
  281CLA    CLA22341   5.346   1.396  13.787
  282CLA    CLA22342   0.778   0.919   1.804
  283CLA    CLA22343   3.641   0.879   1.753
  284CLA    CLA22344   4.572   1.254  13.893
  285CLA    CLA22345   5.104   0.869   2.437
  286CLA    CLA22346   2.744   1.286   4.312
  287CLA    CLA22347   4.247   0.473  16.077
  288CLA    CLA22348   0.197   1.021   1.580
  289CLA    CLA22349   1.855   0.255   3.957
  290CLA    CLA22350   4.837   0.518   0.798
  291CLA    CLA22351   2.504   2.175   3.564
  292CLA    CLA22352   5.207   0.933   1.639
  293CLA    CLA22353   2.952   3.978   1.298
  294CLA    CLA22354   4.924   6.209   3.999
  295CLA    CLA22355   6.395   4.253  13.477
  296CLA    CLA22356   1.594   1.301   0.608
  297CLA    CLA22357   5.714   6.325  14.003
  298CLA    CLA22358   0.578   1.938   1.664
  299CLA    CLA22359   5.976   3.322   0.852
  300CLA    CLA22360   1.381   5.961   1.863
  301CLA    CLA22361   2.043   6.719  12.008
  302CLA    CLA22362   4.213   4.626  14.407
  303CLA    CLA22363   4.798   0.742   0.328
  304CLA    CLA22364   1.085   5.496  12.181
  305CLA    CLA22365   6.482   5.229  16.259
  306CLA    CLA22366   5.864   0.745   3.334
  307CLA    CLA22367   0.176   3.527  15.017
  308CLA    CLA22368   2.379   0.449   3.045
  309CLA    CLA22369   2.424   3.403   2.782
  310CLA    CLA22370   6.570   3.839  14.990
  311CLA    CLA22371   4.796   2.142  14.330
  312CLA    CLA22372   3.022   2.862  16.799
  313CLA    CLA22373   3.085   6.200  14.306
  314CLA    CLA22374   5.654   6.374   1.455
  315CLA    CLA22375   5.675   1.829  17.049
  316CLA    CLA22376   1.810   1.456   0.090
  317CLA    CLA22377   4.128   2.853   2.566
  318CLA    CLA22378   3.220   1.887   0.874
  319CLA    CLA22379   5.705   3.194   4.073
  320CLA    CLA22380   3.174   0.612  13.913
  321CLA    CLA22381   2.174   5.042  15.521
  322CLA    CLA22382   6.201   2.485  16.110
  323TIP3   OH222383   0.837   2.497   4.571
  323TIP3    H122384   0.783   2.575   4.558
  323TIP3    H222385   0.885   2.516   4.652
  324TIP3   OH222386   2.863   1.275   1.088
  324TIP3    H122387   2.858   1.358   1.040
  324TIP3    H222388   2.786   1.276   1.146
  325TIP3   OH222389   5.649   6.037  15.910
  325TIP3    H122390   5.612   6.068  15.993
  325TIP3    H222391   5.740   6.067  15.911
  326TIP3   OH222392   2.821   1.301  14.275
  326TIP3    H122393   2.883   1.374  14.274
  326TIP3    H222394   2.819   1.270  14.184
  327TIP3   OH222395   5.446   3.838  13.202
  327TIP3    H122396   5.426   3.925  13.167
  327TIP3    H222397   5.487   3.791  13.129
  328TIP3   OH222398   5.451   3.013  15.782
  328TIP3    H122399   5.465   3.037  15.874
  328TIP3    H222400   5.436   2.919  15.784
  329TIP3   OH222401   0.680   2.757  15.567
  329TIP3    H122402   0.761   2.807  15.554
  329TIP3    H222403   0.670   2.707  15.487
  330TIP3   OH222404   5.114   6.227   4.490
  330TIP3    H122405   5.057   6.151   4.477
  330TIP3    H222406   5.121   6.267   4.403
  331TIP3   OH222407   2.590   5.646  14.400
  331TIP3    H122408   2.646   5.712  14.359
  331TIP3    H222409   2.565   5.588  14.327
  332TIP3   OH222410   0.435   4.686  14.418
  332TIP3    H122411   0.367   4.698  14.484
  332TIP3    H222412   0.517   4.683  14.468
  333TIP3   OH222413   0.673   4.313   2.252
  333TIP3    H122414   0.676   4.357   2.167
  333TIP3    H222415   0.675   4.385   2.316
  334TIP3   OH222416   5.564   2.690  14.910
  334TIP3    H122417   5.489   2.675  14.853
  334TIP3    H222418   5.526   2.717  14.994
  335TIP3   OH222419   0.427   1.219   6.647
  335TIP3    H122420   0.458   1.292   6.594
  335TIP3    H222421   0.350   1.186   6.600
  336TIP3   OH222422   1.433   0.784  14.805
  336TIP3    H122423   1.465   0.772  14.894
  336TIP3    H222424   1.364   0.850  14.813
  337TIP3   OH222425   3.637   1.187   0.329
  337TIP3    H122426   3.661   1.123   0.262
  337TIP3    H222427   3.662   1.272   0.291
  338TIP3   OH222428   1.834   1.558  14.419
  338TIP3    H122429   1.831   1.638  14.471
  338TIP3    H222430   1.910   1.510  14.453
  339TIP3   OH222431   1.824   4.913  11.421
  339TIP3    H122432   1.748   4.959  11.387
  339TIP3    H222433   1.893   4.979  11.423
  340TIP3   OH222434   0.034   3.919  15.157
  340TIP3    H122435   0.047   3.826  15.175
  340TIP3    H222436  -0.059   3.926  15.137
  341TIP3   OH222437   2.822   0.990  12.086
  341TIP3    H122438   2.802   1.026  12.173
  341TIP3    H222439   2.800   1.061  12.026
  342TIP3   OH222440   4.553   6.320   2.632
  342TIP3    H122441   4.516   6.238   2.667
  342TIP3    H222442   4.478   6.362   2.589
  343TIP3   OH222443   5.861   0.463   3.217
  343TIP3    H122444   5.846   0.555   3.241
  343TIP3    H222445   5.809   0.413   3.280
  344TIP3   OH222446   4.070   1.849   1.103
  344TIP3    H122447   4.089   1.787   1.173
  344TIP3    H222448   4.095   1.803   1.023
  345TIP3   OH222449   1.050   2.546   0.101
  345TIP3    H122450   1.094   2.631   0.104
  345TIP3    H222451   1.119   2.482   0.117
  346TIP3   OH222452   3.614   3.525  11.305
  346TIP3    H122453   3.693   3.528  11.252
  346TIP3    H222454   3.644   3.542  11.394
  347TIP3   OH222455   1.850   3.039  14.927
  347TIP3    H122456   1.862   2.962  14.983
  347TIP3    H222457   1.770   3.020  14.877
  348TIP3   OH222458   5.271   4.266   3.268
  348TIP3    H122459   5.290   4.296   3.179
  348TIP3    H222460   5.243   4.344   3.314
  349TIP3   OH222461   2.293   2.130  15.556
  349TIP3    H122462   2.199   2.147  15.560
  349TIP3    H222463   2.331   2.184  15.625
  350TIP3   OH222464   5.094   4.039  15.650
  350TIP3    H122465   5.168   4.008  15.703
  350TIP3    H222466   5.118   4.130  15.628
  351TIP3   OH222467   4.663   2.717  12.765
  351TIP3    H122468   4.606   2.692  12.693
  351TIP3    H222469   4.621   2.680  12.843
  352TIP3   OH222470   1.378   2.641  13.096
  352TIP3    H122471   1.437   2.653  13.170
  352TIP3    H222472   1.404   2.710  13.034
  353TIP3   OH222473   4.780   4.982   3.729
  353TIP3    H122474   4.691   4.947   3.738
  353TIP3    H222475   4.820   4.969   3.815
  354TIP3   OH222476   0.189   1.300   3.846
  354TIP3    H122477   0.220   1.384   3.811
  354TIP3    H222478   0.260   1.270   3.903
  355TIP3   OH222479   5.819   4.082   2.471
  355TIP3    H122480   5.885   4.054   2.535
  355TIP3    H222481   5.745   4.024   2.487
  356TIP3   OH222482   2.865   1.538  13.431
  356TIP3    H122483   2.826   1.467  13.482
  356TIP3    H222484   2.791   1.579  13.386
  357TIP3   OH222485   6.687   5.193   6.487
  357TIP3    H122486   6.734   5.112   6.507
  357TIP3    H222487   6.756   5.259   6.475
  358TIP3   OH222488   4.342   2.859   2.807
  358TIP3    H122489   4.290   2.848   2.886
  358TIP3    H222490   4.281   2.840   2.735
  359TIP3   OH222491   3.009   2.397  12.008
  359TIP3    H122492   3.026   2.312  12.049
  359TIP3    H222493   3.095   2.429  11.984
  360TIP3   OH222494   4.532   1.678  10.912
  360TIP3    H122495   4.550   1.664  11.005
  360TIP3    H222496   4.463   1.615  10.891
  361TIP3   OH222497   3.958   5.568   4.346
  361TIP3    H122498   3.985   5.591   4.257
  361TIP3    H222499   3.912   5.646   4.378
  362TIP3   OH222500   5.106   2.789  15.827
  362TIP3    H122501   5.191   2.754  15.799
  362TIP3    H222502   5.056   2.799  15.746
  363TIP3   OH222503   6.114   2.868  16.337
  363TIP3    H122504   6.183   2.808  16.309
  363TIP3    H222505   6.045   2.859  16.271
  364TIP3   OH222506   5.287   5.339  13.569
  364TIP3    H122507   5.312   5.429  13.551
  364TIP3    H222508   5.335   5.317  13.649
  365TIP3   OH222509   3.731   4.104   2.355
  365TIP3    H122510   3.660   4.158   2.321
  365TIP3    H222511   3.715   4.098   2.449
  366TIP3   OH222512   5.860   0.397   5.819
  366TIP3    H122513   5.921   0.410   5.891
  366TIP3    H222514   5.802   0.327   5.848
  367TIP3   OH222515   5.313   1.747   2.957
  367TIP3    H122516   5.260   1.676   2.995
  367TIP3    H222517   5.309   1.817   3.022
  368TIP3   OH222518   3.984   3.473  16.139
  368TIP3    H122519   3.991   3.398  16.198
  368TIP3    H222520   3.898   3.512  16.158
  369TIP3   OH222521   3.517   4.542   0.267
  369TIP3    H122522   3.502   4.600   0.342
  369TIP3    H222523   3.435   4.545   0.218
  370TIP3   OH222524   0.999   2.153  13.507
  370TIP3    H122525   1.055   2.078  13.492
  370TIP3    H222526   0.955   2.168  13.423
  371TIP3   OH222527   3.651   1.894  14.173
  371TIP3    H122528   3.599   1.970  14.147
  371TIP3    H222529   3.593   1.820  14.160
  372TIP3   OH222530   2.253   0.348  15.593
  372TIP3    H122531   2.161   0.344  15.567
  372TIP3    H222532   2.283   0.257  15.591
  373TIP3   OH222533   4.285   5.498   3.185
  373TIP3    H122534   4.346   5.481   3.257
  373TIP3    H222535   4.242   5.414   3.170
  374TIP3   OH222536   3.872   3.943  11.398
  374TIP3    H122537   3.964   3.944  11.422
  374TIP3    H222538   3.860   3.860  11.352
  375TIP3   OH222539   5.020   3.425  16.463
  375TIP3    H122540   4.933   3.401  16.493
  375TIP3    H222541   5.010   3.438  16.369
  376TIP3   OH222542   5.139   5.706   4.202
  376TIP3    H122543   5.054   5.735   4.234
  376TIP3    H222544   5.120   5.652   4.126
  377TIP3   OH222545   5.521   1.934  11.332
  377TIP3    H122546   5.477   1.950  11.249
  377TIP3    H222547   5.517   1.839  11.343
  378TIP3   OH222548   4.001   5.079   3.312
  378TIP3    H122549   4.049   5.100   3.392
  378TIP3    H222550   3.992   4.984   3.314
  379TIP3   OH222551   4.957   4.609   3.682
  379TIP3    H122552   5.016   4.653   3.743
  379TIP3    H222553   5.008   4.536   3.648
  380TIP3   OH222554   2.608   0.318  16.051
  380TIP3    H122555   2.633   0.254  15.986
  380TIP3    H222556   2.598   0.268  16.132
  381TIP3   OH222557   6.075   0.678  15.234
  381TIP3    H122558   6.021   0.608  15.271
  381TIP3    H222559   6.027   0.759  15.255
  382TIP3   OH222560   0.212   6.698   5.054
  382TIP3    H122561   0.239   6.620   5.101
  382TIP3    H222562   0.159   6.665   4.981
  383TIP3   OH222563   4.756   3.928   0.079
  383TIP3    H122564   4.696   3.853   0.079
  383TIP3    H222565   4.773   3.945  -0.014
  384TIP3   OH222566   4.254   1.367   6.437
  384TIP3    H122567   4.324   1.411   6.486
  384TIP3    H222568   4.187   1.350   6.503
  385TIP3   OH222569   0.577   3.214  14.241
  385TIP3    H122570   0.596   3.289  14.186
  385TIP3    H222571   0.642   3.218  14.311
  386TIP3   OH222572   0.260   2.640  12.043
  386TIP3    H122573   0.253   2.572  11.977
  386TIP3    H222574   0.239   2.596  12.125
  387TIP3   OH222575   3.828   4.866  12.948
  387TIP3    H122576   3.861   4.822  12.869
  387TIP3    H222577   3.888   4.939  12.962
  388TIP3   OH222578   5.086   0.450   5.150
  388TIP3    H122579   5.054   0.360   5.138
  388TIP3    H222580   5.160   0.441   5.210
  389TIP3   OH222581   0.137   2.967   1.563
  389TIP3    H122582   0.141   2.914   1.643
  389TIP3    H222583   0.227   2.965   1.529
  390TIP3   OH222584   5.428   1.007  16.907
  390TIP3    H122585   5.412   0.923  16.951
  390TIP3    H222586   5.343   1.031  16.871
  391TIP3   OH222587   6.675   6.782   3.495
  391TIP3    H122588   6.733   6.708   3.474
  391TIP3    H222589   6.732   6.859   3.492
  392TIP3   OH222590   2.514   5.261  14.564
  392TIP3    H122591   2.470   5.296  14.486
  392TIP3    H222592   2.576   5.329  14.589
  393TIP3   OH222593   6.221   2.989   0.690
  393TIP3    H122594   6.227   2.901   0.652
  393TIP3    H222595   6.265   2.981   0.775
  394TIP3   OH222596   6.529   0.329  16.040
  394TIP3    H122597   6.523   0.298  15.949
  394TIP3    H222598   6.587   0.404  16.036
  395TIP3   OH222599   5.562   0.921   2.115
  395TIP3    H122600   5.491   0.974   2.153
  395TIP3    H222601   5.532   0.830   2.126
  396TIP3   OH222602   6.408   6.540  14.364
  396TIP3    H122603   6.419   6.633  14.386
  396TIP3    H222604   6.371   6.500  14.443
  397TIP3   OH222605   4.828   5.537  14.168
  397TIP3    H122606   4.835   5.627  14.136
  397TIP3    H222607   4.801   5.486  14.092
  398TIP3   OH222608   2.841   4.774   0.459
  398TIP3    H122609   2.883   4.828   0.392
  398TIP3    H222610   2.907   4.710   0.484
  399TIP3   OH222611   2.834   4.257   0.046
  399TIP3    H122612   2.884   4.331   0.080
  399TIP3    H222613   2.814   4.204   0.124
  400TIP3   OH222614   3.521   5.091   3.409
  400TIP3    H122615   3.609   5.115   3.381
  400TIP3    H222616   3.507   5.002   3.375
  401TIP3   OH222617   1.742   0.693  14.186
  401TIP3    H122618   1.744   0.669  14.279
  401TIP3    H222619   1.802   0.631  14.144
  402TIP3   OH222620   5.221   2.970   6.458
  402TIP3    H122621   5.191   3.048   6.505
  402TIP3    H222622   5.142   2.916   6.450
  403TIP3   OH222623   2.396   6.454  16.955
  403TIP3    H122624   2.445   6.488  17.029
  403TIP3    H222625   2.363   6.532  16.910
  404TIP3   OH222626   1.500   6.581  11.905
  404TIP3    H122627   1.426   6.523  11.922
  404TIP3    H222628   1.542   6.544  11.827
  405TIP3   OH222629   2.416   0.807  11.537
  405TIP3    H122630   2.391   0.798  11.629
  405TIP3    H222631   2.334   0.799  11.488
  406TIP3   OH222632   4.476   4.033   6.260
  406TIP3    H122633   4.447   4.026   6.170
  406TIP3    H222634   4.455   4.122   6.286
  407TIP3   OH222635   1.021   3.465   5.175
  407TIP3    H122636   1.009   3.541   5.232
  407TIP3    H222637   1.050   3.502   5.092
  408TIP3   OH222638   1.090   1.969  16.235
  408TIP3    H122639   1.003   1.935  16.212
  408TIP3    H222640   1.075   2.062  16.252
  409TIP3   OH222641   3.399   6.268  13.792
  409TIP3    H122642   3.366   6.254  13.880
  409TIP3    H222643   3.460   6.341  13.800
  410TIP3   OH222644   5.659   6.029  14.067
  410TIP3    H122645   5.666   6.124  14.054
  410TIP3    H222646   5.593   6.019  14.135
  411TIP3   OH222647   4.144   4.010   0.985
  411TIP3    H122648   4.209   4.002   1.055
  411TIP3    H222649   4.121   3.920   0.963
  412TIP3   OH222650   4.885   6.303  14.537
  412TIP3    H122651   4.928   6.375  14.492
  412TIP3    H222652   4.931   6.225  14.507
  413TIP3   OH222653   0.897   4.564   0.877
  413TIP3    H122654   0.921   4.502   0.946
  413TIP3    H222655   0.972   4.564   0.818
  414TIP3   OH222656   5.845   2.747   2.840
  414TIP3    H122657   5.869   2.746   2.933
  414TIP3    H222658   5.761   2.701   2.837
  415TIP3   OH222659   2.584   5.096   6.016
  415TIP3    H122660   2.662   5.074   5.965
  415TIP3    H222661   2.578   5.027   6.082
  416TIP3   OH222662   3.453   3.797  13.275
  416TIP3    H122663   3.530   3.742  13.291
  416TIP3    H222664   3.485   3.868  13.220
  417TIP3   OH222665   4.383   4.833  11.561
  417TIP3    H122666   4.347   4.897  11.623
  417TIP3    H222667   4.307   4.804  11.510
  418TIP3   OH222668   5.815   5.075   4.152
  418TIP3    H122669   5.824   5.023   4.232
  418TIP3    H222670   5.827   5.166   4.181
  419TIP3   OH222671   4.148   0.394   5.881
  419TIP3    H122672   4.196   0.347   5.949
  419TIP3    H222673   4.198   0.475   5.867
  420TIP3   OH222674   1.607   4.698   0.037
  420TIP3    H122675   1.517   4.674   0.057
  420TIP3    H222676   1.660   4.630   0.078
  421TIP3   OH222677   2.577   5.452   2.246
  421TIP3    H122678   2.526   5.374   2.226
  421TIP3    H222679   2.661   5.439   2.202
  422TIP3   OH222680   5.092   6.730   0.189
  422TIP3    H122681   5.000   6.710   0.173
  422TIP3    H222682   5.099   6.824   0.172
  423TIP3   OH222683   6.296   5.946   4.817
  423TIP3    H122684   6.361   5.879   4.839
  423TIP3    H222685   6.224   5.931   4.878
  424TIP3   OH222686   0.528   5.292   0.556
  424TIP3    H122687   0.538   5.197   0.546
  424TIP3    H222688   0.529   5.306   0.651
  425TIP3   OH222689   1.308   5.214   1.079
  425TIP3    H122690   1.213   5.217   1.094
  425TIP3    H222691   1.321   5.136   1.024
  426TIP3   OH222692   0.946   1.271   3.336
  426TIP3    H122693   0.971   1.230   3.419
  426TIP3    H222694   0.852   1.290   3.347
  427TIP3   OH222695   0.436   2.751  16.195
  427TIP3    H122696   0.462   2.738  16.104
  427TIP3    H222697   0.434   2.846  16.205
  428TIP3   OH222698   5.823   6.628  15.077
  428TIP3    H122699   5.848   6.643  15.168
  428TIP3    H222700   5.765   6.552  15.080
  429TIP3   OH222701   2.728   2.868   3.328
  429TIP3    H122702   2.674   2.941   3.359
  429TIP3    H222703   2.812   2.881   3.372
  430TIP3   OH222704   4.049   5.674  14.501
  430TIP3    H122705   4.091   5.676  14.587
  430TIP3    H222706   4.121   5.663  14.439
  431TIP3   OH222707   3.482   0.885  15.387
  431TIP3    H122708   3.420   0.877  15.315
  431TIP3    H222709   3.567   0.865  15.349
  432TIP3   OH222710   3.379   2.689   4.494
  432TIP3    H122711   3.342   2.773   4.521
  432TIP3    H222712   3.430   2.659   4.569
  433TIP3   OH222713   5.821   2.479  15.779
  433TIP3    H122714   5.807   2.421  15.853
  433TIP3    H222715   5.830   2.566  15.817
  434TIP3   OH222716   3.383   2.108   1.307
  434TIP3    H122717   3.437   2.125   1.230
  434TIP3    H222718   3.425   2.033   1.349
  435TIP3   OH222719   1.430   2.552  15.353
  435TIP3    H122720   1.359   2.488  15.349
  435TIP3    H222721   1.388   2.636  15.369
  436TIP3   OH222722   6.334   2.679   5.417
  436TIP3    H122723   6.393   2.623   5.366
  436TIP3    H222724   6.328   2.760   5.366
  437TIP3   OH222725   1.831   1.725   0.953
  437TIP3    H122726   1.795   1.703   0.867
  437TIP3    H222727   1.781   1.802   0.980
  438TIP3   OH222728   2.915   5.675   2.450
  438TIP3    H122729   2.876   5.589   2.438
  438TIP3    H222730   2.876   5.708   2.532
  439TIP3   OH222731   5.427   2.470  16.282
  439TIP3    H122732   5.359   2.507  16.338
  439TIP3    H222733   5.408   2.376  16.280
  440TIP3   OH222734   5.061   1.611   0.660
  440TIP3    H122735   5.103   1.633   0.743
  440TIP3    H222736   5.065   1.692   0.609
  441TIP3   OH222737   1.203   4.154   3.111
  441TIP3    H122738   1.270   4.169   3.046
  441TIP3    H222739   1.126   4.125   3.061
  442TIP3   OH222740   1.401   6.412   3.055
  442TIP3    H122741   1.412   6.371   2.969
  442TIP3    H222742   1.310   6.395   3.078
  443TIP3   OH222743   5.263   4.134  15.991
  443TIP3    H122744   5.295   4.050  15.958
  443TIP3    H222745   5.171   4.118  16.012
  444TIP3   OH222746   6.587   5.143  13.696
  444TIP3    H122747   6.540   5.158  13.614
  444TIP3    H222748   6.534   5.185  13.763
  445TIP3   OH222749   4.232   3.993  12.842
  445TIP3    H122750   4.164   4.059  12.854
  445TIP3    H222751   4.244   3.954  12.929
  446TIP3   OH222752   2.960   2.042   6.011
  446TIP3    H122753   2.912   2.011   6.087
  446TIP3    H222754   2.909   2.116   5.979
  447TIP3   OH222755   3.264   5.398   5.873
  447TIP3    H122756   3.328   5.390   5.803
  447TIP3    H222757   3.269   5.314   5.919
  448TIP3   OH222758   4.724   3.711   2.635
  448TIP3    H122759   4.753   3.729   2.545
  448TIP3    H222760   4.693   3.620   2.633
  449TIP3   OH222761   0.700   1.003   2.425
  449TIP3    H122762   0.789   1.032   2.446
  449TIP3    H222763   0.668   1.066   2.360
  450TIP3   OH222764   0.593   3.229  11.373
  450TIP3    H122765   0.568   3.307  11.423
  450TIP3    H222766   0.583   3.156  11.435
  451TIP3   OH222767   5.383   2.002  16.117
  451TIP3    H122768   5.298   2.025  16.079
  451TIP3    H222769   5.409   1.922  16.072
  452TIP3   OH222770   3.989   5.423  16.824
  452TIP3    H122771   3.930   5.483  16.869
  452TIP3    H222772   3.939   5.394  16.747
  453TIP3   OH222773   1.285   0.608   1.541
  453TIP3    H122774   1.222   0.602   1.613
  453TIP3    H222775   1.340   0.530   1.551
  454TIP3   OH222776   6.341   4.154  16.868
  454TIP3    H122777   6.353   4.229  16.926
  454TIP3    H222778   6.426   4.109  16.868
  455TIP3   OH222779   0.838   5.945   3.383
  455TIP3    H122780   0.901   6.011   3.355
  455TIP3    H222781   0.776   5.939   3.311
  456TIP3   OH222782   6.513   2.243  13.401
  456TIP3    H122783   6.500   2.166  13.345
  456TIP3    H222784   6.527   2.315  13.339
  457TIP3   OH222785   5.799   5.740  16.130
  457TIP3    H122786   5.724   5.725  16.073
  457TIP3    H222787   5.845   5.657  16.132
  458TIP3   OH222788   6.745   2.102   1.527
  458TIP3    H122789   6.702   2.181   1.495
  458TIP3    H222790   6.799   2.073   1.454
  459TIP3   OH222791   5.647   3.882   4.348
  459TIP3    H122792   5.560   3.852   4.376
  459TIP3    H222793   5.706   3.814   4.380
  460TIP3   OH222794   6.359   5.395  15.704
  460TIP3    H122795   6.359   5.407  15.799
  460TIP3    H222796   6.285   5.338  15.687
  461TIP3   OH222797   0.769   0.982  12.878
  461TIP3    H122798   0.765   0.974  12.974
  461TIP3    H222799   0.863   0.986  12.859
  462TIP3   OH222800   5.886   6.400  12.252
  462TIP3    H122801   5.888   6.308  12.277
  462TIP3    H222802   5.871   6.447  12.334
  463TIP3   OH222803   4.196   5.848  16.733
  463TIP3    H122804   4.200   5.943  16.721
  463TIP3    H222805   4.108   5.824  16.705
  464TIP3   OH222806   3.927   5.414   3.327
  464TIP3    H122807   3.946   5.334   3.278
  464TIP3    H222808   3.894   5.383   3.412
  465TIP3   OH222809   5.501   0.925  15.359
  465TIP3    H122810   5.446   0.994  15.322
  465TIP3    H222811   5.587   0.941  15.321
  466TIP3   OH222812   4.849   6.606   2.300
  466TIP3    H122813   4.850   6.695   2.263
  466TIP3    H222814   4.899   6.613   2.381
  467TIP3   OH222815   4.305   4.823  14.861
  467TIP3    H122816   4.399   4.806  14.854
  467TIP3    H222817   4.268   4.793  14.778
  468TIP3   OH222818   1.016   1.493  14.446
  468TIP3    H122819   1.079   1.422  14.449
  468TIP3    H222820   1.024   1.537  14.531
  469TIP3   OH222821   3.707   0.625   3.729
  469TIP3    H122822   3.713   0.716   3.699
  469TIP3    H222823   3.703   0.574   3.649
  470TIP3   OH222824   6.539   5.457   6.650
  470TIP3    H122825   6.555   5.423   6.738
  470TIP3    H222826   6.621   5.499   6.624
  471TIP3   OH222827   4.349   0.322   0.896
  471TIP3    H122828   4.265   0.276   0.888
  471TIP3    H222829   4.391   0.282   0.972
  472TIP3   OH222830   3.308   4.263   5.392
  472TIP3    H122831   3.306   4.351   5.430
  472TIP3    H222832   3.331   4.276   5.300
  473TIP3   OH222833   2.225   0.458   4.934
  473TIP3    H122834   2.183   0.422   5.012
  473TIP3    H222835   2.283   0.526   4.968
  474TIP3   OH222836   4.764   2.942   3.224
  474TIP3    H122837   4.671   2.929   3.205
  474TIP3    H222838   4.766   3.021   3.279
  475TIP3   OH222839   4.575   2.938   6.603
  475TIP3    H122840   4.549   2.847   6.612
  475TIP3    H222841   4.669   2.938   6.621
  476TIP3   OH222842   5.012   1.534  13.800
  476TIP3    H122843   5.000   1.542  13.895
  476TIP3    H222844   5.106   1.535  13.787
  477TIP3   OH222845   2.103   1.869  16.908
  477TIP3    H122846   2.101   1.804  16.837
  477TIP3    H222847   2.190   1.908  16.901
  478TIP3   OH222848   0.148   0.496  12.506
  478TIP3    H122849   0.237   0.489  12.470
  478TIP3    H222850   0.135   0.590  12.519
  479TIP3   OH222851   4.213   1.085  11.720
  479TIP3    H122852   4.138   1.054  11.670
  479TIP3    H222853   4.184   1.169  11.757
  480TIP3   OH222854   1.605   3.106   0.113
  480TIP3    H122855   1.514   3.119   0.139
  480TIP3    H222856   1.629   3.187   0.069
  481TIP3   OH222857   6.459   3.262   1.821
  481TIP3    H122858   6.462   3.169   1.841
  481TIP3    H222859   6.525   3.274   1.753
  482TIP3   OH222860   5.345   0.748  16.971
  482TIP3    H122861   5.265   0.778  17.014
  482TIP3    H222862   5.316   0.676  16.914
  483TIP3   OH222863   1.527   2.203  12.094
  483TIP3    H122864   1.457   2.257  12.057
  483TIP3    H222865   1.489   2.115  12.098
  484TIP3   OH222866   2.265   6.589   1.739
  484TIP3    H122867   2.207   6.528   1.693
  484TIP3    H222868   2.273   6.552   1.827
  485TIP3   OH222869   1.987   6.751  12.376
  485TIP3    H122870   1.978   6.811  12.301
  485TIP3    H222871   1.953   6.667  12.343
  486TIP3   OH222872   2.038   3.359  14.579
  486TIP3    H122873   2.080   3.439  14.611
  486TIP3    H222874   2.058   3.358  14.485
  487TIP3   OH222875   4.863   1.796  11.057
  487TIP3    H122876   4.832   1.707  11.047
  487TIP3    H222877   4.935   1.789  11.120
  488TIP3   OH222878   1.238   3.011   5.778
  488TIP3    H122879   1.164   2.998   5.718
  488TIP3    H222880   1.315   2.991   5.726
  489TIP3   OH222881   6.254   4.280  16.273
  489TIP3    H122882   6.345   4.255  16.259
  489TIP3    H222883   6.253   4.323  16.359
  490TIP3   OH222884   3.772   2.651   2.382
  490TIP3    H122885   3.759   2.671   2.475
  490TIP3    H222886   3.852   2.699   2.359
  491TIP3   OH222887   0.710   4.348   1.768
  491TIP3    H122888   0.685   4.409   1.699
  491TIP3    H222889   0.691   4.394   1.849
  492TIP3   OH222890   4.925   0.081  10.243
  492TIP3    H122891   4.836   0.112  10.227
  492TIP3    H222892   4.920  -0.014  10.235
  493TIP3   OH222893   2.869   6.298  11.014
  493TIP3    H122894   2.913   6.228  10.965
  493TIP3    H222895   2.777   6.292  10.989
  494TIP3   OH222896   3.086   0.515  11.892
  494TIP3    H122897   3.004   0.503  11.941
  494TIP3    H222898   3.092   0.609  11.878
  495TIP3   OH222899   3.176   1.367   0.628
  495TIP3    H122900   3.167   1.274   0.647
  495TIP3    H222901   3.106   1.386   0.566
  496TIP3   OH222902   3.174   1.967  11.965
  496TIP3    H122903   3.192   1.973  11.872
  496TIP3    H222904   3.092   2.016  11.977
  497TIP3   OH222905   5.932   4.834   3.575
  497TIP3    H122906   5.987   4.867   3.646
  497TIP3    H222907   5.991   4.778   3.524
  498TIP3   OH222908   2.175   5.092  12.221
  498TIP3    H122909   2.177   5.175  12.173
  498TIP3    H222910   2.250   5.042  12.186
  499TIP3   OH222911   4.594   0.499  12.784
  499TIP3    H122912   4.572   0.410  12.755
  499TIP3    H222913   4.515   0.530  12.829
  500TIP3   OH222914   0.581   6.334  11.362
  500TIP3    H122915   0.575   6.419  11.405
  500TIP3    H222916   0.674   6.313  11.363
  501TIP3   OH222917   4.800   0.766   3.207
  501TIP3    H122918   4.720   0.816   3.192
  501TIP3    H222919   4.866   0.809   3.153
  502TIP3   OH222920   3.597   1.721   4.646
  502TIP3    H122921   3.670   1.695   4.591
  502TIP3    H222922   3.638   1.760   4.724
  503TIP3   OH222923   2.808   4.047   0.248
  503TIP3    H122924   2.769   3.976   0.197
  503TIP3    H222925   2.897   4.018   0.266
  504TIP3   OH222926   1.042   5.463  13.167
  504TIP3    H122927   1.035   5.389  13.107
  504TIP3    H222928   0.952   5.478  13.197
  505TIP3   OH222929   1.338   3.215   3.130
  505TIP3    H122930   1.286   3.286   3.169
  505TIP3    H222931   1.372   3.252   3.049
  506TIP3   OH222932   1.539   5.231  15.577
  506TIP3    H122933   1.601   5.263  15.511
  506TIP3    H222934   1.538   5.136  15.565
  507TIP3   OH222935   2.815   6.670  12.447
  507TIP3    H122936   2.887   6.611  12.472
  507TIP3    H222937   2.736   6.624  12.475
  508TIP3   OH222938   6.764   5.586   6.571
  508TIP3    H122939   6.855   5.568   6.548
  508TIP3    H222940   6.745   5.670   6.528
  509TIP3   OH222941   1.129   1.068   5.412
  509TIP3    H122942   1.140   1.083   5.318
  509TIP3    H222943   1.181   1.136   5.454
  510TIP3   OH222944   4.947   1.842   1.243
  510TIP3    H122945   4.884   1.845   1.315
  510TIP3    H222946   4.955   1.749   1.222
  511TIP3   OH222947   6.342   5.363   4.379
  511TIP3    H122948   6.304   5.327   4.299
  511TIP3    H222949   6.418   5.306   4.396
  512TIP3   OH222950   2.072   3.916   1.983
  512TIP3    H122951   2.110   3.958   1.906
  512TIP3    H222952   2.067   3.986   2.049
  513TIP3   OH222953   1.005   3.438   0.632
  513TIP3    H122954   0.910   3.448   0.642
  513TIP3    H222955   1.017   3.407   0.543
  514TIP3   OH222956   5.344   1.268  12.098
  514TIP3    H122957   5.378   1.346  12.054
  514TIP3    H222958   5.329   1.206  12.027
  515TIP3   OH222959   4.265   3.381  13.702
  515TIP3    H122960   4.352   3.360  13.669
  515TIP3    H222961   4.206   3.326  13.650
  516TIP3   OH222962   5.072   2.513   6.236
  516TIP3    H122963   5.033   2.490   6.320
  516TIP3    H222964   5.161   2.479   6.240
  517TIP3   OH222965   4.382   5.390  13.876
  517TIP3    H122966   4.452   5.340  13.833
  517TIP3    H222967   4.416   5.479  13.880
  518TIP3   OH222968   4.444   0.974  12.463
  518TIP3    H122969   4.390   0.981  12.541
  518TIP3    H222970   4.459   0.880  12.452
  519TIP3   OH222971   1.894   6.309   4.833
  519TIP3    H122972   1.967   6.323   4.774
  519TIP3    H222973   1.934   6.291   4.918
  520TIP3   OH222974   1.179   1.588   5.134
  520TIP3    H122975   1.126   1.509   5.136
  520TIP3    H222976   1.268   1.557   5.118
  521TIP3   OH222977   1.970   4.325   6.105
  521TIP3    H122978   2.000   4.236   6.122
  521TIP3    H222979   2.044   4.381   6.126
  522TIP3   OH222980   4.854   0.687   2.617
  522TIP3    H122981   4.867   0.764   2.561
  522TIP3    H222982   4.931   0.687   2.674
  523TIP3   OH222983   3.995   3.636   5.280
  523TIP3    H122984   4.079   3.652   5.238
  523TIP3    H222985   3.971   3.547   5.253
  524TIP3   OH222986   5.767   2.890   2.400
  524TIP3    H122987   5.803   2.803   2.384
  524TIP3    H222988   5.698   2.900   2.334
  525TIP3   OH222989   4.554   1.910  15.058
  525TIP3    H122990   4.513   1.931  14.974
  525TIP3    H222991   4.562   1.995  15.102
  526TIP3   OH222992   3.175   4.349   1.350
  526TIP3    H122993   3.174   4.303   1.433
  526TIP3    H222994   3.242   4.416   1.360
  527TIP3   OH222995   2.805   2.759  12.851
  527TIP3    H122996   2.853   2.676  12.840
  527TIP3    H222997   2.715   2.732  12.865
  528TIP3   OH222998   1.574   3.406  13.600
  528TIP3    H122999   1.553   3.319  13.566
  528TIP3    H223000   1.666   3.418  13.578
  529TIP3   OH223001   4.525   0.875   4.001
  529TIP3    H123002   4.484   0.962   4.006
  529TIP3    H223003   4.458   0.815   4.033
  530TIP3   OH223004   5.938   2.955  13.755
  530TIP3    H123005   5.843   2.944  13.751
  530TIP3    H223006   5.951   3.047  13.778
  531TIP3   OH223007   0.770   2.287   3.797
  531TIP3    H123008   0.829   2.332   3.737
  531TIP3    H223009   0.685   2.326   3.781
  532TIP3   OH223010   1.665   6.525   5.545
  532TIP3    H123011   1.585   6.485   5.511
  532TIP3    H223012   1.637   6.569   5.625
  533TIP3   OH223013   2.476   0.931  14.038
  533TIP3    H123014   2.543   0.950  13.972
  533TIP3    H223015   2.475   1.009  14.093
  534TIP3   OH223016   4.740   3.358  16.451
  534TIP3    H123017   4.675   3.370  16.520
  534TIP3    H223018   4.691   3.370  16.370
  535TIP3   OH223019   5.438   4.056   3.792
  535TIP3    H123020   5.494   3.982   3.771
  535TIP3    H223021   5.499   4.127   3.814
  536TIP3   OH223022   3.608   3.210  11.155
  536TIP3    H123023   3.600   3.301  11.125
  536TIP3    H223024   3.652   3.165  11.083
  537TIP3   OH223025   6.446   1.822   5.987
  537TIP3    H123026   6.471   1.889   6.051
  537TIP3    H223027   6.485   1.741   6.021
  538TIP3   OH223028   5.439   2.961   5.530
  538TIP3    H123029   5.387   2.973   5.450
  538TIP3    H223030   5.385   2.905   5.585
  539TIP3   OH223031   3.957   4.124  11.194
  539TIP3    H123032   3.880   4.068  11.205
  539TIP3    H223033   3.987   4.105  11.105
  540TIP3   OH223034   6.444   1.190  12.050
  540TIP3    H123035   6.417   1.133  11.978
  540TIP3    H223036   6.509   1.140  12.099
  541TIP3   OH223037   5.075   6.099  15.020
  541TIP3    H123038   5.032   6.183  15.037
  541TIP3    H223039   5.080   6.093  14.924
  542TIP3   OH223040   5.806   2.507  13.733
  542TIP3    H123041   5.817   2.569  13.805
  542TIP3    H223042   5.886   2.455  13.732
  543TIP3   OH223043   4.730   4.513  13.895
  543TIP3    H123044   4.755   4.500  13.987
  543TIP3    H223045   4.764   4.600  13.873
  544TIP3   OH223046   1.680   3.365   3.682
  544TIP3    H123047   1.736   3.291   3.706
  544TIP3    H223048   1.658   3.350   3.590
  545TIP3   OH223049   6.568   4.533   6.271
  545TIP3    H123050   6.501   4.466   6.262
  545TIP3    H223051   6.636   4.493   6.325
  546TIP3   OH223052   4.380   1.405  11.702
  546TIP3    H123053   4.430   1.374  11.777
  546TIP3    H223054   4.345   1.490  11.729
  547TIP3   OH223055   2.991   5.141   0.799
  547TIP3    H123056   2.910   5.175   0.835
  547TIP3    H223057   2.965   5.067   0.745
  548TIP3   OH223058   3.988   2.288  15.499
  548TIP3    H123059   4.035   2.243  15.428
  548TIP3    H223060   4.054   2.304  15.566
  549TIP3   OH223061   5.893   1.864  16.691
  549TIP3    H123062   5.943   1.944  16.706
  549TIP3    H223063   5.863   1.871  16.600
  550TIP3   OH223064   6.185   4.565   0.559
  550TIP3    H123065   6.176   4.470   0.561
  550TIP3    H223066   6.171   4.588   0.467
  551TIP3   OH223067   0.215   0.851   0.541
  551TIP3    H123068   0.250   0.764   0.525
  551TIP3    H223069   0.129   0.851   0.499
  552TIP3   OH223070   4.143   0.813   3.453
  552TIP3    H123071   4.127   0.826   3.546
  552TIP3    H223072   4.208   0.743   3.449
  553TIP3   OH223073   1.276   3.455   5.654
  553TIP3    H123074   1.303   3.458   5.746
  553TIP3    H223075   1.344   3.403   5.612
  554TIP3   OH223076   3.624   1.773   5.154
  554TIP3    H123077   3.647   1.780   5.246
  554TIP3    H223078   3.685   1.709   5.118
  555TIP3   OH223079   3.869   1.558  12.232
  555TIP3    H123080   3.899   1.493  12.295
  555TIP3    H223081   3.892   1.522  12.147
  556TIP3   OH223082   3.089   0.304  16.191
  556TIP3    H123083   3.009   0.258  16.216
  556TIP3    H223084   3.061   0.371  16.129
  557TIP3   OH223085   4.545   5.348  12.091
  557TIP3    H123086   4.615   5.407  12.118
  557TIP3    H223087   4.496   5.330  12.171
  558TIP3   OH223088   4.002   0.139  13.534
  558TIP3    H123089   3.912   0.156  13.508
  558TIP3    H223090   4.044   0.225  13.534
  559TIP3   OH223091   0.018   4.269  15.313
  559TIP3    H123092   0.082   4.314  15.257
  559TIP3    H223093   0.037   4.300  15.401
  560TIP3   OH223094   6.350   5.142   2.496
  560TIP3    H123095   6.383   5.142   2.586
  560TIP3    H223096   6.258   5.118   2.503
  561TIP3   OH223097   5.908   3.317  11.299
  561TIP3    H123098   6.002   3.298  11.288
  561TIP3    H223099   5.864   3.245  11.254
  562TIP3   OH223100   6.555   4.395   4.546
  562TIP3    H123101   6.542   4.490   4.544
  562TIP3    H223102   6.567   4.374   4.639
  563TIP3   OH223103   0.109   6.414  12.311
  563TIP3    H123104   0.146   6.350  12.372
  563TIP3    H223105   0.051   6.468  12.366
  564TIP3   OH223106   4.232   2.031   2.575
  564TIP3    H123107   4.189   1.952   2.542
  564TIP3    H223108   4.175   2.062   2.646
  565TIP3   OH223109   1.108   4.364  17.212
  565TIP3    H123110   1.183   4.375  17.269
  565TIP3    H223111   1.131   4.291  17.155
  566TIP3   OH223112   1.620   0.308  13.710
  566TIP3    H123113   1.582   0.393  13.733
  566TIP3    H223114   1.546   0.253  13.688
  567TIP3   OH223115   0.162   5.969   3.032
  567TIP3    H123116   0.196   5.913   3.101
  567TIP3    H223117   0.160   6.057   3.070
  568TIP3   OH223118   0.545   3.489  17.111
  568TIP3    H123119   0.543   3.451  17.199
  568TIP3    H223120   0.474   3.553  17.110
  569TIP3   OH223121   4.773   0.174  14.344
  569TIP3    H123122   4.708   0.106  14.329
  569TIP3    H223123   4.833   0.136  14.408
  570TIP3   OH223124   5.646   0.705  13.169
  570TIP3    H123125   5.615   0.796  13.176
  570TIP3    H223126   5.678   0.684  13.257
  571TIP3   OH223127   2.214   0.332   4.193
  571TIP3    H123128   2.180   0.249   4.158
  571TIP3    H223129   2.252   0.376   4.116
  572TIP3   OH223130   5.543   3.714  13.966
  572TIP3    H123131   5.512   3.760  14.043
  572TIP3    H223132   5.573   3.783  13.907
  573TIP3   OH223133   6.264   6.601  11.934
  573TIP3    H123134   6.315   6.672  11.973
  573TIP3    H223135   6.200   6.577  12.001
  574TIP3   OH223136   4.440   1.932   4.765
  574TIP3    H123137   4.525   1.892   4.746
  574TIP3    H223138   4.417   1.979   4.685
  575TIP3   OH223139   2.052   1.999   1.499
  575TIP3    H123140   2.050   2.076   1.442
  575TIP3    H223141   2.144   1.971   1.498
  576TIP3   OH223142   5.837   6.680   1.615
  576TIP3    H123143   5.904   6.696   1.548
  576TIP3    H223144   5.872   6.722   1.694
  577TIP3   OH223145   0.435   1.128   3.943
  577TIP3    H123146   0.478   1.200   3.896
  577TIP3    H223147   0.507   1.075   3.977
  578TIP3   OH223148   5.697   1.566  12.707
  578TIP3    H123149   5.779   1.592  12.750
  578TIP3    H223150   5.635   1.636  12.731
  579TIP3   OH223151   2.574   1.394   4.545
  579TIP3    H123152   2.641   1.360   4.485
  579TIP3    H223153   2.615   1.390   4.631
  580TIP3   OH223154   0.862   3.211  14.347
  580TIP3    H123155   0.906   3.144  14.399
  580TIP3    H223156   0.917   3.221  14.269
  581TIP3   OH223157   4.906   5.578   0.672
  581TIP3    H123158   4.956   5.556   0.750
  581TIP3    H223159   4.835   5.634   0.705
  582TIP3   OH223160   3.393   2.759   2.966
  582TIP3    H123161   3.299   2.741   2.975
  582TIP3    H223162   3.419   2.796   3.050
  583TIP3   OH223163   5.478   5.242  15.373
  583TIP3    H123164   5.535   5.306  15.330
  583TIP3    H223165   5.499   5.159  15.330
  584TIP3   OH223166   3.177   3.750  12.660
  584TIP3    H123167   3.236   3.807  12.612
  584TIP3    H223168   3.089   3.779  12.634
  585TIP3   OH223169   2.328   0.841   3.653
  585TIP3    H123170   2.356   0.814   3.740
  585TIP3    H223171   2.391   0.800   3.594
  586TIP3   OH223172   5.392   4.084  14.781
  586TIP3    H123173   5.383   4.084  14.877
  586TIP3    H223174   5.456   4.014  14.764
  587TIP3   OH223175   2.658   0.246  13.350
  587TIP3    H123176   2.580   0.196  13.328
  587TIP3    H223177   2.647   0.330  13.306
  588TIP3   OH223178   2.532   4.961   3.812
  588TIP3    H123179   2.625   4.942   3.824
  588TIP3    H223180   2.497   4.970   3.901
  589TIP3   OH223181   6.457   1.947   0.190
  589TIP3    H123182   6.397   1.898   0.247
  589TIP3    H223183   6.435   2.039   0.206
  590TIP3   OH223184   2.768   1.028   3.287
  590TIP3    H123185   2.687   0.981   3.303
  590TIP3    H223186   2.781   1.082   3.365
  591TIP3   OH223187   5.519   4.456   4.027
  591TIP3    H123188   5.460   4.381   4.038
  591TIP3    H223189   5.479   4.526   4.078
  592TIP3   OH223190   4.975   4.566  12.553
  592TIP3    H123191   5.044   4.616  12.509
  592TIP3    H223192   4.989   4.476  12.524
  593TIP3   OH223193   5.687   3.836   2.518
  593TIP3    H123194   5.643   3.851   2.434
  593TIP3    H223195   5.729   3.751   2.508
  594TIP3   OH223196   6.766   0.159   0.186
  594TIP3    H123197   6.845   0.118   0.222
  594TIP3    H223198   6.746   0.109   0.107
  595TIP3   OH223199   5.539   5.877  16.450
  595TIP3    H123200   5.613   5.825  16.420
  595TIP3    H223201   5.476   5.873  16.378
  596TIP3   OH223202   4.091   6.537   1.052
  596TIP3    H123203   4.015   6.593   1.038
  596TIP3    H223204   4.114   6.504   0.965
  597TIP3   OH223205   0.267   3.461  14.705
  597TIP3    H123206   0.256   3.502  14.791
  597TIP3    H223207   0.347   3.409  14.714
  598TIP3   OH223208   5.539   3.109   5.709
  598TIP3    H123209   5.530   3.063   5.625
  598TIP3    H223210   5.520   3.042   5.775
  599TIP3   OH223211   3.008   0.965  13.806
  599TIP3    H123212   3.000   0.923  13.891
  599TIP3    H223213   2.919   0.996  13.786
  600TIP3   OH223214   0.194   6.020   1.659
  600TIP3    H123215   0.135   5.946   1.674
  600TIP3    H223216   0.281   5.985   1.675
  601TIP3   OH223217   0.913   2.450   4.323
  601TIP3    H123218   0.918   2.544   4.306
  601TIP3    H223219   0.868   2.444   4.408
  602TIP3   OH223220   0.094   1.560   0.263
  602TIP3    H123221   0.062   1.648   0.283
  602TIP3    H223222   0.149   1.536   0.338
  603TIP3   OH223223   5.903   2.306  11.659
  603TIP3    H123224   5.852   2.304  11.740
  603TIP3    H223225   5.921   2.214  11.640
  604TIP3   OH223226   1.649   5.073  11.282
  604TIP3    H123227   1.653   5.015  11.206
  604TIP3    H223228   1.678   5.158  11.250
  605TIP3   OH223229   2.569   2.120  12.125
  605TIP3    H123230   2.576   2.086  12.036
  605TIP3    H223231   2.476   2.139  12.136
  606TIP3   OH223232   2.054   4.874  12.537
  606TIP3    H123233   1.972   4.922  12.523
  606TIP3    H223234   2.036   4.816  12.611
  607TIP3   OH223235   4.938   4.384   4.839
  607TIP3    H123236   4.847   4.361   4.823
  607TIP3    H223237   4.957   4.452   4.775
  608TIP3   OH223238   4.521   5.408  14.209
  608TIP3    H123239   4.501   5.318  14.185
  608TIP3    H223240   4.485   5.418  14.297
  609TIP3   OH223241   0.738   4.003   3.962
  609TIP3    H123242   0.730   4.058   4.040
  609TIP3    H223243   0.650   3.968   3.948
  610TIP3   OH223244   0.362   5.219  13.623
  610TIP3    H123245   0.313   5.197  13.544
  610TIP3    H223246   0.422   5.145  13.635
  611TIP3   OH223247   1.746   1.132   1.165
  611TIP3    H123248   1.754   1.176   1.080
  611TIP3    H223249   1.694   1.053   1.146
  612TIP3   OH223250   4.354   3.813  14.780
  612TIP3    H123251   4.273   3.865  14.783
  612TIP3    H223252   4.338   3.749  14.711
  613TIP3   OH223253   4.135   4.937  17.134
  613TIP3    H123254   4.048   4.952  17.170
  613TIP3    H223255   4.158   5.019  17.090
  614TIP3   OH223256   0.616   0.522   5.742
  614TIP3    H123257   0.687   0.459   5.728
  614TIP3    H223258   0.584   0.542   5.654
  615TIP3   OH223259   1.888   5.059   2.326
  615TIP3    H123260   1.870   5.093   2.238
  615TIP3    H223261   1.828   5.107   2.383
  616TIP3   OH223262   2.424   0.274   4.953
  616TIP3    H123263   2.352   0.333   4.973
  616TIP3    H223264   2.444   0.291   4.861
  617TIP3   OH223265   5.995   5.041  17.192
  617TIP3    H123266   6.089   5.055  17.207
  617TIP3    H223267   5.954   5.058  17.277
  618TIP3   OH223268   6.437   4.068  15.917
  618TIP3    H123269   6.479   4.086  16.001
  618TIP3    H223270   6.343   4.063  15.938
  619TIP3   OH223271   4.649   3.950   4.545
  619TIP3    H123272   4.724   3.982   4.494
  619TIP3    H223273   4.593   4.027   4.556
  620TIP3   OH223274   4.689   0.002  16.059
  620TIP3    H123275   4.694   0.032  16.150
  620TIP3    H223276   4.597   0.014  16.036
  621TIP3   OH223277   0.317   1.431  12.487
  621TIP3    H123278   0.369   1.488  12.429
  621TIP3    H223279   0.377   1.408  12.558
  622TIP3   OH223280   3.224   0.416  15.380
  622TIP3    H123281   3.152   0.353  15.380
  622TIP3    H223282   3.303   0.361  15.383
  623TIP3   OH223283   5.419   4.321   1.806
  623TIP3    H123284   5.336   4.369   1.812
  623TIP3    H223285   5.460   4.335   1.891
  624TIP3   OH223286   1.387   4.045   3.878
  624TIP3    H123287   1.330   3.992   3.821
  624TIP3    H223288   1.475   4.013   3.860
  625TIP3   OH223289   1.035   0.496   0.969
  625TIP3    H123290   1.081   0.448   0.901
  625TIP3    H223291   1.028   0.585   0.935
  626TIP3   OH223292   4.228   0.984  12.630
  626TIP3    H123293   4.216   1.079  12.621
  626TIP3    H223294   4.150   0.954  12.677
  627TIP3   OH223295   3.472   2.842   2.088
  627TIP3    H123296   3.483   2.937   2.086
  627TIP3    H223297   3.382   2.828   2.058
  628TIP3   OH223298   4.023   6.272   3.806
  628TIP3    H123299   4.010   6.299   3.897
  628TIP3    H223300   4.076   6.192   3.812
  629TIP3   OH223301   1.183   3.741  14.835
  629TIP3    H123302   1.191   3.831  14.803
  629TIP3    H223303   1.219   3.744  14.923
  630TIP3   OH223304   1.367   3.087   1.564
  630TIP3    H123305   1.296   3.150   1.551
  630TIP3    H223306   1.326   3.014   1.611
  631TIP3   OH223307   5.536   6.684  15.010
  631TIP3    H123308   5.563   6.668  15.100
  631TIP3    H223309   5.444   6.706  15.016
  632TIP3   OH223310   2.591   0.562  13.554
  632TIP3    H123311   2.559   0.508  13.626
  632TIP3    H223312   2.538   0.642  13.559
  633TIP3   OH223313   0.023   4.831  14.287
  633TIP3    H123314  -0.047   4.778  14.325
  633TIP3    H223315   0.016   4.816  14.193
  634TIP3   OH223316   0.651   3.694   4.396
  634TIP3    H123317   0.727   3.660   4.350
  634TIP3    H223318   0.641   3.784   4.364
  635TIP3   OH223319   0.245   1.817   1.483
  635TIP3    H123320   0.261   1.749   1.549
  635TIP3    H223321   0.275   1.898   1.523
  636TIP3   OH223322   5.029   2.636   4.135
  636TIP3    H123323   4.954   2.696   4.132
  636TIP3    H223324   4.989   2.550   4.149
  637TIP3   OH223325   3.419   4.351  16.462
  637TIP3    H123326   3.482   4.324  16.529
  637TIP3    H223327   3.445   4.441  16.441
  638TIP3   OH223328   0.062   1.334  12.430
  638TIP3    H123329   0.150   1.370  12.442
  638TIP3    H223330   0.012   1.405  12.390
  639TIP3   OH223331   5.407   3.857  11.788
  639TIP3    H123332   5.497   3.879  11.814
  639TIP3    H223333   5.359   3.939  11.795
  640TIP3   OH223334   1.990   1.689  12.802
  640TIP3    H123335   2.025   1.647  12.881
  640TIP3    H223336   2.001   1.625  12.733
  641TIP3   OH223337   6.105   4.720   5.775
  641TIP3    H123338   6.016   4.704   5.742
  641TIP3    H223339   6.117   4.814   5.767
  642TIP3   OH223340   5.549   1.381  11.446
  642TIP3    H123341   5.587   1.320  11.383
  642TIP3    H223342   5.484   1.329  11.493
  643TIP3   OH223343   1.890   2.733   5.700
  643TIP3    H123344   1.842   2.670   5.646
  643TIP3    H223345   1.909   2.806   5.641
  644TIP3   OH223346   3.428   5.370  12.371
  644TIP3    H123347   3.390   5.284  12.387
  644TIP3    H223348   3.414   5.419  12.452
  645TIP3   OH223349   2.907   2.613  12.518
  645TIP3    H123350   2.826   2.579  12.556
  645TIP3    H223351   2.878   2.659  12.439
  646TIP3   OH223352   5.751   4.151  13.880
  646TIP3    H123353   5.781   4.104  13.802
  646TIP3    H223354   5.679   4.205  13.848
  647TIP3   OH223355   4.840   4.064   4.377
  647TIP3    H123356   4.902   3.991   4.387
  647TIP3    H223357   4.882   4.138   4.421
  648TIP3   OH223358   2.058   2.163   4.088
  648TIP3    H123359   2.123   2.176   4.158
  648TIP3    H223360   2.019   2.078   4.107
  649TIP3   OH223361   2.210   1.240  15.892
  649TIP3    H123362   2.260   1.308  15.937
  649TIP3    H223363   2.274   1.196  15.837
  650TIP3   OH223364   1.103   2.128  12.778
  650TIP3    H123365   1.044   2.201  12.796
  650TIP3    H223366   1.180   2.145  12.832
  651TIP3   OH223367   2.468   5.545  17.229
  651TIP3    H123368   2.420   5.484  17.173
  651TIP3    H223369   2.554   5.503  17.242
  652TIP3   OH223370   4.468   0.099  11.829
  652TIP3    H123371   4.466   0.175  11.886
  652TIP3    H223372   4.453   0.134  11.741
  653TIP3   OH223373   4.871   3.999  11.638
  653TIP3    H123374   4.799   4.061  11.628
  653TIP3    H223375   4.828   3.916  11.659
  654TIP3   OH223376   2.700   0.638   0.728
  654TIP3    H123377   2.638   0.642   0.656
  654TIP3    H223378   2.663   0.576   0.790
  655TIP3   OH223379   0.045   6.100   5.359
  655TIP3    H123380   0.068   6.060   5.275
  655TIP3    H223381   0.126   6.100   5.409
  656TIP3   OH223382   4.982   0.302   3.012
  656TIP3    H123383   5.025   0.370   3.064
  656TIP3    H223384   4.964   0.343   2.927
  657TIP3   OH223385   6.670   1.742   0.115
  657TIP3    H123386   6.716   1.806   0.169
  657TIP3    H223387   6.670   1.780   0.028
  658TIP3   OH223388   0.849   5.365   0.695
  658TIP3    H123389   0.942   5.352   0.712
  658TIP3    H223390   0.823   5.287   0.647
  659TIP3   OH223391   2.863   2.613  16.736
  659TIP3    H123392   2.905   2.615  16.650
  659TIP3    H223393   2.897   2.691  16.781
  660TIP3   OH223394   4.528   4.732   2.500
  660TIP3    H123395   4.588   4.692   2.438
  660TIP3    H223396   4.582   4.794   2.549
  661TIP3   OH223397   0.841   0.349  10.454
  661TIP3    H123398   0.754   0.374  10.421
  661TIP3    H223399   0.868   0.277  10.397
  662TIP3   OH223400   2.874   2.145  13.333
  662TIP3    H123401   2.895   2.166  13.242
  662TIP3    H223402   2.845   2.054  13.332
  663TIP3   OH223403   2.677   4.477  16.706
  663TIP3    H123404   2.756   4.423  16.699
  663TIP3    H223405   2.627   4.439  16.778
  664TIP3   OH223406   6.775   2.789  14.355
  664TIP3    H123407   6.804   2.749  14.437
  664TIP3    H223408   6.856   2.819  14.314
  665TIP3   OH223409   4.651   0.846   2.709
  665TIP3    H123410   4.718   0.778   2.707
  665TIP3    H223411   4.690   0.921   2.664
  666TIP3   OH223412   4.541   0.392   3.642
  666TIP3    H123413   4.463   0.374   3.695
  666TIP3    H223414   4.535   0.486   3.622
  667TIP3   OH223415   3.356   5.962   1.612
  667TIP3    H123416   3.357   5.867   1.623
  667TIP3    H223417   3.318   5.996   1.693
  668TIP3   OH223418   4.716   4.252   3.196
  668TIP3    H123419   4.755   4.301   3.123
  668TIP3    H223420   4.776   4.179   3.211
  669TIP3   OH223421   5.796   5.206   1.169
  669TIP3    H123422   5.828   5.120   1.196
  669TIP3    H223423   5.761   5.245   1.249
  670TIP3   OH223424   1.684   3.330   5.023
  670TIP3    H123425   1.766   3.324   5.071
  670TIP3    H223426   1.616   3.325   5.091
  671TIP3   OH223427   5.639   0.470  16.598
  671TIP3    H123428   5.544   0.461  16.594
  671TIP3    H223429   5.670   0.452  16.509
  672TIP3   OH223430   4.436   3.645  12.212
  672TIP3    H123431   4.529   3.621  12.209
  672TIP3    H223432   4.436   3.733  12.252
  673TIP3   OH223433   3.606   0.205   1.491
  673TIP3    H123434   3.591   0.161   1.575
  673TIP3    H223435   3.604   0.298   1.512
  674TIP3   OH223436   6.751   2.122  13.867
  674TIP3    H123437   6.795   2.110  13.783
  674TIP3    H223438   6.660   2.095  13.851
  675TIP3   OH223439   6.701   1.086  12.092
  675TIP3    H123440   6.764   1.014  12.080
  675TIP3    H223441   6.700   1.100  12.186
  676TIP3   OH223442   4.179   3.534  14.135
  676TIP3    H123443   4.103   3.500  14.087
  676TIP3    H223444   4.146   3.611  14.181
  677TIP3   OH223445   5.934   6.301   2.832
  677TIP3    H123446   6.011   6.251   2.859
  677TIP3    H223447   5.874   6.294   2.906
  678TIP3   OH223448   3.759   1.497   4.369
  678TIP3    H123449   3.723   1.534   4.288
  678TIP3    H223450   3.683   1.461   4.415
  679TIP3   OH223451   2.300   0.049  12.080
  679TIP3    H123452   2.216   0.015  12.051
  679TIP3    H223453   2.296   0.143  12.061
  680TIP3   OH223454   4.670   3.987  15.050
  680TIP3    H123455   4.683   3.937  15.131
  680TIP3    H223456   4.743   3.961  14.994
  681TIP3   OH223457   6.708   0.582  11.224
  681TIP3    H123458   6.651   0.519  11.178
  681TIP3    H223459   6.651   0.658  11.239
  682TIP3   OH223460   2.757   0.237   0.773
  682TIP3    H123461   2.818   0.304   0.740
  682TIP3    H223462   2.684   0.288   0.810
  683TIP3   OH223463   4.145   4.004   2.576
  683TIP3    H123464   4.099   4.026   2.494
  683TIP3    H223465   4.190   3.922   2.556
  684TIP3   OH223466   0.621   6.116   4.740
  684TIP3    H123467   0.685   6.178   4.705
  684TIP3    H223468   0.675   6.044   4.774
  685TIP3   OH223469   0.615   2.872  14.771
  685TIP3    H123470   0.665   2.791  14.786
  685TIP3    H223471   0.524   2.844  14.778
  686TIP3   OH223472   6.006   0.477  17.210
  686TIP3    H123473   6.040   0.435  17.131
  686TIP3    H223474   5.912   0.459  17.208
  687TIP3   OH223475   5.120   5.545   1.626
  687TIP3    H123476   5.137   5.573   1.536
  687TIP3    H223477   5.200   5.499   1.651
  688TIP3   OH223478   6.605   1.466   0.075
  688TIP3    H123479   6.637   1.551   0.107
  688TIP3    H223480   6.518   1.457   0.114
  689TIP3   OH223481   5.801   4.924   0.322
  689TIP3    H123482   5.741   4.929   0.397
  689TIP3    H223483   5.767   4.851   0.270
  690TIP3   OH223484   0.266   1.739   4.807
  690TIP3    H123485   0.335   1.739   4.873
  690TIP3    H223486   0.257   1.647   4.781
  691TIP3   OH223487   1.557   5.775  16.076
  691TIP3    H123488   1.488   5.841  16.070
  691TIP3    H223489   1.515   5.698  16.113
  692TIP3   OH223490   2.717   2.949  11.087
  692TIP3    H123491   2.791   2.926  11.031
  692TIP3    H223492   2.662   3.005  11.033
  693TIP3   OH223493   5.362   5.277   1.232
  693TIP3    H123494   5.387   5.286   1.140
  693TIP3    H223495   5.359   5.183   1.247
  694TIP3   OH223496   6.400   5.925  11.566
  694TIP3    H123497   6.357   5.985  11.505
  694TIP3    H223498   6.405   5.974  11.648
  695TIP3   OH223499   5.425   0.900  12.340
  695TIP3    H123500   5.414   0.841  12.265
  695TIP3    H223501   5.344   0.891  12.390
  696TIP3   OH223502   4.836   4.026   2.038
  696TIP3    H123503   4.851   4.043   2.130
  696TIP3    H223504   4.914   3.979   2.009
  697TIP3   OH223505   4.748   4.157   6.485
  697TIP3    H123506   4.703   4.073   6.475
  697TIP3    H223507   4.710   4.195   6.565
  698TIP3   OH223508   2.358   2.470   4.021
  698TIP3    H123509   2.392   2.486   3.933
  698TIP3    H223510   2.385   2.380   4.041
  699TIP3   OH223511   5.525   2.102   0.912
  699TIP3    H123512   5.525   2.134   0.822
  699TIP3    H223513   5.617   2.109   0.940
  700TIP3   OH223514   1.456   0.051  13.681
  700TIP3    H123515   1.384   0.042  13.743
  700TIP3    H223516   1.423   0.014  13.600
  701TIP3   OH223517   5.212   0.654   1.133
  701TIP3    H123518   5.246   0.655   1.044
  701TIP3    H223519   5.119   0.633   1.123
  702TIP3   OH223520   1.345   3.387  10.612
  702TIP3    H123521   1.308   3.394  10.524
  702TIP3    H223522   1.305   3.309  10.649
  703TIP3   OH223523   2.998   0.450   4.783
  703TIP3    H123524   2.958   0.363   4.787
  703TIP3    H223525   2.964   0.496   4.860
  704TIP3   OH223526   1.409   4.937   5.049
  704TIP3    H123527   1.327   4.888   5.055
  704TIP3    H223528   1.400   4.988   4.969
  705TIP3   OH223529   6.321   6.250   2.947
  705TIP3    H123530   6.365   6.177   2.989
  705TIP3    H223531   6.250   6.210   2.896
  706TIP3   OH223532   0.104   3.227  11.531
  706TIP3    H123533   0.167   3.265  11.592
  706TIP3    H223534   0.018   3.250  11.566
  707TIP3   OH223535   3.446   0.859   0.313
  707TIP3    H123536   3.404   0.895   0.392
  707TIP3    H223537   3.478   0.774   0.340
  708TIP3   OH223538   2.466   4.223  12.795
  708TIP3    H123539   2.480   4.249  12.886
  708TIP3    H223540   2.377   4.189  12.793
  709TIP3   OH223541   4.239   6.650  12.853
  709TIP3    H123542   4.222   6.607  12.937
  709TIP3    H223543   4.314   6.708  12.870
  710TIP3   OH223544   2.934   4.268  15.899
  710TIP3    H123545   2.843   4.276  15.869
  710TIP3    H223546   2.984   4.251  15.819
  711TIP3   OH223547   5.423   4.166   0.916
  711TIP3    H123548   5.475   4.110   0.974
  711TIP3    H223549   5.455   4.255   0.934
  712TIP3   OH223550   5.739   6.124   4.983
  712TIP3    H123551   5.681   6.198   4.967
  712TIP3    H223552   5.771   6.099   4.896
  713TIP3   OH223553   5.094   5.059   0.490
  713TIP3    H123554   5.055   5.141   0.521
  713TIP3    H223555   5.039   5.033   0.416
  714TIP3   OH223556   0.291   5.120  12.028
  714TIP3    H123557   0.329   5.034  12.048
  714TIP3    H223558   0.235   5.140  12.103
  715TIP3   OH223559   1.071   6.297  14.966
  715TIP3    H123560   1.095   6.348  14.888
  715TIP3    H223561   1.090   6.356  15.039
  716TIP3   OH223562   5.295   1.218   5.889
  716TIP3    H123563   5.314   1.232   5.982
  716TIP3    H223564   5.257   1.130   5.886
  717TIP3   OH223565   6.208   6.415  15.225
  717TIP3    H123566   6.140   6.477  15.251
  717TIP3    H223567   6.208   6.349  15.295
  718TIP3   OH223568   4.462   2.794  12.036
  718TIP3    H123569   4.548   2.832  12.052
  718TIP3    H223570   4.420   2.855  11.975
  719TIP3   OH223571   6.635   1.762  12.701
  719TIP3    H123572   6.590   1.803  12.774
  719TIP3    H223573   6.717   1.728  12.739
  720TIP3   OH223574   6.647   2.807  11.548
  720TIP3    H123575   6.585   2.835  11.615
  720TIP3    H223576   6.715   2.875  11.548
  721TIP3   OH223577   5.409   5.956  12.750
  721TIP3    H123578   5.367   5.954  12.664
  721TIP3    H223579   5.502   5.967  12.730
  722TIP3   OH223580   4.504   4.243  13.490
  722TIP3    H123581   4.511   4.212  13.580
  722TIP3    H223582   4.411   4.234  13.469
  723TIP3   OH223583   6.023   5.690   2.142
  723TIP3    H123584   6.081   5.615   2.133
  723TIP3    H223585   6.042   5.724   2.230
  724TIP3   OH223586   6.086   6.341  11.876
  724TIP3    H123587   6.141   6.419  11.883
  724TIP3    H223588   6.073   6.329  11.782
  725TIP3   OH223589   0.983   1.102   6.563
  725TIP3    H123590   0.973   1.105   6.659
  725TIP3    H223591   0.987   1.008   6.543
  726TIP3   OH223592   4.621   1.012  15.124
  726TIP3    H123593   4.702   1.059  15.146
  726TIP3    H223594   4.573   1.008  15.207
  727TIP3   OH223595   5.781   3.572  13.579
  727TIP3    H123596   5.845   3.624  13.529
  727TIP3    H223597   5.831   3.539  13.654
  728TIP3   OH223598   2.601   4.737   4.866
  728TIP3    H123599   2.602   4.661   4.923
  728TIP3    H223600   2.625   4.810   4.922
  729TIP3   OH223601   4.002   0.666   3.894
  729TIP3    H123602   3.991   0.571   3.886
  729TIP3    H223603   3.984   0.685   3.986
  730TIP3   OH223604   0.532   4.929  14.369
  730TIP3    H123605   0.488   4.846  14.384
  730TIP3    H223606   0.469   4.995  14.396
  731TIP3   OH223607   5.900   1.054  15.619
  731TIP3    H123608   5.838   1.102  15.565
  731TIP3    H223609   5.975   1.036  15.562
  732TIP3   OH223610   0.205   5.997  16.880
  732TIP3    H123611   0.128   6.018  16.827
  732TIP3    H223612   0.253   5.932  16.828
  733TIP3   OH223613   0.991   4.804  11.693
  733TIP3    H123614   1.017   4.884  11.648
  733TIP3    H223615   0.995   4.826  11.786
  734TIP3   OH223616   5.549   6.161   4.407
  734TIP3    H123617   5.545   6.068   4.382
  734TIP3    H223618   5.486   6.168   4.479
  735TIP3   OH223619   5.765   4.818  12.567
  735TIP3    H123620   5.740   4.730  12.542
  735TIP3    H223621   5.861   4.815  12.573
  736TIP3   OH223622   5.055   4.757  12.366
  736TIP3    H123623   4.991   4.827  12.361
  736TIP3    H223624   5.071   4.733  12.275
  737TIP3   OH223625   1.514   0.386  12.017
  737TIP3    H123626   1.512   0.298  11.981
  737TIP3    H223627   1.535   0.374  12.110
  738TIP3   OH223628   2.064   1.423  15.746
  738TIP3    H123629   1.975   1.414  15.780
  738TIP3    H223630   2.111   1.347  15.780
  739TIP3   OH223631   5.083   2.499  11.749
  739TIP3    H123632   5.025   2.501  11.672
  739TIP3    H223633   5.097   2.406  11.766
  740TIP3   OH223634   6.611   4.614   5.351
  740TIP3    H123635   6.579   4.527   5.374
  740TIP3    H223636   6.630   4.656   5.435
  741TIP3   OH223637   2.898   2.795   0.625
  741TIP3    H123638   2.861   2.753   0.547
  741TIP3    H223639   2.903   2.888   0.602
  742TIP3   OH223640   4.418   5.727   1.439
  742TIP3    H123641   4.357   5.785   1.393
  742TIP3    H223642   4.369   5.696   1.515
  743TIP3   OH223643   6.127   1.264   4.987
  743TIP3    H123644   6.075   1.194   5.028
  743TIP3    H223645   6.201   1.275   5.047
  744TIP3   OH223646   3.058   2.201   5.092
  744TIP3    H123647   3.139   2.173   5.051
  744TIP3    H223648   3.026   2.123   5.138
  745TIP3   OH223649   6.298   1.819   4.710
  745TIP3    H123650   6.390   1.840   4.698
  745TIP3    H223651   6.292   1.725   4.692
  746TIP3   OH223652   3.717   1.087   4.260
  746TIP3    H123653   3.642   1.073   4.318
  746TIP3    H223654   3.681   1.133   4.185
  747TIP3   OH223655   4.988   4.172  12.121
  747TIP3    H123656   4.980   4.158  12.027
  747TIP3    H223657   4.922   4.238  12.141
  748TIP3   OH223658   5.824   5.887  11.781
  748TIP3    H123659   5.738   5.915  11.748
  748TIP3    H223660   5.814   5.887  11.876
  749TIP3   OH223661   0.615   0.180  14.122
  749TIP3    H123662   0.573   0.116  14.181
  749TIP3    H223663   0.565   0.260  14.135
  750TIP3   OH223664   0.062   4.209   5.069
  750TIP3    H123665   0.035   4.291   5.110
  750TIP3    H223666   0.127   4.172   5.129
  751TIP3   OH223667   3.517   5.971  14.376
  751TIP3    H123668   3.565   6.054  14.371
  751TIP3    H223669   3.475   5.973  14.462
  752TIP3   OH223670   0.950   5.221  12.077
  752TIP3    H123671   0.994   5.220  11.992
  752TIP3    H223672   0.996   5.288  12.128
  753TIP3   OH223673   2.866   5.629  15.688
  753TIP3    H123674   2.847   5.720  15.711
  753TIP3    H223675   2.786   5.597  15.645
  754TIP3   OH223676   2.906   1.435  14.994
  754TIP3    H123677   2.940   1.359  14.947
  754TIP3    H223678   2.815   1.414  15.011
  755TIP3   OH223679   3.981   5.042   5.357
  755TIP3    H123680   3.976   5.003   5.270
  755TIP3    H223681   4.061   5.094   5.355
  756TIP3   OH223682   2.533   4.974  12.736
  756TIP3    H123683   2.601   4.988  12.801
  756TIP3    H223684   2.553   4.888  12.699
  757TIP3   OH223685   4.901   1.519  12.502
  757TIP3    H123686   4.948   1.462  12.440
  757TIP3    H223687   4.968   1.546  12.565
  758TIP3   OH223688   2.841   0.067  15.295
  758TIP3    H123689   2.876   0.146  15.336
  758TIP3    H223690   2.829   0.006  15.367
  759TIP3   OH223691   3.983   2.793   3.540
  759TIP3    H123692   4.024   2.867   3.495
  759TIP3    H223693   3.954   2.735   3.470
  760TIP3   OH223694   1.421   2.302   0.310
  760TIP3    H123695   1.506   2.280   0.348
  760TIP3    H223696   1.441   2.342   0.226
  761TIP3   OH223697   1.300   6.269  14.579
  761TIP3    H123698   1.241   6.196  14.562
  761TIP3    H223699   1.244   6.346  14.577
  762TIP3   OH223700   5.580   1.460   1.770
  762TIP3    H123701   5.650   1.398   1.790
  762TIP3    H223702   5.608   1.542   1.812
  763TIP3   OH223703   2.687   2.876   0.064
  763TIP3    H123704   2.631   2.816   0.113
  763TIP3    H223705   2.630   2.912  -0.004
  764TIP3   OH223706   1.986   0.213  10.725
  764TIP3    H123707   2.052   0.149  10.700
  764TIP3    H223708   2.009   0.291  10.675
  765TIP3   OH223709   5.070   3.139  14.060
  765TIP3    H123710   5.097   3.051  14.087
  765TIP3    H223711   5.135   3.166  13.996
  766TIP3   OH223712   1.782   6.663   2.023
  766TIP3    H123713   1.708   6.722   2.033
  766TIP3    H223714   1.833   6.675   2.103
  767TIP3   OH223715   5.803   3.194  16.879
  767TIP3    H123716   5.818   3.247  16.957
  767TIP3    H223717   5.727   3.234  16.837
  768TIP3   OH223718   3.246   3.620  14.661
  768TIP3    H123719   3.254   3.580  14.574
  768TIP3    H223720   3.166   3.672  14.655
  769TIP3   OH223721   0.800   4.028   0.476
  769TIP3    H123722   0.879   4.030   0.423
  769TIP3    H223723   0.816   4.091   0.546
  770TIP3   OH223724   5.759   5.761   1.662
  770TIP3    H123725   5.826   5.785   1.726
  770TIP3    H223726   5.693   5.714   1.713
  771TIP3   OH223727   0.792   4.778  17.061
  771TIP3    H123728   0.759   4.789  16.972
  771TIP3    H223729   0.880   4.815  17.059
  772TIP3   OH223730   5.943   2.646  14.669
  772TIP3    H123731   5.946   2.654  14.764
  772TIP3    H223732   5.889   2.568  14.653
  773TIP3   OH223733   0.753   3.889   5.947
  773TIP3    H123734   0.671   3.930   5.973
  773TIP3    H223735   0.728   3.820   5.885
  774TIP3   OH223736   3.199   3.064   1.051
  774TIP3    H123737   3.280   3.034   1.010
  774TIP3    H223738   3.135   3.065   0.979
  775TIP3   OH223739   2.812   0.302   5.571
  775TIP3    H123740   2.843   0.250   5.645
  775TIP3    H223741   2.782   0.384   5.611
  776TIP3   OH223742   1.405   1.152   1.081
  776TIP3    H123743   1.432   1.061   1.081
  776TIP3    H223744   1.403   1.177   0.989
  777TIP3   OH223745   2.389   3.264  12.775
  777TIP3    H123746   2.346   3.347  12.795
  777TIP3    H223747   2.369   3.208  12.850
  778TIP3   OH223748   4.598   5.539  13.119
  778TIP3    H123749   4.693   5.529  13.125
  778TIP3    H223750   4.578   5.617  13.171
  779TIP3   OH223751   4.119   1.918  13.380
  779TIP3    H123752   4.150   1.911  13.471
  779TIP3    H223753   4.120   2.011  13.361
  780TIP3   OH223754   0.865   3.811  13.135
  780TIP3    H123755   0.862   3.881  13.200
  780TIP3    H223756   0.828   3.735  13.180
  781TIP3   OH223757   5.892   2.840  16.196
  781TIP3    H123758   5.866   2.776  16.129
  781TIP3    H223759   5.868   2.798  16.279
  782TIP3   OH223760   3.889   6.282   3.325
  782TIP3    H123761   3.955   6.250   3.386
  782TIP3    H223762   3.806   6.270   3.371
  783TIP3   OH223763   5.134   0.090   2.763
  783TIP3    H123764   5.056   0.093   2.707
  783TIP3    H223765   5.207   0.079   2.702
  784TIP3   OH223766   1.644   5.350  15.329
  784TIP3    H123767   1.688   5.370  15.247
  784TIP3    H223768   1.574   5.289  15.306
  785TIP3   OH223769   3.130   4.606   2.060
  785TIP3    H123770   3.212   4.651   2.081
  785TIP3    H223771   3.074   4.675   2.024
  786TIP3   OH223772   1.593   3.369   0.009
  786TIP3    H123773   1.557   3.450  -0.026
  786TIP3    H223774   1.593   3.382   0.104
  787TIP3   OH223775   6.022   3.797   1.693
  787TIP3    H123776   6.058   3.859   1.756
  787TIP3    H223777   6.098   3.767   1.643
  788TIP3   OH223778   4.738   5.141   2.594
  788TIP3    H123779   4.740   5.174   2.684
  788TIP3    H223780   4.647   5.150   2.567
  789TIP3   OH223781   1.862   4.732  13.903
  789TIP3    H123782   1.806   4.809  13.914
  789TIP3    H223783   1.935   4.762  13.850
  790TIP3   OH223784   2.240   1.173  11.351
  790TIP3    H123785   2.190   1.145  11.274
  790TIP3    H223786   2.322   1.125  11.345
  791TIP3   OH223787   0.011   0.728   1.574
  791TIP3    H123788   0.017   0.680   1.492
  791TIP3    H223789   0.061   0.808   1.558
  792TIP3   OH223790   5.346   5.067   2.231
  792TIP3    H123791   5.441   5.068   2.239
  792TIP3    H223792   5.329   5.115   2.150
  793TIP3   OH223793   0.741   2.213   2.867
  793TIP3    H123794   0.783   2.294   2.896
  793TIP3    H223795   0.720   2.228   2.775
  794TIP3   OH223796   5.681   0.029  11.734
  794TIP3    H123797   5.633  -0.004  11.658
  794TIP3    H223798   5.724  -0.049  11.771
  795TIP3   OH223799   4.584   1.023  15.462
  795TIP3    H123800   4.507   1.070  15.431
  795TIP3    H223801   4.571   0.933  15.431
  796TIP3   OH223802   5.581   2.339   4.306
  796TIP3    H123803   5.666   2.378   4.326
  796TIP3    H223804   5.578   2.260   4.359
  797TIP3   OH223805   0.179   5.676   3.668
  797TIP3    H123806   0.262   5.703   3.630
  797TIP3    H223807   0.202   5.631   3.749
  798TIP3   OH223808   0.304   1.468   4.753
  798TIP3    H123809   0.310   1.446   4.846
  798TIP3    H223810   0.289   1.384   4.709
  799TIP3   OH223811   6.600   1.488  12.733
  799TIP3    H123812   6.695   1.479  12.720
  799TIP3    H223813   6.585   1.582  12.734
  800TIP3   OH223814   2.275   2.090  12.316
  800TIP3    H123815   2.250   2.036  12.391
  800TIP3    H223816   2.218   2.166  12.320
  801TIP3   OH223817   3.292   6.053   2.755
  801TIP3    H123818   3.309   5.969   2.797
  801TIP3    H223819   3.301   6.034   2.661
  802TIP3   OH223820   2.409   4.446   2.279
  802TIP3    H123821   2.455   4.380   2.228
  802TIP3    H223822   2.476   4.483   2.337
  803TIP3   OH223823   0.670   0.359   4.434
  803TIP3    H123824   0.718   0.276   4.442
  803TIP3    H223825   0.585   0.334   4.399
  804TIP3   OH223826   3.873   1.939  15.198
  804TIP3    H123827   3.899   1.934  15.106
  804TIP3    H223828   3.936   1.999  15.238
  805TIP3   OH223829   0.740   4.239   2.544
  805TIP3    H123830   0.649   4.222   2.521
  805TIP3    H223831   0.750   4.334   2.536
  806TIP3   OH223832   1.317   0.433   3.856
  806TIP3    H123833   1.280   0.411   3.770
  806TIP3    H223834   1.249   0.406   3.918
  807TIP3   OH223835   1.049   2.147   1.778
  807TIP3    H123836   1.121   2.173   1.720
  807TIP3    H223837   0.992   2.094   1.722
  808TIP3   OH223838   3.663   3.719   1.935
  808TIP3    H123839   3.613   3.641   1.911
  808TIP3    H223840   3.738   3.686   1.984
  809TIP3   OH223841   4.277   0.047  13.495
  809TIP3    H123842   4.317   0.032  13.580
  809TIP3    H223843   4.258   0.140  13.493
  810TIP3   OH223844   0.697   5.719  13.141
  810TIP3    H123845   0.721   5.651  13.078
  810TIP3    H223846   0.676   5.671  13.222
  811TIP3   OH223847   5.780   3.644  15.814
  811TIP3    H123848   5.755   3.669  15.903
  811TIP3    H223849   5.825   3.560  15.826
  812TIP3   OH223850   3.614   5.930   0.479
  812TIP3    H123851   3.706   5.921   0.454
  812TIP3    H223852   3.576   5.844   0.463
  813TIP3   OH223853   1.752   5.245  14.650
  813TIP3    H123854   1.809   5.296  14.706
  813TIP3    H223855   1.665   5.282  14.663
  814TIP3   OH223856   0.398   5.737  11.153
  814TIP3    H123857   0.435   5.764  11.069
  814TIP3    H223858   0.332   5.803  11.173
  815TIP3   OH223859   4.897   1.709  14.488
  815TIP3    H123860   4.886   1.650  14.563
  815TIP3    H223861   4.905   1.650  14.413
  816TIP3   OH223862   0.020   6.413   3.412
  816TIP3    H123863   0.050   6.440   3.499
  816TIP3    H223864  -0.071   6.441   3.408
  817TIP3   OH223865   4.985   3.168  11.824
  817TIP3    H123866   4.955   3.204  11.741
  817TIP3    H223867   5.063   3.117  11.802
  818TIP3   OH223868   2.466   4.808  16.122
  818TIP3    H123869   2.542   4.760  16.154
  818TIP3    H223870   2.449   4.772  16.035
  819TIP3   OH223871   3.560   4.862  15.875
  819TIP3    H123872   3.529   4.932  15.933
  819TIP3    H223873   3.547   4.897  15.787
  820TIP3   OH223874   1.982   5.276  15.030
  820TIP3    H123875   1.966   5.318  15.115
  820TIP3    H223876   1.935   5.331  14.967
  821TIP3   OH223877   6.635   1.221   1.591
  821TIP3    H123878   6.726   1.223   1.620
  821TIP3    H223879   6.640   1.215   1.495
  822TIP3   OH223880   2.087   3.655   0.678
  822TIP3    H123881   2.073   3.712   0.754
  822TIP3    H223882   2.024   3.686   0.613
  823TIP3   OH223883   6.412   0.384  16.526
  823TIP3    H123884   6.373   0.396  16.439
  823TIP3    H223885   6.478   0.454  16.532
  824TIP3   OH223886   5.632   0.974  16.218
  824TIP3    H123887   5.664   1.041  16.279
  824TIP3    H223888   5.606   0.901  16.273
  825TIP3   OH223889   5.731   6.520  14.492
  825TIP3    H123890   5.723   6.515  14.397
  825TIP3    H223891   5.646   6.491  14.525
  826TIP3   OH223892   6.389   2.905  16.796
  826TIP3    H123893   6.338   2.986  16.803
  826TIP3    H223894   6.475   2.928  16.830
  827TIP3   OH223895   2.536   5.286  15.436
  827TIP3    H123896   2.471   5.355  15.426
  827TIP3    H223897   2.620   5.330  15.419
  828TIP3   OH223898   4.770   5.403  16.856
  828TIP3    H123899   4.754   5.309  16.867
  828TIP3    H223900   4.842   5.422  16.917
  829TIP3   OH223901   6.280   6.568  14.969
  829TIP3    H123902   6.255   6.502  15.034
  829TIP3    H223903   6.351   6.527  14.920
  830TIP3   OH223904   1.003   0.382  13.048
  830TIP3    H123905   0.911   0.389  13.022
  830TIP3    H223906   1.051   0.425  12.977
  831TIP3   OH223907   4.770   1.085  16.879
  831TIP3    H123908   4.699   1.023  16.891
  831TIP3    H223909   4.828   1.044  16.815
  832TIP3   OH223910   6.640   0.929   4.497
  832TIP3    H123911   6.652   0.994   4.566
  832TIP3    H223912   6.656   0.845   4.540
  833TIP3   OH223913   1.070   6.625   3.861
  833TIP3    H123914   0.994   6.684   3.863
  833TIP3    H223915   1.053   6.566   3.788
  834TIP3   OH223916   2.654   1.110  15.535
  834TIP3    H123917   2.671   1.016  15.540
  834TIP3    H223918   2.735   1.148  15.500
  835TIP3   OH223919   0.506   3.276   4.495
  835TIP3    H123920   0.530   3.369   4.498
  835TIP3    H223921   0.411   3.276   4.505
  836TIP3   OH223922   3.948   4.129  12.184
  836TIP3    H123923   3.958   4.216  12.145
  836TIP3    H223924   3.856   4.106  12.168
  837TIP3   OH223925   5.256   4.539   2.820
  837TIP3    H123926   5.289   4.540   2.730
  837TIP3    H223927   5.162   4.525   2.810
  838TIP3   OH223928   2.043   4.001   4.198
  838TIP3    H123929   2.105   4.073   4.206
  838TIP3    H223930   2.002   3.994   4.284
  839TIP3   OH223931   5.745   1.241   0.913
  839TIP3    H123932   5.762   1.333   0.895
  839TIP3    H223933   5.701   1.208   0.835
  840TIP3   OH223934   5.180   5.370   4.924
  840TIP3    H123935   5.152   5.381   5.016
  840TIP3    H223936   5.243   5.298   4.927
  841TIP3   OH223937   2.445   6.517   0.395
  841TIP3    H123938   2.407   6.454   0.456
  841TIP3    H223939   2.512   6.467   0.348
  842TIP3   OH223940   3.454   4.732   0.493
  842TIP3    H123941   3.371   4.762   0.531
  842TIP3    H223942   3.521   4.767   0.552
  843TIP3   OH223943   5.959   3.917   6.733
  843TIP3    H123944   5.984   3.910   6.641
  843TIP3    H223945   5.960   3.827   6.765
  844TIP3   OH223946   3.715   5.753  15.367
  844TIP3    H123947   3.738   5.844  15.388
  844TIP3    H223948   3.690   5.755  15.275
  845TIP3   OH223949   0.041   1.772  12.899
  845TIP3    H123950  -0.015   1.810  12.966
  845TIP3    H223951   0.055   1.681  12.928
  846TIP3   OH223952   5.463   1.112  14.246
  846TIP3    H123953   5.513   1.067  14.314
  846TIP3    H223954   5.457   1.050  14.174
  847TIP3   OH223955   5.107   3.687  16.573
  847TIP3    H123956   5.121   3.670  16.666
  847TIP3    H223957   5.119   3.602  16.530
  848TIP3   OH223958   3.021   3.929   4.019
  848TIP3    H123959   3.064   3.875   3.953
  848TIP3    H223960   3.088   3.992   4.047
  849TIP3   OH223961   5.180   6.229  12.621
  849TIP3    H123962   5.177   6.133  12.614
  849TIP3    H223963   5.092   6.254  12.649
  850TIP3   OH223964   5.055   5.409  12.259
  850TIP3    H123965   5.145   5.440  12.259
  850TIP3    H223966   5.060   5.319  12.227
  851TIP3   OH223967   4.518   0.901  16.829
  851TIP3    H123968   4.469   0.820  16.843
  851TIP3    H223969   4.458   0.958  16.782
  852TIP3   OH223970   1.302   5.906   2.575
  852TIP3    H123971   1.307   5.923   2.481
  852TIP3    H223972   1.346   5.822   2.587
  853TIP3   OH223973   5.666   1.459   0.561
  853TIP3    H123974   5.732   1.398   0.528
  853TIP3    H223975   5.699   1.546   0.536
  854TIP3   OH223976   0.805   0.655   0.675
  854TIP3    H123977   0.861   0.585   0.642
  854TIP3    H223978   0.863   0.712   0.724
  855TIP3   OH223979   5.595   2.540   2.772
  855TIP3    H123980   5.681   2.515   2.739
  855TIP3    H223981   5.534   2.506   2.707
  856TIP3   OH223982   6.731   1.873   1.833
  856TIP3    H123983   6.704   1.797   1.782
  856TIP3    H223984   6.818   1.895   1.800
  857TIP3   OH223985   6.024   2.735   1.680
  857TIP3    H123986   5.962   2.698   1.743
  857TIP3    H223987   6.078   2.661   1.653
  858TIP3   OH223988   5.577   4.189  16.439
  858TIP3    H123989   5.576   4.119  16.374
  858TIP3    H223990   5.587   4.269  16.387
  859TIP3   OH223991   2.562   2.200  13.332
  859TIP3    H123992   2.615   2.161  13.262
  859TIP3    H223993   2.543   2.289  13.302
  860TIP3   OH223994   2.664   3.872  14.509
  860TIP3    H123995   2.738   3.925  14.480
  860TIP3    H223996   2.587   3.923  14.485
  861TIP3   OH223997   5.903   6.351   1.039
  861TIP3    H123998   5.819   6.397   1.045
  861TIP3    H223999   5.967   6.416   1.067
  862TIP3   OH224000   2.160   0.901   2.522
  862TIP3    H124001   2.081   0.848   2.508
  862TIP3    H224002   2.232   0.841   2.502
  863TIP3   OH224003   1.395   3.406  13.057
  863TIP3    H124004   1.333   3.337  13.035
  863TIP3    H224005   1.412   3.393  13.151
  864TIP3   OH224006   4.623   6.039  13.991
  864TIP3    H124007   4.581   5.982  13.927
  864TIP3    H224008   4.610   6.127  13.956
  865TIP3   OH224009   6.061   6.248   3.211
  865TIP3    H124010   6.141   6.196   3.213
  865TIP3    H224011   5.991   6.183   3.223
  866TIP3   OH224012   4.562   6.524  13.841
  866TIP3    H124013   4.593   6.469  13.914
  866TIP3    H224014   4.605   6.608  13.854
  867TIP3   OH224015   1.719   3.533  10.844
  867TIP3    H124016   1.700   3.626  10.833
  867TIP3    H224017   1.788   3.515  10.780
  868TIP3   OH224018   6.527   5.148   4.381
  868TIP3    H124019   6.484   5.068   4.351
  868TIP3    H224020   6.545   5.131   4.474
  869TIP3   OH224021   0.359   4.692   5.686
  869TIP3    H124022   0.309   4.620   5.646
  869TIP3    H224023   0.343   4.683   5.780
  870TIP3   OH224024   3.991   5.310   1.701
  870TIP3    H124025   3.952   5.257   1.771
  870TIP3    H224026   4.077   5.335   1.736
  871TIP3   OH224027   1.094   6.056   5.265
  871TIP3    H124028   1.182   6.088   5.282
  871TIP3    H224029   1.103   5.961   5.262
  872TIP3   OH224030   5.531   4.109   3.177
  872TIP3    H124031   5.521   4.147   3.265
  872TIP3    H224032   5.549   4.185   3.121
  873TIP3   OH224033   2.400   6.359   5.755
  873TIP3    H124034   2.406   6.305   5.677
  873TIP3    H224035   2.475   6.418   5.749
  874TIP3   OH224036   3.924   0.104  10.384
  874TIP3    H124037   3.995   0.158  10.348
  874TIP3    H224038   3.846   0.158  10.374
  875TIP3   OH224039   3.896   1.339   2.076
  875TIP3    H124040   3.806   1.331   2.106
  875TIP3    H224041   3.890   1.330   1.980
  876TIP3   OH224042   2.199   5.164   0.195
  876TIP3    H124043   2.193   5.182   0.101
  876TIP3    H224044   2.112   5.130   0.218
  877TIP3   OH224045   1.881   2.059   0.869
  877TIP3    H124046   1.812   2.026   0.927
  877TIP3    H224047   1.962   2.024   0.906
  878TIP3   OH224048   4.630   5.785   3.897
  878TIP3    H124049   4.665   5.863   3.940
  878TIP3    H224050   4.594   5.818   3.814
  879TIP3   OH224051   0.026   6.330  13.003
  879TIP3    H124052   0.042   6.394  13.073
  879TIP3    H224053   0.111   6.292  12.984
  880TIP3   OH224054   4.714   5.710   2.752
  880TIP3    H124055   4.699   5.785   2.695
  880TIP3    H224056   4.781   5.740   2.814
  881TIP3   OH224057   6.133   4.344  12.435
  881TIP3    H124058   6.187   4.383  12.504
  881TIP3    H224059   6.187   4.346  12.357
  882TIP3   OH224060   6.194   4.120  12.914
  882TIP3    H124061   6.289   4.133  12.915
  882TIP3    H224062   6.157   4.208  12.925
  883TIP3   OH224063   3.725   5.917  13.750
  883TIP3    H124064   3.708   5.956  13.665
  883TIP3    H224065   3.648   5.939  13.803
  884TIP3   OH224066   4.002   6.726   3.674
  884TIP3    H124067   3.957   6.713   3.591
  884TIP3    H224068   4.084   6.678   3.665
  885TIP3   OH224069   0.430   1.268  13.554
  885TIP3    H124070   0.469   1.215  13.485
  885TIP3    H224071   0.410   1.205  13.624
  886TIP3   OH224072   0.863   6.314  11.364
  886TIP3    H124073   0.931   6.353  11.310
  886TIP3    H224074   0.898   6.228  11.390
  887TIP3   OH224075   3.216   1.617  12.706
  887TIP3    H124076   3.244   1.660  12.786
  887TIP3    H224077   3.290   1.626  12.647
  888TIP3   OH224078   2.982   6.166  12.943
  888TIP3    H124079   3.031   6.125  12.872
  888TIP3    H224080   2.998   6.110  13.018
  889TIP3   OH224081   4.683   5.940   2.586
  889TIP3    H124082   4.610   5.937   2.524
  889TIP3    H224083   4.757   5.903   2.538
  890TIP3   OH224084   5.265   4.874  14.152
  890TIP3    H124085   5.322   4.928  14.098
  890TIP3    H224086   5.316   4.857  14.232
  891TIP3   OH224087   1.535   5.556  15.550
  891TIP3    H124088   1.614   5.509  15.577
  891TIP3    H224089   1.568   5.639  15.515
  892TIP3   OH224090   1.035   0.358   4.131
  892TIP3    H124091   1.028   0.299   4.056
  892TIP3    H224092   0.948   0.358   4.171
  893TIP3   OH224093   4.258   1.374  13.755
  893TIP3    H124094   4.303   1.445  13.710
  893TIP3    H224095   4.306   1.363  13.837
  894TIP3   OH224096   0.675   5.603  14.032
  894TIP3    H124097   0.582   5.617  14.048
  894TIP3    H224098   0.691   5.514  14.064
  895TIP3   OH224099   2.134   0.805  14.893
  895TIP3    H124100   2.151   0.818  14.800
  895TIP3    H224101   2.220   0.815  14.935
  896TIP3   OH224102   1.495   1.934   1.687
  896TIP3    H124103   1.531   1.949   1.599
  896TIP3    H224104   1.537   2.000   1.742
  897TIP3   OH224105   1.185   5.316  15.216
  897TIP3    H124106   1.163   5.223  15.216
  897TIP3    H224107   1.230   5.329  15.300
  898TIP3   OH224108   4.184   5.957  10.922
  898TIP3    H124109   4.210   6.044  10.892
  898TIP3    H224110   4.248   5.898  10.883
  899TIP3   OH224111   3.839   4.768  11.772
  899TIP3    H124112   3.849   4.705  11.844
  899TIP3    H224113   3.859   4.717  11.694
  900TIP3   OH224114   6.443   2.012   0.649
  900TIP3    H124115   6.530   1.972   0.654
  900TIP3    H224116   6.446   2.083   0.713
  901TIP3   OH224117   4.609   5.908  13.714
  901TIP3    H124118   4.573   5.950  13.636
  901TIP3    H224119   4.578   5.818  13.710
  902TIP3   OH224120   4.201   0.303   0.532
  902TIP3    H124121   4.157   0.362   0.594
  902TIP3    H224122   4.134   0.281   0.468
  903TIP3   OH224123   6.042   3.218   4.497
  903TIP3    H124124   5.996   3.140   4.528
  903TIP3    H224125   6.135   3.197   4.507
  904TIP3   OH224126   4.288   3.478   1.745
  904TIP3    H124127   4.224   3.549   1.754
  904TIP3    H224128   4.348   3.509   1.676
  905TIP3   OH224129   0.487   3.509   4.760
  905TIP3    H124130   0.467   3.520   4.667
  905TIP3    H224131   0.552   3.577   4.778
  906TIP3   OH224132   4.854   6.721  12.689
  906TIP3    H124133   4.940   6.703  12.650
  906TIP3    H224134   4.817   6.634  12.706
  907TIP3   OH224135   3.756   0.506   0.406
  907TIP3    H124136   3.699   0.449   0.458
  907TIP3    H224137   3.809   0.552   0.470
  908TIP3   OH224138   0.742   4.007   6.367
  908TIP3    H124139   0.741   3.912   6.377
  908TIP3    H224140   0.820   4.025   6.315
  909TIP3   OH224141   3.553   5.059  13.152
  909TIP3    H124142   3.462   5.086  13.140
  909TIP3    H224143   3.570   5.072  13.245
  910TIP3   OH224144   0.501   3.947  13.690
  910TIP3    H124145   0.545   4.002  13.754
  910TIP3    H224146   0.412   3.938  13.724
  911TIP3   OH224147   1.188   4.601   1.464
  911TIP3    H124148   1.242   4.571   1.390
  911TIP3    H224149   1.236   4.676   1.498
  912TIP3   OH224150   3.902   4.834   3.221
  912TIP3    H124151   3.873   4.760   3.274
  912TIP3    H224152   3.837   4.841   3.151
  913TIP3   OH224153   2.912   2.421   2.869
  913TIP3    H124154   3.001   2.395   2.846
  913TIP3    H224155   2.872   2.449   2.787
  914TIP3   OH224156   6.257   4.996  16.875
  914TIP3    H124157   6.165   5.004  16.852
  914TIP3    H224158   6.275   5.072  16.930
  915TIP3   OH224159   1.641   0.696   0.324
  915TIP3    H124160   1.634   0.715   0.418
  915TIP3    H224161   1.730   0.664   0.313
  916TIP3   OH224162   3.673   5.889  16.296
  916TIP3    H124163   3.623   5.812  16.271
  916TIP3    H224164   3.761   5.855  16.316
  917TIP3   OH224165   1.464   0.977  12.033
  917TIP3    H124166   1.557   0.998  12.031
  917TIP3    H224167   1.457   0.894  11.986
  918TIP3   OH224168   5.633   6.634   4.128
  918TIP3    H124169   5.708   6.662   4.075
  918TIP3    H224170   5.627   6.540   4.112
  919TIP3   OH224171   0.114   5.963   3.990
  919TIP3    H124172   0.056   5.922   4.054
  919TIP3    H224173   0.142   6.044   4.032
  920TIP3   OH224174   1.946   2.622  12.138
  920TIP3    H124175   1.869   2.565  12.147
  920TIP3    H224176   2.003   2.575  12.077
  921TIP3   OH224177   0.037   4.352   3.429
  921TIP3    H124178   0.122   4.348   3.385
  921TIP3    H224179  -0.025   4.315   3.366
  922TIP3   OH224180   2.252   2.679  17.187
  922TIP3    H124181   2.291   2.658  17.102
  922TIP3    H224182   2.301   2.626  17.250
  923TIP3   OH224183   1.135   0.340  11.764
  923TIP3    H124184   1.191   0.415  11.782
  923TIP3    H224185   1.193   0.276  11.724
  924TIP3   OH224186   2.909   3.371   2.375
  924TIP3    H124187   2.838   3.397   2.315
  924TIP3    H224188   2.863   3.334   2.450
  925TIP3   OH224189   6.629   5.316   4.194
  925TIP3    H124190   6.587   5.268   4.265
  925TIP3    H224191   6.686   5.379   4.238
  926TIP3   OH224192   3.048   1.488   5.133
  926TIP3    H124193   3.114   1.443   5.081
  926TIP3    H224194   2.966   1.473   5.086
  927TIP3   OH224195   5.220   4.781   4.735
  927TIP3    H124196   5.167   4.794   4.813
  927TIP3    H224197   5.286   4.716   4.761
  928TIP3   OH224198   5.337   2.888   1.722
  928TIP3    H124199   5.336   2.983   1.729
  928TIP3    H224200   5.298   2.858   1.804
  929TIP3   OH224201   4.858   5.993   0.712
  929TIP3    H124202   4.768   5.997   0.680
  929TIP3    H224203   4.856   5.927   0.781
  930TIP3   OH224204   6.474   3.304  13.948
  930TIP3    H124205   6.453   3.340  13.862
  930TIP3    H224206   6.456   3.375  14.009
  931TIP3   OH224207   4.861   1.010  14.703
  931TIP3    H124208   4.832   1.074  14.768
  931TIP3    H224209   4.842   0.925  14.742
  932TIP3   OH224210   6.491   5.560  11.781
  932TIP3    H124211   6.570   5.613  11.773
  932TIP3    H224212   6.450   5.588  11.862
  933TIP3   OH224213   0.512   3.347  13.733
  933TIP3    H124214   0.594   3.338  13.685
  933TIP3    H224215   0.506   3.440  13.755
  934TIP3   OH224216   5.045   3.390  12.133
  934TIP3    H124217   5.066   3.480  12.159
  934TIP3    H224218   5.090   3.335  12.196
  935TIP3   OH224219   3.875   3.883   2.846
  935TIP3    H124220   3.794   3.904   2.893
  935TIP3    H224221   3.851   3.810   2.788
  936TIP3   OH224222   5.979   2.388   0.928
  936TIP3    H124223   6.053   2.338   0.892
  936TIP3    H224224   6.015   2.432   1.004
  937TIP3   OH224225   1.422   1.536  17.192
  937TIP3    H124226   1.424   1.500  17.281
  937TIP3    H224227   1.411   1.460  17.135
  938TIP3   OH224228   5.517   3.936   6.510
  938TIP3    H124229   5.467   3.975   6.582
  938TIP3    H224230   5.451   3.892   6.456
  939TIP3   OH224231   4.159   0.385  14.649
  939TIP3    H124232   4.066   0.406  14.634
  939TIP3    H224233   4.180   0.431  14.730
  940TIP3   OH224234   0.992   0.362   5.532
  940TIP3    H124235   0.935   0.331   5.603
  940TIP3    H224236   0.931   0.393   5.465
  941TIP3   OH224237   0.636   1.120   4.772
  941TIP3    H124238   0.731   1.106   4.770
  941TIP3    H224239   0.625   1.215   4.777
  942TIP3   OH224240   1.089   2.873  13.913
  942TIP3    H124241   1.123   2.887  13.825
  942TIP3    H224242   0.994   2.879  13.904
  943TIP3   OH224243   3.923   4.391   1.879
  943TIP3    H124244   4.007   4.437   1.886
  943TIP3    H224245   3.942   4.312   1.829
  944TIP3   OH224246   5.885   1.980   5.276
  944TIP3    H124247   5.979   1.992   5.269
  944TIP3    H224248   5.849   2.069   5.276
  945TIP3   OH224249   0.595   1.227   3.714
  945TIP3    H124250   0.582   1.303   3.770
  945TIP3    H224251   0.642   1.164   3.769
  946TIP3   OH224252   3.890   1.789  10.760
  946TIP3    H124253   3.895   1.695  10.742
  946TIP3    H224254   3.934   1.830  10.686
  947TIP3   OH224255   6.263   5.466  11.243
  947TIP3    H124256   6.239   5.402  11.310
  947TIP3    H224257   6.181   5.510  11.222
  948TIP3   OH224258   6.562   5.185  16.567
  948TIP3    H124259   6.579   5.091  16.560
  948TIP3    H224260   6.550   5.214  16.476
  949TIP3   OH224261   4.516   2.898   1.722
  949TIP3    H124262   4.552   2.815   1.752
  949TIP3    H224263   4.431   2.875   1.684
  950TIP3   OH224264   4.845   4.082  14.335
  950TIP3    H124265   4.856   4.030  14.415
  950TIP3    H224266   4.839   4.017  14.265
  951TIP3   OH224267   0.405   0.816   3.311
  951TIP3    H124268   0.405   0.908   3.285
  951TIP3    H224269   0.312   0.792   3.313
  952TIP3   OH224270   5.913   6.350  13.499
  952TIP3    H124271   5.930   6.346  13.593
  952TIP3    H224272   5.850   6.280  13.483
  953TIP3   OH224273   3.668   0.230  16.495
  953TIP3    H124274   3.656   0.281  16.415
  953TIP3    H224275   3.594   0.255  16.550
  954TIP3   OH224276   2.662   6.175   1.635
  954TIP3    H124277   2.614   6.257   1.622
  954TIP3    H224278   2.717   6.191   1.712
  955TIP3   OH224279   4.391   5.682   2.455
  955TIP3    H124280   4.312   5.628   2.445
  955TIP3    H224281   4.434   5.677   2.369
  956TIP3   OH224282   1.580   3.896   1.113
  956TIP3    H124283   1.507   3.947   1.146
  956TIP3    H224284   1.540   3.815   1.080
  957TIP3   OH224285   2.334   2.003   0.070
  957TIP3    H124286   2.307   1.912   0.064
  957TIP3    H224287   2.373   2.011   0.157
  958TIP3   OH224288   5.350   5.032  12.028
  958TIP3    H124289   5.341   5.022  11.933
  958TIP3    H224290   5.435   5.074  12.039
  959TIP3   OH224291   2.253   0.539   3.322
  959TIP3    H124292   2.195   0.464   3.327
  959TIP3    H224293   2.308   0.522   3.246
  960TIP3   OH224294   6.748   3.916   5.277
  960TIP3    H124295   6.685   3.875   5.337
  960TIP3    H224296   6.712   4.004   5.262
  961TIP3   OH224297   2.394   2.333  16.298
  961TIP3    H124298   2.430   2.375  16.220
  961TIP3    H224299   2.428   2.244  16.294
  962TIP3   OH224300   4.987   2.305   6.385
  962TIP3    H124301   4.902   2.263   6.370
  962TIP3    H224302   5.021   2.262   6.463
  963TIP3   OH224303   2.806   1.473   3.346
  963TIP3    H124304   2.749   1.433   3.412
  963TIP3    H224305   2.871   1.521   3.397
  964TIP3   OH224306   6.486   1.914  12.432
  964TIP3    H124307   6.420   1.854  12.466
  964TIP3    H224308   6.504   1.883  12.343
  965TIP3   OH224309   6.624   3.814  11.347
  965TIP3    H124310   6.616   3.908  11.331
  965TIP3    H224311   6.708   3.803  11.390
  966TIP3   OH224312   1.048   6.459   5.776
  966TIP3    H124313   1.096   6.529   5.732
  966TIP3    H224314   1.101   6.380   5.759
  967TIP3   OH224315   3.218   1.527  11.382
  967TIP3    H124316   3.302   1.501  11.345
  967TIP3    H224317   3.188   1.450  11.430
  968TIP3   OH224318   0.333   5.056   5.518
  968TIP3    H124319   0.353   5.131   5.574
  968TIP3    H224320   0.397   4.990   5.543
  969TIP3   OH224321   3.842   4.145  15.091
  969TIP3    H124322   3.763   4.098  15.117
  969TIP3    H224323   3.831   4.163  14.998
  970TIP3   OH224324   2.051   6.435   1.639
  970TIP3    H124325   2.043   6.341   1.656
  970TIP3    H224326   1.966   6.471   1.664
  971TIP3   OH224327   4.720   2.493  14.162
  971TIP3    H124328   4.739   2.411  14.208
  971TIP3    H224329   4.790   2.502  14.098
  972TIP3   OH224330   0.467   0.695  13.141
  972TIP3    H124331   0.406   0.637  13.187
  972TIP3    H224332   0.476   0.656  13.054
  973TIP3   OH224333   1.234   2.963   0.567
  973TIP3    H124334   1.218   3.037   0.509
  973TIP3    H224335   1.182   2.982   0.645
  974TIP3   OH224336   2.463   1.147   3.651
  974TIP3    H124337   2.426   1.084   3.588
  974TIP3    H224338   2.477   1.096   3.731
  975TIP3   OH224339   2.172   4.330   0.504
  975TIP3    H124340   2.174   4.269   0.578
  975TIP3    H224341   2.249   4.306   0.452
  976TIP3   OH224342   1.997   5.185   3.602
  976TIP3    H124343   2.089   5.172   3.625
  976TIP3    H224344   1.969   5.102   3.565
  977TIP3   OH224345   1.701   2.987   2.749
  977TIP3    H124346   1.634   2.971   2.682
  977TIP3    H224347   1.769   2.922   2.731
  978TIP3   OH224348   3.149   0.062   0.861
  978TIP3    H124349   3.156   0.068   0.956
  978TIP3    H224350   3.055   0.067   0.844
  979TIP3   OH224351   4.933   4.284  10.669
  979TIP3    H124352   4.850   4.241  10.690
  979TIP3    H224353   5.000   4.223  10.698
  980TIP3   OH224354   4.970   0.813   5.097
  980TIP3    H124355   4.941   0.737   5.147
  980TIP3    H224356   4.890   0.865   5.084
  981TIP3   OH224357   5.953   1.016   2.798
  981TIP3    H124358   6.037   1.013   2.752
  981TIP3    H224359   5.899   1.075   2.745
  982TIP3   OH224360   6.212   1.454   5.542
  982TIP3    H124361   6.239   1.544   5.523
  982TIP3    H224362   6.285   1.418   5.592
  983TIP3   OH224363   0.740   2.035  14.817
  983TIP3    H124364   0.783   1.982  14.884
  983TIP3    H224365   0.770   1.998  14.734
  984TIP3   OH224366   2.245   3.871   1.092
  984TIP3    H124367   2.167   3.923   1.071
  984TIP3    H224368   2.284   3.849   1.008
  985TIP3   OH224369   5.352   2.211   1.407
  985TIP3    H124370   5.354   2.121   1.373
  985TIP3    H224371   5.288   2.208   1.478
  986TIP3   OH224372   0.408   3.811   2.018
  986TIP3    H124373   0.395   3.791   2.111
  986TIP3    H224374   0.454   3.734   1.983
  987TIP3   OH224375   4.811   4.057  15.781
  987TIP3    H124376   4.765   3.978  15.751
  987TIP3    H224377   4.900   4.047  15.746
  988TIP3   OH224378   1.803   5.918   3.807
  988TIP3    H124379   1.894   5.932   3.833
  988TIP3    H224380   1.759   6.001   3.825
  989TIP3   OH224381   3.771   3.218   3.302
  989TIP3    H124382   3.703   3.267   3.257
  989TIP3    H224383   3.773   3.255   3.390
  990TIP3   OH224384   1.934   0.545   3.085
  990TIP3    H124385   1.916   0.452   3.078
  990TIP3    H224386   1.881   0.585   3.015
  991TIP3   OH224387   0.179   6.415   3.069
  991TIP3    H124388   0.171   6.462   3.152
  991TIP3    H224389   0.088   6.393   3.046
  992TIP3   OH224390   0.362   5.250  12.715
  992TIP3    H124391   0.358   5.281  12.625
  992TIP3    H224392   0.306   5.310  12.764
  993TIP3   OH224393   1.114   1.586   0.954
  993TIP3    H124394   1.200   1.546   0.967
  993TIP3    H224395   1.064   1.561   1.032
  994TIP3   OH224396   5.495   2.086   3.642
  994TIP3    H124397   5.498   2.149   3.714
  994TIP3    H224398   5.435   2.018   3.672
  995TIP3   OH224399   5.766   1.232   4.876
  995TIP3    H124400   5.817   1.255   4.798
  995TIP3    H224401   5.709   1.160   4.847
  996TIP3   OH224402   0.195   0.454   5.672
  996TIP3    H124403   0.205   0.480   5.764
  996TIP3    H224404   0.123   0.508   5.640
  997TIP3   OH224405   2.817   3.373  16.756
  997TIP3    H124406   2.871   3.372  16.835
  997TIP3    H224407   2.870   3.419  16.691
  998TIP3   OH224408   3.675   4.102   1.612
  998TIP3    H124409   3.663   4.109   1.707
  998TIP3    H224410   3.650   4.012   1.592
  999TIP3   OH224411   0.919   1.650  12.331
  999TIP3    H124412   1.007   1.663  12.295
  999TIP3    H224413   0.864   1.715  12.288
 1000TIP3   OH224414   1.821   2.579  13.973
 1000TIP3    H124415   1.815   2.577  13.878
 1000TIP3    H224416   1.884   2.649  13.991
 1001TIP3   OH224417   1.754   2.071   2.555
 1001TIP3    H124418   1.784   1.983   2.576
 1001TIP3    H224419   1.812   2.129   2.604
 1002TIP3   OH224420   1.599   4.165   4.122
 1002TIP3    H124421   1.581   4.101   4.191
 1002TIP3    H224422   1.588   4.250   4.165
 1003TIP3   OH224423   6.486   6.159   4.411
 1003TIP3    H124424   6.477   6.249   4.443
 1003TIP3    H224425   6.573   6.157   4.371
 1004TIP3   OH224426   1.031   1.782   4.527
 1004TIP3    H124427   1.033   1.730   4.607
 1004TIP3    H224428   1.014   1.719   4.457
 1005TIP3   OH224429   3.643   6.150  16.268
 1005TIP3    H124430   3.702   6.202  16.322
 1005TIP3    H224431   3.665   6.059  16.289
 1006TIP3   OH224432   1.645   4.351   0.056
 1006TIP3    H124433   1.716   4.403   0.096
 1006TIP3    H224434   1.649   4.267   0.100
 1007TIP3   OH224435   5.592   4.879  16.117
 1007TIP3    H124436   5.626   4.966  16.137
 1007TIP3    H224437   5.497   4.890  16.117
 1008TIP3   OH224438   5.724   0.566  16.836
 1008TIP3    H124439   5.681   0.536  16.756
 1008TIP3    H224440   5.803   0.611  16.805
 1009TIP3   OH224441   1.035   2.343   3.560
 1009TIP3    H124442   1.093   2.365   3.488
 1009TIP3    H224443   0.961   2.298   3.519
 1010TIP3   OH224444   0.535   4.977  14.082
 1010TIP3    H124445   0.628   4.965  14.102
 1010TIP3    H224446   0.500   5.020  14.160
 1011TIP3   OH224447   4.978   4.908   0.302
 1011TIP3    H124448   4.886   4.887   0.318
 1011TIP3    H224449   4.988   4.904   0.207
 1012TIP3   OH224450   3.703   5.304  13.721
 1012TIP3    H124451   3.653   5.265  13.793
 1012TIP3    H224452   3.778   5.345  13.763
 1013TIP3   OH224453   5.769   1.956  13.359
 1013TIP3    H124454   5.817   1.877  13.335
 1013TIP3    H224455   5.826   2.028  13.332
 1014TIP3   OH224456   1.080   0.138   4.467
 1014TIP3    H124457   1.133   0.078   4.520
 1014TIP3    H224458   1.135   0.159   4.392
 1015TIP3   OH224459   3.175   6.528  17.008
 1015TIP3    H124460   3.166   6.559  16.918
 1015TIP3    H224461   3.252   6.574  17.042
 1016TIP3   OH224462   5.909   4.066  11.955
 1016TIP3    H124463   5.902   4.109  11.870
 1016TIP3    H224464   6.003   4.051  11.967
 1017TIP3   OH224465   6.351   4.069  14.118
 1017TIP3    H124466   6.309   4.086  14.034
 1017TIP3    H224467   6.346   3.974  14.128
 1018TIP3   OH224468   1.618   4.413   4.265
 1018TIP3    H124469   1.649   4.475   4.331
 1018TIP3    H224470   1.526   4.397   4.288
 1019TIP3   OH224471   0.539   5.047   0.967
 1019TIP3    H124472   0.550   5.139   0.943
 1019TIP3    H224473   0.452   5.025   0.933
 1020TIP3   OH224474   6.493   5.426  17.045
 1020TIP3    H124475   6.539   5.447  17.126
 1020TIP3    H224476   6.561   5.388  16.988
 1021TIP3   OH224477   4.517   0.804   5.313
 1021TIP3    H124478   4.525   0.802   5.409
 1021TIP3    H224479   4.467   0.883   5.295
 1022TIP3   OH224480   4.496   4.228  14.071
 1022TIP3    H124481   4.405   4.197  14.077
 1022TIP3    H224482   4.492   4.319  14.103
 1023TIP3   OH224483   6.738   5.977  12.195
 1023TIP3    H124484   6.832   5.969  12.210
 1023TIP3    H224485   6.702   5.892  12.223
 1024TIP3   OH224486   5.145   5.512   0.085
 1024TIP3    H124487   5.072   5.502   0.146
 1024TIP3    H224488   5.215   5.458   0.122
 1025TIP3   OH224489   0.378   3.787  11.286
 1025TIP3    H124490   0.313   3.855  11.266
 1025TIP3    H224491   0.459   3.835  11.302
 1026TIP3   OH224492   1.086   4.013   2.892
 1026TIP3    H124493   1.160   4.005   2.832
 1026TIP3    H224494   1.010   4.029   2.835
 1027TIP3   OH224495   3.741   5.630   1.641
 1027TIP3    H124496   3.728   5.535   1.643
 1027TIP3    H224497   3.779   5.647   1.555
 1028TIP3   OH224498   2.955   5.556  15.030
 1028TIP3    H124499   2.915   5.480  14.988
 1028TIP3    H224500   2.892   5.627  15.015
 1029TIP3   OH224501   2.564   2.717   5.031
 1029TIP3    H124502   2.609   2.757   5.105
 1029TIP3    H224503   2.472   2.711   5.058
 1030TIP3   OH224504   2.523   4.554   0.567
 1030TIP3    H124505   2.606   4.509   0.551
 1030TIP3    H224506   2.503   4.533   0.658
 1031TIP3   OH224507   1.334   0.962   3.213
 1031TIP3    H124508   1.263   1.015   3.177
 1031TIP3    H224509   1.305   0.939   3.301
 1032TIP3   OH224510   5.026   2.168  15.914
 1032TIP3    H124511   5.104   2.224  15.907
 1032TIP3    H224512   4.953   2.226  15.890
 1033TIP3   OH224513   0.117   5.147  13.783
 1033TIP3    H124514   0.178   5.146  13.857
 1033TIP3    H224515   0.170   5.178  13.709
 1034TIP3   OH224516   2.318   0.775  11.805
 1034TIP3    H124517   2.293   0.720  11.879
 1034TIP3    H224518   2.351   0.856  11.846
 1035TIP3   OH224519   3.477   5.330  11.640
 1035TIP3    H124520   3.537   5.271  11.686
 1035TIP3    H224521   3.534   5.385  11.587
 1036TIP3   OH224522   0.192   0.652  15.145
 1036TIP3    H124523   0.145   0.714  15.202
 1036TIP3    H224524   0.268   0.701  15.115
 1037TIP3   OH224525   6.524   3.622  10.658
 1037TIP3    H124526   6.604   3.577  10.686
 1037TIP3    H224527   6.500   3.676  10.734
 1038TIP3   OH224528   0.214   2.675   1.505
 1038TIP3    H124529   0.185   2.594   1.545
 1038TIP3    H224530   0.137   2.710   1.460
 1039TIP3   OH224531   2.566   2.083  17.046
 1039TIP3    H124532   2.662   2.078  17.037
 1039TIP3    H224533   2.549   2.036  17.128
 1040TIP3   OH224534   2.900   6.418  11.344
 1040TIP3    H124535   2.907   6.369  11.262
 1040TIP3    H224536   2.970   6.482  11.340
 1041TIP3   OH224537   1.850   4.132   3.630
 1041TIP3    H124538   1.817   4.175   3.551
 1041TIP3    H224539   1.880   4.046   3.600
 1042TIP3   OH224540   4.064   5.952   3.489
 1042TIP3    H124541   4.146   5.904   3.480
 1042TIP3    H224542   3.999   5.896   3.446
 1043TIP3   OH224543   2.670   3.590   6.205
 1043TIP3    H124544   2.661   3.598   6.110
 1043TIP3    H224545   2.669   3.495   6.221
 1044TIP3   OH224546   2.431   5.823  15.471
 1044TIP3    H124547   2.481   5.796  15.548
 1044TIP3    H224548   2.390   5.743  15.439
 1045TIP3   OH224549   4.468   1.964   1.168
 1045TIP3    H124550   4.535   1.937   1.231
 1045TIP3    H224551   4.385   1.947   1.213
 1046TIP3   OH224552   5.822   4.690   2.618
 1046TIP3    H124553   5.863   4.660   2.537
 1046TIP3    H224554   5.867   4.642   2.687
 1047TIP3   OH224555   1.389   1.234  17.173
 1047TIP3    H124556   1.378   1.159  17.114
 1047TIP3    H224557   1.478   1.264  17.157
 1048TIP3   OH224558   1.306   0.083  14.970
 1048TIP3    H124559   1.392   0.108  14.938
 1048TIP3    H224560   1.260   0.166  14.982
 1049TIP3   OH224561   6.057   1.062  17.059
 1049TIP3    H124562   6.137   1.075  17.008
 1049TIP3    H224563   6.051   0.968  17.072
 1050TIP3   OH224564   2.874   2.215  14.799
 1050TIP3    H124565   2.810   2.229  14.730
 1050TIP3    H224566   2.952   2.184  14.754
 1051TIP3   OH224567   3.609   4.841   1.216
 1051TIP3    H124568   3.674   4.904   1.246
 1051TIP3    H224569   3.615   4.769   1.279
 1052TIP3   OH224570   0.729   3.633   4.666
 1052TIP3    H124571   0.797   3.698   4.683
 1052TIP3    H224572   0.683   3.666   4.589
 1053TIP3   OH224573   5.346   3.377  13.391
 1053TIP3    H124574   5.292   3.449  13.422
 1053TIP3    H224575   5.379   3.405  13.306
 1054TIP3   OH224576   3.594   0.519  16.079
 1054TIP3    H124577   3.556   0.518  15.992
 1054TIP3    H224578   3.686   0.497  16.065
 1055TIP3   OH224579   3.912   0.495  16.992
 1055TIP3    H124580   3.932   0.534  16.907
 1055TIP3    H224581   3.837   0.437  16.975
 1056TIP3   OH224582   2.020   0.876  16.327
 1056TIP3    H124583   2.100   0.915  16.293
 1056TIP3    H224584   1.998   0.929  16.404
 1057TIP3   OH224585   4.125   4.756   3.956
 1057TIP3    H124586   4.210   4.780   3.917
 1057TIP3    H224587   4.135   4.776   4.049
 1058TIP3   OH224588   2.158   4.535  16.353
 1058TIP3    H124589   2.135   4.581  16.433
 1058TIP3    H224590   2.239   4.490  16.373
 1059TIP3   OH224591   3.748   3.319  16.358
 1059TIP3    H124592   3.661   3.283  16.342
 1059TIP3    H224593   3.756   3.391  16.296
 1060TIP3   OH224594   3.103   5.588   2.263
 1060TIP3    H124595   3.129   5.660   2.206
 1060TIP3    H224596   3.055   5.631   2.335
 1061TIP3   OH224597   2.887   4.539   1.354
 1061TIP3    H124598   2.834   4.460   1.351
 1061TIP3    H224599   2.972   4.510   1.387
 1062TIP3   OH224600   3.067   5.480  13.098
 1062TIP3    H124601   3.046   5.573  13.108
 1062TIP3    H224602   3.005   5.435  13.156
 1063TIP3   OH224603   4.600   0.760   1.977
 1063TIP3    H124604   4.549   0.841   1.988
 1063TIP3    H224605   4.686   0.780   2.013
 1064TIP3   OH224606   5.110   1.063   1.360
 1064TIP3    H124607   5.163   1.009   1.301
 1064TIP3    H224608   5.122   1.023   1.446
 1065TIP3   OH224609   2.226   4.303  15.540
 1065TIP3    H124610   2.209   4.296  15.446
 1065TIP3    H224611   2.284   4.229  15.559
 1066TIP3   OH224612   1.856   5.507  17.105
 1066TIP3    H124613   1.765   5.536  17.095
 1066TIP3    H224614   1.903   5.551  17.034
 1067TIP3   OH224615   5.013   4.865  13.966
 1067TIP3    H124616   5.075   4.932  13.994
 1067TIP3    H224617   5.049   4.831  13.884
 1068TIP3   OH224618   3.747   0.915  11.130
 1068TIP3    H124619   3.783   0.882  11.212
 1068TIP3    H224620   3.710   1.001  11.153
 1069TIP3   OH224621   0.706   0.816  15.166
 1069TIP3    H124622   0.753   0.813  15.249
 1069TIP3    H224623   0.720   0.905  15.133
 1070TIP3   OH224624   0.518   3.448   1.323
 1070TIP3    H124625   0.517   3.433   1.228
 1070TIP3    H224626   0.591   3.508   1.338
 1071TIP3   OH224627   4.674   4.790   1.491
 1071TIP3    H124628   4.613   4.800   1.564
 1071TIP3    H224629   4.626   4.823   1.415
 1072TIP3   OH224630   3.181   1.737  13.644
 1072TIP3    H124631   3.218   1.811  13.693
 1072TIP3    H224632   3.108   1.776  13.595
 1073TIP3   OH224633   1.798   6.009  16.344
 1073TIP3    H124634   1.752   5.938  16.388
 1073TIP3    H224635   1.850   5.966  16.276
 1074TIP3   OH224636   2.551   2.359  12.886
 1074TIP3    H124637   2.463   2.393  12.871
 1074TIP3    H224638   2.576   2.393  12.972
 1075TIP3   OH224639   3.574   0.697  11.044
 1075TIP3    H124640   3.625   0.773  11.073
 1075TIP3    H224641   3.568   0.641  11.122
 1076TIP3   OH224642   4.159   5.409  14.003
 1076TIP3    H124643   4.126   5.321  14.016
 1076TIP3    H224644   4.243   5.397  13.959
 1077TIP3   OH224645   3.940   6.605   1.875
 1077TIP3    H124646   3.861   6.594   1.928
 1077TIP3    H224647   3.943   6.527   1.819
 1078TIP3   OH224648   6.128   1.272   5.325
 1078TIP3    H124649   6.150   1.341   5.388
 1078TIP3    H224650   6.203   1.270   5.265
 1079TIP3   OH224651   5.789   5.486   4.339
 1079TIP3    H124652   5.763   5.407   4.386
 1079TIP3    H224653   5.779   5.464   4.246
 1080TIP3   OH224654   3.198   5.116  17.025
 1080TIP3    H124655   3.228   5.060  17.096
 1080TIP3    H224656   3.188   5.203  17.065
 1081TIP3   OH224657   0.445   0.674  11.223
 1081TIP3    H124658   0.521   0.615  11.219
 1081TIP3    H224659   0.392   0.639  11.295
 1082TIP3   OH224660   1.875   3.499   4.329
 1082TIP3    H124661   1.898   3.477   4.239
 1082TIP3    H224662   1.919   3.582   4.346
 1083TIP3   OH224663   1.467   0.799   1.483
 1083TIP3    H124664   1.402   0.736   1.514
 1083TIP3    H224665   1.455   0.876   1.539
 1084TIP3   OH224666   6.271   0.717   2.682
 1084TIP3    H124667   6.178   0.739   2.679
 1084TIP3    H224668   6.295   0.725   2.775
 1085TIP3   OH224669   2.524   1.190  13.356
 1085TIP3    H124670   2.590   1.253  13.328
 1085TIP3    H224671   2.447   1.244  13.376
 1086TIP3   OH224672   1.411   1.121  14.147
 1086TIP3    H124673   1.394   1.186  14.079
 1086TIP3    H224674   1.470   1.058  14.106
 1087TIP3   OH224675   3.392   5.064  10.482
 1087TIP3    H124676   3.351   4.978  10.485
 1087TIP3    H224677   3.341   5.113  10.418
 1088TIP3   OH224678   2.940   4.062   0.999
 1088TIP3    H124679   3.027   4.042   0.964
 1088TIP3    H224680   2.943   4.031   1.090
 1089TIP3   OH224681   3.176   3.476  11.456
 1089TIP3    H124682   3.221   3.400  11.492
 1089TIP3    H224683   3.239   3.515  11.396
 1090TIP3   OH224684   6.168   1.217  13.728
 1090TIP3    H124685   6.201   1.175  13.648
 1090TIP3    H224686   6.228   1.189  13.797
 1091TIP3   OH224687   3.223   2.139  16.194
 1091TIP3    H124688   3.305   2.189  16.189
 1091TIP3    H224689   3.196   2.130  16.103
 1092TIP3   OH224690   4.795   4.434   0.671
 1092TIP3    H124691   4.746   4.358   0.638
 1092TIP3    H224692   4.886   4.415   0.648
 1093TIP3   OH224693   1.821   6.469   3.762
 1093TIP3    H124694   1.881   6.532   3.801
 1093TIP3    H224695   1.735   6.495   3.795
 1094TIP3   OH224696   6.692   5.733  12.900
 1094TIP3    H124697   6.693   5.803  12.835
 1094TIP3    H224698   6.784   5.719  12.922
 1095TIP3   OH224699   1.067   0.121  12.515
 1095TIP3    H124700   1.118   0.124  12.434
 1095TIP3    H224701   1.093   0.199  12.563
 1096TIP3   OH224702   6.475   3.249  16.214
 1096TIP3    H124703   6.458   3.155  16.219
 1096TIP3    H224704   6.502   3.274  16.302
 1097TIP3   OH224705   0.020   4.302  16.159
 1097TIP3    H124706   0.083   4.232  16.142
 1097TIP3    H224707   0.059   4.353  16.230
 1098TIP3   OH224708   4.969   1.663  16.307
 1098TIP3    H124709   4.973   1.740  16.251
 1098TIP3    H224710   4.877   1.637  16.306
 1099TIP3   OH224711   0.456   1.021  14.716
 1099TIP3    H124712   0.442   1.104  14.670
 1099TIP3    H224713   0.526   0.978  14.668
 1100TIP3   OH224714   5.802   2.015  16.241
 1100TIP3    H124715   5.822   1.922  16.235
 1100TIP3    H224716   5.729   2.021  16.303
 1101TIP3   OH224717   3.834   4.003  15.711
 1101TIP3    H124718   3.816   4.093  15.683
 1101TIP3    H224719   3.902   3.972  15.651
 1102TIP3   OH224720   5.541   2.776   1.936
 1102TIP3    H124721   5.457   2.822   1.946
 1102TIP3    H224722   5.528   2.720   1.859
 1103TIP3   OH224723   4.295   1.420  15.424
 1103TIP3    H124724   4.366   1.372  15.467
 1103TIP3    H224725   4.287   1.380  15.338
 1104TIP3   OH224726   4.031   5.076   4.825
 1104TIP3    H124727   4.081   5.096   4.745
 1104TIP3    H224728   3.943   5.109   4.806
 1105TIP3   OH224729   1.051   3.243  12.377
 1105TIP3    H124730   1.096   3.306  12.434
 1105TIP3    H224731   0.960   3.274  12.375
 1106TIP3   OH224732   4.066   2.301  14.078
 1106TIP3    H124733   4.041   2.216  14.113
 1106TIP3    H224734   3.984   2.341  14.050
 1107TIP3   OH224735   0.932   6.325  14.306
 1107TIP3    H124736   0.999   6.370  14.356
 1107TIP3    H224737   0.849   6.364  14.334
 1108TIP3   OH224738   5.309   5.704   0.197
 1108TIP3    H124739   5.375   5.716   0.129
 1108TIP3    H224740   5.248   5.639   0.161
 1109TIP3   OH224741   2.212   0.434   2.413
 1109TIP3    H124742   2.142   0.463   2.472
 1109TIP3    H224743   2.212   0.339   2.420
 1110TIP3   OH224744   4.989   2.814  15.570
 1110TIP3    H124745   5.010   2.735  15.519
 1110TIP3    H224746   4.896   2.831  15.550
 1111TIP3   OH224747   3.755   5.680  13.930
 1111TIP3    H124748   3.770   5.663  14.023
 1111TIP3    H224749   3.675   5.732  13.928
 1112TIP3   OH224750   6.617   2.676  12.552
 1112TIP3    H124751   6.700   2.637  12.527
 1112TIP3    H224752   6.600   2.742  12.484
 1113TIP3   OH224753   5.560   2.115  11.529
 1113TIP3    H124754   5.480   2.164  11.510
 1113TIP3    H224755   5.558   2.041  11.468
 1114TIP3   OH224756   1.764   5.706   4.027
 1114TIP3    H124757   1.824   5.670   4.093
 1114TIP3    H224758   1.814   5.778   3.987
 1115TIP3   OH224759   4.807   0.860  14.983
 1115TIP3    H124760   4.719   0.823  14.979
 1115TIP3    H224761   4.811   0.904  15.068
 1116TIP3   OH224762   1.322   3.395  16.604
 1116TIP3    H124763   1.377   3.317  16.598
 1116TIP3    H224764   1.382   3.464  16.632
 1117TIP3   OH224765   3.220   4.105   1.199
 1117TIP3    H124766   3.212   4.191   1.240
 1117TIP3    H224767   3.139   4.059   1.224
 1118TIP3   OH224768   4.945   2.545   5.423
 1118TIP3    H124769   4.862   2.593   5.430
 1118TIP3    H224770   4.990   2.563   5.505
 1119TIP3   OH224771   3.637   1.595  16.669
 1119TIP3    H124772   3.558   1.624  16.623
 1119TIP3    H224773   3.627   1.500  16.675
 1120TIP3   OH224774   5.387   5.043  12.303
 1120TIP3    H124775   5.483   5.052  12.300
 1120TIP3    H224776   5.363   5.018  12.214
 1121TIP3   OH224777   5.746   0.940  16.910
 1121TIP3    H124778   5.775   1.007  16.848
 1121TIP3    H224779   5.800   0.863  16.890
 1122TIP3   OH224780   0.778   0.797   3.860
 1122TIP3    H124781   0.787   0.740   3.784
 1122TIP3    H224782   0.745   0.740   3.929
 1123TIP3   OH224783   6.342   3.475  13.694
 1123TIP3    H124784   6.272   3.517  13.644
 1123TIP3    H224785   6.423   3.507  13.653
 1124TIP3   OH224786   1.450   0.402   1.579
 1124TIP3    H124787   1.499   0.388   1.660
 1124TIP3    H224788   1.381   0.335   1.581
 1125TIP3   OH224789   0.119   4.912   3.845
 1125TIP3    H124790   0.077   4.881   3.764
 1125TIP3    H224791   0.209   4.882   3.837
 1126TIP3   OH224792   6.011   3.246  12.574
 1126TIP3    H124793   5.996   3.174  12.512
 1126TIP3    H224794   5.950   3.314  12.548
 1127TIP3   OH224795   6.386   2.158  11.824
 1127TIP3    H124796   6.330   2.171  11.748
 1127TIP3    H224797   6.327   2.126  11.892
 1128TIP3   OH224798   1.982   2.917   0.020
 1128TIP3    H124799   2.019   2.885   0.102
 1128TIP3    H224800   1.921   2.849  -0.007
 1129TIP3   OH224801   3.654   3.316  12.624
 1129TIP3    H124802   3.568   3.343  12.656
 1129TIP3    H224803   3.716   3.345  12.691
 1130TIP3   OH224804   6.270   3.818  14.173
 1130TIP3    H124805   6.208   3.808  14.102
 1130TIP3    H224806   6.248   3.748  14.234
 1131TIP3   OH224807   1.441   5.062  13.491
 1131TIP3    H124808   1.533   5.034  13.494
 1131TIP3    H224809   1.426   5.103  13.576
 1132TIP3   OH224810   0.398   4.438   0.453
 1132TIP3    H124811   0.315   4.486   0.442
 1132TIP3    H224812   0.452   4.467   0.380
 1133TIP3   OH224813   3.043   3.415   0.300
 1133TIP3    H124814   3.110   3.457   0.355
 1133TIP3    H224815   2.963   3.418   0.353
 1134TIP3   OH224816   5.274   1.095   0.380
 1134TIP3    H124817   5.340   1.135   0.437
 1134TIP3    H224818   5.257   1.010   0.420
 1135TIP3   OH224819   0.226   2.975   4.294
 1135TIP3    H124820   0.144   2.987   4.247
 1135TIP3    H224821   0.202   2.934   4.377
 1136TIP3   OH224822   2.435   5.478   5.769
 1136TIP3    H124823   2.382   5.557   5.776
 1136TIP3    H224824   2.495   5.481   5.844
 1137TIP3   OH224825   1.933   1.959  16.160
 1137TIP3    H124826   1.882   1.900  16.216
 1137TIP3    H224827   1.871   2.026  16.132
 1138TIP3   OH224828   3.929   6.311   5.718
 1138TIP3    H124829   3.933   6.290   5.624
 1138TIP3    H224830   3.837   6.300   5.741
 1139TIP3   OH224831   3.184   1.425  15.462
 1139TIP3    H124832   3.119   1.438  15.392
 1139TIP3    H224833   3.251   1.491  15.444
 1140TIP3   OH224834   4.582   5.319  15.860
 1140TIP3    H124835   4.570   5.345  15.769
 1140TIP3    H224836   4.498   5.280  15.884
 1141TIP3   OH224837   1.847   3.093   0.403
 1141TIP3    H124838   1.777   3.044   0.359
 1141TIP3    H224839   1.825   3.184   0.387
 1142TIP3   OH224840   3.776   1.572  16.213
 1142TIP3    H124841   3.837   1.509  16.174
 1142TIP3    H224842   3.743   1.529  16.292
 1143TIP3   OH224843   1.230   4.324  13.534
 1143TIP3    H124844   1.303   4.375  13.568
 1143TIP3    H224845   1.267   4.237  13.518
 1144TIP3   OH224846   4.778   0.908   3.657
 1144TIP3    H124847   4.682   0.914   3.649
 1144TIP3    H224848   4.792   0.847   3.729
 1145TIP3   OH224849   2.187   2.385   5.422
 1145TIP3    H124850   2.187   2.403   5.517
 1145TIP3    H224851   2.206   2.470   5.382
 1146TIP3   OH224852   3.896   2.967  14.368
 1146TIP3    H124853   3.825   2.907  14.348
 1146TIP3    H224854   3.857   3.054  14.361
 1147TIP3   OH224855   3.020   0.250  15.074
 1147TIP3    H124856   2.927   0.273  15.071
 1147TIP3    H224857   3.023   0.157  15.049
 1148TIP3   OH224858   2.605   2.024   5.447
 1148TIP3    H124859   2.549   2.097   5.421
 1148TIP3    H224860   2.632   1.984   5.364
 1149TIP3   OH224861   2.465   5.722  14.021
 1149TIP3    H124862   2.517   5.787  13.974
 1149TIP3    H224863   2.528   5.655  14.047
 1150TIP3   OH224864   6.129   4.039   1.409
 1150TIP3    H124865   6.200   4.090   1.448
 1150TIP3    H224866   6.066   4.028   1.480
 1151TIP3   OH224867   4.779   4.970   5.903
 1151TIP3    H124868   4.831   5.028   5.959
 1151TIP3    H224869   4.827   4.887   5.903
 1152TIP3   OH224870   4.503   4.685  15.363
 1152TIP3    H124871   4.586   4.700  15.317
 1152TIP3    H224872   4.437   4.728  15.308
 1153TIP3   OH224873   2.369   4.041   1.727
 1153TIP3    H124874   2.357   4.108   1.660
 1153TIP3    H224875   2.464   4.038   1.742
 1154TIP3   OH224876   6.156   5.052  12.204
 1154TIP3    H124877   6.084   4.999  12.238
 1154TIP3    H224878   6.115   5.112  12.142
 1155TIP3   OH224879   0.405   5.282  17.163
 1155TIP3    H124880   0.351   5.345  17.115
 1155TIP3    H224881   0.483   5.332  17.189
 1156TIP3   OH224882   0.706   1.060  14.387
 1156TIP3    H124883   0.673   1.055  14.298
 1156TIP3    H224884   0.802   1.058  14.378
 1157TIP3   OH224885   6.169   1.838   3.948
 1157TIP3    H124886   6.144   1.817   4.038
 1157TIP3    H224887   6.099   1.801   3.894
 1158TIP3   OH224888   6.106   3.270  15.716
 1158TIP3    H124889   6.125   3.281  15.623
 1158TIP3    H224890   6.175   3.320  15.760
 1159TIP3   OH224891   1.176   5.426  11.687
 1159TIP3    H124892   1.272   5.418  11.681
 1159TIP3    H224893   1.163   5.513  11.725
 1160TIP3   OH224894   1.774   2.873  11.305
 1160TIP3    H124895   1.785   2.956  11.257
 1160TIP3    H224896   1.681   2.854  11.297
 1161TIP3   OH224897   6.162   5.820   3.814
 1161TIP3    H124898   6.070   5.849   3.815
 1161TIP3    H224899   6.174   5.784   3.727
 1162TIP3   OH224900   1.912   4.351   1.632
 1162TIP3    H124901   1.948   4.374   1.547
 1162TIP3    H224902   1.824   4.318   1.613
 1163TIP3   OH224903   0.447   6.298   1.527
 1163TIP3    H124904   0.452   6.225   1.589
 1163TIP3    H224905   0.506   6.273   1.456
 1164TIP3   OH224906   3.081   2.780  13.038
 1164TIP3    H124907   3.059   2.837  12.964
 1164TIP3    H224908   3.053   2.831  13.115
 1165TIP3   OH224909   2.006   1.743   5.495
 1165TIP3    H124910   2.004   1.811   5.561
 1165TIP3    H224911   2.091   1.754   5.451
 1166TIP3   OH224912   2.012   0.778   1.161
 1166TIP3    H124913   1.979   0.688   1.158
 1166TIP3    H224914   1.965   0.824   1.091
 1167TIP3   OH224915   5.745   3.427  14.874
 1167TIP3    H124916   5.807   3.355  14.881
 1167TIP3    H224917   5.749   3.471  14.959
 1168TIP3   OH224918   5.078   3.753  11.686
 1168TIP3    H124919   5.056   3.712  11.770
 1168TIP3    H224920   5.086   3.847  11.707
 1169TIP3   OH224921   4.674   3.538  11.902
 1169TIP3    H124922   4.717   3.455  11.923
 1169TIP3    H224923   4.723   3.571  11.826
 1170TIP3   OH224924   5.860   5.099   3.736
 1170TIP3    H124925   5.905   5.033   3.685
 1170TIP3    H224926   5.923   5.125   3.804
 1171TIP3   OH224927   0.115   5.138  14.590
 1171TIP3    H124928   0.056   5.209  14.564
 1171TIP3    H224929   0.060   5.077  14.639
 1172TIP3   OH224930   1.282   0.886  11.450
 1172TIP3    H124931   1.361   0.849  11.411
 1172TIP3    H224932   1.210   0.841  11.407
 1173TIP3   OH224933   0.372   5.632  14.523
 1173TIP3    H124934   0.420   5.549  14.518
 1173TIP3    H224935   0.420   5.684  14.587
 1174TIP3   OH224936   4.192   5.000  11.757
 1174TIP3    H124937   4.248   5.071  11.727
 1174TIP3    H224938   4.106   5.019  11.721
 1175TIP3   OH224939   3.198   2.602  15.486
 1175TIP3    H124940   3.187   2.667  15.417
 1175TIP3    H224941   3.186   2.518  15.442
 1176TIP3   OH224942   1.878   3.352   0.358
 1176TIP3    H124943   1.919   3.428   0.316
 1176TIP3    H224944   1.795   3.385   0.391
 1177TIP3   OH224945   0.068   4.268  14.025
 1177TIP3    H124946  -0.024   4.292  14.037
 1177TIP3    H224947   0.069   4.173  14.032
 1178TIP3   OH224948   6.069   4.604  14.743
 1178TIP3    H124949   6.158   4.568  14.740
 1178TIP3    H224950   6.080   4.690  14.786
 1179TIP3   OH224951   3.424   5.290   2.410
 1179TIP3    H124952   3.469   5.369   2.379
 1179TIP3    H224953   3.334   5.300   2.380
 1180TIP3   OH224954   2.756   5.785  12.542
 1180TIP3    H124955   2.818   5.800  12.471
 1180TIP3    H224956   2.671   5.812  12.505
 1181TIP3   OH224957   0.809   5.305  15.931
 1181TIP3    H124958   0.901   5.282  15.921
 1181TIP3    H224959   0.761   5.226  15.906
 1182TIP3   OH224960   2.653   6.649  13.307
 1182TIP3    H124961   2.682   6.564  13.276
 1182TIP3    H224962   2.600   6.630  13.385
 1183TIP3   OH224963   0.516   0.162  12.062
 1183TIP3    H124964   0.429   0.159  12.020
 1183TIP3    H224965   0.511   0.098  12.132
 1184TIP3   OH224966   5.834   1.281   2.941
 1184TIP3    H124967   5.903   1.337   2.905
 1184TIP3    H224968   5.872   1.242   3.019
 1185TIP3   OH224969   1.211   2.687   1.447
 1185TIP3    H124970   1.177   2.776   1.435
 1185TIP3    H224971   1.195   2.644   1.363
 1186TIP3   OH224972   3.407   1.166  15.359
 1186TIP3    H124973   3.382   1.095  15.300
 1186TIP3    H224974   3.334   1.175  15.420
 1187TIP3   OH224975   6.499   3.814   2.273
 1187TIP3    H124976   6.524   3.743   2.332
 1187TIP3    H224977   6.404   3.805   2.265
 1188TIP3   OH224978   5.942   3.639   6.806
 1188TIP3    H124979   5.952   3.567   6.744
 1188TIP3    H224980   6.002   3.618   6.877
 1189TIP3   OH224981   1.248   6.647   5.264
 1189TIP3    H124982   1.251   6.697   5.183
 1189TIP3    H224983   1.193   6.699   5.323
 1190TIP3   OH224984   5.599   3.467   2.218
 1190TIP3    H124985   5.665   3.405   2.248
 1190TIP3    H224986   5.574   3.436   2.131
 1191TIP3   OH224987   2.589   6.559   1.851
 1191TIP3    H124988   2.606   6.520   1.766
 1191TIP3    H224989   2.575   6.484   1.909
 1192TIP3   OH224990   5.997   5.612   0.601
 1192TIP3    H124991   6.062   5.648   0.662
 1192TIP3    H224992   5.945   5.688   0.573
 1193TIP3   OH224993   5.368   4.687   0.557
 1193TIP3    H124994   5.453   4.705   0.517
 1193TIP3    H224995   5.304   4.721   0.494
 1194TIP3   OH224996   4.978   3.325   1.243
 1194TIP3    H124997   5.071   3.320   1.264
 1194TIP3    H224998   4.938   3.256   1.297
 1195TIP3   OH224999   1.985   4.032  14.006
 1195TIP3    H125000   2.004   4.041  14.099
 1195TIP3    H225001   2.061   4.070  13.962
 1196TIP3   OH225002   2.848   1.775  12.130
 1196TIP3    H125003   2.782   1.792  12.063
 1196TIP3    H225004   2.919   1.731  12.084
 1197TIP3   OH225005   1.307   5.824   1.036
 1197TIP3    H125006   1.288   5.732   1.016
 1197TIP3    H225007   1.350   5.857   0.957
 1198TIP3   OH225008   1.001   1.687  16.914
 1198TIP3    H125009   0.997   1.694  16.819
 1198TIP3    H225010   0.910   1.672  16.940
 1199TIP3   OH225011   5.180   0.957   3.570
 1199TIP3    H125012   5.166   0.918   3.657
 1199TIP3    H225013   5.174   0.884   3.509
 1200TIP3   OH225014   1.978   0.016  11.114
 1200TIP3    H125015   1.917   0.073  11.161
 1200TIP3    H225016   2.045   0.076  11.080
 1201TIP3   OH225017   6.216   5.709   2.408
 1201TIP3    H125018   6.150   5.643   2.427
 1201TIP3    H225019   6.264   5.676   2.332
 1202TIP3   OH225020   5.260   0.298   4.765
 1202TIP3    H125021   5.283   0.269   4.853
 1202TIP3    H225022   5.217   0.222   4.725
 1203TIP3   OH225023   3.177   3.830   1.954
 1203TIP3    H125024   3.116   3.894   1.991
 1203TIP3    H225025   3.148   3.819   1.863
 1204TIP3   OH225026   1.602   6.177   1.177
 1204TIP3    H125027   1.577   6.115   1.246
 1204TIP3    H225028   1.639   6.121   1.108
 1205TIP3   OH225029   0.922   4.093   2.672
 1205TIP3    H125030   0.999   4.090   2.615
 1205TIP3    H225031   0.855   4.137   2.620
 1206TIP3   OH225032   6.690   4.586  14.403
 1206TIP3    H125033   6.607   4.540  14.396
 1206TIP3    H225034   6.744   4.550  14.333
 1207TIP3   OH225035   4.739   5.363  11.754
 1207TIP3    H125036   4.727   5.314  11.835
 1207TIP3    H225037   4.676   5.325  11.693
 1208TIP3   OH225038   4.399   5.577   1.740
 1208TIP3    H125039   4.479   5.600   1.693
 1208TIP3    H225040   4.409   5.618   1.826
 1209TIP3   OH225041   1.077   1.350   5.202
 1209TIP3    H125042   1.069   1.259   5.174
 1209TIP3    H225043   1.085   1.345   5.297
 1210TIP3   OH225044   5.185   6.156  10.812
 1210TIP3    H125045   5.177   6.074  10.860
 1210TIP3    H225046   5.275   6.156  10.779
 1211TIP3   OH225047   0.046   4.114  16.363
 1211TIP3    H125048  -0.000   4.137  16.444
 1211TIP3    H225049  -0.013   4.054  16.318
 1212TIP3   OH225050   1.174   4.687   5.444
 1212TIP3    H125051   1.258   4.650   5.419
 1212TIP3    H225052   1.112   4.614   5.437
 1213TIP3   OH225053   6.520   5.532  14.696
 1213TIP3    H125054   6.507   5.439  14.715
 1213TIP3    H225055   6.564   5.533  14.611
 1214TIP3   OH225056   4.314   2.485  15.283
 1214TIP3    H125057   4.301   2.416  15.348
 1214TIP3    H225058   4.406   2.476  15.258
 1215TIP3   OH225059   0.748   5.991   5.093
 1215TIP3    H125060   0.677   5.938   5.128
 1215TIP3    H225061   0.807   5.929   5.050
 1216TIP3   OH225062   3.825   3.666   2.652
 1216TIP3    H125063   3.730   3.678   2.647
 1216TIP3    H225064   3.845   3.605   2.582
 1217TIP3   OH225065   5.965   6.374  10.284
 1217TIP3    H125066   5.892   6.423  10.246
 1217TIP3    H225067   6.009   6.437  10.340
 1218TIP3   OH225068   0.342   6.417  13.991
 1218TIP3    H125069   0.406   6.461  13.936
 1218TIP3    H225070   0.292   6.488  14.031
 1219TIP3   OH225071   6.338   5.456  12.683
 1219TIP3    H125072   6.283   5.385  12.715
 1219TIP3    H225073   6.327   5.454  12.588
 1220TIP3   OH225074   4.903   5.137  12.279
 1220TIP3    H125075   4.944   5.156  12.195
 1220TIP3    H225076   4.976   5.110  12.335
 1221TIP3   OH225077   0.560   5.571  16.494
 1221TIP3    H125078   0.628   5.628  16.529
 1221TIP3    H225079   0.482   5.591  16.545
 1222TIP3   OH225080   0.029   3.884   3.682
 1222TIP3    H125081   0.066   3.840   3.758
 1222TIP3    H225082   0.104   3.926   3.640
 1223TIP3   OH225083   0.599   3.060  15.857
 1223TIP3    H125084   0.514   3.097  15.881
 1223TIP3    H225085   0.622   3.105  15.776
 1224TIP3   OH225086   3.016   6.575   4.687
 1224TIP3    H125087   2.955   6.523   4.634
 1224TIP3    H225088   2.960   6.632   4.739
 1225TIP3   OH225089   6.254   2.409  16.965
 1225TIP3    H125090   6.160   2.396  16.975
 1225TIP3    H225091   6.265   2.504  16.969
 1226TIP3   OH225092   6.258   6.138  10.794
 1226TIP3    H125093   6.350   6.157  10.781
 1226TIP3    H225094   6.212   6.199  10.736
 1227TIP3   OH225095   2.023   5.289  16.871
 1227TIP3    H125096   2.107   5.334  16.863
 1227TIP3    H225097   2.045   5.199  16.893
 1228TIP3   OH225098   6.543   4.709  14.134
 1228TIP3    H125099   6.492   4.754  14.201
 1228TIP3    H225100   6.492   4.632  14.112
 1229TIP3   OH225101   5.448   5.057   5.224
 1229TIP3    H125102   5.543   5.046   5.226
 1229TIP3    H225103   5.417   4.997   5.292
 1230TIP3   OH225104   6.725   4.602   1.862
 1230TIP3    H125105   6.661   4.539   1.895
 1230TIP3    H225106   6.728   4.585   1.767
 1231TIP3   OH225107   6.322   0.404   3.904
 1231TIP3    H125108   6.384   0.465   3.945
 1231TIP3    H225109   6.245   0.458   3.886
 1232TIP3   OH225110   4.926   4.330  13.781
 1232TIP3    H125111   4.874   4.410  13.778
 1232TIP3    H225112   4.867   4.262  13.748
 1233TIP3   OH225113   0.094   2.858   0.985
 1233TIP3    H125114   0.006   2.894   0.991
 1233TIP3    H225115   0.123   2.879   0.896
 1234TIP3   OH225116   3.601   4.664   4.933
 1234TIP3    H125117   3.580   4.757   4.944
 1234TIP3    H225118   3.695   4.659   4.946
 1235TIP3   OH225119   3.616   5.987  17.135
 1235TIP3    H125120   3.645   5.936  17.211
 1235TIP3    H225121   3.651   6.075  17.150
 1236TIP3   OH225122   0.809   4.839   3.655
 1236TIP3    H125123   0.823   4.793   3.572
 1236TIP3    H225124   0.716   4.859   3.657
 1237TIP3   OH225125   2.057   2.125  12.752
 1237TIP3    H125126   2.072   2.218  12.770
 1237TIP3    H225127   1.962   2.117  12.746
 1238TIP3   OH225128   0.564   3.327  11.016
 1238TIP3    H125129   0.602   3.323  11.104
 1238TIP3    H225130   0.547   3.420  11.002
 1239TIP3   OH225131   2.298   1.245  16.892
 1239TIP3    H125132   2.339   1.302  16.957
 1239TIP3    H225133   2.292   1.298  16.813
 1240TIP3   OH225134   3.677   5.267  11.830
 1240TIP3    H125135   3.733   5.334  11.870
 1240TIP3    H225136   3.724   5.185  11.844
 1241TIP3   OH225137   0.508   5.639   3.886
 1241TIP3    H125138   0.464   5.711   3.932
 1241TIP3    H225139   0.500   5.564   3.945
 1242TIP3   OH225140   4.884   0.720  12.396
 1242TIP3    H125141   4.847   0.695  12.480
 1242TIP3    H225142   4.811   0.716  12.335
 1243TIP3   OH225143   4.539   0.802   6.041
 1243TIP3    H125144   4.560   0.868   6.106
 1243TIP3    H225145   4.537   0.719   6.089
 1244TIP3   OH225146   4.497   3.973  15.567
 1244TIP3    H125147   4.460   3.972  15.656
 1244TIP3    H225148   4.476   3.886  15.533
 1245TIP3   OH225149   5.246   3.008  14.919
 1245TIP3    H125150   5.206   2.941  14.864
 1245TIP3    H225151   5.245   3.087  14.866
 1246TIP3   OH225152   3.938   4.582   4.087
 1246TIP3    H125153   3.974   4.586   4.176
 1246TIP3    H225154   3.980   4.654   4.041
 1247TIP3   OH225155   0.497   4.654   6.416
 1247TIP3    H125156   0.581   4.699   6.428
 1247TIP3    H225157   0.466   4.635   6.504
 1248TIP3   OH225158   1.888   2.562  12.402
 1248TIP3    H125159   1.932   2.477  12.409
 1248TIP3    H225160   1.932   2.606  12.329
 1249TIP3   OH225161   6.751   5.925  16.358
 1249TIP3    H125162   6.697   5.982  16.413
 1249TIP3    H225163   6.704   5.919  16.275
 1250TIP3   OH225164   5.786   5.732  16.403
 1250TIP3    H125165   5.763   5.730  16.310
 1250TIP3    H225166   5.852   5.800  16.409
 1251TIP3   OH225167   4.791   6.295   1.662
 1251TIP3    H125168   4.882   6.264   1.665
 1251TIP3    H225169   4.760   6.289   1.752
 1252TIP3   OH225170   4.303   1.644   4.417
 1252TIP3    H125171   4.309   1.557   4.457
 1252TIP3    H225172   4.265   1.699   4.485
 1253TIP3   OH225173   6.567   6.369   0.189
 1253TIP3    H125174   6.473   6.384   0.176
 1253TIP3    H225175   6.597   6.445   0.238
 1254TIP3   OH225176   3.324   4.454   2.729
 1254TIP3    H125177   3.271   4.530   2.705
 1254TIP3    H225178   3.415   4.484   2.718
 1255TIP3   OH225179   4.036   0.653  13.635
 1255TIP3    H125180   3.991   0.583  13.587
 1255TIP3    H225181   3.988   0.733  13.611
 1256TIP3   OH225182   3.401   1.939  13.827
 1256TIP3    H125183   3.418   1.912  13.736
 1256TIP3    H225184   3.483   1.980  13.855
 1257TIP3   OH225185   5.009   6.403   4.708
 1257TIP3    H125186   5.035   6.329   4.653
 1257TIP3    H225187   5.083   6.463   4.706
 1258TIP3   OH225188   6.163   5.837   1.856
 1258TIP3    H125189   6.177   5.896   1.930
 1258TIP3    H225190   6.068   5.830   1.849
 1259TIP3   OH225191   4.068   6.558   4.010
 1259TIP3    H125192   4.002   6.491   4.026
 1259TIP3    H225193   4.152   6.513   4.019
 1260TIP3   OH225194   1.671   4.549  15.575
 1260TIP3    H125195   1.679   4.469  15.627
 1260TIP3    H225196   1.614   4.606  15.626
 1261TIP3   OH225197   4.645   4.540  14.495
 1261TIP3    H125198   4.678   4.627  14.514
 1261TIP3    H225199   4.663   4.489  14.574
 1262TIP3   OH225200   3.805   5.614   5.029
 1262TIP3    H125201   3.858   5.692   5.020
 1262TIP3    H225202   3.777   5.592   4.940
 1263TIP3   OH225203   4.670   2.225   6.335
 1263TIP3    H125204   4.670   2.309   6.382
 1263TIP3    H225205   4.578   2.199   6.333
 1264TIP3   OH225206   2.016   4.580   1.681
 1264TIP3    H125207   2.099   4.567   1.637
 1264TIP3    H225208   1.967   4.499   1.664
 1265TIP3   OH225209   5.444   6.232  11.170
 1265TIP3    H125210   5.359   6.189  11.174
 1265TIP3    H225211   5.463   6.258  11.260
 1266TIP3   OH225212   1.493   3.187  15.382
 1266TIP3    H125213   1.547   3.140  15.447
 1266TIP3    H225214   1.408   3.196  15.424
 1267TIP3   OH225215   6.212   0.656  16.621
 1267TIP3    H125216   6.262   0.655  16.539
 1267TIP3    H225217   6.121   0.647  16.593
 1268TIP3   OH225218   4.610   4.095   2.232
 1268TIP3    H125219   4.579   4.164   2.174
 1268TIP3    H225220   4.575   4.119   2.318
 1269TIP3   OH225221   0.954   0.085   0.321
 1269TIP3    H125222   0.894   0.032   0.269
 1269TIP3    H225223   0.901   0.158   0.352
 1270TIP3   OH225224   3.738   2.942  13.904
 1270TIP3    H125225   3.763   2.872  13.964
 1270TIP3    H225226   3.675   2.902  13.845
 1271TIP3   OH225227   2.991   1.634   1.434
 1271TIP3    H125228   3.046   1.560   1.411
 1271TIP3    H225229   2.901   1.604   1.417
 1272TIP3   OH225230   2.912   3.222  12.152
 1272TIP3    H125231   2.892   3.154  12.087
 1272TIP3    H225232   2.958   3.290  12.102
 1273TIP3   OH225233   2.188   4.240   4.142
 1273TIP3    H125234   2.280   4.235   4.114
 1273TIP3    H225235   2.189   4.299   4.217
 1274TIP3   OH225236   0.088   3.514   1.038
 1274TIP3    H125237   0.026   3.472   0.978
 1274TIP3    H225238   0.171   3.513   0.991
 1275TIP3   OH225239   0.154   5.974   6.011
 1275TIP3    H125240   0.168   5.916   6.085
 1275TIP3    H225241   0.163   6.062   6.047
 1276TIP3   OH225242   0.157   2.594   0.648
 1276TIP3    H125243   0.120   2.588   0.736
 1276TIP3    H225244   0.179   2.504   0.625
 1277TIP3   OH225245   5.926   0.581  16.549
 1277TIP3    H125246   5.859   0.514  16.568
 1277TIP3    H225247   5.883   0.663  16.571
 1278TIP3   OH225248   6.556   5.308   5.747
 1278TIP3    H125249   6.578   5.341   5.659
 1278TIP3    H225250   6.519   5.384   5.792
 1279TIP3   OH225251   0.253   3.986  12.981
 1279TIP3    H125252   0.225   4.026  13.063
 1279TIP3    H225253   0.280   3.898  13.006
 1280TIP3   OH225254   2.934   4.560   2.745
 1280TIP3    H125255   3.007   4.567   2.683
 1280TIP3    H225256   2.964   4.608   2.822
 1281TIP3   OH225257   3.598   2.090  16.776
 1281TIP3    H125258   3.643   2.030  16.836
 1281TIP3    H225259   3.578   2.035  16.700
 1282TIP3   OH225260   3.229   0.420  13.644
 1282TIP3    H125261   3.236   0.467  13.727
 1282TIP3    H225262   3.231   0.488  13.577
 1283TIP3   OH225263   1.974   2.171   6.568
 1283TIP3    H125264   1.941   2.115   6.497
 1283TIP3    H225265   2.026   2.112   6.622
 1284TIP3   OH225266   2.029   3.122  17.053
 1284TIP3    H125267   2.081   3.181  17.108
 1284TIP3    H225268   2.008   3.049  17.110
 1285TIP3   OH225269   3.646   0.610  12.321
 1285TIP3    H125270   3.573   0.561  12.285
 1285TIP3    H225271   3.670   0.562  12.401
 1286TIP3   OH225272   1.796   1.381   4.032
 1286TIP3    H125273   1.847   1.381   4.114
 1286TIP3    H225274   1.705   1.373   4.061
 1287TIP3   OH225275   6.600   5.026   1.062
 1287TIP3    H125276   6.678   5.080   1.053
 1287TIP3    H225277   6.541   5.077   1.117
 1288TIP3   OH225278   2.802   4.676  12.361
 1288TIP3    H125279   2.782   4.748  12.421
 1288TIP3    H225280   2.718   4.631  12.349
 1289TIP3   OH225281   6.621   4.548  16.979
 1289TIP3    H125282   6.535   4.589  16.974
 1289TIP3    H225283   6.678   4.607  16.928
 1290TIP3   OH225284   4.444   2.199   1.364
 1290TIP3    H125285   4.372   2.163   1.416
 1290TIP3    H225286   4.445   2.146   1.284
 1291TIP3   OH225287   3.228   2.868  12.174
 1291TIP3    H125288   3.238   2.954  12.216
 1291TIP3    H225289   3.134   2.853  12.173
 1292TIP3   OH225290   1.813   5.682  15.985
 1292TIP3    H125291   1.795   5.721  15.899
 1292TIP3    H225292   1.742   5.712  16.041
 1293TIP3   OH225293   6.412   4.560   0.353
 1293TIP3    H125294   6.421   4.549   0.448
 1293TIP3    H225295   6.320   4.586   0.341
 1294TIP3   OH225296   5.144   0.384  12.800
 1294TIP3    H125297   5.177   0.296  12.819
 1294TIP3    H225298   5.053   0.383  12.831
 1295TIP3   OH225299   1.064   6.432   3.655
 1295TIP3    H125300   1.000   6.362   3.652
 1295TIP3    H225301   1.145   6.389   3.683
 1296TIP3   OH225302   4.566   3.353  12.136
 1296TIP3    H125303   4.649   3.318  12.103
 1296TIP3    H225304   4.568   3.335  12.230
 1297TIP3   OH225305   2.662   1.058  13.864
 1297TIP3    H125306   2.610   1.118  13.811
 1297TIP3    H225307   2.703   0.999  13.800
 1298TIP3   OH225308   2.310   3.137   4.648
 1298TIP3    H125309   2.221   3.145   4.682
 1298TIP3    H225310   2.301   3.090   4.565
 1299TIP3   OH225311   6.114   0.170   3.298
 1299TIP3    H125312   6.031   0.147   3.256
 1299TIP3    H225313   6.089   0.197   3.387
 1300TIP3   OH225314   2.669   1.909  16.358
 1300TIP3    H125315   2.756   1.926  16.321
 1300TIP3    H225316   2.676   1.821  16.395
 1301TIP3   OH225317   6.627   3.112   0.403
 1301TIP3    H125318   6.637   3.111   0.308
 1301TIP3    H225319   6.604   3.022   0.426
 1302TIP3   OH225320   3.394   5.782  14.669
 1302TIP3    H125321   3.346   5.859  14.638
 1302TIP3    H225322   3.434   5.811  14.751
 1303TIP3   OH225323   0.547   5.338   5.020
 1303TIP3    H125324   0.462   5.331   4.976
 1303TIP3    H225325   0.565   5.249   5.052
 1304TIP3   OH225326   3.539   5.672  16.137
 1304TIP3    H125327   3.622   5.689  16.092
 1304TIP3    H225328   3.472   5.709  16.080
 1305TIP3   OH225329   2.818   3.477  16.188
 1305TIP3    H125330   2.766   3.421  16.247
 1305TIP3    H225331   2.837   3.421  16.112
 1306TIP3   OH225332   2.718   6.764   2.111
 1306TIP3    H125333   2.680   6.785   2.025
 1306TIP3    H225334   2.652   6.794   2.174
 1307TIP3   OH225335   1.763   2.561  12.904
 1307TIP3    H125336   1.679   2.520  12.881
 1307TIP3    H225337   1.798   2.593  12.821
 1308TIP3   OH225338   3.328   3.692   1.252
 1308TIP3    H125339   3.236   3.673   1.269
 1308TIP3    H225340   3.336   3.692   1.157
 1309TIP3   OH225341   5.692   0.174  16.706
 1309TIP3    H125342   5.733   0.212  16.784
 1309TIP3    H225343   5.755   0.108  16.675
 1310TIP3   OH225344   5.804   4.989  15.095
 1310TIP3    H125345   5.813   5.043  15.174
 1310TIP3    H225346   5.893   4.958  15.077
 1311TIP3   OH225347   0.058   2.298  12.062
 1311TIP3    H125348   0.022   2.250  11.987
 1311TIP3    H225349   0.128   2.351  12.023
 1312TIP3   OH225350   5.752   5.449   2.057
 1312TIP3    H125351   5.760   5.399   2.138
 1312TIP3    H225352   5.838   5.442   2.016
 1313TIP3   OH225353   5.144   6.602   1.375
 1313TIP3    H125354   5.072   6.541   1.362
 1313TIP3    H225355   5.168   6.630   1.287
 1314TIP3   OH225356   6.199   0.604   4.275
 1314TIP3    H125357   6.128   0.651   4.230
 1314TIP3    H225358   6.202   0.518   4.232
 1315TIP3   OH225359   0.689   5.165  13.335
 1315TIP3    H125360   0.740   5.172  13.416
 1315TIP3    H225361   0.614   5.111  13.359
 1316TIP3   OH225362   5.020   4.913  16.016
 1316TIP3    H125363   4.947   4.975  16.015
 1316TIP3    H225364   4.995   4.848  16.081
 1317TIP3   OH225365   0.342   2.742   0.878
 1317TIP3    H125366   0.290   2.777   0.806
 1317TIP3    H225367   0.283   2.744   0.954
 1318TIP3   OH225368   5.285   2.868   2.020
 1318TIP3    H125369   5.274   2.951   2.066
 1318TIP3    H225370   5.206   2.818   2.040
 1319TIP3   OH225371   1.492   1.081  15.029
 1319TIP3    H125372   1.479   0.988  15.046
 1319TIP3    H225373   1.415   1.123  15.068
 1320TIP3   OH225374   0.253   4.119   6.813
 1320TIP3    H125375   0.327   4.087   6.864
 1320TIP3    H225376   0.202   4.041   6.792
 1321TIP3   OH225377   0.930   2.306   0.441
 1321TIP3    H125378   0.992   2.259   0.386
 1321TIP3    H225379   0.846   2.264   0.424
 1322TIP3   OH225380   3.494   5.554   5.374
 1322TIP3    H125381   3.551   5.607   5.318
 1322TIP3    H225382   3.463   5.616   5.441
 1323TIP3   OH225383   3.296   1.965  15.409
 1323TIP3    H125384   3.300   2.056  15.437
 1323TIP3    H225385   3.280   1.916  15.490
 1324TIP3   OH225386   3.044   3.017  15.064
 1324TIP3    H125387   2.967   3.050  15.110
 1324TIP3    H225388   3.009   2.953  15.002
 1325TIP3   OH225389   2.130   3.112  16.019
 1325TIP3    H125390   2.049   3.162  16.011
 1325TIP3    H225391   2.199   3.175  16.001
 1326TIP3   OH225392   5.506   4.118  14.343
 1326TIP3    H125393   5.570   4.168  14.393
 1326TIP3    H225394   5.488   4.173  14.266
 1327TIP3   OH225395   0.649   1.443  14.715
 1327TIP3    H125396   0.675   1.529  14.748
 1327TIP3    H225397   0.613   1.461  14.628
 1328TIP3   OH225398   6.687   2.307  12.782
 1328TIP3    H125399   6.703   2.215  12.761
 1328TIP3    H225400   6.623   2.336  12.717
 1329TIP3   OH225401   3.100   6.056   1.255
 1329TIP3    H125402   3.101   6.118   1.183
 1329TIP3    H225403   3.186   6.064   1.296
 1330TIP3   OH225404   0.205   3.475  13.356
 1330TIP3    H125405   0.275   3.418  13.389
 1330TIP3    H225406   0.210   3.554  13.409
 1331TIP3   OH225407   5.016   5.781  12.510
 1331TIP3    H125408   4.982   5.793  12.422
 1331TIP3    H225409   5.030   5.687  12.518
 1332TIP3   OH225410   6.719   3.449   0.269
 1332TIP3    H125411   6.650   3.493   0.319
 1332TIP3    H225412   6.673   3.381   0.220
 1333TIP3   OH225413   5.047   3.693   3.766
 1333TIP3    H125414   5.133   3.706   3.806
 1333TIP3    H225415   5.064   3.692   3.672
 1334TIP3   OH225416   0.906   3.621   1.345
 1334TIP3    H125417   0.990   3.666   1.352
 1334TIP3    H225418   0.916   3.563   1.270
 1335TIP3   OH225419   1.049   5.693   3.048
 1335TIP3    H125420   1.090   5.752   3.111
 1335TIP3    H225421   1.016   5.751   2.979
 1336TIP3   OH225422   1.614   0.161  11.897
 1336TIP3    H125423   1.603   0.086  11.838
 1336TIP3    H225424   1.655   0.124  11.975
 1337TIP3   OH225425   5.193   2.369   2.836
 1337TIP3    H125426   5.157   2.371   2.925
 1337TIP3    H225427   5.118   2.388   2.779
 1338TIP3   OH225428   6.684   1.593   0.904
 1338TIP3    H125429   6.710   1.638   0.824
 1338TIP3    H225430   6.737   1.634   0.973
 1339TIP3   OH225431   2.123   4.257   2.987
 1339TIP3    H125432   2.202   4.265   2.934
 1339TIP3    H225433   2.151   4.210   3.065
 1340TIP3   OH225434   4.639   3.942   3.546
 1340TIP3    H125435   4.665   4.033   3.532
 1340TIP3    H225436   4.661   3.924   3.637
 1341TIP3   OH225437   5.205   4.070  11.700
 1341TIP3    H125438   5.136   4.104  11.757
 1341TIP3    H225439   5.200   4.125  11.621
 1342TIP3   OH225440   1.023   0.853   5.551
 1342TIP3    H125441   1.031   0.913   5.477
 1342TIP3    H225442   1.108   0.809   5.555
 1343TIP3   OH225443   5.990   3.142  11.895
 1343TIP3    H125444   5.991   3.086  11.818
 1343TIP3    H225445   5.942   3.092  11.961
 1344TIP3   OH225446   0.114   3.396   0.055
 1344TIP3    H125447   0.059   3.410   0.133
 1344TIP3    H225448   0.196   3.440   0.076
 1345TIP3   OH225449   4.843   0.881  16.337
 1345TIP3    H125450   4.774   0.861  16.401
 1345TIP3    H225451   4.923   0.890  16.389
 1346TIP3   OH225452   1.466   5.896  11.398
 1346TIP3    H125453   1.481   5.852  11.314
 1346TIP3    H225454   1.552   5.898  11.440
 1347TIP3   OH225455   4.520   4.830  16.498
 1347TIP3    H125456   4.520   4.735  16.513
 1347TIP3    H225457   4.575   4.842  16.421
 1348TIP3   OH225458   4.360   3.152   1.923
 1348TIP3    H125459   4.348   3.096   1.846
 1348TIP3    H225460   4.361   3.092   1.997
 1349TIP3   OH225461   3.098   1.069  11.972
 1349TIP3    H125462   3.128   0.979  11.963
 1349TIP3    H225463   3.063   1.092  11.886
 1350TIP3   OH225464   1.722   4.532  12.017
 1350TIP3    H125465   1.789   4.593  12.050
 1350TIP3    H225466   1.663   4.518  12.091
 1351TIP3   OH225467   2.968   1.533  14.264
 1351TIP3    H125468   3.006   1.587  14.194
 1351TIP3    H225469   2.922   1.595  14.320
 1352TIP3   OH225470   5.921   3.105  15.841
 1352TIP3    H125471   5.921   3.030  15.782
 1352TIP3    H225472   5.978   3.169  15.798
 1353TIP3   OH225473   3.933   4.491  16.120
 1353TIP3    H125474   3.882   4.427  16.071
 1353TIP3    H225475   4.006   4.513  16.062
 1354TIP3   OH225476   1.878   3.570  11.134
 1354TIP3    H125477   1.916   3.595  11.050
 1354TIP3    H225478   1.946   3.589  11.198
 1355TIP3   OH225479   6.588   4.556  12.536
 1355TIP3    H125480   6.621   4.501  12.607
 1355TIP3    H225481   6.626   4.642  12.552
 1356TIP3   OH225482   0.650   4.429  12.442
 1356TIP3    H125483   0.706   4.411  12.367
 1356TIP3    H225484   0.632   4.342  12.480
 1357TIP3   OH225485   4.858   6.553   5.426
 1357TIP3    H125486   4.775   6.556   5.474
 1357TIP3    H225487   4.834   6.519   5.340
 1358TIP3   OH225488   0.343   5.309  14.628
 1358TIP3    H125489   0.331   5.355  14.710
 1358TIP3    H225490   0.266   5.251  14.622
 1359TIP3   OH225491   6.203   0.905   2.964
 1359TIP3    H125492   6.171   0.821   2.997
 1359TIP3    H225493   6.125   0.946   2.925
 1360TIP3   OH225494   5.581   2.963   0.512
 1360TIP3    H125495   5.630   3.033   0.556
 1360TIP3    H225496   5.497   2.960   0.559
 1361TIP3   OH225497   2.390   2.946   4.810
 1361TIP3    H125498   2.355   3.014   4.753
 1361TIP3    H225499   2.420   2.992   4.888
 1362TIP3   OH225500   2.599   0.348  14.300
 1362TIP3    H125501   2.685   0.330  14.338
 1362TIP3    H225502   2.603   0.440  14.272
 1363TIP3   OH225503   3.782   3.805  10.806
 1363TIP3    H125504   3.755   3.885  10.760
 1363TIP3    H225505   3.750   3.734  10.751
 1364TIP3   OH225506   5.096   0.469  13.248
 1364TIP3    H125507   5.104   0.539  13.183
 1364TIP3    H225508   5.003   0.448  13.250
 1365TIP3   OH225509   4.500   4.037  16.523
 1365TIP3    H125510   4.478   3.968  16.585
 1365TIP3    H225511   4.557   4.097  16.571
 1366TIP3   OH225512   6.438   1.994   2.975
 1366TIP3    H125513   6.399   1.938   3.042
 1366TIP3    H225514   6.434   1.942   2.895
 1367TIP3   OH225515   1.227   2.989  15.135
 1367TIP3    H125516   1.302   2.932  15.123
 1367TIP3    H225517   1.253   3.072  15.095
 1368TIP3   OH225518   0.369   2.004  16.918
 1368TIP3    H125519   0.408   1.952  16.988
 1368TIP3    H225520   0.357   2.091  16.956
 1369TIP3   OH225521   0.222   6.373  11.390
 1369TIP3    H125522   0.136   6.336  11.410
 1369TIP3    H225523   0.212   6.408  11.302
 1370TIP3   OH225524   3.976   4.823   4.758
 1370TIP3    H125525   4.003   4.900   4.808
 1370TIP3    H225526   4.041   4.756   4.781
 1371TIP3   OH225527   1.914   4.440  11.722
 1371TIP3    H125528   1.849   4.509  11.711
 1371TIP3    H225529   1.901   4.381  11.648
 1372TIP3   OH225530   3.847   6.534  13.757
 1372TIP3    H125531   3.819   6.624  13.742
 1372TIP3    H225532   3.926   6.525  13.703
 1373TIP3   OH225533   0.019   2.328  11.252
 1373TIP3    H125534  -0.043   2.262  11.283
 1373TIP3    H225535  -0.021   2.412  11.276
 1374TIP3   OH225536   0.002   0.973  16.875
 1374TIP3    H125537   0.070   0.989  16.810
 1374TIP3    H225538   0.030   1.022  16.952
 1375TIP3   OH225539   4.287   5.220   2.167
 1375TIP3    H125540   4.246   5.177   2.243
 1375TIP3    H225541   4.368   5.171   2.153
 1376TIP3   OH225542   3.804   5.346   4.416
 1376TIP3    H125543   3.838   5.435   4.429
 1376TIP3    H225544   3.709   5.355   4.429
 1377TIP3   OH225545   5.561   0.958  13.146
 1377TIP3    H125546   5.553   1.021  13.218
 1377TIP3    H225547   5.616   1.002  13.081
 1378TIP3   OH225548   3.064   4.018   2.596
 1378TIP3    H125549   3.099   4.065   2.672
 1378TIP3    H225550   2.988   3.970   2.631
 1379TIP3   OH225551   3.417   6.770  11.174
 1379TIP3    H125552   3.461   6.722  11.244
 1379TIP3    H225553   3.485   6.788  11.110
 1380TIP3   OH225554   4.317   2.316  12.460
 1380TIP3    H125555   4.340   2.306  12.368
 1380TIP3    H225556   4.229   2.277  12.466
 1381TIP3   OH225557   4.128   5.691  13.929
 1381TIP3    H125558   4.201   5.693  13.867
 1381TIP3    H225559   4.137   5.607  13.974
 1382TIP3   OH225560   5.961   0.995  13.003
 1382TIP3    H125561   6.056   0.987  12.991
 1382TIP3    H225562   5.946   0.979  13.096
 1383TIP3   OH225563   4.067   2.399  11.196
 1383TIP3    H125564   4.119   2.329  11.156
 1383TIP3    H225565   4.014   2.434  11.124
 1384TIP3   OH225566   0.845   1.598  13.262
 1384TIP3    H125567   0.927   1.567  13.300
 1384TIP3    H225568   0.811   1.523  13.214
 1385TIP3   OH225569   1.720   2.592   4.838
 1385TIP3    H125570   1.688   2.520   4.893
 1385TIP3    H225571   1.727   2.667   4.898
 1386TIP3   OH225572   6.365   4.899   1.697
 1386TIP3    H125573   6.420   4.824   1.721
 1386TIP3    H225574   6.426   4.965   1.665
 1387TIP3   OH225575   1.537   1.169   2.407
 1387TIP3    H125576   1.630   1.180   2.427
 1387TIP3    H225577   1.495   1.168   2.493
 1388TIP3   OH225578   5.431   4.258   2.466
 1388TIP3    H125579   5.360   4.321   2.453
 1388TIP3    H225580   5.508   4.311   2.485
 1389TIP3   OH225581   5.941   3.676   3.359
 1389TIP3    H125582   5.929   3.607   3.424
 1389TIP3    H225583   5.978   3.631   3.283
 1390TIP3   OH225584   0.087   0.872  15.751
 1390TIP3    H125585   0.075   0.875  15.846
 1390TIP3    H225586   0.075   0.963  15.722
 1391TIP3   OH225587   6.712   1.325   0.979
 1391TIP3    H125588   6.618   1.310   0.970
 1391TIP3    H225589   6.726   1.414   0.945
 1392TIP3   OH225590   6.130   0.843  16.151
 1392TIP3    H125591   6.175   0.874  16.229
 1392TIP3    H225592   6.039   0.832  16.178
 1393TIP3   OH225593   1.662   2.247   3.968
 1393TIP3    H125594   1.651   2.153   3.976
 1393TIP3    H225595   1.745   2.258   3.922
 1394TIP3   OH225596   5.114   5.164  12.123
 1394TIP3    H125597   5.074   5.187  12.039
 1394TIP3    H225598   5.182   5.100  12.101
 1395TIP3   OH225599   2.948   4.700   1.856
 1395TIP3    H125600   2.886   4.628   1.855
 1395TIP3    H225601   2.921   4.756   1.783
 1396TIP3   OH225602   3.418   0.702  16.996
 1396TIP3    H125603   3.340   0.754  17.015
 1396TIP3    H225604   3.403   0.618  17.040
 1397TIP3   OH225605   1.444   4.293   5.243
 1397TIP3    H125606   1.370   4.315   5.186
 1397TIP3    H225607   1.405   4.239   5.313
 1398TIP3   OH225608   2.734   3.057  16.425
 1398TIP3    H125609   2.741   3.152  16.416
 1398TIP3    H225610   2.640   3.040  16.430
 1399TIP3   OH225611   3.324   6.407  12.331
 1399TIP3    H125612   3.317   6.339  12.264
 1399TIP3    H225613   3.415   6.436  12.326
 1400TIP3   OH225614   4.059   2.532  13.778
 1400TIP3    H125615   4.053   2.599  13.846
 1400TIP3    H225616   4.123   2.469  13.811
 1401TIP3   OH225617   4.346   3.306  13.983
 1401TIP3    H125618   4.294   3.322  13.904
 1401TIP3    H225619   4.302   3.356  14.052
 1402TIP3   OH225620   0.188   3.645  11.750
 1402TIP3    H125621   0.132   3.603  11.816
 1402TIP3    H225622   0.227   3.719  11.796
 1403TIP3   OH225623   1.897   1.834   5.231
 1403TIP3    H125624   1.850   1.915   5.248
 1403TIP3    H225625   1.917   1.800   5.319
 1404TIP3   OH225626   4.024   0.997   1.919
 1404TIP3    H125627   3.933   1.021   1.936
 1404TIP3    H225628   4.068   1.009   2.003
 1405TIP3   OH225629   2.038   2.451   2.126
 1405TIP3    H125630   2.021   2.419   2.214
 1405TIP3    H225631   2.041   2.546   2.135
 1406TIP3   OH225632   2.205   0.577  12.427
 1406TIP3    H125633   2.240   0.555  12.514
 1406TIP3    H225634   2.148   0.503  12.405
 1407TIP3   OH225635   2.592   4.730  15.719
 1407TIP3    H125636   2.587   4.786  15.641
 1407TIP3    H225637   2.643   4.780  15.782
 1408TIP3   OH225638   3.936   2.251   0.536
 1408TIP3    H125639   3.888   2.203   0.468
 1408TIP3    H225640   4.011   2.289   0.490
 1409TIP3   OH225641   5.600   1.392  12.219
 1409TIP3    H125642   5.572   1.301  12.210
 1409TIP3    H225643   5.695   1.388  12.209
 1410TIP3   OH225644   2.874   2.648   3.050
 1410TIP3    H125645   2.876   2.608   3.136
 1410TIP3    H225646   2.858   2.576   2.990
 1411TIP3   OH225647   6.462   1.277  16.160
 1411TIP3    H125648   6.531   1.280  16.227
 1411TIP3    H225649   6.408   1.354  16.177
 1412TIP3   OH225650   3.668   6.206  13.209
 1412TIP3    H125651   3.601   6.173  13.148
 1412TIP3    H225652   3.620   6.221  13.290
 1413TIP3   OH225653   2.643   4.156   4.429
 1413TIP3    H125654   2.609   4.088   4.370
 1413TIP3    H225655   2.568   4.212   4.449
 1414TIP3   OH225656   3.361   1.012   6.438
 1414TIP3    H125657   3.427   1.072   6.473
 1414TIP3    H225658   3.312   1.065   6.375
 1415TIP3   OH225659   4.380   3.593  12.500
 1415TIP3    H125660   4.401   3.684  12.523
 1415TIP3    H225661   4.325   3.562  12.571
 1416TIP3   OH225662   5.849   3.592  14.614
 1416TIP3    H125663   5.797   3.531  14.667
 1416TIP3    H225664   5.929   3.544  14.595
 1417TIP3   OH225665   4.513   5.035   1.868
 1417TIP3    H125666   4.432   5.074   1.900
 1417TIP3    H225667   4.579   5.105   1.876
 1418TIP3   OH225668   4.580   3.144  14.049
 1418TIP3    H125669   4.509   3.206  14.063
 1418TIP3    H225670   4.569   3.079  14.119
 1419TIP3   OH225671   1.363   0.501   2.407
 1419TIP3    H125672   1.453   0.500   2.376
 1419TIP3    H225673   1.349   0.592   2.435
 1420TIP3   OH225674   5.753   0.415  12.460
 1420TIP3    H125675   5.811   0.339  12.468
 1420TIP3    H225676   5.718   0.408  12.372
 1421TIP3   OH225677   1.429   3.704  11.274
 1421TIP3    H125678   1.520   3.713  11.246
 1421TIP3    H225679   1.393   3.792  11.269
 1422TIP3   OH225680   1.492   2.409   4.911
 1422TIP3    H125681   1.528   2.405   4.999
 1422TIP3    H225682   1.415   2.352   4.914
 1423TIP3   OH225683   4.815   1.114  15.257
 1423TIP3    H125684   4.814   1.134  15.351
 1423TIP3    H225685   4.891   1.056  15.246
 1424TIP3   OH225686   1.070   2.583  13.971
 1424TIP3    H125687   1.159   2.552  13.954
 1424TIP3    H225688   1.079   2.677  13.982
 1425TIP3   OH225689   1.280   0.418   0.238
 1425TIP3    H125690   1.274   0.385   0.148
 1425TIP3    H225691   1.228   0.355   0.290
 1426TIP3   OH225692   4.460   6.554  15.736
 1426TIP3    H125693   4.376   6.567  15.781
 1426TIP3    H225694   4.522   6.539  15.807
 1427TIP3   OH225695   1.509   0.744   3.102
 1427TIP3    H125696   1.451   0.681   3.060
 1427TIP3    H225697   1.451   0.813   3.135
 1428TIP3   OH225698   2.570   3.738  13.687
 1428TIP3    H125699   2.616   3.654  13.694
 1428TIP3    H225700   2.628   3.801  13.731
 1429TIP3   OH225701   2.592   1.324   6.198
 1429TIP3    H125702   2.590   1.322   6.293
 1429TIP3    H225703   2.524   1.262   6.171
 1430TIP3   OH225704   2.903   0.824   0.638
 1430TIP3    H125705   2.832   0.763   0.656
 1430TIP3    H225706   2.882   0.901   0.691
 1431TIP3   OH225707   1.771   4.475   5.643
 1431TIP3    H125708   1.823   4.487   5.723
 1431TIP3    H225709   1.791   4.386   5.614
 1432TIP3   OH225710   0.536   0.663   4.379
 1432TIP3    H125711   0.448   0.628   4.366
 1432TIP3    H225712   0.579   0.599   4.435
 1433TIP3   OH225713   5.063   5.182  13.410
 1433TIP3    H125714   5.105   5.254  13.457
 1433TIP3    H225715   5.090   5.104  13.458
 1434TIP3   OH225716   1.621   5.674   2.872
 1434TIP3    H125717   1.657   5.712   2.952
 1434TIP3    H225718   1.688   5.689   2.806
 1435TIP3   OH225719   5.226   3.204  11.330
 1435TIP3    H125720   5.181   3.287  11.314
 1435TIP3    H225721   5.304   3.207  11.273
 1436TIP3   OH225722   2.200   0.436  16.375
 1436TIP3    H125723   2.195   0.373  16.446
 1436TIP3    H225724   2.128   0.497  16.392
 1437TIP3   OH225725   3.413   5.914   5.740
 1437TIP3    H125726   3.381   5.896   5.828
 1437TIP3    H225727   3.336   5.907   5.684
 1438TIP3   OH225728   3.285   2.417  13.650
 1438TIP3    H125729   3.373   2.391  13.626
 1438TIP3    H225730   3.251   2.463  13.573
 1439TIP3   OH225731   5.060   3.803  16.046
 1439TIP3    H125732   5.059   3.898  16.034
 1439TIP3    H225733   5.040   3.768  15.959
 1440TIP3   OH225734   4.838   6.634   4.680
 1440TIP3    H125735   4.897   6.560   4.692
 1440TIP3    H225736   4.761   6.598   4.636
 1441TIP3   OH225737   1.626   6.246  16.325
 1441TIP3    H125738   1.669   6.163  16.347
 1441TIP3    H225739   1.684   6.287  16.261
 1442TIP3   OH225740   0.079   5.916   4.725
 1442TIP3    H125741   0.166   5.918   4.686
 1442TIP3    H225742   0.065   5.825   4.750
 1443TIP3   OH225743   5.464   5.040   1.637
 1443TIP3    H125744   5.536   5.070   1.581
 1443TIP3    H225745   5.444   4.952   1.606
 1444TIP3   OH225746   2.704   2.538   2.713
 1444TIP3    H125747   2.645   2.576   2.778
 1444TIP3    H225748   2.734   2.612   2.661
 1445TIP3   OH225749   0.514   1.078   6.170
 1445TIP3    H125750   0.539   1.170   6.158
 1445TIP3    H225751   0.442   1.065   6.108
 1446TIP3   OH225752   6.325   0.909   4.359
 1446TIP3    H125753   6.342   0.927   4.451
 1446TIP3    H225754   6.264   0.835   4.359
 1447TIP3   OH225755   1.560   1.946   0.226
 1447TIP3    H125756   1.559   1.880   0.295
 1447TIP3    H225757   1.586   1.899   0.147
 1448TIP3   OH225758   0.490   4.653   0.000
 1448TIP3    H125759   0.407   4.632  -0.041
 1448TIP3    H225760   0.475   4.738   0.042
 1449TIP3   OH225761   5.760   5.196  17.126
 1449TIP3    H125762   5.818   5.142  17.181
 1449TIP3    H225763   5.688   5.137  17.102
 1450TIP3   OH225764   0.887   4.596  12.243
 1450TIP3    H125765   0.965   4.553  12.276
 1450TIP3    H225766   0.851   4.641  12.320
 1451TIP3   OH225767   0.259   5.181  16.589
 1451TIP3    H125768   0.265   5.103  16.534
 1451TIP3    H225769   0.312   5.161  16.666
 1452TIP3   OH225770   2.550   1.580   2.403
 1452TIP3    H125771   2.482   1.591   2.469
 1452TIP3    H225772   2.523   1.639   2.332
 1453TIP3   OH225773   2.872   1.403   0.388
 1453TIP3    H125774   2.949   1.379   0.338
 1453TIP3    H225775   2.827   1.320   0.405
 1454TIP3   OH225776   1.617   1.405  13.224
 1454TIP3    H125777   1.640   1.498  13.219
 1454TIP3    H225778   1.535   1.405  13.273
 1455TIP3   OH225779   4.867   1.751  16.905
 1455TIP3    H125780   4.864   1.704  16.988
 1455TIP3    H225781   4.905   1.689  16.843
 1456TIP3   OH225782   2.161   2.326  15.301
 1456TIP3    H125783   2.166   2.248  15.245
 1456TIP3    H225784   2.129   2.293  15.385
 1457TIP3   OH225785   3.847   4.389   2.573
 1457TIP3    H125786   3.797   4.379   2.654
 1457TIP3    H225787   3.936   4.408   2.602
 1458TIP3   OH225788   1.405   5.796  15.757
 1458TIP3    H125789   1.478   5.759  15.807
 1458TIP3    H225790   1.446   5.831  15.677
 1459TIP3   OH225791   0.193   0.612   5.891
 1459TIP3    H125792   0.144   0.693   5.878
 1459TIP3    H225793   0.221   0.615   5.983
 1460TIP3   OH225794   6.696   2.868   4.554
 1460TIP3    H125795   6.619   2.817   4.527
 1460TIP3    H225796   6.770   2.809   4.539
 1461TIP3   OH225797   6.269   4.534  17.129
 1461TIP3    H125798   6.348   4.486  17.105
 1461TIP3    H225799   6.221   4.544  17.047
 1462TIP3   OH225800   2.776   5.312   5.204
 1462TIP3    H125801   2.791   5.294   5.297
 1462TIP3    H225802   2.864   5.323   5.168
 1463TIP3   OH225803   3.219   2.506  14.421
 1463TIP3    H125804   3.195   2.536  14.508
 1463TIP3    H225805   3.307   2.539  14.407
 1464TIP3   OH225806   1.582   1.039  14.564
 1464TIP3    H125807   1.526   0.963  14.552
 1464TIP3    H225808   1.653   1.027  14.501
 1465TIP3   OH225809   5.690   0.403  14.838
 1465TIP3    H125810   5.723   0.377  14.752
 1465TIP3    H225811   5.684   0.320  14.887
 1466TIP3   OH225812   1.453   0.765   5.050
 1466TIP3    H125813   1.432   0.714   5.128
 1466TIP3    H225814   1.543   0.795   5.065
 1467TIP3   OH225815   0.530   0.978   6.737
 1467TIP3    H125816   0.513   1.068   6.709
 1467TIP3    H225817   0.474   0.965   6.813
 1468TIP3   OH225818   4.979   5.421   4.402
 1468TIP3    H125819   5.017   5.474   4.472
 1468TIP3    H225820   5.006   5.332   4.421
 1469TIP3   OH225821   1.820   0.032   5.927
 1469TIP3    H125822   1.825   0.104   5.864
 1469TIP3    H225823   1.815   0.075   6.012
 1470TIP3   OH225824   6.744   5.344   2.214
 1470TIP3    H125825   6.813   5.397   2.253
 1470TIP3    H225826   6.673   5.345   2.279
 1471TIP3   OH225827   4.538   3.346   6.453
 1471TIP3    H125828   4.471   3.412   6.468
 1471TIP3    H225829   4.621   3.394   6.456
 1472TIP3   OH225830   1.363   2.330  12.450
 1472TIP3    H125831   1.357   2.251  12.505
 1472TIP3    H225832   1.273   2.356  12.435
 1473TIP3   OH225833   5.973   2.866  15.066
 1473TIP3    H125834   6.003   2.851  15.155
 1473TIP3    H225835   5.896   2.810  15.057
 1474TIP3   OH225836   0.603   0.635   1.854
 1474TIP3    H125837   0.538   0.656   1.921
 1474TIP3    H225838   0.619   0.718   1.809
 1475TIP3   OH225839   6.355   5.640  12.889
 1475TIP3    H125840   6.346   5.586  12.810
 1475TIP3    H225841   6.423   5.596  12.940
 1476TIP3   OH225842   6.578   4.938   6.372
 1476TIP3    H125843   6.606   4.933   6.463
 1476TIP3    H225844   6.539   5.025   6.364
 1477TIP3   OH225845   2.885   6.400   0.216
 1477TIP3    H125846   2.825   6.346   0.163
 1477TIP3    H225847   2.966   6.348   0.220
 1478TIP3   OH225848   4.242   0.636   1.304
 1478TIP3    H125849   4.207   0.680   1.381
 1478TIP3    H225850   4.268   0.549   1.336
 1479TIP3   OH225851   3.529   5.339   6.507
 1479TIP3    H125852   3.456   5.386   6.548
 1479TIP3    H225853   3.520   5.356   6.414
 1480TIP3   OH225854   2.244   5.253  13.551
 1480TIP3    H125855   2.320   5.279  13.603
 1480TIP3    H225856   2.281   5.224  13.467
 1481TIP3   OH225857   3.236   3.978  12.902
 1481TIP3    H125858   3.260   4.039  12.972
 1481TIP3    H225859   3.308   3.916  12.899
 1482TIP3   OH225860   3.910   1.628   2.049
 1482TIP3    H125861   3.832   1.653   2.098
 1482TIP3    H225862   3.898   1.535   2.029
 1483TIP3   OH225863   4.974   0.014   3.119
 1483TIP3    H125864   4.956   0.102   3.084
 1483TIP3    H225865   5.016  -0.033   3.047
 1484TIP3   OH225866   3.080   1.275  10.853
 1484TIP3    H125867   3.018   1.284  10.781
 1484TIP3    H225868   3.034   1.221  10.917
 1485TIP3   OH225869   1.242   0.314   2.259
 1485TIP3    H125870   1.295   0.354   2.328
 1485TIP3    H225871   1.246   0.377   2.187
 1486TIP3   OH225872   2.734   5.810   3.074
 1486TIP3    H125873   2.651   5.784   3.114
 1486TIP3    H225874   2.742   5.754   2.997
 1487TIP3   OH225875   5.488   0.994   1.835
 1487TIP3    H125876   5.570   1.043   1.846
 1487TIP3    H225877   5.476   0.988   1.740
 1488TIP3   OH225878   0.621   2.910  14.174
 1488TIP3    H125879   0.567   2.987  14.190
 1488TIP3    H225880   0.559   2.840  14.153
 1489TIP3   OH225881   2.969   3.187   5.236
 1489TIP3    H125882   3.051   3.139   5.227
 1489TIP3    H225883   2.901   3.124   5.213
 1490TIP3   OH225884   0.365   3.935  15.673
 1490TIP3    H125885   0.331   3.927  15.762
 1490TIP3    H225886   0.303   3.885  15.620
 1491TIP3   OH225887   1.516   2.016   5.931
 1491TIP3    H125888   1.508   2.059   6.015
 1491TIP3    H225889   1.551   1.929   5.952
 1492TIP3   OH225890   0.642   2.430   2.685
 1492TIP3    H125891   0.717   2.453   2.740
 1492TIP3    H225892   0.638   2.499   2.619
 1493TIP3   OH225893   4.456   3.520  14.603
 1493TIP3    H125894   4.384   3.577  14.577
 1493TIP3    H225895   4.474   3.467  14.525
 1494TIP3   OH225896   6.178   2.298  14.752
 1494TIP3    H125897   6.087   2.315  14.779
 1494TIP3    H225898   6.211   2.238  14.819
 1495TIP3   OH225899   2.737   5.455  12.457
 1495TIP3    H125900   2.785   5.382  12.419
 1495TIP3    H225901   2.804   5.519  12.479
 1496TIP3   OH225902   6.765   2.623   0.089
 1496TIP3    H125903   6.706   2.686   0.130
 1496TIP3    H225904   6.709   2.547   0.071
 1497TIP3   OH225905   1.043   1.095  14.086
 1497TIP3    H125906   1.016   1.117  14.175
 1497TIP3    H225907   0.962   1.095  14.036
 1498TIP3   OH225908   3.885   1.572   1.252
 1498TIP3    H125909   3.967   1.528   1.230
 1498TIP3    H225910   3.841   1.585   1.168
 1499TIP3   OH225911   1.014   2.022   1.377
 1499TIP3    H125912   1.034   2.029   1.471
 1499TIP3    H225913   1.017   2.112   1.345
 1500TIP3   OH225914   5.115   1.035  12.754
 1500TIP3    H125915   5.135   0.981  12.830
 1500TIP3    H225916   5.045   0.989  12.708
 1501TIP3   OH225917   3.479   4.524   5.440
 1501TIP3    H125918   3.466   4.579   5.518
 1501TIP3    H225919   3.573   4.510   5.436
 1502TIP3   OH225920   5.199   2.045  16.797
 1502TIP3    H125921   5.280   2.039  16.849
 1502TIP3    H225922   5.217   1.994  16.718
 1503TIP3   OH225923   1.263   5.373   5.493
 1503TIP3    H125924   1.327   5.416   5.436
 1503TIP3    H225925   1.242   5.438   5.560
 1504TIP3   OH225926   6.579   4.240   3.701
 1504TIP3    H125927   6.527   4.314   3.669
 1504TIP3    H225928   6.656   4.281   3.741
 1505TIP3   OH225929   4.640   0.330   2.351
 1505TIP3    H125930   4.586   0.269   2.402
 1505TIP3    H225931   4.678   0.388   2.416
 1506TIP3   OH225932   2.914   0.214   1.522
 1506TIP3    H125933   2.956   0.226   1.437
 1506TIP3    H225934   2.986   0.188   1.580
 1507TIP3   OH225935   4.972   1.828   3.378
 1507TIP3    H125936   4.927   1.775   3.443
 1507TIP3    H225937   5.007   1.766   3.315
 1508TIP3   OH225938   3.436   1.921  11.257
 1508TIP3    H125939   3.470   1.984  11.193
 1508TIP3    H225940   3.513   1.891  11.305
 1509TIP3   OH225941   5.703   4.935  15.725
 1509TIP3    H125942   5.641   4.896  15.786
 1509TIP3    H225943   5.788   4.898  15.749
 1510TIP3   OH225944   4.745   5.495   4.935
 1510TIP3    H125945   4.828   5.502   4.888
 1510TIP3    H225946   4.725   5.401   4.933
 1511TIP3   OH225947   0.096   2.399   2.953
 1511TIP3    H125948   0.159   2.372   2.886
 1511TIP3    H225949   0.121   2.349   3.031
 1512TIP3   OH225950   3.464   4.986  14.212
 1512TIP3    H125951   3.476   5.080  14.208
 1512TIP3    H225952   3.385   4.974  14.264
 1513TIP3   OH225953   5.431   0.536  15.175
 1513TIP3    H125954   5.519   0.551  15.141
 1513TIP3    H225955   5.445   0.480  15.252
 1514TIP3   OH225956   1.930   2.579  11.687
 1514TIP3    H125957   1.848   2.600  11.641
 1514TIP3    H225958   1.995   2.636  11.648
 1515TIP3   OH225959   1.123   3.999  15.441
 1515TIP3    H125960   1.050   4.061  15.431
 1515TIP3    H225961   1.119   3.973  15.533
 1516TIP3   OH225962   4.489   2.547   6.179
 1516TIP3    H125963   4.493   2.633   6.222
 1516TIP3    H225964   4.441   2.562   6.098
 1517TIP3   OH225965   2.035   6.347  16.611
 1517TIP3    H125966   2.085   6.337  16.691
 1517TIP3    H225967   1.994   6.261  16.597
 1518TIP3   OH225968   3.929   1.867   5.061
 1518TIP3    H125969   3.937   1.797   5.126
 1518TIP3    H225970   3.951   1.947   5.109
 1519TIP3   OH225971   4.665   5.560   1.931
 1519TIP3    H125972   4.663   5.650   1.962
 1519TIP3    H225973   4.651   5.507   2.009
 1520TIP3   OH225974   6.202   0.132  16.348
 1520TIP3    H125975   6.175   0.041  16.335
 1520TIP3    H225976   6.186   0.174  16.263
 1521TIP3   OH225977   1.701   5.671  16.829
 1521TIP3    H125978   1.623   5.649  16.779
 1521TIP3    H225979   1.738   5.587  16.856
 1522TIP3   OH225980   2.754   1.222   4.706
 1522TIP3    H125981   2.792   1.206   4.792
 1522TIP3    H225982   2.821   1.190   4.644
 1523TIP3   OH225983   0.945   6.166   1.574
 1523TIP3    H125984   1.039   6.159   1.587
 1523TIP3    H225985   0.929   6.113   1.495
 1524TIP3   OH225986   4.866   5.776   2.996
 1524TIP3    H125987   4.936   5.746   3.054
 1524TIP3    H225988   4.834   5.856   3.037
 1525TIP3   OH225989   4.127   3.155   2.367
 1525TIP3    H125990   4.150   3.182   2.455
 1525TIP3    H225991   4.210   3.130   2.326
 1526TIP3   OH225992   2.616   6.106  14.181
 1526TIP3    H125993   2.596   6.199  14.169
 1526TIP3    H225994   2.711   6.100  14.168
 1527TIP3   OH225995   0.989   2.275   0.726
 1527TIP3    H125996   0.980   2.332   0.650
 1527TIP3    H225997   0.976   2.186   0.691
 1528TIP3   OH225998   3.864   1.925  14.519
 1528TIP3    H125999   3.800   1.929  14.448
 1528TIP3    H226000   3.849   2.005  14.569
 1529TIP3   OH226001   6.130   3.232   4.863
 1529TIP3    H126002   6.081   3.151   4.877
 1529TIP3    H226003   6.069   3.290   4.818
 1530TIP3   OH226004   2.386   0.008   5.317
 1530TIP3    H126005   2.422   0.065   5.385
 1530TIP3    H226006   2.379  -0.078   5.358
 1531TIP3   OH226007   6.316   1.502   3.051
 1531TIP3    H126008   6.324   1.553   3.132
 1531TIP3    H226009   6.239   1.539   3.006
 1532TIP3   OH226010   2.750   1.998  10.995
 1532TIP3    H126011   2.741   2.021  11.087
 1532TIP3    H226012   2.661   1.981  10.966
 1533TIP3   OH226013   1.934   6.604   4.216
 1533TIP3    H126014   1.933   6.514   4.182
 1533TIP3    H226015   1.876   6.653   4.158
 1534TIP3   OH226016   1.786   2.029  10.400
 1534TIP3    H126017   1.694   2.053  10.412
 1534TIP3    H226018   1.787   1.976  10.321
 1535TIP3   OH226019   4.772   3.410   0.151
 1535TIP3    H126020   4.694   3.449   0.191
 1535TIP3    H226021   4.840   3.477   0.160
 1536TIP3   OH226022   1.531   3.853  12.755
 1536TIP3    H126023   1.493   3.794  12.820
 1536TIP3    H226024   1.540   3.800  12.676
 1537TIP3   OH226025   3.069   0.735  14.414
 1537TIP3    H126026   3.062   0.674  14.340
 1537TIP3    H226027   2.997   0.711  14.472
 1538TIP3   OH226028   0.964   0.259   1.327
 1538TIP3    H126029   0.932   0.243   1.415
 1538TIP3    H226030   0.933   0.348   1.306
 1539TIP3   OH226031   4.873   2.481  13.039
 1539TIP3    H126032   4.816   2.419  12.994
 1539TIP3    H226033   4.924   2.428  13.100
 1540TIP3   OH226034   3.320   0.150  14.989
 1540TIP3    H126035   3.401   0.187  15.025
 1540TIP3    H226036   3.256   0.221  14.997
 1541TIP3   OH226037   4.348   4.249  15.999
 1541TIP3    H126038   4.355   4.342  16.023
 1541TIP3    H226039   4.257   4.239  15.970
 1542TIP3   OH226040   4.526   1.820   5.367
 1542TIP3    H126041   4.583   1.894   5.386
 1542TIP3    H226042   4.545   1.798   5.276
 1543TIP3   OH226043   2.770   2.425   3.696
 1543TIP3    H126044   2.770   2.484   3.621
 1543TIP3    H226045   2.827   2.353   3.669
 1544TIP3   OH226046   6.606   2.060  16.898
 1544TIP3    H126047   6.575   2.086  16.984
 1544TIP3    H226048   6.614   1.965  16.904
 1545TIP3   OH226049   0.825   2.502   0.960
 1545TIP3    H126050   0.810   2.552   1.041
 1545TIP3    H226051   0.880   2.559   0.907
 1546TIP3   OH226052   6.152   3.815  15.337
 1546TIP3    H126053   6.084   3.752  15.312
 1546TIP3    H226054   6.229   3.788  15.287
 1547TIP3   OH226055   3.083   2.533   4.126
 1547TIP3    H126056   3.010   2.540   4.064
 1547TIP3    H226057   3.050   2.479   4.197
 1548TIP3   OH226058   3.321   0.736  14.522
 1548TIP3    H126059   3.322   0.669  14.590
 1548TIP3    H226060   3.238   0.721  14.475
 1549TIP3   OH226061   0.727   3.871   0.099
 1549TIP3    H126062   0.724   3.788   0.050
 1549TIP3    H226063   0.792   3.923   0.052
 1550TIP3   OH226064   2.304   5.534  13.876
 1550TIP3    H126065   2.258   5.476  13.936
 1550TIP3    H226066   2.348   5.598  13.932
 1551TIP3   OH226067   0.265   0.317  15.741
 1551TIP3    H126068   0.260   0.407  15.775
 1551TIP3    H226069   0.353   0.311  15.704
 1552TIP3   OH226070   1.484   2.842   0.567
 1552TIP3    H126071   1.537   2.833   0.487
 1552TIP3    H226072   1.394   2.847   0.536
 1553TIP3   OH226073   6.537   6.462   3.656
 1553TIP3    H126074   6.605   6.526   3.675
 1553TIP3    H226075   6.546   6.396   3.724
 1554TIP3   OH226076   3.326   1.124  11.583
 1554TIP3    H126077   3.279   1.189  11.636
 1554TIP3    H226078   3.260   1.092  11.521
 1555TIP3   OH226079   1.955   5.677   5.419
 1555TIP3    H126080   1.980   5.740   5.486
 1555TIP3    H226081   1.919   5.602   5.468
 1556TIP3   OH226082   5.999   0.632   5.003
 1556TIP3    H126083   5.943   0.554   5.008
 1556TIP3    H226084   5.942   0.699   4.966
 1557TIP3   OH226085   2.504   5.605   5.406
 1557TIP3    H126086   2.539   5.674   5.463
 1557TIP3    H226087   2.418   5.637   5.381
 1558TIP3   OH226088   5.003   2.745   1.672
 1558TIP3    H126089   4.997   2.700   1.588
 1558TIP3    H226090   4.932   2.708   1.725
 1559TIP3   OH226091   1.697   6.455  16.488
 1559TIP3    H126092   1.684   6.477  16.396
 1559TIP3    H226093   1.693   6.359  16.491
 1560TIP3   OH226094   3.469   3.983   5.719
 1560TIP3    H126095   3.426   3.902   5.746
 1560TIP3    H226096   3.478   4.034   5.799
 1561TIP3   OH226097   6.702   6.689   4.292
 1561TIP3    H126098   6.725   6.710   4.382
 1561TIP3    H226099   6.784   6.699   4.243
 1562TIP3   OH226100   3.983   0.023  17.184
 1562TIP3    H126101   4.012   0.050  17.271
 1562TIP3    H226102   4.036   0.074  17.123
 1563TIP3   OH226103   1.729   2.420  13.152
 1563TIP3    H126104   1.771   2.338  13.126
 1563TIP3    H226105   1.726   2.472  13.071
 1564TIP3   OH226106   5.113   4.443   0.851
 1564TIP3    H126107   5.105   4.408   0.762
 1564TIP3    H226108   5.107   4.538   0.840
 1565TIP3   OH226109   3.281   2.249   3.761
 1565TIP3    H126110   3.254   2.324   3.814
 1565TIP3    H226111   3.352   2.282   3.706
 1566TIP3   OH226112   2.157   0.256   1.852
 1566TIP3    H126113   2.131   0.320   1.786
 1566TIP3    H226114   2.102   0.179   1.834
 1567TIP3   OH226115   2.064   4.105   3.274
 1567TIP3    H126116   2.147   4.148   3.297
 1567TIP3    H226117   2.054   4.037   3.340
 1568TIP3   OH226118   3.549   4.247  12.984
 1568TIP3    H126119   3.538   4.280  13.073
 1568TIP3    H226120   3.637   4.210  12.983
 1569TIP3   OH226121   4.293   2.731  12.967
 1569TIP3    H126122   4.235   2.759  12.896
 1569TIP3    H226123   4.292   2.804  13.029
 1570TIP3   OH226124   6.606   4.025   4.161
 1570TIP3    H126125   6.577   4.076   4.085
 1570TIP3    H226126   6.541   4.045   4.229
 1571TIP3   OH226127   2.555   4.147  16.541
 1571TIP3    H126128   2.571   4.073  16.482
 1571TIP3    H226129   2.638   4.196  16.540
 1572TIP3   OH226130   4.385   5.757  16.220
 1572TIP3    H126131   4.373   5.673  16.264
 1572TIP3    H226132   4.478   5.760  16.197
 1573TIP3   OH226133   6.772   5.714  13.399
 1573TIP3    H126134   6.814   5.791  13.436
 1573TIP3    H226135   6.805   5.640  13.450
 1574TIP3   OH226136   0.342   2.597   2.257
 1574TIP3    H126137   0.274   2.609   2.191
 1574TIP3    H226138   0.378   2.685   2.270
 1575TIP3   OH226139   1.978   6.762  16.352
 1575TIP3    H126140   2.048   6.827  16.344
 1575TIP3    H226141   2.023   6.679  16.361
 1576TIP3   OH226142   3.914   2.565   3.720
 1576TIP3    H126143   3.949   2.614   3.645
 1576TIP3    H226144   3.972   2.587   3.793
 1577TIP3   OH226145   1.580   3.153  12.803
 1577TIP3    H126146   1.565   3.247  12.790
 1577TIP3    H226147   1.643   3.130  12.734
 1578TIP3   OH226148   4.546   4.857   3.796
 1578TIP3    H126149   4.512   4.814   3.718
 1578TIP3    H226150   4.615   4.798   3.828
 1579TIP3   OH226151   1.390   3.953  11.143
 1579TIP3    H126152   1.442   3.964  11.063
 1579TIP3    H226153   1.386   4.040  11.181
 1580TIP3   OH226154   6.591   1.187  15.143
 1580TIP3    H126155   6.605   1.151  15.055
 1580TIP3    H226156   6.556   1.113  15.193
 1581TIP3   OH226157   6.154   6.271   5.060
 1581TIP3    H126158   6.080   6.325   5.086
 1581TIP3    H226159   6.117   6.206   5.000
 1582TIP3   OH226160   2.269   1.186   4.470
 1582TIP3    H126161   2.249   1.228   4.386
 1582TIP3    H226162   2.238   1.096   4.461
 1583TIP3   OH226163   3.522   0.543  10.638
 1583TIP3    H126164   3.617   0.546  10.652
 1583TIP3    H226165   3.505   0.613  10.576
 1584TIP3   OH226166   3.483   3.815  14.242
 1584TIP3    H126167   3.514   3.784  14.327
 1584TIP3    H226168   3.558   3.862  14.205
 1585TIP3   OH226169   1.403   6.739  13.113
 1585TIP3    H126170   1.330   6.688  13.079
 1585TIP3    H226171   1.414   6.709  13.203
 1586TIP3   OH226172   0.064   5.849   2.178
 1586TIP3    H126173   0.057   5.793   2.101
 1586TIP3    H226174   0.032   5.934   2.149
 1587TIP3   OH226175   3.200   2.505   2.253
 1587TIP3    H126176   3.279   2.497   2.200
 1587TIP3    H226177   3.180   2.599   2.251
 1588TIP3   OH226178   5.275   3.836   3.836
 1588TIP3    H126179   5.311   3.911   3.788
 1588TIP3    H226180   5.346   3.772   3.838
 1589TIP3   OH226181   6.724   5.611   4.009
 1589TIP3    H126182   6.725   5.636   3.917
 1589TIP3    H226183   6.798   5.551   4.019
 1590TIP3   OH226184   3.712   0.795  15.274
 1590TIP3    H126185   3.708   0.740  15.196
 1590TIP3    H226186   3.804   0.794  15.300
 1591TIP3   OH226187   5.455   4.568   3.499
 1591TIP3    H126188   5.476   4.594   3.589
 1591TIP3    H226189   5.468   4.473   3.497
 1592TIP3   OH226190   1.255   1.465  13.657
 1592TIP3    H126191   1.256   1.418  13.740
 1592TIP3    H226192   1.294   1.550  13.678
 1593TIP3   OH226193   1.994   0.428   0.882
 1593TIP3    H126194   1.987   0.382   0.966
 1593TIP3    H226195   1.925   0.389   0.828
 1594TIP3   OH226196   1.428   5.714   3.657
 1594TIP3    H126197   1.504   5.737   3.603
 1594TIP3    H226198   1.450   5.746   3.745
 1595TIP3   OH226199   3.427   4.114  13.790
 1595TIP3    H126200   3.512   4.105  13.833
 1595TIP3    H226201   3.388   4.192  13.830
 1596TIP3   OH226202   6.724   6.681  15.044
 1596TIP3    H126203   6.772   6.715  14.968
 1596TIP3    H226204   6.672   6.756  15.074
 1597TIP3   OH226205   4.453   6.299  11.506
 1597TIP3    H126206   4.543   6.325  11.523
 1597TIP3    H226207   4.458   6.206  11.485
 1598TIP3   OH226208   3.945   0.649   3.611
 1598TIP3    H126209   3.906   0.644   3.698
 1598TIP3    H226210   3.890   0.712   3.564
 1599TIP3   OH226211   5.490   5.474  12.037
 1599TIP3    H126212   5.427   5.470  11.965
 1599TIP3    H226213   5.542   5.552  12.018
 1600TIP3   OH226214   5.971   2.880  16.597
 1600TIP3    H126215   6.003   2.909  16.511
 1600TIP3    H226216   5.937   2.792  16.581
 1601TIP3   OH226217   5.256   3.414   1.801
 1601TIP3    H126218   5.332   3.453   1.757
 1601TIP3    H226219   5.203   3.378   1.730
 1602TIP3   OH226220   0.548   6.397   6.238
 1602TIP3    H126221   0.596   6.477   6.218
 1602TIP3    H226222   0.579   6.372   6.325
 1603TIP3   OH226223   6.097   2.770   3.048
 1603TIP3    H126224   6.134   2.768   3.137
 1603TIP3    H226225   6.003   2.778   3.061
 1604TIP3   OH226226   0.252   2.622   2.717
 1604TIP3    H126227   0.224   2.613   2.808
 1604TIP3    H226228   0.343   2.651   2.723
 1605TIP3   OH226229   0.817   1.125  13.925
 1605TIP3    H126230   0.724   1.146  13.922
 1605TIP3    H226231   0.860   1.205  13.895
 1606TIP3   OH226232   6.066   1.357  16.460
 1606TIP3    H126233   6.058   1.386  16.370
 1606TIP3    H226234   6.159   1.336  16.471
 1607TIP3   OH226235   3.113   4.556   2.354
 1607TIP3    H126236   3.116   4.559   2.258
 1607TIP3    H226237   3.204   4.569   2.382
 1608TIP3   OH226238   6.719   6.324  12.747
 1608TIP3    H126239   6.727   6.343  12.840
 1608TIP3    H226240   6.809   6.315  12.716
 1609TIP3   OH226241   6.672   5.693  15.934
 1609TIP3    H126242   6.637   5.610  15.967
 1609TIP3    H226243   6.764   5.676  15.918
 1610TIP3   OH226244   1.282   5.814   0.174
 1610TIP3    H126245   1.371   5.794   0.202
 1610TIP3    H226246   1.250   5.733   0.135
 1611TIP3   OH226247   5.670   1.961  10.715
 1611TIP3    H126248   5.582   1.988  10.741
 1611TIP3    H226249   5.666   1.865  10.714
 1612TIP3   OH226250   5.681   3.129  15.303
 1612TIP3    H126251   5.604   3.074  15.317
 1612TIP3    H226252   5.662   3.210  15.350
 1613TIP3   OH226253   2.665   2.490  13.591
 1613TIP3    H126254   2.667   2.394  13.594
 1613TIP3    H226255   2.624   2.516  13.673
 1614TIP3   OH226256   1.402   2.472  12.108
 1614TIP3    H126257   1.426   2.509  12.193
 1614TIP3    H226258   1.340   2.535  12.071
 1615TIP3   OH226259   1.295   1.605  13.973
 1615TIP3    H126260   1.263   1.520  14.006
 1615TIP3    H226261   1.329   1.649  14.050
 1616TIP3   OH226262   5.206   3.094  14.314
 1616TIP3    H126263   5.224   3.187  14.306
 1616TIP3    H226264   5.269   3.052  14.255
 1617TIP3   OH226265   4.525   0.763  15.387
 1617TIP3    H126266   4.593   0.747  15.322
 1617TIP3    H226267   4.543   0.700  15.457
 1618TIP3   OH226268   0.396   3.026   1.502
 1618TIP3    H126269   0.371   3.115   1.477
 1618TIP3    H226270   0.474   3.036   1.555
 1619TIP3   OH226271   2.900   4.645   1.015
 1619TIP3    H126272   2.877   4.660   1.107
 1619TIP3    H226273   2.987   4.605   1.019
 1620TIP3   OH226274   6.499   1.960   1.566
 1620TIP3    H126275   6.566   2.028   1.576
 1620TIP3    H226276   6.542   1.890   1.519
 1621TIP3   OH226277   0.545   1.585   0.574
 1621TIP3    H126278   0.559   1.565   0.666
 1621TIP3    H226279   0.632   1.607   0.541
 1622TIP3   OH226280   5.782   3.779   4.942
 1622TIP3    H126281   5.849   3.844   4.959
 1622TIP3    H226282   5.728   3.779   5.021
 1623TIP3   OH226283   4.939   2.426  12.698
 1623TIP3    H126284   4.844   2.437  12.708
 1623TIP3    H226285   4.954   2.440  12.604
 1624TIP3   OH226286   3.430   2.603  15.598
 1624TIP3    H126287   3.351   2.608  15.546
 1624TIP3    H226288   3.418   2.669  15.667
 1625TIP3   OH226289   5.244   0.902  10.753
 1625TIP3    H126290   5.309   0.972  10.744
 1625TIP3    H226291   5.282   0.828  10.706
 1626TIP3   OH226292   5.561   1.386   5.027
 1626TIP3    H126293   5.647   1.351   5.006
 1626TIP3    H226294   5.523   1.408   4.942
 1627TIP3   OH226295   0.314   3.720  16.190
 1627TIP3    H126296   0.363   3.650  16.233
 1627TIP3    H226297   0.235   3.730  16.244
 1628TIP3   OH226298   1.265   1.324   3.442
 1628TIP3    H126299   1.176   1.288   3.435
 1628TIP3    H226300   1.278   1.370   3.359
 1629TIP3   OH226301   1.938   0.023   1.742
 1629TIP3    H126302   1.982   0.029   1.657
 1629TIP3    H226303   1.904  -0.066   1.746
 1630TIP3   OH226304   3.739   0.679  15.037
 1630TIP3    H126305   3.817   0.714  14.994
 1630TIP3    H226306   3.691   0.635  14.966
 1631TIP3   OH226307   3.684   4.292  11.707
 1631TIP3    H126308   3.701   4.219  11.648
 1631TIP3    H226309   3.748   4.282  11.777
 1632TIP3   OH226310   1.460   6.128  17.199
 1632TIP3    H126311   1.488   6.218  17.217
 1632TIP3    H226312   1.398   6.137  17.126
 1633TIP3   OH226313   3.711   5.936  13.125
 1633TIP3    H126314   3.690   6.001  13.192
 1633TIP3    H226315   3.768   5.982  13.064
 1634TIP3   OH226316   3.274   0.771   6.320
 1634TIP3    H126317   3.320   0.853   6.339
 1634TIP3    H226318   3.273   0.725   6.404
 1635TIP3   OH226319   4.191   6.523   2.334
 1635TIP3    H126320   4.256   6.556   2.272
 1635TIP3    H226321   4.182   6.594   2.398
 1636TIP3   OH226322   2.116   0.575  11.523
 1636TIP3    H126323   2.200   0.543  11.556
 1636TIP3    H226324   2.138   0.655  11.475
 1637TIP3   OH226325   0.811   5.030  16.569
 1637TIP3    H126326   0.740   5.063  16.514
 1637TIP3    H226327   0.798   5.071  16.654
 1638TIP3   OH226328   1.348   0.795   0.019
 1638TIP3    H126329   1.342   0.781   0.113
 1638TIP3    H226330   1.357   0.706  -0.018
 1639TIP3   OH226331   0.056   2.860  17.084
 1639TIP3    H126332   0.049   2.856  17.180
 1639TIP3    H226333   0.144   2.825  17.066
 1640TIP3   OH226334   5.825   3.863   6.472
 1640TIP3    H126335   5.747   3.823   6.434
 1640TIP3    H226336   5.798   3.953   6.492
 1641TIP3   OH226337   5.841   6.234   2.571
 1641TIP3    H126338   5.916   6.181   2.545
 1641TIP3    H226339   5.867   6.273   2.655
 1642TIP3   OH226340   5.785   5.746   0.975
 1642TIP3    H126341   5.761   5.683   0.907
 1642TIP3    H226342   5.772   5.831   0.934
 1643TIP3   OH226343   1.702   0.970   4.222
 1643TIP3    H126344   1.750   0.891   4.245
 1643TIP3    H226345   1.761   1.017   4.162
 1644TIP3   OH226346   3.162   5.904   5.614
 1644TIP3    H126347   3.093   5.862   5.665
 1644TIP3    H226348   3.117   5.942   5.539
 1645TIP3   OH226349   3.578   4.821   1.583
 1645TIP3    H126350   3.568   4.749   1.645
 1645TIP3    H226351   3.613   4.780   1.504
 1646TIP3   OH226352   1.068   0.096  17.051
 1646TIP3    H126353   1.043   0.050  17.131
 1646TIP3    H226354   1.006   0.170  17.046
 1647TIP3   OH226355   4.592   4.184  11.433
 1647TIP3    H126356   4.498   4.183  11.416
 1647TIP3    H226357   4.632   4.153  11.352
 1648TIP3   OH226358   1.205   1.540  15.389
 1648TIP3    H126359   1.215   1.472  15.457
 1648TIP3    H226360   1.111   1.545  15.374
 1649TIP3   OH226361   0.008   3.207   5.775
 1649TIP3    H126362  -0.018   3.143   5.708
 1649TIP3    H226363  -0.066   3.267   5.779
 1650TIP3   OH226364   6.221   2.461   0.570
 1650TIP3    H126365   6.266   2.496   0.493
 1650TIP3    H226366   6.152   2.406   0.535
 1651TIP3   OH226367   6.749   0.647  15.642
 1651TIP3    H126368   6.827   0.687  15.679
 1651TIP3    H226369   6.692   0.631  15.717
 1652TIP3   OH226370   3.813   0.400  12.874
 1652TIP3    H126371   3.873   0.325  12.868
 1652TIP3    H226372   3.813   0.436  12.785
 1653TIP3   OH226373   0.777   4.503   2.430
 1653TIP3    H126374   0.831   4.581   2.418
 1653TIP3    H226375   0.688   4.537   2.443
 1654TIP3   OH226376   5.513   2.432  12.903
 1654TIP3    H126377   5.473   2.501  12.956
 1654TIP3    H226378   5.535   2.474  12.821
 1655TIP3   OH226379   2.432   4.256   6.602
 1655TIP3    H126380   2.514   4.253   6.651
 1655TIP3    H226381   2.403   4.165   6.599
 1656TIP3   OH226382   1.183   6.596  11.387
 1656TIP3    H126383   1.251   6.544  11.344
 1656TIP3    H226384   1.110   6.596  11.324
 1657TIP3   OH226385   0.306   5.901   2.540
 1657TIP3    H126386   0.297   5.827   2.601
 1657TIP3    H226387   0.341   5.972   2.594
 1658TIP3   OH226388   4.706   3.031  12.456
 1658TIP3    H126389   4.672   3.037  12.545
 1658TIP3    H226390   4.633   2.997  12.404
 1659TIP3   OH226391   0.286   2.119  11.274
 1659TIP3    H126392   0.313   2.208  11.248
 1659TIP3    H226393   0.251   2.081  11.193
 1660TIP3   OH226394   5.276   1.223   0.127
 1660TIP3    H126395   5.349   1.166   0.101
 1660TIP3    H226396   5.249   1.188   0.212
 1661TIP3   OH226397   5.204   0.185  12.234
 1661TIP3    H126398   5.285   0.139  12.254
 1661TIP3    H226399   5.150   0.119  12.190
 1662TIP3   OH226400   3.505   1.125  13.042
 1662TIP3    H126401   3.463   1.130  13.128
 1662TIP3    H226402   3.549   1.040  13.041
 1663TIP3   OH226403   5.437   4.892   5.789
 1663TIP3    H126404   5.431   4.862   5.880
 1663TIP3    H226405   5.501   4.963   5.791
 1664TIP3   OH226406   5.830   1.955   0.282
 1664TIP3    H126407   5.747   1.952   0.234
 1664TIP3    H226408   5.885   2.013   0.230
 1665TIP3   OH226409   2.199   6.627   6.303
 1665TIP3    H126410   2.244   6.709   6.324
 1665TIP3    H226411   2.166   6.595   6.387
 1666TIP3   OH226412   2.719   5.706  16.503
 1666TIP3    H126413   2.642   5.715  16.559
 1666TIP3    H226414   2.714   5.615  16.471
 1667TIP3   OH226415   1.801   3.814  12.474
 1667TIP3    H126416   1.873   3.875  12.487
 1667TIP3    H226417   1.730   3.867  12.439
 1668TIP3   OH226418   4.465   2.973   5.797
 1668TIP3    H126419   4.538   2.937   5.848
 1668TIP3    H226420   4.407   3.012   5.863
 1669TIP3   OH226421   5.377   3.589  11.614
 1669TIP3    H126422   5.351   3.513  11.666
 1669TIP3    H226423   5.351   3.664  11.666
 1670TIP3   OH226424   5.529   5.689   0.033
 1670TIP3    H126425   5.490   5.645  -0.043
 1670TIP3    H226426   5.597   5.629   0.063
 1671TIP3   OH226427   2.588   0.298   4.617
 1671TIP3    H126428   2.644   0.330   4.545
 1671TIP3    H226429   2.590   0.369   4.681
 1672TIP3   OH226430   4.842   3.449   1.805
 1672TIP3    H126431   4.914   3.402   1.764
 1672TIP3    H226432   4.883   3.499   1.876
 1673TIP3   OH226433   0.813   5.155  13.577
 1673TIP3    H126434   0.762   5.134  13.656
 1673TIP3    H226435   0.825   5.249  13.581
 1674TIP3   OH226436   3.509   1.089   3.197
 1674TIP3    H126437   3.581   1.147   3.221
 1674TIP3    H226438   3.543   1.038   3.124
 1675TIP3   OH226439   0.868   6.265  12.907
 1675TIP3    H126440   0.794   6.224  12.952
 1675TIP3    H226441   0.927   6.291  12.977
 1676TIP3   OH226442   0.932   3.997   5.700
 1676TIP3    H126443   0.881   3.990   5.780
 1676TIP3    H226444   0.904   3.922   5.647
 1677TIP3   OH226445   3.380   6.186   3.498
 1677TIP3    H126446   3.359   6.238   3.421
 1677TIP3    H226447   3.301   6.190   3.552
 1678TIP3   OH226448   0.177   1.853  11.324
 1678TIP3    H126449   0.224   1.936  11.313
 1678TIP3    H226450   0.202   1.801  11.247
 1679TIP3   OH226451   1.324   0.419   6.167
 1679TIP3    H126452   1.340   0.395   6.258
 1679TIP3    H226453   1.309   0.336   6.122
 1680TIP3   OH226454   5.550   3.087  12.154
 1680TIP3    H126455   5.586   3.167  12.116
 1680TIP3    H226456   5.467   3.073  12.108
 1681TIP3   OH226457   1.928   2.504   1.297
 1681TIP3    H126458   1.858   2.568   1.311
 1681TIP3    H226459   1.950   2.472   1.385
 1682TIP3   OH226460   4.108   1.241   5.927
 1682TIP3    H126461   4.030   1.296   5.933
 1682TIP3    H226462   4.156   1.260   6.007
 1683TIP3   OH226463   2.206   0.685  16.130
 1683TIP3    H126464   2.285   0.632  16.120
 1683TIP3    H226465   2.235   0.761  16.182
 1684TIP3   OH226466   5.088   2.996  13.751
 1684TIP3    H126467   5.179   3.027  13.751
 1684TIP3    H226468   5.093   2.908  13.788
 1685TIP3   OH226469   2.143   2.136   2.632
 1685TIP3    H126470   2.078   2.204   2.652
 1685TIP3    H226471   2.220   2.184   2.602
 1686TIP3   OH226472   0.130   2.526  13.876
 1686TIP3    H126473   0.199   2.544  13.813
 1686TIP3    H226474   0.156   2.574  13.955
 1687TIP3   OH226475   6.694   4.998   3.035
 1687TIP3    H126476   6.771   4.999   2.978
 1687TIP3    H226477   6.700   5.079   3.085
 1688TIP3   OH226478   0.848   2.975   3.008
 1688TIP3    H126479   0.826   2.950   3.098
 1688TIP3    H226480   0.836   3.070   3.006
 1689TIP3   OH226481   6.506   0.176  12.546
 1689TIP3    H126482   6.455   0.202  12.623
 1689TIP3    H226483   6.558   0.253  12.524
 1690TIP3   OH226484   1.432   3.629  13.483
 1690TIP3    H126485   1.359   3.686  13.508
 1690TIP3    H226486   1.442   3.570  13.558
 1691TIP3   OH226487   6.483   2.883  14.974
 1691TIP3    H126488   6.432   2.867  15.053
 1691TIP3    H226489   6.528   2.801  14.957
 1692TIP3   OH226490   3.965   0.629  13.110
 1692TIP3    H126491   3.979   0.713  13.154
 1692TIP3    H226492   3.875   0.605  13.132
 1693TIP3   OH226493   5.675   4.669   0.252
 1693TIP3    H126494   5.597   4.627   0.288
 1693TIP3    H226495   5.659   4.674   0.158
 1694TIP3   OH226496   2.059   5.558   5.198
 1694TIP3    H126497   2.098   5.481   5.238
 1694TIP3    H226498   2.002   5.594   5.266
 1695TIP3   OH226499   2.300   6.637  13.712
 1695TIP3    H126500   2.277   6.666  13.801
 1695TIP3    H226501   2.345   6.712  13.673
 1696TIP3   OH226502   1.516   3.217   2.860
 1696TIP3    H126503   1.561   3.270   2.794
 1696TIP3    H226504   1.562   3.133   2.859
 1697TIP3   OH226505   3.836   6.387   4.526
 1697TIP3    H126506   3.842   6.292   4.536
 1697TIP3    H226507   3.790   6.417   4.604
 1698TIP3   OH226508   1.199   4.633   3.238
 1698TIP3    H126509   1.238   4.546   3.229
 1698TIP3    H226510   1.117   4.618   3.285
 1699TIP3   OH226511   6.136   0.610  10.946
 1699TIP3    H126512   6.188   0.660  10.884
 1699TIP3    H226513   6.053   0.594  10.900
 1700TIP3   OH226514   5.547   5.388  15.087
 1700TIP3    H126515   5.579   5.324  15.024
 1700TIP3    H226516   5.469   5.348  15.125
 1701TIP3   OH226517   2.884   4.964  13.245
 1701TIP3    H126518   2.863   4.975  13.338
 1701TIP3    H226519   2.920   4.876  13.239
 1702TIP3   OH226520   6.193   6.635  14.173
 1702TIP3    H126521   6.268   6.649  14.116
 1702TIP3    H226522   6.226   6.575  14.240
 1703TIP3   OH226523   4.781   6.511   3.677
 1703TIP3    H126524   4.813   6.522   3.587
 1703TIP3    H226525   4.698   6.463   3.667
 1704TIP3   OH226526   5.964   6.476   1.434
 1704TIP3    H126527   5.959   6.570   1.452
 1704TIP3    H226528   5.874   6.445   1.443
 1705TIP3   OH226529   2.086   4.732  11.468
 1705TIP3    H126530   2.046   4.758  11.551
 1705TIP3    H226531   2.061   4.801  11.406
 1706TIP3   OH226532   5.456   1.168  16.595
 1706TIP3    H126533   5.360   1.161  16.595
 1706TIP3    H226534   5.478   1.199  16.682
 1707TIP3   OH226535   2.682   4.663   3.716
 1707TIP3    H126536   2.742   4.706   3.777
 1707TIP3    H226537   2.706   4.570   3.721
 1708TIP3   OH226538   3.670   2.174   4.927
 1708TIP3    H126539   3.635   2.123   4.853
 1708TIP3    H226540   3.634   2.131   5.005
 1709TIP3   OH226541   1.932   4.971   5.043
 1709TIP3    H126542   1.848   4.926   5.050
 1709TIP3    H226543   1.990   4.907   5.000
 1710TIP3   OH226544   5.589   2.632  11.723
 1710TIP3    H126545   5.677   2.594  11.723
 1710TIP3    H226546   5.585   2.683  11.642
 1711TIP3   OH226547   5.525   6.784  11.512
 1711TIP3    H126548   5.437   6.767  11.546
 1711TIP3    H226549   5.517   6.770  11.418
 1712TIP3   OH226550   0.461   6.510   2.232
 1712TIP3    H126551   0.437   6.456   2.158
 1712TIP3    H226552   0.383   6.563   2.250
 1713TIP3   OH226553   5.566   4.922   4.979
 1713TIP3    H126554   5.492   4.920   5.040
 1713TIP3    H226555   5.619   4.996   5.007
 1714TIP3   OH226556   1.427   0.317   1.023
 1714TIP3    H126557   1.492   0.372   0.980
 1714TIP3    H226558   1.408   0.247   0.960
 1715TIP3   OH226559   4.303   1.833  16.979
 1715TIP3    H126560   4.309   1.832  16.883
 1715TIP3    H226561   4.380   1.881  17.007
 1716TIP3   OH226562   4.018   0.394   3.889
 1716TIP3    H126563   4.059   0.318   3.847
 1716TIP3    H226564   4.059   0.398   3.976
 1717TIP3   OH226565   3.802   4.283  10.852
 1717TIP3    H126566   3.731   4.339  10.881
 1717TIP3    H226567   3.881   4.333  10.867
 1718TIP3   OH226568   6.418   4.574  13.754
 1718TIP3    H126569   6.323   4.588  13.762
 1718TIP3    H226570   6.452   4.656  13.718
 1719TIP3   OH226571   1.047   2.253  10.972
 1719TIP3    H126572   1.077   2.264  10.882
 1719TIP3    H226573   1.005   2.167  10.973
 1720TIP3   OH226574   2.193   5.129  13.132
 1720TIP3    H126575   2.229   5.100  13.048
 1720TIP3    H226576   2.118   5.182  13.108
 1721TIP3   OH226577   2.892   5.079   3.402
 1721TIP3    H126578   2.964   5.105   3.344
 1721TIP3    H226579   2.899   4.984   3.409
 1722TIP3   OH226580   4.098   0.531  11.923
 1722TIP3    H126581   4.089   0.624  11.940
 1722TIP3    H226582   4.175   0.524  11.867
 1723TIP3   OH226583   3.657   4.830   3.096
 1723TIP3    H126584   3.665   4.754   3.153
 1723TIP3    H226585   3.594   4.803   3.029
 1724TIP3   OH226586   1.182   3.513  12.202
 1724TIP3    H126587   1.162   3.556  12.285
 1724TIP3    H226588   1.100   3.518  12.152
 1725TIP3   OH226589   0.459   6.780  12.819
 1725TIP3    H126590   0.408   6.808  12.743
 1725TIP3    H226591   0.538   6.834  12.816
 1726TIP3   OH226592   3.473   2.451  15.251
 1726TIP3    H126593   3.518   2.367  15.263
 1726TIP3    H226594   3.396   2.445  15.308
 1727TIP3   OH226595   3.099   1.890  14.552
 1727TIP3    H126596   3.163   1.819  14.546
 1727TIP3    H226597   3.129   1.956  14.489
 1728TIP3   OH226598   0.373   4.023  12.613
 1728TIP3    H126599   0.332   3.941  12.641
 1728TIP3    H226600   0.412   4.059  12.693
 1729TIP3   OH226601   2.136   3.854  12.537
 1729TIP3    H126602   2.172   3.784  12.482
 1729TIP3    H226603   2.186   3.932  12.511
 1730TIP3   OH226604   4.884   2.647  16.748
 1730TIP3    H126605   4.915   2.655  16.657
 1730TIP3    H226606   4.842   2.731  16.766
 1731TIP3   OH226607   2.645   6.068   4.431
 1731TIP3    H126608   2.627   5.974   4.437
 1731TIP3    H226609   2.558   6.109   4.430
 1732TIP3   OH226610   2.427   3.266   3.660
 1732TIP3    H126611   2.482   3.307   3.726
 1732TIP3    H226612   2.462   3.177   3.652
 1733TIP3   OH226613   0.301   0.110   4.782
 1733TIP3    H126614   0.360   0.148   4.717
 1733TIP3    H226615   0.353   0.043   4.826
 1734TIP3   OH226616   5.281   3.160  11.769
 1734TIP3    H126617   5.301   3.080  11.817
 1734TIP3    H226618   5.364   3.206  11.762
 1735TIP3   OH226619   4.859   0.637  14.587
 1735TIP3    H126620   4.872   0.722  14.546
 1735TIP3    H226621   4.936   0.586  14.562
 1736TIP3   OH226622   4.234   5.809  13.072
 1736TIP3    H126623   4.158   5.777  13.120
 1736TIP3    H226624   4.249   5.897  13.106
 1737TIP3   OH226625   5.009   5.807  11.998
 1737TIP3    H126626   4.979   5.861  11.925
 1737TIP3    H226627   5.104   5.799  11.984
 1738TIP3   OH226628   0.588   3.436   0.168
 1738TIP3    H126629   0.547   3.463   0.251
 1738TIP3    H226630   0.615   3.346   0.183
 1739TIP3   OH226631   1.559   1.819   1.230
 1739TIP3    H126632   1.487   1.776   1.277
 1739TIP3    H226633   1.638   1.792   1.277
 1740TIP3   OH226634   1.895   3.666  16.791
 1740TIP3    H126635   1.846   3.622  16.721
 1740TIP3    H226636   1.950   3.730  16.746
 1741TIP3   OH226637   3.324   1.238   2.290
 1741TIP3    H126638   3.300   1.258   2.381
 1741TIP3    H226639   3.243   1.203   2.252
 1742TIP3   OH226640   3.705   2.899  12.742
 1742TIP3    H126641   3.780   2.896  12.682
 1742TIP3    H226642   3.679   2.807  12.752
 1743TIP3   OH226643   2.110   3.540   3.780
 1743TIP3    H126644   2.157   3.562   3.860
 1743TIP3    H226645   2.064   3.459   3.800
 1744TIP3   OH226646   1.684   3.693  14.754
 1744TIP3    H126647   1.688   3.705  14.659
 1744TIP3    H226648   1.662   3.780  14.788
 1745TIP3   OH226649   4.290   6.754  14.366
 1745TIP3    H126650   4.261   6.684  14.425
 1745TIP3    H226651   4.238   6.740  14.286
 1746TIP3   OH226652   2.243   3.203  17.230
 1746TIP3    H126653   2.256   3.119  17.273
 1746TIP3    H226654   2.318   3.214  17.173
 1747TIP3   OH226655   3.311   3.325   1.497
 1747TIP3    H126656   3.247   3.325   1.426
 1747TIP3    H226657   3.390   3.287   1.458
 1748TIP3   OH226658   4.433   1.355   1.543
 1748TIP3    H126659   4.382   1.274   1.545
 1748TIP3    H226660   4.429   1.383   1.451
 1749TIP3   OH226661   4.518   3.501   5.363
 1749TIP3    H126662   4.598   3.545   5.393
 1749TIP3    H226663   4.513   3.523   5.270
 1750TIP3   OH226664   3.818   5.417   3.566
 1750TIP3    H126665   3.768   5.337   3.581
 1750TIP3    H226666   3.863   5.433   3.649
 1751TIP3   OH226667   0.158   4.146   1.492
 1751TIP3    H126668   0.094   4.207   1.454
 1751TIP3    H226669   0.209   4.199   1.553
 1752TIP3   OH226670   6.643   1.132  13.110
 1752TIP3    H126671   6.692   1.210  13.137
 1752TIP3    H226672   6.635   1.140  13.015
 1753TIP3   OH226673   1.319   1.504  10.857
 1753TIP3    H126674   1.243   1.503  10.798
 1753TIP3    H226675   1.393   1.524  10.799
 1754TIP3   OH226676   5.730   5.844   1.376
 1754TIP3    H126677   5.797   5.912   1.362
 1754TIP3    H226678   5.727   5.832   1.471
 1755TIP3   OH226679   6.657   6.410   1.959
 1755TIP3    H126680   6.650   6.399   1.864
 1755TIP3    H226681   6.615   6.495   1.977
 1756TIP3   OH226682   3.745   2.832   0.395
 1756TIP3    H126683   3.651   2.815   0.405
 1756TIP3    H226684   3.751   2.927   0.386
 1757TIP3   OH226685   3.783   1.183  16.891
 1757TIP3    H126686   3.800   1.209  16.981
 1757TIP3    H226687   3.688   1.186  16.883
 1758TIP3   OH226688   5.092   3.506  13.809
 1758TIP3    H126689   5.159   3.500  13.878
 1758TIP3    H226690   5.009   3.511  13.857
 1759TIP3   OH226691   2.614   3.356   3.251
 1759TIP3    H126692   2.685   3.405   3.291
 1759TIP3    H226693   2.534   3.388   3.293
 1760TIP3   OH226694   1.270   1.585   4.098
 1760TIP3    H126695   1.316   1.545   4.024
 1760TIP3    H226696   1.184   1.543   4.098
 1761TIP3   OH226697   0.895   3.635  14.882
 1761TIP3    H126698   0.870   3.696  14.951
 1761TIP3    H226699   0.977   3.672  14.846
 1762TIP3   OH226700   4.534   0.547   2.733
 1762TIP3    H126701   4.529   0.621   2.673
 1762TIP3    H226702   4.547   0.471   2.676
 1763TIP3   OH226703   5.844   5.498  16.553
 1763TIP3    H126704   5.933   5.505  16.587
 1763TIP3    H226705   5.846   5.544  16.469
 1764TIP3   OH226706   6.065   5.002   0.393
 1764TIP3    H126707   6.107   4.980   0.310
 1764TIP3    H226708   5.971   4.990   0.376
 1765TIP3   OH226709   0.906   1.395  12.059
 1765TIP3    H126710   0.995   1.413  12.030
 1765TIP3    H226711   0.913   1.391  12.154
 1766TIP3   OH226712   5.025   0.557   1.928
 1766TIP3    H126713   5.060   0.636   1.969
 1766TIP3    H226714   5.014   0.581   1.836
 1767TIP3   OH226715   5.154   5.147  11.221
 1767TIP3    H126716   5.226   5.138  11.158
 1767TIP3    H226717   5.084   5.093  11.185
 1768TIP3   OH226718   1.917   4.418  11.406
 1768TIP3    H126719   1.998   4.417  11.355
 1768TIP3    H226720   1.889   4.510  11.405
 1769TIP3   OH226721   1.514   1.500   1.579
 1769TIP3    H126722   1.596   1.490   1.626
 1769TIP3    H226723   1.446   1.485   1.645
 1770TIP3   OH226724   1.239   4.514  15.309
 1770TIP3    H126725   1.295   4.528  15.233
 1770TIP3    H226726   1.214   4.421  15.303
 1771TIP3   OH226727   5.476   6.552  15.737
 1771TIP3    H126728   5.548   6.489  15.738
 1771TIP3    H226729   5.509   6.625  15.684
 1772TIP3   OH226730   2.468   3.137   3.124
 1772TIP3    H126731   2.423   3.124   3.207
 1772TIP3    H226732   2.545   3.190   3.147
 1773TIP3   OH226733   4.149   1.200  15.953
 1773TIP3    H126734   4.170   1.293  15.948
 1773TIP3    H226735   4.201   1.160  15.884
 1774TIP3   OH226736   4.828   1.782   1.846
 1774TIP3    H126737   4.806   1.768   1.939
 1774TIP3    H226738   4.760   1.842   1.815
 1775TIP3   OH226739   2.919   2.276  14.451
 1775TIP3    H126740   2.850   2.332  14.485
 1775TIP3    H226741   2.999   2.329  14.457
 1776TIP3   OH226742   4.136   5.957   0.312
 1776TIP3    H126743   4.196   5.940   0.240
 1776TIP3    H226744   4.146   5.881   0.370
 1777TIP3   OH226745   1.369   5.396   6.181
 1777TIP3    H126746   1.381   5.489   6.165
 1777TIP3    H226747   1.312   5.393   6.259
 1778TIP3   OH226748   3.284   1.764   5.763
 1778TIP3    H126749   3.356   1.781   5.702
 1778TIP3    H226750   3.214   1.728   5.708
 1779TIP3   OH226751   3.091   4.360   4.416
 1779TIP3    H126752   3.124   4.394   4.499
 1779TIP3    H226753   3.093   4.265   4.427
 1780TIP3   OH226754   3.037   4.603  12.247
 1780TIP3    H126755   2.957   4.619  12.298
 1780TIP3    H226756   3.020   4.643  12.162
 1781TIP3   OH226757   3.150   5.909  12.025
 1781TIP3    H126758   3.221   5.849  12.002
 1781TIP3    H226759   3.071   5.865  11.995
 1782TIP3   OH226760   6.330   6.027  12.140
 1782TIP3    H126761   6.342   6.041  12.234
 1782TIP3    H226762   6.412   6.057  12.101
 1783TIP3   OH226763   5.097   5.943  15.576
 1783TIP3    H126764   5.173   5.918  15.523
 1783TIP3    H226765   5.128   5.933  15.666
 1784TIP3   OH226766   5.573   0.154   3.901
 1784TIP3    H126767   5.649   0.107   3.866
 1784TIP3    H226768   5.505   0.143   3.834
 1785TIP3   OH226769   6.775   4.581   2.479
 1785TIP3    H126770   6.771   4.498   2.431
 1785TIP3    H226771   6.737   4.645   2.419
 1786TIP3   OH226772   6.634   5.097   1.759
 1786TIP3    H126773   6.626   5.091   1.855
 1786TIP3    H226774   6.649   5.007   1.730
 1787TIP3   OH226775   0.270   1.980   2.369
 1787TIP3    H126776   0.232   2.066   2.354
 1787TIP3    H226777   0.247   1.958   2.460
 1788TIP3   OH226778   4.403   2.964  12.623
 1788TIP3    H126779   4.456   3.007  12.690
 1788TIP3    H226780   4.456   2.970  12.544
 1789TIP3   OH226781   3.527   4.197   5.562
 1789TIP3    H126782   3.460   4.202   5.493
 1789TIP3    H226783   3.506   4.118   5.610
 1790TIP3   OH226784   2.302   2.844  12.988
 1790TIP3    H126785   2.327   2.751  12.989
 1790TIP3    H226786   2.231   2.850  13.051
 1791TIP3   OH226787   2.992   2.103  13.679
 1791TIP3    H126788   3.035   2.044  13.618
 1791TIP3    H226789   3.064   2.142  13.730
 1792TIP3   OH226790   6.585   3.236   5.454
 1792TIP3    H126791   6.571   3.160   5.511
 1792TIP3    H226792   6.564   3.205   5.366
 1793TIP3   OH226793   0.639   5.982   3.212
 1793TIP3    H126794   0.658   6.008   3.122
 1793TIP3    H226795   0.568   6.040   3.239
 1794TIP3   OH226796   0.778   6.072  14.409
 1794TIP3    H126797   0.734   6.035  14.332
 1794TIP3    H226798   0.825   6.149  14.376
 1795TIP3   OH226799   2.370   1.983  15.969
 1795TIP3    H126800   2.312   1.975  16.045
 1795TIP3    H226801   2.451   1.940  15.997
 1796TIP3   OH226802   5.614   5.616  13.357
 1796TIP3    H126803   5.680   5.657  13.301
 1796TIP3    H226804   5.549   5.685  13.372
 1797TIP3   OH226805   5.484   4.662   1.067
 1797TIP3    H126806   5.507   4.610   1.144
 1797TIP3    H226807   5.502   4.605   0.992
 1798TIP3   OH226808   0.616   3.622   3.475
 1798TIP3    H126809   0.686   3.586   3.529
 1798TIP3    H226810   0.626   3.580   3.390
 1799TIP3   OH226811   0.541   6.098  15.899
 1799TIP3    H126812   0.606   6.104  15.969
 1799TIP3    H226813   0.552   6.180  15.850
 1800TIP3   OH226814   5.117   0.928  11.527
 1800TIP3    H126815   5.084   0.891  11.609
 1800TIP3    H226816   5.109   0.856  11.464
 1801TIP3   OH226817   0.655   1.079  14.980
 1801TIP3    H126818   0.592   1.057  15.049
 1801TIP3    H226819   0.621   1.036  14.902
 1802TIP3   OH226820   6.370   4.266  15.671
 1802TIP3    H126821   6.439   4.203  15.648
 1802TIP3    H226822   6.357   4.317  15.591
 1803TIP3   OH226823   5.470   0.653  13.488
 1803TIP3    H126824   5.423   0.615  13.414
 1803TIP3    H226825   5.562   0.636  13.470
 1804TIP3   OH226826   5.796   5.653   3.757
 1804TIP3    H126827   5.794   5.736   3.710
 1804TIP3    H226828   5.782   5.677   3.849
 1805TIP3   OH226829   4.627   5.712  16.348
 1805TIP3    H126830   4.638   5.678  16.437
 1805TIP3    H226831   4.650   5.805  16.355
 1806TIP3   OH226832   0.851   2.378  14.615
 1806TIP3    H126833   0.942   2.357  14.633
 1806TIP3    H226834   0.805   2.295  14.624
 1807TIP3   OH226835   5.732   0.115  13.452
 1807TIP3    H126836   5.780   0.076  13.380
 1807TIP3    H226837   5.750   0.059  13.527
 1808TIP3   OH226838   4.419   4.062  10.812
 1808TIP3    H126839   4.437   3.986  10.866
 1808TIP3    H226840   4.367   4.120  10.868
 1809TIP3   OH226841   0.217   1.671  16.367
 1809TIP3    H126842   0.176   1.755  16.347
 1809TIP3    H226843   0.147   1.607  16.352
 1810TIP3   OH226844   3.356   1.456  17.138
 1810TIP3    H126845   3.357   1.436  17.232
 1810TIP3    H226846   3.334   1.549  17.134
 1811TIP3   OH226847   3.805   5.753   4.556
 1811TIP3    H126848   3.728   5.741   4.611
 1811TIP3    H226849   3.877   5.716   4.607
 1812TIP3   OH226850   4.321   5.542   4.275
 1812TIP3    H126851   4.396   5.531   4.217
 1812TIP3    H226852   4.299   5.635   4.269
 1813TIP3   OH226853   6.531   3.063   4.709
 1813TIP3    H126854   6.579   3.139   4.740
 1813TIP3    H226855   6.598   3.005   4.674
 1814TIP3   OH226856   6.516   4.675   5.718
 1814TIP3    H126857   6.435   4.637   5.684
 1814TIP3    H226858   6.498   4.768   5.724
 1815TIP3   OH226859   0.601   6.621   4.364
 1815TIP3    H126860   0.648   6.560   4.422
 1815TIP3    H226861   0.514   6.628   4.403
 1816TIP3   OH226862   6.196   1.241   0.392
 1816TIP3    H126863   6.132   1.174   0.418
 1816TIP3    H226864   6.209   1.293   0.471
 1817TIP3   OH226865   5.605   1.840  16.685
 1817TIP3    H126866   5.630   1.750  16.664
 1817TIP3    H226867   5.673   1.871  16.744
 1818TIP3   OH226868   4.937   1.314   4.796
 1818TIP3    H126869   5.030   1.289   4.797
 1818TIP3    H226870   4.899   1.259   4.726
 1819TIP3   OH226871   3.596   6.124  12.863
 1819TIP3    H126872   3.541   6.197  12.834
 1819TIP3    H226873   3.535   6.051  12.875
 1820TIP3   OH226874   3.334   1.106   4.164
 1820TIP3    H126875   3.255   1.144   4.203
 1820TIP3    H226876   3.301   1.041   4.103
 1821TIP3   OH226877   4.214   6.552  12.541
 1821TIP3    H126878   4.235   6.602  12.620
 1821TIP3    H226879   4.244   6.463  12.560
 1822TIP3   OH226880   5.236   3.060  12.656
 1822TIP3    H126881   5.273   3.141  12.620
 1822TIP3    H226882   5.149   3.086  12.687
 1823TIP3   OH226883   3.723   3.203   1.163
 1823TIP3    H126884   3.778   3.125   1.168
 1823TIP3    H226885   3.720   3.236   1.253
 1824TIP3   OH226886   4.941   3.896  10.781
 1824TIP3    H126887   4.957   3.844  10.702
 1824TIP3    H226888   4.848   3.882  10.800
 1825TIP3   OH226889   5.646   2.881  16.029
 1825TIP3    H126890   5.584   2.954  16.027
 1825TIP3    H226891   5.630   2.836  16.112
 1826TIP3   OH226892   2.635   2.636   0.759
 1826TIP3    H126893   2.704   2.701   0.740
 1826TIP3    H226894   2.624   2.641   0.854
 1827TIP3   OH226895   5.092   0.386   0.962
 1827TIP3    H126896   5.019   0.428   0.916
 1827TIP3    H226897   5.163   0.383   0.897
 1828TIP3   OH226898   2.636   1.727  13.873
 1828TIP3    H126899   2.692   1.792  13.916
 1828TIP3    H226900   2.655   1.736  13.780
 1829TIP3   OH226901   2.754   4.460   0.807
 1829TIP3    H126902   2.838   4.416   0.801
 1829TIP3    H226903   2.767   4.528   0.874
 1830TIP3   OH226904   4.341   1.754  15.822
 1830TIP3    H126905   4.270   1.810  15.852
 1830TIP3    H226906   4.323   1.740  15.729
 1831TIP3   OH226907   0.568   2.197   1.871
 1831TIP3    H126908   0.590   2.118   1.822
 1831TIP3    H226909   0.525   2.166   1.950
 1832TIP3   OH226910   5.949   4.615   2.381
 1832TIP3    H126911   5.986   4.684   2.326
 1832TIP3    H226912   5.906   4.556   2.319
 1833TIP3   OH226913   2.196   4.402  15.794
 1833TIP3    H126914   2.191   4.351  15.713
 1833TIP3    H226915   2.177   4.492  15.768
 1834TIP3   OH226916   3.987   0.886  11.010
 1834TIP3    H126917   3.977   0.862  10.918
 1834TIP3    H226918   3.898   0.886  11.044
 1835TIP3   OH226919   2.160   6.306  15.438
 1835TIP3    H126920   2.228   6.278  15.377
 1835TIP3    H226921   2.208   6.354  15.506
 1836TIP3   OH226922   4.033   1.748  11.828
 1836TIP3    H126923   4.020   1.745  11.733
 1836TIP3    H226924   4.105   1.809  11.840
 1837TIP3   OH226925   2.555   2.223  13.799
 1837TIP3    H126926   2.606   2.188  13.726
 1837TIP3    H226927   2.464   2.218  13.769
 1838TIP3   OH226928   3.094   1.592   0.101
 1838TIP3    H126929   3.064   1.624   0.186
 1838TIP3    H226930   3.136   1.667   0.060
 1839TIP3   OH226931   0.971   6.264  13.756
 1839TIP3    H126932   1.032   6.320  13.804
 1839TIP3    H226933   0.895   6.320  13.738
 1840TIP3   OH226934   6.405   0.158  14.758
 1840TIP3    H126935   6.328   0.208  14.786
 1840TIP3    H226936   6.458   0.150  14.837
 1841TIP3   OH226937   0.062   4.062  11.737
 1841TIP3    H126938   0.136   4.031  11.685
 1841TIP3    H226939  -0.007   4.082  11.673
 1842TIP3   OH226940   2.879   0.037  13.346
 1842TIP3    H126941   2.953  -0.016  13.315
 1842TIP3    H226942   2.804  -0.021  13.338
 1843TIP3   OH226943   6.577   0.404   0.460
 1843TIP3    H126944   6.539   0.400   0.373
 1843TIP3    H226945   6.620   0.319   0.471
 1844TIP3   OH226946   1.948   1.404  13.805
 1844TIP3    H126947   1.879   1.343  13.832
 1844TIP3    H226948   1.919   1.489  13.838
 1845TIP3   OH226949   2.129   6.322  13.155
 1845TIP3    H126950   2.221   6.314  13.131
 1845TIP3    H226951   2.116   6.416  13.167
 1846TIP3   OH226952   0.723   4.816  14.840
 1846TIP3    H126953   0.680   4.865  14.771
 1846TIP3    H226954   0.652   4.792  14.900
 1847TIP3   OH226955   0.944   3.461   3.332
 1847TIP3    H126956   0.931   3.368   3.352
 1847TIP3    H226957   0.865   3.486   3.284
 1848TIP3   OH226958   4.879   1.310  13.737
 1848TIP3    H126959   4.923   1.387  13.771
 1848TIP3    H226960   4.796   1.306  13.785
 1849TIP3   OH226961   3.832   4.812  15.758
 1849TIP3    H126962   3.832   4.901  15.722
 1849TIP3    H226963   3.754   4.809  15.813
 1850TIP3   OH226964   6.196   0.358  15.595
 1850TIP3    H126965   6.125   0.294  15.599
 1850TIP3    H226966   6.170   0.427  15.655
 1851TIP3   OH226967   0.085   5.587   1.700
 1851TIP3    H126968   0.008   5.624   1.743
 1851TIP3    H226969   0.051   5.540   1.624
 1852TIP3   OH226970   2.028   0.853  11.780
 1852TIP3    H126971   2.113   0.813  11.761
 1852TIP3    H226972   1.964   0.789  11.749
 1853TIP3   OH226973   1.308   1.066   2.018
 1853TIP3    H126974   1.308   1.054   2.113
 1853TIP3    H226975   1.222   1.037   1.990
 1854TIP3   OH226976   6.613   4.238   2.952
 1854TIP3    H126977   6.563   4.292   2.890
 1854TIP3    H226978   6.704   4.249   2.924
 1855TIP3   OH226979   1.183   5.919   4.632
 1855TIP3    H126980   1.158   5.859   4.561
 1855TIP3    H226981   1.278   5.931   4.621
 1856TIP3   OH226982   3.170   3.077   1.840
 1856TIP3    H126983   3.148   3.170   1.829
 1856TIP3    H226984   3.199   3.071   1.932
 1857TIP3   OH226985   4.300   2.946  13.176
 1857TIP3    H126986   4.228   3.004  13.201
 1857TIP3    H226987   4.375   3.004  13.164
 1858TIP3   OH226988   1.868   4.980  16.691
 1858TIP3    H126989   1.822   5.060  16.665
 1858TIP3    H226990   1.798   4.918  16.712
 1859TIP3   OH226991   5.623   0.626  12.688
 1859TIP3    H126992   5.601   0.718  12.700
 1859TIP3    H226993   5.598   0.584  12.771
 1860TIP3   OH226994   6.246   1.195   1.510
 1860TIP3    H126995   6.157   1.220   1.485
 1860TIP3    H226996   6.302   1.251   1.456
 1861TIP3   OH226997   5.726   0.486  14.331
 1861TIP3    H126998   5.750   0.572  14.296
 1861TIP3    H226999   5.804   0.458  14.380
 1862TIP3   OH227000   5.287   1.501  11.729
 1862TIP3    H127001   5.318   1.424  11.682
 1862TIP3    H227002   5.328   1.494  11.816
 1863TIP3   OH227003   4.391   5.506   4.539
 1863TIP3    H127004   4.370   5.547   4.456
 1863TIP3    H227005   4.442   5.572   4.587
 1864TIP3   OH227006   2.106   3.078   0.287
 1864TIP3    H127007   2.021   3.096   0.328
 1864TIP3    H227008   2.153   3.161   0.292
 1865TIP3   OH227009   2.655   1.595  15.113
 1865TIP3    H127010   2.632   1.620  15.024
 1865TIP3    H227011   2.685   1.676  15.154
 1866TIP3   OH227012   2.819   0.441   1.048
 1866TIP3    H127013   2.779   0.522   1.081
 1866TIP3    H227014   2.749   0.400   0.996
 1867TIP3   OH227015   0.362   0.288   0.504
 1867TIP3    H127016   0.316   0.222   0.556
 1867TIP3    H227017   0.438   0.312   0.557
 1868TIP3   OH227018   2.934   3.929   0.635
 1868TIP3    H127019   2.911   3.964   0.549
 1868TIP3    H227020   3.001   3.989   0.668
 1869TIP3   OH227021   3.499   5.007   3.895
 1869TIP3    H127022   3.529   5.095   3.870
 1869TIP3    H227023   3.442   4.980   3.823
 1870TIP3   OH227024   1.022   2.021   0.260
 1870TIP3    H127025   0.976   1.946   0.223
 1870TIP3    H227026   1.113   1.993   0.268
 1871TIP3   OH227027   5.793   5.015  14.702
 1871TIP3    H127028   5.786   4.919  14.700
 1871TIP3    H227029   5.712   5.046  14.662
 1872TIP3   OH227030   3.925   3.380   0.005
 1872TIP3    H127031   3.936   3.466  -0.037
 1872TIP3    H227032   4.008   3.366   0.051
 1873TIP3   OH227033   6.332   2.749  16.221
 1873TIP3    H127034   6.354   2.793  16.140
 1873TIP3    H227035   6.287   2.669  16.193
 1874TIP3   OH227036   4.062   5.213  13.539
 1874TIP3    H127037   4.136   5.274  13.535
 1874TIP3    H227038   3.984   5.268  13.536
 1875TIP3   OH227039   2.465   0.924  12.285
 1875TIP3    H127040   2.398   0.976  12.240
 1875TIP3    H227041   2.417   0.850  12.322
 1876TIP3   OH227042   6.463   1.614  15.739
 1876TIP3    H127043   6.458   1.696  15.691
 1876TIP3    H227044   6.377   1.573  15.727
 1877TIP3   OH227045   0.656   3.616  12.108
 1877TIP3    H127046   0.608   3.547  12.155
 1877TIP3    H227047   0.598   3.692  12.113
 1878TIP3   OH227048   6.504   4.966  10.888
 1878TIP3    H127049   6.455   4.909  10.830
 1878TIP3    H227050   6.497   4.926  10.975
 1879TIP3   OH227051   5.532   0.975   5.332
 1879TIP3    H127052   5.488   0.905   5.380
 1879TIP3    H227053   5.603   0.931   5.286
 1880TIP3   OH227054   0.895   2.876  14.244
 1880TIP3    H127055   0.907   2.830  14.328
 1880TIP3    H227056   0.801   2.872  14.227
 1881TIP3   OH227057   0.477   3.485   0.489
 1881TIP3    H127058   0.457   3.555   0.427
 1881TIP3    H227059   0.393   3.445   0.509
 1882TIP3   OH227060   2.518   2.997  11.328
 1882TIP3    H127061   2.481   2.911  11.351
 1882TIP3    H227062   2.607   2.978  11.300
 1883TIP3   OH227063   5.653   0.512  11.632
 1883TIP3    H127064   5.638   0.419  11.616
 1883TIP3    H227065   5.703   0.515  11.714
 1884TIP3   OH227066   4.936   2.735  16.166
 1884TIP3    H127067   4.951   2.821  16.203
 1884TIP3    H227068   5.021   2.708  16.130
 1885TIP3   OH227069   3.560   3.811  11.519
 1885TIP3    H127070   3.550   3.764  11.602
 1885TIP3    H227071   3.636   3.770  11.477
 1886TIP3   OH227072   3.991   3.217  15.716
 1886TIP3    H127073   4.011   3.295  15.664
 1886TIP3    H227074   3.949   3.250  15.795
 1887TIP3   OH227075   4.808   2.625  11.484
 1887TIP3    H127076   4.845   2.537  11.493
 1887TIP3    H227077   4.754   2.620  11.405
 1888TIP3   OH227078   3.733   3.709   4.303
 1888TIP3    H127079   3.719   3.620   4.334
 1888TIP3    H227080   3.673   3.718   4.229
 1889TIP3   OH227081   1.701   1.569   5.376
 1889TIP3    H127082   1.715   1.565   5.281
 1889TIP3    H227083   1.789   1.574   5.413
 1890TIP3   OH227084   1.624   3.094   3.128
 1890TIP3    H127085   1.651   3.182   3.156
 1890TIP3    H227086   1.701   3.057   3.086
 1891TIP3   OH227087   1.046   3.985   0.802
 1891TIP3    H127088   1.086   3.905   0.836
 1891TIP3    H227089   1.108   4.055   0.825
 1892TIP3   OH227090   3.790   4.559  15.708
 1892TIP3    H127091   3.824   4.631  15.761
 1892TIP3    H227092   3.703   4.590  15.680
 1893TIP3   OH227093   6.178   6.744  13.618
 1893TIP3    H127094   6.161   6.708  13.531
 1893TIP3    H227095   6.202   6.835  13.603
 1894TIP3   OH227096   1.468   2.746  14.658
 1894TIP3    H127097   1.543   2.707  14.613
 1894TIP3    H227098   1.418   2.671  14.691
 1895TIP3   OH227099   6.181   5.225  12.576
 1895TIP3    H127100   6.189   5.203  12.484
 1895TIP3    H227101   6.243   5.167  12.621
 1896TIP3   OH227102   3.405   5.361   1.991
 1896TIP3    H127103   3.372   5.445   2.022
 1896TIP3    H227104   3.499   5.376   1.977
 1897TIP3   OH227105   3.438   2.961  12.683
 1897TIP3    H127106   3.382   2.986  12.756
 1897TIP3    H227107   3.525   2.951  12.722
 1898TIP3   OH227108   0.361   3.926   1.458
 1898TIP3    H127109   0.302   4.001   1.467
 1898TIP3    H227110   0.394   3.931   1.368
 1899TIP3   OH227111   2.660   6.719  14.035
 1899TIP3    H127112   2.611   6.709  14.116
 1899TIP3    H227113   2.604   6.678  13.969
 1900TIP3   OH227114   1.566   4.989  12.387
 1900TIP3    H127115   1.640   4.954  12.438
 1900TIP3    H227116   1.490   4.977  12.444
 1901TIP3   OH227117   0.708   1.049   3.918
 1901TIP3    H127118   0.784   1.095   3.954
 1901TIP3    H227119   0.743   0.969   3.879
 1902TIP3   OH227120   5.375   2.177   4.966
 1902TIP3    H127121   5.432   2.220   5.030
 1902TIP3    H227122   5.410   2.089   4.957
 1903TIP3   OH227123   0.578   2.181  13.018
 1903TIP3    H127124   0.667   2.144  13.017
 1903TIP3    H227125   0.523   2.112  13.054
 1904TIP3   OH227126   2.330   2.681   4.746
 1904TIP3    H127127   2.389   2.659   4.819
 1904TIP3    H227128   2.324   2.776   4.749
 1905TIP3   OH227129   4.950   3.832   4.011
 1905TIP3    H127130   4.996   3.813   3.929
 1905TIP3    H227131   4.861   3.856   3.983
 1906TIP3   OH227132   1.752   1.153  15.101
 1906TIP3    H127133   1.804   1.142  15.021
 1906TIP3    H227134   1.665   1.119  15.078
 1907TIP3   OH227135   0.443   0.863   1.415
 1907TIP3    H127136   0.435   0.769   1.401
 1907TIP3    H227137   0.374   0.884   1.477
 1908TIP3   OH227138   2.980   2.341  15.918
 1908TIP3    H127139   2.926   2.347  15.997
 1908TIP3    H227140   2.949   2.261  15.874
 1909TIP3   OH227141   5.271   5.384   4.204
 1909TIP3    H127142   5.189   5.430   4.221
 1909TIP3    H227143   5.329   5.410   4.275
 1910TIP3   OH227144   3.930   1.804   0.352
 1910TIP3    H127145   3.903   1.795   0.260
 1910TIP3    H227146   3.970   1.891   0.357
 1911TIP3   OH227147   2.372   6.583   4.458
 1911TIP3    H127148   2.278   6.603   4.461
 1911TIP3    H227149   2.410   6.642   4.523
 1912TIP3   OH227150   3.034   5.170   1.595
 1912TIP3    H127151   2.939   5.175   1.602
 1912TIP3    H227152   3.061   5.259   1.573
 1913TIP3   OH227153   5.422   6.631   2.240
 1913TIP3    H127154   5.450   6.711   2.195
 1913TIP3    H227155   5.463   6.636   2.326
 1914TIP3   OH227156   6.643   6.326   3.863
 1914TIP3    H127157   6.694   6.256   3.822
 1914TIP3    H227158   6.592   6.281   3.930
 1915TIP3   OH227159   1.671   0.787   0.578
 1915TIP3    H127160   1.686   0.782   0.672
 1915TIP3    H227161   1.693   0.878   0.555
 1916TIP3   OH227162   5.030   1.383   3.904
 1916TIP3    H127163   4.957   1.403   3.962
 1916TIP3    H227164   5.032   1.455   3.841
 1917TIP3   OH227165   6.586   1.792  16.590
 1917TIP3    H127166   6.592   1.857  16.520
 1917TIP3    H227167   6.677   1.775  16.615
 1918TIP3   OH227168   2.431   5.863   1.869
 1918TIP3    H127169   2.489   5.913   1.926
 1918TIP3    H227170   2.475   5.863   1.784
 1919TIP3   OH227171   3.108   4.676   1.485
 1919TIP3    H127172   3.177   4.699   1.423
 1919TIP3    H227173   3.153   4.629   1.556
 1920TIP3   OH227174   0.050   3.533  14.275
 1920TIP3    H127175   0.071   3.561  14.364
 1920TIP3    H227176  -0.033   3.576  14.255
 1921TIP3   OH227177   5.104   6.637   1.111
 1921TIP3    H127178   5.147   6.584   1.043
 1921TIP3    H227179   5.019   6.595   1.124
 1922TIP3   OH227180   5.541   1.645  11.385
 1922TIP3    H127181   5.522   1.636  11.291
 1922TIP3    H227182   5.525   1.558  11.421
 1923TIP3   OH227183   6.210   5.676  11.496
 1923TIP3    H127184   6.260   5.746  11.535
 1923TIP3    H227185   6.210   5.695  11.402
 1924TIP3   OH227186   4.656   0.047   4.539
 1924TIP3    H127187   4.718   0.083   4.601
 1924TIP3    H227188   4.572   0.086   4.563
 1925TIP3   OH227189   3.624   4.959  14.624
 1925TIP3    H127190   3.574   5.024  14.673
 1925TIP3    H227191   3.559   4.896  14.592
 1926TIP3   OH227192   3.143   5.298  12.895
 1926TIP3    H127193   3.125   5.205  12.912
 1926TIP3    H227194   3.143   5.338  12.982
 1927TIP3   OH227195   3.427   0.051  16.805
 1927TIP3    H127196   3.484  -0.024  16.820
 1927TIP3    H227197   3.487   0.122  16.781
 1928TIP3   OH227198   0.711   6.495   2.343
 1928TIP3    H127199   0.710   6.558   2.414
 1928TIP3    H227200   0.625   6.505   2.301
 1929TIP3   OH227201   6.004   0.425  14.121
 1929TIP3    H127202   6.072   0.491  14.107
 1929TIP3    H227203   6.048   0.355  14.170
 1930TIP3   OH227204   4.784   1.582  15.228
 1930TIP3    H127205   4.815   1.624  15.147
 1930TIP3    H227206   4.862   1.537  15.262
 1931TIP3   OH227207   1.963   5.049   1.173
 1931TIP3    H127208   2.052   5.082   1.158
 1931TIP3    H227209   1.931   5.025   1.086
 1932TIP3   OH227210   0.078   4.965  11.672
 1932TIP3    H127211   0.164   5.003  11.688
 1932TIP3    H227212   0.019   5.014  11.730
 1933TIP3   OH227213   0.083   3.093  16.222
 1933TIP3    H127214   0.031   3.066  16.146
 1933TIP3    H227215   0.070   3.187  16.228
 1934TIP3   OH227216   1.111   1.599  14.703
 1934TIP3    H127217   1.138   1.520  14.751
 1934TIP3    H227218   1.193   1.646  14.687
 1935TIP3   OH227219   0.023   0.499  14.995
 1935TIP3    H127220   0.056   0.538  14.914
 1935TIP3    H227221   0.064   0.552  15.065
 1936TIP3   OH227222   1.004   1.362   4.515
 1936TIP3    H127223   0.970   1.343   4.603
 1936TIP3    H227224   0.990   1.456   4.504
 1937TIP3   OH227225   6.595   4.548   5.948
 1937TIP3    H127226   6.578   4.609   5.877
 1937TIP3    H227227   6.521   4.560   6.008
 1938TIP3   OH227228   6.353   3.364   4.974
 1938TIP3    H127229   6.294   3.295   4.944
 1938TIP3    H227230   6.380   3.409   4.894
 1939TIP3   OH227231   0.016   2.035  11.687
 1939TIP3    H127232  -0.029   2.049  11.770
 1939TIP3    H227233   0.096   1.987  11.710
 1940TIP3   OH227234   6.565   6.432   5.915
 1940TIP3    H127235   6.480   6.389   5.919
 1940TIP3    H227236   6.610   6.390   5.842
 1941TIP3   OH227237   6.686   3.308   4.708
 1941TIP3    H127238   6.740   3.237   4.743
 1941TIP3    H227239   6.733   3.388   4.733
 1942TIP3   OH227240   4.811   0.471  15.076
 1942TIP3    H127241   4.795   0.467  14.981
 1942TIP3    H227242   4.790   0.382  15.107
 1943TIP3   OH227243   2.092   4.011  14.926
 1943TIP3    H127244   2.180   3.976  14.913
 1943TIP3    H227245   2.104   4.081  14.990
 1944TIP3   OH227246   2.614   1.721  11.129
 1944TIP3    H127247   2.545   1.664  11.095
 1944TIP3    H227248   2.591   1.808  11.096
 1945TIP3   OH227249   6.121   4.498  15.245
 1945TIP3    H127250   6.176   4.422  15.266
 1945TIP3    H227251   6.077   4.474  15.164
 1946TIP3   OH227252   5.229   5.944  14.468
 1946TIP3    H127253   5.195   6.032  14.452
 1946TIP3    H227254   5.175   5.911  14.540
 1947TIP3   OH227255   4.681   5.450   2.933
 1947TIP3    H127256   4.722   5.537   2.938
 1947TIP3    H227257   4.605   5.463   2.876
 1948TIP3   OH227258   0.595   6.294  12.693
 1948TIP3    H127259   0.591   6.267  12.785
 1948TIP3    H227260   0.654   6.369  12.693
 1949TIP3   OH227261   6.155   5.603   1.715
 1949TIP3    H127262   6.140   5.673   1.779
 1949TIP3    H227263   6.131   5.641   1.631
 1950TIP3   OH227264   3.167   5.327   3.982
 1950TIP3    H127265   3.179   5.359   3.892
 1950TIP3    H227266   3.072   5.331   3.997
 1951TIP3   OH227267   2.755   4.251   4.133
 1951TIP3    H127268   2.674   4.302   4.134
 1951TIP3    H227269   2.817   4.306   4.085
 1952TIP3   OH227270   4.858   2.150   2.529
 1952TIP3    H127271   4.871   2.059   2.557
 1952TIP3    H227272   4.894   2.153   2.440
 1953TIP3   OH227273   3.131   4.184   1.742
 1953TIP3    H127274   3.057   4.135   1.708
 1953TIP3    H227275   3.107   4.206   1.832
 1954TIP3   OH227276   5.212   1.139  13.038
 1954TIP3    H127277   5.236   1.107  12.951
 1954TIP3    H227278   5.207   1.060  13.092
 1955TIP3   OH227279   1.022   4.251  15.790
 1955TIP3    H127280   1.050   4.275  15.879
 1955TIP3    H227281   1.102   4.256  15.738
 1956TIP3   OH227282   3.543   5.439   4.390
 1956TIP3    H127283   3.525   5.429   4.297
 1956TIP3    H227284   3.458   5.460   4.429
 1957TIP3   OH227285   0.715   3.987   1.211
 1957TIP3    H127286   0.799   3.978   1.167
 1957TIP3    H227287   0.737   3.997   1.304
 1958TIP3   OH227288   3.055   3.676   0.806
 1958TIP3    H127289   3.037   3.765   0.775
 1958TIP3    H227290   2.976   3.651   0.854
 1959TIP3   OH227291   5.324   0.507  16.261
 1959TIP3    H127292   5.278   0.563  16.324
 1959TIP3    H227293   5.349   0.429  16.312
 1960TIP3   OH227294   6.230   3.090   0.321
 1960TIP3    H127295   6.298   3.149   0.352
 1960TIP3    H227296   6.156   3.105   0.380
 1961TIP3   OH227297   2.982   6.054  12.506
 1961TIP3    H127298   3.064   6.103  12.494
 1961TIP3    H227299   2.947   6.044  12.418
 1962TIP3   OH227300   0.572   0.087  13.880
 1962TIP3    H127301   0.612   0.100  13.966
 1962TIP3    H227302   0.550   0.176  13.850
 1963TIP3   OH227303   6.562   0.654  15.839
 1963TIP3    H127304   6.560   0.746  15.865
 1963TIP3    H227305   6.579   0.607  15.920
 1964TIP3   OH227306   0.941   5.413  13.833
 1964TIP3    H127307   0.861   5.405  13.885
 1964TIP3    H227308   0.910   5.424  13.743
 1965TIP3   OH227309   2.831   2.151  16.944
 1965TIP3    H127310   2.816   2.058  16.929
 1965TIP3    H227311   2.892   2.177  16.875
 1966TIP3   OH227312   0.672   6.706  15.806
 1966TIP3    H127313   0.658   6.620  15.845
 1966TIP3    H227314   0.754   6.737  15.846
 1967TIP3   OH227315   6.363   3.588  12.027
 1967TIP3    H127316   6.324   3.544  11.952
 1967TIP3    H227317   6.391   3.673  11.993
 1968TIP3   OH227318   1.383   4.691   2.368
 1968TIP3    H127319   1.360   4.660   2.281
 1968TIP3    H227320   1.319   4.760   2.387
 1969TIP3   OH227321   1.427   3.090  11.583
 1969TIP3    H127322   1.431   3.096  11.488
 1969TIP3    H227323   1.451   3.177  11.614
 1970TIP3   OH227324   1.274   6.710   1.057
 1970TIP3    H127325   1.207   6.761   1.103
 1970TIP3    H227326   1.238   6.697   0.969
 1971TIP3   OH227327   4.566   5.786  11.015
 1971TIP3    H127328   4.612   5.762  11.096
 1971TIP3    H227329   4.632   5.830  10.962
 1972TIP3   OH227330   0.065   0.877  15.239
 1972TIP3    H127331  -0.001   0.889  15.171
 1972TIP3    H227332   0.024   0.911  15.318
 1973TIP3   OH227333   3.190   2.324  15.773
 1973TIP3    H127334   3.099   2.341  15.799
 1973TIP3    H227335   3.243   2.363  15.842
 1974TIP3   OH227336   3.938   6.243  14.190
 1974TIP3    H127337   4.022   6.197  14.200
 1974TIP3    H227338   3.948   6.293  14.109
 1975TIP3   OH227339   6.596   6.679   1.848
 1975TIP3    H127340   6.577   6.756   1.901
 1975TIP3    H227341   6.521   6.670   1.790
 1976TIP3   OH227342   4.205   5.943   1.104
 1976TIP3    H127343   4.213   6.002   1.029
 1976TIP3    H227344   4.211   5.855   1.066
 1977TIP3   OH227345   0.047   6.141   4.924
 1977TIP3    H127346   0.050   6.049   4.897
 1977TIP3    H227347   0.138   6.170   4.919
 1978TIP3   OH227348   1.800   5.931   4.840
 1978TIP3    H127349   1.830   5.996   4.903
 1978TIP3    H227350   1.806   5.974   4.755
 1979TIP3   OH227351   3.810   2.815  13.549
 1979TIP3    H127352   3.820   2.727  13.512
 1979TIP3    H227353   3.734   2.808  13.607
 1980TIP3   OH227354   4.746   0.446   0.434
 1980TIP3    H127355   4.774   0.384   0.368
 1980TIP3    H227356   4.758   0.532   0.394
 1981TIP3   OH227357   0.577   3.131   0.148
 1981TIP3    H127358   0.537   3.054   0.188
 1981TIP3    H227359   0.512   3.161   0.084
 1982TIP3   OH227360   3.090   6.652   3.104
 1982TIP3    H127361   3.123   6.671   3.192
 1982TIP3    H227362   3.047   6.733   3.076
 1983TIP3   OH227363   6.646   6.180   2.334
 1983TIP3    H127364   6.700   6.237   2.388
 1983TIP3    H227365   6.569   6.232   2.313
 1984TIP3   OH227366   3.863   3.465   2.452
 1984TIP3    H127367   3.836   3.376   2.477
 1984TIP3    H227368   3.887   3.458   2.360
 1985TIP3   OH227369   0.517   4.963  11.311
 1985TIP3    H127370   0.555   4.945  11.397
 1985TIP3    H227371   0.545   5.052  11.290
 1986TIP3   OH227372   4.250   1.289  15.170
 1986TIP3    H127373   4.161   1.312  15.147
 1986TIP3    H227374   4.303   1.320  15.096
 1987TIP3   OH227375   4.241   4.868  16.468
 1987TIP3    H127376   4.336   4.863  16.456
 1987TIP3    H227377   4.205   4.828  16.389
 1988TIP3   OH227378   3.321   0.228  16.089
 1988TIP3    H127379   3.327   0.141  16.050
 1988TIP3    H227380   3.239   0.228  16.137
 1989TIP3   OH227381   5.760   2.293  13.499
 1989TIP3    H127382   5.741   2.387  13.507
 1989TIP3    H227383   5.822   2.275  13.570
 1990TIP3   OH227384   0.203   5.604  17.021
 1990TIP3    H127385   0.130   5.639  16.970
 1990TIP3    H227386   0.245   5.541  16.962
 1991TIP3   OH227387   1.913   1.354   0.674
 1991TIP3    H127388   1.946   1.442   0.694
 1991TIP3    H227389   1.836   1.370   0.620
 1992TIP3   OH227390   2.871   3.991  14.361
 1992TIP3    H127391   2.938   4.015  14.296
 1992TIP3    H227392   2.896   4.039  14.440
 1993TIP3   OH227393   3.211   0.142   2.621
 1993TIP3    H127394   3.268   0.144   2.545
 1993TIP3    H227395   3.264   0.178   2.692
 1994TIP3   OH227396   0.220   1.305   0.505
 1994TIP3    H127397   0.148   1.243   0.522
 1994TIP3    H227398   0.296   1.250   0.487
 1995TIP3   OH227399   2.667   2.252   4.947
 1995TIP3    H127400   2.708   2.217   4.869
 1995TIP3    H227401   2.576   2.268   4.922
 1996TIP3   OH227402   3.775   5.683  15.942
 1996TIP3    H127403   3.833   5.759  15.932
 1996TIP3    H227404   3.751   5.660  15.852
 1997TIP3   OH227405   1.304   3.684  16.430
 1997TIP3    H127406   1.301   3.590  16.416
 1997TIP3    H227407   1.322   3.721  16.343
 1998TIP3   OH227408   0.221   5.922   3.460
 1998TIP3    H127409   0.281   5.847   3.460
 1998TIP3    H227410   0.240   5.968   3.542
 1999TIP3   OH227411   5.111   3.748   5.239
 1999TIP3    H127412   5.132   3.728   5.330
 1999TIP3    H227413   5.141   3.838   5.227
 2000TIP3   OH227414   4.507   4.087   3.008
 2000TIP3    H127415   4.514   4.153   3.077
 2000TIP3    H227416   4.466   4.012   3.051
 2001TIP3   OH227417   5.196   4.954  16.354
 2001TIP3    H127418   5.206   5.041  16.393
 2001TIP3    H227419   5.261   4.899  16.400
 2002TIP3   OH227420   5.905   3.717  15.254
 2002TIP3    H127421   5.883   3.771  15.329
 2002TIP3    H227422   5.913   3.779  15.181
 2003TIP3   OH227423   6.552   0.683  11.957
 2003TIP3    H127424   6.505   0.609  11.919
 2003TIP3    H227425   6.600   0.721  11.883
 2004TIP3   OH227426   0.485   3.867  15.334
 2004TIP3    H127427   0.493   3.783  15.289
 2004TIP3    H227428   0.399   3.864  15.377
 2005TIP3   OH227429   2.050   5.026   0.598
 2005TIP3    H127430   1.959   5.020   0.566
 2005TIP3    H227431   2.042   5.068   0.683
 2006TIP3   OH227432   4.703   5.899  13.125
 2006TIP3    H127433   4.685   5.814  13.166
 2006TIP3    H227434   4.790   5.923  13.158
 2007TIP3   OH227435   5.443   3.560   1.613
 2007TIP3    H127436   5.502   3.587   1.543
 2007TIP3    H227437   5.407   3.642   1.648
 2008TIP3   OH227438   2.253   3.498  17.133
 2008TIP3    H127439   2.228   3.517  17.223
 2008TIP3    H227440   2.173   3.468  17.091
 2009TIP3   OH227441   0.752   5.172   6.192
 2009TIP3    H127442   0.689   5.220   6.139
 2009TIP3    H227443   0.704   5.095   6.222
 2010TIP3   OH227444   4.483   0.489   2.133
 2010TIP3    H127445   4.517   0.428   2.199
 2010TIP3    H227446   4.435   0.554   2.183
 2011TIP3   OH227447   2.598   2.374   3.894
 2011TIP3    H127448   2.563   2.285   3.901
 2011TIP3    H227449   2.673   2.366   3.834
 2012TIP3   OH227450   5.309   4.570   1.624
 2012TIP3    H127451   5.244   4.639   1.612
 2012TIP3    H227452   5.297   4.512   1.548
 2013TIP3   OH227453   6.459   0.002  11.454
 2013TIP3    H127454   6.502  -0.049  11.522
 2013TIP3    H227455   6.459   0.092  11.488
 2014TIP3   OH227456   5.976   6.445  15.740
 2014TIP3    H127457   6.050   6.443  15.679
 2014TIP3    H227458   5.901   6.417  15.687
 2015TIP3   OH227459   2.965   3.060  12.361
 2015TIP3    H127460   2.949   3.129  12.297
 2015TIP3    H227461   2.931   3.096  12.443
 2016TIP3   OH227462   1.941   4.537   4.315
 2016TIP3    H127463   2.014   4.491   4.357
 2016TIP3    H227464   1.934   4.497   4.228
 2017TIP3   OH227465   4.492   6.102   1.579
 2017TIP3    H127466   4.402   6.111   1.547
 2017TIP3    H227467   4.546   6.107   1.500
 2018TIP3   OH227468   5.805   2.229  15.201
 2018TIP3    H127469   5.771   2.241  15.112
 2018TIP3    H227470   5.734   2.259  15.258
 2019TIP3   OH227471   3.526   0.023  13.863
 2019TIP3    H127472   3.605  -0.024  13.834
 2019TIP3    H227473   3.465   0.015  13.790
 2020TIP3   OH227474   0.194   6.588   0.682
 2020TIP3    H127475   0.099   6.585   0.678
 2020TIP3    H227476   0.216   6.548   0.766
 2021TIP3   OH227477   3.765   2.598  16.096
 2021TIP3    H127478   3.728   2.524  16.144
 2021TIP3    H227479   3.824   2.640  16.158
 2022TIP3   OH227480   1.394   4.585  13.916
 2022TIP3    H127481   1.300   4.565  13.908
 2022TIP3    H227482   1.400   4.679  13.898
 2023TIP3   OH227483   4.504   3.021  13.489
 2023TIP3    H127484   4.589   3.031  13.532
 2023TIP3    H227485   4.515   3.064  13.404
 2024TIP3   OH227486   6.567   6.166  12.323
 2024TIP3    H127487   6.540   6.154  12.414
 2024TIP3    H227488   6.631   6.097  12.307
 2025TIP3   OH227489   0.680   3.699   5.754
 2025TIP3    H127490   0.754   3.688   5.695
 2025TIP3    H227491   0.603   3.681   5.700
 2026TIP3   OH227492   0.469   1.872   0.510
 2026TIP3    H127493   0.494   1.924   0.586
 2026TIP3    H227494   0.481   1.781   0.539
 2027TIP3   OH227495   5.875   2.037   2.868
 2027TIP3    H127496   5.968   2.060   2.864
 2027TIP3    H227497   5.874   1.942   2.857
 2028TIP3   OH227498   0.290   5.750  13.448
 2028TIP3    H127499   0.372   5.702  13.433
 2028TIP3    H227500   0.240   5.693  13.507
 2029TIP3   OH227501   0.887   6.427  12.458
 2029TIP3    H127502   0.832   6.499  12.489
 2029TIP3    H227503   0.923   6.389  12.537
 2030TIP3   OH227504   6.659   6.310  15.904
 2030TIP3    H127505   6.662   6.401  15.872
 2030TIP3    H227506   6.737   6.269  15.866
 2031TIP3   OH227507   3.978   3.789  13.737
 2031TIP3    H127508   3.938   3.848  13.801
 2031TIP3    H227509   4.001   3.710  13.786
 2032TIP3   OH227510   3.882   6.362   4.040
 2032TIP3    H127511   3.864   6.368   4.134
 2032TIP3    H227512   3.795   6.361   3.999
 2033TIP3   OH227513   3.190   2.117   3.183
 2033TIP3    H127514   3.185   2.142   3.091
 2033TIP3    H227515   3.263   2.056   3.188
 2034TIP3   OH227516   6.702   1.165  11.390
 2034TIP3    H127517   6.613   1.166  11.356
 2034TIP3    H227518   6.696   1.209  11.475
 2035TIP3   OH227519   0.550   1.967  14.385
 2035TIP3    H127520   0.526   2.058  14.369
 2035TIP3    H227521   0.476   1.932  14.436
 2036TIP3   OH227522   5.242   3.233  14.772
 2036TIP3    H127523   5.321   3.286  14.785
 2036TIP3    H227524   5.204   3.266  14.690
 2037TIP3   OH227525   3.568   5.224  10.606
 2037TIP3    H127526   3.641   5.163  10.600
 2037TIP3    H227527   3.495   5.177  10.565
 2038TIP3   OH227528   0.920   3.191  15.664
 2038TIP3    H127529   0.833   3.173  15.626
 2038TIP3    H227530   0.957   3.260  15.608
 2039TIP3   OH227531   5.500   3.563  13.676
 2039TIP3    H127532   5.524   3.624  13.746
 2039TIP3    H227533   5.578   3.560  13.620
 2040TIP3   OH227534   4.559   6.767   3.154
 2040TIP3    H127535   4.626   6.832   3.172
 2040TIP3    H227536   4.480   6.818   3.135
 2041TIP3   OH227537   2.554   5.500  15.145
 2041TIP3    H127538   2.580   5.476  15.056
 2041TIP3    H227539   2.532   5.593  15.140
 2042TIP3   OH227540   5.419   6.727  12.474
 2042TIP3    H127541   5.425   6.764  12.386
 2042TIP3    H227542   5.359   6.786  12.521
 2043TIP3   OH227543   3.234   0.971   6.113
 2043TIP3    H127544   3.223   0.891   6.164
 2043TIP3    H227545   3.237   1.041   6.179
 2044TIP3   OH227546   5.944   4.533   2.807
 2044TIP3    H127547   5.924   4.593   2.879
 2044TIP3    H227548   6.007   4.471   2.843
 2045TIP3   OH227549   5.889   6.658   3.015
 2045TIP3    H127550   5.927   6.649   3.102
 2045TIP3    H227551   5.829   6.732   3.023
 2046TIP3   OH227552   5.229   3.223   1.302
 2046TIP3    H127553   5.174   3.148   1.325
 2046TIP3    H227554   5.308   3.213   1.355
 2047TIP3   OH227555   3.814   0.635  14.737
 2047TIP3    H127556   3.833   0.545  14.710
 2047TIP3    H227557   3.739   0.660  14.683
 2048TIP3   OH227558   6.769   4.544  16.050
 2048TIP3    H127559   6.677   4.526  16.028
 2048TIP3    H227560   6.793   4.476  16.112
 2049TIP3   OH227561   2.486   4.454   4.459
 2049TIP3    H127562   2.482   4.417   4.547
 2049TIP3    H227563   2.578   4.477   4.447
 2050TIP3   OH227564   1.849   4.627   1.877
 2050TIP3    H127565   1.881   4.637   1.966
 2050TIP3    H227566   1.927   4.604   1.826
 2051TIP3   OH227567   4.461   3.627  13.543
 2051TIP3    H127568   4.416   3.685  13.603
 2051TIP3    H227569   4.475   3.546  13.593
 2052TIP3   OH227570   4.944   0.050  10.565
 2052TIP3    H127571   4.984   0.005  10.491
 2052TIP3    H227572   4.872  -0.007  10.592
 2053TIP3   OH227573   4.305   5.670  14.379
 2053TIP3    H127574   4.332   5.588  14.420
 2053TIP3    H227575   4.377   5.731  14.397
 2054TIP3   OH227576   3.672   2.983   4.486
 2054TIP3    H127577   3.732   3.051   4.455
 2054TIP3    H227578   3.690   2.908   4.429
 2055TIP3   OH227579   6.709   5.305  14.659
 2055TIP3    H127580   6.738   5.396  14.659
 2055TIP3    H227581   6.726   5.274  14.747
 2056TIP3   OH227582   6.638   2.250   1.999
 2056TIP3    H127583   6.694   2.240   1.921
 2056TIP3    H227584   6.617   2.343   2.000
 2057TIP3   OH227585   2.054   0.872  13.510
 2057TIP3    H127586   2.084   0.784  13.534
 2057TIP3    H227587   2.097   0.930  13.573
 2058TIP3   OH227588   2.848   1.915  13.854
 2058TIP3    H127589   2.890   1.991  13.893
 2058TIP3    H227590   2.847   1.933  13.760
 2059TIP3   OH227591   5.708   6.591   3.312
 2059TIP3    H127592   5.737   6.516   3.260
 2059TIP3    H227593   5.612   6.581   3.315
 2060TIP3   OH227594   3.419   3.396   4.034
 2060TIP3    H127595   3.486   3.355   3.978
 2060TIP3    H227596   3.367   3.323   4.067
 2061TIP3   OH227597   0.286   5.464   1.998
 2061TIP3    H127598   0.257   5.445   1.909
 2061TIP3    H227599   0.241   5.399   2.052
 2062TIP3   OH227600   3.341   3.084  14.579
 2062TIP3    H127601   3.415   3.026  14.597
 2062TIP3    H227602   3.295   3.042  14.506
 2063TIP3   OH227603   2.950   5.863  11.744
 2063TIP3    H127604   3.040   5.890  11.725
 2063TIP3    H227605   2.896   5.928  11.699
 2064TIP3   OH227606   1.204   0.384   6.417
 2064TIP3    H127607   1.292   0.366   6.450
 2064TIP3    H227608   1.183   0.471   6.452
 2065TIP3   OH227609   5.048   0.465   1.547
 2065TIP3    H127610   5.040   0.389   1.605
 2065TIP3    H227611   5.042   0.540   1.606
 2066TIP3   OH227612   1.695   3.419  12.919
 2066TIP3    H127613   1.604   3.441  12.936
 2066TIP3    H227614   1.746   3.486  12.963
 2067TIP3   OH227615   4.157   6.442  13.060
 2067TIP3    H127616   4.063   6.422  13.054
 2067TIP3    H227617   4.182   6.416  13.148
 2068TIP3   OH227618   2.437   1.492   1.178
 2068TIP3    H127619   2.412   1.430   1.247
 2068TIP3    H227620   2.355   1.538   1.158
 2069TIP3   OH227621   3.253   4.440  14.589
 2069TIP3    H127622   3.310   4.390  14.647
 2069TIP3    H227623   3.173   4.388  14.584
 2070TIP3   OH227624   6.053   5.848  10.906
 2070TIP3    H127625   6.104   5.848  10.825
 2070TIP3    H227626   5.979   5.906  10.889
 2071TIP3   OH227627   1.004   4.682   4.693
 2071TIP3    H127628   1.007   4.763   4.644
 2071TIP3    H227629   0.949   4.701   4.769
 2072TIP3   OH227630   5.829   3.508  12.972
 2072TIP3    H127631   5.799   3.421  13.000
 2072TIP3    H227632   5.919   3.514  13.007
 2073TIP3   OH227633   1.967   0.356  15.527
 2073TIP3    H127634   1.996   0.320  15.611
 2073TIP3    H227635   1.913   0.287  15.489
 2074TIP3   OH227636   6.069   5.954  14.732
 2074TIP3    H127637   6.064   5.879  14.790
 2074TIP3    H227638   6.160   5.985  14.741
 2075TIP3   OH227639   1.023   3.223   1.796
 2075TIP3    H127640   0.995   3.148   1.743
 2075TIP3    H227641   0.942   3.266   1.822
 2076TIP3   OH227642   6.403   6.526  15.959
 2076TIP3    H127643   6.485   6.529  15.909
 2076TIP3    H227644   6.411   6.450  16.015
 2077TIP3   OH227645   1.474   3.509   1.756
 2077TIP3    H127646   1.539   3.572   1.787
 2077TIP3    H227647   1.520   3.456   1.691
 2078TIP3   OH227648   1.479   5.193   2.651
 2078TIP3    H127649   1.497   5.282   2.680
 2078TIP3    H227650   1.419   5.158   2.716
 2079TIP3   OH227651   2.926   4.922  10.521
 2079TIP3    H127652   2.838   4.914  10.485
 2079TIP3    H227653   2.942   5.017  10.523
 2080TIP3   OH227654   5.208   2.136   5.980
 2080TIP3    H127655   5.292   2.177   6.000
 2080TIP3    H227656   5.148   2.210   5.965
 2081TIP3   OH227657   1.365   5.765  15.100
 2081TIP3    H127658   1.313   5.805  15.169
 2081TIP3    H227659   1.423   5.836  15.071
 2082TIP3   OH227660   1.055   3.231   5.483
 2082TIP3    H127661   0.983   3.172   5.459
 2082TIP3    H227662   1.034   3.313   5.438
 2083TIP3   OH227663   1.183   4.252   3.887
 2083TIP3    H127664   1.219   4.314   3.824
 2083TIP3    H227665   1.253   4.188   3.900
 2084TIP3   OH227666   0.878   4.416   4.639
 2084TIP3    H127667   0.905   4.325   4.648
 2084TIP3    H227668   0.855   4.425   4.546
 2085TIP3   OH227669   2.573   4.680  12.108
 2085TIP3    H127670   2.606   4.756  12.060
 2085TIP3    H227671   2.642   4.614  12.100
 2086TIP3   OH227672   0.579   1.177  14.168
 2086TIP3    H127673   0.496   1.130  14.169
 2086TIP3    H227674   0.561   1.256  14.116
 2087TIP3   OH227675   3.786   0.776   5.792
 2087TIP3    H127676   3.737   0.707   5.747
 2087TIP3    H227677   3.875   0.740   5.801
 2088TIP3   OH227678   6.644   5.527  16.671
 2088TIP3    H127679   6.638   5.581  16.592
 2088TIP3    H227680   6.702   5.455  16.646
 2089TIP3   OH227681   5.462   2.597   0.251
 2089TIP3    H127682   5.532   2.662   0.240
 2089TIP3    H227683   5.399   2.618   0.182
 2090TIP3   OH227684   1.784   3.225  16.685
 2090TIP3    H127685   1.733   3.152  16.651
 2090TIP3    H227686   1.787   3.211  16.780
 2091TIP3   OH227687   6.500   4.121  15.152
 2091TIP3    H127688   6.538   4.126  15.240
 2091TIP3    H227689   6.518   4.031  15.125
 2092TIP3   OH227690   1.623   3.420  10.557
 2092TIP3    H127691   1.528   3.432  10.559
 2092TIP3    H227692   1.658   3.509  10.557
 2093TIP3   OH227693   3.649   6.298   5.933
 2093TIP3    H127694   3.663   6.212   5.894
 2093TIP3    H227695   3.589   6.282   6.006
 2094TIP3   OH227696   0.428   4.214   1.328
 2094TIP3    H127697   0.384   4.222   1.244
 2094TIP3    H227698   0.518   4.242   1.311
 2095TIP3   OH227699   4.272   5.678   0.225
 2095TIP3    H127700   4.212   5.648   0.294
 2095TIP3    H227701   4.241   5.634   0.146
 2096TIP3   OH227702   6.026   1.241   5.656
 2096TIP3    H127703   6.010   1.269   5.746
 2096TIP3    H227704   6.117   1.266   5.638
 2097TIP3   OH227705   6.130   3.774   0.328
 2097TIP3    H127706   6.056   3.821   0.289
 2097TIP3    H227707   6.164   3.720   0.257
 2098TIP3   OH227708   3.765   5.820   1.348
 2098TIP3    H127709   3.762   5.836   1.442
 2098TIP3    H227710   3.726   5.899   1.309
 2099TIP3   OH227711   2.984   5.617   3.505
 2099TIP3    H127712   3.012   5.536   3.548
 2099TIP3    H227713   2.978   5.680   3.577
 2100TIP3   OH227714   1.353   4.793  13.407
 2100TIP3    H127715   1.411   4.866  13.430
 2100TIP3    H227716   1.335   4.750  13.491
 2101TIP3   OH227717   1.814   5.333   5.900
 2101TIP3    H127718   1.747   5.316   5.835
 2101TIP3    H227719   1.887   5.276   5.875
 2102TIP3   OH227720   0.974   0.903   4.493
 2102TIP3    H127721   0.881   0.890   4.471
 2102TIP3    H227722   1.015   0.925   4.409
 2103TIP3   OH227723   2.991   0.267   1.220
 2103TIP3    H127724   2.970   0.309   1.137
 2103TIP3    H227725   3.067   0.315   1.253
 2104TIP3   OH227726   5.441   6.212  15.625
 2104TIP3    H127727   5.390   6.284  15.587
 2104TIP3    H227728   5.488   6.174  15.551
 2105TIP3   OH227729   6.530   0.127  11.200
 2105TIP3    H127730   6.497   0.043  11.232
 2105TIP3    H227731   6.576   0.165  11.275
 2106TIP3   OH227732   4.767   4.187   4.112
 2106TIP3    H127733   4.687   4.138   4.129
 2106TIP3    H227734   4.830   4.153   4.176
 2107TIP3   OH227735   6.402   4.635  15.400
 2107TIP3    H127736   6.424   4.695  15.471
 2107TIP3    H227737   6.309   4.614  15.414
 2108TIP3   OH227738   5.295   5.728  12.001
 2108TIP3    H127739   5.372   5.776  11.973
 2108TIP3    H227740   5.293   5.650  11.945
 2109TIP3   OH227741   1.466   2.792   2.137
 2109TIP3    H127742   1.417   2.821   2.214
 2109TIP3    H227743   1.478   2.698   2.150
 2110TIP3   OH227744   4.669   2.632  15.881
 2110TIP3    H127745   4.734   2.609  15.814
 2110TIP3    H227746   4.604   2.562  15.876
 2111TIP3   OH227747   6.022   3.863  15.074
 2111TIP3    H127748   6.104   3.839  15.031
 2111TIP3    H227749   5.957   3.867  15.004
 2112TIP3   OH227750   0.775   0.345  13.423
 2112TIP3    H127751   0.844   0.366  13.487
 2112TIP3    H227752   0.713   0.417  13.430
 2113TIP3   OH227753   6.361   6.284   1.443
 2113TIP3    H127754   6.426   6.258   1.377
 2113TIP3    H227755   6.282   6.237   1.419
 2114TIP3   OH227756   2.826   1.198  14.028
 2114TIP3    H127757   2.798   1.256  13.957
 2114TIP3    H227758   2.779   1.116  14.012
 2115TIP3   OH227759   0.629   2.950   1.099
 2115TIP3    H127760   0.653   2.890   1.169
 2115TIP3    H227761   0.535   2.935   1.086
 2116TIP3   OH227762   5.112   0.212  13.776
 2116TIP3    H127763   5.171   0.156  13.827
 2116TIP3    H227764   5.138   0.302  13.800
 2117TIP3   OH227765   6.150   2.618  12.652
 2117TIP3    H127766   6.200   2.676  12.708
 2117TIP3    H227767   6.215   2.578  12.593
 2118TIP3   OH227768   3.767   0.179  13.414
 2118TIP3    H127769   3.688   0.169  13.468
 2118TIP3    H227770   3.733   0.190  13.325
 2119TIP3   OH227771   1.208   5.566   0.087
 2119TIP3    H127772   1.240   5.476   0.090
 2119TIP3    H227773   1.116   5.560   0.109
 2120TIP3   OH227774   2.160   2.843  15.591
 2120TIP3    H127775   2.118   2.909  15.535
 2120TIP3    H227776   2.178   2.770  15.532
 2121TIP3   OH227777   3.407   0.199   2.808
 2121TIP3    H127778   3.393   0.137   2.880
 2121TIP3    H227779   3.491   0.174   2.771
 2122TIP3   OH227780   6.153   5.689  14.184
 2122TIP3    H127781   6.214   5.665  14.114
 2122TIP3    H227782   6.137   5.608  14.232
 2123TIP3   OH227783   4.692   2.135   3.212
 2123TIP3    H127784   4.754   2.160   3.281
 2123TIP3    H227785   4.642   2.215   3.194
 2124TIP3   OH227786   6.422   0.572   1.371
 2124TIP3    H127787   6.457   0.652   1.330
 2124TIP3    H227788   6.410   0.511   1.299
 2125TIP3   OH227789   6.348   3.834  11.148
 2125TIP3    H127790   6.437   3.819  11.181
 2125TIP3    H227791   6.352   3.808  11.056
 2126TIP3   OH227792   3.503   2.110  15.914
 2126TIP3    H127793   3.516   2.187  15.859
 2126TIP3    H227794   3.512   2.035  15.855
 2127TIP3   OH227795   1.824   3.488  16.274
 2127TIP3    H127796   1.908   3.533  16.262
 2127TIP3    H227797   1.834   3.406  16.224
 2128TIP3   OH227798   4.307   1.468   2.917
 2128TIP3    H127799   4.272   1.393   2.966
 2128TIP3    H227800   4.280   1.545   2.968
 2129TIP3   OH227801   0.831   3.000  11.504
 2129TIP3    H127802   0.879   3.074  11.541
 2129TIP3    H227803   0.745   3.004  11.547
 2130TIP3   OH227804   5.018   6.132   2.922
 2130TIP3    H127805   5.097   6.134   2.977
 2130TIP3    H227806   5.048   6.093   2.839
 2131TIP3   OH227807   2.627   6.297   0.118
 2131TIP3    H127808   2.665   6.216   0.085
 2131TIP3    H227809   2.540   6.301   0.079
 2132TIP3   OH227810   4.736   3.349  12.828
 2132TIP3    H127811   4.747   3.443  12.821
 2132TIP3    H227812   4.703   3.335  12.918
 2133TIP3   OH227813   0.030   5.560  13.114
 2133TIP3    H127814   0.068   5.495  13.174
 2133TIP3    H227815   0.054   5.644  13.151
 2134TIP3   OH227816   4.326   6.675   6.222
 2134TIP3    H127817   4.267   6.735   6.267
 2134TIP3    H227818   4.407   6.724   6.212
 2135TIP3   OH227819   6.417   6.567   1.364
 2135TIP3    H127820   6.499   6.608   1.392
 2135TIP3    H227821   6.418   6.481   1.406
 2136TIP3   OH227822   1.097   0.192  14.206
 2136TIP3    H127823   1.071   0.266  14.151
 2136TIP3    H227824   1.053   0.117  14.167
 2137TIP3   OH227825   2.810   1.739  15.887
 2137TIP3    H127826   2.715   1.731  15.890
 2137TIP3    H227827   2.842   1.654  15.919
 2138TIP3   OH227828   5.188   4.202  10.776
 2138TIP3    H127829   5.190   4.107  10.787
 2138TIP3    H227830   5.237   4.236  10.851
 2139TIP3   OH227831   0.854   5.153   4.105
 2139TIP3    H127832   0.770   5.194   4.125
 2139TIP3    H227833   0.916   5.225   4.101
 2140TIP3   OH227834   1.592   5.886  16.586
 2140TIP3    H127835   1.667   5.839  16.550
 2140TIP3    H227836   1.572   5.952  16.519
 2141TIP3   OH227837   6.769   1.336   5.505
 2141TIP3    H127838   6.689   1.332   5.452
 2141TIP3    H227839   6.751   1.280   5.580
 2142TIP3   OH227840   4.591   3.359   4.284
 2142TIP3    H127841   4.570   3.428   4.348
 2142TIP3    H227842   4.627   3.407   4.210
 2143TIP3   OH227843   2.638   4.401  14.740
 2143TIP3    H127844   2.656   4.342  14.667
 2143TIP3    H227845   2.543   4.399  14.749
 2144TIP3   OH227846   0.738   6.467  14.805
 2144TIP3    H127847   0.689   6.513  14.873
 2144TIP3    H227848   0.751   6.379  14.839
 2145TIP3   OH227849   3.222   4.900  14.345
 2145TIP3    H127850   3.205   4.814  14.382
 2145TIP3    H227851   3.187   4.961  14.410
 2146TIP3   OH227852   2.578   3.671   2.016
 2146TIP3    H127853   2.513   3.603   2.033
 2146TIP3    H227854   2.571   3.730   2.091
 2147TIP3   OH227855   6.368   2.332   5.067
 2147TIP3    H127856   6.398   2.244   5.044
 2147TIP3    H227857   6.440   2.370   5.116
 2148TIP3   OH227858   3.059   2.228   5.718
 2148TIP3    H127859   3.040   2.276   5.799
 2148TIP3    H227860   2.982   2.172   5.706
 2149TIP3   OH227861   4.467   6.196   4.087
 2149TIP3    H127862   4.402   6.126   4.096
 2149TIP3    H227863   4.527   6.182   4.160
 2150TIP3   OH227864   1.188   1.547   2.811
 2150TIP3    H127865   1.270   1.501   2.828
 2150TIP3    H227866   1.125   1.509   2.873
 2151TIP3   OH227867   6.006   6.152  14.041
 2151TIP3    H127868   5.912   6.152  14.022
 2151TIP3    H227869   6.011   6.147  14.136
 2152TIP3   OH227870   2.867   0.498  14.427
 2152TIP3    H127871   2.781   0.526  14.458
 2152TIP3    H227872   2.864   0.403  14.431
 2153TIP3   OH227873   2.976   6.519   3.907
 2153TIP3    H127874   2.887   6.553   3.895
 2153TIP3    H227875   2.994   6.469   3.827
 2154TIP3   OH227876   3.734   2.273   3.565
 2154TIP3    H127877   3.727   2.178   3.558
 2154TIP3    H227878   3.774   2.288   3.651
 2155TIP3   OH227879   1.020   2.931  16.128
 2155TIP3    H127880   1.004   2.878  16.206
 2155TIP3    H227881   0.983   2.880  16.056
 2156TIP3   OH227882   4.503   0.178  13.957
 2156TIP3    H127883   4.557   0.243  13.912
 2156TIP3    H227884   4.511   0.200  14.050
 2157TIP3   OH227885   1.448   3.745   4.692
 2157TIP3    H127886   1.450   3.710   4.781
 2157TIP3    H227887   1.539   3.749   4.665
 2158TIP3   OH227888   4.104   1.768   4.819
 2158TIP3    H127889   4.022   1.726   4.845
 2158TIP3    H227890   4.150   1.785   4.901
 2159TIP3   OH227891   4.170   2.961   1.205
 2159TIP3    H127892   4.227   3.019   1.255
 2159TIP3    H227893   4.124   3.019   1.144
 2160TIP3   OH227894   5.394   1.868   0.155
 2160TIP3    H127895   5.404   1.783   0.113
 2160TIP3    H227896   5.317   1.906   0.114
 2161TIP3   OH227897   5.280   0.865   3.969
 2161TIP3    H127898   5.190   0.857   3.937
 2161TIP3    H227899   5.281   0.817   4.052
 2162TIP3   OH227900   2.712   3.859   0.081
 2162TIP3    H127901   2.750   3.772   0.071
 2162TIP3    H227902   2.622   3.851   0.049
 2163TIP3   OH227903   0.555   5.128   0.203
 2163TIP3    H127904   0.551   5.066   0.276
 2163TIP3    H227905   0.501   5.088   0.135
 2164TIP3   OH227906   4.766   1.706   4.012
 2164TIP3    H127907   4.761   1.653   4.092
 2164TIP3    H227908   4.800   1.790   4.042
 2165TIP3   OH227909   3.007   3.381   2.885
 2165TIP3    H127910   2.988   3.297   2.927
 2165TIP3    H227911   3.102   3.388   2.887
 2166TIP3   OH227912   4.854   0.839  17.225
 2166TIP3    H127913   4.847   0.748  17.254
 2166TIP3    H227914   4.765   0.875  17.237
 2167TIP3   OH227915   4.703   0.116   6.032
 2167TIP3    H127916   4.709   0.203   5.993
 2167TIP3    H227917   4.665   0.062   5.962
 2168TIP3   OH227918   6.786   3.955   6.691
 2168TIP3    H127919   6.762   3.876   6.641
 2168TIP3    H227920   6.736   3.947   6.772
 2169TIP3   OH227921   0.616   4.162   5.223
 2169TIP3    H127922   0.582   4.075   5.202
 2169TIP3    H227923   0.548   4.222   5.193
 2170TIP3   OH227924   0.875   6.556  15.652
 2170TIP3    H127925   0.829   6.606  15.719
 2170TIP3    H227926   0.854   6.601  15.570
 2171TIP3   OH227927   6.020   1.700  11.953
 2171TIP3    H127928   6.039   1.737  12.039
 2171TIP3    H227929   6.009   1.606  11.969
 2172TIP3   OH227930   6.526   5.928  10.587
 2172TIP3    H127931   6.515   6.023  10.582
 2172TIP3    H227932   6.565   5.913  10.673
 2173TIP3   OH227933   4.987   0.809  13.897
 2173TIP3    H127934   5.008   0.721  13.929
 2173TIP3    H227935   4.917   0.796  13.833
 2174TIP3   OH227936   3.296   0.573   4.429
 2174TIP3    H127937   3.286   0.523   4.349
 2174TIP3    H227938   3.273   0.512   4.499
 2175TIP3   OH227939   4.074   6.087  13.115
 2175TIP3    H127940   4.019   6.165  13.125
 2175TIP3    H227941   4.028   6.033  13.051
 2176TIP3   OH227942   3.717   5.890  11.288
 2176TIP3    H127943   3.797   5.884  11.237
 2176TIP3    H227944   3.651   5.843  11.236
 2177TIP3   OH227945   2.045   2.845  12.540
 2177TIP3    H127946   2.114   2.852  12.474
 2177TIP3    H227947   2.063   2.917  12.601
 2178TIP3   OH227948   3.731   6.722  13.167
 2178TIP3    H127949   3.704   6.683  13.084
 2178TIP3    H227950   3.665   6.789  13.185
 2179TIP3   OH227951   0.998   5.010  10.937
 2179TIP3    H127952   0.975   4.975  10.851
 2179TIP3    H227953   1.071   5.071  10.919
 2180TIP3   OH227954   5.915   6.428  10.868
 2180TIP3    H127955   5.865   6.440  10.949
 2180TIP3    H227956   5.967   6.508  10.860
 2181TIP3   OH227957   1.813   0.286   5.465
 2181TIP3    H127958   1.767   0.334   5.534
 2181TIP3    H227959   1.749   0.224   5.431
 2182TIP3   OH227960   2.141   0.507  13.091
 2182TIP3    H127961   2.129   0.519  12.997
 2182TIP3    H227962   2.096   0.424  13.110
 2183TIP3   OH227963   6.763   0.879  11.400
 2183TIP3    H127964   6.752   0.973  11.388
 2183TIP3    H227965   6.675   0.843  11.391
 2184TIP3   OH227966   3.731   2.487   5.434
 2184TIP3    H127967   3.702   2.568   5.394
 2184TIP3    H227968   3.653   2.451   5.476
 2185TIP3   OH227969   3.834   1.483  13.389
 2185TIP3    H127970   3.888   1.554  13.355
 2185TIP3    H227971   3.890   1.436  13.450
 2186TIP3   OH227972   4.130   1.347   5.582
 2186TIP3    H127973   4.098   1.315   5.498
 2186TIP3    H227974   4.185   1.275   5.615
 2187TIP3   OH227975   3.267   4.732   1.262
 2187TIP3    H127976   3.225   4.684   1.190
 2187TIP3    H227977   3.230   4.820   1.258
 2188TIP3   OH227978   3.009   1.520   3.570
 2188TIP3    H127979   3.037   1.609   3.592
 2188TIP3    H227980   2.966   1.488   3.649
 2189TIP3   OH227981   0.271   0.170  13.353
 2189TIP3    H127982   0.332   0.242  13.371
 2189TIP3    H227983   0.189   0.213  13.328
 2190TIP3   OH227984   5.398   4.934  12.570
 2190TIP3    H127985   5.481   4.963  12.608
 2190TIP3    H227986   5.391   4.984  12.488
 2191TIP3   OH227987   0.030   4.187   4.258
 2191TIP3    H127988  -0.033   4.122   4.228
 2191TIP3    H227989  -0.009   4.271   4.236
 2192TIP3   OH227990   1.774   4.200  13.879
 2192TIP3    H127991   1.826   4.128  13.844
 2192TIP3    H227992   1.820   4.227  13.958
 2193TIP3   OH227993   4.743   5.118  14.581
 2193TIP3    H127994   4.677   5.053  14.604
 2193TIP3    H227995   4.821   5.067  14.557
 2194TIP3   OH227996   1.154   4.426   4.185
 2194TIP3    H127997   1.179   4.441   4.094
 2194TIP3    H227998   1.066   4.390   4.181
 2195TIP3   OH227999   6.265   5.517   2.907
 2195TIP3    H128000   6.240   5.610   2.910
 2195TIP3    H228001   6.184   5.470   2.927
 2196TIP3   OH228002   0.582   2.640   1.169
 2196TIP3    H128003   0.537   2.707   1.222
 2196TIP3    H228004   0.540   2.558   1.194
 2197TIP3   OH228005   0.056   6.276  16.627
 2197TIP3    H128006   0.132   6.279  16.569
 2197TIP3    H228007   0.084   6.323  16.706
 2198TIP3   OH228008   1.106   2.724   4.773
 2198TIP3    H128009   1.081   2.773   4.851
 2198TIP3    H228010   1.045   2.651   4.770
 2199TIP3   OH228011   5.998   2.298   5.032
 2199TIP3    H128012   6.061   2.364   5.003
 2199TIP3    H228013   5.913   2.343   5.030
 2200TIP3   OH228014   1.536   6.685   6.250
 2200TIP3    H128015   1.476   6.676   6.176
 2200TIP3    H228016   1.495   6.634   6.320
 2201TIP3   OH228017   3.040   3.759  14.509
 2201TIP3    H128018   3.003   3.847  14.519
 2201TIP3    H228019   3.109   3.770  14.445
 2202TIP3   OH228020   0.792   3.470  13.124
 2202TIP3    H128021   0.782   3.515  13.040
 2202TIP3    H228022   0.728   3.398  13.119
 2203TIP3   OH228023   2.008   4.051  11.686
 2203TIP3    H128024   2.081   4.078  11.629
 2203TIP3    H228025   2.040   4.068  11.775
 2204TIP3   OH228026   6.574   6.764  14.645
 2204TIP3    H128027   6.568   6.701  14.716
 2204TIP3    H228028   6.501   6.825  14.660
 2205TIP3   OH228029   5.149   3.470  15.925
 2205TIP3    H128030   5.171   3.460  15.833
 2205TIP3    H228031   5.229   3.445  15.972
 2206TIP3   OH228032   5.701   5.149   5.089
 2206TIP3    H128033   5.683   5.243   5.083
 2206TIP3    H228034   5.794   5.143   5.111
 2207TIP3   OH228035   3.597   6.191  14.701
 2207TIP3    H128036   3.586   6.096  14.700
 2207TIP3    H228037   3.688   6.206  14.676
 2208TIP3   OH228038   2.622   3.202  13.836
 2208TIP3    H128039   2.703   3.195  13.885
 2208TIP3    H228040   2.641   3.161  13.752
 2209TIP3   OH228041   2.187   6.199   3.499
 2209TIP3    H128042   2.115   6.186   3.437
 2209TIP3    H228043   2.159   6.154   3.578
 2210TIP3   OH228044   4.890   6.189  15.555
 2210TIP3    H128045   4.828   6.132  15.508
 2210TIP3    H228046   4.965   6.133  15.575
 2211TIP3   OH228047   1.237   5.181   0.577
 2211TIP3    H128048   1.200   5.093   0.580
 2211TIP3    H228049   1.228   5.209   0.486
 2212TIP3   OH228050   1.811   5.881   6.265
 2212TIP3    H128051   1.782   5.834   6.186
 2212TIP3    H228052   1.893   5.838   6.290
 2213TIP3   OH228053   4.978   1.013   4.190
 2213TIP3    H128054   5.013   0.956   4.121
 2213TIP3    H228055   5.033   0.995   4.266
 2214TIP3   OH228056   0.879   3.634  14.236
 2214TIP3    H128057   0.970   3.647  14.265
 2214TIP3    H228058   0.835   3.715  14.263
 2215TIP3   OH228059   4.413   6.563  13.107
 2215TIP3    H128060   4.430   6.641  13.160
 2215TIP3    H228061   4.319   6.550  13.114
 2216TIP3   OH228062   3.765   4.965   2.417
 2216TIP3    H128063   3.736   4.878   2.388
 2216TIP3    H228064   3.687   5.005   2.456
 2217TIP3   OH228065   4.992   4.558   4.632
 2217TIP3    H128066   4.958   4.619   4.566
 2217TIP3    H228067   5.045   4.496   4.581
 2218TIP3   OH228068   3.861   1.596  16.785
 2218TIP3    H128069   3.768   1.615  16.785
 2218TIP3    H228070   3.874   1.538  16.710
 2219TIP3   OH228071   3.575   2.342   1.368
 2219TIP3    H128072   3.575   2.294   1.285
 2219TIP3    H228073   3.519   2.418   1.352
 2220TIP3   OH228074   6.387   2.101  16.162
 2220TIP3    H128075   6.469   2.076  16.206
 2220TIP3    H228076   6.371   2.191  16.193
 2221TIP3   OH228077   4.665   3.660   5.752
 2221TIP3    H128078   4.700   3.638   5.666
 2221TIP3    H228079   4.586   3.712   5.733
 2222TIP3   OH228080   5.436   1.812  15.472
 2222TIP3    H128081   5.434   1.865  15.392
 2222TIP3    H228082   5.503   1.853  15.526
 2223TIP3   OH228083   2.515   1.701   2.019
 2223TIP3    H128084   2.463   1.640   1.966
 2223TIP3    H228085   2.605   1.673   2.007
 2224TIP3   OH228086   3.720   5.016  16.176
 2224TIP3    H128087   3.664   4.973  16.111
 2224TIP3    H228088   3.736   4.950  16.242
 2225TIP3   OH228089   1.542   5.695   1.838
 2225TIP3    H128090   1.498   5.612   1.857
 2225TIP3    H228091   1.471   5.756   1.818
 2226TIP3   OH228092   5.067   6.649  12.930
 2226TIP3    H128093   4.987   6.600  12.910
 2226TIP3    H228094   5.091   6.621  13.019
 2227TIP3   OH228095   5.046   1.847  16.579
 2227TIP3    H128096   5.094   1.911  16.526
 2227TIP3    H228097   5.109   1.778  16.597
 2228TIP3   OH228098   0.730   1.600   3.520
 2228TIP3    H128099   0.647   1.613   3.567
 2228TIP3    H228100   0.724   1.511   3.485
 2229TIP3   OH228101   4.308   5.843  17.006
 2229TIP3    H128102   4.319   5.762  17.057
 2229TIP3    H228103   4.292   5.813  16.917
 2230TIP3   OH228104   1.470   3.259   1.871
 2230TIP3    H128105   1.390   3.244   1.921
 2230TIP3    H228106   1.452   3.339   1.821
 2231TIP3   OH228107   3.809   5.986   2.282
 2231TIP3    H128108   3.790   6.059   2.224
 2231TIP3    H228109   3.898   5.960   2.259
 2232TIP3   OH228110   3.449   5.351   0.383
 2232TIP3    H128111   3.483   5.397   0.307
 2232TIP3    H228112   3.482   5.261   0.373
 2233TIP3   OH228113   4.734   6.229   4.997
 2233TIP3    H128114   4.781   6.148   5.017
 2233TIP3    H228115   4.803   6.295   4.990
 2234TIP3   OH228116   4.694   4.969   0.584
 2234TIP3    H128117   4.653   5.047   0.621
 2234TIP3    H228118   4.724   4.919   0.660
 2235TIP3   OH228119   3.635   4.609  14.407
 2235TIP3    H128120   3.639   4.547  14.479
 2235TIP3    H228121   3.727   4.628  14.387
 2236TIP3   OH228122   2.382   5.406  11.313
 2236TIP3    H128123   2.403   5.342  11.245
 2236TIP3    H228124   2.356   5.485  11.266
 2237TIP3   OH228125   6.041   0.138  15.258
 2237TIP3    H128126   6.115   0.177  15.304
 2237TIP3    H228127   6.010   0.207  15.199
 2238TIP3   OH228128   6.316   6.589  13.168
 2238TIP3    H128129   6.299   6.513  13.224
 2238TIP3    H228130   6.412   6.597  13.167
 2239TIP3   OH228131   4.652   3.934   5.683
 2239TIP3    H128132   4.737   3.913   5.645
 2239TIP3    H228133   4.673   3.973   5.768
 2240TIP3   OH228134   5.483   0.348   2.721
 2240TIP3    H128135   5.530   0.268   2.744
 2240TIP3    H228136   5.541   0.393   2.659
 2241TIP3   OH228137   6.120   2.141   5.228
 2241TIP3    H128138   6.089   2.185   5.148
 2241TIP3    H228139   6.133   2.213   5.290
 2242TIP3   OH228140   6.110   0.014   3.958
 2242TIP3    H128141   6.066  -0.068   3.978
 2242TIP3    H228142   6.062   0.049   3.882
 2243TIP3   OH228143   5.163   6.539   5.995
 2243TIP3    H128144   5.132   6.621   6.032
 2243TIP3    H228145   5.084   6.490   5.974
 2244TIP3   OH228146   4.572   1.566  13.820
 2244TIP3    H128147   4.546   1.629  13.886
 2244TIP3    H228148   4.578   1.483  13.867
 2245TIP3   OH228149   5.113   1.113  15.802
 2245TIP3    H128150   5.048   1.179  15.827
 2245TIP3    H228151   5.197   1.157  15.812
 2246TIP3   OH228152   2.643   1.887  14.096
 2246TIP3    H128153   2.720   1.938  14.119
 2246TIP3    H228154   2.585   1.894  14.172
 2247TIP3   OH228155   4.597   4.906  10.981
 2247TIP3    H128156   4.595   4.844  10.908
 2247TIP3    H228157   4.690   4.919  11.000
 2248TIP3   OH228158   0.225   2.049   5.337
 2248TIP3    H128159   0.222   2.004   5.422
 2248TIP3    H228160   0.246   1.980   5.274
 2249TIP3   OH228161   1.704   6.478   6.628
 2249TIP3    H128162   1.694   6.388   6.661
 2249TIP3    H228163   1.783   6.475   6.574
 2250TIP3   OH228164   4.233   3.147  15.648
 2250TIP3    H128165   4.138   3.139  15.661
 2250TIP3    H228166   4.267   3.168  15.735
 2251TIP3   OH228167   5.657   3.336  14.297
 2251TIP3    H128168   5.676   3.279  14.223
 2251TIP3    H228169   5.666   3.425  14.262
 2252TIP3   OH228170   3.388   3.345  13.772
 2252TIP3    H128171   3.436   3.370  13.852
 2252TIP3    H228172   3.296   3.344  13.799
 2253TIP3   OH228173   3.269   5.240  16.013
 2253TIP3    H128174   3.280   5.240  15.918
 2253TIP3    H228175   3.341   5.295  16.046
 2254TIP3   OH228176   1.794   6.419  14.260
 2254TIP3    H128177   1.812   6.450  14.349
 2254TIP3    H228178   1.875   6.375  14.234
 2255TIP3   OH228179   1.289   5.879  14.111
 2255TIP3    H128180   1.243   5.827  14.176
 2255TIP3    H228181   1.358   5.822  14.079
 2256TIP3   OH228182   0.108   0.070   5.496
 2256TIP3    H128183   0.123  -0.024   5.494
 2256TIP3    H228184   0.113   0.098   5.405
 2257TIP3   OH228185   5.090   2.977   4.280
 2257TIP3    H128186   5.008   2.993   4.326
 2257TIP3    H228187   5.065   2.967   4.188
 2258TIP3   OH228188   0.168   0.359  14.334
 2258TIP3    H128189   0.100   0.308  14.289
 2258TIP3    H228190   0.222   0.394  14.263
 2259TIP3   OH228191   4.334   1.133   2.729
 2259TIP3    H128192   4.299   1.180   2.653
 2259TIP3    H228193   4.423   1.109   2.703
 2260TIP3   OH228194   2.295   5.095  13.787
 2260TIP3    H128195   2.335   5.175  13.753
 2260TIP3    H228196   2.288   5.037  13.711
 2261TIP3   OH228197   6.395   1.625   4.010
 2261TIP3    H128198   6.301   1.638   3.998
 2261TIP3    H228199   6.412   1.538   3.975
 2262TIP3   OH228200   3.821   0.070   0.859
 2262TIP3    H128201   3.847   0.107   0.774
 2262TIP3    H228202   3.882  -0.003   0.872
 2263TIP3   OH228203   1.520   5.407  13.412
 2263TIP3    H128204   1.447   5.354  13.382
 2263TIP3    H228205   1.598   5.363  13.377
 2264TIP3   OH228206   3.054   0.200   4.990
 2264TIP3    H128207   2.997   0.198   4.913
 2264TIP3    H228208   3.140   0.173   4.957
 2265TIP3   OH228209   5.590   1.512   5.449
 2265TIP3    H128210   5.571   1.421   5.469
 2265TIP3    H228211   5.658   1.508   5.381
 2266TIP3   OH228212   3.198   5.242  14.325
 2266TIP3    H128213   3.293   5.249  14.336
 2266TIP3    H228214   3.169   5.185  14.397
 2267TIP3   OH228215   2.203   5.720  15.213
 2267TIP3    H128216   2.295   5.742  15.198
 2267TIP3    H228217   2.165   5.715  15.125
 2268TIP3   OH228218   2.895   2.481   3.317
 2268TIP3    H128219   2.980   2.442   3.337
 2268TIP3    H228220   2.836   2.406   3.307
 2269TIP3   OH228221   4.343   2.095  15.887
 2269TIP3    H128222   4.270   2.151  15.912
 2269TIP3    H228223   4.311   2.048  15.810
 2270TIP3   OH228224   2.931   6.630  14.044
 2270TIP3    H128225   2.851   6.675  14.020
 2270TIP3    H228226   2.902   6.553  14.092
 2271TIP3   OH228227   3.323   2.218   6.594
 2271TIP3    H128228   3.382   2.269   6.539
 2271TIP3    H228229   3.328   2.260   6.680
 2272TIP3   OH228230   5.208   4.791   0.354
 2272TIP3    H128231   5.134   4.849   0.338
 2272TIP3    H228232   5.184   4.708   0.313
 2273TIP3   OH228233   3.150   2.471  14.770
 2273TIP3    H128234   3.059   2.485  14.742
 2273TIP3    H228235   3.163   2.377  14.761
 2274TIP3   OH228236   4.234   2.076   1.475
 2274TIP3    H128237   4.180   2.084   1.396
 2274TIP3    H228238   4.193   2.005   1.524
 2275TIP3   OH228239   3.655   5.781  15.107
 2275TIP3    H128240   3.677   5.836  15.032
 2275TIP3    H228241   3.567   5.748  15.087
 2276TIP3   OH228242   2.049   5.712   3.367
 2276TIP3    H128243   1.959   5.702   3.397
 2276TIP3    H228244   2.094   5.752   3.441
 2277TIP3   OH228245   2.686   1.287   3.513
 2277TIP3    H128246   2.769   1.239   3.512
 2277TIP3    H228247   2.640   1.254   3.590
 2278TIP3   OH228248   5.069   1.893   0.962
 2278TIP3    H128249   5.126   1.818   0.945
 2278TIP3    H228250   5.124   1.954   1.012
 2279TIP3   OH228251   4.327   0.396  13.278
 2279TIP3    H128252   4.245   0.378  13.232
 2279TIP3    H228253   4.326   0.491  13.292
 2280TIP3   OH228254   0.796   4.805   6.064
 2280TIP3    H128255   0.731   4.830   6.130
 2280TIP3    H228256   0.859   4.751   6.111
 2281TIP3   OH228257   6.531   1.606   2.643
 2281TIP3    H128258   6.527   1.561   2.559
 2281TIP3    H228259   6.520   1.536   2.708
 2282TIP3   OH228260   2.140   3.006  11.900
 2282TIP3    H128261   2.065   2.950  11.884
 2282TIP3    H228262   2.177   3.023  11.814
 2283TIP3   OH228263   1.478   3.145   0.426
 2283TIP3    H128264   1.534   3.078   0.387
 2283TIP3    H228265   1.398   3.142   0.374
 2284TIP3   OH228266   1.423   4.085   1.246
 2284TIP3    H128267   1.420   4.181   1.238
 2284TIP3    H228268   1.483   4.070   1.320
 2285TIP3   OH228269   3.558   6.074   2.941
 2285TIP3    H128270   3.568   6.108   2.852
 2285TIP3    H228271   3.533   5.982   2.928
 2286TIP3   OH228272   0.248   4.049  13.522
 2286TIP3    H128273   0.221   4.021  13.609
 2286TIP3    H228274   0.226   3.975  13.465
 2287TIP3   OH228275   5.168   2.817  13.410
 2287TIP3    H128276   5.078   2.823  13.440
 2287TIP3    H228277   5.189   2.906  13.381
 2288TIP3   OH228278   1.948   2.850  13.996
 2288TIP3    H128279   1.950   2.851  14.092
 2288TIP3    H228280   2.037   2.823  13.971
 2289TIP3   OH228281   3.330   0.965  11.796
 2289TIP3    H128282   3.419   0.978  11.829
 2289TIP3    H228283   3.333   0.999  11.707
 2290TIP3   OH228284   4.089   3.482   0.245
 2290TIP3    H128285   4.023   3.545   0.214
 2290TIP3    H228286   4.038   3.411   0.283
 2291TIP3   OH228287   1.337   4.741  15.544
 2291TIP3    H128288   1.252   4.711  15.511
 2291TIP3    H228289   1.348   4.828  15.505
 2292TIP3   OH228290   5.308   0.092  15.033
 2292TIP3    H128291   5.252   0.061  14.962
 2292TIP3    H228292   5.264   0.172  15.065
 2293TIP3   OH228293   6.053   1.564   4.967
 2293TIP3    H128294   6.084   1.478   4.995
 2293TIP3    H228295   5.988   1.589   5.033
 2294TIP3   OH228296   2.529   6.570  12.811
 2294TIP3    H128297   2.525   6.546  12.719
 2294TIP3    H228298   2.611   6.618  12.820
 2295TIP3   OH228299   3.283   1.496   1.261
 2295TIP3    H128300   3.306   1.585   1.285
 2295TIP3    H228301   3.330   1.441   1.324
 2296TIP3   OH228302   5.479   3.404  15.257
 2296TIP3    H128303   5.565   3.408  15.299
 2296TIP3    H228304   5.461   3.494  15.230
 2297TIP3   OH228305   0.711   6.568   1.679
 2297TIP3    H128306   0.708   6.504   1.607
 2297TIP3    H228307   0.680   6.518   1.755
 2298TIP3   OH228308   0.694   4.266   1.332
 2298TIP3    H128309   0.772   4.321   1.321
 2298TIP3    H228310   0.727   4.186   1.375
 2299TIP3   OH228311   0.437   2.717   5.810
 2299TIP3    H128312   0.344   2.728   5.790
 2299TIP3    H228313   0.463   2.637   5.763
 2300TIP3   OH228314   0.403   6.045  14.335
 2300TIP3    H128315   0.344   5.983  14.294
 2300TIP3    H228316   0.489   6.002  14.333
 2301TIP3   OH228317   6.628   3.816  13.312
 2301TIP3    H128318   6.567   3.886  13.288
 2301TIP3    H228319   6.709   3.838  13.267
 2302TIP3   OH228320   6.553   2.563   6.967
 2302TIP3    H128321   6.571   2.501   7.038
 2302TIP3    H228322   6.457   2.563   6.960
 2303TIP3   OH228323   3.449   0.222  10.919
 2303TIP3    H128324   3.500   0.241  10.841
 2303TIP3    H228325   3.414   0.134  10.903
 2304TIP3   OH228326   2.639   3.307  16.349
 2304TIP3    H128327   2.591   3.378  16.393
 2304TIP3    H228328   2.571   3.247  16.320
 2305TIP3   OH228329   3.497   5.841  12.266
 2305TIP3    H128330   3.449   5.785  12.326
 2305TIP3    H228331   3.446   5.922  12.262
 2306TIP3   OH228332   0.182   2.166   4.532
 2306TIP3    H128333   0.149   2.079   4.554
 2306TIP3    H228334   0.267   2.171   4.576
 2307TIP3   OH228335   0.649   2.010  13.520
 2307TIP3    H128336   0.724   1.983  13.467
 2307TIP3    H228337   0.684   2.081  13.575
 2308TIP3   OH228338   0.605   2.967   5.645
 2308TIP3    H128339   0.642   2.896   5.698
 2308TIP3    H228340   0.562   3.024   5.709
 2309TIP3   OH228341   2.201   1.245   6.160
 2309TIP3    H128342   2.200   1.297   6.240
 2309TIP3    H228343   2.273   1.183   6.172
 2310TIP3   OH228344   2.602   0.822   4.290
 2310TIP3    H128345   2.552   0.890   4.336
 2310TIP3    H228346   2.644   0.772   4.359
 2311TIP3   OH228347   6.215   2.462   1.880
 2311TIP3    H128348   6.282   2.396   1.860
 2311TIP3    H228349   6.142   2.440   1.823
 2312TIP3   OH228350   2.476   3.478   4.076
 2312TIP3    H128351   2.400   3.429   4.044
 2312TIP3    H228352   2.522   3.417   4.133
 2313TIP3   OH228353   1.559   1.700  11.533
 2313TIP3    H128354   1.584   1.608  11.545
 2313TIP3    H228355   1.636   1.739  11.492
 2314TIP3   OH228356   1.327   1.404   3.173
 2314TIP3    H128357   1.321   1.442   3.085
 2314TIP3    H228358   1.421   1.393   3.188
 2315TIP3   OH228359   1.610   1.908  15.910
 2315TIP3    H128360   1.584   1.919  16.001
 2315TIP3    H228361   1.565   1.979  15.864
 2316TIP3   OH228362   3.247   2.389  16.405
 2316TIP3    H128363   3.312   2.459  16.398
 2316TIP3    H228364   3.192   2.400  16.328
 2317TIP3   OH228365   1.787   3.752  15.117
 2317TIP3    H128366   1.712   3.695  15.137
 2317TIP3    H228367   1.762   3.796  15.036
 2318TIP3   OH228368   1.634   5.378   4.230
 2318TIP3    H128369   1.706   5.423   4.186
 2318TIP3    H228370   1.649   5.285   4.212
 2319TIP3   OH228371   1.818   4.618   0.897
 2319TIP3    H128372   1.728   4.605   0.927
 2319TIP3    H228373   1.858   4.531   0.904
 2320TIP3   OH228374   0.320   2.753   3.635
 2320TIP3    H128375   0.402   2.801   3.640
 2320TIP3    H228376   0.337   2.683   3.572
 2321TIP3   OH228377   5.122   3.506  13.106
 2321TIP3    H128378   5.119   3.493  13.011
 2321TIP3    H228379   5.214   3.520  13.126
 2322TIP3   OH228380   2.345   0.503  11.657
 2322TIP3    H128381   2.375   0.473  11.743
 2322TIP3    H228382   2.364   0.597  11.658
 2323TIP3   OH228383   2.890   2.230   0.028
 2323TIP3    H128384   2.865   2.300  -0.032
 2323TIP3    H228385   2.962   2.185  -0.016
 2324TIP3   OH228386   0.383   4.758   1.245
 2324TIP3    H128387   0.402   4.682   1.191
 2324TIP3    H228388   0.468   4.800   1.258
 2325TIP3   OH228389   2.911   1.447  14.676
 2325TIP3    H128390   2.988   1.440  14.619
 2325TIP3    H228391   2.874   1.533  14.656
 2326TIP3   OH228392   5.690   3.923  11.396
 2326TIP3    H128393   5.772   3.936  11.444
 2326TIP3    H228394   5.677   3.828  11.395
 2327TIP3   OH228395   5.511   0.369  12.574
 2327TIP3    H128396   5.560   0.344  12.652
 2327TIP3    H228397   5.577   0.380  12.506
 2328TIP3   OH228398   4.979   6.386  15.343
 2328TIP3    H128399   4.995   6.442  15.418
 2328TIP3    H228400   4.929   6.312  15.378
 2329TIP3   OH228401   4.855   3.923   5.358
 2329TIP3    H128402   4.774   3.966   5.333
 2329TIP3    H228403   4.924   3.973   5.313
 2330TIP3   OH228404   2.416   4.315  11.832
 2330TIP3    H128405   2.347   4.375  11.860
 2330TIP3    H228406   2.376   4.263  11.762
 2331TIP3   OH228407   5.382   4.380  11.399
 2331TIP3    H128408   5.296   4.392  11.438
 2331TIP3    H228409   5.397   4.286  11.401
 2332TIP3   OH228410   4.696   6.046  14.463
 2332TIP3    H128411   4.653   6.122  14.502
 2332TIP3    H228412   4.730   6.078  14.379
 2333TIP3   OH228413   1.470   2.777  11.232
 2333TIP3    H128414   1.410   2.841  11.194
 2333TIP3    H228415   1.493   2.720  11.158
 2334TIP3   OH228416   3.309   3.898   3.953
 2334TIP3    H128417   3.402   3.923   3.948
 2334TIP3    H228418   3.287   3.904   4.046
 2335TIP3   OH228419   2.882   5.204  12.385
 2335TIP3    H128420   2.926   5.229  12.466
 2335TIP3    H228421   2.948   5.217  12.317
 2336TIP3   OH228422   0.593   4.630  12.963
 2336TIP3    H128423   0.522   4.581  12.922
 2336TIP3    H228424   0.659   4.564  12.984
 2337TIP3   OH228425   0.662   5.829  17.147
 2337TIP3    H128426   0.686   5.894  17.213
 2337TIP3    H228427   0.745   5.801  17.109
 2338TIP3   OH228428   3.903   2.773  16.862
 2338TIP3    H128429   3.956   2.851  16.879
 2338TIP3    H228430   3.936   2.739  16.779
 2339TIP3   OH228431   3.188   0.039   5.618
 2339TIP3    H128432   3.283   0.048   5.618
 2339TIP3    H228433   3.156   0.127   5.601
 2340TIP3   OH228434   2.801   6.288  16.433
 2340TIP3    H128435   2.755   6.298  16.516
 2340TIP3    H228436   2.752   6.219  16.387
 2341TIP3   OH228437   4.242   6.115  13.889
 2341TIP3    H128438   4.280   6.064  13.960
 2341TIP3    H228439   4.181   6.055  13.846
 2342TIP3   OH228440   1.810   2.586   0.735
 2342TIP3    H128441   1.714   2.585   0.741
 2342TIP3    H228442   1.838   2.512   0.789
 2343TIP3   OH228443   0.015   0.607   2.368
 2343TIP3    H128444   0.046   0.662   2.297
 2343TIP3    H228445  -0.065   0.567   2.334
 2344TIP3   OH228446   3.029   3.751   0.179
 2344TIP3    H128447   3.104   3.699   0.150
 2344TIP3    H228448   3.008   3.716   0.266
 2345TIP3   OH228449   4.610   6.464   3.119
 2345TIP3    H128450   4.558   6.421   3.052
 2345TIP3    H228451   4.589   6.557   3.110
 2346TIP3   OH228452   4.193   0.489  16.717
 2346TIP3    H128453   4.141   0.565  16.743
 2346TIP3    H228454   4.266   0.489  16.778
 2347TIP3   OH228455   6.200   0.886  11.744
 2347TIP3    H128456   6.145   0.813  11.716
 2347TIP3    H228457   6.195   0.950  11.673
 2348TIP3   OH228458   1.770   5.256  13.386
 2348TIP3    H128459   1.801   5.170  13.415
 2348TIP3    H228460   1.831   5.280  13.315
 2349TIP3   OH228461   0.937   2.846   4.985
 2349TIP3    H128462   0.857   2.864   5.036
 2349TIP3    H228463   0.948   2.923   4.930
 2350TIP3   OH228464   2.999   5.563   5.703
 2350TIP3    H128465   2.969   5.482   5.744
 2350TIP3    H228466   3.073   5.536   5.648
 2351TIP3   OH228467   3.052   1.605   0.992
 2351TIP3    H128468   3.114   1.591   1.063
 2351TIP3    H228469   3.076   1.690   0.956
 2352TIP3   OH228470   3.512   4.356  17.083
 2352TIP3    H128471   3.537   4.266  17.060
 2352TIP3    H228472   3.582   4.387  17.139
 2353TIP3   OH228473   1.036   5.673  11.529
 2353TIP3    H128474   1.047   5.689  11.622
 2353TIP3    H228475   1.124   5.656  11.496
 2354TIP3   OH228476   0.551   6.534  13.818
 2354TIP3    H128477   0.568   6.604  13.881
 2354TIP3    H228478   0.481   6.568  13.763
 2355TIP3   OH228479   2.210   1.205  12.262
 2355TIP3    H128480   2.305   1.215  12.258
 2355TIP3    H228481   2.177   1.294  12.261
 2356TIP3   OH228482   3.366   0.906  13.312
 2356TIP3    H128483   3.277   0.886  13.342
 2356TIP3    H228484   3.367   1.002  13.305
 2357TIP3   OH228485   6.000   3.789  14.777
 2357TIP3    H128486   5.930   3.727  14.758
 2357TIP3    H228487   5.985   3.861  14.716
 2358TIP3   OH228488   5.697   4.065   5.364
 2358TIP3    H128489   5.724   3.983   5.404
 2358TIP3    H228490   5.716   4.131   5.430
 2359TIP3   OH228491   5.992   0.269  16.547
 2359TIP3    H128492   6.000   0.322  16.627
 2359TIP3    H228493   6.047   0.315  16.483
 2360TIP3   OH228494   3.300   3.625   0.660
 2360TIP3    H128495   3.215   3.618   0.703
 2360TIP3    H228496   3.299   3.558   0.592
 2361TIP3   OH228497   1.637   2.898  17.171
 2361TIP3    H128498   1.708   2.844  17.207
 2361TIP3    H228499   1.643   2.980  17.220
 2362TIP3   OH228500   1.607   0.485   2.224
 2362TIP3    H128501   1.565   0.559   2.179
 2362TIP3    H228502   1.684   0.465   2.170
 2363TIP3   OH228503   2.330   0.686   2.472
 2363TIP3    H128504   2.321   0.602   2.428
 2363TIP3    H228505   2.306   0.668   2.563
 2364TIP3   OH228506   4.244   1.706  16.413
 2364TIP3    H128507   4.286   1.636  16.463
 2364TIP3    H228508   4.317   1.757  16.378
 2365TIP3   OH228509   6.408   3.896  12.905
 2365TIP3    H128510   6.425   3.990  12.902
 2365TIP3    H228511   6.492   3.856  12.926
 2366TIP3   OH228512   1.496   5.900   0.514
 2366TIP3    H128513   1.401   5.908   0.509
 2366TIP3    H228514   1.528   5.944   0.435
 2367TIP3   OH228515   4.742   0.815   5.857
 2367TIP3    H128516   4.656   0.821   5.897
 2367TIP3    H228517   4.771   0.726   5.877
 2368TIP3   OH228518   3.854   2.668  11.629
 2368TIP3    H128519   3.904   2.590  11.653
 2368TIP3    H228520   3.830   2.708  11.712
 2369TIP3   OH228521   1.333   5.636   5.015
 2369TIP3    H128522   1.371   5.711   4.968
 2369TIP3    H228523   1.278   5.675   5.082
 2370TIP3   OH228524   6.180   0.697   1.031
 2370TIP3    H128525   6.116   0.733   1.093
 2370TIP3    H228526   6.126   0.646   0.970
 2371TIP3   OH228527   0.922   5.568  15.530
 2371TIP3    H128528   0.844   5.584  15.584
 2371TIP3    H228529   0.974   5.506  15.580
 2372TIP3   OH228530   2.359   1.191   1.159
 2372TIP3    H128531   2.366   1.107   1.114
 2372TIP3    H228532   2.285   1.181   1.218
 2373TIP3   OH228533   2.690   0.950  13.381
 2373TIP3    H128534   2.766   0.998  13.346
 2373TIP3    H228535   2.615   1.006  13.360
 2374TIP3   OH228536   3.998   4.175   1.716
 2374TIP3    H128537   4.038   4.100   1.761
 2374TIP3    H228538   3.951   4.136   1.642
 2375TIP3   OH228539   5.668   4.007  12.492
 2375TIP3    H128540   5.746   4.044  12.452
 2375TIP3    H228541   5.610   4.082  12.506
 2376TIP3   OH228542   1.057   0.135  13.817
 2376TIP3    H128543   0.998   0.190  13.868
 2376TIP3    H228544   1.015   0.128  13.731
 2377TIP3   OH228545   0.136   4.555   0.386
 2377TIP3    H128546   0.046   4.583   0.406
 2377TIP3    H228547   0.128   4.505   0.305
 2378TIP3   OH228548   4.664   5.496   5.956
 2378TIP3    H128549   4.650   5.575   6.009
 2378TIP3    H228550   4.758   5.494   5.940
 2379TIP3   OH228551   0.398   4.527   4.559
 2379TIP3    H128552   0.430   4.445   4.523
 2379TIP3    H228553   0.466   4.553   4.623
 2380TIP3   OH228554   3.270   2.358   0.449
 2380TIP3    H128555   3.232   2.274   0.475
 2380TIP3    H228556   3.354   2.336   0.409
 2381TIP3   OH228557   6.036   0.119  15.595
 2381TIP3    H128558   6.020   0.077  15.511
 2381TIP3    H228559   5.994   0.062  15.659
 2382TIP3   OH228560   0.908   0.240  16.471
 2382TIP3    H128561   0.908   0.274  16.561
 2382TIP3    H228562   0.830   0.280  16.431
 2383TIP3   OH228563   2.941   6.134   4.392
 2383TIP3    H128564   2.920   6.211   4.339
 2383TIP3    H228565   2.857   6.090   4.404
 2384TIP3   OH228566   0.349   3.167   5.211
 2384TIP3    H128567   0.441   3.165   5.238
 2384TIP3    H228568   0.343   3.100   5.143
 2385TIP3   OH228569   3.469   1.143   4.969
 2385TIP3    H128570   3.513   1.226   4.951
 2385TIP3    H228571   3.538   1.078   4.961
 2386TIP3   OH228572   1.451   1.142   0.310
 2386TIP3    H128573   1.522   1.194   0.347
 2386TIP3    H228574   1.419   1.089   0.382
 2387TIP3   OH228575   6.688   3.833  12.960
 2387TIP3    H128576   6.737   3.772  13.014
 2387TIP3    H228577   6.717   3.816  12.870
 2388TIP3   OH228578   6.555   6.443   0.626
 2388TIP3    H128579   6.595   6.412   0.707
 2388TIP3    H228580   6.461   6.434   0.641
 2389TIP3   OH228581   3.816   4.490   4.426
 2389TIP3    H128582   3.802   4.530   4.511
 2389TIP3    H228583   3.731   4.454   4.401
 2390TIP3   OH228584   6.453   3.952   2.925
 2390TIP3    H128585   6.507   4.028   2.902
 2390TIP3    H228586   6.486   3.882   2.870
 2391TIP3   OH228587   5.348   2.823   2.475
 2391TIP3    H128588   5.305   2.793   2.396
 2391TIP3    H228589   5.296   2.786   2.547
 2392TIP3   OH228590   6.049   4.943   5.579
 2392TIP3    H128591   6.024   5.007   5.645
 2392TIP3    H228592   5.967   4.922   5.535
 2393TIP3   OH228593   5.761   6.722  13.065
 2393TIP3    H128594   5.811   6.684  13.137
 2393TIP3    H228595   5.680   6.671  13.062
 2394TIP3   OH228596   0.914   6.224   3.064
 2394TIP3    H128597   0.858   6.251   2.991
 2394TIP3    H228598   0.941   6.135   3.042
 2395TIP3   OH228599   5.792   6.311  12.791
 2395TIP3    H128600   5.698   6.318  12.807
 2395TIP3    H228601   5.799   6.256  12.713
 2396TIP3   OH228602   4.399   0.871   4.772
 2396TIP3    H128603   4.328   0.879   4.707
 2396TIP3    H228604   4.373   0.796   4.826
 2397TIP3   OH228605   4.604   3.299   1.759
 2397TIP3    H128606   4.674   3.359   1.784
 2397TIP3    H228607   4.572   3.264   1.842
 2398TIP3   OH228608   3.122   2.429   4.457
 2398TIP3    H128609   3.198   2.387   4.497
 2398TIP3    H228610   3.113   2.512   4.503
 2399TIP3   OH228611   3.811   1.583  11.036
 2399TIP3    H128612   3.862   1.552  10.961
 2399TIP3    H228613   3.876   1.608  11.101
 2400TIP3   OH228614   2.780   4.452   0.508
 2400TIP3    H128615   2.833   4.514   0.557
 2400TIP3    H228616   2.843   4.388   0.474
 2401TIP3   OH228617   2.083   4.208  16.308
 2401TIP3    H128618   2.084   4.197  16.213
 2401TIP3    H228619   2.146   4.277  16.325
 2402TIP3   OH228620   5.094   0.822   2.112
 2402TIP3    H128621   5.083   0.877   2.033
 2402TIP3    H228622   5.110   0.885   2.182
 2403TIP3   OH228623   3.569   4.328   4.068
 2403TIP3    H128624   3.608   4.388   4.005
 2403TIP3    H228625   3.564   4.378   4.149
 2404TIP3   OH228626   3.629   3.046   6.304
 2404TIP3    H128627   3.570   3.005   6.241
 2404TIP3    H228628   3.714   3.005   6.288
 2405TIP3   OH228629   4.000   0.954   3.259
 2405TIP3    H128630   4.059   0.917   3.324
 2405TIP3    H228631   3.927   0.892   3.254
 2406TIP3   OH228632   6.382   3.899  15.491
 2406TIP3    H128633   6.454   3.948  15.452
 2406TIP3    H228634   6.311   3.904  15.428
 2407TIP3   OH228635   0.366   4.441  16.445
 2407TIP3    H128636   0.412   4.424  16.363
 2407TIP3    H228637   0.341   4.354  16.477
 2408TIP3   OH228638   1.666   0.762   5.643
 2408TIP3    H128639   1.601   0.715   5.695
 2408TIP3    H228640   1.637   0.854   5.646
 2409TIP3   OH228641   6.418   4.547  10.962
 2409TIP3    H128642   6.491   4.507  10.915
 2409TIP3    H228643   6.341   4.526  10.909
 2410TIP3   OH228644   1.794   3.238  11.467
 2410TIP3    H128645   1.762   3.189  11.542
 2410TIP3    H228646   1.744   3.203  11.392
 2411TIP3   OH228647   2.943   2.823  12.190
 2411TIP3    H128648   2.955   2.887  12.261
 2411TIP3    H228649   2.877   2.763  12.223
 2412TIP3   OH228650   1.766   6.647   5.099
 2412TIP3    H128651   1.773   6.660   5.193
 2412TIP3    H228652   1.788   6.554   5.086
 2413TIP3   OH228653   4.089   1.320   3.140
 2413TIP3    H128654   4.151   1.265   3.188
 2413TIP3    H228655   4.021   1.260   3.110
 2414TIP3   OH228656   4.498   4.886   5.378
 2414TIP3    H128657   4.451   4.949   5.432
 2414TIP3    H228658   4.503   4.807   5.432
 2415TIP3   OH228659   1.014   5.734   4.451
 2415TIP3    H128660   0.940   5.757   4.396
 2415TIP3    H228661   0.975   5.702   4.533
 2416TIP3   OH228662   2.872   6.610   1.914
 2416TIP3    H128663   2.810   6.683   1.926
 2416TIP3    H228664   2.818   6.531   1.922
 2417TIP3   OH228665   0.824   6.161  15.317
 2417TIP3    H128666   0.757   6.094  15.331
 2417TIP3    H228667   0.843   6.194  15.405
 2418TIP3   OH228668   3.795   3.076  13.660
 2418TIP3    H128669   3.801   2.995  13.609
 2418TIP3    H228670   3.783   3.047  13.750
 2419TIP3   OH228671   6.692   6.437  16.158
 2419TIP3    H128672   6.633   6.395  16.096
 2419TIP3    H228673   6.683   6.530  16.141
 2420TIP3   OH228674   1.761   2.273   1.701
 2420TIP3    H128675   1.826   2.237   1.762
 2420TIP3    H228676   1.761   2.211   1.627
 2421TIP3   OH228677   5.014   2.577   0.521
 2421TIP3    H128678   5.015   2.622   0.437
 2421TIP3    H228679   4.973   2.492   0.503
 2422TIP3   OH228680   5.332   0.641   3.662
 2422TIP3    H128681   5.387   0.640   3.584
 2422TIP3    H228682   5.270   0.570   3.648
 2423TIP3   OH228683   0.569   4.392   5.634
 2423TIP3    H128684   0.611   4.309   5.655
 2423TIP3    H228685   0.573   4.443   5.715
 2424TIP3   OH228686   6.597   2.254   3.053
 2424TIP3    H128687   6.572   2.211   3.135
 2424TIP3    H228688   6.545   2.211   2.986
 2425TIP3   OH228689   3.447   5.138   4.542
 2425TIP3    H128690   3.404   5.145   4.457
 2425TIP3    H228691   3.409   5.061   4.583
 2426TIP3   OH228692   0.858   1.540  15.069
 2426TIP3    H128693   0.822   1.613  15.019
 2426TIP3    H228694   0.817   1.462  15.031
 2427TIP3   OH228695   2.038   5.937   2.904
 2427TIP3    H128696   2.034   5.848   2.869
 2427TIP3    H228697   2.015   5.927   2.997
 2428TIP3   OH228698   4.960   0.715  15.809
 2428TIP3    H128699   4.947   0.707  15.714
 2428TIP3    H228700   4.933   0.631  15.844
 2429TIP3   OH228701   0.196   2.577   0.239
 2429TIP3    H128702   0.124   2.590   0.178
 2429TIP3    H228703   0.162   2.515   0.304
 2430TIP3   OH228704   6.633   2.324  15.966
 2430TIP3    H128705   6.691   2.397  15.943
 2430TIP3    H228706   6.564   2.364  16.019
 2431TIP3   OH228707   1.838   5.419  16.711
 2431TIP3    H128708   1.909   5.395  16.770
 2431TIP3    H228709   1.873   5.403  16.623
 2432TIP3   OH228710   0.535   6.629   5.477
 2432TIP3    H128711   0.556   6.673   5.394
 2432TIP3    H228712   0.557   6.537   5.461
 2433TIP3   OH228713   3.989   1.203  10.783
 2433TIP3    H128714   4.020   1.186  10.694
 2433TIP3    H228715   3.899   1.170  10.784
 2434TIP3   OH228716   3.089   4.645  14.208
 2434TIP3    H128717   2.994   4.632  14.212
 2434TIP3    H228718   3.116   4.654  14.299
 2435TIP3   OH228719   0.296   5.120   4.786
 2435TIP3    H128720   0.371   5.066   4.765
 2435TIP3    H228721   0.302   5.134   4.880
 2436TIP3   OH228722   5.225   2.656  16.350
 2436TIP3    H128723   5.236   2.675  16.257
 2436TIP3    H228724   5.141   2.696  16.373
 2437TIP3   OH228725   2.185   2.468   3.045
 2437TIP3    H128726   2.168   2.374   3.045
 2437TIP3    H228727   2.245   2.482   2.972
 2438TIP3   OH228728   1.625   5.199   5.721
 2438TIP3    H128729   1.586   5.111   5.730
 2438TIP3    H228730   1.650   5.205   5.629
 2439TIP3   OH228731   5.546   0.700   3.390
 2439TIP3    H128732   5.638   0.693   3.416
 2439TIP3    H228733   5.542   0.779   3.337
 2440TIP3   OH228734   0.175   6.493  11.128
 2440TIP3    H128735   0.109   6.425  11.117
 2440TIP3    H228736   0.252   6.459  11.082
 2441TIP3   OH228737   0.347   0.822  15.801
 2441TIP3    H128738   0.258   0.842  15.770
 2441TIP3    H228739   0.404   0.846  15.727
 2442TIP3   OH228740   0.506   5.985  15.632
 2442TIP3    H128741   0.477   5.992  15.723
 2442TIP3    H228742   0.506   6.075  15.599
 2443TIP3   OH228743   0.603   0.530  12.699
 2443TIP3    H128744   0.638   0.611  12.662
 2443TIP3    H228745   0.596   0.470  12.625
 2444TIP3   OH228746   4.683   5.874   1.727
 2444TIP3    H128747   4.734   5.927   1.789
 2444TIP3    H228748   4.592   5.901   1.742
 2445TIP3   OH228749   5.172   4.991   6.002
 2445TIP3    H128750   5.150   4.987   5.909
 2445TIP3    H228751   5.182   4.900   6.029
 2446TIP3   OH228752   4.076   5.786   4.157
 2446TIP3    H128753   4.009   5.768   4.091
 2446TIP3    H228754   4.159   5.787   4.109
 2447TIP3   OH228755   5.381   6.641   0.574
 2447TIP3    H128756   5.338   6.584   0.510
 2447TIP3    H228757   5.343   6.728   0.557
 2448TIP3   OH228758   6.066   4.775  14.334
 2448TIP3    H128759   6.084   4.868  14.320
 2448TIP3    H228760   6.071   4.736  14.247
 2449TIP3   OH228761   3.501   5.253   5.406
 2449TIP3    H128762   3.493   5.347   5.391
 2449TIP3    H228763   3.564   5.224   5.340
 2450TIP3   OH228764   5.647   6.666  16.793
 2450TIP3    H128765   5.552   6.667  16.805
 2450TIP3    H228766   5.682   6.693  16.878
 2451TIP3   OH228767   3.055   4.599   5.626
 2451TIP3    H128768   3.029   4.522   5.677
 2451TIP3    H228769   2.997   4.669   5.656
 2452TIP3   OH228770   1.426   6.207  14.809
 2452TIP3    H128771   1.387   6.206  14.721
 2452TIP3    H228772   1.361   6.165  14.865
 2453TIP3   OH228773   4.133   6.756   0.780
 2453TIP3    H128774   4.122   6.836   0.831
 2453TIP3    H228775   4.202   6.777   0.717
 2454TIP3   OH228776   0.254   0.545  15.889
 2454TIP3    H128777   0.268   0.534  15.983
 2454TIP3    H228778   0.271   0.638  15.873
 2455TIP3   OH228779   3.618   2.184   3.968
 2455TIP3    H128780   3.570   2.225   4.040
 2455TIP3    H228781   3.665   2.257   3.927
 2456TIP3   OH228782   4.274   5.170  15.253
 2456TIP3    H128783   4.212   5.132  15.191
 2456TIP3    H228784   4.358   5.169  15.207
 2457TIP3   OH228785   4.980   6.216   3.228
 2457TIP3    H128786   4.991   6.308   3.204
 2457TIP3    H228787   5.069   6.180   3.228
 2458TIP3   OH228788   0.822   6.762  10.726
 2458TIP3    H128789   0.814   6.777  10.820
 2458TIP3    H228790   0.900   6.811  10.700
 2459TIP3   OH228791   0.019   5.897  17.216
 2459TIP3    H128792   0.093   5.944  17.255
 2459TIP3    H228793   0.005   5.822  17.273
 2460TIP3   OH228794   5.384   0.098   1.843
 2460TIP3    H128795   5.374   0.108   1.748
 2460TIP3    H228796   5.432   0.016   1.854
 2461TIP3   OH228797   3.129   2.791  15.307
 2461TIP3    H128798   3.116   2.776  15.213
 2461TIP3    H228799   3.214   2.835  15.313
 2462TIP3   OH228800   3.583   6.596   1.135
 2462TIP3    H128801   3.584   6.679   1.087
 2462TIP3    H228802   3.543   6.534   1.073
 2463TIP3   OH228803   1.540   5.890   0.795
 2463TIP3    H128804   1.546   5.941   0.715
 2463TIP3    H228805   1.511   5.803   0.766
 2464TIP3   OH228806   2.181   3.470  12.195
 2464TIP3    H128807   2.101   3.482  12.143
 2464TIP3    H228808   2.150   3.446  12.282
 2465TIP3   OH228809   1.637   6.199  16.811
 2465TIP3    H128810   1.722   6.164  16.835
 2465TIP3    H228811   1.631   6.282  16.858
 2466TIP3   OH228812   5.979   0.648  12.415
 2466TIP3    H128813   5.987   0.708  12.340
 2466TIP3    H228814   6.057   0.593  12.410
 2467TIP3   OH228815   0.423   6.282  11.664
 2467TIP3    H128816   0.492   6.302  11.726
 2467TIP3    H228817   0.361   6.355  11.672
 2468TIP3   OH228818   3.824   0.520  12.621
 2468TIP3    H128819   3.768   0.594  12.646
 2468TIP3    H228820   3.912   0.557  12.619
 2469TIP3   OH228821   0.348   4.662  14.813
 2469TIP3    H128822   0.271   4.656  14.870
 2469TIP3    H228823   0.313   4.666  14.724
 2470TIP3   OH228824   5.419   5.833   3.703
 2470TIP3    H128825   5.450   5.923   3.693
 2470TIP3    H228826   5.452   5.805   3.788
 2471TIP3   OH228827   2.301   4.118   2.015
 2471TIP3    H128828   2.301   4.141   1.922
 2471TIP3    H228829   2.220   4.157   2.049
 2472TIP3   OH228830   4.900   0.933  12.603
 2472TIP3    H128831   4.874   0.861  12.546
 2472TIP3    H228832   4.824   0.947  12.660
 2473TIP3   OH228833   6.111   4.336   4.771
 2473TIP3    H128834   6.170   4.353   4.844
 2473TIP3    H228835   6.077   4.422   4.746
 2474TIP3   OH228836   4.890   5.845  12.268
 2474TIP3    H128837   4.902   5.846  12.173
 2474TIP3    H228838   4.808   5.797  12.281
 2475TIP3   OH228839   2.355   6.749   2.313
 2475TIP3    H128840   2.285   6.738   2.249
 2475TIP3    H228841   2.416   6.810   2.271
 2476TIP3   OH228842   4.625   5.194   3.112
 2476TIP3    H128843   4.631   5.214   3.206
 2476TIP3    H228844   4.627   5.280   3.070
 2477TIP3   OH228845   0.314   5.952   1.387
 2477TIP3    H128846   0.386   5.913   1.437
 2477TIP3    H228847   0.291   6.030   1.437
 2478TIP3   OH228848   2.500   1.376   0.939
 2478TIP3    H128849   2.527   1.434   1.010
 2478TIP3    H228850   2.422   1.333   0.972
 2479TIP3   OH228851   0.663   4.559   3.755
 2479TIP3    H128852   0.710   4.484   3.793
 2479TIP3    H228853   0.596   4.580   3.820
 2480TIP3   OH228854   5.559   4.077   5.121
 2480TIP3    H128855   5.603   4.075   5.207
 2480TIP3    H228856   5.627   4.052   5.059
 2481TIP3   OH228857   0.016   5.295  14.907
 2481TIP3    H128858   0.068   5.227  14.950
 2481TIP3    H228859   0.046   5.377  14.946
 2482TIP3   OH228860   0.031   5.814   1.291
 2482TIP3    H128861   0.103   5.838   1.233
 2482TIP3    H228862  -0.048   5.842   1.245
 2483TIP3   OH228863   0.990   0.638  14.706
 2483TIP3    H128864   0.911   0.685  14.731
 2483TIP3    H228865   1.032   0.615  14.789
 2484TIP3   OH228866   3.911   0.087   5.875
 2484TIP3    H128867   3.947   0.153   5.933
 2484TIP3    H228868   3.985   0.030   5.854
 2485TIP3   OH228869   5.090   2.434   5.763
 2485TIP3    H128870   5.067   2.526   5.754
 2485TIP3    H228871   5.069   2.413   5.854
 2486TIP3   OH228872   3.057   3.075  11.389
 2486TIP3    H128873   3.036   3.078  11.482
 2486TIP3    H228874   3.152   3.073  11.385
 2487TIP3   OH228875   1.673   5.496  14.134
 2487TIP3    H128876   1.636   5.576  14.098
 2487TIP3    H228877   1.607   5.429  14.116
 2488TIP3   OH228878   3.306   3.155   3.891
 2488TIP3    H128879   3.299   3.078   3.948
 2488TIP3    H228880   3.364   3.127   3.820
 2489TIP3   OH228881   6.254   4.756  11.033
 2489TIP3    H128882   6.329   4.703  11.006
 2489TIP3    H228883   6.284   4.800  11.113
 2490TIP3   OH228884   1.360   4.076   5.405
 2490TIP3    H128885   1.284   4.105   5.455
 2490TIP3    H228886   1.374   3.986   5.433
 2491TIP3   OH228887   6.679   4.086  13.130
 2491TIP3    H128888   6.588   4.066  13.151
 2491TIP3    H228889   6.708   4.012  13.077
 2492TIP3   OH228890   1.833   5.008   0.897
 2492TIP3    H128891   1.920   5.044   0.879
 2492TIP3    H228892   1.841   4.914   0.880
 2493TIP3   OH228893   2.299   2.782   5.051
 2493TIP3    H128894   2.237   2.765   4.981
 2493TIP3    H228895   2.326   2.873   5.037
 2494TIP3   OH228896   4.418   1.713  10.626
 2494TIP3    H128897   4.336   1.740  10.586
 2494TIP3    H228898   4.395   1.636  10.678
 2495TIP3   OH228899   2.383   1.421   3.600
 2495TIP3    H128900   2.406   1.453   3.513
 2495TIP3    H228901   2.408   1.328   3.599
 2496TIP3   OH228902   5.577   0.232   3.070
 2496TIP3    H128903   5.483   0.212   3.072
 2496TIP3    H228904   5.601   0.248   3.161
 2497TIP3   OH228905   3.489   3.500   0.979
 2497TIP3    H128906   3.414   3.554   0.955
 2497TIP3    H228907   3.558   3.562   1.000
 2498TIP3   OH228908   3.912   6.233  12.284
 2498TIP3    H128909   3.959   6.193  12.210
 2498TIP3    H228910   3.973   6.225  12.357
 2499TIP3   OH228911   0.446   2.993   3.058
 2499TIP3    H128912   0.402   2.947   3.130
 2499TIP3    H228913   0.496   3.062   3.102
 2500TIP3   OH228914   4.606   6.758   4.037
 2500TIP3    H128915   4.615   6.663   4.035
 2500TIP3    H228916   4.674   6.790   3.978
 2501TIP3   OH228917   1.124   6.045  11.739
 2501TIP3    H128918   1.197   6.006  11.690
 2501TIP3    H228919   1.092   5.975  11.795
 2502TIP3   OH228920   5.433   2.813  12.152
 2502TIP3    H128921   5.471   2.748  12.093
 2502TIP3    H228922   5.351   2.839  12.110
 2503TIP3   OH228923   6.137   2.006  16.121
 2503TIP3    H128924   6.113   2.052  16.040
 2503TIP3    H228925   6.227   2.031  16.137
 2504TIP3   OH228926   5.672   1.969   4.024
 2504TIP3    H128927   5.662   1.928   3.939
 2504TIP3    H228928   5.582   1.983   4.055
 2505TIP3   OH228929   1.200   3.714   3.419
 2505TIP3    H128930   1.227   3.776   3.352
 2505TIP3    H228931   1.277   3.707   3.476
 2506TIP3   OH228932   3.914   1.418   5.781
 2506TIP3    H128933   3.843   1.366   5.743
 2506TIP3    H228934   3.993   1.386   5.737
 2507TIP3   OH228935   3.244   1.853   6.010
 2507TIP3    H128936   3.279   1.831   5.924
 2507TIP3    H228937   3.160   1.808   6.015
 2508TIP3   OH228938   6.342   4.904   4.258
 2508TIP3    H128939   6.359   4.815   4.288
 2508TIP3    H228940   6.416   4.925   4.201
 2509TIP3   OH228941   2.023   3.218  13.385
 2509TIP3    H128942   2.021   3.234  13.290
 2509TIP3    H228943   2.111   3.246  13.412
 2510TIP3   OH228944   5.737   3.619  16.714
 2510TIP3    H128945   5.717   3.703  16.673
 2510TIP3    H228946   5.829   3.625  16.737
 2511TIP3   OH228947   2.293   4.018  16.309
 2511TIP3    H128948   2.296   4.021  16.213
 2511TIP3    H228949   2.213   4.066  16.332
 2512TIP3   OH228950   5.767   4.324  10.862
 2512TIP3    H128951   5.730   4.389  10.803
 2512TIP3    H228952   5.786   4.372  10.942
 2513TIP3   OH228953   6.446   6.624  11.151
 2513TIP3    H128954   6.386   6.580  11.092
 2513TIP3    H228955   6.532   6.613  11.111
 2514TIP3   OH228956   4.245   4.482  15.265
 2514TIP3    H128957   4.154   4.487  15.237
 2514TIP3    H228958   4.248   4.529  15.348
 2515TIP3   OH228959   4.555   1.966  10.520
 2515TIP3    H128960   4.491   1.938  10.455
 2515TIP3    H228961   4.592   1.885  10.554
 2516TIP3   OH228962   4.725   6.480  15.831
 2516TIP3    H128963   4.773   6.558  15.802
 2516TIP3    H228964   4.729   6.483  15.926
 2517TIP3   OH228965   4.947   5.183  17.239
 2517TIP3    H128966   4.871   5.131  17.215
 2517TIP3    H228967   4.929   5.210  17.330
 2518TIP3   OH228968   4.692   1.932  12.940
 2518TIP3    H128969   4.678   1.841  12.913
 2518TIP3    H228970   4.742   1.970  12.867
 2519TIP3   OH228971   3.998   0.411  16.373
 2519TIP3    H128972   3.941   0.423  16.448
 2519TIP3    H228973   3.942   0.372  16.306
 2520TIP3   OH228974   5.896   5.509  15.566
 2520TIP3    H128975   5.810   5.547  15.582
 2520TIP3    H228976   5.915   5.458  15.645
 2521TIP3   OH228977   2.395   6.784   3.225
 2521TIP3    H128978   2.456   6.828   3.283
 2521TIP3    H228979   2.450   6.745   3.157
 2522TIP3   OH228980   4.650   0.169  10.256
 2522TIP3    H128981   4.605   0.118  10.324
 2522TIP3    H228982   4.586   0.236  10.231
 2523TIP3   OH228983   6.606   6.045   0.270
 2523TIP3    H128984   6.608   6.128   0.318
 2523TIP3    H228985   6.553   6.064   0.192
 2524TIP3   OH228986   6.549   6.623  12.674
 2524TIP3    H128987   6.506   6.609  12.589
 2524TIP3    H228988   6.500   6.567  12.735
 2525TIP3   OH228989   5.616   2.149   4.763
 2525TIP3    H128990   5.579   2.074   4.809
 2525TIP3    H228991   5.620   2.218   4.829
 2526TIP3   OH228992   4.015   0.477  15.244
 2526TIP3    H128993   4.023   0.559  15.291
 2526TIP3    H228994   3.925   0.447  15.261
 2527TIP3   OH228995   2.014   0.931   2.079
 2527TIP3    H128996   1.920   0.941   2.069
 2527TIP3    H228997   2.041   1.007   2.131
 2528TIP3   OH228998   1.570   0.209  11.433
 2528TIP3    H128999   1.521   0.240  11.509
 2528TIP3    H229000   1.504   0.200  11.364
 2529TIP3   OH229001   1.169   1.670   1.545
 2529TIP3    H129002   1.083   1.645   1.511
 2529TIP3    H229003   1.194   1.597   1.603
 2530TIP3   OH229004   4.005   2.206   3.931
 2530TIP3    H129005   4.045   2.143   3.992
 2530TIP3    H229006   4.018   2.167   3.845
 2531TIP3   OH229007   5.545   6.080  16.147
 2531TIP3    H129008   5.506   5.993  16.152
 2531TIP3    H229009   5.474   6.139  16.171
 2532TIP3   OH229010   6.391   3.759   4.668
 2532TIP3    H129011   6.425   3.672   4.684
 2532TIP3    H229012   6.333   3.777   4.742
 2533TIP3   OH229013   4.823   4.551  12.281
 2533TIP3    H129014   4.885   4.583  12.215
 2533TIP3    H229015   4.839   4.607  12.357
 2534TIP3   OH229016   1.901   1.544   3.158
 2534TIP3    H129017   1.938   1.608   3.218
 2534TIP3    H229018   1.958   1.548   3.081
 2535TIP3   OH229019   0.962   1.527   4.049
 2535TIP3    H129020   0.986   1.550   3.959
 2535TIP3    H229021   0.945   1.433   4.046
 2536TIP3   OH229022   1.394   0.163   4.444
 2536TIP3    H129023   1.437   0.186   4.527
 2536TIP3    H229024   1.381   0.248   4.400
 2537TIP3   OH229025   4.585   4.518  10.603
 2537TIP3    H129026   4.550   4.521  10.692
 2537TIP3    H229027   4.615   4.607  10.586
 2538TIP3   OH229028   0.267   6.115  15.958
 2538TIP3    H129029   0.249   6.047  16.024
 2538TIP3    H229030   0.360   6.104  15.937
 2539TIP3   OH229031   2.887   0.864  12.479
 2539TIP3    H129032   2.956   0.870  12.412
 2539TIP3    H229033   2.924   0.910  12.555
 2540TIP3   OH229034   6.254   5.251  15.378
 2540TIP3    H129035   6.294   5.180  15.428
 2540TIP3    H229036   6.193   5.208  15.319
 2541TIP3   OH229037   6.125   0.434   1.296
 2541TIP3    H129038   6.171   0.409   1.217
 2541TIP3    H229039   6.180   0.501   1.337
 2542TIP3   OH229040   6.079   2.309   1.685
 2542TIP3    H129041   6.010   2.307   1.618
 2542TIP3    H229042   6.122   2.223   1.677
 2543TIP3   OH229043   5.386   5.066   0.151
 2543TIP3    H129044   5.459   5.066   0.089
 2543TIP3    H229045   5.309   5.085   0.098
 2544TIP3   OH229046   5.552   3.602   0.892
 2544TIP3    H129047   5.475   3.547   0.879
 2544TIP3    H229048   5.530   3.656   0.967
 2545TIP3   OH229049   6.018   0.064  11.943
 2545TIP3    H129050   6.067   0.115  12.007
 2545TIP3    H229051   5.973  -0.003  11.994
 2546TIP3   OH229052   5.979   1.486   2.821
 2546TIP3    H129053   6.000   1.551   2.753
 2546TIP3    H229054   6.036   1.509   2.894
 2547TIP3   OH229055   2.494   2.320  11.725
 2547TIP3    H129056   2.589   2.317  11.721
 2547TIP3    H229057   2.474   2.400  11.773
 2548TIP3   OH229058   0.052   1.036   0.869
 2548TIP3    H129059   0.139   1.034   0.828
 2548TIP3    H229060   0.006   0.962   0.829
 2549TIP3   OH229061   0.081   3.389   3.451
 2549TIP3    H129062   0.054   3.306   3.492
 2549TIP3    H229063   0.014   3.405   3.384
 2550TIP3   OH229064   3.354   1.293   1.862
 2550TIP3    H129065   3.274   1.242   1.861
 2550TIP3    H229066   3.334   1.367   1.920
 2551TIP3   OH229067   1.303   5.445  16.432
 2551TIP3    H129068   1.338   5.458  16.520
 2551TIP3    H229069   1.363   5.382  16.391
 2552TIP3   OH229070   3.830   4.911  13.829
 2552TIP3    H129071   3.854   4.944  13.742
 2552TIP3    H229072   3.906   4.861  13.857
 2553TIP3   OH229073   6.023   6.362  16.238
 2553TIP3    H129074   6.046   6.416  16.162
 2553TIP3    H229075   5.941   6.320  16.214
 2554TIP3   OH229076   3.074   3.181   5.809
 2554TIP3    H129077   3.013   3.201   5.737
 2554TIP3    H229078   3.112   3.265   5.833
 2555TIP3   OH229079   4.571   5.631  12.539
 2555TIP3    H129080   4.609   5.646  12.453
 2555TIP3    H229081   4.619   5.555  12.573
 2556TIP3   OH229082   5.264   0.680  14.549
 2556TIP3    H129083   5.258   0.687  14.645
 2556TIP3    H229084   5.329   0.610  14.535
 2557TIP3   OH229085   1.675   0.145   4.640
 2557TIP3    H129086   1.699   0.117   4.551
 2557TIP3    H229087   1.649   0.236   4.630
 2558TIP3   OH229088   3.115   0.626  13.381
 2558TIP3    H129089   3.199   0.588  13.355
 2558TIP3    H229090   3.053   0.596  13.315
 2559TIP3   OH229091   4.887   1.217   1.369
 2559TIP3    H129092   4.934   1.286   1.416
 2559TIP3    H229093   4.954   1.152   1.349
 2560TIP3   OH229094   2.116   0.123   0.468
 2560TIP3    H129095   2.180   0.158   0.531
 2560TIP3    H229096   2.102   0.033   0.496
 2561TIP3   OH229097   1.985   4.644  14.121
 2561TIP3    H129098   1.940   4.661  14.038
 2561TIP3    H229099   2.041   4.720  14.134
 2562TIP3   OH229100   3.180   4.354  13.727
 2562TIP3    H129101   3.095   4.309  13.726
 2562TIP3    H229102   3.161   4.439  13.767
 2563TIP3   OH229103   5.109   0.884  13.511
 2563TIP3    H129104   5.127   0.938  13.589
 2563TIP3    H229105   5.191   0.883  13.463
 2564TIP3   OH229106   1.524   2.469   5.259
 2564TIP3    H129107   1.604   2.447   5.211
 2564TIP3    H229108   1.527   2.414   5.338
 2565TIP3   OH229109   3.882   4.049   3.898
 2565TIP3    H129110   3.817   4.096   3.846
 2565TIP3    H229111   3.916   4.115   3.958
 2566TIP3   OH229112   1.804   2.058   0.143
 2566TIP3    H129113   1.711   2.062   0.164
 2566TIP3    H229114   1.834   1.975   0.181
 2567TIP3   OH229115   2.721   5.452   0.254
 2567TIP3    H129116   2.672   5.509   0.314
 2567TIP3    H229117   2.796   5.421   0.305
 2568TIP3   OH229118   1.889   1.637  15.326
 2568TIP3    H129119   1.971   1.663  15.368
 2568TIP3    H229120   1.866   1.554  15.369
 2569TIP3   OH229121   1.726   0.955  13.792
 2569TIP3    H129122   1.703   0.865  13.769
 2569TIP3    H229123   1.804   0.974  13.740
 2570TIP3   OH229124   4.348   1.818  16.685
 2570TIP3    H129125   4.258   1.788  16.673
 2570TIP3    H229126   4.367   1.869  16.606
 2571TIP3   OH229127   6.232   1.798   0.322
 2571TIP3    H129128   6.166   1.812   0.254
 2571TIP3    H229129   6.271   1.714   0.300
 2572TIP3   OH229130   6.184   0.340   5.051
 2572TIP3    H129131   6.190   0.249   5.078
 2572TIP3    H229132   6.090   0.356   5.043
 2573TIP3   OH229133   6.671   3.568  16.104
 2573TIP3    H129134   6.658   3.663  16.103
 2573TIP3    H229135   6.619   3.536  16.030
 2574TIP3   OH229136   0.779   5.432  13.259
 2574TIP3    H129137   0.719   5.498  13.295
 2574TIP3    H229138   0.732   5.349  13.268
 2575TIP3   OH229139   2.543   2.058   3.883
 2575TIP3    H129140   2.472   2.015   3.930
 2575TIP3    H229141   2.515   2.058   3.792
 2576TIP3   OH229142   2.655   3.728   1.661
 2576TIP3    H129143   2.578   3.734   1.718
 2576TIP3    H229144   2.726   3.764   1.714
 2577TIP3   OH229145   3.111   3.887   4.872
 2577TIP3    H129146   3.131   3.921   4.785
 2577TIP3    H229147   3.195   3.890   4.918
 2578TIP3   OH229148   2.199   3.168  13.954
 2578TIP3    H129149   2.138   3.155  14.026
 2578TIP3    H229150   2.275   3.115  13.977
 2579TIP3   OH229151   3.568   2.837  13.692
 2579TIP3    H129152   3.541   2.928  13.705
 2579TIP3    H229153   3.505   2.802  13.629
 2580TIP3   OH229154   6.336   1.524  16.229
 2580TIP3    H129155   6.344   1.573  16.148
 2580TIP3    H229156   6.316   1.590  16.295
 2581TIP3   OH229157   2.108   1.944  13.528
 2581TIP3    H129158   2.117   1.898  13.612
 2581TIP3    H229159   2.187   1.997  13.521
 2582TIP3   OH229160   4.463   2.511   3.745
 2582TIP3    H129161   4.496   2.519   3.655
 2582TIP3    H229162   4.384   2.458   3.738
 2583TIP3   OH229163   0.427   0.905   4.209
 2583TIP3    H129164   0.476   0.987   4.208
 2583TIP3    H229165   0.477   0.847   4.267
 2584TIP3   OH229166   2.097   1.352   1.622
 2584TIP3    H129167   2.081   1.276   1.566
 2584TIP3    H229168   2.066   1.324   1.708
 2585TIP3   OH229169   6.314   0.696   1.951
 2585TIP3    H129170   6.391   0.752   1.942
 2585TIP3    H229171   6.339   0.614   1.909
 2586TIP3   OH229172   4.699   3.883  13.382
 2586TIP3    H129173   4.710   3.976  13.364
 2586TIP3    H229174   4.655   3.880  13.467
 2587TIP3   OH229175   5.627   6.713   0.735
 2587TIP3    H129176   5.551   6.688   0.683
 2587TIP3    H229177   5.665   6.630   0.764
 2588TIP3   OH229178   0.775   0.082  10.984
 2588TIP3    H129179   0.804   0.108  11.072
 2588TIP3    H229180   0.764   0.164  10.937
 2589TIP3   OH229181   3.031   4.052  13.424
 2589TIP3    H129182   2.989   3.992  13.486
 2589TIP3    H229183   3.106   4.088  13.472
 2590TIP3   OH229184   3.298   3.358  15.486
 2590TIP3    H129185   3.390   3.331  15.477
 2590TIP3    H229186   3.263   3.354  15.398
 2591TIP3   OH229187   1.972   0.501   2.566
 2591TIP3    H129188   1.979   0.577   2.510
 2591TIP3    H229189   1.885   0.466   2.549
 2592TIP3   OH229190   2.521   2.674  11.260
 2592TIP3    H129191   2.608   2.696  11.226
 2592TIP3    H229192   2.488   2.608  11.199
 2593TIP3   OH229193   6.212   2.192   1.170
 2593TIP3    H129194   6.204   2.233   1.084
 2593TIP3    H229195   6.260   2.111   1.154
 2594TIP3   OH229196   0.102   1.917  12.536
 2594TIP3    H129197   0.014   1.880  12.533
 2594TIP3    H229198   0.095   2.001  12.492
 2595TIP3   OH229199   4.553   0.614   1.679
 2595TIP3    H129200   4.528   0.698   1.641
 2595TIP3    H229201   4.622   0.582   1.621
 2596TIP3   OH229202   1.572   1.724  12.959
 2596TIP3    H129203   1.516   1.655  12.997
 2596TIP3    H229204   1.512   1.778  12.908
 2597TIP3   OH229205   2.440   5.763  12.514
 2597TIP3    H129206   2.365   5.707  12.496
 2597TIP3    H229207   2.504   5.740  12.447
 2598TIP3   OH229208   5.593   3.749   0.234
 2598TIP3    H129209   5.535   3.825   0.235
 2598TIP3    H229210   5.615   3.734   0.326
 2599TIP3   OH229211   3.618   6.476  14.404
 2599TIP3    H129212   3.602   6.563  14.368
 2599TIP3    H229213   3.550   6.421  14.366
 2600TIP3   OH229214   3.569   1.320  16.139
 2600TIP3    H129215   3.515   1.279  16.206
 2600TIP3    H229216   3.593   1.249  16.080
 2601TIP3   OH229217   0.574   1.938   5.310
 2601TIP3    H129218   0.610   1.850   5.320
 2601TIP3    H229219   0.482   1.924   5.290
 2602TIP3   OH229220   6.219   2.431  14.179
 2602TIP3    H129221   6.259   2.440  14.265
 2602TIP3    H229222   6.210   2.521  14.147
 2603TIP3   OH229223   0.733   6.270   5.044
 2603TIP3    H129224   0.823   6.297   5.064
 2603TIP3    H229225   0.738   6.175   5.033
 2604TIP3   OH229226   3.318   1.901  12.598
 2604TIP3    H129227   3.256   1.848  12.550
 2604TIP3    H229228   3.399   1.849  12.599
 2605TIP3   OH229229   1.485   0.412   3.314
 2605TIP3    H129230   1.480   0.327   3.357
 2605TIP3    H229231   1.449   0.397   3.226
 2606TIP3   OH229232   3.162   1.561   3.067
 2606TIP3    H129233   3.110   1.640   3.082
 2606TIP3    H229234   3.190   1.568   2.976
 2607TIP3   OH229235   2.903   5.771  12.322
 2607TIP3    H129236   2.987   5.751  12.363
 2607TIP3    H229237   2.925   5.800  12.234
 2608TIP3   OH229238   3.579   2.160  15.223
 2608TIP3    H129239   3.488   2.168  15.195
 2608TIP3    H229240   3.617   2.097  15.161
 2609TIP3   OH229241   4.345   4.056   1.191
 2609TIP3    H129242   4.423   4.112   1.196
 2609TIP3    H229243   4.275   4.109   1.229
 2610TIP3   OH229244   1.019   2.756   4.021
 2610TIP3    H129245   0.985   2.843   4.045
 2610TIP3    H229246   0.983   2.741   3.933
 2611TIP3   OH229247   1.456   6.331   4.041
 2611TIP3    H129248   1.462   6.249   4.090
 2611TIP3    H229249   1.371   6.368   4.066
 2612TIP3   OH229250   1.315   2.402   3.087
 2612TIP3    H129251   1.315   2.463   3.013
 2612TIP3    H229252   1.406   2.401   3.116
 2613TIP3   OH229253   4.717   5.238   1.861
 2613TIP3    H129254   4.742   5.181   1.788
 2613TIP3    H229255   4.721   5.327   1.824
 2614TIP3   OH229256   3.733   4.267   3.803
 2614TIP3    H129257   3.780   4.332   3.750
 2614TIP3    H229258   3.701   4.316   3.878
 2615TIP3   OH229259   0.917   2.841  14.547
 2615TIP3    H129260   0.965   2.920  14.524
 2615TIP3    H229261   0.966   2.802  14.619
 2616TIP3   OH229262   3.387   5.768   0.316
 2616TIP3    H129263   3.445   5.722   0.256
 2616TIP3    H229264   3.299   5.749   0.283
 2617TIP3   OH229265   2.586   1.044   4.938
 2617TIP3    H129266   2.557   1.043   4.846
 2617TIP3    H229267   2.673   1.084   4.935
 2618TIP3   OH229268   2.578   0.835  14.697
 2618TIP3    H129269   2.635   0.911  14.709
 2618TIP3    H229270   2.491   0.871  14.685
 2619TIP3   OH229271   1.248   1.518  15.944
 2619TIP3    H129272   1.178   1.478  15.893
 2619TIP3    H229273   1.210   1.598  15.980
 2620TIP3   OH229274   0.425   4.750  16.302
 2620TIP3    H129275   0.508   4.714  16.273
 2620TIP3    H229276   0.393   4.800  16.227
 2621TIP3   OH229277   4.356   5.173  11.380
 2621TIP3    H129278   4.333   5.144  11.292
 2621TIP3    H229279   4.273   5.197  11.420
 2622TIP3   OH229280   2.722   6.597   5.473
 2622TIP3    H129281   2.774   6.676   5.455
 2622TIP3    H229282   2.643   6.630   5.514
 2623TIP3   OH229283   2.820   2.121  14.231
 2623TIP3    H129284   2.867   2.144  14.150
 2623TIP3    H229285   2.850   2.186  14.294
 2624TIP3   OH229286   4.927   2.222   1.347
 2624TIP3    H129287   4.946   2.306   1.304
 2624TIP3    H229288   4.998   2.165   1.318
 2625TIP3   OH229289   4.032   1.504  12.625
 2625TIP3    H129290   3.971   1.541  12.688
 2625TIP3    H229291   4.101   1.570  12.617
 2626TIP3   OH229292   1.880   0.183   4.828
 2626TIP3    H129293   1.823   0.188   4.751
 2626TIP3    H229294   1.963   0.221   4.799
 2627TIP3   OH229295   2.521   2.956   2.917
 2627TIP3    H129296   2.487   3.023   2.976
 2627TIP3    H229297   2.587   2.910   2.968
 2628TIP3   OH229298   4.889   6.145  14.779
 2628TIP3    H129299   4.902   6.220  14.722
 2628TIP3    H229300   4.794   6.138  14.790
 2629TIP3   OH229301   6.677   4.670  11.393
 2629TIP3    H129302   6.646   4.751  11.435
 2629TIP3    H229303   6.604   4.642  11.338
 2630TIP3   OH229304   2.879   6.025  14.124
 2630TIP3    H129305   2.936   5.980  14.062
 2630TIP3    H229306   2.938   6.065  14.188
 2631TIP3   OH229307   3.199   1.190   3.327
 2631TIP3    H129308   3.242   1.113   3.288
 2631TIP3    H229309   3.119   1.201   3.275
 2632TIP3   OH229310   1.472   2.706   4.756
 2632TIP3    H129311   1.549   2.649   4.746
 2632TIP3    H229312   1.398   2.646   4.752
 2633TIP3   OH229313   3.272   0.149  17.031
 2633TIP3    H129314   3.184   0.143  16.992
 2633TIP3    H229315   3.328   0.100  16.971
 2634TIP3   OH229316   5.486   0.070  16.095
 2634TIP3    H129317   5.430   0.147  16.086
 2634TIP3    H229318   5.432   0.006  16.141
 2635TIP3   OH229319   4.889   5.709  11.491
 2635TIP3    H129320   4.805   5.702  11.536
 2635TIP3    H229321   4.903   5.623  11.453
 2636TIP3   OH229322   3.765   4.649   2.788
 2636TIP3    H129323   3.736   4.630   2.877
 2636TIP3    H229324   3.860   4.634   2.789
 2637TIP3   OH229325   4.016   5.919  12.205
 2637TIP3    H129326   3.921   5.922  12.203
 2637TIP3    H229327   4.037   5.871  12.285
 2638TIP3   OH229328   1.997   2.411  12.946
 2638TIP3    H129329   1.958   2.344  13.003
 2638TIP3    H229330   1.929   2.478  12.938
 2639TIP3   OH229331   3.258   6.287  13.568
 2639TIP3    H129332   3.213   6.367  13.593
 2639TIP3    H229333   3.333   6.282  13.628
 2640TIP3   OH229334   3.279   0.218   1.821
 2640TIP3    H129335   3.361   0.253   1.788
 2640TIP3    H229336   3.249   0.159   1.752
 2641TIP3   OH229337   1.035   3.000  12.941
 2641TIP3    H129338   0.962   2.937  12.941
 2641TIP3    H229339   1.094   2.967  12.873
 2642TIP3   OH229340   1.837   1.332  10.768
 2642TIP3    H129341   1.898   1.406  10.767
 2642TIP3    H229342   1.887   1.259  10.733
 2643TIP3   OH229343   2.417   4.852   0.603
 2643TIP3    H129344   2.406   4.924   0.541
 2643TIP3    H229345   2.341   4.860   0.661
 2644TIP3   OH229346   1.631   2.085   1.887
 2644TIP3    H129347   1.646   2.179   1.874
 2644TIP3    H229348   1.613   2.076   1.980
 2645TIP3   OH229349   2.434   0.728  15.171
 2645TIP3    H129350   2.483   0.770  15.242
 2645TIP3    H229351   2.429   0.795  15.103
 2646TIP3   OH229352   2.749   6.422  13.225
 2646TIP3    H129353   2.784   6.431  13.136
 2646TIP3    H229354   2.660   6.389  13.213
 2647TIP3   OH229355   1.538   1.382   4.140
 2647TIP3    H129356   1.533   1.296   4.099
 2647TIP3    H229357   1.489   1.440   4.082
 2648TIP3   OH229358   6.525   3.417  11.453
 2648TIP3    H129359   6.504   3.456  11.368
 2648TIP3    H229360   6.440   3.392  11.490
 2649TIP3   OH229361   4.479   0.297   0.463
 2649TIP3    H129362   4.397   0.319   0.507
 2649TIP3    H229363   4.465   0.324   0.372
 2650TIP3   OH229364   3.081   2.568  13.918
 2650TIP3    H129365   3.110   2.527  13.836
 2650TIP3    H229366   3.007   2.624  13.891
 2651TIP3   OH229367   3.465   1.656  12.554
 2651TIP3    H129368   3.468   1.698  12.467
 2651TIP3    H229369   3.554   1.665  12.587
 2652TIP3   OH229370   4.076   0.002   2.049
 2652TIP3    H129371   4.005  -0.055   2.021
 2652TIP3    H229372   4.077   0.073   1.984
 2653TIP3   OH229373   3.346   4.873   5.337
 2653TIP3    H129374   3.351   4.778   5.340
 2653TIP3    H229375   3.341   4.900   5.429
 2654TIP3   OH229376   2.213   3.461  12.854
 2654TIP3    H129377   2.158   3.505  12.919
 2654TIP3    H229378   2.199   3.510  12.773
 2655TIP3   OH229379   1.737   3.351  11.044
 2655TIP3    H129380   1.798   3.422  11.064
 2655TIP3    H229381   1.707   3.369  10.955
 2656TIP3   OH229382   3.382   6.431  13.084
 2656TIP3    H129383   3.391   6.523  13.062
 2656TIP3    H229384   3.428   6.422  13.168
 2657TIP3   OH229385   1.625   3.782   0.325
 2657TIP3    H129386   1.575   3.837   0.265
 2657TIP3    H229387   1.673   3.844   0.380
 2658TIP3   OH229388   4.326   0.439  12.609
 2658TIP3    H129389   4.262   0.371  12.631
 2658TIP3    H229390   4.410   0.400  12.633
 2659TIP3   OH229391   1.704   1.096  11.237
 2659TIP3    H129392   1.694   1.008  11.199
 2659TIP3    H229393   1.722   1.153  11.162
 2660TIP3   OH229394   3.146   5.064  11.995
 2660TIP3    H129395   3.072   5.106  12.039
 2660TIP3    H229396   3.222   5.117  12.019
 2661TIP3   OH229397   3.943   4.336   1.145
 2661TIP3    H129398   3.949   4.328   1.241
 2661TIP3    H229399   4.031   4.358   1.117
 2662TIP3   OH229400   5.221   5.955  14.099
 2662TIP3    H129401   5.181   5.966  14.013
 2662TIP3    H229402   5.148   5.953  14.160
 2663TIP3   OH229403   4.590   1.701  16.509
 2663TIP3    H129404   4.608   1.700  16.603
 2663TIP3    H229405   4.565   1.611  16.488
 2664TIP3   OH229406   5.066   0.983  14.213
 2664TIP3    H129407   5.052   0.892  14.188
 2664TIP3    H229408   5.109   0.978  14.299
 2665TIP3   OH229409   5.699   4.684   3.576
 2665TIP3    H129410   5.662   4.644   3.655
 2665TIP3    H229411   5.788   4.708   3.601
 2666TIP3   OH229412   3.004   3.720   1.082
 2666TIP3    H129413   2.973   3.782   1.147
 2666TIP3    H229414   2.981   3.634   1.117
 2667TIP3   OH229415   0.473   5.835  16.886
 2667TIP3    H129416   0.481   5.908  16.948
 2667TIP3    H229417   0.563   5.813  16.864
 2668TIP3   OH229418   3.709   6.047  11.509
 2668TIP3    H129419   3.631   6.102  11.520
 2668TIP3    H229420   3.704   6.014  11.420
 2669TIP3   OH229421   6.273   5.363   6.252
 2669TIP3    H129422   6.294   5.415   6.174
 2669TIP3    H229423   6.214   5.294   6.220
 2670TIP3   OH229424   1.725   3.067  15.270
 2670TIP3    H129425   1.703   3.023  15.353
 2670TIP3    H229426   1.641   3.096  15.235
 2671TIP3   OH229427   6.103   3.555  11.557
 2671TIP3    H129428   6.011   3.580  11.557
 2671TIP3    H229429   6.134   3.576  11.469
 2672TIP3   OH229430   1.768   0.602  16.812
 2672TIP3    H129431   1.785   0.517  16.773
 2672TIP3    H229432   1.854   0.640  16.828
 2673TIP3   OH229433   1.123   6.085  14.780
 2673TIP3    H129434   1.074   6.006  14.803
 2673TIP3    H229435   1.111   6.143  14.855
 2674TIP3   OH229436   5.625   3.966   3.451
 2674TIP3    H129437   5.661   3.946   3.365
 2674TIP3    H229438   5.532   3.945   3.444
 2675TIP3   OH229439   0.300   0.244   5.074
 2675TIP3    H129440   0.298   0.202   4.988
 2675TIP3    H229441   0.393   0.262   5.089
 2676TIP3   OH229442   2.126   5.882   1.421
 2676TIP3    H129443   2.171   5.901   1.338
 2676TIP3    H229444   2.091   5.966   1.449
 2677TIP3   OH229445   6.544   6.074  15.916
 2677TIP3    H129446   6.527   6.066  15.822
 2677TIP3    H229447   6.558   6.168  15.930
 2678TIP3   OH229448   1.000   5.195  14.191
 2678TIP3    H129449   0.971   5.160  14.275
 2678TIP3    H229450   1.093   5.177  14.188
 2679TIP3   OH229451   1.018   5.351  16.674
 2679TIP3    H129452   0.955   5.309  16.733
 2679TIP3    H229453   1.034   5.437  16.712
 2680TIP3   OH229454   0.846   5.155  16.843
 2680TIP3    H129455   0.870   5.062  16.837
 2680TIP3    H229456   0.911   5.192  16.903
 2681TIP3   OH229457   0.112   1.342  16.794
 2681TIP3    H129458   0.201   1.307  16.785
 2681TIP3    H229459   0.108   1.375  16.883
 2682TIP3   OH229460   4.291   5.503  12.620
 2682TIP3    H129461   4.318   5.504  12.712
 2682TIP3    H229462   4.302   5.593  12.590
 2683TIP3   OH229463   3.940   3.115   6.924
 2683TIP3    H129464   3.845   3.106   6.935
 2683TIP3    H229465   3.951   3.203   6.887
 2684TIP3   OH229466   0.216   3.745   1.712
 2684TIP3    H129467   0.187   3.654   1.716
 2684TIP3    H229468   0.136   3.796   1.699
 2685TIP3   OH229469   4.186   6.543   5.306
 2685TIP3    H129470   4.193   6.450   5.328
 2685TIP3    H229471   4.159   6.585   5.388
 2686TIP3   OH229472   4.188   5.006  10.285
 2686TIP3    H129473   4.108   5.023  10.236
 2686TIP3    H229474   4.161   4.954  10.360
 2687TIP3   OH229475   0.824   5.391   1.055
 2687TIP3    H129476   0.875   5.468   1.031
 2687TIP3    H229477   0.890   5.327   1.084
 2688TIP3   OH229478   3.671   3.185  14.133
 2688TIP3    H129479   3.760   3.168  14.101
 2688TIP3    H229480   3.679   3.181  14.228
 2689TIP3   OH229481   5.895   3.900   2.826
 2689TIP3    H129482   5.851   3.822   2.857
 2689TIP3    H229483   5.938   3.872   2.744
 2690TIP3   OH229484   2.076   1.156   5.630
 2690TIP3    H129485   2.102   1.200   5.549
 2690TIP3    H229486   2.039   1.225   5.685
 2691TIP3   OH229487   1.558   2.993  14.866
 2691TIP3    H129488   1.532   2.941  14.942
 2691TIP3    H229489   1.550   2.933  14.792
 2692TIP3   OH229490   1.107   3.807  12.731
 2692TIP3    H129491   1.117   3.816  12.826
 2692TIP3    H229492   1.095   3.713  12.717
 2693TIP3   OH229493   2.539   6.466   3.660
 2693TIP3    H129494   2.472   6.463   3.592
 2693TIP3    H229495   2.503   6.524   3.727
 2694TIP3   OH229496   1.871   4.241  14.307
 2694TIP3    H129497   1.870   4.249  14.403
 2694TIP3    H229498   1.932   4.169  14.290
 2695TIP3   OH229499   0.219   2.382  16.715
 2695TIP3    H129500   0.240   2.329  16.638
 2695TIP3    H229501   0.292   2.369  16.775
 2696TIP3   OH229502   4.686   4.328   4.682
 2696TIP3    H129503   4.642   4.387   4.621
 2696TIP3    H229504   4.621   4.261   4.702
 2697TIP3   OH229505   1.709   5.587   2.198
 2697TIP3    H129506   1.801   5.603   2.174
 2697TIP3    H229507   1.670   5.674   2.202
 2698TIP3   OH229508   6.308   3.567   5.416
 2698TIP3    H129509   6.221   3.596   5.443
 2698TIP3    H229510   6.306   3.472   5.426
 2699TIP3   OH229511   3.441   3.292   1.158
 2699TIP3    H129512   3.525   3.248   1.169
 2699TIP3    H229513   3.461   3.372   1.108
 2700TIP3   OH229514   1.226   4.382   0.453
 2700TIP3    H129515   1.163   4.406   0.385
 2700TIP3    H229516   1.273   4.463   0.471
 2701TIP3   OH229517   3.012   5.569   2.797
 2701TIP3    H129518   2.986   5.642   2.853
 2701TIP3    H229519   3.003   5.491   2.852
 2702TIP3   OH229520   0.700   1.324  15.815
 2702TIP3    H129521   0.732   1.369  15.737
 2702TIP3    H229522   0.629   1.379  15.848
 2703TIP3   OH229523   4.019   1.330  13.021
 2703TIP3    H129524   4.055   1.242  13.034
 2703TIP3    H229525   3.934   1.327  13.064
 2704TIP3   OH229526   1.720   6.021  12.609
 2704TIP3    H129527   1.739   5.939  12.656
 2704TIP3    H229528   1.787   6.025  12.540
 2705TIP3   OH229529   1.310   5.794   3.166
 2705TIP3    H129530   1.287   5.737   3.093
 2705TIP3    H229531   1.370   5.741   3.219
 2706TIP3   OH229532   3.574   5.703   5.805
 2706TIP3    H129533   3.664   5.729   5.784
 2706TIP3    H229534   3.519   5.771   5.766
 2707TIP3   OH229535   3.807   0.514  16.530
 2707TIP3    H129536   3.793   0.556  16.445
 2707TIP3    H229537   3.828   0.587  16.589
 2708TIP3   OH229538   2.614   0.980   4.659
 2708TIP3    H129539   2.667   1.058   4.675
 2708TIP3    H229540   2.586   0.989   4.568
 2709TIP3   OH229541   5.597   2.637  11.994
 2709TIP3    H129542   5.645   2.558  12.019
 2709TIP3    H229543   5.579   2.625  11.901
 2710TIP3   OH229544   4.592   0.680  10.567
 2710TIP3    H129545   4.584   0.605  10.626
 2710TIP3    H229546   4.564   0.755  10.620
 2711TIP3   OH229547   2.525   3.017   4.473
 2711TIP3    H129548   2.525   3.095   4.528
 2711TIP3    H229549   2.601   2.967   4.502
 2712TIP3   OH229550   0.798   0.374   2.825
 2712TIP3    H129551   0.773   0.464   2.848
 2712TIP3    H229552   0.715   0.331   2.806
 2713TIP3   OH229553   2.019   1.676   4.019
 2713TIP3    H129554   2.033   1.750   3.960
 2713TIP3    H229555   2.107   1.647   4.043
 2714TIP3   OH229556   1.625   1.174   5.770
 2714TIP3    H129557   1.691   1.105   5.784
 2714TIP3    H229558   1.675   1.248   5.736
 2715TIP3   OH229559   0.334   4.852  16.956
 2715TIP3    H129560   0.302   4.782  16.900
 2715TIP3    H229561   0.284   4.843  17.037
 2716TIP3   OH229562   0.492   6.364   2.464
 2716TIP3    H129563   0.582   6.330   2.464
 2716TIP3    H229564   0.488   6.422   2.388
 2717TIP3   OH229565   2.894   3.838   1.780
 2717TIP3    H129566   2.921   3.903   1.846
 2717TIP3    H229567   2.977   3.804   1.745
 2718TIP3   OH229568   0.940   1.527  15.349
 2718TIP3    H129569   0.938   1.622  15.361
 2718TIP3    H229570   0.906   1.513  15.261
 2719TIP3   OH229571   2.720   1.380   5.144
 2719TIP3    H129572   2.649   1.428   5.185
 2719TIP3    H229573   2.727   1.416   5.056
 2720TIP3   OH229574   0.659   1.250   0.891
 2720TIP3    H129575   0.723   1.216   0.828
 2720TIP3    H229576   0.588   1.185   0.890
 2721TIP3   OH229577   3.393   4.134   6.748
 2721TIP3    H129578   3.353   4.213   6.714
 2721TIP3    H229579   3.366   4.065   6.687
 2722TIP3   OH229580   3.947   2.735   5.372
 2722TIP3    H129581   4.027   2.701   5.330
 2722TIP3    H229582   3.915   2.801   5.311
 2723TIP3   OH229583   3.769   3.990   4.883
 2723TIP3    H129584   3.837   4.008   4.948
 2723TIP3    H229585   3.765   3.894   4.879
 2724TIP3   OH229586   0.004   3.856  13.562
 2724TIP3    H129587  -0.080   3.845  13.517
 2724TIP3    H229588  -0.018   3.901  13.643
 2725TIP3   OH229589   1.686   3.073  13.381
 2725TIP3    H129590   1.730   3.005  13.328
 2725TIP3    H229591   1.681   3.149  13.323
 2726TIP3   OH229592   2.535   1.145  14.201
 2726TIP3    H129593   2.601   1.208  14.171
 2726TIP3    H229594   2.485   1.194  14.266
 2727TIP3   OH229595   5.714   0.515   5.307
 2727TIP3    H129596   5.626   0.504   5.343
 2727TIP3    H229597   5.767   0.450   5.353
 2728TIP3   OH229598   6.375   0.378   2.099
 2728TIP3    H129599   6.406   0.434   2.028
 2728TIP3    H229600   6.304   0.327   2.061
 2729TIP3   OH229601   4.257   6.059   3.072
 2729TIP3    H129602   4.246   6.058   2.977
 2729TIP3    H229603   4.176   6.020   3.106
 2730TIP3   OH229604   2.903   5.474  12.836
 2730TIP3    H129605   2.863   5.387  12.831
 2730TIP3    H229606   2.925   5.484  12.929
 2731TIP3   OH229607   2.623   0.736  12.519
 2731TIP3    H129608   2.623   0.640  12.525
 2731TIP3    H229609   2.714   0.761  12.533
 2732TIP3   OH229610   1.188   5.845   3.774
 2732TIP3    H129611   1.154   5.923   3.730
 2732TIP3    H229612   1.241   5.800   3.708
 2733TIP3   OH229613   6.594   3.973   1.904
 2733TIP3    H129614   6.595   3.891   1.953
 2733TIP3    H229615   6.683   4.007   1.912
 2734TIP3   OH229616   5.479   5.442   2.881
 2734TIP3    H129617   5.568   5.469   2.900
 2734TIP3    H229618   5.431   5.457   2.962
 2735TIP3   OH229619   4.705   6.096   4.189
 2735TIP3    H129620   4.779   6.122   4.135
 2735TIP3    H229621   4.718   6.141   4.272
 2736TIP3   OH229622   3.777   5.687  12.985
 2736TIP3    H129623   3.753   5.761  13.042
 2736TIP3    H229624   3.740   5.710  12.900
 2737TIP3   OH229625   0.780   2.070   2.404
 2737TIP3    H129626   0.777   1.982   2.366
 2737TIP3    H229627   0.735   2.061   2.488
 2738TIP3   OH229628   1.911   5.576  12.290
 2738TIP3    H129629   1.927   5.529  12.372
 2738TIP3    H229630   1.891   5.507  12.227
 2739TIP3   OH229631   0.281   4.680   2.352
 2739TIP3    H129632   0.241   4.719   2.430
 2739TIP3    H229633   0.257   4.738   2.281
 2740TIP3   OH229634   4.526   0.203   1.515
 2740TIP3    H129635   4.539   0.257   1.436
 2740TIP3    H229636   4.585   0.129   1.503
 2741TIP3   OH229637   2.983   2.145   4.241
 2741TIP3    H129638   2.945   2.204   4.177
 2741TIP3    H229639   2.911   2.124   4.300
 2742TIP3   OH229640   2.226   4.095  12.809
 2742TIP3    H129641   2.202   4.009  12.776
 2742TIP3    H229642   2.182   4.101  12.894
 2743TIP3   OH229643   2.820   1.670  14.426
 2743TIP3    H129644   2.809   1.755  14.469
 2743TIP3    H229645   2.739   1.622  14.445
 2744TIP3   OH229646   0.611   0.288   5.426
 2744TIP3    H129647   0.641   0.208   5.469
 2744TIP3    H229648   0.516   0.288   5.437
 2745TIP3   OH229649   0.622   0.965   5.854
 2745TIP3    H129650   0.575   0.967   5.937
 2745TIP3    H229651   0.661   0.878   5.850
 2746TIP3   OH229652   0.887   1.002  16.748
 2746TIP3    H129653   0.866   1.037  16.834
 2746TIP3    H229654   0.978   0.973  16.755
 2747TIP3   OH229655   1.224   0.866   4.900
 2747TIP3    H129656   1.175   0.785   4.887
 2747TIP3    H229657   1.307   0.839   4.938
 2748TIP3   OH229658   0.810   4.337   3.795
 2748TIP3    H129659   0.844   4.310   3.880
 2748TIP3    H229660   0.863   4.287   3.732
 2749TIP3   OH229661   1.339   3.080   5.328
 2749TIP3    H129662   1.378   2.999   5.293
 2749TIP3    H229663   1.245   3.066   5.321
 2750TIP3   OH229664   3.384   0.942  15.745
 2750TIP3    H129665   3.331   1.021  15.733
 2750TIP3    H229666   3.375   0.894  15.663
 2751TIP3   OH229667   6.241   3.549   0.483
 2751TIP3    H129668   6.196   3.633   0.480
 2751TIP3    H229669   6.313   3.558   0.421
 2752TIP3   OH229670   2.977   4.630   0.653
 2752TIP3    H129671   2.999   4.688   0.726
 2752TIP3    H229672   3.062   4.603   0.618
 2753TIP3   OH229673   5.754   5.684  11.476
 2753TIP3    H129674   5.837   5.655  11.513
 2753TIP3    H229675   5.696   5.694  11.552
 2754TIP3   OH229676   2.623   3.318  15.062
 2754TIP3    H129677   2.537   3.352  15.037
 2754TIP3    H229678   2.683   3.357  14.999
 2755TIP3   OH229679   5.318   3.789   5.643
 2755TIP3    H129680   5.339   3.876   5.676
 2755TIP3    H229681   5.235   3.766   5.685
 2756TIP3   OH229682   3.798   2.048   3.750
 2756TIP3    H129683   3.778   2.019   3.661
 2756TIP3    H229684   3.716   2.087   3.781
 2757TIP3   OH229685   4.826   2.795   3.636
 2757TIP3    H129686   4.795   2.852   3.706
 2757TIP3    H229687   4.921   2.801   3.640
 2758TIP3   OH229688   3.514   6.638  11.423
 2758TIP3    H129689   3.573   6.563  11.422
 2758TIP3    H229690   3.541   6.689  11.499
 2759TIP3   OH229691   3.982   5.486   2.156
 2759TIP3    H129692   3.909   5.512   2.100
 2759TIP3    H229693   3.970   5.392   2.168
 2760TIP3   OH229694   4.196   5.370   0.850
 2760TIP3    H129695   4.135   5.426   0.898
 2760TIP3    H229696   4.148   5.344   0.771
 2761TIP3   OH229697   3.166   0.783  16.114
 2761TIP3    H129698   3.238   0.721  16.131
 2761TIP3    H229699   3.115   0.782  16.195
 2762TIP3   OH229700   0.811   2.717  11.852
 2762TIP3    H129701   0.869   2.644  11.872
 2762TIP3    H229702   0.820   2.730  11.757
 2763TIP3   OH229703   1.201   3.796  13.573
 2763TIP3    H129704   1.167   3.886  13.577
 2763TIP3    H229705   1.153   3.757  13.500
 2764TIP3   OH229706   4.540   1.632   3.533
 2764TIP3    H129707   4.580   1.660   3.615
 2764TIP3    H229708   4.567   1.541   3.522
 2765TIP3   OH229709   2.094   6.681   2.828
 2765TIP3    H129710   2.029   6.637   2.882
 2765TIP3    H229711   2.161   6.711   2.890
 2766TIP3   OH229712   0.493   5.736   0.144
 2766TIP3    H129713   0.404   5.709   0.122
 2766TIP3    H229714   0.544   5.717   0.065
 2767TIP3   OH229715   6.131   3.765  13.924
 2767TIP3    H129716   6.159   3.746  13.834
 2767TIP3    H229717   6.073   3.840  13.916
 2768TIP3   OH229718   6.404   4.064  16.532
 2768TIP3    H129719   6.424   4.121  16.606
 2768TIP3    H229720   6.379   3.980  16.571
 2769TIP3   OH229721   3.464   5.972   6.262
 2769TIP3    H129722   3.467   5.935   6.350
 2769TIP3    H229723   3.468   6.067   6.276
 2770TIP3   OH229724   4.154   0.977  13.526
 2770TIP3    H129725   4.062   0.971  13.501
 2770TIP3    H229726   4.151   1.010  13.617
 2771TIP3   OH229727   5.306   6.557  14.326
 2771TIP3    H129728   5.312   6.491  14.257
 2771TIP3    H229729   5.334   6.638  14.284
 2772TIP3   OH229730   4.533   0.346  10.492
 2772TIP3    H129731   4.555   0.427  10.445
 2772TIP3    H229732   4.614   0.296  10.493
 2773TIP3   OH229733   3.301   2.645   1.623
 2773TIP3    H129734   3.372   2.683   1.571
 2773TIP3    H229735   3.345   2.602   1.696
 2774TIP3   OH229736   4.214   0.655   1.861
 2774TIP3    H129737   4.185   0.612   1.781
 2774TIP3    H229738   4.238   0.744   1.834
 2775TIP3   OH229739   3.993   2.763  15.937
 2775TIP3    H129740   3.913   2.814  15.946
 2775TIP3    H229741   3.966   2.680  15.898
 2776TIP3   OH229742   0.927   5.199  15.548
 2776TIP3    H129743   0.938   5.200  15.453
 2776TIP3    H229744   0.997   5.256  15.581
 2777TIP3   OH229745   4.028   1.267  11.863
 2777TIP3    H129746   4.012   1.359  11.885
 2777TIP3    H229747   4.058   1.228  11.946
 2778TIP3   OH229748   2.079   0.253   5.060
 2778TIP3    H129749   2.032   0.190   5.006
 2778TIP3    H229750   2.102   0.204   5.139
 2779TIP3   OH229751   6.208   2.433   6.448
 2779TIP3    H129752   6.188   2.367   6.381
 2779TIP3    H229753   6.172   2.514   6.413
 2780TIP3   OH229754   5.570   2.893   3.728
 2780TIP3    H129755   5.488   2.942   3.718
 2780TIP3    H229756   5.558   2.843   3.808
 2781TIP3   OH229757   6.726   4.886  13.588
 2781TIP3    H129758   6.633   4.866  13.596
 2781TIP3    H229759   6.768   4.800  13.576
 2782TIP3   OH229760   2.898   3.774  13.310
 2782TIP3    H129761   2.902   3.842  13.243
 2782TIP3    H229762   2.952   3.703  13.275
 2783TIP3   OH229763   6.043   4.184   3.821
 2783TIP3    H129764   6.059   4.267   3.866
 2783TIP3    H229765   6.024   4.208   3.731
 2784TIP3   OH229766   0.137   3.207  12.857
 2784TIP3    H129767   0.202   3.154  12.810
 2784TIP3    H229768   0.084   3.247  12.788
 2785TIP3   OH229769   0.874   4.336   0.084
 2785TIP3    H129770   0.965   4.339   0.056
 2785TIP3    H229771   0.828   4.396   0.025
 2786TIP3   OH229772   6.659   0.079  17.170
 2786TIP3    H129773   6.690   0.103  17.083
 2786TIP3    H229774   6.614   0.157  17.202
 2787TIP3   OH229775   1.173   0.505  11.334
 2787TIP3    H129776   1.184   0.570  11.403
 2787TIP3    H229777   1.136   0.428  11.378
 2788TIP3   OH229778   0.516   4.859  10.767
 2788TIP3    H129779   0.587   4.923  10.765
 2788TIP3    H229780   0.464   4.877  10.689
 2789TIP3   OH229781   0.904   5.748  14.131
 2789TIP3    H129782   0.884   5.834  14.167
 2789TIP3    H229783   0.819   5.708  14.114
 2790TIP3   OH229784   2.884   5.522   4.774
 2790TIP3    H129785   2.903   5.463   4.700
 2790TIP3    H229786   2.811   5.575   4.743
 2791TIP3   OH229787   2.822   6.365   4.979
 2791TIP3    H129788   2.797   6.449   5.019
 2791TIP3    H229789   2.782   6.367   4.892
 2792TIP3   OH229790   2.451   5.210  12.132
 2792TIP3    H129791   2.451   5.124  12.090
 2792TIP3    H229792   2.361   5.240  12.126
 2793TIP3   OH229793   4.328   1.630  11.873
 2793TIP3    H129794   4.407   1.602  11.919
 2793TIP3    H229795   4.256   1.599  11.928
 2794TIP3   OH229796   6.003   0.766   0.765
 2794TIP3    H129797   5.979   0.794   0.853
 2794TIP3    H229798   6.019   0.672   0.774
 2795TIP3   OH229799   3.554   0.680   3.142
 2795TIP3    H129800   3.641   0.711   3.170
 2795TIP3    H229801   3.534   0.733   3.065
 2796TIP3   OH229802   1.478   0.196  14.581
 2796TIP3    H129803   1.545   0.235  14.525
 2796TIP3    H229804   1.396   0.236  14.552
 2797TIP3   OH229805   6.333   3.908  12.221
 2797TIP3    H129806   6.395   3.860  12.276
 2797TIP3    H229807   6.353   3.881  12.132
 2798TIP3   OH229808   0.495   2.956  11.199
 2798TIP3    H129809   0.573   2.907  11.227
 2798TIP3    H229810   0.513   3.046  11.226
 2799TIP3   OH229811   2.234   4.417   4.358
 2799TIP3    H129812   2.215   4.386   4.447
 2799TIP3    H229813   2.330   4.425   4.356
 2800TIP3   OH229814   1.676   1.270   3.720
 2800TIP3    H129815   1.753   1.216   3.700
 2800TIP3    H229816   1.706   1.329   3.789
 2801TIP3   OH229817   0.609   4.687  14.153
 2801TIP3    H129818   0.637   4.666  14.242
 2801TIP3    H229819   0.529   4.739  14.165
 2802TIP3   OH229820   5.392   0.370   3.999
 2802TIP3    H129821   5.482   0.340   4.012
 2802TIP3    H229822   5.358   0.315   3.928
 2803TIP3   OH229823   3.671   6.178  13.864
 2803TIP3    H129824   3.644   6.092  13.831
 2803TIP3    H229825   3.615   6.192  13.941
 2804TIP3   OH229826   3.582   2.665   4.666
 2804TIP3    H129827   3.579   2.729   4.736
 2804TIP3    H229828   3.625   2.711   4.593
 2805TIP3   OH229829   6.206   2.227   0.888
 2805TIP3    H129830   6.185   2.138   0.863
 2805TIP3    H229831   6.274   2.254   0.827
 2806TIP3   OH229832   1.428   3.125  16.619
 2806TIP3    H129833   1.397   3.086  16.701
 2806TIP3    H229834   1.515   3.088  16.606
 2807TIP3   OH229835   1.418   2.113  17.236
 2807TIP3    H129836   1.334   2.069  17.249
 2807TIP3    H229837   1.478   2.070  17.297
 2808TIP3   OH229838   2.284   5.371   5.076
 2808TIP3    H129839   2.204   5.319   5.090
 2808TIP3    H229840   2.354   5.320   5.117
 2809TIP3   OH229841   1.018   3.974  16.393
 2809TIP3    H129842   0.970   4.028  16.455
 2809TIP3    H229843   1.104   4.015  16.386
 2810TIP3   OH229844   4.640   0.751  14.051
 2810TIP3    H129845   4.581   0.675  14.058
 2810TIP3    H229846   4.705   0.737  14.119
 2811TIP3   OH229847   0.872   3.846   2.777
 2811TIP3    H129848   0.836   3.916   2.723
 2811TIP3    H229849   0.940   3.806   2.723
 2812TIP3   OH229850   6.453   3.143   3.313
 2812TIP3    H129851   6.481   3.101   3.232
 2812TIP3    H229852   6.488   3.088   3.383
 2813TIP3   OH229853   5.859   4.519  13.174
 2813TIP3    H129854   5.819   4.575  13.108
 2813TIP3    H229855   5.803   4.442  13.178
 2814TIP3   OH229856   1.833   6.267   2.113
 2814TIP3    H129857   1.864   6.354   2.085
 2814TIP3    H229858   1.913   6.215   2.122
 2815TIP3   OH229859   4.697   5.472   3.434
 2815TIP3    H129860   4.761   5.441   3.498
 2815TIP3    H229861   4.650   5.393   3.408
 2816TIP3   OH229862   1.354   1.699  12.672
 2816TIP3    H129863   1.363   1.636  12.743
 2816TIP3    H229864   1.285   1.758  12.701
 2817TIP3   OH229865   3.242   1.122  13.730
 2817TIP3    H129866   3.174   1.064  13.764
 2817TIP3    H229867   3.194   1.196  13.693
 2818TIP3   OH229868   0.644   2.591  15.328
 2818TIP3    H129869   0.575   2.559  15.269
 2818TIP3    H229870   0.722   2.595  15.274
 2819TIP3   OH229871   1.967   2.751   1.838
 2819TIP3    H129872   2.035   2.770   1.774
 2819TIP3    H229873   1.924   2.835   1.854
 2820TIP3   OH229874   1.170   4.072  14.985
 2820TIP3    H129875   1.264   4.054  14.978
 2820TIP3    H229876   1.133   3.994  15.025
 2821TIP3   OH229877   2.658   5.207  16.228
 2821TIP3    H129878   2.591   5.273  16.246
 2821TIP3    H229879   2.638   5.135  16.287
 2822TIP3   OH229880   4.925   3.103  13.574
 2822TIP3    H129881   4.991   3.075  13.638
 2822TIP3    H229882   4.920   3.198  13.584
 2823TIP3   OH229883   3.025   3.459  12.083
 2823TIP3    H129884   3.009   3.502  11.999
 2823TIP3    H229885   3.119   3.466  12.096
 2824TIP3   OH229886   1.156   3.255  13.030
 2824TIP3    H129887   1.107   3.174  13.045
 2824TIP3    H229888   1.196   3.242  12.944
 2825TIP3   OH229889   0.439   2.841   1.309
 2825TIP3    H129890   0.404   2.901   1.243
 2825TIP3    H229891   0.415   2.880   1.393
 2826TIP3   OH229892   5.517   2.643  12.620
 2826TIP3    H129893   5.555   2.644  12.707
 2826TIP3    H229894   5.472   2.559  12.613
 2827TIP3   OH229895   0.090   4.249   4.529
 2827TIP3    H129896   0.106   4.343   4.538
 2827TIP3    H229897   0.066   4.237   4.437
 2828TIP3   OH229898   5.692   2.242   4.085
 2828TIP3    H129899   5.647   2.279   4.161
 2828TIP3    H229900   5.747   2.173   4.121
 2829TIP3   OH229901   4.988   3.775   2.366
 2829TIP3    H129902   4.923   3.846   2.366
 2829TIP3    H229903   5.002   3.756   2.459
 2830TIP3   OH229904   2.926   4.443  13.117
 2830TIP3    H129905   2.854   4.471  13.060
 2830TIP3    H229906   2.894   4.364  13.160
 2831TIP3   OH229907   5.618   3.463   3.977
 2831TIP3    H129908   5.667   3.529   4.026
 2831TIP3    H229909   5.655   3.379   4.005
 2832TIP3   OH229910   2.223   2.115   0.949
 2832TIP3    H129911   2.300   2.107   1.005
 2832TIP3    H229912   2.205   2.025   0.921
 2833TIP3   OH229913   4.727   0.201   3.170
 2833TIP3    H129914   4.710   0.245   3.253
 2833TIP3    H229915   4.752   0.271   3.110
 2834TIP3   OH229916   0.117   3.185   0.791
 2834TIP3    H129917   0.082   3.188   0.702
 2834TIP3    H229918   0.057   3.239   0.842
 2835TIP3   OH229919   1.102   1.480  13.114
 2835TIP3    H129920   1.091   1.570  13.146
 2835TIP3    H229921   1.116   1.428  13.193
 2836TIP3   OH229922   1.254   2.749  14.413
 2836TIP3    H129923   1.323   2.775  14.474
 2836TIP3    H229924   1.181   2.724  14.468
 2837TIP3   OH229925   5.807   2.680   5.729
 2837TIP3    H129926   5.892   2.638   5.717
 2837TIP3    H229927   5.818   2.735   5.807
 2838TIP3   OH229928   1.852   5.657   4.684
 2838TIP3    H129929   1.766   5.646   4.726
 2838TIP3    H229930   1.913   5.666   4.756
 2839TIP3   OH229931   3.021   1.648  13.141
 2839TIP3    H129932   3.065   1.713  13.195
 2839TIP3    H229933   3.086   1.578  13.130
 2840TIP3   OH229934   6.032   5.894  10.598
 2840TIP3    H129935   6.103   5.833  10.577
 2840TIP3    H229936   6.059   5.977  10.560
 2841TIP3   OH229937   3.205   0.150   3.962
 2841TIP3    H129938   3.142   0.203   4.011
 2841TIP3    H229939   3.198   0.182   3.872
 2842TIP3   OH229940   3.725   1.932  13.782
 2842TIP3    H129941   3.733   1.985  13.702
 2842TIP3    H229942   3.811   1.941  13.824
 2843TIP3   OH229943   0.718   5.460  15.734
 2843TIP3    H129944   0.689   5.549  15.755
 2843TIP3    H229945   0.720   5.415  15.819
 2844TIP3   OH229946   4.734   2.829  12.185
 2844TIP3    H129947   4.811   2.878  12.157
 2844TIP3    H229948   4.697   2.880  12.257
 2845TIP3   OH229949   2.066   4.636   2.239
 2845TIP3    H129950   2.127   4.709   2.248
 2845TIP3    H229951   1.979   4.675   2.252
 2846TIP3   OH229952   2.869   1.062   0.751
 2846TIP3    H129953   2.834   1.151   0.753
 2846TIP3    H229954   2.893   1.043   0.841
 2847TIP3   OH229955   3.143   0.980   3.588
 2847TIP3    H129956   3.197   1.043   3.636
 2847TIP3    H229957   3.070   0.963   3.647
 2848TIP3   OH229958   6.122   2.309   3.432
 2848TIP3    H129959   6.094   2.321   3.523
 2848TIP3    H229960   6.105   2.216   3.414
 2849TIP3   OH229961   4.268   2.384  13.918
 2849TIP3    H129962   4.193   2.368  13.976
 2849TIP3    H229963   4.335   2.324  13.950
 2850TIP3   OH229964   6.434   4.419   3.329
 2850TIP3    H129965   6.380   4.429   3.408
 2850TIP3    H229966   6.435   4.507   3.290
 2851TIP3   OH229967   4.194   1.969  11.873
 2851TIP3    H129968   4.246   2.033  11.824
 2851TIP3    H229969   4.119   2.019  11.906
 2852TIP3   OH229970   6.271   5.604   3.498
 2852TIP3    H129971   6.293   5.521   3.455
 2852TIP3    H229972   6.308   5.671   3.439
 2853TIP3   OH229973   5.445   3.982   2.404
 2853TIP3    H129974   5.391   3.965   2.327
 2853TIP3    H229975   5.422   4.071   2.431
 2854TIP3   OH229976   1.601   4.067  12.925
 2854TIP3    H129977   1.526   4.051  12.982
 2854TIP3    H229978   1.602   3.993  12.864
 2855TIP3   OH229979   5.801   5.892  15.207
 2855TIP3    H129980   5.775   5.903  15.116
 2855TIP3    H229981   5.775   5.802  15.229
 2856TIP3   OH229982   0.516   1.467  10.343
 2856TIP3    H129983   0.585   1.444  10.405
 2856TIP3    H229984   0.488   1.383  10.306
 2857TIP3   OH229985   5.510   5.357   4.717
 2857TIP3    H129986   5.485   5.310   4.796
 2857TIP3    H229987   5.589   5.406   4.743
 2858TIP3   OH229988   4.888   0.577  13.628
 2858TIP3    H129989   4.854   0.599  13.541
 2858TIP3    H229990   4.822   0.609  13.688
 2859TIP3   OH229991   1.637   6.015  15.616
 2859TIP3    H129992   1.717   6.056  15.585
 2859TIP3    H229993   1.586   6.086  15.654
 2860TIP3   OH229994   4.746   1.444   4.490
 2860TIP3    H129995   4.654   1.462   4.471
 2860TIP3    H229996   4.793   1.518   4.453
 2861TIP3   OH229997   4.688   2.252  13.351
 2861TIP3    H129998   4.599   2.286  13.339
 2861TIP3    H229999   4.727   2.256  13.264
 2862TIP3   OH230000   6.043   1.782   0.128
 2862TIP3    H130001   5.964   1.832   0.149
 2862TIP3    H230002   6.055   1.795   0.033
 2863TIP3   OH230003   3.629   6.276   3.419
 2863TIP3    H130004   3.546   6.239   3.449
 2863TIP3    H230005   3.635   6.361   3.462
 2864TIP3   OH230006   5.117   0.960  11.957
 2864TIP3    H130007   5.153   0.874  11.936
 2864TIP3    H230008   5.071   0.948  12.040
 2865TIP3   OH230009   0.488   2.563  16.383
 2865TIP3    H130010   0.478   2.481  16.334
 2865TIP3    H230011   0.464   2.631  16.321
 2866TIP3   OH230012   3.257   2.676   3.793
 2866TIP3    H130013   3.291   2.602   3.844
 2866TIP3    H230014   3.219   2.735   3.859
 2867TIP3   OH230015   3.451   3.178   0.292
 2867TIP3    H130016   3.461   3.207   0.201
 2867TIP3    H230017   3.444   3.259   0.342
 2868TIP3   OH230018   5.835   4.746   1.525
 2868TIP3    H130019   5.931   4.740   1.521
 2868TIP3    H230020   5.804   4.685   1.458
 2869TIP3   OH230021   6.159   3.812  11.648
 2869TIP3    H130022   6.243   3.841  11.612
 2869TIP3    H230023   6.154   3.719  11.625
 2870TIP3   OH230024   5.013   5.062  12.750
 2870TIP3    H130025   5.036   5.026  12.836
 2870TIP3    H230026   4.942   5.007  12.719
 2871TIP3   OH230027   1.317   5.859  17.027
 2871TIP3    H130028   1.380   5.865  16.954
 2871TIP3    H230029   1.368   5.821  17.099
 2872TIP3   OH230030   2.951   0.145   2.539
 2872TIP3    H130031   3.028   0.172   2.589
 2872TIP3    H230032   2.987   0.100   2.463
 2873TIP3   OH230033   2.250   0.333  12.129
 2873TIP3    H130034   2.154   0.335  12.124
 2873TIP3    H230035   2.276   0.425  12.129
 2874TIP3   OH230036   2.704   6.420  14.410
 2874TIP3    H130037   2.735   6.369  14.485
 2874TIP3    H230038   2.649   6.488  14.449
 2875TIP3   OH230039   5.103   1.471   5.280
 2875TIP3    H130040   5.102   1.540   5.346
 2875TIP3    H230041   5.011   1.461   5.256
 2876TIP3   OH230042   0.224   6.503  11.643
 2876TIP3    H130043   0.147   6.549  11.612
 2876TIP3    H230044   0.267   6.470  11.564
 2877TIP3   OH230045   4.096   1.224   5.324
 2877TIP3    H130046   4.186   1.209   5.297
 2877TIP3    H230047   4.043   1.193   5.250
 2878TIP3   OH230048   5.705   4.449  13.825
 2878TIP3    H130049   5.610   4.451  13.809
 2878TIP3    H230050   5.714   4.478  13.916
 2879TIP3   OH230051   6.772   2.108   0.580
 2879TIP3    H130052   6.766   2.104   0.484
 2879TIP3    H230053   6.752   2.199   0.602
 2880TIP3   OH230054   3.089   2.408  11.551
 2880TIP3    H130055   3.099   2.341  11.483
 2880TIP3    H230056   3.091   2.491  11.504
 2881TIP3   OH230057   5.564   6.647   0.327
 2881TIP3    H130058   5.505   6.577   0.301
 2881TIP3    H230059   5.564   6.644   0.423
 2882TIP3   OH230060   4.670   0.603  16.447
 2882TIP3    H130061   4.611   0.533  16.419
 2882TIP3    H230062   4.613   0.679  16.457
 2883TIP3   OH230063   1.403   2.360  13.410
 2883TIP3    H130064   1.427   2.401  13.493
 2883TIP3    H230065   1.307   2.357  13.411
 2884TIP3   OH230066   0.273   2.077  12.715
 2884TIP3    H130067   0.188   2.106  12.750
 2884TIP3    H230068   0.251   2.003  12.659
 2885TIP3   OH230069   4.267   3.064   5.029
 2885TIP3    H130070   4.179   3.084   5.061
 2885TIP3    H230071   4.284   3.131   4.962
 2886TIP3   OH230072   0.898   3.280  16.964
 2886TIP3    H130073   0.848   3.232  17.029
 2886TIP3    H230074   0.980   3.231  16.955
 2887TIP3   OH230075   2.515   3.913   5.532
 2887TIP3    H130076   2.457   3.930   5.458
 2887TIP3    H230077   2.601   3.900   5.494
 2888TIP3   OH230078   3.766   1.565  13.980
 2888TIP3    H130079   3.782   1.640  14.037
 2888TIP3    H230080   3.689   1.589  13.929
 2889TIP3   OH230081   4.460   6.339   5.785
 2889TIP3    H130082   4.408   6.279   5.839
 2889TIP3    H230083   4.396   6.386   5.732
 2890TIP3   OH230084   5.505   6.281   3.183
 2890TIP3    H130085   5.459   6.310   3.262
 2890TIP3    H230086   5.551   6.359   3.152
 2891TIP3   OH230087   5.074   3.084  11.130
 2891TIP3    H130088   5.024   3.008  11.159
 2891TIP3    H230089   5.136   3.100  11.202
 2892TIP3   OH230090   5.605   4.103   0.086
 2892TIP3    H130091   5.638   4.162   0.019
 2892TIP3    H230092   5.673   4.036   0.095
 2893TIP3   OH230093   3.375   3.354  14.710
 2893TIP3    H130094   3.464   3.320  14.700
 2893TIP3    H230095   3.387   3.440  14.751
 2894TIP3   OH230096   6.222   2.817   2.698
 2894TIP3    H130097   6.144   2.865   2.728
 2894TIP3    H230098   6.284   2.886   2.674
 2895TIP3   OH230099   3.314   5.745   1.230
 2895TIP3    H130100   3.396   5.699   1.244
 2895TIP3    H230101   3.291   5.726   1.139
 2896TIP3   OH230102   2.765   2.903  15.320
 2896TIP3    H130103   2.679   2.936  15.348
 2896TIP3    H230104   2.783   2.951  15.239
 2897TIP3   OH230105   2.799   6.059  13.836
 2897TIP3    H130106   2.840   6.037  13.753
 2897TIP3    H230107   2.856   6.126  13.874
 2898TIP3   OH230108   3.461   5.027  16.042
 2898TIP3    H130109   3.444   5.111  16.000
 2898TIP3    H230110   3.467   5.047  16.135
 2899TIP3   OH230111   1.404   2.203  15.733
 2899TIP3    H130112   1.365   2.119  15.756
 2899TIP3    H230113   1.384   2.213  15.640
 2900TIP3   OH230114   4.802   5.572  14.962
 2900TIP3    H130115   4.789   5.534  14.875
 2900TIP3    H230116   4.726   5.543  15.012
 2901TIP3   OH230117   3.195   2.083   0.521
 2901TIP3    H130118   3.145   2.115   0.596
 2901TIP3    H230119   3.147   2.006   0.491
 2902TIP3   OH230120   2.205   2.559  12.221
 2902TIP3    H130121   2.117   2.594  12.208
 2902TIP3    H230122   2.258   2.636  12.243
 2903TIP3   OH230123   3.607   3.398   2.840
 2903TIP3    H130124   3.544   3.346   2.890
 2903TIP3    H230125   3.555   3.469   2.804
 2904TIP3   OH230126   6.618   5.927   4.553
 2904TIP3    H130127   6.705   5.933   4.592
 2904TIP3    H230128   6.559   5.968   4.618
 2905TIP3   OH230129   0.514   3.652   6.018
 2905TIP3    H130130   0.525   3.699   6.100
 2905TIP3    H230131   0.603   3.624   5.995
 2906TIP3   OH230132   2.329   6.428  14.377
 2906TIP3    H130133   2.273   6.451  14.451
 2906TIP3    H230134   2.362   6.341  14.397
 2907TIP3   OH230135   6.137   5.337   1.698
 2907TIP3    H130136   6.067   5.319   1.635
 2907TIP3    H230137   6.153   5.431   1.691
 2908TIP3   OH230138   3.526   5.605  16.506
 2908TIP3    H130139   3.560   5.681  16.553
 2908TIP3    H230140   3.444   5.584  16.552
 2909TIP3   OH230141   0.319   2.187  16.535
 2909TIP3    H130142   0.228   2.198  16.506
 2909TIP3    H230143   0.323   2.099  16.571
 2910TIP3   OH230144   1.507   2.312   2.696
 2910TIP3    H130145   1.476   2.223   2.713
 2910TIP3    H230146   1.436   2.352   2.645
 2911TIP3   OH230147   1.540   1.285   1.289
 2911TIP3    H130148   1.513   1.210   1.236
 2911TIP3    H230149   1.632   1.300   1.267
 2912TIP3   OH230150   3.080   6.307   4.062
 2912TIP3    H130151   3.004   6.331   4.115
 2912TIP3    H230152   3.069   6.354   3.980
 2913TIP3   OH230153   1.727   3.870  16.046
 2913TIP3    H130154   1.636   3.886  16.020
 2913TIP3    H230155   1.776   3.870  15.964
 2914TIP3   OH230156   5.676   0.549  15.053
 2914TIP3    H130157   5.766   0.575  15.035
 2914TIP3    H230158   5.648   0.505  14.972
 2915TIP3   OH230159   4.438   2.088   4.525
 2915TIP3    H130160   4.439   2.087   4.429
 2915TIP3    H230161   4.354   2.127   4.548
 2916TIP3   OH230162   3.174   3.059  14.074
 2916TIP3    H130163   3.268   3.048  14.058
 2916TIP3    H230164   3.141   2.970  14.086
 2917TIP3   OH230165   6.500   0.063   5.085
 2917TIP3    H130166   6.479   0.154   5.106
 2917TIP3    H230167   6.562   0.036   5.153
 2918TIP3   OH230168   4.171   3.322   5.586
 2918TIP3    H130169   4.254   3.359   5.613
 2918TIP3    H230170   4.106   3.365   5.641
 2919TIP3   OH230171   0.556   5.985   3.534
 2919TIP3    H130172   0.558   5.900   3.577
 2919TIP3    H230173   0.644   5.996   3.498
 2920TIP3   OH230174   3.381   6.152  13.118
 2920TIP3    H130175   3.397   6.246  13.119
 2920TIP3    H230176   3.302   6.140  13.171
 2921TIP3   OH230177   5.643   1.567  14.919
 2921TIP3    H130178   5.668   1.584  15.009
 2921TIP3    H230179   5.677   1.479  14.900
 2922TIP3   OH230180   6.485   6.074   1.834
 2922TIP3    H130181   6.444   6.157   1.812
 2922TIP3    H230182   6.527   6.089   1.918
 2923TIP3   OH230183   3.829   2.385   4.292
 2923TIP3    H130184   3.774   2.308   4.302
 2923TIP3    H230185   3.841   2.418   4.382
 2924TIP3   OH230186   1.236   0.973   4.016
 2924TIP3    H130187   1.330   0.955   4.017
 2924TIP3    H230188   1.204   0.924   3.940
 2925TIP3   OH230189   6.500   0.252   2.668
 2925TIP3    H130190   6.458   0.329   2.630
 2925TIP3    H230191   6.427   0.195   2.693
 2926TIP3   OH230192   1.086   2.476   2.142
 2926TIP3    H130193   1.041   2.406   2.096
 2926TIP3    H230194   1.018   2.517   2.195
 2927TIP3   OH230195   6.002   4.776  16.759
 2927TIP3    H130196   5.965   4.711  16.700
 2927TIP3    H230197   5.955   4.857  16.739
 2928TIP3   OH230198   3.484   2.364   4.198
 2928TIP3    H130199   3.514   2.345   4.287
 2928TIP3    H230200   3.491   2.459   4.191
 2929TIP3   OH230201   5.622   3.272  13.908
 2929TIP3    H130202   5.652   3.246  13.821
 2929TIP3    H230203   5.667   3.212  13.968
 2930TIP3   OH230204   1.235   4.192   0.825
 2930TIP3    H130205   1.270   4.182   0.737
 2930TIP3    H230206   1.214   4.285   0.832
 2931TIP3   OH230207   3.021   3.740  15.122
 2931TIP3    H130208   2.956   3.810  15.111
 2931TIP3    H230209   2.968   3.660  15.126
 2932TIP3   OH230210   6.584   5.689  15.442
 2932TIP3    H130211   6.653   5.622  15.444
 2932TIP3    H230212   6.598   5.739  15.522
 2933TIP3   OH230213   1.836   0.988   1.708
 2933TIP3    H130214   1.862   1.062   1.763
 2933TIP3    H230215   1.918   0.958   1.668
 2934TIP3   OH230216   5.814   1.746   2.883
 2934TIP3    H130217   5.863   1.733   2.802
 2934TIP3    H230218   5.723   1.729   2.860
 2935TIP3   OH230219   0.329   3.292   1.428
 2935TIP3    H130220   0.401   3.352   1.408
 2935TIP3    H230221   0.281   3.284   1.346
 2936TIP3   OH230222   6.425   4.921   5.329
 2936TIP3    H130223   6.387   4.835   5.310
 2936TIP3    H230224   6.517   4.903   5.348
 2937TIP3   OH230225   6.376   2.658  14.002
 2937TIP3    H130226   6.431   2.732  14.027
 2937TIP3    H230227   6.418   2.621  13.924
 2938TIP3   OH230228   2.239   1.865  14.214
 2938TIP3    H130229   2.157   1.890  14.257
 2938TIP3    H230230   2.217   1.784  14.167
 2939TIP3   OH230231   5.983   5.205   1.478
 2939TIP3    H130232   6.047   5.181   1.411
 2939TIP3    H230233   5.970   5.299   1.466
 2940TIP3   OH230234   0.408   4.419  12.922
 2940TIP3    H130235   0.363   4.483  12.867
 2940TIP3    H230236   0.337   4.379  12.973
 2941TIP3   OH230237   2.827   2.480   6.070
 2941TIP3    H130238   2.858   2.553   6.017
 2941TIP3    H230239   2.820   2.515   6.159
 2942TIP3   OH230240   3.799   2.412  14.006
 2942TIP3    H130241   3.745   2.457  14.071
 2942TIP3    H230242   3.792   2.466  13.927
 2943TIP3   OH230243   3.694   0.511  13.674
 2943TIP3    H130244   3.634   0.458  13.727
 2943TIP3    H230245   3.708   0.591  13.725
 2944TIP3   OH230246   5.643   2.377  16.735
 2944TIP3    H130247   5.559   2.373  16.691
 2944TIP3    H230248   5.708   2.379  16.664
 2945TIP3   OH230249   4.176   3.179  11.787
 2945TIP3    H130250   4.217   3.193  11.873
 2945TIP3    H230251   4.175   3.265  11.747
 2946TIP3   OH230252   0.905   2.774   5.314
 2946TIP3    H130253   0.842   2.800   5.247
 2946TIP3    H230254   0.851   2.728   5.379
 2947TIP3   OH230255   1.976   3.044  15.553
 2947TIP3    H130256   2.065   3.076  15.564
 2947TIP3    H230257   1.926   3.121  15.525
 2948TIP3   OH230258   0.023   6.634   1.681
 2948TIP3    H130259   0.094   6.684   1.721
 2948TIP3    H230260  -0.056   6.662   1.728
 2949TIP3   OH230261   0.013   3.172  10.899
 2949TIP3    H130262  -0.008   3.087  10.861
 2949TIP3    H230263   0.073   3.213  10.836
 2950TIP3   OH230264   5.331   1.288  17.096
 2950TIP3    H130265   5.308   1.270  17.187
 2950TIP3    H230266   5.254   1.259  17.046
 2951TIP3   OH230267   4.514   2.320   5.504
 2951TIP3    H130268   4.564   2.393   5.467
 2951TIP3    H230269   4.555   2.242   5.467
 2952TIP3   OH230270   2.234   6.146  12.288
 2952TIP3    H130271   2.239   6.140  12.383
 2952TIP3    H230272   2.146   6.116  12.267
 2953TIP3   OH230273   1.291   3.682   5.070
 2953TIP3    H130274   1.321   3.769   5.043
 2953TIP3    H230275   1.346   3.661   5.146
 2954TIP3   OH230276   5.992   3.033  16.837
 2954TIP3    H130277   5.968   2.978  16.762
 2954TIP3    H230278   5.913   3.082  16.857
 2955TIP3   OH230279   5.904   0.562   1.439
 2955TIP3    H130280   5.970   0.519   1.385
 2955TIP3    H230281   5.943   0.563   1.527
 2956TIP3   OH230282   5.698   0.992   0.287
 2956TIP3    H130283   5.736   0.924   0.342
 2956TIP3    H230284   5.771   1.026   0.236
 2957TIP3   OH230285   1.403   4.447   1.908
 2957TIP3    H130286   1.377   4.498   1.984
 2957TIP3    H230287   1.469   4.501   1.865
 2958TIP3   OH230288   0.881   3.158  13.813
 2958TIP3    H130289   0.817   3.211  13.766
 2958TIP3    H230290   0.965   3.202  13.797
 2959TIP3   OH230291   4.754   3.622   5.470
 2959TIP3    H130292   4.799   3.537   5.464
 2959TIP3    H230293   4.805   3.680   5.413
 2960TIP3   OH230294   2.577   2.016   0.894
 2960TIP3    H130295   2.659   2.056   0.923
 2960TIP3    H230296   2.526   2.005   0.974
 2961TIP3   OH230297   4.835   6.743   0.083
 2961TIP3    H130298   4.748   6.728   0.118
 2961TIP3    H230299   4.821   6.768  -0.008
 2962TIP3   OH230300   6.365   1.628   3.597
 2962TIP3    H130301   6.315   1.565   3.650
 2962TIP3    H230302   6.306   1.702   3.586
 2963TIP3   OH230303   3.338   6.201  12.155
 2963TIP3    H130304   3.247   6.171  12.153
 2963TIP3    H230305   3.382   6.148  12.088
 2964TIP3   OH230306   3.940   4.435  16.617
 2964TIP3    H130307   3.902   4.497  16.554
 2964TIP3    H230308   3.982   4.368  16.563
 2965TIP3   OH230309   2.260   0.361   5.381
 2965TIP3    H130310   2.338   0.308   5.369
 2965TIP3    H230311   2.188   0.298   5.387
 2966TIP3   OH230312   5.261   4.796  10.340
 2966TIP3    H130313   5.232   4.704  10.337
 2966TIP3    H230314   5.185   4.844  10.372
 2967TIP3   OH230315   0.621   2.275   1.438
 2967TIP3    H130316   0.577   2.313   1.514
 2967TIP3    H230317   0.714   2.294   1.452
 2968TIP3   OH230318   2.830   5.461  15.322
 2968TIP3    H130319   2.789   5.535  15.366
 2968TIP3    H230320   2.865   5.408  15.394
 2969TIP3   OH230321   2.928   6.664   3.619
 2969TIP3    H130322   2.882   6.649   3.537
 2969TIP3    H230323   2.859   6.662   3.686
 2970TIP3   OH230324   0.344   2.868  11.759
 2970TIP3    H130325   0.265   2.837  11.803
 2970TIP3    H230326   0.414   2.817  11.799
 2971TIP3   OH230327   4.978   3.396  15.049
 2971TIP3    H130328   4.933   3.467  15.095
 2971TIP3    H230329   5.071   3.410  15.068
 2972TIP3   OH230330   4.125   6.105  16.838
 2972TIP3    H130331   4.064   6.173  16.866
 2972TIP3    H230332   4.199   6.114  16.898
 2973TIP3   OH230333   2.070   5.761  14.970
 2973TIP3    H130334   1.987   5.807  14.959
 2973TIP3    H230335   2.136   5.830  14.966
 2974TIP3   OH230336   1.206   3.249  14.721
 2974TIP3    H130337   1.272   3.211  14.779
 2974TIP3    H230338   1.227   3.343  14.720
 2975TIP3   OH230339   0.378   4.736  13.541
 2975TIP3    H130340   0.417   4.709  13.458
 2975TIP3    H230341   0.404   4.669  13.604
 2976TIP3   OH230342   0.991   5.648  16.072
 2976TIP3    H130343   0.942   5.679  16.148
 2976TIP3    H230344   1.029   5.564  16.100
 2977TIP3   OH230345   5.935   6.646   3.478
 2977TIP3    H130346   5.987   6.664   3.400
 2977TIP3    H230347   5.849   6.621   3.445
 2978TIP3   OH230348   0.179   2.151  14.490
 2978TIP3    H130349   0.200   2.187  14.403
 2978TIP3    H230350   0.084   2.142  14.489
 2979TIP3   OH230351   1.219   4.440   2.781
 2979TIP3    H130352   1.282   4.483   2.722
 2979TIP3    H230353   1.272   4.382   2.834
 2980TIP3   OH230354   3.134   1.824   2.879
 2980TIP3    H130355   3.221   1.819   2.838
 2980TIP3    H230356   3.115   1.918   2.883
 2981TIP3   OH230357   5.199   5.898   3.327
 2981TIP3    H130358   5.174   5.957   3.397
 2981TIP3    H230359   5.281   5.934   3.293
 2982TIP3   OH230360   5.574   4.644  14.086
 2982TIP3    H130361   5.519   4.570  14.062
 2982TIP3    H230362   5.535   4.677  14.167
 2983TIP3   OH230363   4.259   4.123  13.582
 2983TIP3    H130364   4.186   4.110  13.521
 2983TIP3    H230365   4.217   4.133  13.667
 2984TIP3   OH230366   0.421   6.089   0.366
 2984TIP3    H130367   0.391   6.019   0.423
 2984TIP3    H230368   0.369   6.080   0.286
 2985TIP3   OH230369   6.604   6.140  11.978
 2985TIP3    H130370   6.659   6.089  12.037
 2985TIP3    H230371   6.652   6.223  11.968
 2986TIP3   OH230372   6.752   2.590  12.911
 2986TIP3    H130373   6.722   2.514  12.862
 2986TIP3    H230374   6.785   2.555  12.993
 2987TIP3   OH230375   1.202   0.954  14.797
 2987TIP3    H130376   1.113   0.953  14.833
 2987TIP3    H230377   1.190   0.931  14.705
 2988TIP3   OH230378   1.238   1.990   4.742
 2988TIP3    H130379   1.148   1.959   4.753
 2988TIP3    H230380   1.231   2.086   4.742
 2989TIP3   OH230381   1.108   1.625   2.305
 2989TIP3    H130382   1.164   1.692   2.265
 2989TIP3    H230383   1.167   1.577   2.363
 2990TIP3   OH230384   4.393   0.699  16.423
 2990TIP3    H130385   4.355   0.752  16.492
 2990TIP3    H230386   4.331   0.627  16.410
 2991TIP3   OH230387   5.085   3.455   2.620
 2991TIP3    H130388   5.169   3.414   2.639
 2991TIP3    H230389   5.025   3.419   2.686
 2992TIP3   OH230390   2.610   2.191   0.101
 2992TIP3    H130391   2.683   2.246   0.074
 2992TIP3    H230392   2.641   2.148   0.181
 2993TIP3   OH230393   5.403   6.411  13.291
 2993TIP3    H130394   5.331   6.428  13.351
 2993TIP3    H230395   5.467   6.362  13.343
 2994TIP3   OH230396   5.352   4.632  15.014
 2994TIP3    H130397   5.339   4.622  14.920
 2994TIP3    H230398   5.297   4.564  15.053
 2995TIP3   OH230399   5.502   2.224   0.411
 2995TIP3    H130400   5.569   2.241   0.344
 2995TIP3    H230401   5.456   2.308   0.420
 2996TIP3   OH230402   6.238   5.043  11.482
 2996TIP3    H130403   6.316   5.067  11.532
 2996TIP3    H230404   6.207   5.125  11.445
 2997TIP3   OH230405   1.766   0.521  12.078
 2997TIP3    H130406   1.692   0.521  12.139
 2997TIP3    H230407   1.802   0.610  12.084
 2998TIP3   OH230408   4.421   4.835  16.218
 2998TIP3    H130409   4.510   4.818  16.250
 2998TIP3    H230410   4.395   4.915  16.262
 2999TIP3   OH230411   1.940   5.330  14.268
 2999TIP3    H130412   1.901   5.363  14.187
 2999TIP3    H230413   1.895   5.379  14.337
 3000TIP3   OH230414   5.557   5.612  16.554
 3000TIP3    H130415   5.506   5.620  16.474
 3000TIP3    H230416   5.648   5.608  16.525
 3001TIP3   OH230417   4.904   3.166  14.681
 3001TIP3    H130418   4.902   3.172  14.776
 3001TIP3    H230419   4.988   3.124  14.661
 3002TIP3   OH230420   0.732   1.708   1.390
 3002TIP3    H130421   0.704   1.790   1.351
 3002TIP3    H230422   0.653   1.653   1.391
 3003TIP3   OH230423   5.347   3.010   5.232
 3003TIP3    H130424   5.396   2.931   5.208
 3003TIP3    H230425   5.414   3.077   5.242
 3004TIP3   OH230426   6.485   2.200   5.695
 3004TIP3    H130427   6.575   2.173   5.675
 3004TIP3    H230428   6.479   2.290   5.661
 3005TIP3   OH230429   0.718   0.706  13.633
 3005TIP3    H130430   0.799   0.757  13.633
 3005TIP3    H230431   0.722   0.656  13.551
 3006TIP3   OH230432   0.806   4.073   1.727
 3006TIP3    H130433   0.894   4.085   1.763
 3006TIP3    H230434   0.754   4.144   1.764
 3007TIP3   OH230435   2.850   5.294  17.236
 3007TIP3    H130436   2.807   5.226  17.184
 3007TIP3    H230437   2.778   5.340  17.280
 3008TIP3   OH230438   5.426   1.160  12.653
 3008TIP3    H130439   5.386   1.141  12.568
 3008TIP3    H230440   5.416   1.255  12.663
 3009TIP3   OH230441   1.395   2.284  16.436
 3009TIP3    H130442   1.470   2.343  16.450
 3009TIP3    H230443   1.318   2.342  16.442
 3010TIP3   OH230444   0.383   3.241   2.829
 3010TIP3    H130445   0.356   3.240   2.737
 3010TIP3    H230446   0.360   3.329   2.860
 3011TIP3   OH230447   1.399   4.592  16.992
 3011TIP3    H130448   1.441   4.608  16.907
 3011TIP3    H230449   1.390   4.497  16.996
 3012TIP3   OH230450   5.803   6.548   0.217
 3012TIP3    H130451   5.722   6.576   0.259
 3012TIP3    H230452   5.866   6.617   0.236
 3013TIP3   OH230453   2.887   1.523   4.438
 3013TIP3    H130454   2.973   1.542   4.400
 3013TIP3    H230455   2.849   1.458   4.380
 3014TIP3   OH230456   2.784   0.476  15.060
 3014TIP3    H130457   2.806   0.557  15.015
 3014TIP3    H230458   2.690   0.465  15.046
 3015TIP3   OH230459   0.330   5.450   3.060
 3015TIP3    H130460   0.308   5.404   2.979
 3015TIP3    H230461   0.246   5.486   3.090
 3016TIP3   OH230462   2.564   3.397  13.077
 3016TIP3    H130463   2.588   3.405  12.985
 3016TIP3    H230464   2.559   3.487  13.109
 3017TIP3   OH230465   5.035   0.253   4.576
 3017TIP3    H130466   4.966   0.291   4.522
 3017TIP3    H230467   5.116   0.281   4.534
 3018TIP3   OH230468   4.114   5.093   3.600
 3018TIP3    H130469   4.082   5.011   3.637
 3018TIP3    H230470   4.133   5.148   3.676
 3019TIP3   OH230471   1.653   4.735  15.078
 3019TIP3    H130472   1.570   4.778  15.099
 3019TIP3    H230473   1.710   4.755  15.153
 3020TIP3   OH230474   1.970   2.965  11.044
 3020TIP3    H130475   2.019   2.976  11.125
 3020TIP3    H230476   1.908   2.894  11.062
 3021TIP3   OH230477   6.114   2.588   3.871
 3021TIP3    H130478   6.164   2.663   3.902
 3021TIP3    H230479   6.053   2.568   3.942
 3022TIP3   OH230480   4.681   2.360  12.907
 3022TIP3    H130481   4.615   2.419  12.871
 3022TIP3    H230482   4.637   2.276  12.916
 3023TIP3   OH230483   6.140   0.672  16.988
 3023TIP3    H130484   6.124   0.744  17.048
 3023TIP3    H230485   6.152   0.595  17.044
 3024TIP3   OH230486   3.622   1.001   3.906
 3024TIP3    H130487   3.676   0.966   3.977
 3024TIP3    H230488   3.595   1.087   3.937
 3025TIP3   OH230489   5.648   0.979   3.286
 3025TIP3    H130490   5.660   1.001   3.378
 3025TIP3    H230491   5.703   0.902   3.272
 3026TIP3   OH230492   3.105   2.440   4.776
 3026TIP3    H130493   3.196   2.452   4.802
 3026TIP3    H230494   3.097   2.345   4.762
 3027TIP3   OH230495   0.681   1.400  13.545
 3027TIP3    H130496   0.716   1.334  13.485
 3027TIP3    H230497   0.598   1.364  13.575
 3028TIP3   OH230498   0.217   5.118  10.851
 3028TIP3    H130499   0.287   5.120  10.916
 3028TIP3    H230500   0.261   5.137  10.768
 3029TIP3   OH230501   0.772   0.909  14.149
 3029TIP3    H130502   0.714   0.837  14.127
 3029TIP3    H230503   0.760   0.972  14.078
 3030TIP3   OH230504   2.543   5.566   0.845
 3030TIP3    H130505   2.455   5.534   0.862
 3030TIP3    H230506   2.601   5.502   0.885
 3031TIP3   OH230507   5.129   2.835  14.740
 3031TIP3    H130508   5.082   2.753  14.723
 3031TIP3    H230509   5.120   2.885  14.659
 3032TIP3   OH230510   4.610   5.215   3.372
 3032TIP3    H130511   4.690   5.172   3.403
 3032TIP3    H230512   4.539   5.160   3.406
 3033TIP3   OH230513   0.621   0.323  12.267
 3033TIP3    H130514   0.692   0.388  12.270
 3033TIP3    H230515   0.578   0.339  12.183
 3034TIP3   OH230516   0.783   6.151  13.158
 3034TIP3    H130517   0.848   6.170  13.226
 3034TIP3    H230518   0.790   6.057  13.144
 3035TIP3   OH230519   0.257   5.217  10.551
 3035TIP3    H130520   0.292   5.299  10.586
 3035TIP3    H230521   0.243   5.236  10.458
 3036TIP3   OH230522   4.221   2.978  16.762
 3036TIP3    H130523   4.158   3.006  16.828
 3036TIP3    H230524   4.298   2.950  16.811
 3037TIP3   OH230525   2.468   6.299  13.680
 3037TIP3    H130526   2.412   6.235  13.724
 3037TIP3    H230527   2.540   6.248  13.644
 3038TIP3   OH230528   3.559   2.098  14.023
 3038TIP3    H130529   3.652   2.081  14.008
 3038TIP3    H230530   3.533   2.155  13.951
 3039TIP3   OH230531   4.933   5.405  14.371
 3039TIP3    H130532   4.886   5.439  14.295
 3039TIP3    H230533   4.939   5.480  14.431
 3040TIP3   OH230534   4.380   0.402  12.215
 3040TIP3    H130535   4.389   0.412  12.310
 3040TIP3    H230536   4.384   0.492  12.181
 3041TIP3   OH230537   1.488   3.621   3.239
 3041TIP3    H130538   1.498   3.569   3.158
 3041TIP3    H230539   1.415   3.579   3.285
 3042TIP3   OH230540   5.187   1.984   6.236
 3042TIP3    H130541   5.105   1.951   6.199
 3042TIP3    H230542   5.200   2.068   6.193
 3043TIP3   OH230543   1.985   5.572   3.135
 3043TIP3    H130544   1.902   5.526   3.148
 3043TIP3    H230545   2.002   5.614   3.219
 3044TIP3   OH230546   4.358   6.215   0.295
 3044TIP3    H130547   4.408   6.140   0.262
 3044TIP3    H230548   4.363   6.206   0.390
 3045TIP3   OH230549   5.317   6.058   5.241
 3045TIP3    H130550   5.263   6.135   5.225
 3045TIP3    H230551   5.336   6.024   5.153
 3046TIP3   OH230552   2.155   2.589   4.159
 3046TIP3    H130553   2.087   2.574   4.093
 3046TIP3    H230554   2.237   2.570   4.113
 3047TIP3   OH230555   4.456   3.175   3.587
 3047TIP3    H130556   4.489   3.210   3.504
 3047TIP3    H230557   4.514   3.102   3.608
 3048TIP3   OH230558   3.486   3.856   0.663
 3048TIP3    H130559   3.412   3.795   0.660
 3048TIP3    H230560   3.542   3.829   0.591
 3049TIP3   OH230561   3.560   0.006   6.462
 3049TIP3    H130562   3.567  -0.077   6.508
 3049TIP3    H230563   3.642   0.014   6.413
 3050TIP3   OH230564   0.832   0.495  12.242
 3050TIP3    H130565   0.882   0.439  12.183
 3050TIP3    H230566   0.840   0.583  12.205
 3051TIP3   OH230567   2.872   2.880   5.447
 3051TIP3    H130568   2.912   2.966   5.456
 3051TIP3    H230569   2.829   2.865   5.531
 3052TIP3   OH230570   0.315   0.312  14.829
 3052TIP3    H130571   0.302   0.323  14.735
 3052TIP3    H230572   0.235   0.269  14.859
 3053TIP3   OH230573   4.572   3.541   4.783
 3053TIP3    H130574   4.586   3.461   4.731
 3053TIP3    H230575   4.565   3.611   4.717
 3054TIP3   OH230576   2.986   1.883  13.521
 3054TIP3    H130577   2.971   1.862  13.429
 3054TIP3    H230578   2.899   1.891  13.560
 3055TIP3   OH230579   3.928   5.777   3.914
 3055TIP3    H130580   3.845   5.740   3.944
 3055TIP3    H230581   3.903   5.850   3.857
 3056TIP3   OH230582   2.614   5.263  13.357
 3056TIP3    H130583   2.542   5.205  13.334
 3056TIP3    H230584   2.582   5.311  13.434
 3057TIP3   OH230585   3.351   4.224   1.576
 3057TIP3    H130586   3.381   4.147   1.528
 3057TIP3    H230587   3.293   4.189   1.644
 3058TIP3   OH230588   2.241   4.866  16.286
 3058TIP3    H130589   2.301   4.845  16.214
 3058TIP3    H230590   2.171   4.917  16.245
 3059TIP3   OH230591   5.740   3.849   1.737
 3059TIP3    H130592   5.706   3.832   1.649
 3059TIP3    H230593   5.829   3.813   1.735
 3060TIP3   OH230594   0.630   0.674  15.667
 3060TIP3    H130595   0.622   0.756  15.620
 3060TIP3    H230596   0.600   0.607  15.605
 3061TIP3   OH230597   6.666   1.683  12.421
 3061TIP3    H130598   6.683   1.618  12.489
 3061TIP3    H230599   6.605   1.745  12.461
 3062TIP3   OH230600   4.609   5.527  16.596
 3062TIP3    H130601   4.526   5.555  16.634
 3062TIP3    H230602   4.633   5.449  16.646
 3063TIP3   OH230603   3.405   5.126  14.994
 3063TIP3    H130604   3.329   5.070  15.011
 3063TIP3    H230605   3.470   5.097  15.058
 3064TIP3   OH230606   3.364   1.805  15.942
 3064TIP3    H130607   3.387   1.833  16.031
 3064TIP3    H230608   3.445   1.767  15.908
 3065TIP3   OH230609   1.879   1.268   3.161
 3065TIP3    H130610   1.904   1.358   3.181
 3065TIP3    H230611   1.951   1.215   3.195
 3066TIP3   OH230612   2.361   1.514  12.822
 3066TIP3    H130613   2.446   1.517  12.779
 3066TIP3    H230614   2.374   1.457  12.898
 3067TIP3   OH230615   0.706   5.984  14.139
 3067TIP3    H130616   0.626   5.932  14.144
 3067TIP3    H230617   0.684   6.054  14.077
 3068TIP3   OH230618   0.416   2.389   3.592
 3068TIP3    H130619   0.382   2.356   3.676
 3068TIP3    H230620   0.342   2.437   3.554
 3069TIP3   OH230621   5.741   3.833  14.965
 3069TIP3    H130622   5.730   3.865  14.876
 3069TIP3    H230623   5.723   3.739  14.960
 3070TIP3   OH230624   5.660   1.988   6.167
 3070TIP3    H130625   5.701   1.968   6.251
 3070TIP3    H230626   5.566   1.982   6.183
 3071TIP3   OH230627   5.693   6.121  12.030
 3071TIP3    H130628   5.745   6.200  12.016
 3071TIP3    H230629   5.610   6.139  11.987
 3072TIP3   OH230630   5.823   0.531  15.283
 3072TIP3    H130631   5.745   0.528  15.228
 3072TIP3    H230632   5.795   0.495  15.367
 3073TIP3   OH230633   3.364   0.993   0.573
 3073TIP3    H130634   3.383   0.944   0.654
 3073TIP3    H230635   3.283   1.039   0.592
 3074TIP3   OH230636   3.970   5.934  14.023
 3074TIP3    H130637   3.932   5.901  14.104
 3074TIP3    H230638   4.007   6.019  14.046
 3075TIP3   OH230639   2.016   1.507  11.843
 3075TIP3    H130640   2.080   1.468  11.784
 3075TIP3    H230641   2.050   1.595  11.860
 3076TIP3   OH230642   2.584   5.514   0.515
 3076TIP3    H130643   2.501   5.472   0.537
 3076TIP3    H230644   2.645   5.484   0.582
 3077TIP3   OH230645   3.172   2.928  12.525
 3077TIP3    H130646   3.132   2.995  12.469
 3077TIP3    H230647   3.253   2.968  12.557
 3078TIP3   OH230648   5.559   4.985   1.935
 3078TIP3    H130649   5.553   5.077   1.960
 3078TIP3    H230650   5.630   4.982   1.871
 3079TIP3   OH230651   3.948   4.969   0.283
 3079TIP3    H130652   3.967   4.892   0.229
 3079TIP3    H230653   3.970   5.043   0.227
 3080TIP3   OH230654   2.522   6.074   6.004
 3080TIP3    H130655   2.476   6.022   6.070
 3080TIP3    H230656   2.492   6.040   5.920
 3081TIP3   OH230657   6.769   4.867   3.619
 3081TIP3    H130658   6.817   4.881   3.538
 3081TIP3    H230659   6.688   4.824   3.592
 3082TIP3   OH230660   6.385   2.052   6.491
 3082TIP3    H130661   6.331   2.064   6.413
 3082TIP3    H230662   6.459   1.998   6.462
 3083TIP3   OH230663   3.007   0.547  16.067
 3083TIP3    H130664   3.038   0.631  16.101
 3083TIP3    H230665   2.912   0.549  16.081
 3084TIP3   OH230666   0.817   4.414   5.990
 3084TIP3    H130667   0.811   4.401   6.085
 3084TIP3    H230668   0.740   4.370   5.954
 3085TIP3   OH230669   0.273   3.178  12.211
 3085TIP3    H130670   0.262   3.216  12.298
 3085TIP3    H230671   0.261   3.084  12.224
 3086TIP3   OH230672   5.802   4.472  11.818
 3086TIP3    H130673   5.751   4.551  11.834
 3086TIP3    H230674   5.850   4.457  11.900
 3087TIP3   OH230675   1.438   0.864  14.372
 3087TIP3    H130676   1.488   0.876  14.291
 3087TIP3    H230677   1.372   0.799  14.351
 3088TIP3   OH230678   0.831   0.352   0.756
 3088TIP3    H130679   0.882   0.400   0.691
 3088TIP3    H230680   0.757   0.316   0.707
 3089TIP3   OH230681   2.656   2.697  11.865
 3089TIP3    H130682   2.570   2.658  11.846
 3089TIP3    H230683   2.664   2.768  11.801
 3090TIP3   OH230684   2.992   4.754   5.116
 3090TIP3    H130685   3.069   4.809   5.129
 3090TIP3    H230686   3.018   4.668   5.148
 3091TIP3   OH230687   2.719   1.791   5.076
 3091TIP3    H130688   2.696   1.876   5.113
 3091TIP3    H230689   2.773   1.813   5.000
 3092TIP3   OH230690   2.062   5.808   0.301
 3092TIP3    H130691   2.110   5.869   0.244
 3092TIP3    H230692   2.005   5.759   0.242
 3093TIP3   OH230693   2.462   3.877  11.498
 3093TIP3    H130694   2.504   3.962  11.512
 3093TIP3    H230695   2.479   3.828  11.578
 3094TIP3   OH230696   2.410   0.713  13.271
 3094TIP3    H130697   2.428   0.792  13.220
 3094TIP3    H230698   2.408   0.743  13.362
 3095TIP3   OH230699   3.567   5.108  11.365
 3095TIP3    H130700   3.486   5.111  11.415
 3095TIP3    H230701   3.539   5.097  11.274
 3096TIP3   OH230702   3.557   4.690   4.584
 3096TIP3    H130703   3.580   4.599   4.603
 3096TIP3    H230704   3.640   4.732   4.562
 3097TIP3   OH230705   2.769   2.825  15.011
 3097TIP3    H130706   2.768   2.745  15.064
 3097TIP3    H230707   2.730   2.891  15.068
 3098TIP3   OH230708   3.623   4.114   2.036
 3098TIP3    H130709   3.589   4.156   2.114
 3098TIP3    H230710   3.551   4.060   2.005
 3099TIP3   OH230711   5.140   2.361   4.041
 3099TIP3    H130712   5.133   2.456   4.032
 3099TIP3    H230713   5.233   2.345   4.056
 3100TIP3   OH230714   5.752   6.475  13.229
 3100TIP3    H130715   5.664   6.438  13.240
 3100TIP3    H230716   5.805   6.433  13.297
 3101TIP3   OH230717   4.444   4.177  12.892
 3101TIP3    H130718   4.361   4.137  12.868
 3101TIP3    H230719   4.477   4.123  12.964
 3102TIP3   OH230720   5.144   4.688   0.745
 3102TIP3    H130721   5.141   4.769   0.797
 3102TIP3    H230722   5.232   4.688   0.707
 3103TIP3   OH230723   6.068   5.140   2.472
 3103TIP3    H130724   6.100   5.118   2.385
 3103TIP3    H230725   5.993   5.083   2.486
 3104TIP3   OH230726   1.533   4.339  15.357
 3104TIP3    H130727   1.504   4.413  15.410
 3104TIP3    H230728   1.595   4.292  15.414
 3105TIP3   OH230729   5.320   3.192  13.932
 3105TIP3    H130730   5.361   3.256  13.990
 3105TIP3    H230731   5.341   3.222  13.844
 3106TIP3   OH230732   4.500   0.921   3.654
 3106TIP3    H130733   4.493   1.016   3.659
 3106TIP3    H230734   4.430   0.888   3.710
 3107TIP3   OH230735   2.485   2.899  16.162
 3107TIP3    H130736   2.428   2.961  16.207
 3107TIP3    H230737   2.489   2.932  16.072
 3108TIP3   OH230738   0.029   1.372  15.178
 3108TIP3    H130739  -0.050   1.318  15.178
 3108TIP3    H230740   0.008   1.445  15.236
 3109TIP3   OH230741   6.515   2.345  14.085
 3109TIP3    H130742   6.468   2.414  14.037
 3109TIP3    H230743   6.607   2.359  14.064
 3110TIP3   OH230744   5.899   2.215  13.281
 3110TIP3    H130745   5.840   2.239  13.352
 3110TIP3    H230746   5.891   2.285  13.217
 3111TIP3   OH230747   0.166   1.658  13.650
 3111TIP3    H130748   0.153   1.729  13.712
 3111TIP3    H230749   0.096   1.669  13.585
 3112TIP3   OH230750   5.282   0.776   0.374
 3112TIP3    H130751   5.263   0.811   0.461
 3112TIP3    H230752   5.200   0.784   0.326
 3113TIP3   OH230753   4.093   5.627   3.301
 3113TIP3    H130754   4.038   5.549   3.288
 3113TIP3    H230755   4.172   5.609   3.249
 3114TIP3   OH230756   0.182   6.685  13.415
 3114TIP3    H130757   0.115   6.704  13.480
 3114TIP3    H230758   0.231   6.768  13.406
 3115TIP3   OH230759   2.063   0.921  12.740
 3115TIP3    H130760   2.072   1.014  12.760
 3115TIP3    H230761   2.105   0.910  12.655
 3116TIP3   OH230762   2.332   4.177  16.701
 3116TIP3    H130763   2.328   4.267  16.668
 3116TIP3    H230764   2.394   4.133  16.644
 3117TIP3   OH230765   4.218   4.229   3.649
 3117TIP3    H130766   4.181   4.279   3.576
 3117TIP3    H230767   4.211   4.137   3.621
 3118TIP3   OH230768   3.121   6.406  14.916
 3118TIP3    H130769   3.146   6.491  14.881
 3118TIP3    H230770   3.199   6.351  14.904
 3119TIP3   OH230771   5.919   4.621  14.518
 3119TIP3    H130772   5.982   4.665  14.461
 3119TIP3    H230773   5.969   4.595  14.595
 3120TIP3   OH230774   1.759   1.723   2.666
 3120TIP3    H130775   1.780   1.654   2.602
 3120TIP3    H230776   1.844   1.759   2.690
 3121TIP3   OH230777   2.574   5.889   2.838
 3121TIP3    H130778   2.486   5.922   2.853
 3121TIP3    H230779   2.630   5.944   2.892
 3122TIP3   OH230780   6.751   2.225   1.768
 3122TIP3    H130781   6.764   2.155   1.705
 3122TIP3    H230782   6.767   2.305   1.719
 3123TIP3   OH230783   5.923   6.335   3.713
 3123TIP3    H130784   5.866   6.399   3.758
 3123TIP3    H230785   6.010   6.375   3.715
 3124TIP3   OH230786   1.567   3.639  12.188
 3124TIP3    H130787   1.512   3.608  12.260
 3124TIP3    H230788   1.592   3.560  12.141
 3125TIP3   OH230789   3.817   1.060   5.462
 3125TIP3    H130790   3.906   1.039   5.490
 3125TIP3    H230791   3.790   0.986   5.408
 3126TIP3   OH230792   0.813   4.767   4.912
 3126TIP3    H130793   0.846   4.856   4.923
 3126TIP3    H230794   0.745   4.758   4.979
 3127TIP3   OH230795   2.093   1.073  16.929
 3127TIP3    H130796   2.017   1.129  16.942
 3127TIP3    H230797   2.168   1.132  16.934
 3128TIP3   OH230798   2.257   0.831  15.739
 3128TIP3    H130799   2.280   0.771  15.810
 3128TIP3    H230800   2.211   0.775  15.676
 3129TIP3   OH230801   6.411   5.221  12.985
 3129TIP3    H130802   6.449   5.309  12.991
 3129TIP3    H230803   6.340   5.221  13.049
 3130TIP3   OH230804   5.693   0.938   2.856
 3130TIP3    H130805   5.699   0.884   2.935
 3130TIP3    H230806   5.773   0.991   2.858
 3131TIP3   OH230807   2.284   2.851  12.305
 3131TIP3    H130808   2.289   2.869  12.211
 3131TIP3    H230809   2.337   2.920  12.346
 3132TIP3   OH230810   2.825   1.292  13.104
 3132TIP3    H130811   2.856   1.225  13.165
 3132TIP3    H230812   2.826   1.373  13.154
 3133TIP3   OH230813   4.803   3.836  12.205
 3133TIP3    H130814   4.777   3.745  12.194
 3133TIP3    H230815   4.820   3.867  12.116
 3134TIP3   OH230816   6.503   0.929   2.180
 3134TIP3    H130817   6.451   1.009   2.181
 3134TIP3    H230818   6.575   0.946   2.242
 3135TIP3   OH230819   6.656   3.428  15.473
 3135TIP3    H130820   6.749   3.443  15.457
 3135TIP3    H230821   6.616   3.515  15.470
 3136TIP3   OH230822   0.053   0.256   0.660
 3136TIP3    H130823   0.021   0.237   0.571
 3136TIP3    H230824  -0.027   0.261   0.713
 3137TIP3   OH230825   4.822   2.873   5.117
 3137TIP3    H130826   4.909   2.913   5.110
 3137TIP3    H230827   4.784   2.882   5.030
 3138TIP3   OH230828   5.912   5.735   0.241
 3138TIP3    H130829   5.929   5.790   0.317
 3138TIP3    H230830   5.969   5.769   0.173
 3139TIP3   OH230831   1.917   1.409   6.407
 3139TIP3    H130832   1.865   1.488   6.396
 3139TIP3    H230833   1.868   1.342   6.359
 3140TIP3   OH230834   0.465   1.483  16.755
 3140TIP3    H130835   0.536   1.431  16.793
 3140TIP3    H230836   0.502   1.519  16.675
 3141TIP3   OH230837   0.537   1.138   4.508
 3141TIP3    H130838   0.537   1.232   4.524
 3141TIP3    H230839   0.565   1.100   4.591
 3142TIP3   OH230840   5.783   1.467  11.932
 3142TIP3    H130841   5.760   1.557  11.913
 3142TIP3    H230842   5.793   1.464  12.027
 3143TIP3   OH230843   1.591   5.485  17.040
 3143TIP3    H130844   1.590   5.454  16.950
 3143TIP3    H230845   1.526   5.431  17.085
 3144TIP3   OH230846   5.296   4.859   0.977
 3144TIP3    H130847   5.266   4.863   1.068
 3144TIP3    H230848   5.370   4.798   0.980
 3145TIP3   OH230849   3.454   5.373   1.007
 3145TIP3    H130850   3.431   5.284   0.981
 3145TIP3    H230851   3.423   5.381   1.097
 3146TIP3   OH230852   5.540   1.628   2.881
 3146TIP3    H130853   5.555   1.534   2.892
 3146TIP3    H230854   5.455   1.643   2.924
 3147TIP3   OH230855   3.792   1.260  13.200
 3147TIP3    H130856   3.825   1.316  13.269
 3147TIP3    H230857   3.700   1.246  13.223
 3148TIP3   OH230858   0.332   1.474  14.287
 3148TIP3    H130859   0.245   1.450  14.257
 3148TIP3    H230860   0.387   1.468  14.208
 3149TIP3   OH230861   2.830   2.616  15.811
 3149TIP3    H130862   2.820   2.570  15.894
 3149TIP3    H230863   2.878   2.696  15.833
 3150TIP3   OH230864   6.571   0.265   0.797
 3150TIP3    H130865   6.511   0.335   0.775
 3150TIP3    H230866   6.524   0.185   0.776
 3151TIP3   OH230867   6.427   0.693  12.911
 3151TIP3    H130868   6.429   0.749  12.833
 3151TIP3    H230869   6.487   0.621  12.892
 3152TIP3   OH230870   3.851   6.030   4.141
 3152TIP3    H130871   3.930   6.082   4.128
 3152TIP3    H230872   3.802   6.039   4.059
 3153TIP3   OH230873   4.266   3.046  10.808
 3153TIP3    H130874   4.184   3.097  10.807
 3153TIP3    H230875   4.315   3.083  10.882
 3154TIP3   OH230876   2.558   3.349   1.594
 3154TIP3    H130877   2.629   3.324   1.654
 3154TIP3    H230878   2.589   3.429   1.552
 3155TIP3   OH230879   1.817   6.602   1.307
 3155TIP3    H130880   1.806   6.508   1.292
 3155TIP3    H230881   1.729   6.634   1.327
 3156TIP3   OH230882   1.545   3.590  14.093
 3156TIP3    H130883   1.493   3.511  14.108
 3156TIP3    H230884   1.601   3.567  14.018
 3157TIP3   OH230885   2.362   5.952   4.373
 3157TIP3    H130886   2.361   5.952   4.469
 3157TIP3    H230887   2.273   5.928   4.349
 3158TIP3   OH230888   6.748   1.116   5.663
 3158TIP3    H130889   6.749   1.142   5.755
 3158TIP3    H230890   6.667   1.066   5.654
 3159TIP3   OH230891   1.787   5.922  15.327
 3159TIP3    H130892   1.720   5.867  15.367
 3159TIP3    H230893   1.868   5.895  15.370
 3160TIP3   OH230894   1.341   5.508   6.729
 3160TIP3    H130895   1.348   5.437   6.665
 3160TIP3    H230896   1.386   5.475   6.806
 3161TIP3   OH230897   1.437   4.870   5.343
 3161TIP3    H130898   1.443   4.814   5.266
 3161TIP3    H230899   1.487   4.824   5.410
 3162TIP3   OH230900   6.178   0.132   1.743
 3162TIP3    H130901   6.210   0.079   1.670
 3162TIP3    H230902   6.147   0.213   1.702
 3163TIP3   OH230903   4.795   0.136   2.529
 3163TIP3    H130904   4.881   0.095   2.529
 3163TIP3    H230905   4.770   0.141   2.436
 3164TIP3   OH230906   2.976   2.283   1.820
 3164TIP3    H130907   3.046   2.255   1.879
 3164TIP3    H230908   2.958   2.373   1.844
 3165TIP3   OH230909   3.323   5.507   6.607
 3165TIP3    H130910   3.243   5.476   6.649
 3165TIP3    H230911   3.293   5.562   6.534
 3166TIP3   OH230912   2.914   6.776  15.880
 3166TIP3    H130913   2.941   6.696  15.836
 3166TIP3    H230914   2.963   6.845  15.835
 3167TIP3   OH230915   3.476   6.743   2.277
 3167TIP3    H130916   3.410   6.674   2.287
 3167TIP3    H230917   3.428   6.824   2.296
 3168TIP3   OH230918   4.263   3.860   0.696
 3168TIP3    H130919   4.192   3.885   0.755
 3168TIP3    H230920   4.221   3.804   0.630
 3169TIP3   OH230921   2.265   2.343   2.514
 3169TIP3    H130922   2.267   2.384   2.428
 3169TIP3    H230923   2.275   2.415   2.576
 3170TIP3   OH230924   0.556   3.360  14.706
 3170TIP3    H130925   0.614   3.356  14.631
 3170TIP3    H230926   0.609   3.398  14.776
 3171TIP3   OH230927   3.627   4.182   6.206
 3171TIP3    H130928   3.683   4.248   6.246
 3171TIP3    H230929   3.553   4.173   6.267
 3172TIP3   OH230930   4.173   4.325  12.286
 3172TIP3    H130931   4.157   4.289  12.373
 3172TIP3    H230932   4.239   4.267  12.248
 3173TIP3   OH230933   3.997   2.200  11.904
 3173TIP3    H130934   3.991   2.165  11.993
 3173TIP3    H230935   3.923   2.160  11.857
 3174TIP3   OH230936   5.162   6.688   3.769
 3174TIP3    H130937   5.099   6.668   3.838
 3174TIP3    H230938   5.121   6.758   3.718
 3175TIP3   OH230939   1.831   0.274  15.275
 3175TIP3    H130940   1.910   0.284  15.222
 3175TIP3    H230941   1.813   0.362  15.308
 3176TIP3   OH230942   6.779   6.254   4.588
 3176TIP3    H130943   6.685   6.264   4.605
 3176TIP3    H230944   6.785   6.179   4.530
 3177TIP3   OH230945   5.105   6.029   0.608
 3177TIP3    H130946   5.013   6.008   0.621
 3177TIP3    H230947   5.117   6.024   0.513
 3178TIP3   OH230948   0.987   5.906  11.234
 3178TIP3    H130949   1.006   5.963  11.307
 3178TIP3    H230950   1.072   5.886  11.195
 3179TIP3   OH230951   0.602   6.206   5.268
 3179TIP3    H130952   0.618   6.276   5.205
 3179TIP3    H230953   0.651   6.131   5.233
 3180TIP3   OH230954   6.695   1.099   4.102
 3180TIP3    H130955   6.604   1.115   4.078
 3180TIP3    H230956   6.708   1.148   4.183
 3181TIP3   OH230957   1.146   1.662  14.273
 3181TIP3    H130958   1.176   1.638  14.361
 3181TIP3    H230959   1.061   1.620  14.264
 3182TIP3   OH230960   5.337   1.125  13.491
 3182TIP3    H130961   5.382   1.162  13.415
 3182TIP3    H230962   5.268   1.188  13.511
 3183TIP3   OH230963   4.556   0.462  16.974
 3183TIP3    H130964   4.523   0.373  16.989
 3183TIP3    H230965   4.594   0.488  17.059
 3184TIP3   OH230966   2.248   3.951   2.294
 3184TIP3    H130967   2.230   3.990   2.209
 3184TIP3    H230968   2.161   3.932   2.331
 3185TIP3   OH230969   6.286   5.064  12.790
 3185TIP3    H130970   6.213   5.025  12.837
 3185TIP3    H230971   6.337   5.109  12.857
 3186TIP3   OH230972   5.231   4.887   3.577
 3186TIP3    H130973   5.263   4.821   3.515
 3186TIP3    H230974   5.300   4.954   3.577
 3187TIP3   OH230975   6.061   0.294   2.026
 3187TIP3    H130976   6.075   0.210   2.070
 3187TIP3    H230977   6.001   0.341   2.084
 3188TIP3   OH230978   3.037   1.979  14.792
 3188TIP3    H130979   2.974   1.913  14.821
 3188TIP3    H230980   3.074   1.943  14.711
 3189TIP3   OH230981   2.379   1.586  11.087
 3189TIP3    H130982   2.311   1.616  11.026
 3189TIP3    H230983   2.406   1.501  11.052
 3190TIP3   OH230984   6.193   1.995  12.339
 3190TIP3    H130985   6.162   2.022  12.425
 3190TIP3    H230986   6.282   2.029  12.334
 3191TIP3   OH230987   6.125   4.859   0.131
 3191TIP3    H130988   6.212   4.854   0.092
 3191TIP3    H230989   6.066   4.830   0.061
 3192TIP3   OH230990   5.594   6.330   4.187
 3192TIP3    H130991   5.588   6.309   4.280
 3192TIP3    H230992   5.687   6.318   4.166
 3193TIP3   OH230993   1.729   4.421   6.231
 3193TIP3    H130994   1.753   4.404   6.140
 3193TIP3    H230995   1.641   4.383   6.240
 3194TIP3   OH230996   5.300   4.111  13.514
 3194TIP3    H130997   5.342   4.183  13.467
 3194TIP3    H230998   5.226   4.086  13.459
 3195TIP3   OH230999   1.315   6.071   2.800
 3195TIP3    H131000   1.409   6.077   2.815
 3195TIP3    H231001   1.306   6.012   2.725
 3196TIP3   OH231002   4.182   2.062  16.773
 3196TIP3    H131003   4.224   2.058  16.687
 3196TIP3    H231004   4.209   1.981  16.817
 3197TIP3   OH231005   3.721   3.551   1.235
 3197TIP3    H131006   3.768   3.520   1.158
 3197TIP3    H231007   3.750   3.642   1.246
 3198TIP3   OH231008   2.113   5.107  14.309
 3198TIP3    H131009   2.075   5.194  14.299
 3198TIP3    H231010   2.200   5.122  14.344
 3199TIP3   OH231011   5.124   0.800  16.025
 3199TIP3    H131012   5.141   0.707  16.039
 3199TIP3    H231013   5.102   0.806  15.932
 3200TIP3   OH231014   4.262   1.668   3.100
 3200TIP3    H131015   4.250   1.614   3.178
 3200TIP3    H231016   4.278   1.756   3.134
 3201TIP3   OH231017   4.016   6.782  13.133
 3201TIP3    H131018   3.932   6.746  13.161
 3201TIP3    H231019   4.008   6.788  13.038
 3202TIP3   OH231020   4.863   5.121   2.134
 3202TIP3    H131021   4.843   5.034   2.099
 3202TIP3    H231022   4.880   5.174   2.056
 3203TIP3   OH231023   4.456   1.349   3.693
 3203TIP3    H131024   4.369   1.308   3.692
 3203TIP3    H231025   4.442   1.432   3.737
 3204TIP3   OH231026   1.695   4.345   2.638
 3204TIP3    H131027   1.612   4.302   2.617
 3204TIP3    H231028   1.739   4.356   2.554
 3205TIP3   OH231029   4.974   3.607   1.978
 3205TIP3    H131030   4.930   3.597   2.063
 3205TIP3    H231031   5.063   3.634   2.000
 3206TIP3   OH231032   6.276   2.094  13.261
 3206TIP3    H131033   6.237   2.125  13.343
 3206TIP3    H231034   6.240   2.152  13.194
 3207TIP3   OH231035   5.857   2.178  12.601
 3207TIP3    H131036   5.774   2.132  12.584
 3207TIP3    H231037   5.836   2.270  12.585
 3208TIP3   OH231038   1.372   5.471  13.060
 3208TIP3    H131039   1.318   5.395  13.039
 3208TIP3    H231040   1.458   5.434  13.082
 3209TIP3   OH231041   3.689   0.126  15.341
 3209TIP3    H131042   3.743   0.181  15.283
 3209TIP3    H231043   3.681   0.043  15.294
 3210TIP3   OH231044   1.246   2.101  12.551
 3210TIP3    H131045   1.224   2.014  12.519
 3210TIP3    H231046   1.193   2.112  12.631
 3211TIP3   OH231047   6.558   1.826   4.943
 3211TIP3    H131048   6.582   1.786   4.859
 3211TIP3    H231049   6.641   1.835   4.990
 3212TIP3   OH231050   5.099   5.492   2.751
 3212TIP3    H131051   5.181   5.454   2.721
 3212TIP3    H231052   5.063   5.429   2.813
 3213TIP3   OH231053   1.368   4.859  10.853
 3213TIP3    H131054   1.381   4.947  10.888
 3213TIP3    H231055   1.422   4.803  10.909
 3214TIP3   OH231056   0.644   3.501  12.530
 3214TIP3    H131057   0.592   3.580  12.539
 3214TIP3    H231058   0.720   3.528  12.479
 3215TIP3   OH231059   1.279   0.376   5.535
 3215TIP3    H131060   1.250   0.370   5.444
 3215TIP3    H231061   1.202   0.352   5.587
 3216TIP3   OH231062   3.394   1.461  13.180
 3216TIP3    H131063   3.384   1.371  13.211
 3216TIP3    H231064   3.381   1.454  13.085
 3217TIP3   OH231065   5.092   6.651   2.927
 3217TIP3    H131066   5.118   6.695   2.846
 3217TIP3    H231067   5.133   6.564   2.921
 3218TIP3   OH231068   6.655   0.759  16.771
 3218TIP3    H131069   6.705   0.831  16.811
 3218TIP3    H231070   6.608   0.799  16.698
 3219TIP3   OH231071   0.888   0.038  14.689
 3219TIP3    H131072   0.798   0.056  14.716
 3219TIP3    H231073   0.934   0.122  14.699
 3220TIP3   OH231074   0.751   1.844  12.262
 3220TIP3    H131075   0.687   1.884  12.322
 3220TIP3    H231076   0.701   1.827  12.182
 3221TIP3   OH231077   1.918   2.648  15.795
 3221TIP3    H131078   1.875   2.733  15.794
 3221TIP3    H231079   2.006   2.665  15.762
 3222TIP3   OH231080   3.964   4.692   5.277
 3222TIP3    H131081   4.057   4.672   5.274
 3222TIP3    H231082   3.945   4.709   5.369
 3223TIP3   OH231083   5.163   5.392  17.042
 3223TIP3    H131084   5.156   5.308  17.087
 3223TIP3    H231085   5.177   5.456  17.111
 3224TIP3   OH231086   6.322   2.847   4.372
 3224TIP3    H131087   6.236   2.828   4.408
 3224TIP3    H231088   6.379   2.781   4.410
 3225TIP3   OH231089   0.428   2.133   4.652
 3225TIP3    H131090   0.363   2.140   4.723
 3225TIP3    H231091   0.480   2.213   4.660
 3226TIP3   OH231092   5.782   0.831  16.559
 3226TIP3    H131093   5.690   0.805  16.554
 3226TIP3    H231094   5.783   0.903  16.621
 3227TIP3   OH231095   1.614   4.250   0.611
 3227TIP3    H131096   1.646   4.315   0.548
 3227TIP3    H231097   1.524   4.233   0.585
 3228TIP3   OH231098   5.277   2.464  12.113
 3228TIP3    H131099   5.300   2.535  12.173
 3228TIP3    H231100   5.197   2.494  12.070
 3229TIP3   OH231101   3.740   0.868   3.603
 3229TIP3    H131102   3.757   0.937   3.667
 3229TIP3    H231103   3.713   0.914   3.524
 3230TIP3   OH231104   2.324   0.821   3.244
 3230TIP3    H131105   2.308   0.732   3.276
 3230TIP3    H231106   2.357   0.808   3.155
 3231TIP3   OH231107   3.938   6.671  16.350
 3231TIP3    H131108   3.964   6.681  16.259
 3231TIP3    H231109   3.927   6.761  16.382
 3232TIP3   OH231110   2.556   1.224  12.918
 3232TIP3    H131111   2.581   1.168  12.845
 3232TIP3    H231112   2.638   1.258  12.952
 3233TIP3   OH231113   1.469   0.979   5.602
 3233TIP3    H131114   1.507   1.067   5.600
 3233TIP3    H231115   1.505   0.936   5.524
 3234TIP3   OH231116   3.155   5.332   0.377
 3234TIP3    H131117   3.243   5.349   0.410
 3234TIP3    H231118   3.169   5.280   0.298
 3235TIP3   OH231119   5.548   4.888  13.694
 3235TIP3    H131120   5.567   4.958  13.631
 3235TIP3    H231121   5.482   4.834  13.649
 3236TIP3   OH231122   5.877   4.010  16.951
 3236TIP3    H131123   5.892   3.915  16.959
 3236TIP3    H231124   5.868   4.025  16.857
 3237TIP3   OH231125   2.812   3.921   2.727
 3237TIP3    H131126   2.799   3.842   2.676
 3237TIP3    H231127   2.748   3.983   2.692
 3238TIP3   OH231128   6.775   4.107  13.749
 3238TIP3    H131129   6.775   4.125  13.655
 3238TIP3    H231130   6.735   4.186  13.787
 3239TIP3   OH231131   1.847   2.479   5.368
 3239TIP3    H131132   1.918   2.541   5.379
 3239TIP3    H231133   1.804   2.475   5.453
 3240TIP3   OH231134   1.621   2.749  14.187
 3240TIP3    H131135   1.671   2.747  14.105
 3240TIP3    H231136   1.559   2.676  14.178
 3241TIP3   OH231137   1.516   5.907   3.337
 3241TIP3    H131138   1.535   5.821   3.374
 3241TIP3    H231139   1.441   5.938   3.388
 3242TIP3   OH231140   2.920   4.887  15.351
 3242TIP3    H131141   2.971   4.818  15.393
 3242TIP3    H231142   2.881   4.936  15.423
 3243TIP3   OH231143   4.979   4.000  12.350
 3243TIP3    H131144   5.007   4.051  12.274
 3243TIP3    H231145   4.927   3.928  12.314
 3244TIP3   OH231146   2.036   0.291  13.746
 3244TIP3    H131147   1.976   0.244  13.803
 3244TIP3    H231148   1.983   0.362  13.709
 3245TIP3   OH231149   3.375   1.798   2.762
 3245TIP3    H131150   3.413   1.722   2.806
 3245TIP3    H231151   3.419   1.801   2.677
 3246TIP3   OH231152   0.720   5.786  16.592
 3246TIP3    H131153   0.778   5.825  16.658
 3246TIP3    H231154   0.695   5.858  16.535
 3247TIP3   OH231155   0.647   1.088  11.469
 3247TIP3    H131156   0.694   1.091  11.552
 3247TIP3    H231157   0.558   1.117  11.490
 3248TIP3   OH231158   5.112   4.012   2.784
 3248TIP3    H131159   5.206   4.014   2.802
 3248TIP3    H231160   5.089   3.919   2.788
 3249TIP3   OH231161   6.325   1.799  14.697
 3249TIP3    H131162   6.230   1.786  14.695
 3249TIP3    H231163   6.353   1.780  14.607
 3250TIP3   OH231164   0.070   4.729   4.689
 3250TIP3    H131165   0.119   4.735   4.771
 3250TIP3    H231166   0.079   4.637   4.662
 3251TIP3   OH231167   2.125   3.256  15.012
 3251TIP3    H131168   2.098   3.203  14.937
 3251TIP3    H231169   2.094   3.208  15.088
 3252TIP3   OH231170   4.270   5.564  11.394
 3252TIP3    H131171   4.363   5.569  11.415
 3252TIP3    H231172   4.267   5.527  11.306
 3253TIP3   OH231173   6.025   5.369   1.152
 3253TIP3    H131174   6.006   5.430   1.081
 3253TIP3    H231175   5.944   5.320   1.165
 3254TIP3   OH231176   0.906   1.258  15.431
 3254TIP3    H131177   0.942   1.271  15.519
 3254TIP3    H231178   0.905   1.346  15.393
 3255TIP3   OH231179   5.862   4.927  12.950
 3255TIP3    H131180   5.792   4.973  12.902
 3255TIP3    H231181   5.835   4.933  13.042
 3256TIP3   OH231182   2.652   2.349  11.449
 3256TIP3    H131183   2.636   2.437  11.483
 3256TIP3    H231184   2.565   2.311  11.441
 3257TIP3   OH231185   1.792   1.821   0.526
 3257TIP3    H131186   1.753   1.898   0.567
 3257TIP3    H231187   1.880   1.816   0.563
 3258TIP3   OH231188   3.053   2.031  15.055
 3258TIP3    H131189   3.093   1.945  15.067
 3258TIP3    H231190   3.048   2.042  14.960
 3259TIP3   OH231191   3.840   5.187   5.075
 3259TIP3    H131192   3.888   5.106   5.089
 3259TIP3    H231193   3.789   5.172   4.995
 3260TIP3   OH231194   1.362   1.852   5.635
 3260TIP3    H131195   1.338   1.824   5.723
 3260TIP3    H231196   1.372   1.947   5.643
 3261TIP3   OH231197   4.459   6.269   2.979
 3261TIP3    H131198   4.382   6.297   2.929
 3261TIP3    H231199   4.494   6.196   2.929
 3262TIP3   OH231200   2.661   1.058   5.851
 3262TIP3    H131201   2.693   1.025   5.767
 3262TIP3    H231202   2.601   0.990   5.882
 3263TIP3   OH231203   6.689   6.387   5.293
 3263TIP3    H131204   6.711   6.413   5.203
 3263TIP3    H231205   6.752   6.318   5.314
 3264TIP3   OH231206   3.640   3.870   2.983
 3264TIP3    H131207   3.653   3.775   2.982
 3264TIP3    H231208   3.633   3.892   3.076
 3265TIP3   OH231209   1.289   4.405  14.872
 3265TIP3    H131210   1.363   4.383  14.815
 3265TIP3    H231211   1.216   4.353  14.839
 3266TIP3   OH231212   1.533   1.853  16.973
 3266TIP3    H131213   1.572   1.940  16.979
 3266TIP3    H231214   1.483   1.856  16.891
 3267TIP3   OH231215   3.213   6.665   0.585
 3267TIP3    H131216   3.278   6.629   0.524
 3267TIP3    H231217   3.263   6.681   0.665
 3268TIP3   OH231218   5.543   0.561  14.518
 3268TIP3    H131219   5.612   0.532  14.458
 3268TIP3    H231220   5.581   0.637  14.563
 3269TIP3   OH231221   1.284   6.296   3.789
 3269TIP3    H131222   1.311   6.324   3.876
 3269TIP3    H231223   1.277   6.200   3.796
 3270TIP3   OH231224   2.837   0.231  14.417
 3270TIP3    H131225   2.797   0.169  14.477
 3270TIP3    H231226   2.856   0.180  14.339
 3271TIP3   OH231227   0.461   0.043  14.316
 3271TIP3    H131228   0.457  -0.051  14.301
 3271TIP3    H231229   0.498   0.052  14.404
 3272TIP3   OH231230   0.787   5.239  12.929
 3272TIP3    H131231   0.833   5.306  12.879
 3272TIP3    H231232   0.721   5.205  12.869
 3273TIP3   OH231233   2.764   0.421  12.979
 3273TIP3    H131234   2.743   0.494  12.921
 3273TIP3    H231235   2.692   0.419  13.043
 3274TIP3   OH231236   3.991   2.950   0.872
 3274TIP3    H131237   3.951   2.882   0.819
 3274TIP3    H231238   4.084   2.926   0.876
 3275TIP3   OH231239   0.912   3.516  12.009
 3275TIP3    H131240   0.827   3.559  12.020
 3275TIP3    H231241   0.945   3.551  11.926
 3276TIP3   OH231242   0.621   0.478   3.120
 3276TIP3    H131243   0.532   0.510   3.109
 3276TIP3    H231244   0.636   0.479   3.214
 3277TIP3   OH231245   4.095   0.595   1.081
 3277TIP3    H131246   4.137   0.633   1.159
 3277TIP3    H231247   4.071   0.506   1.108
 3278TIP3   OH231248   1.980   1.565   5.160
 3278TIP3    H131249   1.992   1.547   5.066
 3278TIP3    H231250   1.965   1.659   5.164
 3279TIP3   OH231251   6.502   3.928   5.753
 3279TIP3    H131252   6.584   3.959   5.715
 3279TIP3    H231253   6.526   3.851   5.804
 3280TIP3   OH231254   0.901   3.378   2.215
 3280TIP3    H131255   0.872   3.310   2.276
 3280TIP3    H231256   0.925   3.452   2.271
 3281TIP3   OH231257   0.707   4.673  16.177
 3281TIP3    H131258   0.751   4.620  16.243
 3281TIP3    H231259   0.651   4.612  16.130
 3282TIP3   OH231260   4.816   5.610   0.193
 3282TIP3    H131261   4.758   5.542   0.228
 3282TIP3    H231262   4.886   5.618   0.257
 3283TIP3   OH231263   2.794   5.829   4.079
 3283TIP3    H131264   2.730   5.893   4.109
 3283TIP3    H231265   2.768   5.748   4.122
 3284TIP3   OH231266   1.502   4.606  12.554
 3284TIP3    H131267   1.442   4.573  12.621
 3284TIP3    H231268   1.586   4.615  12.600
 3285TIP3   OH231269   5.837   6.529  12.489
 3285TIP3    H131270   5.931   6.539  12.508
 3285TIP3    H231271   5.797   6.517  12.575
 3286TIP3   OH231272   3.409   0.459   5.418
 3286TIP3    H131273   3.357   0.539   5.429
 3286TIP3    H231274   3.384   0.404   5.492
 3287TIP3   OH231275   5.637   0.367  15.857
 3287TIP3    H131276   5.674   0.305  15.794
 3287TIP3    H231277   5.685   0.448  15.842
 3288TIP3   OH231278   1.993   3.118  15.235
 3288TIP3    H131279   1.899   3.114  15.252
 3288TIP3    H231280   2.025   3.032  15.263
 3289TIP3   OH231281   3.369   1.088  15.000
 3289TIP3    H131282   3.465   1.088  14.997
 3289TIP3    H231283   3.342   1.061  14.913
 3290TIP3   OH231284   4.091   1.176   1.413
 3290TIP3    H131285   4.138   1.180   1.497
 3290TIP3    H231286   4.085   1.083   1.393
 3291TIP3   OH231287   3.339   5.472  16.683
 3291TIP3    H131288   3.251   5.494  16.650
 3291TIP3    H231289   3.328   5.389  16.729
 3292TIP3   OH231290   6.645   4.071  11.294
 3292TIP3    H131291   6.713   4.118  11.244
 3292TIP3    H231292   6.565   4.121  11.280
 3293TIP3   OH231293   5.916   4.476   4.104
 3293TIP3    H131294   5.926   4.567   4.078
 3293TIP3    H231295   5.892   4.481   4.197
 3294TIP3   OH231296   5.042   2.802  10.966
 3294TIP3    H131297   4.984   2.835  10.897
 3294TIP3    H231298   5.124   2.850  10.953
 3295TIP3   OH231299   5.800   2.656   1.455
 3295TIP3    H131300   5.886   2.665   1.496
 3295TIP3    H231301   5.757   2.587   1.505
 3296TIP3   OH231302   1.179   3.268   1.569
 3296TIP3    H131303   1.106   3.305   1.519
 3296TIP3    H231304   1.153   3.279   1.660
 3297TIP3   OH231305   6.546   0.383  11.098
 3297TIP3    H131306   6.487   0.401  11.170
 3297TIP3    H231307   6.577   0.294  11.113
 3298TIP3   OH231308   3.197   0.111   1.499
 3298TIP3    H131309   3.137   0.051   1.455
 3298TIP3    H231310   3.281   0.065   1.499
 3299TIP3   OH231311   2.463   6.314  12.317
 3299TIP3    H131312   2.440   6.387  12.260
 3299TIP3    H231313   2.387   6.256  12.314
 3300TIP3   OH231314   4.031   0.228  16.958
 3300TIP3    H131315   4.025   0.239  16.863
 3300TIP3    H231316   4.044   0.317  16.991
 3301TIP3   OH231317   2.651   4.589   2.351
 3301TIP3    H131318   2.739   4.583   2.313
 3301TIP3    H231319   2.665   4.605   2.444
 3302TIP3   OH231320   3.717   6.219  12.497
 3302TIP3    H131321   3.757   6.149  12.548
 3302TIP3    H231322   3.777   6.232  12.424
 3303TIP3   OH231323   0.222   3.016  13.527
 3303TIP3    H131324   0.200   2.953  13.596
 3303TIP3    H231325   0.140   3.063  13.511
 3304TIP3   OH231326   0.477   1.692   5.557
 3304TIP3    H131327   0.493   1.599   5.575
 3304TIP3    H231328   0.510   1.705   5.468
 3305TIP3   OH231329   6.333   1.734  16.757
 3305TIP3    H131330   6.421   1.734  16.721
 3305TIP3    H231331   6.326   1.651  16.803
 3306TIP3   OH231332   4.709   1.052  11.544
 3306TIP3    H131333   4.649   1.126  11.554
 3306TIP3    H231334   4.786   1.090  11.501
 3307TIP3   OH231335   2.215   3.165  15.517
 3307TIP3    H131336   2.294   3.177  15.569
 3307TIP3    H231337   2.243   3.179  15.427
 3308TIP3   OH231338   1.426   1.883  13.750
 3308TIP3    H131339   1.452   1.800  13.711
 3308TIP3    H231340   1.506   1.915  13.793
 3309TIP3   OH231341   6.046   4.114   2.677
 3309TIP3    H131342   6.031   4.020   2.666
 3309TIP3    H231343   6.016   4.133   2.765
 3310TIP3   OH231344   3.322   1.105   5.344
 3310TIP3    H131345   3.405   1.102   5.298
 3310TIP3    H231346   3.288   1.193   5.326
 3311TIP3   OH231347   4.448   3.681  11.928
 3311TIP3    H131348   4.424   3.683  12.021
 3311TIP3    H231349   4.524   3.623  11.924
 3312TIP3   OH231350   5.633   0.415  10.806
 3312TIP3    H131351   5.647   0.384  10.717
 3312TIP3    H231352   5.576   0.492  10.796
 3313TIP3   OH231353   4.078   3.528  11.979
 3313TIP3    H131354   3.988   3.531  12.010
 3313TIP3    H231355   4.078   3.459  11.911
 3314TIP3   OH231356   2.768   4.770  11.329
 3314TIP3    H131357   2.718   4.751  11.250
 3314TIP3    H231358   2.806   4.686  11.355
 3315TIP3   OH231359   5.138   2.166  14.335
 3315TIP3    H131360   5.056   2.198  14.298
 3315TIP3    H231361   5.112   2.105  14.404
 3316TIP3   OH231362   2.733   6.207  16.732
 3316TIP3    H131363   2.726   6.128  16.679
 3316TIP3    H231364   2.825   6.209  16.761
 3317TIP3   OH231365   2.800   2.674   0.406
 3317TIP3    H131366   2.707   2.650   0.413
 3317TIP3    H231367   2.828   2.634   0.323
 3318TIP3   OH231368   4.839   0.274  16.466
 3318TIP3    H131369   4.751   0.309  16.450
 3318TIP3    H231370   4.892   0.351  16.488
 3319TIP3   OH231371   6.459   0.061   4.434
 3319TIP3    H131372   6.458   0.144   4.481
 3319TIP3    H231373   6.522   0.007   4.482
 3320TIP3   OH231374   3.081   0.315  14.619
 3320TIP3    H131375   3.080   0.282  14.529
 3320TIP3    H231376   3.162   0.365  14.625
 3321TIP3   OH231377   0.725   2.154  16.619
 3321TIP3    H131378   0.650   2.209  16.640
 3321TIP3    H231379   0.710   2.128  16.528
 3322TIP3   OH231380   1.555   6.396  13.836
 3322TIP3    H131381   1.498   6.455  13.887
 3322TIP3    H231382   1.579   6.327  13.898
 3323TIP3   OH231383   1.226   1.342   3.967
 3323TIP3    H131384   1.313   1.304   3.959
 3323TIP3    H231385   1.199   1.361   3.877
 3324TIP3   OH231386   0.540   4.984  13.606
 3324TIP3    H131387   0.513   4.899  13.572
 3324TIP3    H231388   0.615   4.966  13.662
 3325TIP3   OH231389   5.975   1.796  17.110
 3325TIP3    H131390   5.882   1.796  17.085
 3325TIP3    H231391   6.012   1.720  17.066
 3326TIP3   OH231392   2.452   1.101   3.988
 3326TIP3    H131393   2.404   1.181   4.007
 3326TIP3    H231394   2.543   1.122   4.008
 3327TIP3   OH231395   1.718   3.996  11.892
 3327TIP3    H131396   1.643   4.046  11.923
 3327TIP3    H231397   1.794   4.052  11.909
 3328TIP3   OH231398   1.156   5.835  15.274
 3328TIP3    H131399   1.121   5.899  15.212
 3328TIP3    H231400   1.105   5.848  15.354
 3329TIP3   OH231401   0.542   5.002   4.761
 3329TIP3    H131402   0.592   5.044   4.691
 3329TIP3    H231403   0.559   4.909   4.749
 3330TIP3   OH231404   4.601   2.686   1.858
 3330TIP3    H131405   4.680   2.686   1.911
 3330TIP3    H231406   4.542   2.625   1.902
 3331TIP3   OH231407   2.034   3.211  14.184
 3331TIP3    H131408   1.941   3.214  14.160
 3331TIP3    H231409   2.036   3.156  14.262
 3332TIP3   OH231410   2.649   0.741   4.840
 3332TIP3    H131411   2.699   0.734   4.921
 3332TIP3    H231412   2.675   0.825   4.803
 3333TIP3   OH231413   0.271   4.736   3.643
 3333TIP3    H131414   0.222   4.773   3.570
 3333TIP3    H231415   0.330   4.807   3.670
 3334TIP3   OH231416   3.265   3.830  13.946
 3334TIP3    H131417   3.315   3.890  14.001
 3334TIP3    H231418   3.322   3.815  13.869
 3335TIP3   OH231419   2.698   4.404  11.799
 3335TIP3    H131420   2.606   4.376  11.799
 3335TIP3    H231421   2.718   4.419  11.707
 3336TIP3   OH231422   0.946   4.482  14.955
 3336TIP3    H131423   0.994   4.554  14.997
 3336TIP3    H231424   0.952   4.411  15.019
 3337TIP3   OH231425   0.168   1.553  11.125
 3337TIP3    H131426   0.119   1.589  11.051
 3337TIP3    H231427   0.257   1.586  11.113
 3338TIP3   OH231428   1.775   2.763  15.370
 3338TIP3    H131429   1.819   2.847  15.382
 3338TIP3    H231430   1.836   2.699  15.408
 3339TIP3   OH231431   6.665   1.232   0.725
 3339TIP3    H131432   6.731   1.231   0.795
 3339TIP3    H231433   6.717   1.231   0.644
 3340TIP3   OH231434   2.278   5.714  15.923
 3340TIP3    H131435   2.204   5.658  15.949
 3340TIP3    H231436   2.240   5.775  15.860
 3341TIP3   OH231437   2.555   6.646  14.935
 3341TIP3    H131438   2.483   6.686  14.886
 3341TIP3    H231439   2.583   6.714  14.996
 3342TIP3   OH231440   3.656   4.279  15.404
 3342TIP3    H131441   3.583   4.218  15.392
 3342TIP3    H231442   3.693   4.255  15.489
 3343TIP3   OH231443   0.726   0.130  15.263
 3343TIP3    H131444   0.777   0.104  15.186
 3343TIP3    H231445   0.635   0.130  15.233
 3344TIP3   OH231446   5.120   6.737   4.886
 3344TIP3    H131447   5.172   6.683   4.945
 3344TIP3    H231448   5.148   6.710   4.798
 3345TIP3   OH231449   6.511   4.353  15.390
 3345TIP3    H131450   6.587   4.296  15.402
 3345TIP3    H231451   6.549   4.440  15.374
 3346TIP3   OH231452   5.488   4.876  15.234
 3346TIP3    H131453   5.569   4.912  15.270
 3346TIP3    H231454   5.484   4.787  15.269
 3347TIP3   OH231455   4.884   2.532   2.732
 3347TIP3    H131456   4.914   2.612   2.689
 3347TIP3    H231457   4.857   2.561   2.820
 3348TIP3   OH231458   5.673   1.585  12.421
 3348TIP3    H131459   5.682   1.564  12.514
 3348TIP3    H231460   5.642   1.504  12.381
 3349TIP3   OH231461   4.856   1.432   6.338
 3349TIP3    H131462   4.873   1.523   6.311
 3349TIP3    H231463   4.942   1.390   6.336
 3350TIP3   OH231464   3.742   4.544   0.675
 3350TIP3    H131465   3.771   4.584   0.757
 3350TIP3    H231466   3.689   4.612   0.633
 3351TIP3   OH231467   2.650   6.090   0.295
 3351TIP3    H131468   2.658   6.171   0.243
 3351TIP3    H231469   2.738   6.053   0.294
 3352TIP3   OH231470   5.182   1.217   0.802
 3352TIP3    H131471   5.202   1.284   0.737
 3352TIP3    H231472   5.244   1.234   0.873
 3353TIP3   OH231473   0.047   6.534  16.388
 3353TIP3    H131474   0.019   6.488  16.308
 3353TIP3    H231475   0.115   6.594  16.358
 3354TIP3   OH231476   3.941   5.833  17.134
 3354TIP3    H131477   3.902   5.859  17.050
 3354TIP3    H231478   4.001   5.904  17.156
 3355TIP3   OH231479   4.284   6.394   4.004
 3355TIP3    H131480   4.353   6.328   4.009
 3355TIP3    H231481   4.259   6.395   3.912
 3356TIP3   OH231482   1.239   4.051  11.556
 3356TIP3    H131483   1.178   3.995  11.509
 3356TIP3    H231484   1.285   3.991  11.615
 3357TIP3   OH231485   3.074   6.416  16.474
 3357TIP3    H131486   2.978   6.414  16.477
 3357TIP3    H231487   3.097   6.342  16.417
 3358TIP3   OH231488   3.298   1.980   3.539
 3358TIP3    H131489   3.334   2.057   3.496
 3358TIP3    H231490   3.368   1.914   3.531
 3359TIP3   OH231491   2.691   5.178  11.224
 3359TIP3    H131492   2.724   5.265  11.200
 3359TIP3    H231493   2.768   5.121  11.218
 3360TIP3   OH231494   1.905   4.768   5.576
 3360TIP3    H131495   1.859   4.686   5.555
 3360TIP3    H231496   1.872   4.792   5.662
 3361TIP3   OH231497   4.825   3.277  14.035
 3361TIP3    H131498   4.913   3.241  14.034
 3361TIP3    H231499   4.768   3.202  14.022
 3362TIP3   OH231500   1.162   5.189   3.838
 3362TIP3    H131501   1.136   5.097   3.832
 3362TIP3    H231502   1.105   5.225   3.905
 3363TIP3   OH231503   2.545   1.413  12.366
 3363TIP3    H131504   2.495   1.485  12.327
 3363TIP3    H231505   2.635   1.429  12.336
 3364TIP3   OH231506   4.994   5.973  17.083
 3364TIP3    H131507   4.917   6.009  17.126
 3364TIP3    H231508   4.959   5.920  17.011
 3365TIP3   OH231509   6.766   6.017  14.651
 3365TIP3    H131510   6.752   5.953  14.721
 3365TIP3    H231511   6.800   6.094  14.696
 3366TIP3   OH231512   3.060   6.722  14.325
 3366TIP3    H131513   3.062   6.731  14.230
 3366TIP3    H231514   2.972   6.691  14.344
 3367TIP3   OH231515   3.494   6.676  10.604
 3367TIP3    H131516   3.497   6.706  10.513
 3367TIP3    H231517   3.511   6.582  10.600
 3368TIP3   OH231518   1.309   0.792  13.341
 3368TIP3    H131519   1.214   0.794  13.330
 3368TIP3    H231520   1.335   0.707  13.306
 3369TIP3   OH231521   1.796   4.125   6.281
 3369TIP3    H131522   1.799   4.153   6.373
 3369TIP3    H231523   1.888   4.121   6.254
 3370TIP3   OH231524   0.651   5.941  15.360
 3370TIP3    H131525   0.653   5.870  15.296
 3370TIP3    H231526   0.597   5.907  15.432
 3371TIP3   OH231527   1.142   6.439  17.116
 3371TIP3    H131528   1.171   6.455  17.026
 3371TIP3    H231529   1.219   6.405  17.161
 3372TIP3   OH231530   6.061   0.269   2.525
 3372TIP3    H131531   6.139   0.281   2.470
 3372TIP3    H231532   6.066   0.178   2.554
 3373TIP3   OH231533   6.617   4.863   4.426
 3373TIP3    H131534   6.648   4.789   4.373
 3373TIP3    H231535   6.697   4.909   4.453
 3374TIP3   OH231536   5.790   2.576   3.803
 3374TIP3    H131537   5.743   2.647   3.847
 3374TIP3    H231538   5.828   2.524   3.875
 3375TIP3   OH231539   3.843   2.588   2.979
 3375TIP3    H131540   3.883   2.622   2.899
 3375TIP3    H231541   3.828   2.495   2.961
 3376TIP3   OH231542   5.822   5.128  11.420
 3376TIP3    H131543   5.746   5.084  11.383
 3376TIP3    H231544   5.832   5.090  11.507
 3377TIP3   OH231545   3.454   6.347   0.735
 3377TIP3    H131546   3.362   6.325   0.719
 3377TIP3    H231547   3.502   6.297   0.669
 3378TIP3   OH231548   3.480   5.406  16.063
 3378TIP3    H131549   3.507   5.464  16.134
 3378TIP3    H231550   3.499   5.455  15.983
 3379TIP3   OH231551   3.726   5.425  14.247
 3379TIP3    H131552   3.740   5.427  14.342
 3379TIP3    H231553   3.742   5.515  14.219
 3380TIP3   OH231554   4.776   2.457   4.051
 3380TIP3    H131555   4.788   2.456   3.956
 3380TIP3    H231556   4.711   2.525   4.066
 3381TIP3   OH231557   4.959   2.527   4.856
 3381TIP3    H131558   5.010   2.450   4.832
 3381TIP3    H231559   4.877   2.518   4.808
 3382TIP3   OH231560   3.110   3.627   5.508
 3382TIP3    H131561   3.055   3.552   5.486
 3382TIP3    H231562   3.196   3.590   5.526
 3383TIP3   OH231563   6.307   0.037   1.962
 3383TIP3    H131564   6.388   0.077   1.995
 3383TIP3    H231565   6.290   0.082   1.880
 3384TIP3   OH231566   4.914   1.419   2.761
 3384TIP3    H131567   4.949   1.394   2.847
 3384TIP3    H231568   4.845   1.483   2.781
 3385TIP3   OH231569   1.802   4.714  11.617
 3385TIP3    H131570   1.818   4.747  11.705
 3385TIP3    H231571   1.793   4.792  11.563
 3386TIP3   OH231572   6.563   4.416  16.347
 3386TIP3    H131573   6.590   4.508  16.357
 3386TIP3    H231574   6.640   4.374  16.308
 3387TIP3   OH231575   1.391   4.308  16.418
 3387TIP3    H131576   1.337   4.305  16.497
 3387TIP3    H231577   1.480   4.322  16.450
 3388TIP3   OH231578   1.443   1.415  15.692
 3388TIP3    H131579   1.532   1.430  15.660
 3388TIP3    H231580   1.433   1.477  15.764
 3389TIP3   OH231581   3.327   4.269   5.114
 3389TIP3    H131582   3.386   4.344   5.107
 3389TIP3    H231583   3.380   4.195   5.085
 3390TIP3   OH231584   2.694   0.196  14.870
 3390TIP3    H131585   2.637   0.164  14.939
 3390TIP3    H231586   2.670   0.288  14.859
 3391TIP3   OH231587   3.690   1.980  13.248
 3391TIP3    H131588   3.778   2.013  13.226
 3391TIP3    H231589   3.682   1.899  13.199
 3392TIP3   OH231590   5.422   2.722  10.804
 3392TIP3    H131591   5.410   2.650  10.866
 3392TIP3    H231592   5.517   2.735  10.800
 3393TIP3   OH231593   0.737   6.708   2.528
 3393TIP3    H131594   0.662   6.714   2.588
 3393TIP3    H231595   0.783   6.791   2.539
 3394TIP3   OH231596   1.259   5.410  14.911
 3394TIP3    H131597   1.284   5.397  15.003
 3394TIP3    H231598   1.342   5.410  14.864
 3395TIP3   OH231599   3.620   6.389   3.955
 3395TIP3    H131600   3.545   6.339   3.922
 3395TIP3    H231601   3.600   6.403   4.048
 3396TIP3   OH231602   4.576   3.149   5.411
 3396TIP3    H131603   4.629   3.218   5.371
 3396TIP3    H231604   4.602   3.150   5.503
 3397TIP3   OH231605   5.635   1.148  13.337
 3397TIP3    H131606   5.566   1.197  13.293
 3397TIP3    H231607   5.662   1.205  13.410
 3398TIP3   OH231608   2.756   5.959  11.082
 3398TIP3    H131609   2.692   6.030  11.076
 3398TIP3    H231610   2.715   5.885  11.038
 3399TIP3   OH231611   2.117   3.710  15.483
 3399TIP3    H131612   2.055   3.646  15.519
 3399TIP3    H231613   2.070   3.752  15.412
 3400TIP3   OH231614   3.906   5.893  14.592
 3400TIP3    H131615   3.944   5.809  14.567
 3400TIP3    H231616   3.969   5.931  14.653
 3401TIP3   OH231617   3.633   1.057   0.576
 3401TIP3    H131618   3.646   1.119   0.503
 3401TIP3    H231619   3.538   1.061   0.593
 3402TIP3   OH231620   6.200   4.593   1.972
 3402TIP3    H131621   6.217   4.564   2.062
 3402TIP3    H231622   6.106   4.578   1.959
 3403TIP3   OH231623   6.471   6.564  13.692
 3403TIP3    H131624   6.483   6.657  13.675
 3403TIP3    H231625   6.419   6.561  13.773
 3404TIP3   OH231626   6.601   2.925   1.008
 3404TIP3    H131627   6.526   2.913   0.950
 3404TIP3    H231628   6.609   3.019   1.020
 3405TIP3   OH231629   5.215   0.192  16.002
 3405TIP3    H131630   5.128   0.215  15.968
 3405TIP3    H231631   5.196   0.142  16.082
 3406TIP3   OH231632   3.134   2.571   3.535
 3406TIP3    H131633   3.149   2.549   3.627
 3406TIP3    H231634   3.053   2.622   3.536
 3407TIP3   OH231635   6.767   2.606  13.416
 3407TIP3    H131636   6.830   2.534  13.417
 3407TIP3    H231637   6.763   2.636  13.506
 3408TIP3   OH231638   4.299   1.701   2.594
 3408TIP3    H131639   4.368   1.643   2.623
 3408TIP3    H231640   4.343   1.762   2.534
 3409TIP3   OH231641   1.731   1.536   5.868
 3409TIP3    H131642   1.783   1.492   5.935
 3409TIP3    H231643   1.696   1.614   5.912
 3410TIP3   OH231644   2.260   2.708  16.130
 3410TIP3    H131645   2.192   2.758  16.085
 3410TIP3    H231646   2.338   2.764  16.127
 3411TIP3   OH231647   6.273   3.808  16.184
 3411TIP3    H131648   6.335   3.735  16.179
 3411TIP3    H231649   6.293   3.851  16.267
 3412TIP3   OH231650   5.345   2.645   6.322
 3412TIP3    H131651   5.294   2.623   6.400
 3412TIP3    H231652   5.365   2.561   6.281
 3413TIP3   OH231653   5.725   4.541   4.746
 3413TIP3    H131654   5.694   4.590   4.670
 3413TIP3    H231655   5.664   4.563   4.816
 3414TIP3   OH231656   6.427   0.022  13.880
 3414TIP3    H131657   6.462  -0.011  13.963
 3414TIP3    H231658   6.342  -0.021  13.871
 3415TIP3   OH231659   4.103   0.435  11.297
 3415TIP3    H131660   4.188   0.479  11.294
 3415TIP3    H231661   4.079   0.423  11.205
 3416TIP3   OH231662   3.267   4.407  12.026
 3416TIP3    H131663   3.259   4.361  12.109
 3416TIP3    H231664   3.355   4.387  11.995
 3417TIP3   OH231665   0.794   1.900   3.608
 3417TIP3    H131666   0.872   1.924   3.658
 3417TIP3    H231667   0.806   1.807   3.589
 3418TIP3   OH231668   2.667   6.034  14.491
 3418TIP3    H131669   2.730   6.106  14.486
 3418TIP3    H231670   2.708   5.964  14.440
 3419TIP3   OH231671   1.828   1.079   5.169
 3419TIP3    H131672   1.768   1.115   5.234
 3419TIP3    H231673   1.876   1.010   5.216
 3420TIP3   OH231674   5.021   6.559  15.569
 3420TIP3    H131675   5.067   6.574  15.652
 3420TIP3    H231676   4.949   6.622  15.570
 3421TIP3   OH231677   1.134   3.776   1.316
 3421TIP3    H131678   1.123   3.842   1.384
 3421TIP3    H231679   1.221   3.739   1.333
 3422TIP3   OH231680   0.691   0.860  11.705
 3422TIP3    H131681   0.694   0.793  11.774
 3422TIP3    H231682   0.730   0.938  11.745
 3423TIP3   OH231683   1.028   3.376  14.903
 3423TIP3    H131684   1.079   3.367  14.823
 3423TIP3    H231685   0.996   3.466  14.901
 3424TIP3   OH231686   6.522   2.998  11.751
 3424TIP3    H131687   6.510   3.011  11.845
 3424TIP3    H231688   6.435   2.978  11.717
 3425TIP3   OH231689   5.451   2.869  16.792
 3425TIP3    H131690   5.483   2.942  16.846
 3425TIP3    H231691   5.522   2.853  16.729
 3426TIP3   OH231692   3.690   4.082  12.290
 3426TIP3    H131693   3.752   4.076  12.362
 3426TIP3    H231694   3.626   4.013  12.308
 3427TIP3   OH231695   5.931   3.610   4.208
 3427TIP3    H131696   5.937   3.514   4.205
 3427TIP3    H231697   5.964   3.633   4.295
 3428TIP3   OH231698   3.421   5.404  12.066
 3428TIP3    H131699   3.422   5.308  12.068
 3428TIP3    H231700   3.396   5.429  12.155
 3429TIP3   OH231701   5.926   6.418  13.028
 3429TIP3    H131702   5.858   6.446  13.090
 3429TIP3    H231703   5.879   6.400  12.947
 3430TIP3   OH231704   2.837   5.980  13.458
 3430TIP3    H131705   2.893   5.915  13.501
 3430TIP3    H231706   2.763   5.930  13.425
 3431TIP3   OH231707   3.284   6.485   2.868
 3431TIP3    H131708   3.333   6.518   2.793
 3431TIP3    H231709   3.334   6.514   2.944
 3432TIP3   OH231710   1.212   0.663   5.947
 3432TIP3    H131711   1.228   0.605   6.022
 3432TIP3    H231712   1.181   0.604   5.878
 3433TIP3   OH231713   2.177   2.227  11.944
 3433TIP3    H131714   2.159   2.321  11.943
 3433TIP3    H231715   2.108   2.190  11.890
 3434TIP3   OH231716   2.118   2.472  11.288
 3434TIP3    H131717   2.046   2.532  11.309
 3434TIP3    H231718   2.176   2.476  11.364
 3435TIP3   OH231719   6.126   5.104   4.503
 3435TIP3    H131720   6.168   5.188   4.523
 3435TIP3    H231721   6.186   5.038   4.538
 3436TIP3   OH231722   5.526   0.697   0.743
 3436TIP3    H131723   5.578   0.621   0.767
 3436TIP3    H231724   5.564   0.770   0.793
 3437TIP3   OH231725   1.272   3.717   4.149
 3437TIP3    H131726   1.322   3.743   4.226
 3437TIP3    H231727   1.313   3.636   4.120
 3438TIP3   OH231728   0.157   5.720  12.317
 3438TIP3    H131729   0.203   5.790  12.271
 3438TIP3    H231730   0.154   5.749  12.408
 3439TIP3   OH231731   1.767   6.654  11.311
 3439TIP3    H131732   1.811   6.731  11.276
 3439TIP3    H231733   1.820   6.628  11.387
 3440TIP3   OH231734   2.034   6.521   0.210
 3440TIP3    H131735   1.953   6.478   0.239
 3440TIP3    H231736   2.010   6.563   0.127
 3441TIP3   OH231737   2.126   0.734  13.227
 3441TIP3    H131738   2.192   0.725  13.296
 3441TIP3    H231739   2.132   0.653  13.176
 3442TIP3   OH231740   4.762   4.105  13.640
 3442TIP3    H131741   4.784   4.013  13.628
 3442TIP3    H231742   4.764   4.142  13.551
 3443TIP3   OH231743   5.744   2.887  16.940
 3443TIP3    H131744   5.709   2.975  16.956
 3443TIP3    H231745   5.747   2.880  16.844
 3444TIP3   OH231746   4.417   2.791  13.377
 3444TIP3    H131747   4.424   2.805  13.283
 3444TIP3    H231748   4.457   2.869  13.416
 3445TIP3   OH231749   0.584   5.830  12.728
 3445TIP3    H131750   0.624   5.754  12.685
 3445TIP3    H231751   0.627   5.905  12.687
 3446TIP3   OH231752   0.028   6.372  13.313
 3446TIP3    H131753   0.039   6.281  13.342
 3446TIP3    H231754   0.024   6.423  13.394
 3447TIP3   OH231755   4.128   4.333   0.863
 3447TIP3    H131756   4.179   4.324   0.782
 3447TIP3    H231757   4.085   4.249   0.874
 3448TIP3   OH231758   3.654   1.829  11.399
 3448TIP3    H131759   3.680   1.894  11.464
 3448TIP3    H231760   3.735   1.803  11.356
 3449TIP3   OH231761   4.860   4.331  11.379
 3449TIP3    H131762   4.796   4.268  11.346
 3449TIP3    H231763   4.910   4.357  11.302
 3450TIP3   OH231764   4.656   0.897  16.573
 3450TIP3    H131765   4.572   0.934  16.548
 3450TIP3    H231766   4.645   0.872  16.665
 3451TIP3   OH231767   1.977   2.853   1.302
 3451TIP3    H131768   1.886   2.829   1.284
 3451TIP3    H231769   1.979   2.873   1.395
 3452TIP3   OH231770   1.417   4.103   5.706
 3452TIP3    H131771   1.342   4.093   5.764
 3452TIP3    H231772   1.493   4.094   5.764
 3453TIP3   OH231773   0.071   5.017  14.947
 3453TIP3    H131774   0.145   4.959  14.927
 3453TIP3    H231775   0.019   5.017  14.866
 3454TIP3   OH231776   1.437   2.350   6.651
 3454TIP3    H131777   1.393   2.435   6.646
 3454TIP3    H231778   1.471   2.336   6.563
 3455TIP3   OH231779   2.265   5.401   3.857
 3455TIP3    H131780   2.243   5.308   3.867
 3455TIP3    H231781   2.292   5.428   3.945
 3456TIP3   OH231782   6.400   1.100   4.671
 3456TIP3    H131783   6.383   1.006   4.665
 3456TIP3    H231784   6.434   1.123   4.585
 3457TIP3   OH231785   3.795   2.346   3.863
 3457TIP3    H131786   3.827   2.427   3.823
 3457TIP3    H231787   3.874   2.301   3.892
 3458TIP3   OH231788   0.133   2.013   3.941
 3458TIP3    H131789   0.127   1.942   3.877
 3458TIP3    H231790   0.127   2.093   3.889
 3459TIP3   OH231791   3.601   0.148  12.893
 3459TIP3    H131792   3.663   0.219  12.913
 3459TIP3    H231793   3.526   0.193  12.855
 3460TIP3   OH231794   1.114   1.406   1.196
 3460TIP3    H131795   1.088   1.477   1.254
 3460TIP3    H231796   1.199   1.431   1.163
 3461TIP3   OH231797   1.126   2.479  12.419
 3461TIP3    H131798   1.032   2.497  12.423
 3461TIP3    H231799   1.164   2.557  12.378
 3462TIP3   OH231800   2.512   6.540  13.870
 3462TIP3    H131801   2.529   6.490  13.791
 3462TIP3    H231802   2.420   6.564  13.864
 3463TIP3   OH231803   6.575   5.461  12.986
 3463TIP3    H131804   6.624   5.454  12.904
 3463TIP3    H231805   6.628   5.519  13.041
 3464TIP3   OH231806   4.306   2.890   4.805
 3464TIP3    H131807   4.345   2.958   4.750
 3464TIP3    H231808   4.290   2.932   4.889
 3465TIP3   OH231809   5.161   0.189   1.136
 3465TIP3    H131810   5.173   0.101   1.098
 3465TIP3    H231811   5.175   0.248   1.062
 3466TIP3   OH231812   3.349   5.752   5.475
 3466TIP3    H131813   3.307   5.812   5.537
 3466TIP3    H231814   3.364   5.806   5.397
 3467TIP3   OH231815   3.416   5.647  13.058
 3467TIP3    H131816   3.404   5.636  12.964
 3467TIP3    H231817   3.350   5.713  13.083
 3468TIP3   OH231818   1.619   1.092  12.593
 3468TIP3    H131819   1.600   1.019  12.652
 3468TIP3    H231820   1.657   1.159  12.650
 3469TIP3   OH231821   5.010   4.733  15.490
 3469TIP3    H131822   5.011   4.771  15.578
 3469TIP3    H231823   5.102   4.733  15.463
 3470TIP3   OH231824   4.000   5.843   5.560
 3470TIP3    H131825   3.947   5.846   5.640
 3470TIP3    H231826   4.004   5.934   5.530
 3471TIP3   OH231827   3.377   1.234  13.978
 3471TIP3    H131828   3.309   1.280  14.028
 3471TIP3    H231829   3.341   1.227  13.890
 3472TIP3   OH231830   1.216   1.941   1.626
 3472TIP3    H131831   1.304   1.935   1.664
 3472TIP3    H231832   1.191   1.850   1.611
 3473TIP3   OH231833   0.448   0.903  11.079
 3473TIP3    H131834   0.454   0.820  11.128
 3473TIP3    H231835   0.375   0.949  11.121
 3474TIP3   OH231836   3.983   0.735  15.420
 3474TIP3    H131837   4.053   0.716  15.482
 3474TIP3    H231838   3.991   0.829  15.403
 3475TIP3   OH231839   0.382   6.736   0.998
 3475TIP3    H131840   0.303   6.790   1.000
 3475TIP3    H231841   0.354   6.655   0.955
 3476TIP3   OH231842   6.198   0.486  13.513
 3476TIP3    H131843   6.198   0.485  13.417
 3476TIP3    H231844   6.215   0.577  13.536
 3477TIP3   OH231845   5.833   2.170  10.785
 3477TIP3    H131846   5.781   2.094  10.758
 3477TIP3    H231847   5.772   2.243  10.782
 3478TIP3   OH231848   4.710   6.747   5.777
 3478TIP3    H131849   4.667   6.690   5.841
 3478TIP3    H231850   4.801   6.717   5.775
 3479TIP3   OH231851   1.264   1.156  11.425
 3479TIP3    H131852   1.224   1.206  11.353
 3479TIP3    H231853   1.250   1.065  11.400
 3480TIP3   OH231854   2.599   4.329   1.960
 3480TIP3    H131855   2.594   4.247   1.910
 3480TIP3    H231856   2.509   4.348   1.985
 3481TIP3   OH231857   4.595   0.612  15.622
 3481TIP3    H131858   4.684   0.581  15.605
 3481TIP3    H231859   4.596   0.638  15.714
 3482TIP3   OH231860   1.783   5.711  16.480
 3482TIP3    H131861   1.807   5.690  16.390
 3482TIP3    H231862   1.867   5.717  16.527
 3483TIP3   OH231863   4.059   3.336  14.485
 3483TIP3    H131864   4.012   3.410  14.448
 3483TIP3    H231865   4.010   3.313  14.564
 3484TIP3   OH231866   4.564   1.630  15.525
 3484TIP3    H131867   4.656   1.619  15.502
 3484TIP3    H231868   4.563   1.698  15.592
 3485TIP3   OH231869   5.834   4.949   1.230
 3485TIP3    H131870   5.911   4.956   1.173
 3485TIP3    H231871   5.764   4.919   1.171
 3486TIP3   OH231872   0.082   2.029  15.854
 3486TIP3    H131873   0.098   2.089  15.926
 3486TIP3    H231874   0.095   1.942  15.892
 3487TIP3   OH231875   3.384   3.195   6.856
 3487TIP3    H131876   3.339   3.130   6.802
 3487TIP3    H231877   3.314   3.244   6.898
 3488TIP3   OH231878   5.614   1.682  11.806
 3488TIP3    H131879   5.663   1.724  11.736
 3488TIP3    H231880   5.585   1.753  11.862
 3489TIP3   OH231881   1.597   6.628   3.051
 3489TIP3    H131882   1.531   6.560   3.066
 3489TIP3    H231883   1.616   6.662   3.139
 3490TIP3   OH231884   1.419   1.731  15.542
 3490TIP3    H131885   1.362   1.656  15.554
 3490TIP3    H231886   1.506   1.700  15.567
 3491TIP3   OH231887   4.475   6.593   4.515
 3491TIP3    H131888   4.561   6.603   4.474
 3491TIP3    H231889   4.491   6.535   4.590
 3492TIP3   OH231890   6.097   2.062  17.108
 3492TIP3    H131891   6.187   2.046  17.080
 3492TIP3    H231892   6.056   1.976  17.107
 3493TIP3   OH231893   1.192   3.788  16.643
 3493TIP3    H131894   1.242   3.870  16.651
 3493TIP3    H231895   1.231   3.743  16.568
 3494TIP3   OH231896   6.710   5.678   3.735
 3494TIP3    H131897   6.796   5.663   3.697
 3494TIP3    H231898   6.650   5.634   3.675
 3495TIP3   OH231899   5.247   4.625  16.972
 3495TIP3    H131900   5.182   4.608  17.040
 3495TIP3    H231901   5.295   4.542  16.965
 3496TIP3   OH231902   5.534   1.139   0.454
 3496TIP3    H131903   5.543   1.225   0.411
 3496TIP3    H231904   5.583   1.079   0.398
 3497TIP3   OH231905   5.725   3.723   3.057
 3497TIP3    H131906   5.764   3.636   3.055
 3497TIP3    H231907   5.632   3.707   3.042
 3498TIP3   OH231908   4.144   3.691  12.411
 3498TIP3    H131909   4.231   3.652  12.417
 3498TIP3    H231910   4.153   3.758  12.342
 3499TIP3   OH231911   0.245   4.428   6.378
 3499TIP3    H131912   0.283   4.492   6.438
 3499TIP3    H231913   0.318   4.401   6.322
 3500TIP3   OH231914   5.550   5.051   4.063
 3500TIP3    H131915   5.639   5.033   4.091
 3500TIP3    H231916   5.525   5.130   4.111
 3501TIP3   OH231917   5.654   5.271   4.491
 3501TIP3    H131918   5.609   5.210   4.433
 3501TIP3    H231919   5.591   5.292   4.559
 3502TIP3   OH231920   1.071   5.865   3.514
 3502TIP3    H131921   1.029   5.823   3.589
 3502TIP3    H231922   0.999   5.889   3.456
 3503TIP3   OH231923   2.687   5.765  13.022
 3503TIP3    H131924   2.620   5.746  13.087
 3503TIP3    H231925   2.640   5.771  12.940
 3504TIP3   OH231926   5.980   5.655  15.122
 3504TIP3    H131927   6.058   5.701  15.090
 3504TIP3    H231928   6.003   5.628  15.211
 3505TIP3   OH231929   0.937   4.587   0.200
 3505TIP3    H131930   0.879   4.527   0.153
 3505TIP3    H231931   0.896   4.599   0.285
 3506TIP3   OH231932   0.628   5.756  15.653
 3506TIP3    H131933   0.605   5.750  15.746
 3506TIP3    H231934   0.641   5.850  15.638
 3507TIP3   OH231935   2.992   4.025   1.953
 3507TIP3    H131936   3.077   4.055   1.985
 3507TIP3    H231937   2.941   4.007   2.032
 3508TIP3   OH231938   5.160   3.942   0.425
 3508TIP3    H131939   5.187   4.034   0.432
 3508TIP3    H231940   5.097   3.930   0.496
 3509TIP3   OH231941   3.863   5.411  13.531
 3509TIP3    H131942   3.827   5.495  13.503
 3509TIP3    H231943   3.787   5.361  13.559
 3510TIP3   OH231944   1.788   6.132  11.184
 3510TIP3    H131945   1.853   6.123  11.253
 3510TIP3    H231946   1.707   6.101  11.223
 3511TIP3   OH231947   0.450   0.767  16.947
 3511TIP3    H131948   0.523   0.795  17.003
 3511TIP3    H231949   0.458   0.672  16.943
 3512TIP3   OH231950   2.206   2.208  13.008
 3512TIP3    H131951   2.286   2.167  13.038
 3512TIP3    H231952   2.232   2.298  12.985
 3513TIP3   OH231953   3.702   0.224  14.142
 3513TIP3    H131954   3.726   0.194  14.230
 3513TIP3    H231955   3.785   0.244  14.099
 3514TIP3   OH231956   0.639   2.645  17.154
 3514TIP3    H131957   0.692   2.631  17.232
 3514TIP3    H231958   0.685   2.598  17.084
 3515TIP3   OH231959   1.935   1.875  11.854
 3515TIP3    H131960   1.923   1.962  11.814
 3515TIP3    H231961   1.849   1.833  11.845
 3516TIP3   OH231962   3.428   4.617  15.894
 3516TIP3    H131963   3.500   4.568  15.855
 3516TIP3    H231964   3.466   4.703  15.913
 3517TIP3   OH231965   3.842   2.252  15.041
 3517TIP3    H131966   3.924   2.301  15.027
 3517TIP3    H231967   3.831   2.252  15.136
 3518TIP3   OH231968   3.225   6.254  16.281
 3518TIP3    H131969   3.166   6.285  16.213
 3518TIP3    H231970   3.276   6.185  16.240
 3519TIP3   OH231971   1.049   1.824   1.201
 3519TIP3    H131972   1.033   1.895   1.263
 3519TIP3    H231973   1.130   1.848   1.157
 3520TIP3   OH231974   1.423   2.121   5.685
 3520TIP3    H131975   1.391   2.194   5.737
 3520TIP3    H231976   1.498   2.087   5.733
 3521TIP3   OH231977   3.460   6.785   0.313
 3521TIP3    H131978   3.522   6.728   0.267
 3521TIP3    H231979   3.374   6.760   0.279
 3522TIP3   OH231980   2.705   0.167   6.717
 3522TIP3    H131981   2.730   0.076   6.731
 3522TIP3    H231982   2.714   0.181   6.623
 3523TIP3   OH231983   2.919   6.240   0.455
 3523TIP3    H131984   2.839   6.217   0.501
 3523TIP3    H231985   2.913   6.335   0.441
 3524TIP3   OH231986   4.433   2.108  11.748
 3524TIP3    H131987   4.383   2.125  11.668
 3524TIP3    H231988   4.457   2.015  11.742
 3525TIP3   OH231989   6.759   5.841   6.432
 3525TIP3    H131990   6.849   5.864   6.453
 3525TIP3    H231991   6.707   5.911   6.471
 3526TIP3   OH231992   0.259   1.305   3.392
 3526TIP3    H131993   0.238   1.225   3.441
 3526TIP3    H231994   0.215   1.375   3.439
 3527TIP3   OH231995   5.564   5.696  16.824
 3527TIP3    H131996   5.536   5.659  16.740
 3527TIP3    H231997   5.555   5.790  16.812
 3528TIP3   OH231998   4.093   0.139   5.243
 3528TIP3    H131999   4.150   0.132   5.167
 3528TIP3    H232000   4.020   0.194   5.214
 3529TIP3   OH232001   2.773   3.181   1.661
 3529TIP3    H132002   2.818   3.130   1.728
 3529TIP3    H232003   2.715   3.118   1.617
 3530TIP3   OH232004   3.362   6.302  15.634
 3530TIP3    H132005   3.390   6.379  15.583
 3530TIP3    H232006   3.442   6.271  15.676
 3531TIP3   OH232007   1.771   6.764   4.052
 3531TIP3    H132008   1.813   6.845   4.023
 3531TIP3    H232009   1.682   6.769   4.016
 3532TIP3   OH232010   5.388   5.324  14.120
 3532TIP3    H132011   5.351   5.389  14.180
 3532TIP3    H232012   5.312   5.275  14.089
 3533TIP3   OH232013   0.489   4.320  11.277
 3533TIP3    H132014   0.500   4.361  11.192
 3533TIP3    H232015   0.563   4.353  11.329
 3534TIP3   OH232016   0.804   5.627  12.114
 3534TIP3    H132017   0.735   5.561  12.128
 3534TIP3    H232018   0.878   5.595  12.164
 3535TIP3   OH232019   0.588   4.872   1.428
 3535TIP3    H132020   0.683   4.879   1.437
 3535TIP3    H232021   0.561   4.954   1.389
 3536TIP3   OH232022   4.659   0.545  11.518
 3536TIP3    H132023   4.640   0.544  11.424
 3536TIP3    H232024   4.603   0.613  11.553
 3537TIP3   OH232025   1.672   1.856  12.558
 3537TIP3    H132026   1.764   1.859  12.533
 3537TIP3    H232027   1.642   1.947  12.547
 3538TIP3   OH232028   5.172   4.520   5.090
 3538TIP3    H132029   5.201   4.435   5.124
 3538TIP3    H232030   5.135   4.565   5.166
 3539TIP3   OH232031   5.295   1.864   2.439
 3539TIP3    H132032   5.293   1.957   2.460
 3539TIP3    H232033   5.348   1.825   2.508
 3540TIP3   OH232034   2.767   6.721   3.137
 3540TIP3    H132035   2.689   6.752   3.090
 3540TIP3    H232036   2.841   6.759   3.089
 3541TIP3   OH232037   2.681   1.326  15.084
 3541TIP3    H132038   2.662   1.420  15.079
 3541TIP3    H232039   2.659   1.302  15.174
 3542TIP3   OH232040   1.196   3.473   3.204
 3542TIP3    H132041   1.206   3.551   3.258
 3542TIP3    H232042   1.111   3.437   3.230
 3543TIP3   OH232043   0.023   0.975   1.124
 3543TIP3    H132044   0.025   1.006   1.033
 3543TIP3    H232045   0.097   0.915   1.130
 3544TIP3   OH232046   1.642   6.142  11.531
 3544TIP3    H132047   1.657   6.053  11.500
 3544TIP3    H232048   1.658   6.197  11.454
 3545TIP3   OH232049   5.927   1.745   0.587
 3545TIP3    H132050   5.948   1.694   0.509
 3545TIP3    H232051   5.959   1.833   0.567
 3546TIP3   OH232052   1.535   0.614   4.354
 3546TIP3    H132053   1.473   0.652   4.291
 3546TIP3    H232054   1.539   0.677   4.426
 3547TIP3   OH232055   1.616   0.019   3.643
 3547TIP3    H132056   1.705   0.015   3.678
 3547TIP3    H232057   1.561  -0.015   3.713
 3548TIP3   OH232058   2.196   3.949  11.428
 3548TIP3    H132059   2.206   4.024  11.370
 3548TIP3    H232060   2.283   3.938  11.468
 3549TIP3   OH232061   5.616   4.510  14.628
 3549TIP3    H132062   5.693   4.466  14.593
 3549TIP3    H232063   5.543   4.456  14.598
 3550TIP3   OH232064   4.686   1.743  12.291
 3550TIP3    H132065   4.754   1.727  12.227
 3550TIP3    H232066   4.688   1.666  12.348
 3551TIP3   OH232067   6.199   1.843  15.452
 3551TIP3    H132068   6.192   1.757  15.409
 3551TIP3    H232069   6.119   1.850  15.504
 3552TIP3   OH232070   1.459   4.221   2.576
 3552TIP3    H132071   1.394   4.288   2.597
 3552TIP3    H232072   1.416   4.166   2.510
 3553TIP3   OH232073   2.887   6.477   3.127
 3553TIP3    H132074   2.978   6.494   3.103
 3553TIP3    H232075   2.848   6.564   3.137
 3554TIP3   OH232076   5.505   1.949   4.923
 3554TIP3    H132077   5.571   1.937   4.991
 3554TIP3    H232078   5.462   1.864   4.916
 3555TIP3   OH232079   5.710   1.730   0.126
 3555TIP3    H132080   5.715   1.777   0.043
 3555TIP3    H232081   5.729   1.639   0.103
 3556TIP3   OH232082   3.640   6.699  15.162
 3556TIP3    H132083   3.549   6.683  15.139
 3556TIP3    H232084   3.663   6.627  15.221
 3557TIP3   OH232085   1.280   3.463  11.826
 3557TIP3    H132086   1.306   3.386  11.775
 3557TIP3    H232087   1.297   3.439  11.917
 3558TIP3   OH232088   1.569   1.667   2.886
 3558TIP3    H132089   1.642   1.646   2.828
 3558TIP3    H232090   1.530   1.745   2.849
 3559TIP3   OH232091   3.752   6.668  12.328
 3559TIP3    H132092   3.816   6.734  12.301
 3559TIP3    H232093   3.733   6.620  12.248
 3560TIP3   OH232094   3.134   1.254   4.736
 3560TIP3    H132095   3.143   1.170   4.781
 3560TIP3    H232096   3.123   1.232   4.644
 3561TIP3   OH232097   5.136   3.584  12.772
 3561TIP3    H132098   5.056   3.591  12.720
 3561TIP3    H232099   5.174   3.672  12.771
 3562TIP3   OH232100   4.609   6.636  11.043
 3562TIP3    H132101   4.668   6.561  11.031
 3562TIP3    H232102   4.558   6.641  10.962
 3563TIP3   OH232103   1.806   4.891  14.869
 3563TIP3    H132104   1.788   4.887  14.963
 3563TIP3    H232105   1.894   4.928  14.863
 3564TIP3   OH232106   5.442   4.202  10.661
 3564TIP3    H132107   5.444   4.280  10.717
 3564TIP3    H232108   5.363   4.156  10.688
 3565TIP3   OH232109   1.958   1.294  16.584
 3565TIP3    H132110   1.882   1.311  16.639
 3565TIP3    H232111   1.963   1.370  16.526
 3566TIP3   OH232112   2.920   4.029   5.351
 3566TIP3    H132113   2.969   4.077   5.418
 3566TIP3    H232114   2.985   4.007   5.285
 3567TIP3   OH232115   4.732   5.315   0.967
 3567TIP3    H132116   4.700   5.243   1.022
 3567TIP3    H232117   4.653   5.356   0.931
 3568TIP3   OH232118   1.293   3.774  11.659
 3568TIP3    H132119   1.376   3.803  11.696
 3568TIP3    H232120   1.264   3.703  11.718
 3569TIP3   OH232121   5.686   5.512  12.393
 3569TIP3    H132122   5.604   5.494  12.440
 3569TIP3    H232123   5.744   5.550  12.459
 3570TIP3   OH232124   4.255   0.725  15.869
 3570TIP3    H132125   4.265   0.673  15.948
 3570TIP3    H232126   4.185   0.787  15.890
 3571TIP3   OH232127   5.516   3.191   2.828
 3571TIP3    H132128   5.574   3.124   2.790
 3571TIP3    H232129   5.474   3.232   2.752
 3572TIP3   OH232130   0.657   6.517   3.101
 3572TIP3    H132131   0.610   6.570   3.166
 3572TIP3    H232132   0.644   6.427   3.131
 3573TIP3   OH232133   2.078   2.791  16.677
 3573TIP3    H132134   2.168   2.805  16.648
 3573TIP3    H232135   2.041   2.729  16.614
 3574TIP3   OH232136   0.839   2.462   3.166
 3574TIP3    H132137   0.913   2.520   3.181
 3574TIP3    H232138   0.836   2.406   3.244
 3575TIP3   OH232139   5.480   0.791  16.394
 3575TIP3    H132140   5.478   0.817  16.486
 3575TIP3    H232141   5.399   0.741  16.381
 3576TIP3   OH232142   0.990   5.789  14.554
 3576TIP3    H132143   0.974   5.741  14.472
 3576TIP3    H232144   1.066   5.746  14.593
 3577TIP3   OH232145   1.705   2.201  14.368
 3577TIP3    H132146   1.776   2.261  14.388
 3577TIP3    H232147   1.628   2.258  14.357
 3578TIP3   OH232148   3.062   4.438  12.595
 3578TIP3    H132149   3.118   4.377  12.643
 3578TIP3    H232150   3.069   4.409  12.504
 3579TIP3   OH232151   4.785   5.376  14.669
 3579TIP3    H132152   4.722   5.383  14.741
 3579TIP3    H232153   4.761   5.295  14.623
 3580TIP3   OH232154   6.397   2.137   4.396
 3580TIP3    H132155   6.386   2.166   4.306
 3580TIP3    H232156   6.361   2.049   4.398
 3581TIP3   OH232157   1.285   1.094   2.846
 3581TIP3    H132158   1.304   1.005   2.874
 3581TIP3    H232159   1.193   1.107   2.868
 3582TIP3   OH232160   6.037   3.849   5.687
 3582TIP3    H132161   6.084   3.924   5.722
 3582TIP3    H232162   5.963   3.837   5.747
 3583TIP3   OH232163   3.324   5.152  11.479
 3583TIP3    H132164   3.379   5.207  11.535
 3583TIP3    H232165   3.258   5.115  11.538
 3584TIP3   OH232166   6.737   4.075   0.623
 3584TIP3    H132167   6.718   4.010   0.691
 3584TIP3    H232168   6.684   4.151   0.648
 3585TIP3   OH232169   5.875   3.918   0.982
 3585TIP3    H132170   5.821   3.839   0.972
 3585TIP3    H232171   5.923   3.904   1.063
 3586TIP3   OH232172   4.326   5.777   4.024
 3586TIP3    H132173   4.297   5.758   3.935
 3586TIP3    H232174   4.419   5.757   4.024
 3587TIP3   OH232175   4.498   0.149  12.177
 3587TIP3    H132176   4.529   0.059  12.169
 3587TIP3    H232177   4.578   0.202  12.179
 3588TIP3   OH232178   2.006   5.718  11.356
 3588TIP3    H132179   1.984   5.688  11.444
 3588TIP3    H232180   2.100   5.735  11.359
 3589TIP3   OH232181   0.039   0.881  10.815
 3589TIP3    H132182  -0.045   0.839  10.798
 3589TIP3    H232183   0.104   0.820  10.782
 3590TIP3   OH232184   0.160   6.453   4.520
 3590TIP3    H132185   0.207   6.411   4.449
 3590TIP3    H232186   0.085   6.396   4.537
 3591TIP3   OH232187   0.206   2.454  11.861
 3591TIP3    H132188   0.131   2.460  11.802
 3591TIP3    H232189   0.280   2.434  11.803
 3592TIP3   OH232190   4.819   0.418   4.413
 3592TIP3    H132191   4.872   0.497   4.403
 3592TIP3    H232192   4.733   0.450   4.440
 3593TIP3   OH232193   6.661   0.164  16.866
 3593TIP3    H132194   6.661   0.255  16.897
 3593TIP3    H232195   6.700   0.169  16.778
 3594TIP3   OH232196   2.308   3.244   5.466
 3594TIP3    H132197   2.319   3.264   5.559
 3594TIP3    H232198   2.336   3.324   5.421
 3595TIP3   OH232199   0.077   3.767  16.310
 3595TIP3    H132200   0.027   3.799  16.235
 3595TIP3    H232201   0.020   3.701  16.350
 3596TIP3   OH232202   5.367   6.535  11.568
 3596TIP3    H132203   5.452   6.542  11.609
 3596TIP3    H232204   5.316   6.607  11.605
 3597TIP3   OH232205   4.882   0.292   4.129
 3597TIP3    H132206   4.940   0.320   4.200
 3597TIP3    H232207   4.809   0.248   4.172
 3598TIP3   OH232208   6.274   4.410  15.878
 3598TIP3    H132209   6.266   4.475  15.808
 3598TIP3    H232210   6.320   4.336  15.837
 3599TIP3   OH232211   2.862   4.496   5.057
 3599TIP3    H132212   2.880   4.513   5.150
 3599TIP3    H232213   2.766   4.489   5.053
 3600TIP3   OH232214   2.050   1.648   0.132
 3600TIP3    H132215   2.042   1.700   0.052
 3600TIP3    H232216   1.979   1.584   0.125
 3601TIP3   OH232217   1.992   0.526  15.857
 3601TIP3    H132218   1.950   0.479  15.784
 3601TIP3    H232219   2.086   0.521  15.838
 3602TIP3   OH232220   4.337   4.242   6.521
 3602TIP3    H132221   4.259   4.274   6.476
 3602TIP3    H232222   4.320   4.149   6.536
 3603TIP3   OH232223   0.518   5.820   1.117
 3603TIP3    H132224   0.539   5.883   1.048
 3603TIP3    H232225   0.544   5.863   1.198
 3604TIP3   OH232226   0.563   3.697   0.975
 3604TIP3    H132227   0.598   3.781   0.944
 3604TIP3    H232228   0.536   3.714   1.065
 3605TIP3   OH232229   3.418   3.455   5.255
 3605TIP3    H132230   3.471   3.529   5.283
 3605TIP3    H232231   3.342   3.456   5.313
 3606TIP3   OH232232   3.714   1.741  14.730
 3606TIP3    H132233   3.755   1.812  14.681
 3606TIP3    H232234   3.621   1.764  14.731
 3607TIP3   OH232235   1.420   0.512  15.226
 3607TIP3    H132236   1.368   0.431  15.228
 3607TIP3    H232237   1.435   0.528  15.133
 3608TIP3   OH232238   1.948   1.956  15.069
 3608TIP3    H132239   1.966   2.041  15.030
 3608TIP3    H232240   2.034   1.923  15.096
 3609TIP3   OH232241   0.408   1.832   4.199
 3609TIP3    H132242   0.337   1.893   4.219
 3609TIP3    H232243   0.457   1.825   4.281
 3610TIP3   OH232244   2.807   6.394  11.603
 3610TIP3    H132245   2.746   6.460  11.570
 3610TIP3    H232246   2.873   6.385  11.534
 3611TIP3   OH232247   0.183   0.427  16.378
 3611TIP3    H132248   0.257   0.405  16.435
 3611TIP3    H232249   0.127   0.483  16.433
 3612TIP3   OH232250   3.500   4.220   2.252
 3612TIP3    H132251   3.439   4.260   2.191
 3612TIP3    H232252   3.460   4.232   2.338
 3613TIP3   OH232253   4.321   6.606   1.224
 3613TIP3    H132254   4.247   6.647   1.180
 3613TIP3    H232255   4.299   6.612   1.317
 3614TIP3   OH232256   0.443   1.332  13.069
 3614TIP3    H132257   0.380   1.261  13.051
 3614TIP3    H232258   0.388   1.409  13.086
 3615TIP3   OH232259   0.746   5.048  12.337
 3615TIP3    H132260   0.762   5.141  12.324
 3615TIP3    H232261   0.688   5.044  12.413
 3616TIP3   OH232262   6.624   1.314  14.693
 3616TIP3    H132263   6.616   1.350  14.605
 3616TIP3    H232264   6.645   1.390  14.748
 3617TIP3   OH232265   5.524   4.529   1.334
 3617TIP3    H132266   5.453   4.474   1.366
 3617TIP3    H232267   5.581   4.469   1.286
 3618TIP3   OH232268   6.012   4.353  15.046
 3618TIP3    H132269   5.922   4.321  15.050
 3618TIP3    H232270   6.064   4.275  15.025
 3619TIP3   OH232271   3.342   1.563   2.001
 3619TIP3    H132272   3.386   1.645   2.023
 3619TIP3    H232273   3.250   1.588   1.988
 3620TIP3   OH232274   1.845   2.703  12.654
 3620TIP3    H132275   1.938   2.724  12.639
 3620TIP3    H232276   1.822   2.647  12.580
 3621TIP3   OH232277   6.120   3.509  16.297
 3621TIP3    H132278   6.073   3.456  16.233
 3621TIP3    H232279   6.062   3.511  16.374
 3622TIP3   OH232280   4.451   5.106   3.835
 3622TIP3    H132281   4.511   5.138   3.903
 3622TIP3    H232282   4.481   5.017   3.817
 3623TIP3   OH232283   1.060   1.797  11.555
 3623TIP3    H132284   1.086   1.874  11.505
 3623TIP3    H232285   1.036   1.831  11.642
 3624TIP3   OH232286   3.773   0.992  14.176
 3624TIP3    H132287   3.758   1.068  14.120
 3624TIP3    H232288   3.827   1.024  14.248
 3625TIP3   OH232289   3.932   4.032  13.092
 3625TIP3    H132290   3.976   4.100  13.142
 3625TIP3    H232291   3.865   3.997  13.151
 3626TIP3   OH232292   2.113   4.311  17.073
 3626TIP3    H132293   2.040   4.338  17.017
 3626TIP3    H232294   2.150   4.236  17.028
 3627TIP3   OH232295   3.266   6.019   1.853
 3627TIP3    H132296   3.355   6.017   1.888
 3627TIP3    H232297   3.240   6.111   1.857
 3628TIP3   OH232298   3.616   6.729   3.201
 3628TIP3    H132299   3.555   6.779   3.254
 3628TIP3    H232300   3.679   6.793   3.169
 3629TIP3   OH232301   5.128   1.543  12.688
 3629TIP3    H132302   5.207   1.568  12.735
 3629TIP3    H232303   5.141   1.450  12.667
 3630TIP3   OH232304   1.539   3.387  12.670
 3630TIP3    H132305   1.484   3.465  12.659
 3630TIP3    H232306   1.629   3.421  12.671
 3631TIP3   OH232307   4.382   2.255   0.175
 3631TIP3    H132308   4.346   2.333   0.217
 3631TIP3    H232309   4.449   2.288   0.115
 3632TIP3   OH232310   3.416   2.878   3.226
 3632TIP3    H132311   3.375   2.830   3.299
 3632TIP3    H232312   3.507   2.890   3.253
 3633TIP3   OH232313   3.141   3.645  14.131
 3633TIP3    H132314   3.180   3.703  14.066
 3633TIP3    H232315   3.052   3.677  14.143
 3634TIP3   OH232316   0.131   4.459   4.010
 3634TIP3    H132317   0.066   4.499   3.952
 3634TIP3    H232318   0.207   4.443   3.954
 3635TIP3   OH232319   4.906   2.970   1.990
 3635TIP3    H132320   4.951   2.990   1.908
 3635TIP3    H232321   4.920   3.048   2.044
 3636TIP3   OH232322   6.745   2.225  13.522
 3636TIP3    H132323   6.761   2.143  13.568
 3636TIP3    H232324   6.651   2.224  13.504
 3637TIP3   OH232325   1.916   1.300   4.248
 3637TIP3    H132326   1.920   1.254   4.332
 3637TIP3    H232327   2.004   1.335   4.235
 3638TIP3   OH232328   1.200   4.855   3.575
 3638TIP3    H132329   1.148   4.909   3.634
 3638TIP3    H232330   1.272   4.822   3.628
 3639TIP3   OH232331   4.983   3.268  15.886
 3639TIP3    H132332   5.036   3.198  15.923
 3639TIP3    H232333   5.026   3.349  15.917
 3640TIP3   OH232334   5.085   6.216   5.241
 3640TIP3    H132335   5.093   6.311   5.254
 3640TIP3    H232336   5.058   6.207   5.149
 3641TIP3   OH232337   6.496   3.415   3.491
 3641TIP3    H132338   6.421   3.386   3.439
 3641TIP3    H232339   6.495   3.358   3.568
 3642TIP3   OH232340   4.754   0.528   1.536
 3642TIP3    H132341   4.777   0.439   1.563
 3642TIP3    H232342   4.836   0.562   1.499
 3643TIP3   OH232343   4.620   3.223   1.298
 3643TIP3    H132344   4.639   3.313   1.325
 3643TIP3    H232345   4.598   3.178   1.380
 3644TIP3   OH232346   2.050   5.226   5.055
 3644TIP3    H132347   2.066   5.221   4.961
 3644TIP3    H232348   1.983   5.161   5.072
 3645TIP3   OH232349   4.810   2.683   6.070
 3645TIP3    H132350   4.797   2.608   6.129
 3645TIP3    H232351   4.786   2.650   5.984
 3646TIP3   OH232352   2.696   2.925   0.906
 3646TIP3    H132353   2.602   2.911   0.914
 3646TIP3    H232354   2.735   2.867   0.971
 3647TIP3   OH232355   0.181   2.715  16.046
 3647TIP3    H132356   0.165   2.797  15.998
 3647TIP3    H232357   0.257   2.734  16.100
 3648TIP3   OH232358   5.504   5.053  13.426
 3648TIP3    H132359   5.478   5.120  13.362
 3648TIP3    H232360   5.523   4.976  13.373
 3649TIP3   OH232361   3.119   4.601  15.149
 3649TIP3    H132362   3.099   4.585  15.242
 3649TIP3    H232363   3.109   4.695  15.139
 3650TIP3   OH232364   4.000   3.185  16.370
 3650TIP3    H132365   4.016   3.104  16.418
 3650TIP3    H232366   3.905   3.196  16.370
 3651TIP3   OH232367   1.202   6.431   0.872
 3651TIP3    H132368   1.184   6.518   0.837
 3651TIP3    H232369   1.177   6.437   0.965
 3652TIP3   OH232370   1.879   4.245   5.564
 3652TIP3    H132371   1.954   4.300   5.540
 3652TIP3    H232372   1.834   4.230   5.481
 3653TIP3   OH232373   0.745   3.438   5.988
 3653TIP3    H132374   0.695   3.377   6.043
 3653TIP3    H232375   0.702   3.434   5.903
 3654TIP3   OH232376   3.435   2.778  17.114
 3654TIP3    H132377   3.470   2.759  17.027
 3654TIP3    H232378   3.512   2.798  17.167
 3655TIP3   OH232379   2.391   3.802   3.144
 3655TIP3    H132380   2.312   3.757   3.170
 3655TIP3    H232381   2.440   3.737   3.092
 3656TIP3   OH232382   0.849   0.543   2.551
 3656TIP3    H132383   0.887   0.474   2.497
 3656TIP3    H232384   0.902   0.544   2.630
 3657TIP3   OH232385   3.271   5.852   3.501
 3657TIP3    H132386   3.285   5.813   3.588
 3657TIP3    H232387   3.321   5.796   3.442
 3658TIP3   OH232388   1.758   0.800   2.045
 3658TIP3    H132389   1.693   0.814   2.114
 3658TIP3    H232390   1.822   0.741   2.084
 3659TIP3   OH232391   6.363   1.386   6.062
 3659TIP3    H132392   6.361   1.290   6.061
 3659TIP3    H232393   6.284   1.411   6.109
 3660TIP3   OH232394   4.891   2.974   2.953
 3660TIP3    H132395   4.858   2.959   3.041
 3660TIP3    H232396   4.984   2.951   2.958
 3661TIP3   OH232397   1.348   5.506  11.087
 3661TIP3    H132398   1.260   5.486  11.057
 3661TIP3    H232399   1.404   5.485  11.011
 3662TIP3   OH232400   2.363   2.539   3.412
 3662TIP3    H132401   2.305   2.476   3.369
 3662TIP3    H232402   2.387   2.497   3.494
 3663TIP3   OH232403   3.507   1.946  14.454
 3663TIP3    H132404   3.481   1.864  14.413
 3663TIP3    H232405   3.438   2.008  14.431
 3664TIP3   OH232406   1.531   4.195   6.191
 3664TIP3    H132407   1.467   4.129   6.217
 3664TIP3    H232408   1.616   4.156   6.210
 3665TIP3   OH232409   3.591   0.841   4.175
 3665TIP3    H132410   3.593   0.761   4.124
 3665TIP3    H232411   3.682   0.854   4.203
 3666TIP3   OH232412   6.424   6.709   1.652
 3666TIP3    H132413   6.431   6.696   1.558
 3666TIP3    H232414   6.428   6.804   1.664
 3667TIP3   OH232415   0.383   3.482  15.617
 3667TIP3    H132416   0.442   3.478  15.692
 3667TIP3    H232417   0.332   3.562  15.631
 3668TIP3   OH232418   2.077   5.564  11.915
 3668TIP3    H132419   2.094   5.593  12.005
 3668TIP3    H232420   2.144   5.608  11.863
 3669TIP3   OH232421   1.752   3.804  17.019
 3669TIP3    H132422   1.821   3.764  16.965
 3669TIP3    H232423   1.797   3.873  17.067
 3670TIP3   OH232424   2.213   4.355  13.262
 3670TIP3    H132425   2.296   4.394  13.289
 3670TIP3    H232426   2.233   4.264  13.243
 3671TIP3   OH232427   2.603   0.026   1.079
 3671TIP3    H132428   2.508   0.037   1.068
 3671TIP3    H232429   2.631  -0.022   1.001
 3672TIP3   OH232430   6.668   2.073  16.149
 3672TIP3    H132431   6.763   2.086  16.158
 3672TIP3    H232432   6.639   2.149  16.098
 3673TIP3   OH232433   5.226   1.680   0.874
 3673TIP3    H132434   5.276   1.626   0.936
 3673TIP3    H232435   5.291   1.739   0.836
 3674TIP3   OH232436   6.242   1.071  13.056
 3674TIP3    H132437   6.201   1.102  13.137
 3674TIP3    H232438   6.251   0.976  13.069
 3675TIP3   OH232439   6.095   3.414   1.704
 3675TIP3    H132440   6.034   3.467   1.654
 3675TIP3    H232441   6.040   3.349   1.749
 3676TIP3   OH232442   1.497   2.544  12.359
 3676TIP3    H132443   1.454   2.469  12.401
 3676TIP3    H232444   1.432   2.614  12.362
 3677TIP3   OH232445   1.137   2.871   0.305
 3677TIP3    H132446   1.202   2.817   0.260
 3677TIP3    H232447   1.164   2.867   0.397
 3678TIP3   OH232448   2.316   2.266   6.598
 3678TIP3    H132449   2.270   2.189   6.630
 3678TIP3    H232450   2.358   2.304   6.675
 3679TIP3   OH232451   4.583   2.950   3.494
 3679TIP3    H132452   4.518   2.910   3.436
 3679TIP3    H232453   4.666   2.939   3.447
 3680TIP3   OH232454   0.727   3.719  13.882
 3680TIP3    H132455   0.770   3.634  13.896
 3680TIP3    H232456   0.641   3.709  13.921
 3681TIP3   OH232457   6.392   3.036   4.983
 3681TIP3    H132458   6.478   3.036   4.939
 3681TIP3    H232459   6.331   3.009   4.915
 3682TIP3   OH232460   1.563   6.638  12.217
 3682TIP3    H132461   1.498   6.596  12.161
 3682TIP3    H232462   1.533   6.620  12.306
 3683TIP3   OH232463   1.582   4.902   2.442
 3683TIP3    H132464   1.570   4.816   2.403
 3683TIP3    H232465   1.542   4.963   2.380
 3684TIP3   OH232466   3.775   6.689   1.466
 3684TIP3    H132467   3.726   6.619   1.423
 3684TIP3    H232468   3.723   6.768   1.449
 3685TIP3   OH232469   1.528   2.548   4.232
 3685TIP3    H132470   1.576   2.580   4.309
 3685TIP3    H232471   1.549   2.611   4.163
 3686TIP3   OH232472   1.113   1.895  12.382
 3686TIP3    H132473   1.196   1.848  12.384
 3686TIP3    H232474   1.064   1.860  12.456
 3687TIP3   OH232475   2.165   5.539  13.173
 3687TIP3    H132476   2.095   5.601  13.152
 3687TIP3    H232477   2.121   5.456  13.188
 3688TIP3   OH232478   1.602   5.550   4.802
 3688TIP3    H132479   1.554   5.589   4.729
 3688TIP3    H232480   1.545   5.480   4.834
 3689TIP3   OH232481   5.955   4.744   4.426
 3689TIP3    H132482   6.001   4.779   4.350
 3689TIP3    H232483   5.907   4.820   4.461
 3690TIP3   OH232484   5.166   1.910  12.350
 3690TIP3    H132485   5.081   1.910  12.393
 3690TIP3    H232486   5.154   1.856  12.272
 3691TIP3   OH232487   5.270   6.402  15.501
 3691TIP3    H132488   5.294   6.493  15.481
 3691TIP3    H232489   5.176   6.406  15.518
 3692TIP3   OH232490   5.727   4.355   3.006
 3692TIP3    H132491   5.717   4.334   2.913
 3692TIP3    H232492   5.816   4.389   3.014
 3693TIP3   OH232493   1.437   4.955  16.699
 3693TIP3    H132494   1.452   5.034  16.648
 3693TIP3    H232495   1.518   4.904  16.689
 3694TIP3   OH232496   1.023   1.840   1.849
 3694TIP3    H132497   1.017   1.912   1.787
 3694TIP3    H232498   0.983   1.765   1.804
 3695TIP3   OH232499   3.101   1.960   6.256
 3695TIP3    H132500   3.018   1.914   6.241
 3695TIP3    H232501   3.108   1.967   6.352
 3696TIP3   OH232502   2.986   4.934   3.714
 3696TIP3    H132503   3.058   4.986   3.679
 3696TIP3    H232504   2.930   4.915   3.639
 3697TIP3   OH232505   4.674   5.779  12.744
 3697TIP3    H132506   4.629   5.721  12.683
 3697TIP3    H232507   4.605   5.809  12.804
 3698TIP3   OH232508   3.087   3.222  14.470
 3698TIP3    H132509   2.992   3.215  14.456
 3698TIP3    H232510   3.125   3.163  14.405
 3699TIP3   OH232511   6.693   2.949  12.095
 3699TIP3    H132512   6.651   3.030  12.065
 3699TIP3    H232513   6.752   2.926  12.023
 3700TIP3   OH232514   2.441   2.064  16.382
 3700TIP3    H132515   2.402   2.035  16.464
 3700TIP3    H232516   2.520   2.010  16.372
 3701TIP3   OH232517   0.096   5.021   2.317
 3701TIP3    H132518   0.066   4.935   2.346
 3701TIP3    H232519   0.019   5.077   2.325
 3702TIP3   OH232520   5.650   3.054   2.012
 3702TIP3    H132521   5.613   2.992   2.074
 3702TIP3    H232522   5.574   3.096   1.972
 3703TIP3   OH232523   6.396   5.260  14.699
 3703TIP3    H132524   6.340   5.251  14.776
 3703TIP3    H232525   6.449   5.181  14.698
 3704TIP3   OH232526   4.038   3.248  12.166
 3704TIP3    H132527   4.120   3.289  12.195
 3704TIP3    H232528   3.982   3.322  12.142
 3705TIP3   OH232529   1.477   5.632   3.342
 3705TIP3    H132530   1.442   5.554   3.386
 3705TIP3    H232531   1.551   5.599   3.291
 3706TIP3   OH232532   1.876   4.377  14.069
 3706TIP3    H132533   1.915   4.464  14.073
 3706TIP3    H232534   1.867   4.351  14.161
 3707TIP3   OH232535   0.492   6.459   2.720
 3707TIP3    H132536   0.520   6.436   2.631
 3707TIP3    H232537   0.419   6.399   2.738
 3708TIP3   OH232538   1.510   3.567   2.223
 3708TIP3    H132539   1.571   3.561   2.296
 3708TIP3    H232540   1.561   3.602   2.151
 3709TIP3   OH232541   6.192   5.370  16.306
 3709TIP3    H132542   6.251   5.320  16.248
 3709TIP3    H232543   6.180   5.313  16.382
 3710TIP3   OH232544   5.303   5.036   5.523
 3710TIP3    H132545   5.386   5.035   5.571
 3710TIP3    H232546   5.268   5.124   5.536
 3711TIP3   OH232547   2.158   1.795   1.984
 3711TIP3    H132548   2.167   1.777   1.891
 3711TIP3    H232549   2.228   1.858   2.003
 3712TIP3   OH232550   4.347   4.799   0.941
 3712TIP3    H132551   4.290   4.798   1.017
 3712TIP3    H232552   4.316   4.873   0.888
 3713TIP3   OH232553   5.616   5.865   4.613
 3713TIP3    H132554   5.562   5.816   4.675
 3713TIP3    H232555   5.685   5.803   4.588
 3714TIP3   OH232556   2.460   5.904   1.029
 3714TIP3    H132557   2.480   5.890   0.936
 3714TIP3    H232558   2.449   5.998   1.038
 3715TIP3   OH232559   0.429   4.831  13.875
 3715TIP3    H132560   0.469   4.879  13.948
 3715TIP3    H232561   0.390   4.899  13.820
 3716TIP3   OH232562   4.333   5.384  10.804
 3716TIP3    H132563   4.360   5.435  10.728
 3716TIP3    H232564   4.237   5.387  10.802
 3717TIP3   OH232565   0.458   1.944  16.362
 3717TIP3    H132566   0.422   1.926  16.275
 3717TIP3    H232567   0.406   1.889  16.421
 3718TIP3   OH232568   6.385   5.506   4.606
 3718TIP3    H132569   6.373   5.455   4.525
 3718TIP3    H232570   6.406   5.594   4.575
 3719TIP3   OH232571   1.458   3.890   4.971
 3719TIP3    H132572   1.499   3.934   4.897
 3719TIP3    H232573   1.529   3.878   5.034
 3720TIP3   OH232574   4.852   0.076   3.930
 3720TIP3    H132575   4.888   0.153   3.975
 3720TIP3    H232576   4.827   0.109   3.844
 3721TIP3   OH232577   2.342   3.504  16.172
 3721TIP3    H132578   2.415   3.525  16.231
 3721TIP3    H232579   2.273   3.473  16.230
 3722TIP3   OH232580   1.924   0.477  14.083
 3722TIP3    H132581   1.888   0.405  14.032
 3722TIP3    H232582   1.972   0.434  14.154
 3723TIP3   OH232583   3.771   2.564   4.079
 3723TIP3    H132584   3.790   2.471   4.093
 3723TIP3    H232585   3.721   2.590   4.156
 3724TIP3   OH232586   5.028   2.099  16.997
 3724TIP3    H132587   5.069   2.016  16.974
 3724TIP3    H232588   5.072   2.163  16.941
 3725TIP3   OH232589   3.558   4.972   4.823
 3725TIP3    H132590   3.520   4.972   4.734
 3725TIP3    H232591   3.493   4.926   4.876
 3726TIP3   OH232592   2.007   1.709   6.138
 3726TIP3    H132593   1.992   1.638   6.075
 3726TIP3    H232594   1.921   1.725   6.176
 3727TIP3   OH232595   4.627   3.047  11.938
 3727TIP3    H132596   4.602   3.138  11.954
 3727TIP3    H232597   4.584   3.026  11.854
 3728TIP3   OH232598   4.232   3.179  17.027
 3728TIP3    H132599   4.232   3.232  16.947
 3728TIP3    H232600   4.277   3.234  17.091
 3729TIP3   OH232601   1.810   1.252  14.119
 3729TIP3    H132602   1.774   1.269  14.206
 3729TIP3    H232603   1.811   1.338  14.077
 3730TIP3   OH232604   3.400   3.995   1.420
 3730TIP3    H132605   3.495   4.008   1.425
 3730TIP3    H232606   3.376   4.022   1.332
 3731TIP3   OH232607   5.903   2.514  17.190
 3731TIP3    H132608   5.858   2.594  17.164
 3731TIP3    H232609   5.851   2.481  17.264
 3732TIP3   OH232610   1.319   6.717  10.915
 3732TIP3    H132611   1.309   6.758  10.829
 3732TIP3    H232612   1.230   6.690  10.939
 3733TIP3   OH232613   1.413   1.962   4.239
 3733TIP3    H132614   1.440   1.873   4.220
 3733TIP3    H232615   1.423   1.971   4.334
 3734TIP3   OH232616   0.887   6.387   0.670
 3734TIP3    H132617   0.971   6.384   0.624
 3734TIP3    H232618   0.869   6.481   0.682
 3735TIP3   OH232619   1.862   4.483   5.919
 3735TIP3    H132620   1.909   4.564   5.941
 3735TIP3    H232621   1.917   4.413   5.953
 3736TIP3   OH232622   3.555   3.813   3.484
 3736TIP3    H132623   3.496   3.751   3.527
 3736TIP3    H232624   3.575   3.771   3.400
 3737TIP3   OH232625   1.503   5.194  11.534
 3737TIP3    H132626   1.511   5.155  11.447
 3737TIP3    H232627   1.419   5.241  11.532
 3738TIP3   OH232628   4.636   0.442  17.230
 3738TIP3    H132629   4.580   0.516  17.252
 3738TIP3    H232630   4.723   0.467  17.258
 3739TIP3   OH232631   6.505   2.153   1.023
 3739TIP3    H132632   6.427   2.100   1.038
 3739TIP3    H232633   6.576   2.103   1.061
 3740TIP3   OH232634   1.797   1.366  15.809
 3740TIP3    H132635   1.800   1.283  15.762
 3740TIP3    H232636   1.757   1.345  15.894
 3741TIP3   OH232637   1.752   0.984  16.183
 3741TIP3    H132638   1.841   1.010  16.159
 3741TIP3    H232639   1.739   0.901  16.139
 3742TIP3   OH232640   2.796   4.834  14.062
 3742TIP3    H132641   2.759   4.908  14.014
 3742TIP3    H232642   2.890   4.852  14.064
 3743TIP3   OH232643   6.461   1.399   3.866
 3743TIP3    H132644   6.459   1.308   3.836
 3743TIP3    H232645   6.554   1.421   3.868
 3744TIP3   OH232646   0.613   6.508   5.035
 3744TIP3    H132647   0.650   6.435   4.986
 3744TIP3    H232648   0.674   6.522   5.107
 3745TIP3   OH232649   1.447   3.418  13.853
 3745TIP3    H132650   1.464   3.368  13.773
 3745TIP3    H232651   1.454   3.354  13.923
 3746TIP3   OH232652   2.126   3.700  15.064
 3746TIP3    H132653   2.155   3.688  14.974
 3746TIP3    H232654   2.035   3.671  15.064
 3747TIP3   OH232655   3.591   3.748  14.482
 3747TIP3    H132656   3.537   3.760  14.561
 3747TIP3    H232657   3.600   3.653  14.475
 3748TIP3   OH232658   0.578   4.625  10.508
 3748TIP3    H132659   0.521   4.686  10.461
 3748TIP3    H232660   0.633   4.681  10.562
 3749TIP3   OH232661   3.717   1.716   1.409
 3749TIP3    H132662   3.754   1.663   1.338
 3749TIP3    H232663   3.741   1.806   1.388
 3750TIP3   OH232664   0.891   6.172  14.008
 3750TIP3    H132665   0.925   6.190  13.920
 3750TIP3    H232666   0.817   6.232  14.018
 3751TIP3   OH232667   5.005   5.229   1.194
 3751TIP3    H132668   5.012   5.191   1.282
 3751TIP3    H232669   4.924   5.191   1.159
 3752TIP3   OH232670   1.107   2.451   4.996
 3752TIP3    H132671   1.155   2.380   5.039
 3752TIP3    H232672   1.143   2.531   5.034
 3753TIP3   OH232673   3.295   1.651  13.959
 3753TIP3    H132674   3.228   1.584  13.969
 3753TIP3    H232675   3.300   1.666  13.865
 3754TIP3   OH232676   0.998   4.350   2.390
 3754TIP3    H132677   1.024   4.388   2.474
 3754TIP3    H232678   0.917   4.396   2.367
 3755TIP3   OH232679   6.488   2.538  15.166
 3755TIP3    H132680   6.448   2.462  15.123
 3755TIP3    H232681   6.545   2.576  15.100
 3756TIP3   OH232682   4.465   1.059   5.130
 3756TIP3    H132683   4.532   1.099   5.074
 3756TIP3    H232684   4.438   1.129   5.189
 3757TIP3   OH232685   3.259   6.525   5.628
 3757TIP3    H132686   3.282   6.512   5.720
 3757TIP3    H232687   3.232   6.617   5.623
 3758TIP3   OH232688   0.230   4.538  10.585
 3758TIP3    H132689   0.277   4.607  10.539
 3758TIP3    H232690   0.138   4.562  10.576
 3759TIP3   OH232691   1.957   0.087  13.928
 3759TIP3    H132692   1.947   0.021  13.996
 3759TIP3    H232693   1.867   0.108  13.901
 3760TIP3   OH232694   1.345   5.756   2.896
 3760TIP3    H132695   1.353   5.851   2.892
 3760TIP3    H232696   1.433   5.723   2.876
 3761TIP3   OH232697   0.542   5.935  13.151
 3761TIP3    H132698   0.533   5.971  13.240
 3761TIP3    H232699   0.560   5.842  13.165
 3762TIP3   OH232700   1.609   5.162   4.845
 3762TIP3    H132701   1.534   5.184   4.790
 3762TIP3    H232702   1.673   5.231   4.828
 3763TIP3   OH232703   5.964   2.284   1.270
 3763TIP3    H132704   5.927   2.218   1.212
 3763TIP3    H232705   6.059   2.278   1.257
 3764TIP3   OH232706   6.001   6.504  16.495
 3764TIP3    H132707   5.964   6.581  16.452
 3764TIP3    H232708   6.018   6.442  16.424
 3765TIP3   OH232709   0.025   5.355  11.825
 3765TIP3    H132710   0.090   5.390  11.765
 3765TIP3    H232711   0.017   5.263  11.801
 3766TIP3   OH232712   2.912   1.845   0.898
 3766TIP3    H132713   3.001   1.873   0.875
 3766TIP3    H232714   2.869   1.833   0.813
 3767TIP3   OH232715   5.801   0.085   5.254
 3767TIP3    H132716   5.889   0.099   5.220
 3767TIP3    H232717   5.801  -0.007   5.283
 3768TIP3   OH232718   3.264   0.118  16.487
 3768TIP3    H132719   3.270   0.045  16.425
 3768TIP3    H232720   3.246   0.077  16.571
 3769TIP3   OH232721   0.490   5.616  17.089
 3769TIP3    H132722   0.540   5.698  17.080
 3769TIP3    H232723   0.405   5.636  17.049
 3770TIP3   OH232724   3.666   2.948   3.297
 3770TIP3    H132725   3.682   3.042   3.286
 3770TIP3    H232726   3.710   2.907   3.222
 3771TIP3   OH232727   6.371   5.695   0.416
 3771TIP3    H132728   6.465   5.681   0.428
 3771TIP3    H232729   6.347   5.761   0.480
 3772TIP3   OH232730   1.109   5.071  14.688
 3772TIP3    H132731   1.128   5.063  14.782
 3772TIP3    H232732   1.165   5.005  14.646
 3773TIP3   OH232733   1.906   0.371   0.074
 3773TIP3    H132734   1.954   0.435   0.127
 3773TIP3    H232735   1.882   0.301   0.135
 3774TIP3   OH232736   6.693   3.349   3.243
 3774TIP3    H132737   6.601   3.345   3.271
 3774TIP3    H232738   6.698   3.429   3.190
 3775TIP3   OH232739   6.607   5.597   5.157
 3775TIP3    H132740   6.657   5.654   5.215
 3775TIP3    H232741   6.564   5.534   5.215
 3776TIP3   OH232742   4.302   1.455   1.806
 3776TIP3    H132743   4.265   1.542   1.790
 3776TIP3    H232744   4.364   1.442   1.735
 3777TIP3   OH232745   4.187   2.709  15.364
 3777TIP3    H132746   4.119   2.714  15.432
 3777TIP3    H232747   4.229   2.624  15.379
 3778TIP3   OH232748   5.953   5.066   5.132
 3778TIP3    H132749   6.043   5.046   5.160
 3778TIP3    H232750   5.946   5.027   5.045
 3779TIP3   OH232751   4.500   6.128   4.485
 3779TIP3    H132752   4.595   6.133   4.469
 3779TIP3    H232753   4.465   6.206   4.445
 3780TIP3   OH232754   5.072   5.902   5.149
 3780TIP3    H132755   5.123   5.970   5.193
 3780TIP3    H232756   5.108   5.820   5.183
 3781TIP3   OH232757   6.068   5.287  12.024
 3781TIP3    H132758   5.988   5.316  11.981
 3781TIP3    H232759   6.121   5.248  11.953
 3782TIP3   OH232760   4.263   3.493   1.079
 3782TIP3    H132761   4.264   3.556   1.151
 3782TIP3    H232762   4.236   3.543   1.002
 3783TIP3   OH232763   2.823   4.071   4.637
 3783TIP3    H132764   2.788   4.104   4.554
 3783TIP3    H232765   2.748   4.072   4.697
 3784TIP3   OH232766   0.780   3.651  17.168
 3784TIP3    H132767   0.712   3.585  17.156
 3784TIP3    H232768   0.844   3.633  17.099
 3785TIP3   OH232769   0.017   0.139  14.233
 3785TIP3    H132770   0.093   0.142  14.175
 3785TIP3    H232771   0.025   0.056  14.279
 3786TIP3   OH232772   0.535   5.509   5.259
 3786TIP3    H132773   0.530   5.462   5.342
 3786TIP3    H232774   0.509   5.444   5.193
 3787TIP3   OH232775   3.177   4.651   2.621
 3787TIP3    H132776   3.136   4.735   2.640
 3787TIP3    H232777   3.219   4.663   2.536
 3788TIP3   OH232778   6.256   4.599  15.687
 3788TIP3    H132779   6.161   4.607  15.674
 3788TIP3    H232780   6.293   4.674  15.639
 3789TIP3   OH232781   0.617   5.794   2.175
 3789TIP3    H132782   0.672   5.842   2.236
 3789TIP3    H232783   0.527   5.813   2.202
 3790TIP3   OH232784   4.228   3.039   3.436
 3790TIP3    H132785   4.298   3.024   3.500
 3790TIP3    H232786   4.202   3.130   3.450
 3791TIP3   OH232787   3.291   5.825  15.636
 3791TIP3    H132788   3.230   5.794  15.570
 3791TIP3    H232789   3.317   5.912  15.606
 3792TIP3   OH232790   6.027   4.254  11.010
 3792TIP3    H132791   5.945   4.297  11.035
 3792TIP3    H232792   6.026   4.257  10.914
 3793TIP3   OH232793   4.912   6.656  16.629
 3793TIP3    H132794   4.856   6.705  16.688
 3793TIP3    H232795   4.972   6.608  16.687
 3794TIP3   OH232796   3.277   5.937   3.882
 3794TIP3    H132797   3.268   5.858   3.828
 3794TIP3    H232798   3.251   5.910   3.970
 3795TIP3   OH232799   2.095   6.103   0.987
 3795TIP3    H132800   2.026   6.041   0.963
 3795TIP3    H232801   2.166   6.085   0.925
 3796TIP3   OH232802   2.695   4.941   5.377
 3796TIP3    H132803   2.754   5.016   5.390
 3796TIP3    H232804   2.624   4.956   5.439
 3797TIP3   OH232805   2.509   3.970   3.961
 3797TIP3    H132806   2.581   3.953   3.900
 3797TIP3    H232807   2.450   3.895   3.949
 3798TIP3   OH232808   5.958   2.124   3.166
 3798TIP3    H132809   6.052   2.143   3.168
 3798TIP3    H232810   5.946   2.076   3.084
 3799TIP3   OH232811   6.259   1.538  12.954
 3799TIP3    H132812   6.172   1.519  12.990
 3799TIP3    H232813   6.306   1.455  12.962
 3800TIP3   OH232814   0.101   3.786   2.425
 3800TIP3    H132815   0.176   3.745   2.468
 3800TIP3    H232816   0.137   3.827   2.347
 3801TIP3   OH232817   4.601   6.259  17.005
 3801TIP3    H132818   4.667   6.189  16.995
 3801TIP3    H232819   4.628   6.326  16.943
 3802TIP3   OH232820   3.198   1.822  13.263
 3802TIP3    H132821   3.220   1.914  13.248
 3802TIP3    H232822   3.259   1.794  13.331
 3803TIP3   OH232823   5.663   3.692   6.691
 3803TIP3    H132824   5.757   3.692   6.708
 3803TIP3    H232825   5.646   3.778   6.652
 3804TIP3   OH232826   1.347   1.510   1.092
 3804TIP3    H132827   1.430   1.497   1.047
 3804TIP3    H232828   1.372   1.551   1.175
 3805TIP3   OH232829   6.120   4.256   0.639
 3805TIP3    H132830   6.109   4.183   0.699
 3805TIP3    H232831   6.143   4.215   0.555
 3806TIP3   OH232832   5.939   3.188  13.889
 3806TIP3    H132833   5.906   3.139  13.964
 3806TIP3    H232834   5.999   3.252  13.926
 3807TIP3   OH232835   1.029   2.089  15.044
 3807TIP3    H132836   1.103   2.129  14.997
 3807TIP3    H232837   1.047   1.995  15.041
 3808TIP3   OH232838   4.529   0.175   0.180
 3808TIP3    H132839   4.561   0.091   0.150
 3808TIP3    H232840   4.439   0.180   0.147
 3809TIP3   OH232841   5.491   0.773   4.872
 3809TIP3    H132842   5.504   0.805   4.961
 3809TIP3    H232843   5.401   0.739   4.872
 3810TIP3   OH232844   1.466   1.435   1.940
 3810TIP3    H132845   1.532   1.504   1.939
 3810TIP3    H232846   1.394   1.470   1.886
 3811TIP3   OH232847   3.019   3.660  11.583
 3811TIP3    H132848   3.085   3.606  11.539
 3811TIP3    H232849   3.070   3.731  11.624
 3812TIP3   OH232850   3.742   3.370  13.743
 3812TIP3    H132851   3.772   3.280  13.755
 3812TIP3    H232852   3.716   3.399  13.830
 3813TIP3   OH232853   2.436   4.679   1.390
 3813TIP3    H132854   2.419   4.772   1.380
 3813TIP3    H232855   2.527   4.674   1.420
 3814TIP3   OH232856   0.996   1.774   2.994
 3814TIP3    H132857   0.959   1.737   3.074
 3814TIP3    H232858   0.955   1.860   2.987
 3815TIP3   OH232859   2.365   1.382  13.991
 3815TIP3    H132860   2.451   1.341  13.991
 3815TIP3    H232861   2.348   1.402  14.083
 3816TIP3   OH232862   1.001   0.540  15.335
 3816TIP3    H132863   0.951   0.498  15.265
 3816TIP3    H232864   1.033   0.467  15.389
 3817TIP3   OH232865   0.953   4.344   1.057
 3817TIP3    H132866   0.982   4.296   1.135
 3817TIP3    H232867   0.921   4.275   0.998
 3818TIP3   OH232868   3.795   6.629   0.477
 3818TIP3    H132869   3.734   6.556   0.490
 3818TIP3    H232870   3.849   6.630   0.556
 3819TIP3   OH232871   5.356   0.471  16.869
 3819TIP3    H132872   5.393   0.396  16.823
 3819TIP3    H232873   5.284   0.435  16.920
 3820TIP3   OH232874   2.231   4.918  13.583
 3820TIP3    H132875   2.284   4.839  13.597
 3820TIP3    H232876   2.227   4.927  13.487
 3821TIP3   OH232877   2.483   1.891  10.155
 3821TIP3    H132878   2.479   1.796  10.144
 3821TIP3    H232879   2.520   1.904  10.242
 3822TIP3   OH232880   5.666   3.355  10.928
 3822TIP3    H132881   5.757   3.372  10.903
 3822TIP3    H232882   5.641   3.431  10.980
 3823TIP3   OH232883   4.181   5.087  16.897
 3823TIP3    H132884   4.191   5.177  16.867
 3823TIP3    H232885   4.145   5.040  16.822
 3824TIP3   OH232886   2.836   1.731  10.831
 3824TIP3    H132887   2.759   1.709  10.884
 3824TIP3    H232888   2.842   1.660  10.767
 3825TIP3   OH232889   5.528   0.392   4.608
 3825TIP3    H132890   5.493   0.418   4.523
 3825TIP3    H232891   5.451   0.379   4.663
 3826TIP3   OH232892   1.932   1.786  12.114
 3826TIP3    H132893   1.945   1.820  12.025
 3826TIP3    H232894   1.840   1.760  12.116
 3827TIP3   OH232895   5.828   5.047  14.306
 3827TIP3    H132896   5.820   4.977  14.240
 3827TIP3    H232897   5.763   5.112  14.280
 3828TIP3   OH232898   5.587   4.165  11.484
 3828TIP3    H132899   5.650   4.234  11.464
 3828TIP3    H232900   5.618   4.089  11.435
 3829TIP3   OH232901   4.261   3.931   4.065
 3829TIP3    H132902   4.295   3.937   4.154
 3829TIP3    H232903   4.178   3.884   4.074
 3830TIP3   OH232904   4.083   0.631  12.393
 3830TIP3    H132905   4.061   0.552  12.344
 3830TIP3    H232906   4.130   0.686  12.331
 3831TIP3   OH232907   0.555   1.423   2.532
 3831TIP3    H132908   0.599   1.461   2.457
 3831TIP3    H232909   0.472   1.470   2.538
 3832TIP3   OH232910   5.968   5.349   5.533
 3832TIP3    H132911   5.884   5.327   5.493
 3832TIP3    H232912   5.999   5.426   5.484
 3833TIP3   OH232913   6.699   5.274  12.099
 3833TIP3    H132914   6.691   5.335  12.026
 3833TIP3    H232915   6.794   5.265  12.112
 3834TIP3   OH232916   1.494   4.794  11.610
 3834TIP3    H132917   1.439   4.840  11.546
 3834TIP3    H232918   1.564   4.856  11.631
 3835TIP3   OH232919   6.715   3.654  15.204
 3835TIP3    H132920   6.762   3.582  15.161
 3835TIP3    H232921   6.651   3.683  15.140
 3836TIP3   OH232922   6.338   2.089   2.337
 3836TIP3    H132923   6.354   2.093   2.431
 3836TIP3    H232924   6.255   2.136   2.325
 3837TIP3   OH232925   1.649   1.938  13.279
 3837TIP3    H132926   1.744   1.944  13.292
 3837TIP3    H232927   1.636   1.957  13.186
 3838TIP3   OH232928   1.676   3.260   4.755
 3838TIP3    H132929   1.738   3.188   4.763
 3838TIP3    H232930   1.683   3.307   4.838
 3839TIP3   OH232931   5.780   6.276   2.132
 3839TIP3    H132932   5.779   6.367   2.105
 3839TIP3    H232933   5.853   6.269   2.194
 3840TIP3   OH232934   3.435   0.589  16.626
 3840TIP3    H132935   3.410   0.666  16.677
 3840TIP3    H232936   3.359   0.530  16.632
 3841TIP3   OH232937   4.934   5.027   2.451
 3841TIP3    H132938   4.934   5.061   2.361
 3841TIP3    H232939   4.855   5.065   2.490
 3842TIP3   OH232940   0.712   0.466  13.047
 3842TIP3    H132941   0.725   0.542  12.990
 3842TIP3    H232942   0.654   0.498  13.117
 3843TIP3   OH232943   2.996   4.977   0.253
 3843TIP3    H132944   2.937   5.026   0.311
 3843TIP3    H232945   3.055   5.043   0.218
 3844TIP3   OH232946   4.067   4.892   2.039
 3844TIP3    H132947   4.156   4.880   2.073
 3844TIP3    H232948   4.026   4.806   2.047
 3845TIP3   OH232949   3.104   5.847  15.845
 3845TIP3    H132950   3.189   5.847  15.802
 3845TIP3    H232951   3.088   5.755  15.866
 3846TIP3   OH232952   1.724   2.270   3.255
 3846TIP3    H132953   1.729   2.282   3.350
 3846TIP3    H232954   1.769   2.187   3.239
 3847TIP3   OH232955   1.376   6.503   5.446
 3847TIP3    H132956   1.365   6.581   5.392
 3847TIP3    H232957   1.287   6.482   5.476
 3848TIP3   OH232958   4.928   2.840  12.465
 3848TIP3    H132959   4.938   2.861  12.558
 3848TIP3    H232960   4.864   2.903  12.432
 3849TIP3   OH232961   4.808   3.763  14.287
 3849TIP3    H132962   4.897   3.766  14.321
 3849TIP3    H232963   4.753   3.757  14.365
 3850TIP3   OH232964   4.812   5.204  12.029
 3850TIP3    H132965   4.842   5.116  12.007
 3850TIP3    H232966   4.765   5.193  12.111
 3851TIP3   OH232967   6.270   4.701  16.577
 3851TIP3    H132968   6.330   4.705  16.652
 3851TIP3    H232969   6.192   4.658  16.612
 3852TIP3   OH232970   1.111   5.598   4.881
 3852TIP3    H132971   1.075   5.576   4.967
 3852TIP3    H232972   1.205   5.606   4.895
 3853TIP3   OH232973   0.050   4.459   5.217
 3853TIP3    H132974   0.122   4.470   5.280
 3853TIP3    H232975  -0.005   4.536   5.231
 3854TIP3   OH232976   6.551   2.531  11.224
 3854TIP3    H132977   6.547   2.609  11.169
 3854TIP3    H232978   6.475   2.479  11.198
 3855TIP3   OH232979   1.304   2.949  11.965
 3855TIP3    H132980   1.226   3.003  11.955
 3855TIP3    H232981   1.312   2.936  12.060
 3856TIP3   OH232982   3.803   1.291   5.258
 3856TIP3    H132983   3.816   1.251   5.344
 3856TIP3    H232984   3.768   1.220   5.203
 3857TIP3   OH232985   3.647   6.385   0.447
 3857TIP3    H132986   3.628   6.342   0.364
 3857TIP3    H232987   3.674   6.314   0.506
 3858TIP3   OH232988   6.250   6.336   3.855
 3858TIP3    H132989   6.315   6.266   3.855
 3858TIP3    H232990   6.255   6.374   3.768
 3859TIP3   OH232991   5.585   5.634  15.984
 3859TIP3    H132992   5.501   5.609  15.946
 3859TIP3    H232993   5.609   5.561  16.041
 3860TIP3   OH232994   4.205   6.353   2.880
 3860TIP3    H132995   4.202   6.423   2.815
 3860TIP3    H232996   4.132   6.296   2.858
 3861TIP3   OH232997   2.212   5.183   1.217
 3861TIP3    H132998   2.264   5.174   1.137
 3861TIP3    H232999   2.247   5.261   1.260
 3862TIP3   OH233000   0.200   3.307   2.627
 3862TIP3    H133001   0.171   3.395   2.654
 3862TIP3    H233002   0.121   3.264   2.595
 3863TIP3   OH233003   6.605   4.861   4.921
 3863TIP3    H133004   6.531   4.805   4.898
 3863TIP3    H233005   6.565   4.946   4.940
 3864TIP3   OH233006   3.530   1.388  14.198
 3864TIP3    H133007   3.560   1.329  14.129
 3864TIP3    H233008   3.447   1.351  14.227
 3865TIP3   OH233009   1.291   1.139   6.198
 3865TIP3    H133010   1.221   1.203   6.200
 3865TIP3    H233011   1.361   1.182   6.148
 3866TIP3   OH233012   0.560   5.425   1.695
 3866TIP3    H133013   0.482   5.431   1.751
 3866TIP3    H233014   0.563   5.333   1.668
 3867TIP3   OH233015   2.476   5.818   6.167
 3867TIP3    H133016   2.411   5.808   6.236
 3867TIP3    H233017   2.555   5.777   6.203
 3868TIP3   OH233018   6.134   1.627   1.357
 3868TIP3    H133019   6.213   1.625   1.411
 3868TIP3    H233020   6.166   1.629   1.267
 3869TIP3   OH233021   0.008   5.822   0.644
 3869TIP3    H133022  -0.084   5.841   0.623
 3869TIP3    H233023   0.003   5.755   0.712
 3870TIP3   OH233024   5.169   2.461   4.354
 3870TIP3    H133025   5.236   2.477   4.287
 3870TIP3    H233026   5.191   2.522   4.424
 3871TIP3   OH233027   3.724   2.644  15.161
 3871TIP3    H133028   3.754   2.682  15.078
 3871TIP3    H233029   3.794   2.583  15.185
 3872TIP3   OH233030   0.449   1.940   0.258
 3872TIP3    H133031   0.456   1.927   0.353
 3872TIP3    H233032   0.433   2.034   0.248
 3873TIP3   OH233033   0.681   4.725  13.409
 3873TIP3    H133034   0.737   4.790  13.366
 3873TIP3    H233035   0.602   4.723  13.356
 3874TIP3   OH233036   0.640   0.248  16.042
 3874TIP3    H133037   0.624   0.205  15.958
 3874TIP3    H233038   0.597   0.333  16.034
 3875TIP3   OH233039   5.146   1.261  12.638
 3875TIP3    H133040   5.215   1.237  12.576
 3875TIP3    H233041   5.126   1.180  12.684
 3876TIP3   OH233042   4.371   2.481   0.325
 3876TIP3    H133043   4.352   2.539   0.251
 3876TIP3    H233044   4.368   2.538   0.402
 3877TIP3   OH233045   5.933   1.407   1.613
 3877TIP3    H133046   5.875   1.342   1.654
 3877TIP3    H233047   6.012   1.405   1.667
 3878TIP3   OH233048   2.567   4.940   1.073
 3878TIP3    H133049   2.655   4.969   1.098
 3878TIP3    H233050   2.573   4.845   1.071
 3879TIP3   OH233051   5.451   0.582   4.174
 3879TIP3    H133052   5.516   0.527   4.219
 3879TIP3    H233053   5.418   0.527   4.103
 3880TIP3   OH233054   5.909   2.643  16.493
 3880TIP3    H133055   5.822   2.623  16.459
 3880TIP3    H233056   5.965   2.574  16.457
 3881TIP3   OH233057   2.149   3.508  13.409
 3881TIP3    H133058   2.117   3.521  13.498
 3881TIP3    H233059   2.243   3.523  13.415
 3882TIP3   OH233060   0.991   0.524   1.248
 3882TIP3    H133061   0.972   0.504   1.156
 3882TIP3    H233062   1.074   0.479   1.265
 3883TIP3   OH233063   5.747   5.470  16.826
 3883TIP3    H133064   5.685   5.537  16.852
 3883TIP3    H233065   5.763   5.487  16.733
 3884TIP3   OH233066   0.427   4.068   5.738
 3884TIP3    H133067   0.398   3.993   5.791
 3884TIP3    H233068   0.349   4.095   5.690
 3885TIP3   OH233069   4.043   1.745   2.634
 3885TIP3    H133070   4.034   1.698   2.716
 3885TIP3    H233071   4.136   1.737   2.611
 3886TIP3   OH233072   2.797   4.378   6.052
 3886TIP3    H133073   2.711   4.421   6.053
 3886TIP3    H233074   2.830   4.389   6.141
 3887TIP3   OH233075   4.068   2.471   3.953
 3887TIP3    H133076   4.163   2.466   3.964
 3887TIP3    H233077   4.037   2.381   3.967
 3888TIP3   OH233078   1.604   4.774   3.759
 3888TIP3    H133079   1.540   4.740   3.821
 3888TIP3    H233080   1.689   4.758   3.801
 3889TIP3   OH233081   6.658   5.860   5.031
 3889TIP3    H133082   6.648   5.777   4.984
 3889TIP3    H233083   6.697   5.836   5.115
 3890TIP3   OH233084   6.032   5.845   5.578
 3890TIP3    H133085   5.998   5.773   5.632
 3890TIP3    H233086   5.993   5.923   5.616
 3891TIP3   OH233087   4.121   0.685   2.954
 3891TIP3    H133088   4.066   0.649   3.024
 3891TIP3    H233089   4.173   0.611   2.923
 3892TIP3   OH233090   4.249   6.403  12.143
 3892TIP3    H133091   4.163   6.417  12.103
 3892TIP3    H233092   4.278   6.491  12.168
 3893TIP3   OH233093   1.802   2.327  11.284
 3893TIP3    H133094   1.877   2.328  11.224
 3893TIP3    H233095   1.832   2.273  11.358
 3894TIP3   OH233096   5.351   2.506   0.489
 3894TIP3    H133097   5.266   2.549   0.480
 3894TIP3    H233098   5.393   2.519   0.403
 3895TIP3   OH233099   5.299   1.964  12.578
 3895TIP3    H133100   5.246   2.037  12.609
 3895TIP3    H233101   5.256   1.936  12.498
 3896TIP3   OH233102   6.366   0.387  16.259
 3896TIP3    H133103   6.431   0.405  16.191
 3896TIP3    H233104   6.312   0.317  16.222
 3897TIP3   OH233105   2.582   5.910  13.865
 3897TIP3    H133106   2.528   5.989  13.875
 3897TIP3    H233107   2.672   5.940  13.878
 3898TIP3   OH233108   3.831   4.650   0.911
 3898TIP3    H133109   3.921   4.625   0.888
 3898TIP3    H233110   3.818   4.614   0.998
 3899TIP3   OH233111   2.936   4.821   0.020
 3899TIP3    H133112   2.964   4.867   0.098
 3899TIP3    H233113   2.918   4.731   0.049
 3900TIP3   OH233114   0.087   1.785   4.224
 3900TIP3    H133115   0.043   1.711   4.181
 3900TIP3    H233116   0.040   1.862   4.192
 3901TIP3   OH233117   2.337   6.747  15.793
 3901TIP3    H133118   2.305   6.657  15.791
 3901TIP3    H233119   2.313   6.780  15.879
 3902TIP3   OH233120   3.585   3.434  13.192
 3902TIP3    H133121   3.606   3.353  13.238
 3902TIP3    H233122   3.667   3.459  13.150
 3903TIP3   OH233123   6.245   3.774   1.547
 3903TIP3    H133124   6.318   3.722   1.581
 3903TIP3    H233125   6.283   3.827   1.477
 3904TIP3   OH233126   3.926   3.815   1.682
 3904TIP3    H133127   3.980   3.796   1.605
 3904TIP3    H233128   3.839   3.831   1.646
 3905TIP3   OH233129   0.426   1.905   0.828
 3905TIP3    H133130   0.410   1.966   0.900
 3905TIP3    H233131   0.357   1.925   0.764
 3906TIP3   OH233132   4.398   5.117  15.900
 3906TIP3    H133133   4.453   5.062  15.843
 3906TIP3    H233134   4.357   5.055  15.960
 3907TIP3   OH233135   1.880   5.822  17.121
 3907TIP3    H133136   1.908   5.830  17.030
 3907TIP3    H233137   1.795   5.866  17.124
 3908TIP3   OH233138   0.728   5.722  12.428
 3908TIP3    H133139   0.810   5.748  12.386
 3908TIP3    H233140   0.754   5.700  12.518
 3909TIP3   OH233141   5.514   5.953  11.305
 3909TIP3    H133142   5.567   6.022  11.344
 3909TIP3    H233143   5.450   5.930  11.372
 3910TIP3   OH233144   4.160   4.309   5.144
 3910TIP3    H133145   4.147   4.292   5.238
 3910TIP3    H233146   4.183   4.402   5.140
 3911TIP3   OH233147   0.615   0.727  12.444
 3911TIP3    H133148   0.639   0.799  12.503
 3911TIP3    H233149   0.615   0.767  12.357
 3912TIP3   OH233150   4.928   0.406   3.711
 3912TIP3    H133151   4.858   0.349   3.679
 3912TIP3    H233152   4.923   0.484   3.656
 3913TIP3   OH233153   2.241   3.275   0.408
 3913TIP3    H133154   2.335   3.266   0.421
 3913TIP3    H233155   2.209   3.312   0.490
 3914TIP3   OH233156   3.368   4.349  11.603
 3914TIP3    H133157   3.380   4.257  11.583
 3914TIP3    H233158   3.402   4.359  11.692
 3915TIP3   OH233159   0.395   6.247  13.563
 3915TIP3    H133160   0.450   6.306  13.512
 3915TIP3    H233161   0.316   6.298  13.583
 3916TIP3   OH233162   1.521   3.349  11.651
 3916TIP3    H133163   1.541   3.437  11.620
 3916TIP3    H233164   1.599   3.324  11.702
 3917TIP3   OH233165   2.260   5.965  10.657
 3917TIP3    H133166   2.270   5.910  10.735
 3917TIP3    H233167   2.345   5.960  10.614
 3918TIP3   OH233168   3.510   6.062   1.958
 3918TIP3    H133169   3.534   6.151   1.984
 3918TIP3    H233170   3.515   6.011   2.039
 3919TIP3   OH233171   1.772   0.868   3.856
 3919TIP3    H133172   1.800   0.838   3.943
 3919TIP3    H233173   1.787   0.963   3.859
 3920TIP3   OH233174   4.018   1.163   2.713
 3920TIP3    H133175   3.940   1.114   2.741
 3920TIP3    H233176   4.071   1.099   2.666
 3921TIP3   OH233177   0.282   4.780   5.200
 3921TIP3    H133178   0.231   4.818   5.271
 3921TIP3    H233179   0.259   4.833   5.124
 3922TIP3   OH233180   6.564   3.380   5.841
 3922TIP3    H133181   6.481   3.337   5.820
 3922TIP3    H233182   6.590   3.342   5.925
 3923TIP3   OH233183   2.558   1.124  12.668
 3923TIP3    H133184   2.511   1.202  12.637
 3923TIP3    H233185   2.650   1.147  12.658
 3924TIP3   OH233186   6.117   5.574  16.591
 3924TIP3    H133187   6.103   5.540  16.679
 3924TIP3    H233188   6.165   5.656  16.604
 3925TIP3   OH233189   0.880   4.111  16.558
 3925TIP3    H133190   0.798   4.137  16.517
 3925TIP3    H233191   0.892   4.174  16.629
 3926TIP3   OH233192   6.126   5.555   0.916
 3926TIP3    H133193   6.075   5.495   0.861
 3926TIP3    H233194   6.210   5.511   0.928
 3927TIP3   OH233195   5.770   6.339   6.338
 3927TIP3    H133196   5.758   6.261   6.284
 3927TIP3    H233197   5.711   6.326   6.412
 3928TIP3   OH233198   3.529   3.158  10.866
 3928TIP3    H133199   3.617   3.157  10.904
 3928TIP3    H233200   3.502   3.067  10.865
 3929TIP3   OH233201   5.685   2.348  12.018
 3929TIP3    H133202   5.777   2.336  12.044
 3929TIP3    H233203   5.674   2.287  11.945
 3930TIP3   OH233204   4.114   2.316  15.050
 3930TIP3    H133205   4.190   2.373  15.059
 3930TIP3    H233206   4.111   2.295  14.956
 3931TIP3   OH233207   4.326   1.551   5.269
 3931TIP3    H133208   4.312   1.627   5.326
 3931TIP3    H233209   4.407   1.572   5.221
 3932TIP3   OH233210   4.858   0.517  12.810
 3932TIP3    H133211   4.866   0.596  12.863
 3932TIP3    H233212   4.764   0.500  12.805
 3933TIP3   OH233213   2.304   2.820  13.488
 3933TIP3    H133214   2.340   2.761  13.553
 3933TIP3    H233215   2.372   2.887  13.476
 3934TIP3   OH233216   3.155   1.006  12.951
 3934TIP3    H133217   3.084   1.033  12.893
 3934TIP3    H233218   3.166   1.079  13.011
 3935TIP3   OH233219   5.492   0.762  12.094
 3935TIP3    H133220   5.408   0.730  12.128
 3935TIP3    H233221   5.473   0.785  12.003
 3936TIP3   OH233222   2.413   2.472   0.697
 3936TIP3    H133223   2.378   2.386   0.676
 3936TIP3    H233224   2.494   2.455   0.745
 3937TIP3   OH233225   5.845   6.022  10.972
 3937TIP3    H133226   5.801   6.066  10.899
 3937TIP3    H233227   5.853   6.090  11.040
 3938TIP3   OH233228   3.264   3.580   6.137
 3938TIP3    H133229   3.335   3.642   6.122
 3938TIP3    H233230   3.184   3.631   6.123
 3939TIP3   OH233231   2.577   2.336   2.892
 3939TIP3    H133232   2.615   2.423   2.878
 3939TIP3    H233233   2.537   2.341   2.978
 3940TIP3   OH233234   3.175   0.046  14.021
 3940TIP3    H133235   3.222   0.129  14.023
 3940TIP3    H233236   3.244  -0.021  14.018
 3941TIP3   OH233237   3.409   5.143  12.008
 3941TIP3    H133238   3.446   5.189  11.932
 3941TIP3    H233239   3.477   5.079  12.032
 3942TIP3   OH233240   1.209   2.500  12.916
 3942TIP3    H133241   1.262   2.562  12.966
 3942TIP3    H233242   1.187   2.431  12.979
 3943TIP3   OH233243   2.525   6.196  16.963
 3943TIP3    H133244   2.528   6.168  16.871
 3943TIP3    H233245   2.460   6.267  16.964
 3944TIP3   OH233246   1.074   5.619  16.466
 3944TIP3    H133247   1.165   5.646  16.467
 3944TIP3    H233248   1.075   5.529  16.434
 3945TIP3   OH233249   1.806   2.029   5.896
 3945TIP3    H133250   1.822   2.063   5.984
 3945TIP3    H233251   1.712   2.011   5.893
 3946TIP3   OH233252   6.677   3.893   3.070
 3946TIP3    H133253   6.583   3.912   3.073
 3946TIP3    H233254   6.717   3.959   3.126
 3947TIP3   OH233255   0.850   4.823  15.823
 3947TIP3    H133256   0.800   4.877  15.762
 3947TIP3    H233257   0.884   4.885  15.888
 3948TIP3   OH233258   0.888   1.997   1.637
 3948TIP3    H133259   0.915   1.907   1.618
 3948TIP3    H233260   0.793   1.996   1.626
 3949TIP3   OH233261   3.382   0.128   4.993
 3949TIP3    H133262   3.364   0.050   5.044
 3949TIP3    H233263   3.382   0.199   5.057
 3950TIP3   OH233264   4.078   2.677  14.885
 3950TIP3    H133265   4.060   2.638  14.971
 3950TIP3    H233266   4.168   2.652  14.866
 3951TIP3   OH233267   4.084   4.879  11.090
 3951TIP3    H133268   3.999   4.880  11.135
 3951TIP3    H233269   4.087   4.794  11.047
 3952TIP3   OH233270   3.956   0.136   1.261
 3952TIP3    H133271   3.999   0.150   1.346
 3952TIP3    H233272   3.923   0.046   1.265
 3953TIP3   OH233273   0.116   2.962  13.063
 3953TIP3    H133274   0.126   2.912  13.144
 3953TIP3    H233275   0.023   2.987  13.062
 3954TIP3   OH233276   4.046   0.952   5.580
 3954TIP3    H133277   4.055   0.858   5.595
 3954TIP3    H233278   4.057   0.992   5.667
 3955TIP3   OH233279   1.230   5.235  12.962
 3955TIP3    H133280   1.151   5.191  12.932
 3955TIP3    H233281   1.249   5.197  13.048
 3956TIP3   OH233282   1.694   0.899   5.014
 3956TIP3    H133283   1.673   0.958   4.941
 3956TIP3    H233284   1.738   0.955   5.078
 3957TIP3   OH233285   5.667   2.736   4.710
 3957TIP3    H133286   5.728   2.764   4.779
 3957TIP3    H233287   5.601   2.805   4.706
 3958TIP3   OH233288   2.946   0.896  17.085
 3958TIP3    H133289   2.929   0.827  17.149
 3958TIP3    H233290   2.874   0.958  17.097
 3959TIP3   OH233291   5.624   3.125  13.644
 3959TIP3    H133292   5.553   3.187  13.659
 3959TIP3    H233293   5.592   3.043  13.681
 3960TIP3   OH233294   4.670   4.131  10.660
 3960TIP3    H133295   4.622   4.160  10.583
 3960TIP3    H233296   4.608   4.075  10.707
 3961TIP3   OH233297   4.087   3.782   1.104
 3961TIP3    H133298   4.002   3.781   1.148
 3961TIP3    H233299   4.149   3.808   1.172
 3962TIP3   OH233300   4.630   2.425   0.381
 3962TIP3    H133301   4.626   2.431   0.476
 3962TIP3    H233302   4.540   2.438   0.352
 3963TIP3   OH233303   0.366   2.794  12.440
 3963TIP3    H133304   0.405   2.857  12.500
 3963TIP3    H233305   0.323   2.729  12.497
 3964TIP3   OH233306   4.669   6.365   0.406
 3964TIP3    H133307   4.700   6.312   0.332
 3964TIP3    H233308   4.583   6.330   0.427
 3965TIP3   OH233309   5.189   6.116   3.498
 3965TIP3    H133310   5.218   6.070   3.577
 3965TIP3    H233311   5.103   6.152   3.521
 3966TIP3   OH233312   2.623   3.564  15.422
 3966TIP3    H133313   2.533   3.561  15.454
 3966TIP3    H233314   2.631   3.650  15.381
 3967TIP3   OH233315   4.162   5.331  17.198
 3967TIP3    H133316   4.211   5.325  17.116
 3967TIP3    H233317   4.115   5.414  17.192
 3968TIP3   OH233318   3.414   1.370  14.542
 3968TIP3    H133319   3.390   1.349  14.452
 3968TIP3    H233320   3.479   1.304  14.566
 3969TIP3   OH233321   1.842   6.327  12.870
 3969TIP3    H133322   1.827   6.321  12.965
 3969TIP3    H233323   1.937   6.338  12.862
 3970TIP3   OH233324   6.514   0.821  17.190
 3970TIP3    H133325   6.498   0.914  17.208
 3970TIP3    H233326   6.511   0.780  17.277
 3971TIP3   OH233327   3.180   1.430  12.193
 3971TIP3    H133328   3.258   1.467  12.153
 3971TIP3    H233329   3.152   1.496  12.256
 3972TIP3   OH233330   5.858   6.781  14.395
 3972TIP3    H133331   5.820   6.694  14.388
 3972TIP3    H233332   5.784   6.841  14.380
 3973TIP3   OH233333   2.656   4.129  15.488
 3973TIP3    H133334   2.633   4.168  15.572
 3973TIP3    H233335   2.735   4.079  15.506
 3974TIP3   OH233336   1.883   4.491   0.051
 3974TIP3    H133337   1.890   4.559   0.119
 3974TIP3    H233338   1.958   4.433   0.068
 3975TIP3   OH233339   5.286   4.803  12.868
 3975TIP3    H133340   5.219   4.852  12.820
 3975TIP3    H233341   5.327   4.869  12.924
 3976TIP3   OH233342   4.154   2.699   0.936
 3976TIP3    H133343   4.118   2.677   1.022
 3976TIP3    H233344   4.137   2.623   0.882
 3977TIP3   OH233345   2.309   5.237  12.434
 3977TIP3    H133346   2.342   5.324  12.411
 3977TIP3    H233347   2.229   5.228  12.382
 3978TIP3   OH233348   3.537   5.420   0.141
 3978TIP3    H133349   3.511   5.501   0.097
 3978TIP3    H233350   3.589   5.373   0.076
 3979TIP3   OH233351   3.333   4.447  14.306
 3979TIP3    H133352   3.305   4.469  14.395
 3979TIP3    H233353   3.365   4.529  14.270
 3980TIP3   OH233354   6.275   3.297   2.152
 3980TIP3    H133355   6.187   3.258   2.151
 3980TIP3    H233356   6.276   3.356   2.076
 3981TIP3   OH233357   4.229   5.435  15.386
 3981TIP3    H133358   4.141   5.466  15.368
 3981TIP3    H233359   4.229   5.343  15.360
 3982TIP3   OH233360   1.848   0.406   4.249
 3982TIP3    H133361   1.861   0.390   4.156
 3982TIP3    H233362   1.758   0.378   4.266
 3983TIP3   OH233363   6.536   2.916  14.698
 3983TIP3    H133364   6.495   2.915  14.785
 3983TIP3    H233365   6.529   3.007  14.670
 3984TIP3   OH233366   6.593   2.100   3.349
 3984TIP3    H133367   6.621   2.009   3.364
 3984TIP3    H233368   6.520   2.112   3.409
 3985TIP3   OH233369   5.292   4.560  14.734
 3985TIP3    H133370   5.309   4.545  14.641
 3985TIP3    H233371   5.203   4.596  14.736
 3986TIP3   OH233372   0.658   1.026   0.416
 3986TIP3    H133373   0.692   1.085   0.484
 3986TIP3    H233374   0.719   0.953   0.415
 3987TIP3   OH233375   2.338   4.668  13.586
 3987TIP3    H133376   2.353   4.608  13.659
 3987TIP3    H233377   2.265   4.629  13.537
 3988TIP3   OH233378   1.758   4.917  12.597
 3988TIP3    H133379   1.722   4.828  12.606
 3988TIP3    H233380   1.753   4.953  12.685
 3989TIP3   OH233381   2.184   4.329  12.244
 3989TIP3    H133382   2.246   4.373  12.187
 3989TIP3    H233383   2.098   4.364  12.218
 3990TIP3   OH233384   2.611   6.019  15.039
 3990TIP3    H133385   2.594   6.012  14.945
 3990TIP3    H233386   2.596   6.111  15.059
 3991TIP3   OH233387   3.474   1.469   2.251
 3991TIP3    H133388   3.427   1.530   2.194
 3991TIP3    H233389   3.428   1.385   2.240
 3992TIP3   OH233390   4.428   0.102   2.075
 3992TIP3    H133391   4.364   0.172   2.064
 3992TIP3    H233392   4.428   0.083   2.169
 3993TIP3   OH233393   4.128   2.702   5.092
 3993TIP3    H133394   4.181   2.755   5.151
 3993TIP3    H233395   4.192   2.660   5.033
 3994TIP3   OH233396   5.924   3.691  12.744
 3994TIP3    H133397   5.884   3.629  12.806
 3994TIP3    H233398   5.975   3.750  12.799
 3995TIP3   OH233399   5.315   5.402   1.457
 3995TIP3    H133400   5.332   5.334   1.521
 3995TIP3    H233401   5.343   5.365   1.373
 3996TIP3   OH233402   3.034   5.926  13.914
 3996TIP3    H133403   3.030   5.990  13.843
 3996TIP3    H233404   3.001   5.846  13.876
 3997TIP3   OH233405   0.007   0.819  13.437
 3997TIP3    H133406  -0.079   0.782  13.416
 3997TIP3    H233407   0.011   0.816  13.532
 3998TIP3   OH233408   3.099   6.127  15.019
 3998TIP3    H133409   3.022   6.151  15.070
 3998TIP3    H233410   3.161   6.198  15.035
 3999TIP3   OH233411   6.714   5.321  10.388
 3999TIP3    H133412   6.645   5.282  10.442
 3999TIP3    H233413   6.676   5.401  10.353
 4000TIP3   OH233414   1.672   1.773   1.502
 4000TIP3    H133415   1.604   1.717   1.539
 4000TIP3    H233416   1.743   1.714   1.480
 4001TIP3   OH233417   1.648   0.138  16.867
 4001TIP3    H133418   1.741   0.119  16.877
 4001TIP3    H233419   1.609   0.115  16.952
 4002TIP3   OH233420   2.305   6.007   2.901
 4002TIP3    H133421   2.212   5.996   2.922
 4002TIP3    H233422   2.307   6.086   2.846
 4003TIP3   OH233423   6.784   0.273   4.976
 4003TIP3    H133424   6.731   0.330   5.032
 4003TIP3    H233425   6.875   0.295   4.999
 4004TIP3   OH233426   6.055   2.455  16.392
 4004TIP3    H133427   6.087   2.367  16.416
 4004TIP3    H233428   6.114   2.484  16.323
 4005TIP3   OH233429   3.171   3.277   1.241
 4005TIP3    H133430   3.148   3.200   1.189
 4005TIP3    H233431   3.266   3.284   1.234
 4006TIP3   OH233432   3.210   0.311  11.059
 4006TIP3    H133433   3.212   0.266  11.143
 4006TIP3    H233434   3.302   0.316  11.033
 4007TIP3   OH233435   5.511   2.374  13.863
 4007TIP3    H133436   5.547   2.286  13.873
 4007TIP3    H233437   5.528   2.417  13.947
 4008TIP3   OH233438   0.318   1.333   4.379
 4008TIP3    H133439   0.242   1.390   4.396
 4008TIP3    H233440   0.286   1.245   4.401
 4009TIP3   OH233441   5.471   3.376  11.785
 4009TIP3    H133442   5.482   3.370  11.880
 4009TIP3    H233443   5.558   3.396  11.751
 4010TIP3   OH233444   1.100   0.376  15.884
 4010TIP3    H133445   1.161   0.375  15.958
 4010TIP3    H233446   1.023   0.422  15.918
 4011TIP3   OH233447   4.666   1.331  16.878
 4011TIP3    H133448   4.664   1.368  16.789
 4011TIP3    H233449   4.699   1.242  16.866
 4012TIP3   OH233450   5.889   5.110  12.589
 4012TIP3    H133451   5.951   5.042  12.616
 4012TIP3    H233452   5.925   5.144  12.507
 4013TIP3   OH233453   3.402   4.486   1.499
 4013TIP3    H133454   3.414   4.547   1.571
 4013TIP3    H233455   3.400   4.399   1.540
 4014TIP3   OH233456   6.113   3.753   3.767
 4014TIP3    H133457   6.109   3.820   3.835
 4014TIP3    H233458   6.187   3.698   3.792
 4015TIP3   OH233459   5.342   1.099   4.629
 4015TIP3    H133460   5.395   1.169   4.591
 4015TIP3    H233461   5.385   1.018   4.600
 4016TIP3   OH233462   4.944   4.125   2.964
 4016TIP3    H133463   4.960   4.052   3.024
 4016TIP3    H233464   4.996   4.103   2.886
 4017TIP3   OH233465   6.556   1.762  12.192
 4017TIP3    H133466   6.610   1.823  12.141
 4017TIP3    H233467   6.616   1.721  12.254
 4018TIP3   OH233468   4.757   0.868  11.257
 4018TIP3    H133469   4.801   0.944  11.219
 4018TIP3    H233470   4.708   0.903  11.332
 4019TIP3   OH233471   3.650   2.083  14.675
 4019TIP3    H133472   3.679   2.174  14.672
 4019TIP3    H233473   3.575   2.080  14.616
 4020TIP3   OH233474   0.474   6.768  15.308
 4020TIP3    H133475   0.525   6.687  15.312
 4020TIP3    H233476   0.397   6.749  15.361
 4021TIP3   OH233477   3.656   3.447   1.669
 4021TIP3    H133478   3.650   3.541   1.650
 4021TIP3    H233479   3.653   3.405   1.583
 4022TIP3   OH233480   3.989   3.026   4.180
 4022TIP3    H133481   4.079   3.054   4.164
 4022TIP3    H233482   3.965   2.978   4.101
 4023TIP3   OH233483   2.729   1.752   2.720
 4023TIP3    H133484   2.818   1.727   2.696
 4023TIP3    H233485   2.688   1.672   2.752
 4024TIP3   OH233486   6.674   4.529   3.583
 4024TIP3    H133487   6.715   4.482   3.510
 4024TIP3    H233488   6.609   4.585   3.541
 4025TIP3   OH233489   2.558   3.436   5.107
 4025TIP3    H133490   2.592   3.370   5.167
 4025TIP3    H233491   2.607   3.422   5.026
 4026TIP3   OH233492   4.887   2.098   2.934
 4026TIP3    H133493   4.838   2.053   3.003
 4026TIP3    H233494   4.823   2.112   2.864
 4027TIP3   OH233495   2.312   5.483   4.426
 4027TIP3    H133496   2.381   5.483   4.360
 4027TIP3    H233497   2.255   5.410   4.403
 4028TIP3   OH233498   1.779   1.617   2.217
 4028TIP3    H133499   1.799   1.594   2.308
 4028TIP3    H233500   1.820   1.703   2.205
 4029TIP3   OH233501   2.921   2.531  13.121
 4029TIP3    H133502   2.920   2.526  13.026
 4029TIP3    H233503   3.003   2.577  13.142
 4030TIP3   OH233504   3.156   6.387  11.535
 4030TIP3    H133505   3.190   6.419  11.618
 4030TIP3    H233506   3.147   6.292  11.547
 4031TIP3   OH233507   0.182   0.967  13.684
 4031TIP3    H133508   0.251   0.953  13.748
 4031TIP3    H233509   0.134   0.883  13.682
 4032TIP3   OH233510   4.994   4.141   3.624
 4032TIP3    H133511   5.056   4.068   3.620
 4032TIP3    H233512   4.917   4.104   3.668
 4033TIP3   OH233513   5.051   1.915   5.925
 4033TIP3    H133514   5.085   2.004   5.920
 4033TIP3    H233515   5.009   1.910   6.011
 4034TIP3   OH233516   5.296   0.692   0.876
 4034TIP3    H133517   5.314   0.785   0.889
 4034TIP3    H233518   5.360   0.664   0.811
 4035TIP3   OH233519   1.655   2.860   3.636
 4035TIP3    H133520   1.691   2.878   3.549
 4035TIP3    H233521   1.562   2.842   3.619
 4036TIP3   OH233522   3.169   6.433   4.435
 4036TIP3    H133523   3.082   6.400   4.412
 4036TIP3    H233524   3.173   6.425   4.531
 4037TIP3   OH233525   0.993   4.310   1.735
 4037TIP3    H133526   0.900   4.328   1.724
 4037TIP3    H233527   1.037   4.391   1.709
 4038TIP3   OH233528   5.715   4.995   1.486
 4038TIP3    H133529   5.769   4.978   1.409
 4038TIP3    H233530   5.714   4.912   1.534
 4039TIP3   OH233531   1.180   6.243   0.668
 4039TIP3    H133532   1.233   6.179   0.715
 4039TIP3    H233533   1.169   6.315   0.729
 4040TIP3   OH233534   6.481   1.533  15.345
 4040TIP3    H133535   6.575   1.522  15.352
 4040TIP3    H233536   6.445   1.444  15.347
 4041TIP3   OH233537   6.112   6.264   0.334
 4041TIP3    H133538   6.032   6.287   0.288
 4041TIP3    H233539   6.119   6.169   0.326
 4042TIP3   OH233540   3.470   0.944  14.635
 4042TIP3    H133541   3.491   0.890  14.711
 4042TIP3    H233542   3.412   0.889  14.582
 4043TIP3   OH233543   5.259   4.848  14.810
 4043TIP3    H133544   5.169   4.817  14.803
 4043TIP3    H233545   5.269   4.907  14.735
 4044TIP3   OH233546   1.762   6.454   0.344
 4044TIP3    H133547   1.672   6.452   0.312
 4044TIP3    H233548   1.767   6.379   0.405
 4045TIP3   OH233549   0.162   0.128   4.327
 4045TIP3    H133550   0.070   0.146   4.345
 4045TIP3    H233551   0.160   0.053   4.268
 4046TIP3   OH233552   1.882   0.509  13.686
 4046TIP3    H133553   1.910   0.563  13.759
 4046TIP3    H233554   1.824   0.565  13.635
 4047TIP3   OH233555   0.920   3.320  16.447
 4047TIP3    H133556   0.858   3.381  16.488
 4047TIP3    H233557   0.869   3.240  16.432
 4048TIP3   OH233558   3.497   1.317  15.764
 4048TIP3    H133559   3.559   1.330  15.692
 4048TIP3    H233560   3.540   1.255  15.822
 4049TIP3   OH233561   1.921   4.677  16.772
 4049TIP3    H133562   1.838   4.725  16.776
 4049TIP3    H233563   1.927   4.633  16.857
 4050TIP3   OH233564   5.950   6.134   5.740
 4050TIP3    H133565   5.954   6.172   5.828
 4050TIP3    H233566   6.028   6.169   5.695
 4051TIP3   OH233567   1.371   6.241   2.325
 4051TIP3    H133568   1.316   6.300   2.378
 4051TIP3    H233569   1.313   6.167   2.304
 4052TIP3   OH233570   1.174   2.224   1.204
 4052TIP3    H133571   1.114   2.289   1.241
 4052TIP3    H233572   1.167   2.237   1.110
 4053TIP3   OH233573   2.019   2.725   2.106
 4053TIP3    H133574   1.998   2.752   2.017
 4053TIP3    H233575   1.974   2.788   2.162
 4054TIP3   OH233576   0.970   3.660  10.950
 4054TIP3    H133577   1.055   3.617  10.948
 4054TIP3    H233578   0.930   3.639  10.866
 4055TIP3   OH233579   5.965   0.639  14.985
 4055TIP3    H133580   6.030   0.585  14.940
 4055TIP3    H233581   6.000   0.650  15.074
 4056TIP3   OH233582   3.513   5.025  16.711
 4056TIP3    H133583   3.505   4.933  16.685
 4056TIP3    H233584   3.594   5.054  16.668
 4057TIP3   OH233585   6.058   3.330   6.115
 4057TIP3    H133586   6.064   3.369   6.028
 4057TIP3    H233587   5.965   3.311   6.126
 4058TIP3   OH233588   2.320   5.923   3.875
 4058TIP3    H133589   2.392   5.862   3.862
 4058TIP3    H233590   2.314   5.971   3.792
 4059TIP3   OH233591   3.836   4.133  16.357
 4059TIP3    H133592   3.761   4.074  16.358
 4059TIP3    H233593   3.883   4.111  16.276
 4060TIP3   OH233594   3.191   2.366  12.899
 4060TIP3    H133595   3.199   2.277  12.935
 4060TIP3    H233596   3.231   2.422  12.965
 4061TIP3   OH233597   2.347   1.690   0.956
 4061TIP3    H133598   2.442   1.681   0.956
 4061TIP3    H233599   2.314   1.602   0.941
 4062TIP3   OH233600   4.642   2.278   5.988
 4062TIP3    H133601   4.599   2.340   6.048
 4062TIP3    H233602   4.711   2.237   6.040
 4063TIP3   OH233603   3.388   5.210  15.760
 4063TIP3    H133604   3.370   5.269  15.687
 4063TIP3    H233605   3.483   5.194  15.755
 4064TIP3   OH233606   0.633   6.518  16.984
 4064TIP3    H133607   0.546   6.499  17.018
 4064TIP3    H233608   0.691   6.461  17.035
 4065TIP3   OH233609   2.485   1.888  11.401
 4065TIP3    H133610   2.553   1.895  11.333
 4065TIP3    H233611   2.453   1.798  11.395
 4066TIP3   OH233612   3.852   5.128   0.473
 4066TIP3    H133613   3.872   5.076   0.396
 4066TIP3    H233614   3.788   5.193   0.443
 4067TIP3   OH233615   3.230   4.587   5.404
 4067TIP3    H133616   3.216   4.602   5.497
 4067TIP3    H233617   3.319   4.554   5.398
 4068TIP3   OH233618   1.479   6.730   2.445
 4068TIP3    H133619   1.476   6.710   2.538
 4068TIP3    H233620   1.406   6.680   2.408
 4069TIP3   OH233621   1.103   3.546   2.009
 4069TIP3    H133622   1.034   3.519   1.950
 4069TIP3    H233623   1.132   3.465   2.051
 4070TIP3   OH233624   6.164   1.380   1.734
 4070TIP3    H133625   6.230   1.420   1.791
 4070TIP3    H233626   6.209   1.305   1.694
 4071TIP3   OH233627   0.533   2.278   3.201
 4071TIP3    H133628   0.522   2.333   3.123
 4071TIP3    H233629   0.505   2.190   3.173
 4072TIP3   OH233630   5.005   0.152  12.488
 4072TIP3    H133631   5.100   0.141  12.485
 4072TIP3    H233632   4.971   0.094  12.420
 4073TIP3   OH233633   3.833   6.361   0.775
 4073TIP3    H133634   3.924   6.392   0.772
 4073TIP3    H233635   3.781   6.440   0.786
 4074TIP3   OH233636   2.840   6.617  14.931
 4074TIP3    H133637   2.864   6.552  14.865
 4074TIP3    H233638   2.744   6.620  14.927
 4075TIP3   OH233639   6.595   6.783  13.323
 4075TIP3    H133640   6.591   6.719  13.252
 4075TIP3    H233641   6.669   6.840  13.300
 4076TIP3   OH233642   5.471   4.630  12.735
 4076TIP3    H133643   5.395   4.671  12.777
 4076TIP3    H233644   5.468   4.660  12.645
 4077TIP3   OH233645   5.357   0.484   0.405
 4077TIP3    H133646   5.279   0.480   0.460
 4077TIP3    H233647   5.355   0.571   0.365
 4078TIP3   OH233648   6.484   0.569   0.787
 4078TIP3    H133649   6.518   0.593   0.873
 4078TIP3    H233650   6.551   0.600   0.726
 4079TIP3   OH233651   1.577   5.354  16.310
 4079TIP3    H133652   1.654   5.346  16.253
 4079TIP3    H233653   1.610   5.400  16.387
 4080TIP3   OH233654   0.153   6.044  12.757
 4080TIP3    H133655   0.066   6.012  12.782
 4080TIP3    H233656   0.204   6.041  12.838
 4081TIP3   OH233657   6.574   3.359  15.941
 4081TIP3    H133658   6.521   3.345  16.020
 4081TIP3    H233659   6.511   3.351  15.869
 4082TIP3   OH233660   6.584   5.905   1.202
 4082TIP3    H133661   6.490   5.886   1.202
 4082TIP3    H233662   6.610   5.898   1.110
 4083TIP3   OH233663   2.100   5.811   3.621
 4083TIP3    H133664   2.085   5.758   3.699
 4083TIP3    H233665   2.054   5.893   3.638
 4084TIP3   OH233666   4.836   0.305  12.989
 4084TIP3    H133667   4.846   0.372  12.922
 4084TIP3    H233668   4.742   0.304  13.009
 4085TIP3   OH233669   6.120   1.968   0.837
 4085TIP3    H133670   6.127   1.944   0.744
 4085TIP3    H233671   6.187   1.916   0.880
 4086TIP3   OH233672   3.676   6.402   4.277
 4086TIP3    H133673   3.735   6.397   4.352
 4086TIP3    H233674   3.588   6.400   4.314
 4087TIP3   OH233675   2.108   6.777   1.512
 4087TIP3    H133676   2.199   6.790   1.540
 4087TIP3    H233677   2.098   6.682   1.508
 4088TIP3   OH233678   2.039   2.717  16.975
 4088TIP3    H133679   2.076   2.732  16.888
 4088TIP3    H233680   2.110   2.738  17.035
 4089TIP3   OH233681   2.053   3.258  12.629
 4089TIP3    H133682   2.064   3.197  12.702
 4089TIP3    H233683   2.032   3.341  12.670
 4090TIP3   OH233684   4.805   1.534   5.005
 4090TIP3    H133685   4.875   1.500   4.950
 4090TIP3    H233686   4.850   1.591   5.068
 4091TIP3   OH233687   3.419   2.847   2.520
 4091TIP3    H133688   3.350   2.914   2.520
 4091TIP3    H233689   3.498   2.895   2.494
 4092TIP3   OH233690   3.850   1.286   1.378
 4092TIP3    H133691   3.940   1.255   1.386
 4092TIP3    H233692   3.853   1.349   1.305
 4093TIP3   OH233693   4.169   6.631   4.728
 4093TIP3    H133694   4.218   6.709   4.754
 4093TIP3    H233695   4.212   6.560   4.776
 4094TIP3   OH233696   4.245   0.094   5.472
 4094TIP3    H133697   4.226   0.003   5.496
 4094TIP3    H233698   4.197   0.108   5.390
 4095TIP3   OH233699   1.004   0.350   1.803
 4095TIP3    H133700   1.035   0.281   1.744
 4095TIP3    H233701   0.916   0.322   1.829
 4096TIP3   OH233702   0.086   5.842  15.528
 4096TIP3    H133703   0.167   5.804  15.563
 4096TIP3    H233704   0.021   5.824  15.595
 4097TIP3   OH233705   1.358   1.740  15.233
 4097TIP3    H133706   1.366   1.683  15.310
 4097TIP3    H233707   1.447   1.774  15.219
 4098TIP3   OH233708   5.270   3.121   4.457
 4098TIP3    H133709   5.228   3.092   4.538
 4098TIP3    H233710   5.209   3.097   4.388
 4099TIP3   OH233711   4.245   4.885   5.157
 4099TIP3    H133712   4.329   4.915   5.123
 4099TIP3    H233713   4.248   4.789   5.148
 4100TIP3   OH233714   1.264   5.561   4.009
 4100TIP3    H133715   1.239   5.648   4.039
 4100TIP3    H233716   1.332   5.578   3.943
 4101TIP3   OH233717   2.167   4.295   1.745
 4101TIP3    H133718   2.074   4.275   1.731
 4101TIP3    H233719   2.167   4.378   1.793
 4102TIP3   OH233720   6.514   1.686   4.245
 4102TIP3    H133721   6.460   1.703   4.168
 4102TIP3    H233722   6.596   1.652   4.211
 4103TIP3   OH233723   3.165   4.658  13.011
 4103TIP3    H133724   3.237   4.668  13.073
 4103TIP3    H233725   3.207   4.623  12.932
 4104TIP3   OH233726   1.590   4.968  15.598
 4104TIP3    H133727   1.572   4.896  15.659
 4104TIP3    H233728   1.684   4.986  15.611
 4105TIP3   OH233729   5.299   6.704   0.026
 4105TIP3    H133730   5.223   6.712   0.083
 4105TIP3    H233731   5.298   6.613  -0.002
 4106TIP3   OH233732   3.730   4.775   5.698
 4106TIP3    H133733   3.751   4.838   5.767
 4106TIP3    H233734   3.639   4.750   5.716
 4107TIP3   OH233735   4.535   0.802  13.160
 4107TIP3    H133736   4.617   0.821  13.207
 4107TIP3    H233737   4.481   0.880  13.174
 4108TIP3   OH233738   4.357   2.860   0.885
 4108TIP3    H133739   4.279   2.805   0.882
 4108TIP3    H233740   4.378   2.878   0.793
 4109TIP3   OH233741   2.287   4.965   5.864
 4109TIP3    H133742   2.265   4.935   5.952
 4109TIP3    H233743   2.317   5.055   5.876
 4110TIP3   OH233744   2.002   5.379  15.279
 4110TIP3    H133745   2.006   5.352  15.371
 4110TIP3    H233746   1.962   5.466  15.282
 4111TIP3   OH233747   0.813   3.295   5.052
 4111TIP3    H133748   0.889   3.352   5.068
 4111TIP3    H233749   0.849   3.222   5.002
 4112TIP3   OH233750   1.359   0.897   0.524
 4112TIP3    H133751   1.342   0.912   0.617
 4112TIP3    H233752   1.451   0.872   0.520
 4113TIP3   OH233753   4.827   1.154  11.912
 4113TIP3    H133754   4.920   1.142  11.892
 4113TIP3    H233755   4.796   1.214  11.844
 4114TIP3   OH233756   0.943   5.481  15.223
 4114TIP3    H133757   1.036   5.463  15.206
 4114TIP3    H233758   0.936   5.488  15.318
 4115TIP3   OH233759   5.815   2.931   4.352
 4115TIP3    H133760   5.733   2.937   4.304
 4115TIP3    H233761   5.811   3.002   4.416
 4116TIP3   OH233762   1.491   1.443   2.202
 4116TIP3    H133763   1.478   1.445   2.107
 4116TIP3    H233764   1.405   1.419   2.237
 4117TIP3   OH233765   4.935   6.116   3.613
 4117TIP3    H133766   4.912   6.023   3.614
 4117TIP3    H233767   4.980   6.130   3.697
 4118TIP3   OH233768   2.203   3.660   2.431
 4118TIP3    H133769   2.122   3.690   2.473
 4118TIP3    H233770   2.208   3.712   2.350
 4119TIP3   OH233771   2.207   2.453  13.964
 4119TIP3    H133772   2.208   2.357  13.963
 4119TIP3    H233773   2.279   2.477  14.023
 4120TIP3   OH233774   1.520   3.953  11.705
 4120TIP3    H133775   1.556   3.981  11.621
 4120TIP3    H233776   1.591   3.967  11.768
 4121TIP3   OH233777   3.758   4.799  13.233
 4121TIP3    H133778   3.700   4.807  13.157
 4121TIP3    H233779   3.846   4.799  13.194
 4122TIP3   OH233780   5.185   2.101  15.403
 4122TIP3    H133781   5.190   2.161  15.328
 4122TIP3    H233782   5.126   2.032  15.375
 4123TIP3   OH233783   4.361   3.208   3.870
 4123TIP3    H133784   4.373   3.172   3.782
 4123TIP3    H233785   4.412   3.150   3.926
 4124TIP3   OH233786   2.809   2.344   5.155
 4124TIP3    H133787   2.887   2.311   5.111
 4124TIP3    H233788   2.739   2.336   5.091
 4125TIP3   OH233789   3.957   6.251  11.505
 4125TIP3    H133790   3.878   6.205  11.532
 4125TIP3    H233791   4.018   6.182  11.481
 4126TIP3   OH233792   5.907   0.018   4.794
 4126TIP3    H133793   5.957  -0.009   4.717
 4126TIP3    H233794   5.861  -0.061   4.821
 4127TIP3   OH233795   1.746   2.017  16.501
 4127TIP3    H133796   1.746   1.972  16.416
 4127TIP3    H233797   1.654   2.014  16.529
 4128TIP3   OH233798   5.436   5.613   3.537
 4128TIP3    H133799   5.494   5.618   3.461
 4128TIP3    H233800   5.437   5.701   3.574
 4129TIP3   OH233801   3.045   1.955  16.363
 4129TIP3    H133802   3.082   1.867  16.357
 4129TIP3    H233803   3.085   2.003  16.290
 4130TIP3   OH233804   1.665   4.893  17.050
 4130TIP3    H133805   1.743   4.944  17.072
 4130TIP3    H233806   1.656   4.829  17.120
 4131TIP3   OH233807   4.143   4.244  14.888
 4131TIP3    H133808   4.179   4.254  14.800
 4131TIP3    H233809   4.215   4.206  14.939
 4132TIP3   OH233810   3.687   4.623   1.841
 4132TIP3    H133811   3.621   4.679   1.880
 4132TIP3    H233812   3.769   4.673   1.847
 4133TIP3   OH233813   0.901   1.648  16.626
 4133TIP3    H133814   0.886   1.742  16.633
 4133TIP3    H233815   0.930   1.635  16.535
 4134TIP3   OH233816   2.992   2.997  15.753
 4134TIP3    H133817   3.000   2.905  15.730
 4134TIP3    H233818   3.032   3.043  15.680
 4135TIP3   OH233819   3.218   4.970  15.776
 4135TIP3    H133820   3.302   5.016  15.781
 4135TIP3    H233821   3.152   5.040  15.778
 4136TIP3   OH233822   2.896   0.272  17.154
 4136TIP3    H133823   2.883   0.243  17.245
 4136TIP3    H233824   2.950   0.350  17.161
 4137TIP3   OH233825   0.692   0.991   2.739
 4137TIP3    H133826   0.639   1.058   2.782
 4137TIP3    H233827   0.656   0.987   2.650
 4138TIP3   OH233828   5.308   2.137   3.435
 4138TIP3    H133829   5.337   2.145   3.344
 4138TIP3    H233830   5.387   2.113   3.483
 4139TIP3   OH233831   2.330   2.020  16.662
 4139TIP3    H133832   2.307   2.073  16.738
 4139TIP3    H233833   2.399   1.962  16.693
 4140TIP3   OH233834   2.569   6.167  11.039
 4140TIP3    H133835   2.579   6.200  10.950
 4140TIP3    H233836   2.479   6.188  11.063
 4141TIP3   OH233837   4.452   0.820   1.219
 4141TIP3    H133838   4.386   0.766   1.263
 4141TIP3    H233839   4.533   0.770   1.228
 4142TIP3   OH233840   5.488   3.425   0.404
 4142TIP3    H133841   5.568   3.389   0.366
 4142TIP3    H233842   5.498   3.519   0.396
 4143TIP3   OH233843   3.196   6.688  14.873
 4143TIP3    H133844   3.109   6.728  14.886
 4143TIP3    H233845   3.257   6.761  14.881
 4144TIP3   OH233846   3.500   5.027   5.687
 4144TIP3    H133847   3.571   5.059   5.632
 4144TIP3    H233848   3.522   5.058   5.775
 4145TIP3   OH233849   2.712   0.584  12.779
 4145TIP3    H133850   2.785   0.645  12.768
 4145TIP3    H233851   2.693   0.554  12.690
 4146TIP3   OH233852   0.850   2.654   1.228
 4146TIP3    H133853   0.859   2.696   1.313
 4146TIP3    H233854   0.756   2.639   1.218
 4147TIP3   OH233855   2.718   2.468  12.018
 4147TIP3    H133856   2.674   2.541  11.974
 4147TIP3    H233857   2.811   2.482  11.999
 4148TIP3   OH233858   0.008   5.684  11.125
 4148TIP3    H133859   0.068   5.666  11.197
 4148TIP3    H233860   0.034   5.771  11.093
 4149TIP3   OH233861   4.611   1.629  16.944
 4149TIP3    H133862   4.606   1.537  16.916
 4149TIP3    H233863   4.693   1.660  16.908
 4150TIP3   OH233864   5.099   5.640  16.100
 4150TIP3    H133865   5.008   5.647  16.129
 4150TIP3    H233866   5.144   5.713  16.141
 4151TIP3   OH233867   4.177   5.250   3.171
 4151TIP3    H133868   4.097   5.207   3.201
 4151TIP3    H233869   4.149   5.305   3.098
 4152TIP3   OH233870   2.304   5.077   3.167
 4152TIP3    H133871   2.219   5.106   3.200
 4152TIP3    H233872   2.296   5.082   3.072
 4153TIP3   OH233873   4.990   3.101   2.629
 4153TIP3    H133874   5.037   3.097   2.547
 4153TIP3    H233875   4.910   3.050   2.613
 4154TIP3   OH233876   5.558   5.643  11.690
 4154TIP3    H133877   5.469   5.656  11.657
 4154TIP3    H233878   5.576   5.550  11.675
 4155TIP3   OH233879   5.646   5.946   5.306
 4155TIP3    H133880   5.653   5.882   5.377
 4155TIP3    H233881   5.561   5.929   5.266
 4156TIP3   OH233882   1.758   6.377  16.125
 4156TIP3    H133883   1.674   6.408  16.092
 4156TIP3    H233884   1.807   6.352  16.047
 4157TIP3   OH233885   4.689   1.060   0.056
 4157TIP3    H133886   4.735   1.081  -0.025
 4157TIP3    H233887   4.731   1.115   0.122
 4158TIP3   OH233888   5.277   3.973   5.251
 4158TIP3    H133889   5.196   4.024   5.257
 4158TIP3    H233890   5.346   4.037   5.264
 4159TIP3   OH233891   0.139   5.931   5.127
 4159TIP3    H133892   0.058   5.915   5.077
 4159TIP3    H233893   0.195   5.857   5.107
 4160TIP3   OH233894   5.462   3.131  16.021
 4160TIP3    H133895   5.428   3.221  16.027
 4160TIP3    H233896   5.536   3.130  16.081
 4161TIP3   OH233897   3.433   0.673  13.209
 4161TIP3    H133898   3.447   0.603  13.273
 4161TIP3    H233899   3.426   0.753  13.261
 4162TIP3   OH233900   0.472   1.405   5.273
 4162TIP3    H133901   0.543   1.349   5.301
 4162TIP3    H233902   0.394   1.370   5.317
 4163TIP3   OH233903   1.124   5.394  16.139
 4163TIP3    H133904   1.084   5.366  16.221
 4163TIP3    H233905   1.203   5.341  16.132
 4164TIP3   OH233906   6.588   4.043   1.184
 4164TIP3    H133907   6.646   4.097   1.131
 4164TIP3    H233908   6.539   4.106   1.238
 4165TIP3   OH233909   6.419   0.496   1.621
 4165TIP3    H133910   6.326   0.500   1.642
 4165TIP3    H233911   6.426   0.540   1.537
 4166TIP3   OH233912   3.464   4.850   3.300
 4166TIP3    H133913   3.421   4.766   3.284
 4166TIP3    H233914   3.546   4.827   3.345
 4167TIP3   OH233915   4.185   4.431   6.082
 4167TIP3    H133916   4.254   4.486   6.044
 4167TIP3    H233917   4.186   4.351   6.029
 4168TIP3   OH233918   2.876   4.019   4.262
 4168TIP3    H133919   2.836   4.101   4.231
 4168TIP3    H233920   2.933   3.993   4.190
 4169TIP3   OH233921   2.006   0.626  16.475
 4169TIP3    H133922   1.997   0.682  16.398
 4169TIP3    H233923   2.070   0.670  16.530
 4170TIP3   OH233924   2.993   6.751   5.769
 4170TIP3    H133925   3.022   6.806   5.842
 4170TIP3    H233926   3.045   6.781   5.694
 4171TIP3   OH233927   6.400   4.657   1.790
 4171TIP3    H133928   6.395   4.577   1.737
 4171TIP3    H233929   6.355   4.635   1.871
 4172TIP3   OH233930   1.695   6.095  15.979
 4172TIP3    H133931   1.701   6.151  16.056
 4172TIP3    H233932   1.629   6.029  16.002
 4173TIP3   OH233933   0.136   2.431   5.772
 4173TIP3    H133934   0.157   2.366   5.839
 4173TIP3    H233935   0.067   2.485   5.810
 4174TIP3   OH233936   5.938   1.073  12.638
 4174TIP3    H133937   5.844   1.077  12.619
 4174TIP3    H233938   5.961   1.164  12.661
 4175TIP3   OH233939   4.351   3.168   6.223
 4175TIP3    H133940   4.305   3.098   6.177
 4175TIP3    H233941   4.422   3.124   6.269
 4176TIP3   OH233942   3.609   5.684  10.807
 4176TIP3    H133943   3.539   5.645  10.860
 4176TIP3    H233944   3.601   5.640  10.722
 4177TIP3   OH233945   3.269   6.090  16.543
 4177TIP3    H133946   3.205   6.148  16.502
 4177TIP3    H233947   3.308   6.042  16.470
 4178TIP3   OH233948   0.284   3.097  13.277
 4178TIP3    H133949   0.316   3.172  13.326
 4178TIP3    H233950   0.248   3.038  13.343
 4179TIP3   OH233951   3.379   5.020   1.187
 4179TIP3    H133952   3.467   4.986   1.203
 4179TIP3    H233953   3.338   5.018   1.274
 4180TIP3   OH233954   4.390   3.589   2.655
 4180TIP3    H133955   4.472   3.541   2.645
 4180TIP3    H233956   4.399   3.634   2.739
 4181TIP3   OH233957   4.725   1.986   0.751
 4181TIP3    H133958   4.818   2.000   0.732
 4181TIP3    H233959   4.688   1.958   0.668
 4182TIP3   OH233960   2.930   1.577  17.097
 4182TIP3    H133961   2.980   1.593  17.177
 4182TIP3    H233962   2.842   1.556  17.129
 4183TIP3   OH233963   6.255   6.463  13.522
 4183TIP3    H133964   6.220   6.386  13.567
 4183TIP3    H233965   6.349   6.458  13.533
 4184TIP3   OH233966   0.798   0.874   6.314
 4184TIP3    H133967   0.889   0.899   6.297
 4184TIP3    H233968   0.804   0.787   6.354
 4185TIP3   OH233969   0.143   0.458   6.224
 4185TIP3    H133970   0.183   0.428   6.306
 4185TIP3    H233971   0.127   0.551   6.238
 4186TIP3   OH233972   5.319   1.557  16.099
 4186TIP3    H133973   5.294   1.469  16.072
 4186TIP3    H233974   5.269   1.573  16.179
 4187TIP3   OH233975   6.371   3.622   3.862
 4187TIP3    H133976   6.404   3.637   3.773
 4187TIP3    H233977   6.449   3.618   3.916
 4188TIP3   OH233978   3.602   4.844  12.706
 4188TIP3    H133979   3.543   4.886  12.768
 4188TIP3    H233980   3.591   4.894  12.625
 4189TIP3   OH233981   3.128   5.508  12.246
 4189TIP3    H133982   3.115   5.512  12.151
 4189TIP3    H233983   3.070   5.438  12.275
 4190TIP3   OH233984   1.972   4.404   0.739
 4190TIP3    H133985   1.888   4.359   0.749
 4190TIP3    H233986   2.037   4.334   0.734
 4191TIP3   OH233987   4.159   3.363   5.265
 4191TIP3    H133988   4.146   3.277   5.226
 4191TIP3    H233989   4.189   3.345   5.354
 4192TIP3   OH233990   1.070   4.611  15.487
 4192TIP3    H133991   0.997   4.669  15.465
 4192TIP3    H233992   1.117   4.600  15.404
 4193TIP3   OH233993   6.161   3.450   3.952
 4193TIP3    H133994   6.078   3.471   3.909
 4193TIP3    H233995   6.224   3.512   3.915
 4194TIP3   OH233996   6.768   0.864  16.221
 4194TIP3    H133997   6.813   0.861  16.137
 4194TIP3    H233998   6.758   0.958  16.239
 4195TIP3   OH233999   1.064   5.822  16.669
 4195TIP3    H134000   1.091   5.752  16.610
 4195TIP3    H234001   1.078   5.902  16.619
 4196TIP3   OH234002   4.904   2.862  11.181
 4196TIP3    H134003   4.948   2.839  11.099
 4196TIP3    H234004   4.826   2.806  11.183
 4197TIP3   OH234005   0.911   4.653   2.987
 4197TIP3    H134006   0.948   4.567   2.966
 4197TIP3    H234007   0.830   4.634   3.034
 4198TIP3   OH234008   1.063   3.776   4.437
 4198TIP3    H134009   1.156   3.774   4.415
 4198TIP3    H234010   1.060   3.817   4.524
 4199TIP3   OH234011   6.521   2.792   0.168
 4199TIP3    H134012   6.546   2.873   0.123
 4199TIP3    H234013   6.435   2.771   0.133
 4200TIP3   OH234014   3.956   1.658   5.243
 4200TIP3    H134015   3.882   1.625   5.293
 4200TIP3    H234016   4.031   1.647   5.302
 4201TIP3   OH234017   2.088   3.121  14.768
 4201TIP3    H134018   2.029   3.182  14.724
 4201TIP3    H234019   2.031   3.049  14.796
 4202TIP3   OH234020   5.846   2.235  14.774
 4202TIP3    H134021   5.872   2.278  14.855
 4202TIP3    H234022   5.757   2.267  14.756
 4203TIP3   OH234023   2.743   4.957  15.530
 4203TIP3    H134024   2.681   5.010  15.580
 4203TIP3    H234025   2.690   4.888  15.490
 4204TIP3   OH234026   5.229   3.984   3.218
 4204TIP3    H134027   5.273   4.068   3.233
 4204TIP3    H234028   5.274   3.947   3.142
 4205TIP3   OH234029   3.360   3.652   2.073
 4205TIP3    H134030   3.371   3.592   2.000
 4205TIP3    H234031   3.279   3.699   2.055
 4206TIP3   OH234032   6.543   6.137  12.602
 4206TIP3    H134033   6.587   6.201  12.657
 4206TIP3    H234034   6.464   6.114  12.650
 4207TIP3   OH234035   3.441   5.290   4.753
 4207TIP3    H134036   3.444   5.243   4.670
 4207TIP3    H234037   3.392   5.233   4.811
 4208TIP3   OH234038   5.351   2.645   1.586
 4208TIP3    H134039   5.261   2.651   1.556
 4208TIP3    H234040   5.374   2.734   1.613
 4209TIP3   OH234041   6.187   6.751  16.765
 4209TIP3    H134042   6.232   6.780  16.685
 4209TIP3    H234043   6.229   6.668  16.787
 4210TIP3   OH234044   6.318   4.587  12.124
 4210TIP3    H134045   6.382   4.622  12.185
 4210TIP3    H234046   6.359   4.597  12.038
 4211TIP3   OH234047   5.655   1.011   3.576
 4211TIP3    H134048   5.695   1.091   3.613
 4211TIP3    H234049   5.716   0.941   3.601
 4212TIP3   OH234050   1.429   4.773   1.635
 4212TIP3    H134051   1.513   4.727   1.623
 4212TIP3    H234052   1.453   4.865   1.641
 4213TIP3   OH234053   0.141   0.557  16.647
 4213TIP3    H134054   0.093   0.546  16.729
 4213TIP3    H234055   0.111   0.641  16.613
 4214TIP3   OH234056   5.379   2.456   4.172
 4214TIP3    H134057   5.430   2.536   4.186
 4214TIP3    H234058   5.433   2.387   4.212
 4215TIP3   OH234059   6.250   5.513   2.109
 4215TIP3    H134060   6.282   5.444   2.051
 4215TIP3    H234061   6.257   5.476   2.197
 4216TIP3   OH234062   6.236   2.269  12.789
 4216TIP3    H134063   6.155   2.269  12.840
 4216TIP3    H234064   6.294   2.330  12.836
 4217TIP3   OH234065   5.754   6.699  12.184
 4217TIP3    H134066   5.777   6.762  12.252
 4217TIP3    H234067   5.776   6.614  12.221
 4218TIP3   OH234068   0.517   3.617  13.718
 4218TIP3    H134069   0.426   3.612  13.687
 4218TIP3    H234070   0.539   3.710  13.710
 4219TIP3   OH234071   0.321   3.657  14.216
 4219TIP3    H134072   0.227   3.640  14.211
 4219TIP3    H234073   0.349   3.611  14.296
 4220TIP3   OH234074   0.678   5.727   4.857
 4220TIP3    H134075   0.746   5.794   4.859
 4220TIP3    H234076   0.690   5.683   4.772
 4221TIP3   OH234077   2.354   6.387   1.511
 4221TIP3    H134078   2.365   6.470   1.555
 4221TIP3    H234079   2.336   6.324   1.581
 4222TIP3   OH234080   2.317   4.026   4.513
 4222TIP3    H134081   2.374   4.008   4.438
 4222TIP3    H234082   2.300   4.120   4.508
 4223TIP3   OH234083   0.628   3.290  15.132
 4223TIP3    H134084   0.610   3.270  15.224
 4223TIP3    H234085   0.546   3.274  15.087
 4224TIP3   OH234086   1.028   1.629   0.478
 4224TIP3    H134087   1.043   1.559   0.542
 4224TIP3    H234088   0.990   1.584   0.402
 4225TIP3   OH234089   1.241   3.334  14.406
 4225TIP3    H134090   1.220   3.320  14.499
 4225TIP3    H234091   1.265   3.247  14.375
 4226TIP3   OH234092   1.073   5.177  15.910
 4226TIP3    H134093   1.162   5.210  15.923
 4226TIP3    H234094   1.079   5.126  15.829
 4227TIP3   OH234095   1.584   2.046   2.159
 4227TIP3    H134096   1.592   1.959   2.197
 4227TIP3    H234097   1.537   2.097   2.224
 4228TIP3   OH234098   1.768   3.915  13.222
 4228TIP3    H134099   1.852   3.897  13.180
 4228TIP3    H234100   1.779   3.882  13.311
 4229TIP3   OH234101   5.963   0.768  16.811
 4229TIP3    H134102   6.027   0.813  16.757
 4229TIP3    H234103   6.015   0.715  16.872
 4230TIP3   OH234104   3.392   4.007  15.608
 4230TIP3    H134105   3.426   3.918  15.611
 4230TIP3    H234106   3.319   4.007  15.670
 4231TIP3   OH234107   6.707   3.347  15.050
 4231TIP3    H134108   6.756   3.273  15.086
 4231TIP3    H234109   6.775   3.409  15.022
 4232TIP3   OH234110   6.167   6.733  13.895
 4232TIP3    H134111   6.161   6.697  13.807
 4232TIP3    H234112   6.111   6.811  13.893
 4233TIP3   OH234113   1.368   4.413   0.105
 4233TIP3    H134114   1.461   4.433   0.095
 4233TIP3    H234115   1.367   4.324   0.142
 4234TIP3   OH234116   3.800   2.341   1.527
 4234TIP3    H134117   3.878   2.300   1.490
 4234TIP3    H234118   3.736   2.339   1.455
 4235TIP3   OH234119   1.461   1.142   3.605
 4235TIP3    H134120   1.527   1.198   3.647
 4235TIP3    H234121   1.425   1.196   3.535
 4236TIP3   OH234122   3.211   6.678   3.892
 4236TIP3    H134123   3.201   6.771   3.916
 4236TIP3    H234124   3.123   6.641   3.904
 4237TIP3   OH234125   3.829   1.368   2.401
 4237TIP3    H134126   3.845   1.274   2.402
 4237TIP3    H234127   3.740   1.376   2.367
 4238TIP3   OH234128   2.450   6.540   5.084
 4238TIP3    H134129   2.430   6.600   5.156
 4238TIP3    H234130   2.485   6.462   5.127
 4239TIP3   OH234131   3.152   4.754   0.294
 4239TIP3    H134132   3.083   4.819   0.280
 4239TIP3    H234133   3.231   4.797   0.260
 4240TIP3   OH234134   2.339   0.362  17.200
 4240TIP3    H134135   2.355   0.434  17.261
 4240TIP3    H234136   2.403   0.375  17.131
 4241TIP3   OH234137   1.952   6.038  15.861
 4241TIP3    H134138   1.861   6.065  15.871
 4241TIP3    H234139   2.002   6.117  15.880
 4242TIP3   OH234140   5.250   0.481   5.406
 4242TIP3    H134141   5.280   0.566   5.441
 4242TIP3    H234142   5.330   0.430   5.395
 4243TIP3   OH234143   3.264   1.651   5.174
 4243TIP3    H134144   3.180   1.606   5.176
 4243TIP3    H234145   3.289   1.659   5.267
 4244TIP3   OH234146   3.249   6.438  14.203
 4244TIP3    H134147   3.257   6.460  14.295
 4244TIP3    H234148   3.201   6.355  14.202
 4245TIP3   OH234149   2.184   5.182   4.708
 4245TIP3    H134150   2.277   5.204   4.714
 4245TIP3    H234151   2.139   5.261   4.738
 4246TIP3   OH234152   3.113   5.637   3.262
 4246TIP3    H134153   3.076   5.649   3.350
 4246TIP3    H234154   3.169   5.713   3.249
 4247TIP3   OH234155   0.796   2.975  17.069
 4247TIP3    H134156   0.776   3.005  16.980
 4247TIP3    H234157   0.711   2.952  17.106
 4248TIP3   OH234158   0.218   6.218   4.094
 4248TIP3    H134159   0.171   6.257   4.020
 4248TIP3    H234160   0.307   6.203   4.062
 4249TIP3   OH234161   0.204   0.204  16.855
 4249TIP3    H134162   0.132   0.166  16.805
 4249TIP3    H234163   0.169   0.288  16.887
 4250TIP3   OH234164   5.169   3.113  16.025
 4250TIP3    H134165   5.264   3.114  16.012
 4250TIP3    H234166   5.157   3.083  16.116
 4251TIP3   OH234167   5.076   5.345  12.743
 4251TIP3    H134168   5.023   5.266  12.744
 4251TIP3    H234169   5.100   5.359  12.835
 4252TIP3   OH234170   1.265   3.328   4.578
 4252TIP3    H134171   1.218   3.342   4.661
 4252TIP3    H234172   1.305   3.241   4.588
 4253TIP3   OH234173   6.180   6.219  15.440
 4253TIP3    H134174   6.103   6.188  15.391
 4253TIP3    H234175   6.184   6.160  15.516
 4254TIP3   OH234176   3.317   4.132   4.832
 4254TIP3    H134177   3.376   4.128   4.908
 4254TIP3    H234178   3.237   4.172   4.867
 4255TIP3   OH234179   6.387   3.759  12.689
 4255TIP3    H134180   6.381   3.815  12.767
 4255TIP3    H234181   6.404   3.672  12.724
 4256TIP3   OH234182   1.680   6.664  13.499
 4256TIP3    H134183   1.724   6.620  13.572
 4256TIP3    H234184   1.743   6.729  13.469
 4257TIP3   OH234185   5.095   2.389  11.349
 4257TIP3    H134186   5.086   2.453  11.278
 4257TIP3    H234187   5.150   2.432  11.414
 4258TIP3   OH234188   2.581   5.244   2.049
 4258TIP3    H134189   2.602   5.169   2.104
 4258TIP3    H234190   2.486   5.239   2.035
 4259TIP3   OH234191   4.736   4.248   0.417
 4259TIP3    H134192   4.685   4.236   0.497
 4259TIP3    H234193   4.757   4.159   0.389
 4260TIP3   OH234194   0.306   4.148   5.229
 4260TIP3    H134195   0.297   4.077   5.166
 4260TIP3    H234196   0.287   4.107   5.314
 4261TIP3   OH234197   4.254   2.955  11.939
 4261TIP3    H134198   4.230   2.999  11.857
 4261TIP3    H234199   4.219   2.866  11.930
 4262TIP3   OH234200   0.279   4.815   4.894
 4262TIP3    H134201   0.340   4.853   4.831
 4262TIP3    H234202   0.317   4.731   4.917
 4263TIP3   OH234203   0.177   3.546   0.420
 4263TIP3    H134204   0.215   3.631   0.398
 4263TIP3    H234205   0.089   3.549   0.383
 4264TIP3   OH234206   2.796   2.133  11.557
 4264TIP3    H134207   2.853   2.165  11.628
 4264TIP3    H234208   2.754   2.212  11.524
 4265TIP3   OH234209   2.187   6.302  16.834
 4265TIP3    H134210   2.201   6.212  16.864
 4265TIP3    H234211   2.272   6.344  16.844
 4266TIP3   OH234212   6.731   0.594  13.088
 4266TIP3    H134213   6.681   0.536  13.031
 4266TIP3    H234214   6.690   0.679  13.078
 4267TIP3   OH234215   5.297   3.140  16.317
 4267TIP3    H134216   5.392   3.135  16.303
 4267TIP3    H234217   5.283   3.228  16.352
 4268TIP3   OH234218   3.123   4.889  16.010
 4268TIP3    H134219   3.176   4.941  15.950
 4268TIP3    H234220   3.187   4.833  16.055
 4269TIP3   OH234221   6.345   2.241   0.100
 4269TIP3    H134222   6.383   2.223   0.186
 4269TIP3    H234223   6.294   2.322   0.113
 4270TIP3   OH234224   6.411   6.126  14.274
 4270TIP3    H134225   6.470   6.051  14.261
 4270TIP3    H234226   6.354   6.098  14.346
 4271TIP3   OH234227   1.258   1.479   1.719
 4271TIP3    H134228   1.213   1.518   1.794
 4271TIP3    H234229   1.262   1.386   1.739
 4272TIP3   OH234230   3.302   4.838   2.225
 4272TIP3    H134231   3.277   4.824   2.134
 4272TIP3    H234232   3.362   4.913   2.221
 4273TIP3   OH234233   2.348   6.540  13.025
 4273TIP3    H134234   2.296   6.615  12.996
 4273TIP3    H234235   2.401   6.517  12.948
 4274TIP3   OH234236   4.262   0.930   1.780
 4274TIP3    H134237   4.179   0.974   1.799
 4274TIP3    H234238   4.327   0.978   1.831
 4275TIP3   OH234239   4.598   1.823  15.752
 4275TIP3    H134240   4.531   1.792  15.813
 4275TIP3    H234241   4.680   1.788  15.786
 4276TIP3   OH234242   1.217   5.226   0.311
 4276TIP3    H134243   1.281   5.267   0.252
 4276TIP3    H234244   1.140   5.283   0.306
 4277TIP3   OH234245   6.554   0.655   0.161
 4277TIP3    H134246   6.645   0.677   0.180
 4277TIP3    H234247   6.551   0.559   0.168
 4278TIP3   OH234248   4.544   3.763   1.500
 4278TIP3    H134249   4.478   3.693   1.504
 4278TIP3    H234250   4.570   3.765   1.408
 4279TIP3   OH234251   0.434   2.277   2.560
 4279TIP3    H134252   0.511   2.332   2.577
 4279TIP3    H234253   0.457   2.193   2.598
 4280TIP3   OH234254   4.204   6.199  15.341
 4280TIP3    H134255   4.247   6.201  15.426
 4280TIP3    H234256   4.271   6.229  15.279
 4281TIP3   OH234257   0.087   4.645  13.596
 4281TIP3    H134258   0.169   4.673  13.636
 4281TIP3    H234259   0.067   4.562  13.639
 4282TIP3   OH234260   1.611   0.109  15.526
 4282TIP3    H134261   1.571   0.022  15.525
 4282TIP3    H234262   1.582   0.148  15.609
 4283TIP3   OH234263   4.301   1.312  12.419
 4283TIP3    H134264   4.254   1.290  12.339
 4283TIP3    H234265   4.378   1.255  12.418
 4284TIP3   OH234266   1.899   6.031  13.980
 4284TIP3    H134267   1.835   5.976  14.025
 4284TIP3    H234268   1.965   5.970  13.948
 4285TIP3   OH234269   5.688   0.680   0.110
 4285TIP3    H134270   5.604   0.726   0.115
 4285TIP3    H234271   5.682   0.628   0.030
 4286TIP3   OH234272   6.441   5.568   3.114
 4286TIP3    H134273   6.382   5.567   3.039
 4286TIP3    H234274   6.468   5.660   3.122
 4287TIP3   OH234275   2.859   0.793   3.913
 4287TIP3    H134276   2.842   0.850   3.988
 4287TIP3    H234277   2.780   0.740   3.904
 4288TIP3   OH234278   3.141   0.579  16.544
 4288TIP3    H134279   3.145   0.524  16.622
 4288TIP3    H234280   3.159   0.519  16.472
 4289TIP3   OH234281   1.466   1.509   3.895
 4289TIP3    H134282   1.444   1.422   3.860
 4289TIP3    H234283   1.490   1.560   3.817
 4290TIP3   OH234284   4.305   2.601  15.031
 4290TIP3    H134285   4.386   2.653  15.037
 4290TIP3    H234286   4.274   2.595  15.122
 4291TIP3   OH234287   4.455   0.645   3.747
 4291TIP3    H134288   4.529   0.690   3.788
 4291TIP3    H234289   4.422   0.586   3.815
 4292TIP3   OH234290   1.723   6.384   5.031
 4292TIP3    H134291   1.762   6.355   4.948
 4292TIP3    H234292   1.629   6.375   5.017
 4293TIP3   OH234293   5.269   6.694  15.521
 4293TIP3    H134294   5.318   6.764  15.566
 4293TIP3    H234295   5.177   6.718  15.533
 4294TIP3   OH234296   6.779   5.342  14.074
 4294TIP3    H134297   6.789   5.350  14.169
 4294TIP3    H234298   6.793   5.249  14.056
 4295TIP3   OH234299   1.495   1.382  14.034
 4295TIP3    H134300   1.578   1.429  14.029
 4295TIP3    H234301   1.460   1.406  14.120
 4296TIP3   OH234302   1.158   4.592   5.052
 4296TIP3    H134303   1.117   4.544   4.980
 4296TIP3    H234304   1.145   4.684   5.030
 4297TIP3   OH234305   3.787   6.534  11.744
 4297TIP3    H134306   3.855   6.595  11.775
 4297TIP3    H234307   3.835   6.454  11.724
 4298TIP3   OH234308   1.720   0.877   2.505
 4298TIP3    H134309   1.688   0.857   2.593
 4298TIP3    H234310   1.711   0.972   2.497
 4299TIP3   OH234311   2.622   4.947   2.788
 4299TIP3    H134312   2.600   5.036   2.761
 4299TIP3    H234313   2.537   4.907   2.808
 4300TIP3   OH234314   4.658   1.454  16.620
 4300TIP3    H134315   4.654   1.380  16.559
 4300TIP3    H234316   4.571   1.493  16.617
 4301TIP3   OH234317   3.923   4.852   1.565
 4301TIP3    H134318   3.999   4.881   1.617
 4301TIP3    H234319   3.881   4.934   1.537
 4302TIP3   OH234320   6.539   5.827  17.091
 4302TIP3    H134321   6.610   5.851  17.151
 4302TIP3    H234322   6.490   5.908  17.079
 4303TIP3   OH234323   2.004   4.776   0.457
 4303TIP3    H134324   2.073   4.711   0.474
 4303TIP3    H234325   2.019   4.845   0.521
 4304TIP3   OH234326   2.661   4.119   0.474
 4304TIP3    H134327   2.680   4.099   0.382
 4304TIP3    H234328   2.726   4.185   0.498
 4305TIP3   OH234329   1.698   2.695  16.571
 4305TIP3    H134330   1.647   2.636  16.515
 4305TIP3    H234331   1.788   2.667  16.560
 4306TIP3   OH234332   0.644   0.299   1.231
 4306TIP3    H134333   0.655   0.251   1.314
 4306TIP3    H234334   0.713   0.266   1.175
 4307TIP3   OH234335   2.572   2.532  16.756
 4307TIP3    H134336   2.542   2.529  16.665
 4307TIP3    H234337   2.607   2.445  16.773
 4308TIP3   OH234338   0.487   2.557  11.240
 4308TIP3    H134339   0.536   2.561  11.158
 4308TIP3    H234340   0.432   2.479  11.231
 4309TIP3   OH234341   4.276   5.426  14.882
 4309TIP3    H134342   4.286   5.466  14.968
 4309TIP3    H234343   4.254   5.500  14.824
 4310TIP3   OH234344   3.731   1.279  12.847
 4310TIP3    H134345   3.671   1.241  12.911
 4310TIP3    H234346   3.780   1.205  12.812
 4311TIP3   OH234347   0.135   4.926   0.544
 4311TIP3    H134348   0.141   4.894   0.455
 4311TIP3    H234349   0.055   4.885   0.579
 4312TIP3   OH234350   6.345   1.182  15.472
 4312TIP3    H134351   6.386   1.118  15.414
 4312TIP3    H234352   6.373   1.155  15.560
 4313TIP3   OH234353   0.747   3.510   3.126
 4313TIP3    H134354   0.820   3.563   3.093
 4313TIP3    H234355   0.673   3.534   3.072
 4314TIP3   OH234356   3.053   6.646  15.683
 4314TIP3    H134357   2.995   6.631  15.609
 4314TIP3    H234358   3.141   6.644  15.646
 4315TIP3   OH234359   6.624   4.008  14.727
 4315TIP3    H134360   6.604   3.955  14.649
 4315TIP3    H234361   6.597   3.953  14.800
 4316TIP3   OH234362   3.693   5.383   2.033
 4316TIP3    H134363   3.687   5.333   2.115
 4316TIP3    H234364   3.730   5.322   1.970
 4317TIP3   OH234365   5.300   0.862   2.708
 4317TIP3    H134366   5.389   0.894   2.691
 4317TIP3    H234367   5.256   0.866   2.623
 4318TIP3   OH234368   4.546   6.210   5.308
 4318TIP3    H134369   4.549   6.115   5.319
 4318TIP3    H234370   4.637   6.238   5.320
 4319TIP3   OH234371   5.193   2.681  16.066
 4319TIP3    H134372   5.158   2.719  15.986
 4319TIP3    H234373   5.267   2.626  16.037
 4320TIP3   OH234374   1.890   1.775   3.602
 4320TIP3    H134375   1.947   1.702   3.625
 4320TIP3    H234376   1.920   1.847   3.657
 4321TIP3   OH234377   6.238   5.831  16.631
 4321TIP3    H134378   6.260   5.885  16.707
 4321TIP3    H234379   6.322   5.815  16.587
 4322TIP3   OH234380   4.010   0.236   4.685
 4322TIP3    H134381   4.027   0.185   4.764
 4322TIP3    H234382   4.029   0.176   4.613
 4323TIP3   OH234383   6.084   6.470  15.991
 4323TIP3    H134384   6.168   6.434  15.964
 4323TIP3    H234385   6.028   6.460  15.914
 4324TIP3   OH234386   3.129   6.523   2.030
 4324TIP3    H134387   3.043   6.550   1.997
 4324TIP3    H234388   3.146   6.583   2.102
 4325TIP3   OH234389   5.176   5.541  16.500
 4325TIP3    H134390   5.170   5.491  16.581
 4325TIP3    H234391   5.112   5.501  16.441
 4326TIP3   OH234392   6.072   3.120  13.072
 4326TIP3    H134393   6.151   3.127  13.125
 4326TIP3    H234394   6.082   3.039  13.023
 4327TIP3   OH234395   0.960   1.744  11.273
 4327TIP3    H134396   0.937   1.741  11.366
 4327TIP3    H234397   0.902   1.811  11.236
 4328TIP3   OH234398   2.062   4.730  14.992
 4328TIP3    H134399   2.079   4.786  15.067
 4328TIP3    H234400   2.054   4.790  14.918
 4329TIP3   OH234401   1.636   5.191   1.400
 4329TIP3    H134402   1.723   5.232   1.403
 4329TIP3    H234403   1.651   5.104   1.365
 4330TIP3   OH234404   3.362   3.811   5.017
 4330TIP3    H134405   3.301   3.751   5.060
 4330TIP3    H234406   3.399   3.863   5.089
 4331TIP3   OH234407   4.787   5.697  10.124
 4331TIP3    H134408   4.781   5.764  10.193
 4331TIP3    H234409   4.879   5.671  10.124
 4332TIP3   OH234410   4.580   0.716   0.952
 4332TIP3    H134411   4.654   0.668   0.916
 4332TIP3    H234412   4.613   0.753   1.034
 4333TIP3   OH234413   4.344   1.340  14.921
 4333TIP3    H134414   4.297   1.419  14.950
 4333TIP3    H234415   4.372   1.360  14.832
 4334TIP3   OH234416   2.306   3.945   4.797
 4334TIP3    H134417   2.287   4.037   4.817
 4334TIP3    H234418   2.303   3.940   4.701
 4335TIP3   OH234419   1.981   4.278  15.379
 4335TIP3    H134420   1.963   4.323  15.461
 4335TIP3    H234421   2.011   4.191  15.406
 4336TIP3   OH234422   6.155   6.116  16.253
 4336TIP3    H134423   6.108   6.199  16.246
 4336TIP3    H234424   6.094   6.050  16.221
 4337TIP3   OH234425   6.730   1.328   2.885
 4337TIP3    H134426   6.744   1.274   2.808
 4337TIP3    H234427   6.812   1.375   2.898
 4338TIP3   OH234428   5.601   2.562  16.996
 4338TIP3    H134429   5.646   2.540  16.915
 4338TIP3    H234430   5.559   2.646  16.979
 4339TIP3   OH234431   0.485   2.014   2.123
 4339TIP3    H134432   0.541   1.936   2.131
 4339TIP3    H234433   0.396   1.979   2.120
 4340TIP3   OH234434   5.045   4.138  11.444
 4340TIP3    H134435   4.986   4.199  11.400
 4340TIP3    H234436   4.989   4.091  11.506
 4341TIP3   OH234437   1.551   2.485  11.853
 4341TIP3    H134438   1.502   2.510  11.775
 4341TIP3    H234439   1.494   2.508  11.926
 4342TIP3   OH234440   4.362   2.979   5.496
 4342TIP3    H134441   4.425   3.029   5.445
 4342TIP3    H234442   4.382   3.000   5.587
 4343TIP3   OH234443   0.403   0.611  12.887
 4343TIP3    H134444   0.478   0.574  12.842
 4343TIP3    H234445   0.366   0.674  12.824
 4344TIP3   OH234446   5.184   3.864   4.718
 4344TIP3    H134447   5.228   3.903   4.792
 4344TIP3    H234448   5.141   3.937   4.673
 4345TIP3   OH234449   3.895   4.316  14.385
 4345TIP3    H134450   3.906   4.377  14.457
 4345TIP3    H234451   3.971   4.332  14.329
 4346TIP3   OH234452   2.447   2.127   2.427
 4346TIP3    H134453   2.401   2.195   2.477
 4346TIP3    H234454   2.520   2.101   2.484
 4347TIP3   OH234455   3.304   5.576  16.268
 4347TIP3    H134456   3.260   5.660  16.278
 4347TIP3    H234457   3.387   5.597  16.225
 4348TIP3   OH234458   2.664   3.883  16.049
 4348TIP3    H134459   2.684   3.900  16.140
 4348TIP3    H234460   2.747   3.851  16.012
 4349TIP3   OH234461   5.477   4.456  16.849
 4349TIP3    H134462   5.422   4.521  16.805
 4349TIP3    H234463   5.567   4.485  16.835
 4350TIP3   OH234464   4.847   4.896   1.709
 4350TIP3    H134465   4.800   4.897   1.626
 4350TIP3    H234466   4.885   4.983   1.717
 4351TIP3   OH234467   1.494   5.942  16.328
 4351TIP3    H134468   1.492   5.904  16.240
 4351TIP3    H234469   1.448   6.026  16.318
 4352TIP3   OH234470   0.861   1.460  11.178
 4352TIP3    H134471   0.860   1.526  11.247
 4352TIP3    H234472   0.895   1.381  11.221
 4353TIP3   OH234473   1.035   1.734  13.627
 4353TIP3    H134474   1.053   1.669  13.695
 4353TIP3    H234475   0.993   1.806  13.673
 4354TIP3   OH234476   5.862   0.942  14.516
 4354TIP3    H134477   5.788   1.002  14.522
 4354TIP3    H234478   5.938   0.999  14.503
 4355TIP3   OH234479   5.960   3.084   0.006
 4355TIP3    H134480   5.954   3.179  -0.004
 4355TIP3    H234481   5.934   3.068   0.097
 4356TIP3   OH234482   6.211   1.465   3.776
 4356TIP3    H134483   6.289   1.416   3.800
 4356TIP3    H234484   6.162   1.473   3.857
 4357TIP3   OH234485   3.594   5.319   3.180
 4357TIP3    H134486   3.632   5.232   3.197
 4357TIP3    H234487   3.661   5.365   3.130
 4358TIP3   OH234488   5.975   4.322  15.680
 4358TIP3    H134489   5.965   4.412  15.649
 4358TIP3    H234490   6.023   4.278  15.610
 4359TIP3   OH234491   5.642   1.739  12.953
 4359TIP3    H134492   5.704   1.812  12.957
 4359TIP3    H234493   5.627   1.715  13.044
 4360TIP3   OH234494   1.624   3.907  14.393
 4360TIP3    H134495   1.556   3.893  14.327
 4360TIP3    H234496   1.587   3.974  14.451
 4361TIP3   OH234497   3.348   1.618  11.684
 4361TIP3    H134498   3.329   1.675  11.610
 4361TIP3    H234499   3.315   1.665  11.761
 4362TIP3   OH234500   3.890   3.883   3.659
 4362TIP3    H134501   3.857   3.957   3.607
 4362TIP3    H234502   3.897   3.918   3.748
 4363TIP3   OH234503   0.915   5.293  11.634
 4363TIP3    H134504   0.979   5.354  11.669
 4363TIP3    H234505   0.889   5.331  11.549
 4364TIP3   OH234506   2.759   1.544  12.278
 4364TIP3    H134507   2.751   1.610  12.209
 4364TIP3    H234508   2.827   1.578  12.336
 4365TIP3   OH234509   0.063   0.166  14.823
 4365TIP3    H134510   0.115   0.103  14.773
 4365TIP3    H234511   0.002   0.203  14.758
 4366TIP3   OH234512   5.204   5.205  16.473
 4366TIP3    H134513   5.278   5.248  16.515
 4366TIP3    H234514   5.186   5.258  16.396
 4367TIP3   OH234515   4.853   4.505  10.514
 4367TIP3    H134516   4.768   4.515  10.557
 4367TIP3    H234517   4.894   4.432  10.559
 4368TIP3   OH234518   6.422   1.766   0.945
 4368TIP3    H134519   6.412   1.730   0.856
 4368TIP3    H234520   6.516   1.759   0.963
 4369TIP3   OH234521   0.715   0.059   5.015
 4369TIP3    H134522   0.793   0.031   4.968
 4369TIP3    H234523   0.657  -0.017   5.014
 4370TIP3   OH234524   2.309   4.131  15.294
 4370TIP3    H134525   2.311   4.039  15.270
 4370TIP3    H234526   2.398   4.150  15.323
 4371TIP3   OH234527   4.938   5.693   5.967
 4371TIP3    H134528   4.962   5.679   6.058
 4371TIP3    H234529   4.877   5.767   5.969
 4372TIP3   OH234530   1.063   5.891  16.939
 4372TIP3    H134531   1.143   5.877  16.988
 4372TIP3    H234532   1.080   5.850  16.854
 4373TIP3   OH234533   6.622   5.138   2.030
 4373TIP3    H134534   6.676   5.201   2.079
 4373TIP3    H234535   6.558   5.107   2.094
 4374TIP3   OH234536   2.897   1.149  15.444
 4374TIP3    H134537   2.983   1.143  15.486
 4374TIP3    H234538   2.916   1.144  15.350
 4375TIP3   OH234539   2.374   4.073   3.082
 4375TIP3    H134540   2.362   3.982   3.107
 4375TIP3    H234541   2.420   4.069   2.998
 4376TIP3   OH234542   4.303   5.490  13.228
 4376TIP3    H134543   4.308   5.567  13.172
 4376TIP3    H234544   4.348   5.421  13.179
 4377TIP3   OH234545   0.163   3.534   5.037
 4377TIP3    H134546   0.128   3.448   5.061
 4377TIP3    H234547   0.088   3.593   5.045
 4378TIP3   OH234548   3.449   3.204   4.326
 4378TIP3    H134549   3.475   3.160   4.245
 4378TIP3    H234550   3.356   3.224   4.314
 4379TIP3   OH234551   2.098   4.214   3.886
 4379TIP3    H134552   2.120   4.223   3.979
 4379TIP3    H234553   2.003   4.212   3.884
 4380TIP3   OH234554   6.661   2.481   4.028
 4380TIP3    H134555   6.610   2.410   3.989
 4380TIP3    H234556   6.728   2.501   3.962
 4381TIP3   OH234557   3.461   6.530   2.678
 4381TIP3    H134558   3.511   6.603   2.640
 4381TIP3    H234559   3.528   6.467   2.706
 4382TIP3   OH234560   4.687   5.471   1.336
 4382TIP3    H134561   4.688   5.534   1.264
 4382TIP3    H234562   4.701   5.525   1.415
 4383TIP3   OH234563   3.061   0.562  17.061
 4383TIP3    H134564   3.136   0.502  17.063
 4383TIP3    H234565   3.065   0.607  17.146
 4384TIP3   OH234566   6.562   1.398   0.458
 4384TIP3    H134567   6.654   1.377   0.442
 4384TIP3    H234568   6.562   1.493   0.472
 4385TIP3   OH234569   2.691   1.971   2.538
 4385TIP3    H134570   2.705   1.906   2.606
 4385TIP3    H234571   2.673   2.052   2.585
 4386TIP3   OH234572   0.136   2.947  15.018
 4386TIP3    H134573   0.155   3.021  14.961
 4386TIP3    H234574   0.116   2.987  15.103
 4387TIP3   OH234575   4.731   3.872   2.344
 4387TIP3    H134576   4.687   3.955   2.324
 4387TIP3    H234577   4.669   3.805   2.317
 4388TIP3   OH234578   1.874   3.388   1.951
 4388TIP3    H134579   1.889   3.331   1.876
 4388TIP3    H234580   1.950   3.446   1.953
 4389TIP3   OH234581   4.730   6.367   1.402
 4389TIP3    H134582   4.647   6.415   1.409
 4389TIP3    H234583   4.755   6.348   1.492
 4390TIP3   OH234584   6.124   2.651  13.492
 4390TIP3    H134585   6.035   2.670  13.465
 4390TIP3    H234586   6.124   2.659  13.587
 4391TIP3   OH234587   3.860   3.853  14.477
 4391TIP3    H134588   3.770   3.831  14.453
 4391TIP3    H234589   3.866   3.836  14.571
 4392TIP3   OH234590   6.018   3.631   1.362
 4392TIP3    H134591   5.974   3.561   1.313
 4392TIP3    H234592   6.111   3.619   1.342
 4393TIP3   OH234593   1.732   4.060  12.217
 4393TIP3    H134594   1.809   4.006  12.197
 4393TIP3    H234595   1.658   4.001  12.206
 4394TIP3   OH234596   4.357   1.042   4.188
 4394TIP3    H134597   4.409   1.035   4.268
 4394TIP3    H234598   4.267   1.054   4.219
 4395TIP3   OH234599   1.909   2.993   5.639
 4395TIP3    H134600   1.863   3.038   5.568
 4395TIP3    H234601   1.963   3.061   5.679
 4396TIP3   OH234602   3.873   0.840   0.226
 4396TIP3    H134603   3.906   0.814   0.311
 4396TIP3    H234604   3.906   0.929   0.213
 4397TIP3   OH234605   5.790   3.422   4.443
 4397TIP3    H134606   5.852   3.390   4.377
 4397TIP3    H234607   5.819   3.380   4.524
 4398TIP3   OH234608   2.367   1.367  13.530
 4398TIP3    H134609   2.398   1.449  13.568
 4398TIP3    H234610   2.272   1.379  13.522
 4399TIP3   OH234611   5.907   2.442   0.227
 4399TIP3    H134612   5.829   2.387   0.236
 4399TIP3    H234613   5.885   2.522   0.275
 4400TIP3   OH234614   2.206   1.772   0.334
 4400TIP3    H134615   2.163   1.732   0.258
 4400TIP3    H234616   2.284   1.718   0.348
 4401TIP3   OH234617   0.247   0.095  13.764
 4401TIP3    H134618   0.287   0.171  13.721
 4401TIP3    H234619   0.276   0.102  13.855
 4402TIP3   OH234620   1.755   0.308  13.957
 4402TIP3    H134621   1.729   0.311  13.865
 4402TIP3    H234622   1.673   0.293  14.005
 4403TIP3   OH234623   4.726   5.105   5.681
 4403TIP3    H134624   4.749   5.197   5.694
 4403TIP3    H234625   4.759   5.060   5.759
 4404TIP3   OH234626   5.423   3.872  14.181
 4404TIP3    H134627   5.349   3.904  14.130
 4404TIP3    H234628   5.424   3.928  14.259
 4405TIP3   OH234629   0.217   3.069  11.307
 4405TIP3    H134630   0.167   3.097  11.384
 4405TIP3    H234631   0.269   2.995  11.338
 4406TIP3   OH234632   0.844   2.120  13.284
 4406TIP3    H134633   0.782   2.192  13.276
 4406TIP3    H234634   0.874   2.104  13.194
 4407TIP3   OH234635   2.270   4.206  14.052
 4407TIP3    H134636   2.228   4.287  14.081
 4407TIP3    H234637   2.219   4.179  13.976
 4408TIP3   OH234638   3.419   3.686   2.345
 4408TIP3    H134639   3.403   3.667   2.253
 4408TIP3    H234640   3.388   3.775   2.358
 4409TIP3   OH234641   2.074   2.471   5.075
 4409TIP3    H134642   2.027   2.538   5.025
 4409TIP3    H234643   2.129   2.520   5.135
 4410TIP3   OH234644   5.297   4.941  11.755
 4410TIP3    H134645   5.300   4.857  11.710
 4410TIP3    H234646   5.204   4.965  11.754
 4411TIP3   OH234647   3.842   3.621   3.352
 4411TIP3    H134648   3.753   3.594   3.330
 4411TIP3    H234649   3.886   3.631   3.268
 4412TIP3   OH234650   4.819   4.435  11.909
 4412TIP3    H134651   4.790   4.401  11.993
 4412TIP3    H234652   4.820   4.530  11.920
 4413TIP3   OH234653   5.904   5.246  16.761
 4413TIP3    H134654   5.938   5.318  16.814
 4413TIP3    H234655   5.810   5.264  16.753
 4414TIP3   OH234656   4.240   2.569  12.565
 4414TIP3    H134657   4.267   2.490  12.520
 4414TIP3    H234658   4.149   2.582  12.538
 4415TIP3   OH234659   1.891   5.932  12.021
 4415TIP3    H134660   1.887   5.852  11.969
 4415TIP3    H234661   1.819   5.986  11.988
 4416TIP3   OH234662   4.565   5.509   2.208
 4416TIP3    H134663   4.628   5.439   2.229
 4416TIP3    H234664   4.610   5.590   2.233
 4417TIP3   OH234665   4.861   2.522   1.902
 4417TIP3    H134666   4.945   2.478   1.909
 4417TIP3    H234667   4.826   2.492   1.818
 4418TIP3   OH234668   0.624   2.964  14.508
 4418TIP3    H134669   0.718   2.969  14.489
 4418TIP3    H234670   0.618   2.911  14.587
 4419TIP3   OH234671   6.494   0.327  13.333
 4419TIP3    H134672   6.432   0.257  13.349
 4419TIP3    H234673   6.456   0.378  13.262
 4420TIP3   OH234674   4.059   2.676   4.137
 4420TIP3    H134675   4.080   2.609   4.072
 4420TIP3    H234676   3.970   2.703   4.115
 4421TIP3   OH234677   2.417   2.464  14.578
 4421TIP3    H134678   2.492   2.415  14.611
 4421TIP3    H234679   2.342   2.408  14.597
 4422TIP3   OH234680   0.170   4.442   4.881
 4422TIP3    H134681   0.129   4.461   4.965
 4422TIP3    H234682   0.103   4.465   4.816
 4423TIP3   OH234683   1.968   0.490  17.078
 4423TIP3    H134684   1.944   0.421  17.140
 4423TIP3    H234685   2.027   0.447  17.016
 4424TIP3   OH234686   6.311   1.426   0.600
 4424TIP3    H134687   6.393   1.411   0.554
 4424TIP3    H234688   6.325   1.508   0.648
 4425TIP3   OH234689   5.833   5.801  17.065
 4425TIP3    H134690   5.764   5.810  16.999
 4425TIP3    H234691   5.906   5.762  17.018
 4426TIP3   OH234692   1.793   6.755   5.355
 4426TIP3    H134693   1.722   6.788   5.411
 4426TIP3    H234694   1.842   6.696   5.411
 4427TIP3   OH234695   0.318   4.005   1.830
 4427TIP3    H134696   0.371   3.963   1.898
 4427TIP3    H234697   0.307   3.937   1.763
 4428TIP3   OH234698   1.569   6.170  12.065
 4428TIP3    H134699   1.570   6.113  11.988
 4428TIP3    H234700   1.483   6.152  12.106
 4429TIP3   OH234701   3.194   0.856   4.036
 4429TIP3    H134702   3.150   0.775   4.014
 4429TIP3    H234703   3.214   0.848   4.130
 4430TIP3   OH234704   0.458   1.366   6.409
 4430TIP3    H134705   0.527   1.324   6.357
 4430TIP3    H234706   0.388   1.385   6.347
 4431TIP3   OH234707   2.421   3.436  14.427
 4431TIP3    H134708   2.477   3.468  14.356
 4431TIP3    H234709   2.334   3.429  14.388
 4432TIP3   OH234710   3.230   1.514   3.334
 4432TIP3    H134711   3.206   1.516   3.242
 4432TIP3    H234712   3.193   1.595   3.370
 4433TIP3   OH234713   6.779   1.295   0.276
 4433TIP3    H134714   6.860   1.345   0.286
 4433TIP3    H234715   6.720   1.353   0.228
 4434TIP3   OH234716   2.339   3.897   2.592
 4434TIP3    H134717   2.323   3.984   2.554
 4434TIP3    H234718   2.266   3.844   2.561
 4435TIP3   OH234719   6.458   3.894   6.209
 4435TIP3    H134720   6.510   3.915   6.287
 4435TIP3    H234721   6.478   3.802   6.191
 4436TIP3   OH234722   3.116   6.352  14.591
 4436TIP3    H134723   3.143   6.443  14.586
 4436TIP3    H234724   3.125   6.319  14.502
 4437TIP3   OH234725   1.127   6.364  13.460
 4437TIP3    H134726   1.067   6.304  13.505
 4437TIP3    H234727   1.148   6.320  13.378
 4438TIP3   OH234728   5.790   1.034  15.963
 4438TIP3    H134729   5.741   1.026  16.045
 4438TIP3    H234730   5.740   1.099  15.912
 4439TIP3   OH234731   0.010   1.229   3.616
 4439TIP3    H134732   0.013   1.317   3.579
 4439TIP3    H234733   0.063   1.235   3.695
 4440TIP3   OH234734   3.297   4.065   0.277
 4440TIP3    H134735   3.388   4.095   0.279
 4440TIP3    H234736   3.251   4.124   0.337
 4441TIP3   OH234737   6.137   4.924  15.595
 4441TIP3    H134738   6.088   4.891  15.671
 4441TIP3    H234739   6.074   4.979  15.549
 4442TIP3   OH234740   5.975   2.126  14.369
 4442TIP3    H134741   5.939   2.102  14.455
 4442TIP3    H234742   6.029   2.202  14.387
 4443TIP3   OH234743   6.542   2.455  13.221
 4443TIP3    H134744   6.482   2.516  13.265
 4443TIP3    H234745   6.627   2.498  13.225
 4444TIP3   OH234746   3.879   3.498   3.913
 4444TIP3    H134747   3.845   3.536   3.832
 4444TIP3    H234748   3.893   3.573   3.971
 4445TIP3   OH234749   5.507   6.655   2.530
 4445TIP3    H134750   5.533   6.564   2.513
 4445TIP3    H234751   5.580   6.692   2.580
 4446TIP3   OH234752   3.786   3.592  13.579
 4446TIP3    H134753   3.852   3.658  13.600
 4446TIP3    H234754   3.803   3.521  13.642
 4447TIP3   OH234755   5.375   5.395   0.920
 4447TIP3    H134756   5.454   5.350   0.950
 4447TIP3    H234757   5.366   5.470   0.979
 4448TIP3   OH234758   1.494   3.071  14.206
 4448TIP3    H134759   1.487   3.018  14.285
 4448TIP3    H234760   1.456   3.016  14.137
 4449TIP3   OH234761   2.149   6.692  11.725
 4449TIP3    H134762   2.117   6.717  11.811
 4449TIP3    H234763   2.169   6.598  11.733
 4450TIP3   OH234764   3.255   4.903   1.706
 4450TIP3    H134765   3.233   4.968   1.773
 4450TIP3    H234766   3.178   4.846   1.701
 4451TIP3   OH234767   4.320   6.523  15.482
 4451TIP3    H134768   4.224   6.529  15.477
 4451TIP3    H234769   4.342   6.565  15.565
 4452TIP3   OH234770   0.748   2.796  12.426
 4452TIP3    H134771   0.716   2.763  12.342
 4452TIP3    H234772   0.801   2.725  12.462
 4453TIP3   OH234773   4.707   4.845   2.660
 4453TIP3    H134774   4.703   4.940   2.669
 4453TIP3    H234775   4.800   4.824   2.666
 4454TIP3   OH234776   4.587   3.273  15.266
 4454TIP3    H134777   4.587   3.361  15.229
 4454TIP3    H234778   4.632   3.283  15.350
 4455TIP3   OH234779   6.075   0.058  10.479
 4455TIP3    H134780   6.002   0.032  10.536
 4455TIP3    H234781   6.110  -0.025  10.446
 4456TIP3   OH234782   3.753   5.002  10.567
 4456TIP3    H134783   3.804   4.944  10.623
 4456TIP3    H234784   3.713   4.943  10.502
 4457TIP3   OH234785   5.586   6.660  12.683
 4457TIP3    H134786   5.539   6.661  12.599
 4457TIP3    H234787   5.517   6.664  12.749
 4458TIP3   OH234788   6.777   3.309  12.617
 4458TIP3    H134789   6.754   3.361  12.540
 4458TIP3    H234790   6.740   3.222  12.601
 4459TIP3   OH234791   5.183   0.575  16.648
 4459TIP3    H134792   5.090   0.574  16.671
 4459TIP3    H234793   5.226   0.522  16.714
 4460TIP3   OH234794   5.109   1.600   3.301
 4460TIP3    H134795   5.155   1.600   3.217
 4460TIP3    H234796   5.082   1.509   3.314
 4461TIP3   OH234797   1.331   6.525   4.977
 4461TIP3    H134798   1.364   6.615   4.980
 4461TIP3    H234799   1.374   6.481   5.050
 4462TIP3   OH234800   4.145   5.692   2.947
 4462TIP3    H134801   4.215   5.755   2.933
 4462TIP3    H234802   4.088   5.733   3.012
 4463TIP3   OH234803   0.491   0.936  15.578
 4463TIP3    H134804   0.518   1.028  15.576
 4463TIP3    H234805   0.437   0.925  15.499
 4464TIP3   OH234806   4.876   4.990   4.168
 4464TIP3    H134807   4.924   5.022   4.092
 4464TIP3    H234808   4.842   5.069   4.210
 4465TIP3   OH234809   1.990   1.338  13.310
 4465TIP3    H134810   2.058   1.322  13.375
 4465TIP3    H234811   2.011   1.425  13.274
 4466TIP3   OH234812   5.163   2.643  13.832
 4466TIP3    H134813   5.196   2.643  13.742
 4466TIP3    H234814   5.180   2.554  13.864
 4467TIP3   OH234815   1.505   2.809   1.430
 4467TIP3    H134816   1.499   2.743   1.499
 4467TIP3    H234817   1.445   2.778   1.362
 4468TIP3   OH234818   3.063   5.282  14.980
 4468TIP3    H134819   2.979   5.240  14.997
 4468TIP3    H234820   3.116   5.265  15.058
 4469TIP3   OH234821   4.220   5.372   5.601
 4469TIP3    H134822   4.197   5.346   5.511
 4469TIP3    H234823   4.228   5.468   5.597
 4470TIP3   OH234824   5.233   6.374   4.241
 4470TIP3    H134825   5.254   6.289   4.201
 4470TIP3    H234826   5.153   6.401   4.197
 4471TIP3   OH234827   0.317   0.056   1.502
 4471TIP3    H134828   0.392   0.081   1.556
 4471TIP3    H234829   0.318  -0.039   1.501
 4472TIP3   OH234830   2.234   3.079  11.644
 4472TIP3    H134831   2.295   3.133  11.595
 4472TIP3    H234832   2.152   3.083  11.594
 4473TIP3   OH234833   1.057   3.890  15.155
 4473TIP3    H134834   1.092   3.805  15.181
 4473TIP3    H234835   1.022   3.928  15.235
 4474TIP3   OH234836   0.973   6.456   6.657
 4474TIP3    H134837   0.908   6.493   6.717
 4474TIP3    H234838   0.950   6.363   6.652
 4475TIP3   OH234839   2.087   1.370   3.677
 4475TIP3    H134840   2.176   1.394   3.701
 4475TIP3    H234841   2.096   1.317   3.598
 4476TIP3   OH234842   0.135   4.085  17.175
 4476TIP3    H134843   0.122   4.035  17.256
 4476TIP3    H234844   0.227   4.109  17.176
 4477TIP3   OH234845   6.343   3.511  14.091
 4477TIP3    H134846   6.311   3.517  14.181
 4477TIP3    H234847   6.395   3.590  14.078
 4478TIP3   OH234848   4.868   6.051  16.401
 4478TIP3    H134849   4.887   6.004  16.481
 4478TIP3    H234850   4.908   5.999  16.331
 4479TIP3   OH234851   1.951   1.233  17.124
 4479TIP3    H134852   1.886   1.264  17.188
 4479TIP3    H234853   1.954   1.138  17.138
 4480TIP3   OH234854   4.145   1.373   1.235
 4480TIP3    H134855   4.118   1.299   1.288
 4480TIP3    H234856   4.240   1.363   1.227
 4481TIP3   OH234857   4.441   2.631   1.584
 4481TIP3    H134858   4.489   2.581   1.518
 4481TIP3    H234859   4.489   2.613   1.665
 4482TIP3   OH234860   3.356   1.640  11.092
 4482TIP3    H134861   3.403   1.707  11.042
 4482TIP3    H234862   3.407   1.629  11.172
 4483TIP3   OH234863   0.501   6.247   4.454
 4483TIP3    H134864   0.467   6.233   4.542
 4483TIP3    H234865   0.589   6.283   4.467
 4484TIP3   OH234866   1.063   3.683   3.965
 4484TIP3    H134867   1.085   3.752   3.902
 4484TIP3    H234868   1.118   3.701   4.041
 4485TIP3   OH234869   2.758   4.426   4.476
 4485TIP3    H134870   2.813   4.404   4.551
 4485TIP3    H234871   2.743   4.342   4.432
 4486TIP3   OH234872   1.097   6.588  16.093
 4486TIP3    H134873   1.132   6.601  16.181
 4486TIP3    H234874   1.119   6.497  16.072
 4487TIP3   OH234875   4.470   5.952  11.697
 4487TIP3    H134876   4.546   6.010  11.699
 4487TIP3    H234877   4.425   5.970  11.780
 4488TIP3   OH234878   3.030   2.589   5.083
 4488TIP3    H134879   3.053   2.658   5.145
 4488TIP3    H234880   3.101   2.525   5.090
 4489TIP3   OH234881   3.808   2.580  14.238
 4489TIP3    H134882   3.887   2.555  14.286
 4489TIP3    H234883   3.752   2.620  14.305
 4490TIP3   OH234884   1.768   5.467   3.240
 4490TIP3    H134885   1.793   5.434   3.326
 4490TIP3    H234886   1.745   5.389   3.189
 4491TIP3   OH234887   2.239   5.140   5.347
 4491TIP3    H134888   2.328   5.130   5.381
 4491TIP3    H234889   2.224   5.059   5.297
 4492TIP3   OH234890   3.260   0.744  12.952
 4492TIP3    H134891   3.227   0.830  12.979
 4492TIP3    H234892   3.302   0.709  13.031
 4493TIP3   OH234893   5.009   1.453  15.342
 4493TIP3    H134894   5.049   1.366  15.342
 4493TIP3    H234895   5.082   1.513  15.326
 4494TIP3   OH234896   3.481   5.052  11.122
 4494TIP3    H134897   3.397   5.095  11.106
 4494TIP3    H234898   3.468   4.961  11.095
 4495TIP3   OH234899   5.234   0.420   1.337
 4495TIP3    H134900   5.184   0.464   1.405
 4495TIP3    H234901   5.170   0.365   1.292
 4496TIP3   OH234902   6.762   5.131  16.272
 4496TIP3    H134903   6.666   5.129  16.275
 4496TIP3    H234904   6.784   5.224  16.260
 4497TIP3   OH234905   5.251   4.506  11.161
 4497TIP3    H134906   5.324   4.488  11.102
 4497TIP3    H234907   5.287   4.495  11.249
 4498TIP3   OH234908   1.698   2.964   1.566
 4498TIP3    H134909   1.667   3.017   1.640
 4498TIP3    H234910   1.619   2.921   1.533
 4499TIP3   OH234911   4.805   3.100   0.067
 4499TIP3    H134912   4.901   3.105   0.063
 4499TIP3    H234913   4.778   3.187   0.099
 4500TIP3   OH234914   2.253   5.215  11.893
 4500TIP3    H134915   2.227   5.125  11.912
 4500TIP3    H234916   2.239   5.225  11.799
 4501TIP3   OH234917   5.312   0.193   5.017
 4501TIP3    H134918   5.325   0.098   5.011
 4501TIP3    H234919   5.271   0.206   5.102
 4502TIP3   OH234920   1.674   1.388   3.483
 4502TIP3    H134921   1.769   1.375   3.483
 4502TIP3    H234922   1.643   1.339   3.560
 4503TIP3   OH234923   0.545   2.368   4.639
 4503TIP3    H134924   0.641   2.367   4.631
 4503TIP3    H234925   0.525   2.453   4.677
 4504TIP3   OH234926   5.092   2.104  11.219
 4504TIP3    H134927   5.061   2.173  11.278
 4504TIP3    H234928   5.126   2.152  11.143
 4505TIP3   OH234929   6.452   4.816   2.568
 4505TIP3    H134930   6.371   4.856   2.600
 4505TIP3    H234931   6.432   4.791   2.478
 4506TIP3   OH234932   2.298   5.373   1.939
 4506TIP3    H134933   2.222   5.398   1.886
 4506TIP3    H234934   2.339   5.456   1.962
 4507TIP3   OH234935   3.888   2.666  11.142
 4507TIP3    H134936   3.889   2.705  11.229
 4507TIP3    H234937   3.822   2.716  11.094
 4508TIP3   OH234938   2.848   4.688   5.756
 4508TIP3    H134939   2.907   4.689   5.832
 4508TIP3    H234940   2.760   4.682   5.794
 4509TIP3   OH234941   1.367   5.310  17.087
 4509TIP3    H134942   1.373   5.292  16.993
 4509TIP3    H234943   1.283   5.354  17.098
 4510TIP3   OH234944   2.215   1.832  15.807
 4510TIP3    H134945   2.252   1.865  15.889
 4510TIP3    H234946   2.134   1.882  15.796
 4511TIP3   OH234947   6.766   2.039  12.783
 4511TIP3    H134948   6.731   1.962  12.738
 4511TIP3    H234949   6.806   2.005  12.863
 4512TIP3   OH234950   2.710   2.246   1.291
 4512TIP3    H134951   2.634   2.188   1.289
 4512TIP3    H234952   2.782   2.190   1.319
 4513TIP3   OH234953   0.470   3.894   1.171
 4513TIP3    H134954   0.433   3.950   1.103
 4513TIP3    H234955   0.549   3.941   1.200
 4514TIP3   OH234956   4.983   3.332  10.945
 4514TIP3    H134957   5.059   3.348  10.890
 4514TIP3    H234958   5.015   3.279  11.018
 4515TIP3   OH234959   2.290   0.942   0.983
 4515TIP3    H134960   2.320   0.852   0.987
 4515TIP3    H234961   2.355   0.987   0.929
 4516TIP3   OH234962   3.300   5.658   2.800
 4516TIP3    H134963   3.294   5.631   2.708
 4516TIP3    H234964   3.231   5.609   2.844
 4517TIP3   OH234965   5.863   6.189  10.738
 4517TIP3    H134966   5.910   6.264  10.775
 4517TIP3    H234967   5.777   6.223  10.715
 4518TIP3   OH234968   4.747   3.679   4.564
 4518TIP3    H134969   4.814   3.647   4.504
 4518TIP3    H234970   4.796   3.725   4.632
 4519TIP3   OH234971   2.915   4.458  11.061
 4519TIP3    H134972   2.886   4.439  11.150
 4519TIP3    H234973   2.856   4.528  11.031
 4520TIP3   OH234974   1.470   2.454  11.363
 4520TIP3    H134975   1.382   2.487  11.382
 4520TIP3    H234976   1.495   2.498  11.281
 4521TIP3   OH234977   4.555   3.617   0.253
 4521TIP3    H134978   4.493   3.647   0.320
 4521TIP3    H234979   4.528   3.663   0.174
 4522TIP3   OH234980   2.657   4.871  14.331
 4522TIP3    H134981   2.616   4.873  14.244
 4522TIP3    H234982   2.583   4.863  14.392
 4523TIP3   OH234983   0.912   4.661   2.136
 4523TIP3    H134984   0.968   4.685   2.210
 4523TIP3    H234985   0.826   4.697   2.157
 4524TIP3   OH234986   4.110   6.691   5.813
 4524TIP3    H134987   4.181   6.754   5.823
 4524TIP3    H234988   4.144   6.611   5.854
 4525TIP3   OH234989   4.871   1.904   3.698
 4525TIP3    H134990   4.823   1.987   3.698
 4525TIP3    H234991   4.954   1.923   3.654
 4526TIP3   OH234992   0.957   5.661   5.887
 4526TIP3    H134993   0.907   5.633   5.964
 4526TIP3    H234994   1.017   5.589   5.870
 4527TIP3   OH234995   0.289   5.698   2.719
 4527TIP3    H134996   0.348   5.622   2.720
 4527TIP3    H234997   0.214   5.672   2.772
 4528TIP3   OH234998   3.920   6.284  13.921
 4528TIP3    H134999   3.837   6.254  13.884
 4528TIP3    H235000   3.931   6.373  13.888
 4529TIP3   OH235001   4.469   2.743   5.125
 4529TIP3    H135002   4.531   2.758   5.054
 4529TIP3    H235003   4.463   2.828   5.170
 4530TIP3   OH235004   6.670   6.744  15.580
 4530TIP3    H135005   6.741   6.697  15.537
 4530TIP3    H235006   6.661   6.826  15.530
 4531TIP3   OH235007   0.127   5.459   4.545
 4531TIP3    H135008   0.185   5.449   4.470
 4531TIP3    H235009   0.100   5.370   4.567
 4532TIP3   OH235010   1.943   3.537   1.376
 4532TIP3    H135011   1.970   3.577   1.293
 4532TIP3    H235012   1.884   3.466   1.351
 4533TIP3   OH235013   6.222   2.597   2.858
 4533TIP3    H135014   6.152   2.612   2.921
 4533TIP3    H235015   6.223   2.676   2.804
 4534TIP3   OH235016   2.267   3.697  14.005
 4534TIP3    H135017   2.243   3.619  13.954
 4534TIP3    H235018   2.194   3.709  14.065
 4535TIP3   OH235019   0.823   3.100   5.421
 4535TIP3    H135020   0.764   3.141   5.358
 4535TIP3    H235021   0.793   3.010   5.428
 4536TIP3   OH235022   0.995   3.417   1.164
 4536TIP3    H135023   0.951   3.357   1.105
 4536TIP3    H235024   1.072   3.370   1.195
 4537TIP3   OH235025   2.399   4.482   0.277
 4537TIP3    H135026   2.397   4.394   0.315
 4537TIP3    H235027   2.342   4.476   0.200
 4538TIP3   OH235028   3.319   0.681  12.572
 4538TIP3    H135029   3.232   0.673  12.611
 4538TIP3    H235030   3.369   0.730  12.637
 4539TIP3   OH235031   0.226   4.341   2.134
 4539TIP3    H135032   0.238   4.247   2.149
 4539TIP3    H235033   0.166   4.346   2.060
 4540TIP3   OH235034   0.405   0.650  10.292
 4540TIP3    H135035   0.370   0.719  10.348
 4540TIP3    H235036   0.373   0.671  10.204
 4541TIP3   OH235037   2.155   4.477   3.555
 4541TIP3    H135038   2.209   4.536   3.609
 4541TIP3    H235039   2.069   4.479   3.596
 4542TIP3   OH235040   5.197   6.181  13.546
 4542TIP3    H135041   5.249   6.262  13.555
 4542TIP3    H235042   5.254   6.122  13.497
 4543TIP3   OH235043   4.325   0.982  16.629
 4543TIP3    H135044   4.263   1.033  16.681
 4543TIP3    H235045   4.274   0.950  16.555
 4544TIP3   OH235046   5.812   1.341   3.938
 4544TIP3    H135047   5.733   1.394   3.942
 4544TIP3    H235048   5.855   1.368   3.857
 4545TIP3   OH235049   5.092   3.210   5.610
 4545TIP3    H135050   5.075   3.119   5.583
 4545TIP3    H235051   5.127   3.202   5.699
 4546TIP3   OH235052   2.877   5.042   4.888
 4546TIP3    H135053   2.813   5.013   4.952
 4546TIP3    H235054   2.957   5.056   4.938
 4547TIP3   OH235055   3.451   4.092   0.816
 4547TIP3    H135056   3.513   4.149   0.862
 4547TIP3    H235057   3.507   4.031   0.768
 4548TIP3   OH235058   6.035   6.769   1.420
 4548TIP3    H135059   5.985   6.851   1.414
 4548TIP3    H235060   6.122   6.792   1.386
 4549TIP3   OH235061   6.177   5.333  14.571
 4549TIP3    H135062   6.122   5.266  14.610
 4549TIP3    H235063   6.262   5.324  14.614
 4550TIP3   OH235064   5.664   6.747  14.742
 4550TIP3    H135065   5.601   6.712  14.805
 4550TIP3    H235066   5.671   6.680  14.675
 4551TIP3   OH235067   4.716   4.835  16.801
 4551TIP3    H135068   4.743   4.757  16.849
 4551TIP3    H235069   4.666   4.801  16.726
 4552TIP3   OH235070   3.430   3.738  13.735
 4552TIP3    H135071   3.460   3.665  13.681
 4552TIP3    H235072   3.407   3.806  13.672
 4553TIP3   OH235073   4.409   3.225   5.910
 4553TIP3    H135074   4.460   3.306   5.907
 4553TIP3    H235075   4.361   3.229   5.992
 4554TIP3   OH235076   0.296   4.104   2.273
 4554TIP3    H135077   0.361   4.034   2.265
 4554TIP3    H235078   0.267   4.099   2.364
 4555TIP3   OH235079   5.642   0.321   0.679
 4555TIP3    H135080   5.664   0.350   0.767
 4555TIP3    H235081   5.651   0.399   0.625
 4556TIP3   OH235082   2.868   0.114   0.504
 4556TIP3    H135083   2.892   0.098   0.413
 4556TIP3    H235084   2.942   0.165   0.540
 4557TIP3   OH235085   2.763   0.931   1.561
 4557TIP3    H135086   2.708   0.866   1.605
 4557TIP3    H235087   2.715   0.952   1.480
 4558TIP3   OH235088   5.046   4.813   6.326
 4558TIP3    H135089   5.074   4.725   6.349
 4558TIP3    H235090   4.968   4.799   6.271
 4559TIP3   OH235091   6.030   2.083  16.698
 4559TIP3    H135092   6.116   2.058  16.733
 4559TIP3    H235093   6.042   2.084  16.603
 4560TIP3   OH235094   1.084   0.525  13.269
 4560TIP3    H135095   1.179   0.513  13.275
 4560TIP3    H235096   1.059   0.477  13.190
 4561TIP3   OH235097   5.883   5.720  14.065
 4561TIP3    H135098   5.960   5.677  14.103
 4561TIP3    H235099   5.809   5.666  14.092
 4562TIP3   OH235100   6.787   0.877   6.276
 4562TIP3    H135101   6.787   0.969   6.305
 4562TIP3    H235102   6.702   0.866   6.232
 4563TIP3   OH235103   0.649   1.883  13.827
 4563TIP3    H135104   0.649   1.906  13.919
 4563TIP3    H235105   0.739   1.899  13.798
 4564TIP3   OH235106   2.040   3.317   2.233
 4564TIP3    H135107   2.084   3.267   2.164
 4564TIP3    H235108   1.984   3.253   2.276
 4565TIP3   OH235109   6.222   0.386  16.736
 4565TIP3    H135110   6.281   0.326  16.690
 4565TIP3    H235111   6.225   0.466  16.685
 4566TIP3   OH235112   1.650   5.629  13.163
 4566TIP3    H135113   1.639   5.534  13.151
 4566TIP3    H235114   1.740   5.646  13.135
 4567TIP3   OH235115   4.359   6.232  14.202
 4567TIP3    H135116   4.303   6.155  14.190
 4567TIP3    H235117   4.313   6.302  14.156
 4568TIP3   OH235118   3.499   4.676  17.080
 4568TIP3    H135119   3.404   4.678  17.081
 4568TIP3    H235120   3.522   4.664  16.987
 4569TIP3   OH235121   5.026   2.156   3.189
 4569TIP3    H135122   5.060   2.233   3.144
 4569TIP3    H235123   4.972   2.111   3.124
 4570TIP3   OH235124   6.186   4.877   2.611
 4570TIP3    H135125   6.114   4.885   2.549
 4570TIP3    H235126   6.143   4.880   2.697
 4571TIP3   OH235127   5.458   2.177   3.194
 4571TIP3    H135128   5.451   2.239   3.121
 4571TIP3    H235129   5.528   2.211   3.248
 4572TIP3   OH235130   6.686   0.883  15.481
 4572TIP3    H135131   6.724   0.966  15.510
 4572TIP3    H235132   6.716   0.819  15.546
 4573TIP3   OH235133   0.487   1.731   3.301
 4573TIP3    H135134   0.475   1.808   3.356
 4573TIP3    H235135   0.556   1.755   3.240
 4574TIP3   OH235136   6.404   3.330  15.728
 4574TIP3    H135137   6.389   3.262  15.663
 4574TIP3    H235138   6.413   3.410  15.677
 4575TIP3   OH235139   0.853   2.161  14.285
 4575TIP3    H135140   0.910   2.102  14.334
 4575TIP3    H235141   0.824   2.226  14.350
 4576TIP3   OH235142   5.171   0.201  16.297
 4576TIP3    H135143   5.233   0.260  16.338
 4576TIP3    H235144   5.129   0.156  16.370
 4577TIP3   OH235145   3.388   3.327  13.045
 4577TIP3    H135146   3.476   3.359  13.065
 4577TIP3    H235147   3.385   3.325  12.949
 4578TIP3   OH235148   1.443   5.417   1.501
 4578TIP3    H135149   1.431   5.483   1.433
 4578TIP3    H235150   1.537   5.402   1.504
 4579TIP3   OH235151   2.616   3.848   2.489
 4579TIP3    H135152   2.524   3.866   2.508
 4579TIP3    H235153   2.636   3.768   2.536
 4580TIP3   OH235154   3.956   0.956  14.366
 4580TIP3    H135155   4.025   0.956  14.433
 4580TIP3    H235156   3.876   0.935  14.414
 4581TIP3   OH235157   1.937   2.592   3.932
 4581TIP3    H135158   1.948   2.507   3.890
 4581TIP3    H235159   1.928   2.653   3.859
 4582TIP3   OH235160   3.561   5.475  16.821
 4582TIP3    H135161   3.517   5.473  16.736
 4582TIP3    H235162   3.630   5.541  16.811
 4583TIP3   OH235163   4.307   5.169  13.196
 4583TIP3    H135164   4.251   5.232  13.151
 4583TIP3    H235165   4.396   5.202  13.182
 4584TIP3   OH235166   5.560   4.807   5.556
 4584TIP3    H135167   5.511   4.836   5.633
 4584TIP3    H235168   5.648   4.843   5.569
 4585TIP3   OH235169   3.289   0.521   5.959
 4585TIP3    H135170   3.376   0.501   5.924
 4585TIP3    H235171   3.305   0.555   6.046
 4586TIP3   OH235172   3.693   3.795   2.304
 4586TIP3    H135173   3.616   3.745   2.332
 4586TIP3    H235174   3.669   3.886   2.319
 4587TIP3   OH235175   3.344   4.272  13.253
 4587TIP3    H135176   3.324   4.190  13.298
 4587TIP3    H235177   3.292   4.268  13.172
 4588TIP3   OH235178   3.209   2.778   5.754
 4588TIP3    H135179   3.123   2.813   5.777
 4588TIP3    H235180   3.258   2.780   5.836
 4589TIP3   OH235181   6.062   6.193   0.813
 4589TIP3    H135182   6.031   6.235   0.892
 4589TIP3    H235183   6.004   6.225   0.744
 4590TIP3   OH235184   4.410   2.361  14.927
 4590TIP3    H135185   4.337   2.422  14.929
 4590TIP3    H235186   4.483   2.412  14.892
 4591TIP3   OH235187   1.119   3.242  13.570
 4591TIP3    H135188   1.149   3.332  13.571
 4591TIP3    H235189   1.086   3.229  13.481
 4592TIP3   OH235190   3.991   4.292  13.338
 4592TIP3    H135191   4.029   4.329  13.418
 4592TIP3    H235192   4.065   4.258  13.289
 4593TIP3   OH235193   2.363   0.579  12.199
 4593TIP3    H135194   2.317   0.581  12.283
 4593TIP3    H235195   2.414   0.498  12.202
 4594TIP3   OH235196   6.665   3.353  13.625
 4594TIP3    H135197   6.678   3.442  13.658
 4594TIP3    H235198   6.681   3.297  13.701
 4595TIP3   OH235199   0.265   2.969   4.967
 4595TIP3    H135200   0.230   3.000   4.884
 4595TIP3    H235201   0.234   2.878   4.973
 4596TIP3   OH235202   5.403   5.496  17.091
 4596TIP3    H135203   5.382   5.432  17.159
 4596TIP3    H235204   5.408   5.444  17.011
 4597TIP3   OH235205   5.628   1.469  13.080
 4597TIP3    H135206   5.633   1.544  13.020
 4597TIP3    H235207   5.641   1.507  13.167
 4598TIP3   OH235208   3.059   2.476   5.514
 4598TIP3    H135209   3.131   2.476   5.578
 4598TIP3    H235210   3.045   2.384   5.494
 4599TIP3   OH235211   4.841   1.708   4.427
 4599TIP3    H135212   4.753   1.706   4.389
 4599TIP3    H235213   4.834   1.771   4.499
 4600TIP3   OH235214   2.872   6.609   2.492
 4600TIP3    H135215   2.959   6.623   2.530
 4600TIP3    H235216   2.814   6.660   2.548
 4601TIP3   OH235217   4.592   4.189   0.639
 4601TIP3    H135218   4.520   4.138   0.602
 4601TIP3    H235219   4.568   4.201   0.731
 4602TIP3   OH235220   5.250   4.494   2.547
 4602TIP3    H135221   5.186   4.554   2.507
 4602TIP3    H235222   5.198   4.418   2.574
 4603TIP3   OH235223   4.050   0.399   3.553
 4603TIP3    H135224   4.055   0.434   3.464
 4603TIP3    H235225   4.002   0.465   3.603
 4604TIP3   OH235226   1.621   1.149   5.353
 4604TIP3    H135227   1.612   1.054   5.363
 4604TIP3    H235228   1.555   1.173   5.289
 4605TIP3   OH235229   6.764   3.153  15.425
 4605TIP3    H135230   6.711   3.233  15.429
 4605TIP3    H235231   6.803   3.145  15.511
 4606TIP3   OH235232   4.852   1.244  17.152
 4606TIP3    H135233   4.805   1.322  17.122
 4606TIP3    H235234   4.888   1.269  17.237
 4607TIP3   OH235235   3.780   5.505  14.485
 4607TIP3    H135236   3.694   5.544  14.477
 4607TIP3    H235237   3.839   5.579  14.502
 4608TIP3   OH235238   4.709   0.192   4.315
 4608TIP3    H135239   4.677   0.118   4.367
 4608TIP3    H235240   4.768   0.239   4.374
 4609TIP3   OH235241   3.506   4.593  16.280
 4609TIP3    H135242   3.441   4.593  16.209
 4609TIP3    H235243   3.531   4.685  16.288
 4610TIP3   OH235244   3.446   6.380  12.793
 4610TIP3    H135245   3.390   6.435  12.738
 4610TIP3    H235246   3.410   6.390  12.881
 4611TIP3   OH235247   5.395   3.194   3.968
 4611TIP3    H135248   5.489   3.186   3.982
 4611TIP3    H235249   5.356   3.131   4.029
 4612TIP3   OH235250   5.908   5.073   0.910
 4612TIP3    H135251   5.918   4.982   0.936
 4612TIP3    H235252   5.816   5.082   0.885
 4613TIP3   OH235253   0.794   1.977   0.983
 4613TIP3    H135254   0.820   2.068   0.996
 4613TIP3    H235255   0.875   1.931   0.961
 4614TIP3   OH235256   5.985   3.036   4.159
 4614TIP3    H135257   5.907   3.051   4.105
 4614TIP3    H235258   5.952   2.993   4.238
 4615TIP3   OH235259   5.067   3.277  12.846
 4615TIP3    H135260   4.989   3.285  12.790
 4615TIP3    H235261   5.116   3.358  12.831
 4616TIP3   OH235262   6.109   1.511   4.004
 4616TIP3    H135263   6.128   1.500   4.097
 4616TIP3    H235264   6.014   1.506   3.998
 4617TIP3   OH235265   5.405   4.407  14.503
 4617TIP3    H135266   5.377   4.441  14.418
 4617TIP3    H235267   5.340   4.340  14.524
 4618TIP3   OH235268   6.057   3.947   3.952
 4618TIP3    H135269   6.047   4.038   3.925
 4618TIP3    H235270   6.040   3.947   4.046
 4619TIP3   OH235271   5.818   6.131   0.025
 4619TIP3    H135272   5.726   6.105   0.017
 4619TIP3    H235273   5.867   6.049   0.027
 4620TIP3   OH235274   0.335   0.848   5.702
 4620TIP3    H135275   0.296   0.912   5.642
 4620TIP3    H235276   0.275   0.774   5.700
 4621TIP3   OH235277   4.011   0.811  15.932
 4621TIP3    H135278   3.943   0.843  15.992
 4621TIP3    H235279   3.984   0.722  15.910
 4622TIP3   OH235280   1.867   3.213   5.302
 4622TIP3    H135281   1.804   3.141   5.290
 4622TIP3    H235282   1.951   3.169   5.315
 4623TIP3   OH235283   5.440   1.358  16.373
 4623TIP3    H135284   5.464   1.301  16.447
 4623TIP3    H235285   5.383   1.424  16.412
 4624TIP3   OH235286   1.982   3.847   2.311
 4624TIP3    H135287   1.993   3.784   2.239
 4624TIP3    H235288   1.918   3.910   2.277
 4625TIP3   OH235289   4.606   3.637  13.304
 4625TIP3    H135290   4.579   3.620  13.394
 4625TIP3    H235291   4.659   3.717  13.309
 4626TIP3   OH235292   0.552   5.751   1.735
 4626TIP3    H135293   0.465   5.767   1.771
 4626TIP3    H235294   0.606   5.730   1.812
 4627TIP3   OH235295   3.994   0.013  12.211
 4627TIP3    H135296   4.044   0.015  12.293
 4627TIP3    H235297   4.051   0.056  12.148
 4628TIP3   OH235298   2.565   0.632  16.575
 4628TIP3    H135299   2.652   0.636  16.536
 4628TIP3    H235300   2.506   0.633  16.500
 4629TIP3   OH235301   3.693   5.987   4.983
 4629TIP3    H135302   3.682   6.069   5.031
 4629TIP3    H235303   3.611   5.939   4.996
 4630TIP3   OH235304   4.529   4.562   4.964
 4630TIP3    H135305   4.467   4.572   5.037
 4630TIP3    H235306   4.614   4.558   5.007
 4631TIP3   OH235307   1.220   3.256   2.517
 4631TIP3    H135308   1.313   3.267   2.536
 4631TIP3    H235309   1.197   3.173   2.559
 4632TIP3   OH235310   2.802   0.842   2.357
 4632TIP3    H135311   2.752   0.885   2.426
 4632TIP3    H235312   2.894   0.857   2.381
 4633TIP3   OH235313   0.505   4.132   4.143
 4633TIP3    H135314   0.539   4.188   4.073
 4633TIP3    H235315   0.411   4.146   4.142
 4634TIP3   OH235316   4.456   4.448  14.314
 4634TIP3    H135317   4.376   4.494  14.338
 4634TIP3    H235318   4.516   4.466  14.386
 4635TIP3   OH235319   6.724   0.455  11.811
 4635TIP3    H135320   6.716   0.480  11.719
 4635TIP3    H235321   6.734   0.359  11.810
 4636TIP3   OH235322   3.896   0.914   4.006
 4636TIP3    H135323   3.929   0.849   3.945
 4636TIP3    H235324   3.974   0.953   4.045
 4637TIP3   OH235325   2.035   1.123   3.372
 4637TIP3    H135326   2.069   1.035   3.390
 4637TIP3    H235327   2.112   1.176   3.356
 4638TIP3   OH235328   2.453   1.565   0.421
 4638TIP3    H135329   2.502   1.483   0.428
 4638TIP3    H235330   2.439   1.593   0.511
 4639TIP3   OH235331   6.776   1.387  17.039
 4639TIP3    H135332   6.793   1.295  17.057
 4639TIP3    H235333   6.711   1.413  17.104
 4640TIP3   OH235334   2.068   0.859   1.608
 4640TIP3    H135335   2.012   0.841   1.533
 4640TIP3    H235336   2.068   0.778   1.658
 4641TIP3   OH235337   5.541   1.128   6.217
 4641TIP3    H135338   5.493   1.047   6.238
 4641TIP3    H235339   5.472   1.193   6.202
 4642TIP3   OH235340   4.017   2.606  15.148
 4642TIP3    H135341   4.001   2.516  15.176
 4642TIP3    H235342   4.052   2.650  15.225
 4643TIP3   OH235343   2.704   0.807  11.216
 4643TIP3    H135344   2.788   0.784  11.255
 4643TIP3    H235345   2.646   0.733  11.236
 4644TIP3   OH235346   3.131   5.818  15.038
 4644TIP3    H135347   3.096   5.903  15.011
 4644TIP3    H235348   3.065   5.755  15.012
 4645TIP3   OH235349   3.118   4.722   6.508
 4645TIP3    H135350   3.206   4.698   6.540
 4645TIP3    H235351   3.082   4.777   6.577
 4646TIP3   OH235352   5.751   2.466   2.130
 4646TIP3    H135353   5.685   2.463   2.060
 4646TIP3    H235354   5.828   2.425   2.092
 4647TIP3   OH235355   2.513   4.543  14.453
 4647TIP3    H135356   2.556   4.462  14.425
 4647TIP3    H235357   2.468   4.574  14.374
 4648TIP3   OH235358   2.412   4.049   0.085
 4648TIP3    H135359   2.351   4.021   0.017
 4648TIP3    H235360   2.447   3.967   0.121
 4649TIP3   OH235361   2.777   5.089   0.351
 4649TIP3    H135362   2.807   5.173   0.384
 4649TIP3    H235363   2.693   5.075   0.395
 4650TIP3   OH235364   5.217   6.711   1.644
 4650TIP3    H135365   5.210   6.629   1.595
 4650TIP3    H235366   5.251   6.774   1.580
 4651TIP3   OH235367   0.396   2.257   1.624
 4651TIP3    H135368   0.384   2.172   1.581
 4651TIP3    H235369   0.431   2.235   1.710
 4652TIP3   OH235370   4.805   6.534  12.902
 4652TIP3    H135371   4.750   6.473  12.950
 4652TIP3    H235372   4.758   6.617  12.905
 4653TIP3   OH235373   2.928   0.568   3.076
 4653TIP3    H135374   2.955   0.631   3.143
 4653TIP3    H235375   2.836   0.590   3.058
 4654TIP3   OH235376   6.345   1.541  12.636
 4654TIP3    H135377   6.306   1.536  12.723
 4654TIP3    H235378   6.433   1.504  12.646
 4655TIP3   OH235379   3.166   6.650  14.622
 4655TIP3    H135380   3.189   6.662  14.714
 4655TIP3    H235381   3.082   6.693  14.611
 4656TIP3   OH235382   5.617   5.394  13.188
 4656TIP3    H135383   5.594   5.474  13.236
 4656TIP3    H235384   5.703   5.371  13.220
 4657TIP3   OH235385   4.864   4.655   6.154
 4657TIP3    H135386   4.885   4.570   6.191
 4657TIP3    H235387   4.768   4.657   6.151
 4658TIP3   OH235388   3.375   4.464   4.414
 4658TIP3    H135389   3.402   4.443   4.503
 4658TIP3    H235390   3.285   4.496   4.423
 4659TIP3   OH235391   5.588   2.001   2.688
 4659TIP3    H135392   5.602   1.982   2.781
 4659TIP3    H235393   5.498   1.973   2.671
 4660TIP3   OH235394   6.745   6.173   4.317
 4660TIP3    H135395   6.766   6.082   4.296
 4660TIP3    H235396   6.769   6.222   4.238
 4661TIP3   OH235397   2.405   2.455  16.558
 4661TIP3    H135398   2.338   2.425  16.619
 4661TIP3    H235399   2.414   2.385  16.494
 4662TIP3   OH235400   0.065   5.367   0.933
 4662TIP3    H135401   0.013   5.354   1.013
 4662TIP3    H235402   0.026   5.444   0.893
 4663TIP3   OH235403   5.939   2.046   0.511
 4663TIP3    H135404   5.887   2.125   0.519
 4663TIP3    H235405   5.914   2.010   0.425
 4664TIP3   OH235406   1.519   2.224  11.533
 4664TIP3    H135407   1.509   2.307  11.486
 4664TIP3    H235408   1.612   2.221  11.557
 4665TIP3   OH235409   3.755   3.972  11.683
 4665TIP3    H135410   3.845   3.983  11.716
 4665TIP3    H235411   3.760   3.997  11.591
 4666TIP3   OH235412   5.017   3.751  12.501
 4666TIP3    H135413   4.975   3.788  12.579
 4666TIP3    H235414   5.035   3.826  12.445
 4667TIP3   OH235415   2.160   0.987  12.474
 4667TIP3    H135416   2.252   0.986  12.501
 4667TIP3    H235417   2.144   1.077  12.445
 4668TIP3   OH235418   5.697   3.783   5.205
 4668TIP3    H135419   5.621   3.778   5.263
 4668TIP3    H235420   5.767   3.816   5.262
 4669TIP3   OH235421   4.623   1.091   1.058
 4669TIP3    H135422   4.551   1.033   1.085
 4669TIP3    H235423   4.669   1.042   0.991
 4670TIP3   OH235424   4.527   0.175   5.032
 4670TIP3    H135425   4.582   0.251   5.013
 4670TIP3    H235426   4.574   0.101   4.994
 4671TIP3   OH235427   3.905   0.375   2.533
 4671TIP3    H135428   3.956   0.452   2.509
 4671TIP3    H235429   3.814   0.406   2.534
 4672TIP3   OH235430   2.865   5.044   3.030
 4672TIP3    H135431   2.802   5.067   3.098
 4672TIP3    H235432   2.829   5.081   2.950
 4673TIP3   OH235433   1.501   2.889  12.263
 4673TIP3    H135434   1.548   2.967  12.232
 4673TIP3    H235435   1.562   2.846  12.323
 4674TIP3   OH235436   4.706   6.023  15.430
 4674TIP3    H135437   4.666   5.957  15.487
 4674TIP3    H235438   4.635   6.054  15.375
 4675TIP3   OH235439   1.738   3.651  14.485
 4675TIP3    H135440   1.689   3.577  14.451
 4675TIP3    H235441   1.743   3.712  14.411
 4676TIP3   OH235442   0.683   0.669  11.883
 4676TIP3    H135443   0.737   0.590  11.897
 4676TIP3    H235444   0.600   0.649  11.925
 4677TIP3   OH235445   4.399   3.539   1.435
 4677TIP3    H135446   4.480   3.501   1.469
 4677TIP3    H235447   4.407   3.532   1.340
 4678TIP3   OH235448   6.588   1.506   5.765
 4678TIP3    H135449   6.653   1.530   5.832
 4678TIP3    H235450   6.605   1.567   5.693
 4679TIP3   OH235451   1.060   2.555   0.464
 4679TIP3    H135452   1.155   2.540   0.465
 4679TIP3    H235453   1.023   2.468   0.450
 4680TIP3   OH235454   5.570   1.052  10.969
 4680TIP3    H135455   5.657   1.061  11.008
 4680TIP3    H235456   5.583   0.992  10.896
 4681TIP3   OH235457   5.627   3.644   4.731
 4681TIP3    H135458   5.654   3.704   4.801
 4681TIP3    H235459   5.538   3.669   4.710
 4682TIP3   OH235460   4.051   2.734   6.494
 4682TIP3    H135461   4.044   2.778   6.579
 4682TIP3    H235462   4.119   2.667   6.507
 4683TIP3   OH235463   5.702   6.701   2.712
 4683TIP3    H135464   5.775   6.742   2.758
 4683TIP3    H235465   5.626   6.718   2.768
 4684TIP3   OH235466   6.120   0.219  12.168
 4684TIP3    H135467   6.163   0.223  12.253
 4684TIP3    H235468   6.059   0.293  12.169
 4685TIP3   OH235469   3.711   5.226  16.844
 4685TIP3    H135470   3.659   5.288  16.895
 4685TIP3    H235471   3.662   5.143  16.850
 4686TIP3   OH235472   0.812   1.533  11.858
 4686TIP3    H135473   0.873   1.605  11.843
 4686TIP3    H235474   0.858   1.474  11.919
 4687TIP3   OH235475   1.801   5.368   4.741
 4687TIP3    H135476   1.806   5.358   4.646
 4687TIP3    H235477   1.732   5.433   4.755
 4688TIP3   OH235478   5.678   0.865   0.899
 4688TIP3    H135479   5.674   0.950   0.855
 4688TIP3    H235480   5.741   0.879   0.970
 4689TIP3   OH235481   3.442   4.416  13.841
 4689TIP3    H135482   3.424   4.503  13.877
 4689TIP3    H235483   3.391   4.412  13.761
 4690TIP3   OH235484   2.933   3.420   5.395
 4690TIP3    H135485   2.939   3.354   5.326
 4690TIP3    H235486   2.846   3.459   5.383
 4691TIP3   OH235487   3.471   5.855  13.273
 4691TIP3    H135488   3.555   5.841  13.230
 4691TIP3    H235489   3.410   5.874  13.202
 4692TIP3   OH235490   2.781   6.487  15.201
 4692TIP3    H135491   2.788   6.512  15.109
 4692TIP3    H235492   2.688   6.495  15.222
 4693TIP3   OH235493   2.376   1.002  11.966
 4693TIP3    H135494   2.303   0.995  12.028
 4693TIP3    H235495   2.452   1.023  12.019
 4694TIP3   OH235496   5.865   0.232  11.161
 4694TIP3    H135497   5.819   0.306  11.121
 4694TIP3    H235498   5.855   0.246  11.255
 4695TIP3   OH235499   1.953   3.614  12.395
 4695TIP3    H135500   1.952   3.574  12.308
 4695TIP3    H235501   1.876   3.671  12.395
 4696TIP3   OH235502   4.712   1.149   5.493
 4696TIP3    H135503   4.762   1.104   5.425
 4696TIP3    H235504   4.622   1.119   5.480
 4697TIP3   OH235505   6.614   2.308  15.345
 4697TIP3    H135506   6.670   2.303  15.268
 4697TIP3    H235507   6.672   2.339  15.415
 4698TIP3   OH235508   4.713   3.080  15.986
 4698TIP3    H135509   4.640   3.020  15.969
 4698TIP3    H235510   4.791   3.029  15.965
 4699TIP3   OH235511   1.625   5.919  17.138
 4699TIP3    H135512   1.561   5.848  17.141
 4699TIP3    H235513   1.573   5.998  17.127
 4700TIP3   OH235514   0.829   3.554  15.332
 4700TIP3    H135515   0.919   3.521  15.334
 4700TIP3    H235516   0.829   3.627  15.394
 4701TIP3   OH235517   5.356   0.111  15.714
 4701TIP3    H135518   5.353   0.108  15.810
 4701TIP3    H235519   5.332   0.201  15.691
 4702TIP3   OH235520   3.799   2.845   3.096
 4702TIP3    H135521   3.818   2.765   3.047
 4702TIP3    H235522   3.818   2.916   3.036
 4703TIP3   OH235523   5.852   5.820  12.331
 4703TIP3    H135524   5.910   5.757  12.374
 4703TIP3    H235525   5.772   5.819  12.383
 4704TIP3   OH235526   3.326   0.196  13.029
 4704TIP3    H135527   3.298   0.142  13.102
 4704TIP3    H235528   3.267   0.173  12.957
 4705TIP3   OH235529   2.262   2.973   4.445
 4705TIP3    H135530   2.236   2.882   4.437
 4705TIP3    H235531   2.357   2.971   4.445
 4706TIP3   OH235532   6.666   6.396   1.673
 4706TIP3    H135533   6.700   6.363   1.589
 4706TIP3    H235534   6.704   6.483   1.681
 4707TIP3   OH235535   5.125   4.357  13.359
 4707TIP3    H135536   5.100   4.266  13.380
 4707TIP3    H235537   5.206   4.349  13.309
 4708TIP3   OH235538   2.875   1.742  11.329
 4708TIP3    H135539   2.835   1.748  11.242
 4708TIP3    H235540   2.920   1.825  11.341
 4709TIP3   OH235541   2.340   4.583  11.083
 4709TIP3    H135542   2.319   4.608  10.993
 4709TIP3    H235543   2.435   4.593  11.088
 4710TIP3   OH235544   4.316   0.216   6.034
 4710TIP3    H135545   4.303   0.211   6.129
 4710TIP3    H235546   4.372   0.293   6.022
 4711TIP3   OH235547   1.269   5.576  13.280
 4711TIP3    H135548   1.185   5.566  13.237
 4711TIP3    H235549   1.334   5.555  13.212
 4712TIP3   OH235550   3.075   3.552   6.558
 4712TIP3    H135551   3.015   3.577   6.628
 4712TIP3    H235552   3.029   3.576   6.478
 4713TIP3   OH235553   5.117   1.767  12.980
 4713TIP3    H135554   5.083   1.773  13.070
 4713TIP3    H235555   5.045   1.727  12.931
 4714TIP3   OH235556   4.235   6.121  11.838
 4714TIP3    H135557   4.259   6.207  11.804
 4714TIP3    H235558   4.158   6.096  11.788
 4715TIP3   OH235559   6.513   4.984   4.079
 4715TIP3    H135560   6.502   4.991   3.984
 4715TIP3    H235561   6.607   4.992   4.093
 4716TIP3   OH235562   0.340   2.978   5.618
 4716TIP3    H135563   0.428   2.941   5.628
 4716TIP3    H235564   0.287   2.931   5.682
 4717TIP3   OH235565   3.610   5.735   4.738
 4717TIP3    H135566   3.553   5.801   4.698
 4717TIP3    H235567   3.592   5.741   4.832
 4718TIP3   OH235568   4.128   2.161   5.691
 4718TIP3    H135569   4.057   2.162   5.755
 4718TIP3    H235570   4.192   2.099   5.728
 4719TIP3   OH235571   5.181   3.168   2.813
 4719TIP3    H135572   5.239   3.144   2.740
 4719TIP3    H235573   5.093   3.155   2.777
 4720TIP3   OH235574   0.576   3.067  13.558
 4720TIP3    H135575   0.524   3.075  13.638
 4720TIP3    H235576   0.660   3.032  13.588
 4721TIP3   OH235577   5.507   4.238  14.096
 4721TIP3    H135578   5.455   4.173  14.049
 4721TIP3    H235579   5.468   4.322  14.072
 4722TIP3   OH235580   3.652   3.129   4.801
 4722TIP3    H135581   3.620   3.165   4.719
 4722TIP3    H235582   3.685   3.204   4.849
 4723TIP3   OH235583   3.563   0.564  11.560
 4723TIP3    H135584   3.484   0.538  11.607
 4723TIP3    H235585   3.628   0.579  11.628
 4724TIP3   OH235586   1.217   0.463  14.855
 4724TIP3    H135587   1.276   0.504  14.918
 4724TIP3    H235588   1.262   0.472  14.771
 4725TIP3   OH235589   3.211   2.014  11.639
 4725TIP3    H135590   3.301   1.987  11.658
 4725TIP3    H235591   3.179   1.949  11.576
 4726TIP3   OH235592   4.099   1.768   1.371
 4726TIP3    H135593   4.180   1.737   1.330
 4726TIP3    H235594   4.097   1.724   1.456
 4727TIP3   OH235595   5.694   1.964   5.105
 4727TIP3    H135596   5.757   1.947   5.175
 4727TIP3    H235597   5.744   2.012   5.039
 4728TIP3   OH235598   2.141   4.657  14.453
 4728TIP3    H135599   2.080   4.727  14.474
 4728TIP3    H235600   2.202   4.655  14.527
 4729TIP3   OH235601   0.278   5.971   3.732
 4729TIP3    H135602   0.331   5.918   3.792
 4729TIP3    H235603   0.206   6.003   3.786
 4730TIP3   OH235604   5.747   4.480   0.995
 4730TIP3    H135605   5.770   4.539   0.923
 4730TIP3    H235606   5.765   4.531   1.074
 4731TIP3   OH235607   3.396   5.637   0.533
 4731TIP3    H135608   3.381   5.698   0.461
 4731TIP3    H235609   3.381   5.551   0.495
 4732TIP3   OH235610   4.936   5.868  15.909
 4732TIP3    H135611   4.912   5.954  15.873
 4732TIP3    H235612   4.957   5.886  16.000
 4733TIP3   OH235613   5.077   3.885   0.839
 4733TIP3    H135614   5.131   3.961   0.819
 4733TIP3    H235615   4.990   3.921   0.855
 4734TIP3   OH235616   2.601   5.807  11.628
 4734TIP3    H135617   2.680   5.754  11.631
 4734TIP3    H235618   2.605   5.853  11.544
 4735TIP3   OH235619   3.529   1.242   4.034
 4735TIP3    H135620   3.455   1.203   4.080
 4735TIP3    H235621   3.490   1.303   3.972
 4736TIP3   OH235622   3.255   5.700   5.086
 4736TIP3    H135623   3.251   5.652   5.004
 4736TIP3    H235624   3.224   5.788   5.064
 4737TIP3   OH235625   5.311   5.284   2.737
 4737TIP3    H135626   5.360   5.357   2.776
 4737TIP3    H235627   5.379   5.227   2.700
 4738TIP3   OH235628   0.975   0.308  14.767
 4738TIP3    H135629   0.910   0.364  14.726
 4738TIP3    H235630   1.058   0.355  14.756
 4739TIP3   OH235631   2.230   5.749  10.846
 4739TIP3    H135632   2.296   5.682  10.825
 4739TIP3    H235633   2.150   5.716  10.805
 4740TIP3   OH235634   1.486   6.454   0.865
 4740TIP3    H135635   1.505   6.453   0.958
 4740TIP3    H235636   1.390   6.449   0.860
 4741TIP3   OH235637   1.951   1.822  16.576
 4741TIP3    H135638   1.927   1.836  16.667
 4741TIP3    H235639   1.871   1.842  16.527
 4742TIP3   OH235640   1.223   1.464   2.541
 4742TIP3    H135641   1.170   1.466   2.620
 4742TIP3    H235642   1.237   1.371   2.524
 4743TIP3   OH235643   4.671   4.557  13.476
 4743TIP3    H135644   4.649   4.467  13.451
 4743TIP3    H235645   4.619   4.573  13.555
 4744TIP3   OH235646   6.316   0.143  11.852
 4744TIP3    H135647   6.240   0.106  11.807
 4744TIP3    H235648   6.329   0.086  11.928
 4745TIP3   OH235649   0.719   4.195   3.223
 4745TIP3    H135650   0.749   4.161   3.308
 4745TIP3    H235651   0.710   4.118   3.168
 4746TIP3   OH235652   3.733   1.025   1.325
 4746TIP3    H135653   3.778   1.106   1.347
 4746TIP3    H235654   3.661   1.052   1.268
 4747TIP3   OH235655   3.388   1.630  13.412
 4747TIP3    H135656   3.379   1.580  13.331
 4747TIP3    H235657   3.431   1.570  13.472
 4748TIP3   OH235658   5.346   1.668   5.272
 4748TIP3    H135659   5.286   1.650   5.344
 4748TIP3    H235660   5.426   1.620   5.295
 4749TIP3   OH235661   3.404   2.101   1.893
 4749TIP3    H135662   3.404   2.155   1.815
 4749TIP3    H235663   3.497   2.084   1.910
 4750TIP3   OH235664   4.916   3.890  11.921
 4750TIP3    H135665   4.932   3.945  11.843
 4750TIP3    H235666   4.825   3.862  11.913
 4751TIP3   OH235667   5.604   1.989  16.420
 4751TIP3    H135668   5.515   2.021  16.413
 4751TIP3    H235669   5.597   1.909  16.473
 4752TIP3   OH235670   6.694   1.955  13.292
 4752TIP3    H135671   6.689   2.042  13.251
 4752TIP3    H235672   6.603   1.925  13.297
 4753TIP3   OH235673   2.836   4.275   1.357
 4753TIP3    H135674   2.919   4.260   1.403
 4753TIP3    H235675   2.828   4.199   1.299
 4754TIP3   OH235676   1.619   2.991  16.843
 4754TIP3    H135677   1.542   2.981  16.900
 4754TIP3    H235678   1.684   3.035  16.898
 4755TIP3   OH235679   1.768   2.373   3.532
 4755TIP3    H135680   1.713   2.434   3.580
 4755TIP3    H235681   1.854   2.416   3.528
 4756TIP3   OH235682   2.731   1.518   4.920
 4756TIP3    H135683   2.761   1.466   4.845
 4756TIP3    H235684   2.762   1.607   4.901
 4757TIP3   OH235685   5.436   5.099   3.579
 4757TIP3    H135686   5.522   5.058   3.584
 4757TIP3    H235687   5.443   5.174   3.638
 4758TIP3   OH235688   3.154   6.724   3.396
 4758TIP3    H135689   3.106   6.660   3.449
 4758TIP3    H235690   3.101   6.804   3.400
 4759TIP3   OH235691   4.065   3.258   3.515
 4759TIP3    H135692   3.980   3.223   3.543
 4759TIP3    H235693   4.094   3.312   3.589
 4760TIP3   OH235694   5.797   2.768   1.012
 4760TIP3    H135695   5.710   2.757   0.973
 4760TIP3    H235696   5.807   2.692   1.070
 4761TIP3   OH235697   6.236   4.839   0.612
 4761TIP3    H135698   6.268   4.883   0.533
 4761TIP3    H235699   6.216   4.750   0.583
 4762TIP3   OH235700   1.998   2.856   4.643
 4762TIP3    H135701   2.046   2.777   4.670
 4762TIP3    H235702   1.911   2.844   4.680
 4763TIP3   OH235703   6.760   6.522  12.503
 4763TIP3    H135704   6.692   6.565  12.555
 4763TIP3    H235705   6.787   6.448  12.557
 4764TIP3   OH235706   1.635   2.245  15.834
 4764TIP3    H135707   1.545   2.221  15.814
 4764TIP3    H235708   1.674   2.264  15.749
 4765TIP3   OH235709   6.588   2.359   4.559
 4765TIP3    H135710   6.657   2.316   4.610
 4765TIP3    H235711   6.606   2.334   4.469
 4766TIP3   OH235712   3.321   5.937   5.295
 4766TIP3    H135713   3.337   6.029   5.314
 4766TIP3    H235714   3.240   5.936   5.244
 4767TIP3   OH235715   0.619   1.713   0.829
 4767TIP3    H135716   0.542   1.769   0.815
 4767TIP3    H235717   0.694   1.771   0.817
 4768TIP3   OH235718   0.961   6.418  13.135
 4768TIP3    H135719   0.896   6.394  13.201
 4768TIP3    H235720   1.045   6.394  13.173
 4769TIP3   OH235721   0.838   1.414  12.737
 4769TIP3    H135722   0.892   1.336  12.721
 4769TIP3    H235723   0.751   1.380  12.755
 4770TIP3   OH235724   4.984   3.214   4.014
 4770TIP3    H135725   4.990   3.261   3.931
 4770TIP3    H235726   5.047   3.259   4.071
 4771TIP3   OH235727   4.870   4.482   0.363
 4771TIP3    H135728   4.840   4.401   0.403
 4771TIP3    H235729   4.874   4.545   0.435
 4772TIP3   OH235730   5.650   0.213  11.928
 4772TIP3    H135731   5.705   0.181  11.999
 4772TIP3    H235732   5.665   0.153  11.855
 4773TIP3   OH235733   6.107   0.218  12.519
 4773TIP3    H135734   6.023   0.212  12.563
 4773TIP3    H235735   6.158   0.145  12.555
 4774TIP3   OH235736   1.563   0.389   4.648
 4774TIP3    H135737   1.571   0.438   4.730
 4774TIP3    H235738   1.483   0.423   4.607
 4775TIP3   OH235739   1.490   3.651   1.060
 4775TIP3    H135740   1.531   3.618   1.141
 4775TIP3    H235741   1.475   3.572   1.008
 4776TIP3   OH235742   5.460   5.466   0.438
 4776TIP3    H135743   5.442   5.374   0.458
 4776TIP3    H235744   5.454   5.511   0.522
 4777TIP3   OH235745   0.336   1.032  16.317
 4777TIP3    H135746   0.385   0.951  16.326
 4777TIP3    H235747   0.378   1.093  16.378
 4778TIP3   OH235748   6.079   4.371   3.343
 4778TIP3    H135749   6.136   4.294   3.343
 4778TIP3    H235750   5.991   4.335   3.329
 4779TIP3   OH235751   5.222   6.510  15.816
 4779TIP3    H135752   5.296   6.529  15.759
 4779TIP3    H235753   5.236   6.419  15.843
 4780TIP3   OH235754   3.033   0.088  13.805
 4780TIP3    H135755   3.082   0.050  13.878
 4780TIP3    H235756   3.012   0.176  13.833
 4781TIP3   OH235757   1.216   2.687  13.542
 4781TIP3    H135758   1.163   2.638  13.604
 4781TIP3    H235759   1.188   2.655  13.456
 4782TIP3   OH235760   3.737   0.695  13.876
 4782TIP3    H135761   3.646   0.715  13.898
 4782TIP3    H235762   3.771   0.650  13.953
 4783TIP3   OH235763   2.525   5.813  11.002
 4783TIP3    H135764   2.526   5.763  10.920
 4783TIP3    H235765   2.459   5.880  10.988
 4784TIP3   OH235766   0.701   4.512   1.991
 4784TIP3    H135767   0.769   4.559   2.040
 4784TIP3    H235768   0.622   4.564   2.002
 4785TIP3   OH235769   5.685   1.978   1.557
 4785TIP3    H135770   5.643   1.897   1.583
 4785TIP3    H235771   5.714   2.018   1.639
 4786TIP3   OH235772   6.179   2.541   1.571
 4786TIP3    H135773   6.220   2.534   1.485
 4786TIP3    H235774   6.142   2.455   1.588
 4787TIP3   OH235775   1.080   1.875   0.903
 4787TIP3    H135776   1.049   1.785   0.904
 4787TIP3    H235777   1.151   1.877   0.967
 4788TIP3   OH235778   6.455   3.311   6.729
 4788TIP3    H135779   6.413   3.385   6.773
 4788TIP3    H235780   6.527   3.351   6.679
 4789TIP3   OH235781   1.920   1.595   1.876
 4789TIP3    H135782   1.968   1.579   1.957
 4789TIP3    H235783   1.890   1.685   1.883
 4790TIP3   OH235784   5.032   5.629  11.087
 4790TIP3    H135785   5.014   5.565  11.156
 4790TIP3    H235786   5.110   5.595  11.043
 4791TIP3   OH235787   4.949   2.723  12.752
 4791TIP3    H135788   4.953   2.633  12.785
 4791TIP3    H235789   4.863   2.731  12.712
 4792TIP3   OH235790   3.780   0.476   1.293
 4792TIP3    H135791   3.815   0.565   1.301
 4792TIP3    H235792   3.687   0.485   1.312
 4793TIP3   OH235793   3.259   3.968   4.237
 4793TIP3    H135794   3.294   3.902   4.296
 4793TIP3    H235795   3.290   4.051   4.273
 4794TIP3   OH235796   5.866   6.345   4.392
 4794TIP3    H135797   5.940   6.294   4.422
 4794TIP3    H235798   5.858   6.416   4.455
 4795TIP3   OH235799   5.190   3.339  15.310
 4795TIP3    H135800   5.227   3.299  15.231
 4795TIP3    H235801   5.098   3.313  15.309
 4796TIP3   OH235802   2.763   2.136   6.306
 4796TIP3    H135803   2.816   2.064   6.273
 4796TIP3    H235804   2.811   2.215   6.281
 4797TIP3   OH235805   4.703   5.780  16.625
 4797TIP3    H135806   4.681   5.688  16.640
 4797TIP3    H235807   4.779   5.795  16.681
 4798TIP3   OH235808   4.216   4.977   0.239
 4798TIP3    H135809   4.192   4.965   0.147
 4798TIP3    H235810   4.207   4.891   0.278
 4799TIP3   OH235811   3.295   4.388   6.591
 4799TIP3    H135812   3.211   4.401   6.635
 4799TIP3    H235813   3.335   4.475   6.592
 4800TIP3   OH235814   1.348   5.631  16.714
 4800TIP3    H135815   1.427   5.598  16.672
 4800TIP3    H235816   1.318   5.701  16.656
 4801TIP3   OH235817   4.178   1.600  10.442
 4801TIP3    H135818   4.212   1.536  10.504
 4801TIP3    H235819   4.121   1.550  10.384
 4802TIP3   OH235820   5.595   1.725   4.671
 4802TIP3    H135821   5.579   1.740   4.764
 4802TIP3    H235822   5.661   1.791   4.647
 4803TIP3   OH235823   2.965   2.247   3.609
 4803TIP3    H135824   3.034   2.269   3.547
 4803TIP3    H235825   3.003   2.181   3.667
 4804TIP3   OH235826   3.786   5.686   2.344
 4804TIP3    H135827   3.858   5.667   2.283
 4804TIP3    H235828   3.786   5.782   2.352
 4805TIP3   OH235829   5.056   4.029   4.196
 4805TIP3    H135830   5.017   3.954   4.152
 4805TIP3    H235831   5.138   4.046   4.149
 4806TIP3   OH235832   2.539   2.341   5.819
 4806TIP3    H135833   2.472   2.409   5.833
 4806TIP3    H235834   2.581   2.365   5.737
 4807TIP3   OH235835   2.763   4.905  12.513
 4807TIP3    H135836   2.787   4.962  12.586
 4807TIP3    H235837   2.688   4.948  12.472
 4808TIP3   OH235838   3.467   1.413  12.187
 4808TIP3    H135839   3.545   1.365  12.214
 4808TIP3    H235840   3.447   1.471  12.260
 4809TIP3   OH235841   1.346   1.131   4.217
 4809TIP3    H135842   1.274   1.112   4.157
 4809TIP3    H235843   1.313   1.201   4.273
 4810TIP3   OH235844   5.450   5.296  16.542
 4810TIP3    H135845   5.487   5.380  16.570
 4810TIP3    H235846   5.523   5.234  16.550
 4811TIP3   OH235847   2.952   0.094   2.071
 4811TIP3    H135848   2.870   0.048   2.092
 4811TIP3    H235849   2.928   0.187   2.074
 4812TIP3   OH235850   5.037   1.467  14.969
 4812TIP3    H135851   5.093   1.439  15.042
 4812TIP3    H235852   4.964   1.405  14.970
 4813TIP3   OH235853   2.197   1.567  13.830
 4813TIP3    H135854   2.271   1.509  13.850
 4813TIP3    H235855   2.129   1.508  13.797
 4814TIP3   OH235856   3.658   6.007   5.334
 4814TIP3    H135857   3.710   6.079   5.297
 4814TIP3    H235858   3.572   6.046   5.352
 4815TIP3   OH235859   0.666   4.002  14.883
 4815TIP3    H135860   0.671   3.918  14.837
 4815TIP3    H235861   0.723   4.060  14.832
 4816TIP3   OH235862   2.053   5.545  15.983
 4816TIP3    H135863   2.060   5.486  15.907
 4816TIP3    H235864   1.984   5.607  15.959
 4817TIP3   OH235865   5.360   0.812  13.045
 4817TIP3    H135866   5.423   0.741  13.030
 4817TIP3    H235867   5.414   0.884  13.079
 4818TIP3   OH235868   6.256   3.912   2.739
 4818TIP3    H135869   6.350   3.910   2.753
 4818TIP3    H235870   6.233   4.005   2.736
 4819TIP3   OH235871   0.155   5.112  12.537
 4819TIP3    H135872   0.201   5.113  12.621
 4819TIP3    H235873   0.072   5.068  12.554
 4820TIP3   OH235874   0.018   5.054  14.068
 4820TIP3    H135875   0.030   5.009  14.151
 4820TIP3    H235876   0.105   5.056  14.028
 4821TIP3   OH235877   3.478   2.696   0.416
 4821TIP3    H135878   3.458   2.783   0.382
 4821TIP3    H235879   3.442   2.636   0.351
 4822TIP3   OH235880   5.110   1.842   0.533
 4822TIP3    H135881   5.199   1.869   0.510
 4822TIP3    H235882   5.074   1.808   0.451
 4823TIP3   OH235883   0.040   3.487  11.949
 4823TIP3    H135884  -0.021   3.487  11.875
 4823TIP3    H235885   0.033   3.400  11.986
 4824TIP3   OH235886   1.295   5.108  16.908
 4824TIP3    H135887   1.348   5.115  16.987
 4824TIP3    H235888   1.310   5.019  16.876
 4825TIP3   OH235889   1.083   0.672   0.212
 4825TIP3    H135890   1.168   0.678   0.255
 4825TIP3    H235891   1.059   0.762   0.192
 4826TIP3   OH235892   0.952   5.548  14.423
 4826TIP3    H135893   0.956   5.475  14.484
 4826TIP3    H235894   0.859   5.570  14.418
 4827TIP3   OH235895   1.667   3.507   3.919
 4827TIP3    H135896   1.691   3.473   3.833
 4827TIP3    H235897   1.576   3.482   3.930
 4828TIP3   OH235898   4.997   1.100   2.272
 4828TIP3    H135899   5.010   1.175   2.331
 4828TIP3    H235900   5.037   1.026   2.318
 4829TIP3   OH235901   0.858   0.455  15.113
 4829TIP3    H135902   0.906   0.481  15.034
 4829TIP3    H235903   0.775   0.421  15.080
 4830TIP3   OH235904   4.384   2.701  12.274
 4830TIP3    H135905   4.391   2.739  12.187
 4830TIP3    H235906   4.297   2.661  12.276
 4831TIP3   OH235907   5.940   3.430   4.721
 4831TIP3    H135908   5.926   3.487   4.796
 4831TIP3    H235909   5.856   3.385   4.708
 4832TIP3   OH235910   5.484   4.242  15.633
 4832TIP3    H135911   5.542   4.183  15.680
 4832TIP3    H235912   5.540   4.284  15.567
 4833TIP3   OH235913   2.443   1.926  11.029
 4833TIP3    H135914   2.402   1.927  10.943
 4833TIP3    H235915   2.448   2.018  11.055
 4834TIP3   OH235916   4.954   4.333   5.700
 4834TIP3    H135917   4.977   4.254   5.748
 4834TIP3    H235918   4.932   4.302   5.612
 4835TIP3   OH235919   0.308   1.134   1.891
 4835TIP3    H135920   0.330   1.137   1.798
 4835TIP3    H235921   0.369   1.069   1.927
 4836TIP3   OH235922   5.084   3.427   5.150
 4836TIP3    H135923   5.001   3.381   5.141
 4836TIP3    H235924   5.150   3.366   5.116
 4837TIP3   OH235925   4.234   2.619  11.656
 4837TIP3    H135926   4.182   2.575  11.589
 4837TIP3    H235927   4.305   2.661  11.607
 4838TIP3   OH235928   1.017   1.099   5.720
 4838TIP3    H135929   1.104   1.065   5.742
 4838TIP3    H235930   0.981   1.034   5.659
 4839TIP3   OH235931   0.153   6.205   5.836
 4839TIP3    H135932   0.072   6.240   5.799
 4839TIP3    H235933   0.146   6.221   5.930
 4840TIP3   OH235934   4.331   1.305   2.467
 4840TIP3    H135935   4.384   1.361   2.524
 4840TIP3    H235936   4.250   1.354   2.454
 4841TIP3   OH235937   2.947   1.072  11.013
 4841TIP3    H135938   2.932   0.979  11.032
 4841TIP3    H235939   2.868   1.099  10.966
 4842TIP3   OH235940   2.082   3.270  16.832
 4842TIP3    H135941   2.082   3.193  16.890
 4842TIP3    H235942   2.055   3.235  16.747
 4843TIP3   OH235943   3.822   6.717  15.902
 4843TIP3    H135944   3.857   6.768  15.828
 4843TIP3    H235945   3.894   6.714  15.965
 4844TIP3   OH235946   2.724   6.775   5.688
 4844TIP3    H135947   2.796   6.809   5.635
 4844TIP3    H235948   2.754   6.787   5.779
 4845TIP3   OH235949   6.640   0.954   3.430
 4845TIP3    H135950   6.682   0.870   3.449
 4845TIP3    H235951   6.569   0.931   3.369
 4846TIP3   OH235952   2.882   3.210  12.592
 4846TIP3    H135953   2.950   3.255  12.643
 4846TIP3    H235954   2.831   3.162  12.656
 4847TIP3   OH235955   1.096   6.392  11.162
 4847TIP3    H135956   1.026   6.434  11.111
 4847TIP3    H235957   1.174   6.444  11.141
 4848TIP3   OH235958   1.148   1.436  11.917
 4848TIP3    H135959   1.186   1.523  11.910
 4848TIP3    H235960   1.221   1.380  11.946
 4849TIP3   OH235961   2.007   0.355   3.348
 4849TIP3    H135962   1.917   0.342   3.320
 4849TIP3    H235963   2.015   0.304   3.429
 4850TIP3   OH235964   5.393   3.154   1.675
 4850TIP3    H135965   5.451   3.187   1.606
 4850TIP3    H235966   5.430   3.189   1.756
 4851TIP3   OH235967   6.228   6.528   4.479
 4851TIP3    H135968   6.186   6.490   4.556
 4851TIP3    H235969   6.285   6.596   4.514
 4852TIP3   OH235970   2.442   4.122  12.044
 4852TIP3    H135971   2.448   4.213  12.016
 4852TIP3    H235972   2.511   4.077  11.995
 4853TIP3   OH235973   4.169   1.962  14.560
 4853TIP3    H135974   4.111   2.017  14.507
 4853TIP3    H235975   4.248   1.953  14.507
 4854TIP3   OH235976   1.711   2.761   4.445
 4854TIP3    H135977   1.637   2.776   4.504
 4854TIP3    H235978   1.754   2.683   4.480
 4855TIP3   OH235979   0.744   1.942   3.261
 4855TIP3    H135980   0.712   1.929   3.350
 4855TIP3    H235981   0.832   1.978   3.272
 4856TIP3   OH235982   6.530   1.893  12.908
 4856TIP3    H135983   6.506   1.974  12.863
 4856TIP3    H235984   6.447   1.851  12.929
 4857TIP3   OH235985   5.926   2.919   5.543
 4857TIP3    H135986   5.916   2.914   5.638
 4857TIP3    H235987   5.843   2.955   5.512
 4858TIP3   OH235988   1.107   6.088  16.065
 4858TIP3    H135989   1.036   6.125  16.013
 4858TIP3    H235990   1.127   6.005  16.022
 4859TIP3   OH235991   2.010   0.808  15.966
 4859TIP3    H135992   2.013   0.874  16.034
 4859TIP3    H235993   2.081   0.747  15.988
 4860TIP3   OH235994   2.554   0.372  10.438
 4860TIP3    H135995   2.539   0.381  10.532
 4860TIP3    H235996   2.567   0.278  10.425
 4861TIP3   OH235997   3.696   0.225   0.264
 4861TIP3    H135998   3.649   0.143   0.282
 4861TIP3    H235999   3.644   0.267   0.196
 4862TIP3   OH236000   2.797   0.276  13.635
 4862TIP3    H136001   2.705   0.278  13.661
 4862TIP3    H236002   2.844   0.268  13.718
 4863TIP3   OH236003   0.772   4.491  13.575
 4863TIP3    H136004   0.866   4.501  13.559
 4863TIP3    H236005   0.733   4.572  13.543
 4864TIP3   OH236006   6.706   6.554   2.262
 4864TIP3    H136007   6.797   6.526   2.250
 4864TIP3    H236008   6.712   6.645   2.290
 4865TIP3   OH236009   5.873   2.708  13.909
 4865TIP3    H136010   5.917   2.784  13.870
 4865TIP3    H236011   5.921   2.692  13.990
 4866TIP3   OH236012   4.417   6.413  12.860
 4866TIP3    H136013   4.480   6.341  12.856
 4866TIP3    H236014   4.368   6.396  12.941
 4867TIP3   OH236015   4.420   2.451   4.999
 4867TIP3    H136016   4.461   2.526   5.042
 4867TIP3    H236017   4.491   2.388   4.986
 4868TIP3   OH236018   0.032   1.046   3.854
 4868TIP3    H136019   0.110   1.098   3.837
 4868TIP3    H236020   0.002   1.074   3.941
 4869TIP3   OH236021   2.765   6.084   3.016
 4869TIP3    H136022   2.769   5.992   3.043
 4869TIP3    H236023   2.826   6.129   3.075
 4870TIP3   OH236024   1.253   2.606  15.696
 4870TIP3    H136025   1.346   2.583  15.699
 4870TIP3    H236026   1.208   2.523  15.714
 4871TIP3   OH236027   1.700   5.647   4.359
 4871TIP3    H136028   1.627   5.676   4.305
 4871TIP3    H236029   1.751   5.726   4.376
 4872TIP3   OH236030   5.419   2.737   0.641
 4872TIP3    H136031   5.489   2.768   0.584
 4872TIP3    H236032   5.370   2.816   0.663
 4873TIP3   OH236033   0.475   4.651   4.305
 4873TIP3    H136034   0.479   4.745   4.324
 4873TIP3    H236035   0.435   4.612   4.383
 4874TIP3   OH236036   1.028   0.138  10.660
 4874TIP3    H136037   1.021   0.200  10.588
 4874TIP3    H236038   1.121   0.135  10.681
 4875TIP3   OH236039   5.689   5.835   2.609
 4875TIP3    H136040   5.770   5.821   2.658
 4875TIP3    H236041   5.633   5.761   2.633
 4876TIP3   OH236042   0.643   4.234   0.191
 4876TIP3    H136043   0.617   4.325   0.205
 4876TIP3    H236044   0.736   4.239   0.169
 4877TIP3   OH236045   6.464   4.902  14.367
 4877TIP3    H136046   6.493   4.991  14.388
 4877TIP3    H236047   6.493   4.849  14.442
 4878TIP3   OH236048   6.200   5.906  17.128
 4878TIP3    H136049   6.237   5.835  17.076
 4878TIP3    H236050   6.161   5.965  17.063
 4879TIP3   OH236051   2.893   6.293  13.933
 4879TIP3    H136052   2.957   6.353  13.971
 4879TIP3    H236053   2.830   6.279  14.004
 4880TIP3   OH236054   3.631   0.308   2.306
 4880TIP3    H136055   3.679   0.380   2.264
 4880TIP3    H236056   3.541   0.319   2.276
 4881TIP3   OH236057   0.117   1.033   2.848
 4881TIP3    H136058   0.025   1.050   2.830
 4881TIP3    H236059   0.144   1.106   2.904
 4882TIP3   OH236060   5.999   1.362  14.488
 4882TIP3    H136061   6.012   1.295  14.555
 4882TIP3    H236062   6.021   1.319  14.406
 4883TIP3   OH236063   3.164   3.850   1.455
 4883TIP3    H136064   3.107   3.898   1.396
 4883TIP3    H236065   3.250   3.889   1.444
 4884TIP3   OH236066   3.450   1.450   6.521
 4884TIP3    H136067   3.528   1.505   6.530
 4884TIP3    H236068   3.478   1.364   6.552
 4885TIP3   OH236069   1.450   2.179   2.394
 4885TIP3    H136070   1.382   2.246   2.394
 4885TIP3    H236071   1.433   2.127   2.473
 4886TIP3   OH236072   4.804   2.733  17.063
 4886TIP3    H136073   4.833   2.786  16.989
 4886TIP3    H236074   4.753   2.662  17.023
 4887TIP3   OH236075   1.639   6.314   2.307
 4887TIP3    H136076   1.551   6.289   2.278
 4887TIP3    H236077   1.693   6.302   2.229
 4888TIP3   OH236078   0.965   1.515  14.101
 4888TIP3    H136079   1.051   1.487  14.131
 4888TIP3    H236080   0.903   1.459  14.148
 4889TIP3   OH236081   6.598   1.707   0.437
 4889TIP3    H136082   6.640   1.788   0.406
 4889TIP3    H236083   6.663   1.667   0.494
 4890TIP3   OH236084   6.602   2.232  15.010
 4890TIP3    H136085   6.595   2.177  14.932
 4890TIP3    H236086   6.514   2.233  15.047
 4891TIP3   OH236087   2.453   4.853   3.029
 4891TIP3    H136088   2.542   4.817   3.034
 4891TIP3    H236089   2.424   4.858   3.120
 4892TIP3   OH236090   4.877   1.996  16.776
 4892TIP3    H136091   4.838   1.922  16.823
 4892TIP3    H236092   4.889   1.964  16.687
 4893TIP3   OH236093   2.138   2.707   5.863
 4893TIP3    H136094   2.074   2.717   5.793
 4893TIP3    H236095   2.101   2.640   5.921
 4894TIP3   OH236096   0.022   5.646   0.881
 4894TIP3    H136097   0.088   5.710   0.909
 4894TIP3    H236098  -0.062   5.687   0.903
 4895TIP3   OH236099   1.213   3.955  14.394
 4895TIP3    H136100   1.297   3.999  14.385
 4895TIP3    H236101   1.148   4.024  14.388
 4896TIP3   OH236102   3.345   3.506  13.288
 4896TIP3    H136103   3.330   3.444  13.360
 4896TIP3    H236104   3.420   3.469  13.241
 4897TIP3   OH236105   3.927   5.262   4.185
 4897TIP3    H136106   3.901   5.344   4.142
 4897TIP3    H236107   3.860   5.248   4.252
 4898TIP3   OH236108   3.926   2.986   1.541
 4898TIP3    H136109   3.989   2.995   1.613
 4898TIP3    H236110   3.945   3.059   1.483
 4899TIP3   OH236111   5.097   2.875  16.848
 4899TIP3    H136112   5.117   2.930  16.772
 4899TIP3    H236113   5.055   2.797  16.810
 4900TIP3   OH236114   1.867   6.323   4.142
 4900TIP3    H136115   1.801   6.277   4.193
 4900TIP3    H236116   1.888   6.263   4.070
 4901TIP3   OH236117   1.510   2.900  16.085
 4901TIP3    H136118   1.475   2.989  16.085
 4901TIP3    H236119   1.435   2.845  16.109
 4902TIP3   OH236120   6.627   2.917   5.260
 4902TIP3    H136121   6.702   2.973   5.240
 4902TIP3    H236122   6.656   2.863   5.333
 4903TIP3   OH236123   2.269   0.273  10.889
 4903TIP3    H136124   2.255   0.368  10.886
 4903TIP3    H236125   2.279   0.248  10.797
 4904TIP3   OH236126   3.454   5.284  14.461
 4904TIP3    H136127   3.437   5.368  14.505
 4904TIP3    H236128   3.455   5.220  14.532
 4905TIP3   OH236129   0.677   1.891  15.946
 4905TIP3    H136130   0.729   1.893  15.865
 4905TIP3    H236131   0.635   1.977  15.949
 4906TIP3   OH236132   3.957   3.725   2.378
 4906TIP3    H136133   3.950   3.821   2.384
 4906TIP3    H236134   3.868   3.694   2.394
 4907TIP3   OH236135   1.015   6.557  15.322
 4907TIP3    H136136   1.062   6.530  15.243
 4907TIP3    H236137   1.029   6.486  15.384
 4908TIP3   OH236138   6.365   2.909   5.224
 4908TIP3    H136139   6.355   2.960   5.144
 4908TIP3    H236140   6.460   2.908   5.240
 4909TIP3   OH236141   3.507   4.443  11.852
 4909TIP3    H136142   3.581   4.415  11.798
 4909TIP3    H236143   3.540   4.439  11.942
 4910TIP3   OH236144   1.598   5.554  16.602
 4910TIP3    H136145   1.643   5.630  16.565
 4910TIP3    H236146   1.669   5.499  16.636
 4911TIP3   OH236147   3.677   1.879   3.048
 4911TIP3    H136148   3.689   1.859   2.955
 4911TIP3    H236149   3.757   1.848   3.090
 4912TIP3   OH236150   4.591   2.185  15.121
 4912TIP3    H136151   4.594   2.237  15.040
 4912TIP3    H236152   4.682   2.177  15.148
 4913TIP3   OH236153   1.022   0.870  12.396
 4913TIP3    H136154   1.060   0.823  12.322
 4913TIP3    H236155   1.064   0.832  12.473
 4914TIP3   OH236156   6.485   5.333  11.129
 4914TIP3    H136157   6.431   5.410  11.147
 4914TIP3    H236158   6.575   5.366  11.129
 4915TIP3   OH236159   4.233   5.435  16.928
 4915TIP3    H136160   4.294   5.403  16.861
 4915TIP3    H236161   4.147   5.434  16.885
 4916TIP3   OH236162   6.085   1.149   6.140
 4916TIP3    H136163   6.128   1.227   6.176
 4916TIP3    H236164   5.997   1.151   6.178
 4917TIP3   OH236165   3.477   3.311  12.022
 4917TIP3    H136166   3.540   3.310  12.095
 4917TIP3    H236167   3.502   3.237  11.968
 4918TIP3   OH236168   0.100   2.997   0.079
 4918TIP3    H136169   0.063   2.982   0.166
 4918TIP3    H236170   0.195   2.993   0.092
 4919TIP3   OH236171   4.092   5.838   5.972
 4919TIP3    H136172   4.080   5.925   6.011
 4919TIP3    H236173   4.114   5.782   6.046
 4920TIP3   OH236174   5.313   2.615  12.354
 4920TIP3    H136175   5.374   2.620  12.427
 4920TIP3    H236176   5.312   2.704  12.318
 4921TIP3   OH236177   2.111   4.422   1.417
 4921TIP3    H136178   2.080   4.345   1.369
 4921TIP3    H236179   2.199   4.437   1.384
 4922TIP3   OH236180   5.420   3.722   3.414
 4922TIP3    H136181   5.471   3.660   3.362
 4922TIP3    H236182   5.404   3.677   3.497
 4923TIP3   OH236183   5.272   6.506   4.682
 4923TIP3    H136184   5.290   6.513   4.588
 4923TIP3    H236185   5.358   6.489   4.721
 4924TIP3   OH236186   1.541   0.185   1.780
 4924TIP3    H136187   1.458   0.189   1.828
 4924TIP3    H236188   1.528   0.114   1.717
 4925TIP3   OH236189   2.370   3.543   1.238
 4925TIP3    H136190   2.449   3.586   1.272
 4925TIP3    H236191   2.318   3.526   1.316
 4926TIP3   OH236192   4.512   1.010   5.839
 4926TIP3    H136193   4.514   0.962   5.921
 4926TIP3    H236194   4.575   1.080   5.850
 4927TIP3   OH236195   0.619   0.107   1.905
 4927TIP3    H136196   0.694   0.070   1.952
 4927TIP3    H236197   0.635   0.201   1.905
 4928TIP3   OH236198   4.998   0.280   0.663
 4928TIP3    H136199   4.947   0.347   0.708
 4928TIP3    H236200   4.951   0.198   0.682
 4929TIP3   OH236201   0.556   2.484   2.090
 4929TIP3    H136202   0.619   2.555   2.083
 4929TIP3    H236203   0.499   2.509   2.163
 4930TIP3   OH236204   3.035   6.269  16.073
 4930TIP3    H136205   2.954   6.320  16.062
 4930TIP3    H236206   3.080   6.277  15.989
 4931TIP3   OH236207   1.114   0.326   5.852
 4931TIP3    H136208   1.053   0.253   5.841
 4931TIP3    H236209   1.190   0.287   5.895
 4932TIP3   OH236210   2.438   4.857   6.694
 4932TIP3    H136211   2.520   4.815   6.668
 4932TIP3    H236212   2.430   4.933   6.637
 4933TIP3   OH236213   0.228   6.748  11.969
 4933TIP3    H136214   0.221   6.815  12.036
 4933TIP3    H236215   0.313   6.708  11.983
 4934TIP3   OH236216   6.450   4.781  13.591
 4934TIP3    H136217   6.467   4.709  13.532
 4934TIP3    H236218   6.417   4.852  13.535
 4935TIP3   OH236219   5.351   3.807   2.600
 4935TIP3    H136220   5.391   3.819   2.686
 4935TIP3    H236221   5.410   3.852   2.540
 4936TIP3   OH236222   5.421   5.811  13.939
 4936TIP3    H136223   5.490   5.824  14.004
 4936TIP3    H236224   5.346   5.859  13.974
 4937TIP3   OH236225   1.350   2.612  11.684
 4937TIP3    H136226   1.330   2.638  11.594
 4937TIP3    H236227   1.413   2.677  11.714
 4938TIP3   OH236228   2.722   6.628   3.383
 4938TIP3    H136229   2.753   6.653   3.296
 4938TIP3    H236230   2.639   6.584   3.368
 4939TIP3   OH236231   5.871   2.259   5.537
 4939TIP3    H136232   5.781   2.276   5.564
 4939TIP3    H236233   5.919   2.338   5.560
 4940TIP3   OH236234   3.017   5.198   2.707
 4940TIP3    H136235   3.035   5.185   2.614
 4940TIP3    H236236   3.053   5.120   2.749
 4941TIP3   OH236237   4.961   1.274   6.036
 4941TIP3    H136238   5.014   1.301   6.111
 4941TIP3    H236239   4.976   1.180   6.028
 4942TIP3   OH236240   0.763   2.692   4.174
 4942TIP3    H136241   0.729   2.626   4.114
 4942TIP3    H236242   0.857   2.675   4.177
 4943TIP3   OH236243   2.194   1.387   6.413
 4943TIP3    H136244   2.099   1.391   6.415
 4943TIP3    H236245   2.223   1.471   6.449
 4944TIP3   OH236246   6.660   6.392  15.016
 4944TIP3    H136247   6.711   6.454  15.069
 4944TIP3    H236248   6.611   6.341  15.081
 4945TIP3   OH236249   2.381   6.166  14.499
 4945TIP3    H136250   2.459   6.118  14.472
 4945TIP3    H236251   2.322   6.098  14.533
 4946TIP3   OH236252   4.576   6.604   0.549
 4946TIP3    H136253   4.629   6.536   0.508
 4946TIP3    H236254   4.582   6.586   0.643
 4947TIP3   OH236255   2.857   1.866  13.270
 4947TIP3    H136256   2.892   1.859  13.181
 4947TIP3    H236257   2.785   1.802  13.272
 4948TIP3   OH236258   4.561   5.854   3.628
 4948TIP3    H136259   4.490   5.918   3.619
 4948TIP3    H236260   4.522   5.771   3.599
 4949TIP3   OH236261   2.128   5.835  13.637
 4949TIP3    H136262   2.137   5.741  13.621
 4949TIP3    H236263   2.050   5.860  13.588
 4950TIP3   OH236264   0.012   6.633  15.345
 4950TIP3    H136265   0.039   6.642  15.253
 4950TIP3    H236266  -0.026   6.545  15.349
 4951TIP3   OH236267   3.527   6.388  16.667
 4951TIP3    H136268   3.618   6.406  16.643
 4951TIP3    H236269   3.476   6.455  16.621
 4952TIP3   OH236270   4.889   0.115   4.761
 4952TIP3    H136271   4.958   0.158   4.711
 4952TIP3    H236272   4.901   0.022   4.744
 4953TIP3   OH236273   0.068   3.981   4.517
 4953TIP3    H136274  -0.017   3.953   4.483
 4953TIP3    H236275   0.054   4.070   4.549
 4954TIP3   OH236276   0.560   5.785  10.919
 4954TIP3    H136277   0.559   5.873  10.881
 4954TIP3    H236278   0.524   5.729  10.850
 4955TIP3   OH236279   1.741   1.498  11.590
 4955TIP3    H136280   1.750   1.475  11.683
 4955TIP3    H236281   1.827   1.532  11.566
 4956TIP3   OH236282   5.695   5.321   0.257
 4956TIP3    H136283   5.682   5.398   0.201
 4956TIP3    H236284   5.679   5.353   0.346
 4957TIP3   OH236285   0.959   5.774   1.174
 4957TIP3    H136286   1.013   5.852   1.158
 4957TIP3    H236287   0.967   5.723   1.093
 4958TIP3   OH236288   6.703   4.426   0.842
 4958TIP3    H136289   6.719   4.496   0.906
 4958TIP3    H236290   6.651   4.469   0.773
 4959TIP3   OH236291   3.148   5.652  14.060
 4959TIP3    H136292   3.180   5.701  14.137
 4959TIP3    H236293   3.053   5.651  14.071
 4960TIP3   OH236294   5.698   2.197  14.248
 4960TIP3    H136295   5.670   2.211  14.339
 4960TIP3    H236296   5.793   2.193  14.253
 4961TIP3   OH236297   3.763   5.814   2.966
 4961TIP3    H136298   3.682   5.831   2.918
 4961TIP3    H236299   3.833   5.832   2.904
 4962TIP3   OH236300   4.870   4.135  10.951
 4962TIP3    H136301   4.957   4.130  10.991
 4962TIP3    H236302   4.882   4.100  10.863
 4963TIP3   OH236303   6.183   5.433  12.224
 4963TIP3    H136304   6.133   5.385  12.159
 4963TIP3    H236305   6.225   5.504  12.175
 4964TIP3   OH236306   3.868   5.869   0.370
 4964TIP3    H136307   3.935   5.801   0.377
 4964TIP3    H236308   3.918   5.951   0.367
 4965TIP3   OH236309   3.307   5.525   4.496
 4965TIP3    H136310   3.257   5.605   4.509
 4965TIP3    H236311   3.273   5.465   4.562
 4966TIP3   OH236312   3.345   6.220  16.754
 4966TIP3    H136313   3.317   6.169  16.677
 4966TIP3    H236314   3.405   6.285  16.718
 4967TIP3   OH236315   1.580   5.040   0.856
 4967TIP3    H136316   1.675   5.043   0.862
 4967TIP3    H236317   1.555   5.124   0.816
 4968TIP3   OH236318   4.947   0.155  17.156
 4968TIP3    H136319   4.990   0.169  17.240
 4968TIP3    H236320   5.004   0.094  17.110
 4969TIP3   OH236321   1.344   5.523   2.024
 4969TIP3    H136322   1.255   5.512   2.057
 4969TIP3    H236323   1.349   5.462   1.950
 4970TIP3   OH236324   3.092   0.254   0.495
 4970TIP3    H136325   3.187   0.258   0.482
 4970TIP3    H236326   3.071   0.335   0.542
 4971TIP3   OH236327   1.302   2.241   5.127
 4971TIP3    H136328   1.346   2.186   5.062
 4971TIP3    H236329   1.359   2.238   5.204
 4972TIP3   OH236330   2.846   2.164   4.744
 4972TIP3    H136331   2.937   2.147   4.767
 4972TIP3    H236332   2.839   2.137   4.653
 4973TIP3   OH236333   1.636   1.410  15.012
 4973TIP3    H136334   1.546   1.439  14.996
 4973TIP3    H236335   1.627   1.338  15.075
 4974TIP3   OH236336   1.883   0.418  13.347
 4974TIP3    H136337   1.971   0.388  13.367
 4974TIP3    H236338   1.876   0.504  13.390
 4975TIP3   OH236339   0.592   3.057  11.628
 4975TIP3    H136340   0.622   3.104  11.706
 4975TIP3    H236341   0.522   3.001  11.659
 4976TIP3   OH236342   6.264   1.023  11.193
 4976TIP3    H136343   6.193   0.989  11.248
 4976TIP3    H236344   6.235   1.111  11.169
 4977TIP3   OH236345   6.576   4.258   1.696
 4977TIP3    H136346   6.578   4.167   1.667
 4977TIP3    H236347   6.537   4.306   1.622
 4978TIP3   OH236348   3.832   4.264   0.724
 4978TIP3    H136349   3.864   4.265   0.634
 4978TIP3    H236350   3.806   4.355   0.741
 4979TIP3   OH236351   1.779   5.506   1.432
 4979TIP3    H136352   1.861   5.551   1.451
 4979TIP3    H236353   1.737   5.496   1.517
 4980TIP3   OH236354   5.644   4.518  12.966
 4980TIP3    H136355   5.727   4.543  12.925
 4980TIP3    H236356   5.578   4.569  12.920
 4981TIP3   OH236357   3.899   4.361  12.078
 4981TIP3    H136358   3.896   4.420  12.153
 4981TIP3    H236359   3.942   4.410  12.009
 4982TIP3   OH236360   6.310   6.356   5.908
 4982TIP3    H136361   6.314   6.437   5.960
 4982TIP3    H236362   6.266   6.293   5.964
 4983TIP3   OH236363   5.834   0.086   3.266
 4983TIP3    H136364   5.782   0.141   3.325
 4983TIP3    H236365   5.800  -0.003   3.280
 4984TIP3   OH236366   4.025   6.314   2.624
 4984TIP3    H136367   3.969   6.304   2.700
 4984TIP3    H236368   3.967   6.344   2.555
 4985TIP3   OH236369   2.622   2.370  14.946
 4985TIP3    H136370   2.635   2.285  14.988
 4985TIP3    H236371   2.686   2.427  14.987
 4986TIP3   OH236372   3.119   4.676   3.698
 4986TIP3    H136373   3.076   4.756   3.728
 4986TIP3    H236374   3.077   4.606   3.748
 4987TIP3   OH236375   4.605   3.650   3.200
 4987TIP3    H136376   4.616   3.724   3.140
 4987TIP3    H236377   4.533   3.600   3.163
 4988TIP3   OH236378   3.695   5.964   3.892
 4988TIP3    H136379   3.659   5.962   3.804
 4988TIP3    H236380   3.636   6.021   3.941
 4989TIP3   OH236381   0.616   1.385   0.367
 4989TIP3    H136382   0.699   1.400   0.412
 4989TIP3    H236383   0.561   1.458   0.393
 4990TIP3   OH236384   0.981   3.418   0.017
 4990TIP3    H136385   0.922   3.344   0.000
 4990TIP3    H236386   0.985   3.424   0.113
 4991TIP3   OH236387   4.071   2.774  16.388
 4991TIP3    H136388   4.006   2.809  16.328
 4991TIP3    H236389   4.074   2.837  16.460
 4992TIP3   OH236390   4.225   4.189   0.016
 4992TIP3    H136391   4.282   4.175   0.092
 4992TIP3    H236392   4.144   4.144   0.038
 4993TIP3   OH236393   0.068   3.351  13.087
 4993TIP3    H136394   0.139   3.385  13.141
 4993TIP3    H236395   0.111   3.289  13.027
 4994TIP3   OH236396   0.458   2.414  12.037
 4994TIP3    H136397   0.477   2.504  12.064
 4994TIP3    H236398   0.413   2.423  11.953
 4995TIP3   OH236399   3.581   6.314   2.042
 4995TIP3    H136400   3.582   6.386   1.979
 4995TIP3    H236401   3.673   6.302   2.065
 4996TIP3   OH236402   3.888   0.389  14.912
 4996TIP3    H136403   3.965   0.441  14.891
 4996TIP3    H236404   3.889   0.318  14.847
 4997TIP3   OH236405   5.804   4.821   3.225
 4997TIP3    H136406   5.720   4.854   3.193
 4997TIP3    H236407   5.781   4.751   3.286
 4998TIP3   OH236408   1.590   0.128  14.119
 4998TIP3    H136409   1.539   0.061  14.164
 4998TIP3    H236410   1.628   0.082  14.044
 4999TIP3   OH236411   1.627   5.149  15.890
 4999TIP3    H136412   1.542   5.125  15.928
 4999TIP3    H236413   1.615   5.137  15.795
 5000TIP3   OH236414   3.584   0.804  12.077
 5000TIP3    H136415   3.600   0.811  11.983
 5000TIP3    H236416   3.614   0.717  12.101
 5001TIP3   OH236417   4.518   6.316   1.202
 5001TIP3    H136418   4.439   6.350   1.243
 5001TIP3    H236419   4.550   6.250   1.264
 5002TIP3   OH236420   5.828   0.367   2.667
 5002TIP3    H136421   5.769   0.295   2.687
 5002TIP3    H236422   5.907   0.326   2.632
 5003TIP3   OH236423   4.498   2.225   0.960
 5003TIP3    H136424   4.411   2.239   0.923
 5003TIP3    H236425   4.552   2.294   0.922
 5004TIP3   OH236426   0.414   1.984  16.089
 5004TIP3    H136427   0.404   1.924  16.015
 5004TIP3    H236428   0.495   2.031  16.071
 5005TIP3   OH236429   2.650   6.063  17.170
 5005TIP3    H136430   2.572   6.092  17.123
 5005TIP3    H236431   2.636   5.969  17.184
 5006TIP3   OH236432   5.241   1.530   4.706
 5006TIP3    H136433   5.258   1.449   4.755
 5006TIP3    H236434   5.244   1.503   4.614
 5007TIP3   OH236435   6.549   5.121  14.492
 5007TIP3    H136436   6.548   5.202  14.542
 5007TIP3    H236437   6.631   5.079  14.516
 5008TIP3   OH236438   0.518   6.711   3.281
 5008TIP3    H136439   0.583   6.743   3.345
 5008TIP3    H236440   0.476   6.790   3.248
 5009TIP3   OH236441   0.175   1.844  11.055
 5009TIP3    H136442   0.217   1.916  11.008
 5009TIP3    H236443   0.153   1.780  10.987
 5010TIP3   OH236444   3.742   5.954  12.203
 5010TIP3    H136445   3.659   5.916  12.231
 5010TIP3    H236446   3.724   6.048  12.194
 5011TIP3   OH236447   0.901   3.115   0.747
 5011TIP3    H136448   0.911   3.145   0.657
 5011TIP3    H236449   0.809   3.132   0.768
 5012TIP3   OH236450   1.411   2.741  10.816
 5012TIP3    H136451   1.330   2.726  10.768
 5012TIP3    H236452   1.443   2.824  10.781
 5013TIP3   OH236453   2.351   6.076  13.887
 5013TIP3    H136454   2.307   6.025  13.955
 5013TIP3    H236455   2.311   6.046  13.805
 5014TIP3   OH236456   5.835   2.815   5.945
 5014TIP3    H136457   5.867   2.795   6.033
 5014TIP3    H236458   5.850   2.909   5.936
 5015TIP3   OH236459   1.287   0.188  16.118
 5015TIP3    H136460   1.315   0.280  16.120
 5015TIP3    H236461   1.277   0.164  16.210
 5016TIP3   OH236462   3.504   0.846   5.363
 5016TIP3    H136463   3.444   0.771   5.365
 5016TIP3    H236464   3.468   0.907   5.428
 5017TIP3   OH236465   5.422   3.471  13.998
 5017TIP3    H136466   5.455   3.561  13.996
 5017TIP3    H236467   5.491   3.420  13.955
 5018TIP3   OH236468   3.244   1.444  14.780
 5018TIP3    H136469   3.240   1.375  14.713
 5018TIP3    H236470   3.206   1.403  14.858
 5019TIP3   OH236471   1.540   3.653  15.498
 5019TIP3    H136472   1.547   3.748  15.509
 5019TIP3    H236473   1.607   3.633  15.432
 5020TIP3   OH236474   2.566   5.557   1.173
 5020TIP3    H136475   2.487   5.547   1.120
 5020TIP3    H236476   2.562   5.647   1.206
 5021TIP3   OH236477   6.611   3.609   4.011
 5021TIP3    H136478   6.567   3.546   4.069
 5021TIP3    H236479   6.701   3.613   4.044
 5022TIP3   OH236480   1.562   0.546  14.450
 5022TIP3    H136481   1.485   0.550  14.506
 5022TIP3    H236482   1.629   0.597  14.496
 5023TIP3   OH236483   6.467   3.579  11.219
 5023TIP3    H136484   6.507   3.550  11.137
 5023TIP3    H236485   6.537   3.624  11.265
 5024TIP3   OH236486   4.188   6.363  11.631
 5024TIP3    H136487   4.264   6.343  11.577
 5024TIP3    H236488   4.116   6.317  11.588
 5025TIP3   OH236489   5.766   6.572  15.433
 5025TIP3    H136490   5.713   6.551  15.356
 5025TIP3    H236491   5.708   6.622  15.490
 5026TIP3   OH236492   5.540   4.797  13.275
 5026TIP3    H136493   5.528   4.861  13.206
 5026TIP3    H236494   5.464   4.740  13.269
 5027TIP3   OH236495   4.952   6.072  11.230
 5027TIP3    H136496   4.875   6.070  11.287
 5027TIP3    H236497   4.917   6.069  11.141
 5028TIP3   OH236498   5.496   1.148  13.858
 5028TIP3    H136499   5.481   1.240  13.836
 5028TIP3    H236500   5.416   1.103  13.830
 5029TIP3   OH236501   3.154   0.843  16.631
 5029TIP3    H136502   3.240   0.845  16.673
 5029TIP3    H236503   3.145   0.754  16.598
 5030TIP3   OH236504   6.209   0.513   2.401
 5030TIP3    H136505   6.261   0.581   2.358
 5030TIP3    H236506   6.119   0.534   2.378
 5031TIP3   OH236507   0.824   0.511   1.522
 5031TIP3    H136508   0.832   0.417   1.538
 5031TIP3    H236509   0.889   0.551   1.580
 5032TIP3   OH236510   2.187   1.193  13.838
 5032TIP3    H136511   2.244   1.243  13.896
 5032TIP3    H236512   2.126   1.257  13.804
 5033TIP3   OH236513   2.149   6.414  17.094
 5033TIP3    H136514   2.103   6.467  17.029
 5033TIP3    H236515   2.214   6.365  17.043
 5034TIP3   OH236516   1.757   3.843   1.680
 5034TIP3    H136517   1.825   3.783   1.709
 5034TIP3    H236518   1.729   3.889   1.759
 5035TIP3   OH236519   6.001   5.958   1.526
 5035TIP3    H136520   6.055   6.031   1.497
 5035TIP3    H236521   5.992   5.971   1.620
 5036TIP3   OH236522   1.919   6.320  17.226
 5036TIP3    H136523   2.011   6.347  17.230
 5036TIP3    H236524   1.914   6.261  17.151
 5037TIP3   OH236525   5.985   0.726  11.670
 5037TIP3    H136526   5.998   0.655  11.733
 5037TIP3    H236527   5.930   0.789  11.716
 5038TIP3   OH236528   3.288   2.267  11.697
 5038TIP3    H136529   3.243   2.184  11.684
 5038TIP3    H236530   3.223   2.334  11.675
 5039TIP3   OH236531   2.175   2.180  10.918
 5039TIP3    H136532   2.233   2.198  10.845
 5039TIP3    H236533   2.122   2.105  10.889
 5040TIP3   OH236534   4.095   4.912  12.384
 5040TIP3    H136535   4.139   4.827  12.382
 5040TIP3    H236536   4.150   4.966  12.440
 5041TIP3   OH236537   5.279   4.782   5.373
 5041TIP3    H136538   5.275   4.868   5.414
 5041TIP3    H236539   5.331   4.729   5.434
 5042TIP3   OH236540   5.085   3.686   0.669
 5042TIP3    H136541   5.075   3.755   0.734
 5042TIP3    H236542   5.165   3.640   0.695
 5043TIP3   OH236543   3.094   1.725   4.042
 5043TIP3    H136544   3.001   1.748   4.038
 5043TIP3    H236545   3.134   1.798   4.089
 5044TIP3   OH236546   5.732   2.572  15.331
 5044TIP3    H136547   5.808   2.540  15.379
 5044TIP3    H236548   5.769   2.621  15.258
 5045TIP3   OH236549   2.498   3.877  16.408
 5045TIP3    H136550   2.421   3.917  16.368
 5045TIP3    H236551   2.468   3.845  16.493
 5046TIP3   OH236552   3.080   2.179  12.623
 5046TIP3    H136553   3.172   2.177  12.647
 5046TIP3    H236554   3.061   2.271  12.605
 5047TIP3   OH236555   0.504   1.679  14.026
 5047TIP3    H136556   0.507   1.771  14.000
 5047TIP3    H236557   0.561   1.674  14.103
 5048TIP3   OH236558   0.924   5.184   0.023
 5048TIP3    H136559   0.931   5.240   0.100
 5048TIP3    H236560   0.862   5.115   0.049
 5049TIP3   OH236561   6.696   1.414   4.932
 5049TIP3    H136562   6.640   1.336   4.929
 5049TIP3    H236563   6.643   1.480   4.977
 5050TIP3   OH236564   5.132   6.697   1.915
 5050TIP3    H136565   5.197   6.713   1.846
 5050TIP3    H236566   5.164   6.619   1.960
 5051TIP3   OH236567   4.721   6.037  11.688
 5051TIP3    H136568   4.803   5.995  11.661
 5051TIP3    H236569   4.749   6.115  11.737
 5052TIP3   OH236570   6.250   6.459   0.645
 5052TIP3    H136571   6.159   6.463   0.616
 5052TIP3    H236572   6.251   6.502   0.730
 5053TIP3   OH236573   3.612   0.392   4.496
 5053TIP3    H136574   3.561   0.391   4.415
 5053TIP3    H236575   3.689   0.338   4.476
 5054TIP3   OH236576   1.884   4.551   4.791
 5054TIP3    H136577   1.810   4.573   4.848
 5054TIP3    H236578   1.932   4.633   4.780
 5055TIP3   OH236579   5.243   3.309   0.894
 5055TIP3    H136580   5.264   3.273   0.808
 5055TIP3    H236581   5.151   3.286   0.908
 5056TIP3   OH236582   1.773   1.185   0.876
 5056TIP3    H136583   1.859   1.215   0.848
 5056TIP3    H236584   1.711   1.242   0.829
 5057TIP3   OH236585   4.324   2.461  14.210
 5057TIP3    H136586   4.336   2.552  14.184
 5057TIP3    H236587   4.233   2.457  14.240
 5058TIP3   OH236588   3.112   2.566   6.548
 5058TIP3    H136589   3.205   2.545   6.535
 5058TIP3    H236590   3.078   2.491   6.597
 5059TIP3   OH236591   2.682   2.898   4.683
 5059TIP3    H136592   2.607   2.936   4.729
 5059TIP3    H236593   2.757   2.918   4.739
 5060TIP3   OH236594   4.246   0.695  14.156
 5060TIP3    H136595   4.291   0.761  14.209
 5060TIP3    H236596   4.316   0.638  14.124
 5061TIP3   OH236597   0.315   0.519  16.898
 5061TIP3    H136598   0.345   0.544  16.811
 5061TIP3    H236599   0.364   0.440  16.919
 5062TIP3   OH236600   2.553   2.583   4.417
 5062TIP3    H136601   2.629   2.614   4.466
 5062TIP3    H236602   2.568   2.489   4.404
 5063TIP3   OH236603   1.155   4.742  13.009
 5063TIP3    H136604   1.113   4.684  12.946
 5063TIP3    H236605   1.082   4.785  13.054
 5064TIP3   OH236606   5.706   6.515  17.183
 5064TIP3    H136607   5.718   6.422  17.164
 5064TIP3    H236608   5.693   6.518  17.278
 5065TIP3   OH236609   4.199   6.386   5.692
 5065TIP3    H136610   4.108   6.406   5.671
 5065TIP3    H236611   4.195   6.341   5.777
 5066TIP3   OH236612   5.072   2.407  13.470
 5066TIP3    H136613   5.112   2.337  13.522
 5066TIP3    H236614   5.073   2.375  13.380
 5067TIP3   OH236615   1.394   2.777   1.862
 5067TIP3    H136616   1.412   2.783   1.956
 5067TIP3    H236617   1.447   2.847   1.823
 5068TIP3   OH236618   1.062   2.113   2.539
 5068TIP3    H136619   1.014   2.196   2.537
 5068TIP3    H236620   1.075   2.091   2.447
 5069TIP3   OH236621   5.141   1.623   5.512
 5069TIP3    H136622   5.147   1.693   5.576
 5069TIP3    H236623   5.146   1.543   5.564
 5070TIP3   OH236624   6.489   6.116   0.859
 5070TIP3    H136625   6.517   6.200   0.821
 5070TIP3    H236626   6.409   6.093   0.811
 5071TIP3   OH236627   1.931   5.373  11.778
 5071TIP3    H136628   1.907   5.297  11.831
 5071TIP3    H236629   1.986   5.426  11.835
 5072TIP3   OH236630   4.628   6.162  12.530
 5072TIP3    H136631   4.614   6.238  12.474
 5072TIP3    H236632   4.701   6.114  12.490
 5073TIP3   OH236633   4.461   0.884   6.678
 5073TIP3    H136634   4.495   0.840   6.600
 5073TIP3    H236635   4.493   0.974   6.671
 5074TIP3   OH236636   3.435   1.930  12.085
 5074TIP3    H136637   3.447   1.901  11.994
 5074TIP3    H236638   3.344   1.960  12.088
 5075TIP3   OH236639   3.130   5.721   0.231
 5075TIP3    H136640   3.090   5.658   0.172
 5075TIP3    H236641   3.067   5.732   0.302
 5076TIP3   OH236642   2.074   2.703   6.241
 5076TIP3    H136643   2.127   2.778   6.269
 5076TIP3    H236644   2.066   2.649   6.320
 5077TIP3   OH236645   5.025   2.822  16.504
 5077TIP3    H136646   5.095   2.880  16.536
 5077TIP3    H236647   4.975   2.877  16.443
 5078TIP3   OH236648   5.225   3.514   5.384
 5078TIP3    H136649   5.267   3.434   5.413
 5078TIP3    H236650   5.173   3.488   5.308
 5079TIP3   OH236651   4.326   2.108   4.277
 5079TIP3    H136652   4.230   2.111   4.272
 5079TIP3    H236653   4.353   2.198   4.259
 5080TIP3   OH236654   6.725   1.747  13.834
 5080TIP3    H136655   6.669   1.732  13.758
 5080TIP3    H236656   6.664   1.753  13.907
 5081TIP3   OH236657   1.317   2.514  13.888
 5081TIP3    H136658   1.389   2.551  13.938
 5081TIP3    H236659   1.355   2.488  13.805
 5082TIP3   OH236660   1.523   3.652  12.540
 5082TIP3    H136661   1.486   3.588  12.480
 5082TIP3    H236662   1.618   3.645  12.528
 5083TIP3   OH236663   4.784   3.725  16.509
 5083TIP3    H136664   4.787   3.734  16.413
 5083TIP3    H236665   4.786   3.630  16.524
 5084TIP3   OH236666   3.021   2.905   5.881
 5084TIP3    H136667   3.036   2.994   5.848
 5084TIP3    H236668   3.065   2.904   5.966
 5085TIP3   OH236669   2.135   0.008  10.653
 5085TIP3    H136670   2.115  -0.048  10.578
 5085TIP3    H236671   2.157  -0.053  10.724
 5086TIP3   OH236672   2.745   4.059  11.447
 5086TIP3    H136673   2.767   3.967  11.456
 5086TIP3    H236674   2.724   4.070  11.354
 5087TIP3   OH236675   0.903   2.961   1.724
 5087TIP3    H136676   0.923   2.975   1.632
 5087TIP3    H236677   0.818   3.003   1.737
 5088TIP3   OH236678   0.686   2.704   4.573
 5088TIP3    H136679   0.608   2.683   4.624
 5088TIP3    H236680   0.655   2.765   4.506
 5089TIP3   OH236681   3.913   0.103   4.195
 5089TIP3    H136682   3.986   0.070   4.142
 5089TIP3    H236683   3.905   0.040   4.267
 5090TIP3   OH236684   2.991   0.441   5.370
 5090TIP3    H136685   3.045   0.454   5.292
 5090TIP3    H236686   2.919   0.387   5.340
 5091TIP3   OH236687   5.655   4.282   4.780
 5091TIP3    H136688   5.680   4.370   4.754
 5091TIP3    H236689   5.562   4.276   4.759
 5092TIP3   OH236690   4.311   6.050  13.258
 5092TIP3    H136691   4.218   6.062  13.236
 5092TIP3    H236692   4.341   6.137  13.283
 5093TIP3   OH236693   5.061   0.646  14.318
 5093TIP3    H136694   5.113   0.719  14.354
 5093TIP3    H236695   5.085   0.571  14.372
 5094TIP3   OH236696   3.678   3.163  13.066
 5094TIP3    H136697   3.686   3.258  13.061
 5094TIP3    H236698   3.728   3.130  12.991
 5095TIP3   OH236699   5.773   1.642  15.179
 5095TIP3    H136700   5.845   1.702  15.200
 5095TIP3    H236701   5.776   1.577  15.249
 5096TIP3   OH236702   3.571   5.082   0.417
 5096TIP3    H136703   3.638   5.070   0.485
 5096TIP3    H236704   3.489   5.055   0.459
 5097TIP3   OH236705   0.031   0.189   3.206
 5097TIP3    H136706  -0.026   0.176   3.130
 5097TIP3    H236707  -0.027   0.226   3.273
 5098TIP3   OH236708   5.444   6.699   3.619
 5098TIP3    H136709   5.476   6.626   3.673
 5098TIP3    H236710   5.364   6.665   3.580
 5099TIP3   OH236711   1.679   3.901   5.429
 5099TIP3    H136712   1.601   3.870   5.476
 5099TIP3    H236713   1.735   3.824   5.422
 5100TIP3   OH236714   4.042   1.381  15.513
 5100TIP3    H136715   4.137   1.389  15.519
 5100TIP3    H236716   4.008   1.458  15.559
 5101TIP3   OH236717   6.425   5.456   4.888
 5101TIP3    H136718   6.402   5.490   4.801
 5101TIP3    H236719   6.453   5.534   4.937
 5102TIP3   OH236720   4.796   0.323   4.979
 5102TIP3    H136721   4.830   0.404   4.940
 5102TIP3    H236722   4.832   0.253   4.926
 5103TIP3   OH236723   2.177   0.226   4.771
 5103TIP3    H136724   2.212   0.264   4.690
 5103TIP3    H236725   2.171   0.300   4.831
 5104TIP3   OH236726   0.691   5.232  11.747
 5104TIP3    H136727   0.705   5.139  11.727
 5104TIP3    H236728   0.762   5.277  11.701
 5105TIP3   OH236729   3.138   1.441  16.614
 5105TIP3    H136730   3.144   1.358  16.661
 5105TIP3    H236731   3.075   1.425  16.545
 5106TIP3   OH236732   1.504   4.184   3.575
 5106TIP3    H136733   1.561   4.153   3.504
 5106TIP3    H236734   1.548   4.155   3.655
 5107TIP3   OH236735   4.796   3.155   3.384
 5107TIP3    H136736   4.788   3.243   3.346
 5107TIP3    H236737   4.866   3.163   3.449
 5108TIP3   OH236738   4.108   1.464   2.417
 5108TIP3    H136739   4.032   1.455   2.359
 5108TIP3    H236740   4.070   1.481   2.503
 5109TIP3   OH236741   1.946   3.056   0.669
 5109TIP3    H136742   1.962   2.962   0.674
 5109TIP3    H236743   1.919   3.072   0.579
 5110TIP3   OH236744   4.357   4.500  16.370
 5110TIP3    H136745   4.279   4.554  16.386
 5110TIP3    H236746   4.378   4.515  16.278
 5111TIP3   OH236747   1.035   5.241   1.163
 5111TIP3    H136748   0.977   5.167   1.181
 5111TIP3    H236749   1.047   5.284   1.248
 5112TIP3   OH236750   0.213   4.731  12.891
 5112TIP3    H136751   0.293   4.721  12.942
 5112TIP3    H236752   0.242   4.756  12.804
 5113TIP3   OH236753   5.880   1.945  11.926
 5113TIP3    H136754   5.912   1.855  11.927
 5113TIP3    H236755   5.871   1.969  12.018
 5114TIP3   OH236756   6.753   1.155  15.403
 5114TIP3    H136757   6.706   1.227  15.445
 5114TIP3    H236758   6.697   1.130  15.329
 5115TIP3   OH236759   0.576   3.854  13.418
 5115TIP3    H136760   0.507   3.854  13.485
 5115TIP3    H236761   0.648   3.902  13.458
 5116TIP3   OH236762   0.294   2.201  17.116
 5116TIP3    H136763   0.385   2.230  17.115
 5116TIP3    H236764   0.250   2.263  17.174
 5117TIP3   OH236765   0.876   1.302  14.694
 5117TIP3    H136766   0.899   1.382  14.647
 5117TIP3    H236767   0.803   1.327  14.751
 5118TIP3   OH236768   5.112   4.839   4.504
 5118TIP3    H136769   5.018   4.824   4.507
 5118TIP3    H236770   5.144   4.814   4.591
 5119TIP3   OH236771   1.024   2.135  17.082
 5119TIP3    H136772   0.939   2.119  17.041
 5119TIP3    H236773   1.004   2.182  17.163
 5120TIP3   OH236774   3.628   2.392  14.991
 5120TIP3    H136775   3.712   2.349  15.004
 5120TIP3    H236776   3.580   2.334  14.932
 5121TIP3   OH236777   3.478   5.510  15.790
 5121TIP3    H136778   3.427   5.461  15.725
 5121TIP3    H236779   3.502   5.591  15.745
 5122TIP3   OH236780   2.328   4.973   2.596
 5122TIP3    H136781   2.303   4.902   2.655
 5122TIP3    H236782   2.245   5.004   2.560
 5123TIP3   OH236783   4.444   0.936   6.271
 5123TIP3    H136784   4.357   0.976   6.272
 5123TIP3    H236785   4.502   1.005   6.238
 5124TIP3   OH236786   0.672   5.023   2.900
 5124TIP3    H136787   0.762   4.995   2.916
 5124TIP3    H236788   0.681   5.107   2.853
 5125TIP3   OH236789   6.670   4.216  10.465
 5125TIP3    H136790   6.681   4.172  10.380
 5125TIP3    H236791   6.704   4.304  10.450
 5126TIP3   OH236792   6.097   2.969  14.855
 5126TIP3    H136793   6.175   2.983  14.909
 5126TIP3    H236794   6.036   2.923  14.912
 5127TIP3   OH236795   6.640   2.538  13.924
 5127TIP3    H136796   6.652   2.623  13.968
 5127TIP3    H236797   6.726   2.519  13.887
 5128TIP3   OH236798   1.943   5.865   0.942
 5128TIP3    H136799   1.941   5.834   0.852
 5128TIP3    H236800   1.953   5.786   0.995
 5129TIP3   OH236801   2.384   1.444   6.801
 5129TIP3    H136802   2.371   1.370   6.742
 5129TIP3    H236803   2.473   1.474   6.782
 5130TIP3   OH236804   5.651   0.889  14.145
 5130TIP3    H136805   5.607   0.843  14.073
 5130TIP3    H236806   5.720   0.939  14.102
 5131TIP3   OH236807   4.160   2.901  16.129
 5131TIP3    H136808   4.108   2.868  16.056
 5131TIP3    H236809   4.129   2.852  16.205
 5132TIP3   OH236810   4.199   4.414   0.319
 5132TIP3    H136811   4.272   4.416   0.258
 5132TIP3    H236812   4.121   4.404   0.264
 5133TIP3   OH236813   2.095   4.703  16.565
 5133TIP3    H136814   2.182   4.734  16.590
 5133TIP3    H236815   2.048   4.695  16.649
 5134TIP3   OH236816   0.437   5.416  11.834
 5134TIP3    H136817   0.469   5.376  11.914
 5134TIP3    H236818   0.510   5.470  11.803
 5135TIP3   OH236819   4.100   5.501  15.109
 5135TIP3    H136820   4.056   5.533  15.187
 5135TIP3    H236821   4.088   5.406  15.111
 5136TIP3   OH236822   0.011   4.269   5.459
 5136TIP3    H136823  -0.077   4.306   5.461
 5136TIP3    H236824   0.069   4.342   5.482
 5137TIP3   OH236825   5.535   2.698   5.994
 5137TIP3    H136826   5.561   2.708   6.085
 5137TIP3    H236827   5.604   2.742   5.944
 5138TIP3   OH236828   5.865   3.245   1.442
 5138TIP3    H136829   5.802   3.182   1.478
 5138TIP3    H236830   5.950   3.208   1.466
 5139TIP3   OH236831   3.179   6.674  16.786
 5139TIP3    H136832   3.198   6.624  16.707
 5139TIP3    H236833   3.238   6.750  16.780
 5140TIP3   OH236834   5.809   2.928  11.473
 5140TIP3    H136835   5.787   3.007  11.424
 5140TIP3    H236836   5.724   2.893  11.501
 5141TIP3   OH236837   5.887   5.936   2.916
 5141TIP3    H136838   5.952   5.985   2.866
 5141TIP3    H236839   5.805   5.984   2.902
 5142TIP3   OH236840   3.224   0.423   2.414
 5142TIP3    H136841   3.226   0.506   2.366
 5142TIP3    H236842   3.158   0.436   2.483
 5143TIP3   OH236843   0.748   3.482   0.556
 5143TIP3    H136844   0.655   3.476   0.535
 5143TIP3    H236845   0.785   3.536   0.485
 5144TIP3   OH236846   5.871   5.145   0.172
 5144TIP3    H136847   5.837   5.232   0.195
 5144TIP3    H236848   5.825   5.085   0.231
 5145TIP3   OH236849   4.078   2.738  13.956
 5145TIP3    H136850   4.143   2.806  13.935
 5145TIP3    H236851   4.097   2.714  14.046
 5146TIP3   OH236852   5.597   1.370  14.193
 5146TIP3    H136853   5.535   1.307  14.231
 5146TIP3    H236854   5.545   1.449  14.180
 5147TIP3   OH236855   2.557   2.013   6.510
 5147TIP3    H136856   2.593   1.946   6.452
 5147TIP3    H236857   2.629   2.034   6.570
 5148TIP3   OH236858   0.322   0.593   0.526
 5148TIP3    H136859   0.404   0.619   0.567
 5148TIP3    H236860   0.338   0.601   0.432
 5149TIP3   OH236861   1.831   0.913  15.356
 5149TIP3    H136862   1.905   0.968  15.380
 5149TIP3    H236863   1.796   0.882  15.440
 5150TIP3   OH236864   6.652   2.231   4.331
 5150TIP3    H136865   6.667   2.172   4.257
 5150TIP3    H236866   6.568   2.202   4.367
 5151TIP3   OH236867   6.498   3.760  12.395
 5151TIP3    H136868   6.594   3.754  12.397
 5151TIP3    H236869   6.472   3.772  12.486
 5152TIP3   OH236870   5.010   5.612   3.937
 5152TIP3    H136871   5.070   5.594   3.865
 5152TIP3    H236872   4.978   5.701   3.921
 5153TIP3   OH236873   5.562   3.760   0.580
 5153TIP3    H136874   5.609   3.841   0.563
 5153TIP3    H236875   5.631   3.694   0.589
 5154TIP3   OH236876   0.781   2.690   3.413
 5154TIP3    H136877   0.805   2.770   3.460
 5154TIP3    H236878   0.698   2.712   3.370
 5155TIP3   OH236879   4.389   1.430   4.709
 5155TIP3    H136880   4.326   1.370   4.667
 5155TIP3    H236881   4.473   1.386   4.698
 5156TIP3   OH236882   0.278   5.242   5.063
 5156TIP3    H136883   0.247   5.216   5.150
 5156TIP3    H236884   0.214   5.306   5.033
 5157TIP3   OH236885   1.639   5.661   0.601
 5157TIP3    H136886   1.577   5.726   0.568
 5157TIP3    H236887   1.620   5.583   0.549
 5158TIP3   OH236888   4.386   5.350  14.452
 5158TIP3    H136889   4.302   5.303  14.450
 5158TIP3    H236890   4.433   5.313  14.527
 5159TIP3   OH236891   4.341   6.001  11.183
 5159TIP3    H136892   4.429   6.010  11.145
 5159TIP3    H236893   4.298   5.936  11.127
 5160TIP3   OH236894   3.068   6.101  13.672
 5160TIP3    H136895   3.161   6.124  13.677
 5160TIP3    H236896   3.034   6.158  13.602
 5161TIP3   OH236897   1.674   5.292   3.065
 5161TIP3    H136898   1.670   5.332   2.978
 5161TIP3    H236899   1.744   5.227   3.059
 5162TIP3   OH236900   4.393   4.036   0.532
 5162TIP3    H136901   4.356   3.963   0.581
 5162TIP3    H236902   4.320   4.098   0.523
 5163TIP3   OH236903   1.349   6.664   1.834
 5163TIP3    H136904   1.355   6.684   1.928
 5163TIP3    H236905   1.261   6.692   1.809
 5164TIP3   OH236906   3.084   6.647   2.688
 5164TIP3    H136907   3.085   6.624   2.781
 5164TIP3    H236908   3.127   6.732   2.684
 5165TIP3   OH236909   1.251   6.618  12.121
 5165TIP3    H136910   1.187   6.636  12.190
 5165TIP3    H236911   1.260   6.522  12.122
 5166TIP3   OH236912   1.063   3.045  14.145
 5166TIP3    H136913   0.994   2.992  14.186
 5166TIP3    H236914   1.087   2.995  14.067
 5167TIP3   OH236915   0.738   2.254   0.150
 5167TIP3    H136916   0.693   2.319   0.204
 5167TIP3    H236917   0.680   2.178   0.151
 5168TIP3   OH236918   1.605   1.578   0.323
 5168TIP3    H136919   1.676   1.542   0.376
 5168TIP3    H236920   1.641   1.583   0.235
 5169TIP3   OH236921   1.183   2.619  17.068
 5169TIP3    H136922   1.268   2.649  17.102
 5169TIP3    H236923   1.168   2.535  17.110
 5170TIP3   OH236924   6.241   4.472   3.078
 5170TIP3    H136925   6.225   4.389   3.034
 5170TIP3    H236926   6.287   4.448   3.159
 5171TIP3   OH236927   0.521   4.076  10.866
 5171TIP3    H136928   0.529   4.156  10.814
 5171TIP3    H236929   0.595   4.022  10.839
 5172TIP3   OH236930   4.434   1.357  14.147
 5172TIP3    H136931   4.508   1.412  14.171
 5172TIP3    H236932   4.457   1.322  14.061
 5173TIP3   OH236933   6.628   5.103  10.246
 5173TIP3    H136934   6.568   5.123  10.318
 5173TIP3    H236935   6.709   5.149  10.269
 5174TIP3   OH236936   4.516   3.372   3.392
 5174TIP3    H136937   4.452   3.440   3.412
 5174TIP3    H236938   4.598   3.404   3.429
 5175TIP3   OH236939   6.403   3.051   2.707
 5175TIP3    H136940   6.334   3.112   2.732
 5175TIP3    H236941   6.452   3.035   2.788
 5176TIP3   OH236942   0.746   2.188  15.219
 5176TIP3    H136943   0.743   2.278  15.252
 5176TIP3    H236944   0.767   2.196  15.126
 5177TIP3   OH236945   2.930   1.361   3.778
 5177TIP3    H136946   2.916   1.270   3.753
 5177TIP3    H236947   2.972   1.356   3.864
 5178TIP3   OH236948   2.386   0.969  15.936
 5178TIP3    H136949   2.336   0.954  15.856
 5178TIP3    H236950   2.443   0.892  15.943
 5179TIP3   OH236951   5.100   5.852  15.144
 5179TIP3    H136952   5.022   5.838  15.198
 5179TIP3    H236953   5.082   5.932  15.096
 5180TIP3   OH236954   4.941   6.446   4.985
 5180TIP3    H136955   4.927   6.425   4.892
 5180TIP3    H236956   5.032   6.475   4.990
 5181TIP3   OH236957   0.593   0.135  16.707
 5181TIP3    H136958   0.532   0.205  16.732
 5181TIP3    H236959   0.615   0.092  16.790
 5182TIP3   OH236960   6.455   1.229   0.944
 5182TIP3    H136961   6.464   1.201   0.853
 5182TIP3    H236962   6.461   1.148   0.994
 5183TIP3   OH236963   4.219   1.572  14.954
 5183TIP3    H136964   4.165   1.633  14.904
 5183TIP3    H236965   4.280   1.627  15.002
 5184TIP3   OH236966   3.909   2.451   2.629
 5184TIP3    H136967   3.859   2.533   2.637
 5184TIP3    H236968   3.949   2.439   2.715
 5185TIP3   OH236969   1.227   4.936  10.596
 5185TIP3    H136970   1.282   4.926  10.674
 5185TIP3    H236971   1.235   4.851  10.551
 5186TIP3   OH236972   4.139   3.932  11.501
 5186TIP3    H136973   4.124   4.021  11.531
 5186TIP3    H236974   4.224   3.935  11.458
 5187TIP3   OH236975   4.553   2.947  14.256
 5187TIP3    H136976   4.635   2.913  14.221
 5187TIP3    H236977   4.565   2.944  14.351
 5188TIP3   OH236978   6.106   5.471  15.955
 5188TIP3    H136979   6.196   5.439  15.962
 5188TIP3    H236980   6.113   5.550  15.902
 5189TIP3   OH236981   1.741   4.410   0.419
 5189TIP3    H136982   1.804   4.338   0.414
 5189TIP3    H236983   1.787   4.484   0.379
 5190TIP3   OH236984   4.568   5.076   2.216
 5190TIP3    H136985   4.548   5.122   2.297
 5190TIP3    H236986   4.656   5.103   2.192
 5191TIP3   OH236987   2.319   2.558  16.901
 5191TIP3    H136988   2.275   2.527  16.822
 5191TIP3    H236989   2.363   2.480  16.936
 5192TIP3   OH236990   5.288   1.140   4.027
 5192TIP3    H136991   5.203   1.164   3.989
 5192TIP3    H236992   5.287   1.044   4.029
 5193TIP3   OH236993   4.069   3.897  12.207
 5193TIP3    H136994   4.111   3.888  12.122
 5193TIP3    H236995   4.024   3.981  12.203
 5194TIP3   OH236996   2.402   4.482   2.997
 5194TIP3    H136997   2.494   4.504   3.009
 5194TIP3    H236998   2.402   4.408   2.937
 5195TIP3   OH236999   0.053   2.896   3.641
 5195TIP3    H137000   0.117   2.825   3.630
 5195TIP3    H237001   0.062   2.921   3.733
 5196TIP3   OH237002   1.186   3.784   4.730
 5196TIP3    H137003   1.210   3.871   4.761
 5196TIP3    H237004   1.267   3.747   4.696
 5197TIP3   OH237005   2.247   6.540  12.356
 5197TIP3    H137006   2.196   6.474  12.403
 5197TIP3    H237007   2.183   6.609  12.336
 5198TIP3   OH237008   1.459   1.478  12.355
 5198TIP3    H137009   1.506   1.471  12.438
 5198TIP3    H237010   1.514   1.534  12.300
 5199TIP3   OH237011   6.340   3.171  12.746
 5199TIP3    H137012   6.370   3.136  12.662
 5199TIP3    H237013   6.412   3.154  12.806
 5200TIP3   OH237014   0.126   6.496   1.991
 5200TIP3    H137015   0.031   6.480   1.984
 5200TIP3    H237016   0.156   6.496   1.900
 5201TIP3   OH237017   5.829   0.089   0.682
 5201TIP3    H137018   5.779   0.170   0.676
 5201TIP3    H237019   5.766   0.022   0.708
 5202TIP3   OH237020   1.677   4.902  13.663
 5202TIP3    H137021   1.671   4.812  13.697
 5202TIP3    H237022   1.672   4.892  13.568
 5203TIP3   OH237023   5.125   0.014  14.447
 5203TIP3    H137024   5.128   0.097  14.398
 5203TIP3    H237025   5.215  -0.018  14.444
 5204TIP3   OH237026   3.710   5.043   1.708
 5204TIP3    H137027   3.646   4.997   1.653
 5204TIP3    H237028   3.670   5.043   1.795
 5205TIP3   OH237029   6.644   0.740  12.652
 5205TIP3    H137030   6.558   0.779  12.638
 5205TIP3    H237031   6.652   0.674  12.584
 5206TIP3   OH237032   0.594   1.093   1.131
 5206TIP3    H137033   0.521   1.112   1.073
 5206TIP3    H237034   0.672   1.117   1.080
 5207TIP3   OH237035   5.308   1.772   1.682
 5207TIP3    H137036   5.228   1.768   1.734
 5207TIP3    H237037   5.286   1.728   1.600
 5208TIP3   OH237038   6.635   0.854   5.444
 5208TIP3    H137039   6.580   0.922   5.405
 5208TIP3    H237040   6.577   0.809   5.506
 5209TIP3   OH237041   6.270   1.643   3.329
 5209TIP3    H137042   6.328   1.641   3.405
 5209TIP3    H237043   6.181   1.640   3.366
 5210TIP3   OH237044   2.910   3.343  13.279
 5210TIP3    H137045   2.922   3.436  13.261
 5210TIP3    H237046   2.978   3.300  13.226
 5211TIP3   OH237047   2.222   0.922   1.303
 5211TIP3    H137048   2.252   0.863   1.373
 5211TIP3    H237049   2.184   0.863   1.237
 5212TIP3   OH237050   0.138   1.506  14.974
 5212TIP3    H137051   0.081   1.441  15.015
 5212TIP3    H237052   0.192   1.538  15.046
 5213TIP3   OH237053   0.322   2.996  16.933
 5213TIP3    H137054   0.391   3.063  16.936
 5213TIP3    H237055   0.350   2.930  16.997
 5214TIP3   OH237056   2.173   0.917   4.463
 5214TIP3    H137057   2.114   0.850   4.498
 5214TIP3    H237058   2.192   0.888   4.374
 5215TIP3   OH237059   1.716   6.224  10.599
 5215TIP3    H137060   1.649   6.200  10.664
 5215TIP3    H237061   1.796   6.184  10.632
 5216TIP3   OH237062   5.606   3.372  10.675
 5216TIP3    H137063   5.611   3.373  10.770
 5216TIP3    H237064   5.638   3.286  10.649
 5217TIP3   OH237065   1.645   1.633   6.435
 5217TIP3    H137066   1.617   1.548   6.400
 5217TIP3    H237067   1.680   1.679   6.359
 5218TIP3   OH237068   3.427   1.461   0.671
 5218TIP3    H137069   3.342   1.419   0.656
 5218TIP3    H237070   3.413   1.518   0.746
 5219TIP3   OH237071   4.104   3.956  14.746
 5219TIP3    H137072   4.030   3.997  14.790
 5219TIP3    H237073   4.139   4.024  14.689
 5220TIP3   OH237074   6.633   0.505  11.549
 5220TIP3    H137075   6.603   0.481  11.462
 5220TIP3    H237076   6.600   0.594  11.562
 5221TIP3   OH237077   3.800   3.977   6.225
 5221TIP3    H137078   3.741   4.051   6.215
 5221TIP3    H237079   3.744   3.905   6.254
 5222TIP3   OH237080   2.160   2.402   3.814
 5222TIP3    H137081   2.222   2.419   3.742
 5222TIP3    H237082   2.209   2.425   3.893
 5223TIP3   OH237083   6.530   2.965  10.699
 5223TIP3    H137084   6.526   3.060  10.691
 5223TIP3    H237085   6.624   2.946  10.706
 5224TIP3   OH237086   4.222   2.532   1.880
 5224TIP3    H137087   4.132   2.538   1.913
 5224TIP3    H237088   4.276   2.557   1.955
 5225TIP3   OH237089   2.502   0.383  15.724
 5225TIP3    H137090   2.446   0.384  15.647
 5225TIP3    H237091   2.586   0.349  15.693
 5226TIP3   OH237092   3.648   0.857   2.510
 5226TIP3    H137093   3.590   0.925   2.474
 5226TIP3    H237094   3.707   0.836   2.437
 5227TIP3   OH237095   1.466   4.822  16.327
 5227TIP3    H137096   1.428   4.877  16.396
 5227TIP3    H237097   1.420   4.849  16.247
 5228TIP3   OH237098   5.127   1.498  14.423
 5228TIP3    H137099   5.166   1.441  14.357
 5228TIP3    H237100   5.088   1.439  14.487
 5229TIP3   OH237101   6.184   2.915   4.053
 5229TIP3    H137102   6.105   2.953   4.092
 5229TIP3    H237103   6.237   2.991   4.029
 5230TIP3   OH237104   5.390   3.543   3.640
 5230TIP3    H137105   5.450   3.526   3.713
 5230TIP3    H237106   5.312   3.493   3.661
 5231TIP3   OH237107   5.841   5.143  10.405
 5231TIP3    H137108   5.820   5.184  10.321
 5231TIP3    H237109   5.800   5.201  10.470
 5232TIP3   OH237110   3.045   2.889  12.771
 5232TIP3    H137111   3.080   2.893  12.681
 5232TIP3    H237112   2.991   2.810  12.772
 5233TIP3   OH237113   2.976   2.184  15.272
 5233TIP3    H137114   2.883   2.164  15.286
 5233TIP3    H237115   2.995   2.149  15.185
 5234TIP3   OH237116   2.340   2.980  14.332
 5234TIP3    H137117   2.345   2.948  14.422
 5234TIP3    H237118   2.385   2.913  14.280
 5235TIP3   OH237119   2.963   2.929  17.234
 5235TIP3    H137120   2.953   2.983  17.156
 5235TIP3    H237121   2.874   2.915  17.266
 5236TIP3   OH237122   2.450   3.470  11.827
 5236TIP3    H137123   2.515   3.534  11.800
 5236TIP3    H237124   2.387   3.467  11.755
 5237TIP3   OH237125   0.509   3.099   5.864
 5237TIP3    H137126   0.415   3.109   5.875
 5237TIP3    H237127   0.541   3.188   5.849
 5238TIP3   OH237128   5.026   4.797   5.574
 5238TIP3    H137129   4.933   4.810   5.589
 5238TIP3    H237130   5.046   4.715   5.619
 5239TIP3   OH237131   1.442   1.302  10.617
 5239TIP3    H137132   1.511   1.335  10.560
 5239TIP3    H237133   1.369   1.363  10.604
 5240TIP3   OH237134   6.134   4.483  16.124
 5240TIP3    H137135   6.192   4.449  16.191
 5240TIP3    H237136   6.174   4.456  16.041
 5241TIP3   OH237137   5.806   1.662   6.454
 5241TIP3    H137138   5.839   1.584   6.409
 5241TIP3    H237139   5.764   1.629   6.533
 5242TIP3   OH237140   0.928   6.238  15.935
 5242TIP3    H137141   0.851   6.213  15.884
 5242TIP3    H237142   0.975   6.301  15.880
 5243TIP3   OH237143   3.735   1.516  11.806
 5243TIP3    H137144   3.660   1.514  11.866
 5243TIP3    H237145   3.703   1.561  11.729
 5244TIP3   OH237146   3.309   2.705  11.715
 5244TIP3    H137147   3.260   2.719  11.796
 5244TIP3    H237148   3.373   2.776  11.713
 5245TIP3   OH237149   4.153   1.331  12.170
 5245TIP3    H137150   4.086   1.385  12.211
 5245TIP3    H237151   4.210   1.393  12.125
 5246TIP3   OH237152   0.381   5.085   2.342
 5246TIP3    H137153   0.428   5.118   2.265
 5246TIP3    H237154   0.307   5.036   2.307
 5247TIP3   OH237155   1.663   4.336  12.868
 5247TIP3    H137156   1.646   4.270  12.936
 5247TIP3    H237157   1.602   4.407  12.888
 5248TIP3   OH237158   0.544   4.673   2.437
 5248TIP3    H137159   0.456   4.657   2.404
 5248TIP3    H237160   0.541   4.762   2.473
 5249TIP3   OH237161   4.660   2.908   5.970
 5249TIP3    H137162   4.747   2.870   5.967
 5249TIP3    H237163   4.675   3.003   5.969
 5250TIP3   OH237164   5.455   4.360  13.684
 5250TIP3    H137165   5.368   4.355  13.722
 5250TIP3    H237166   5.449   4.310  13.603
 5251TIP3   OH237167   0.974   3.765   2.125
 5251TIP3    H137168   1.014   3.681   2.102
 5251TIP3    H237169   0.963   3.810   2.041
 5252TIP3   OH237170   6.105   4.769   1.569
 5252TIP3    H137171   6.173   4.783   1.503
 5252TIP3    H237172   6.105   4.850   1.621
 5253TIP3   OH237173   5.169   6.469  12.160
 5253TIP3    H137174   5.142   6.382  12.132
 5253TIP3    H237175   5.201   6.457  12.249
 5254TIP3   OH237176   5.854   5.013   4.466
 5254TIP3    H137177   5.801   5.051   4.536
 5254TIP3    H237178   5.934   5.066   4.465
 5255TIP3   OH237179   2.633   2.842   3.603
 5255TIP3    H137180   2.603   2.821   3.691
 5255TIP3    H237181   2.684   2.766   3.576
 5256TIP3   OH237182   2.206   3.479   1.426
 5256TIP3    H137183   2.234   3.465   1.517
 5256TIP3    H237184   2.111   3.490   1.432
 5257TIP3   OH237185   4.018   1.448  15.240
 5257TIP3    H137186   4.070   1.528  15.236
 5257TIP3    H237187   4.001   1.434  15.333
 5258TIP3   OH237188   0.847   0.311  16.739
 5258TIP3    H137189   0.820   0.402  16.744
 5258TIP3    H237190   0.765   0.262  16.745
 5259TIP3   OH237191   5.484   2.914  15.035
 5259TIP3    H137192   5.411   2.961  14.995
 5259TIP3    H237193   5.552   2.913  14.967
 5260TIP3   OH237194   5.996   5.797   4.154
 5260TIP3    H137195   6.038   5.712   4.166
 5260TIP3    H237196   6.030   5.851   4.226
 5261TIP3   OH237197   0.587   3.651  15.207
 5261TIP3    H137198   0.659   3.715  15.204
 5261TIP3    H237199   0.631   3.566  15.215
 5262TIP3   OH237200   4.559   1.431  12.806
 5262TIP3    H137201   4.513   1.456  12.887
 5262TIP3    H237202   4.636   1.383  12.837
 5263TIP3   OH237203   5.340   5.739  11.506
 5263TIP3    H137204   5.308   5.649  11.494
 5263TIP3    H237205   5.271   5.794  11.470
 5264TIP3   OH237206   3.891   2.868  17.165
 5264TIP3    H137207   3.800   2.868  17.193
 5264TIP3    H237208   3.901   2.788  17.114
 5265TIP3   OH237209   2.869   5.411   3.079
 5265TIP3    H137210   2.946   5.382   3.030
 5265TIP3    H237211   2.801   5.347   3.057
 5266TIP3   OH237212   4.161   1.843   4.564
 5266TIP3    H137213   4.153   1.938   4.557
 5266TIP3    H237214   4.126   1.823   4.651
 5267TIP3   OH237215   0.452   6.077  11.208
 5267TIP3    H137216   0.544   6.054  11.194
 5267TIP3    H237217   0.423   6.113  11.124
 5268TIP3   OH237218   2.504   5.871  10.612
 5268TIP3    H137219   2.582   5.912  10.649
 5268TIP3    H237220   2.501   5.785  10.653
 5269TIP3   OH237221   4.086   1.711  16.696
 5269TIP3    H137222   4.080   1.674  16.608
 5269TIP3    H237223   4.006   1.681  16.740
 5270TIP3   OH237224   5.663   1.303  12.878
 5270TIP3    H137225   5.666   1.359  12.955
 5270TIP3    H237226   5.635   1.362  12.807
 5271TIP3   OH237227   0.702   2.045  10.763
 5271TIP3    H137228   0.650   1.970  10.733
 5271TIP3    H237229   0.763   2.062  10.691
 5272TIP3   OH237230   4.634   2.403  16.653
 5272TIP3    H137231   4.631   2.330  16.591
 5272TIP3    H237232   4.726   2.430  16.653
 5273TIP3   OH237233   3.080   6.119   0.743
 5273TIP3    H137234   3.097   6.056   0.673
 5273TIP3    H237235   3.093   6.070   0.824
 5274TIP3   OH237236   2.676   2.252  15.823
 5274TIP3    H137237   2.591   2.255  15.778
 5274TIP3    H237238   2.738   2.231  15.753
 5275TIP3   OH237239   5.965   6.070  13.685
 5275TIP3    H137240   5.875   6.099  13.701
 5275TIP3    H237241   5.978   5.997  13.745
 5276TIP3   OH237242   1.293   4.954  14.373
 5276TIP3    H137243   1.304   4.915  14.459
 5276TIP3    H237244   1.377   4.940  14.329
 5277TIP3   OH237245   6.193   1.357   0.863
 5277TIP3    H137246   6.203   1.380   0.771
 5277TIP3    H237247   6.282   1.354   0.897
 5278TIP3   OH237248   2.425   6.373  13.209
 5278TIP3    H137249   2.404   6.429  13.283
 5278TIP3    H237250   2.407   6.427  13.132
 5279TIP3   OH237251   0.338   6.675   4.553
 5279TIP3    H137252   0.274   6.603   4.549
 5279TIP3    H237253   0.299   6.738   4.613
 5280TIP3   OH237254   0.742   3.058  16.816
 5280TIP3    H137255   0.724   2.993  16.748
 5280TIP3    H237256   0.826   3.096  16.791
 5281TIP3   OH237257   1.682   2.672  16.944
 5281TIP3    H137258   1.734   2.752  16.938
 5281TIP3    H237259   1.722   2.623  17.016
 5282TIP3   OH237260   0.254   4.614  15.946
 5282TIP3    H137261   0.167   4.614  15.986
 5282TIP3    H237262   0.248   4.551  15.873
 5283TIP3   OH237263   0.227   4.793  12.533
 5283TIP3    H137264   0.201   4.869  12.585
 5283TIP3    H237265   0.221   4.823  12.442
 5284TIP3   OH237266   4.068   1.327  11.436
 5284TIP3    H137267   4.069   1.331  11.340
 5284TIP3    H237268   4.036   1.413  11.464
 5285TIP3   OH237269   0.031   3.702   6.522
 5285TIP3    H137270   0.069   3.743   6.444
 5285TIP3    H237271   0.080   3.620   6.532
 5286TIP3   OH237272   1.399   3.915   1.824
 5286TIP3    H137273   1.494   3.927   1.818
 5286TIP3    H237274   1.388   3.845   1.889
 5287TIP3   OH237275   4.639   1.768   3.300
 5287TIP3    H137276   4.671   1.681   3.276
 5287TIP3    H237277   4.606   1.758   3.389
 5288TIP3   OH237278   5.296   3.418  16.330
 5288TIP3    H137279   5.226   3.482  16.321
 5288TIP3    H237280   5.309   3.409  16.424
 5289TIP3   OH237281   2.123   2.935   0.912
 5289TIP3    H137282   2.194   2.877   0.883
 5289TIP3    H237283   2.047   2.877   0.921
 5290TIP3   OH237284   0.675   6.175  16.909
 5290TIP3    H137285   0.646   6.224  16.832
 5290TIP3    H237286   0.594   6.142  16.948
 5291TIP3   OH237287   4.457   5.882   5.111
 5291TIP3    H137288   4.518   5.899   5.182
 5291TIP3    H237289   4.403   5.810   5.141
 5292TIP3   OH237290   0.791   1.122   0.659
 5292TIP3    H137291   0.757   1.035   0.680
 5292TIP3    H237292   0.863   1.135   0.721
 5293TIP3   OH237293   4.951   6.035  13.596
 5293TIP3    H137294   5.006   6.113  13.587
 5293TIP3    H237295   4.894   6.038  13.519
 5294TIP3   OH237296   0.455   4.886   0.349
 5294TIP3    H137297   0.534   4.831   0.351
 5294TIP3    H237298   0.389   4.832   0.306
 5295TIP3   OH237299   0.230   2.907  12.245
 5295TIP3    H137300   0.283   2.870  12.315
 5295TIP3    H237301   0.247   2.851  12.169
 5296TIP3   OH237302   2.359   0.814  11.156
 5296TIP3    H137303   2.448   0.850  11.152
 5296TIP3    H237304   2.326   0.821  11.066
 5297TIP3   OH237305   2.037   6.773   5.205
 5297TIP3    H137306   1.942   6.766   5.196
 5297TIP3    H237307   2.070   6.689   5.173
 5298TIP3   OH237308   3.019   1.538  12.393
 5298TIP3    H137309   3.000   1.444  12.390
 5298TIP3    H237310   2.967   1.571  12.466
 5299TIP3   OH237311   0.144   4.741  11.529
 5299TIP3    H137312   0.113   4.824  11.565
 5299TIP3    H237313   0.093   4.729  11.449
 5300TIP3   OH237314   5.483   3.680   3.895
 5300TIP3    H137315   5.517   3.590   3.895
 5300TIP3    H237316   5.546   3.729   3.842
 5301TIP3   OH237317   2.913   3.197  12.958
 5301TIP3    H137318   2.843   3.241  13.006
 5301TIP3    H237319   2.867   3.141  12.895
 5302TIP3   OH237320   2.190   2.963  11.288
 5302TIP3    H137321   2.248   2.998  11.219
 5302TIP3    H237322   2.148   3.041  11.325
 5303TIP3   OH237323   1.695   2.533  14.862
 5303TIP3    H137324   1.753   2.566  14.794
 5303TIP3    H237325   1.753   2.496  14.927
 5304TIP3   OH237326   0.373   6.331  14.889
 5304TIP3    H137327   0.301   6.310  14.949
 5304TIP3    H237328   0.434   6.382  14.942
 5305TIP3   OH237329   4.501   5.244   2.485
 5305TIP3    H137330   4.557   5.320   2.501
 5305TIP3    H237331   4.418   5.266   2.528
 5306TIP3   OH237332   3.983   4.424   6.930
 5306TIP3    H137333   3.894   4.452   6.910
 5306TIP3    H237334   4.040   4.482   6.879
 5307TIP3   OH237335   5.398   3.307  13.703
 5307TIP3    H137336   5.334   3.300  13.632
 5307TIP3    H237337   5.423   3.399  13.704
 5308TIP3   OH237338   6.700   2.552   4.280
 5308TIP3    H137339   6.740   2.477   4.323
 5308TIP3    H237340   6.681   2.521   4.191
 5309TIP3   OH237341   2.909   0.038  12.688
 5309TIP3    H137342   2.857  -0.039  12.711
 5309TIP3    H237343   2.993   0.003  12.659
 5310TIP3   OH237344   5.591   3.181  12.852
 5310TIP3    H137345   5.644   3.169  12.930
 5310TIP3    H237346   5.509   3.219  12.885
 5311TIP3   OH237347   3.671   3.138  14.412
 5311TIP3    H137348   3.611   3.077  14.454
 5311TIP3    H237349   3.680   3.209  14.475
 5312TIP3   OH237350   4.953   4.861   1.405
 5312TIP3    H137351   4.949   4.860   1.309
 5312TIP3    H237352   4.871   4.818   1.432
 5313TIP3   OH237353   6.152   6.265  11.017
 5313TIP3    H137354   6.176   6.212  10.942
 5313TIP3    H237355   6.209   6.341  11.013
 5314TIP3   OH237356   5.548   3.582  17.055
 5314TIP3    H137357   5.538   3.675  17.037
 5314TIP3    H237358   5.525   3.573  17.148
 5315TIP3   OH237359   4.249   3.432  12.183
 5315TIP3    H137360   4.195   3.487  12.127
 5315TIP3    H237361   4.312   3.493  12.223
 5316TIP3   OH237362   2.344   3.191  14.681
 5316TIP3    H137363   2.356   3.105  14.640
 5316TIP3    H237364   2.251   3.196  14.701
 5317TIP3   OH237365   1.162   1.172   3.124
 5317TIP3    H137366   1.087   1.202   3.176
 5317TIP3    H237367   1.208   1.253   3.100
 5318TIP3   OH237368   3.964   5.637  12.125
 5318TIP3    H137369   3.994   5.713  12.175
 5318TIP3    H237370   4.030   5.570  12.143
 5319TIP3   OH237371   3.535   6.159   1.141
 5319TIP3    H137372   3.625   6.130   1.156
 5319TIP3    H237373   3.483   6.111   1.205
 5320TIP3   OH237374   6.046   3.182  12.277
 5320TIP3    H137375   5.958   3.203  12.310
 5320TIP3    H237376   6.078   3.265  12.240
 5321TIP3   OH237377   2.314   0.050   1.066
 5321TIP3    H137378   2.244   0.024   1.006
 5321TIP3    H237379   2.276   0.122   1.117
 5322TIP3   OH237380   1.106   5.747  12.937
 5322TIP3    H137381   1.072   5.757  12.848
 5322TIP3    H237382   1.117   5.652  12.947
 5323TIP3   OH237383   5.082   3.813  13.128
 5323TIP3    H137384   5.175   3.835  13.114
 5323TIP3    H237385   5.066   3.836  13.220
 5324TIP3   OH237386   3.849   0.769   1.032
 5324TIP3    H137387   3.814   0.730   1.112
 5324TIP3    H237388   3.926   0.716   1.011
 5325TIP3   OH237389   6.245   2.077   1.612
 5325TIP3    H137390   6.176   2.074   1.546
 5325TIP3    H237391   6.322   2.042   1.567
 5326TIP3   OH237392   3.517   1.315   1.391
 5326TIP3    H137393   3.533   1.264   1.312
 5326TIP3    H237394   3.579   1.280   1.456
 5327TIP3   OH237395   3.491   0.614   0.094
 5327TIP3    H137396   3.475   0.616   0.188
 5327TIP3    H237397   3.574   0.661   0.083
 5328TIP3   OH237398   5.099   2.103  12.938
 5328TIP3    H137399   5.020   2.089  12.886
 5328TIP3    H237400   5.105   2.026  12.994
 5329TIP3   OH237401   6.065   5.983   4.332
 5329TIP3    H137402   5.976   6.017   4.343
 5329TIP3    H237403   6.121   6.049   4.373
 5330TIP3   OH237404   3.329   1.817   5.495
 5330TIP3    H137405   3.265   1.888   5.501
 5330TIP3    H237406   3.414   1.861   5.495
 5331TIP3   OH237407   2.690   6.175  13.577
 5331TIP3    H137408   2.746   6.100  13.559
 5331TIP3    H237409   2.622   6.171  13.510
 5332TIP3   OH237410   3.524   6.075   4.088
 5332TIP3    H137411   3.473   6.155   4.099
 5332TIP3    H237412   3.566   6.061   4.173
 5333TIP3   OH237413   5.109   1.407  12.236
 5333TIP3    H137414   5.148   1.356  12.165
 5333TIP3    H237415   5.183   1.435  12.289
 5334TIP3   OH237416   5.406   6.421   0.741
 5334TIP3    H137417   5.403   6.502   0.690
 5334TIP3    H237418   5.366   6.444   0.825
 5335TIP3   OH237419   6.116   5.160   2.171
 5335TIP3    H137420   6.154   5.237   2.130
 5335TIP3    H237421   6.045   5.134   2.113
 5336TIP3   OH237422   1.939   1.841   2.153
 5336TIP3    H137423   2.012   1.826   2.094
 5336TIP3    H237424   1.867   1.869   2.096
 5337TIP3   OH237425   0.223   1.321   5.356
 5337TIP3    H137426   0.218   1.246   5.297
 5337TIP3    H237427   0.141   1.319   5.405
 5338TIP3   OH237428   2.137   1.879   0.850
 5338TIP3    H137429   2.094   1.866   0.766
 5338TIP3    H237430   2.217   1.826   0.844
 5339TIP3   OH237431   2.527   6.374  14.083
 5339TIP3    H137432   2.536   6.437  14.155
 5339TIP3    H237433   2.526   6.428  14.004
 5340TIP3   OH237434   1.450   5.386  16.799
 5340TIP3    H137435   1.377   5.435  16.761
 5340TIP3    H237436   1.468   5.316  16.737
 5341TIP3   OH237437   1.098   2.722  14.714
 5341TIP3    H137438   1.140   2.637  14.713
 5341TIP3    H237439   1.095   2.746  14.807
 5342TIP3   OH237440   6.304   0.468  10.629
 5342TIP3    H137441   6.302   0.543  10.689
 5342TIP3    H237442   6.395   0.439  10.631
 5343TIP3   OH237443   0.941   3.579   1.781
 5343TIP3    H137444   0.867   3.529   1.816
 5343TIP3    H237445   0.902   3.659   1.748
 5344TIP3   OH237446   3.684   6.368  15.939
 5344TIP3    H137447   3.749   6.402  16.001
 5344TIP3    H237448   3.609   6.346  15.994
 5345TIP3   OH237449   0.401   0.290   0.091
 5345TIP3    H137450   0.374   0.327   0.007
 5345TIP3    H237451   0.488   0.255   0.074
 5346TIP3   OH237452   0.855   2.129  10.556
 5346TIP3    H137453   0.946   2.129  10.526
 5346TIP3    H237454   0.805   2.159  10.481
 5347TIP3   OH237455   3.969   2.485  10.954
 5347TIP3    H137456   3.903   2.464  10.888
 5347TIP3    H237457   3.925   2.546  11.014
 5348TIP3   OH237458   4.833   1.226  13.459
 5348TIP3    H137459   4.838   1.305  13.513
 5348TIP3    H237460   4.892   1.242  13.386
 5349TIP3   OH237461   2.812   3.318   0.690
 5349TIP3    H137462   2.819   3.238   0.742
 5349TIP3    H237463   2.762   3.378   0.745
 5350TIP3   OH237464   4.684   1.713   3.757
 5350TIP3    H137465   4.767   1.736   3.714
 5350TIP3    H237466   4.701   1.727   3.850
 5351TIP3   OH237467   3.224   4.714   5.895
 5351TIP3    H137468   3.147   4.710   5.950
 5351TIP3    H237469   3.211   4.646   5.829
 5352TIP3   OH237470   4.984   6.519  14.433
 5352TIP3    H137471   5.071   6.560  14.434
 5352TIP3    H237472   4.931   6.579  14.380
 5353TIP3   OH237473   6.531   1.252   3.077
 5353TIP3    H137474   6.512   1.166   3.040
 5353TIP3    H237475   6.601   1.287   3.023
 5354TIP3   OH237476   4.407   6.032  16.135
 5354TIP3    H137477   4.480   6.075  16.180
 5354TIP3    H237478   4.425   5.939  16.145
 5355TIP3   OH237479   3.802   0.745   4.724
 5355TIP3    H137480   3.732   0.738   4.658
 5355TIP3    H237481   3.842   0.658   4.726
 5356TIP3   OH237482   5.805   3.462   2.690
 5356TIP3    H137483   5.797   3.375   2.650
 5356TIP3    H237484   5.898   3.482   2.687
 5357TIP3   OH237485   0.216   1.519  13.004
 5357TIP3    H137486   0.283   1.585  13.020
 5357TIP3    H237487   0.160   1.523  13.081
 5358TIP3   OH237488   1.140   0.907  11.980
 5358TIP3    H137489   1.191   0.898  11.899
 5358TIP3    H237490   1.067   0.964  11.956
 5359TIP3   OH237491   6.690   2.573   4.977
 5359TIP3    H137492   6.658   2.508   5.041
 5359TIP3    H237493   6.651   2.545   4.894
 5360TIP3   OH237494   0.859   4.402  11.651
 5360TIP3    H137495   0.940   4.451  11.669
 5360TIP3    H237496   0.790   4.455  11.691
 5361TIP3   OH237497   0.574   1.379   4.144
 5361TIP3    H137498   0.511   1.450   4.151
 5361TIP3    H237499   0.535   1.307   4.193
 5362TIP3   OH237500   4.642   4.423   4.221
 5362TIP3    H137501   4.571   4.436   4.159
 5362TIP3    H237502   4.695   4.352   4.185
 5363TIP3   OH237503   6.566   6.069  16.476
 5363TIP3    H137504   6.536   6.143  16.422
 5363TIP3    H237505   6.555   6.100  16.566
 5364TIP3   OH237506   1.299   2.188   4.094
 5364TIP3    H137507   1.217   2.154   4.130
 5364TIP3    H237508   1.363   2.119   4.110
 5365TIP3   OH237509   1.778   1.285   5.558
 5365TIP3    H137510   1.858   1.305   5.510
 5365TIP3    H237511   1.719   1.246   5.494
 5366TIP3   OH237512   4.104   2.933   3.783
 5366TIP3    H137513   4.160   2.869   3.738
 5366TIP3    H237514   4.151   2.953   3.863
 5367TIP3   OH237515   6.396   2.716   1.384
 5367TIP3    H137516   6.465   2.705   1.319
 5367TIP3    H237517   6.316   2.725   1.333
 5368TIP3   OH237518   2.610   2.891  12.089
 5368TIP3    H137519   2.662   2.831  12.035
 5368TIP3    H237520   2.519   2.863  12.075
 5369TIP3   OH237521   0.893   0.704  15.787
 5369TIP3    H137522   0.963   0.701  15.722
 5369TIP3    H237523   0.812   0.699  15.735
 5370TIP3   OH237524   5.254   5.398   3.442
 5370TIP3    H137525   5.340   5.366   3.471
 5370TIP3    H237526   5.263   5.494   3.444
 5371TIP3   OH237527   6.636   6.058   6.005
 5371TIP3    H137528   6.642   6.147   6.041
 5371TIP3    H237529   6.586   6.009   6.070
 5372TIP3   OH237530   0.474   1.055  15.192
 5372TIP3    H137531   0.494   0.967  15.226
 5372TIP3    H237532   0.401   1.085  15.245
 5373TIP3   OH237533   0.234   0.205  12.112
 5373TIP3    H137534   0.150   0.250  12.116
 5373TIP3    H237535   0.255   0.185  12.203
 5374TIP3   OH237536   4.447   5.303   0.859
 5374TIP3    H137537   4.433   5.216   0.821
 5374TIP3    H237538   4.359   5.335   0.878
 5375TIP3   OH237539   0.783   6.747  14.411
 5375TIP3    H137540   0.711   6.689  14.437
 5375TIP3    H237541   0.843   6.746  14.485
 5376TIP3   OH237542   0.154   2.395  13.427
 5376TIP3    H137543   0.077   2.338  13.432
 5376TIP3    H237544   0.227   2.341  13.457
 5377TIP3   OH237545   3.965   0.444   1.490
 5377TIP3    H137546   3.914   0.456   1.410
 5377TIP3    H237547   3.904   0.462   1.561
 5378TIP3   OH237548   4.806   2.322  14.743
 5378TIP3    H137549   4.781   2.399  14.692
 5378TIP3    H237550   4.723   2.288  14.777
 5379TIP3   OH237551   5.909   6.411   5.120
 5379TIP3    H137552   5.909   6.332   5.175
 5379TIP3    H237553   5.825   6.407   5.073
 5380TIP3   OH237554   0.041   2.409   1.394
 5380TIP3    H137555   0.100   2.385   1.466
 5380TIP3    H237556  -0.046   2.411   1.435
 5381TIP3   OH237557   4.142   2.708  11.898
 5381TIP3    H137558   4.158   2.690  11.805
 5381TIP3    H237559   4.048   2.691  11.910
 5382TIP3   OH237560   3.334   5.397  13.665
 5382TIP3    H137561   3.396   5.418  13.595
 5382TIP3    H237562   3.359   5.455  13.737
 5383TIP3   OH237563   4.196   5.403   2.916
 5383TIP3    H137564   4.165   5.484   2.957
 5383TIP3    H237565   4.281   5.427   2.879
 5384TIP3   OH237566   1.360   1.931  15.768
 5384TIP3    H137567   1.321   1.873  15.833
 5384TIP3    H237568   1.371   1.877  15.690
 5385TIP3   OH237569   1.902   5.128   3.035
 5385TIP3    H137570   1.978   5.181   3.060
 5385TIP3    H237571   1.876   5.084   3.116
 5386TIP3   OH237572   2.244   6.066  16.974
 5386TIP3    H137573   2.210   6.099  17.057
 5386TIP3    H237574   2.339   6.080  16.981
 5387TIP3   OH237575   0.872   4.397  17.008
 5387TIP3    H137576   0.967   4.384  17.005
 5387TIP3    H237577   0.860   4.489  16.986
 5388TIP3   OH237578   3.506   2.756  10.548
 5388TIP3    H137579   3.529   2.677  10.597
 5388TIP3    H237580   3.418   2.778  10.579
 5389TIP3   OH237581   2.721   5.940   5.102
 5389TIP3    H137582   2.731   5.975   5.014
 5389TIP3    H237583   2.749   5.848   5.094
 5390TIP3   OH237584   2.815   1.789   3.926
 5390TIP3    H137585   2.815   1.811   3.833
 5390TIP3    H237586   2.788   1.697   3.929
 5391TIP3   OH237587   4.304   3.691   0.335
 5391TIP3    H137588   4.248   3.654   0.403
 5391TIP3    H237589   4.252   3.682   0.254
 5392TIP3   OH237590   3.867   3.775   3.978
 5392TIP3    H137591   3.903   3.743   4.060
 5392TIP3    H237592   3.865   3.870   3.988
 5393TIP3   OH237593   2.005   2.288  11.110
 5393TIP3    H137594   2.067   2.345  11.156
 5393TIP3    H237595   2.056   2.251  11.038
 5394TIP3   OH237596   1.952   0.677   0.750
 5394TIP3    H137597   1.991   0.611   0.809
 5394TIP3    H237598   1.910   0.625   0.681
 5395TIP3   OH237599   0.235   4.977  14.389
 5395TIP3    H137600   0.195   5.011  14.469
 5395TIP3    H237601   0.169   4.919  14.352
 5396TIP3   OH237602   0.986   5.753  13.795
 5396TIP3    H137603   0.964   5.735  13.704
 5396TIP3    H237604   0.905   5.787  13.833
 5397TIP3   OH237605   6.203   1.766  11.721
 5397TIP3    H137606   6.293   1.758  11.753
 5397TIP3    H237607   6.149   1.741  11.796
 5398TIP3   OH237608   1.197   4.138  17.041
 5398TIP3    H137609   1.244   4.202  16.988
 5398TIP3    H237610   1.139   4.094  16.978
 5399TIP3   OH237611   4.071   0.364  13.087
 5399TIP3    H137612   4.036   0.338  13.002
 5399TIP3    H237613   4.033   0.450  13.104
 5400TIP3   OH237614   2.247   0.640   2.737
 5400TIP3    H137615   2.272   0.548   2.735
 5400TIP3    H237616   2.209   0.653   2.824
 5401TIP3   OH237617   3.947   0.267   0.367
 5401TIP3    H137618   3.854   0.270   0.346
 5401TIP3    H237619   3.980   0.353   0.342
 5402TIP3   OH237620   5.341   1.872  16.623
 5402TIP3    H137621   5.294   1.807  16.675
 5402TIP3    H237622   5.430   1.871  16.659
 5403TIP3   OH237623   4.893   6.748  15.324
 5403TIP3    H137624   4.959   6.767  15.390
 5403TIP3    H237625   4.944   6.724  15.246
 5404TIP3   OH237626   4.484   1.983   2.088
 5404TIP3    H137627   4.563   1.973   2.035
 5404TIP3    H237628   4.461   1.893   2.112
 5405TIP3   OH237629   3.058   4.089   4.482
 5405TIP3    H137630   2.993   4.092   4.552
 5405TIP3    H237631   3.015   4.038   4.413
 5406TIP3   OH237632   4.086   1.721  15.263
 5406TIP3    H137633   4.168   1.741  15.218
 5406TIP3    H237634   4.020   1.771  15.216
 5407TIP3   OH237635   4.360   6.068  12.390
 5407TIP3    H137636   4.429   6.134  12.394
 5407TIP3    H237637   4.306   6.095  12.316
 5408TIP3   OH237638   1.101   3.844   3.107
 5408TIP3    H137639   1.073   3.758   3.075
 5408TIP3    H237640   1.080   3.904   3.035
 5409TIP3   OH237641   2.751   2.021  10.661
 5409TIP3    H137642   2.660   2.010  10.691
 5409TIP3    H237643   2.749   2.104  10.613
 5410TIP3   OH237644   4.070   3.778   3.434
 5410TIP3    H137645   3.975   3.776   3.422
 5410TIP3    H237646   4.085   3.845   3.501
 5411TIP3   OH237647   0.946   4.584   6.245
 5411TIP3    H137648   0.898   4.502   6.260
 5411TIP3    H237649   1.014   4.586   6.312
 5412TIP3   OH237650   1.290   5.692   0.732
 5412TIP3    H137651   1.307   5.676   0.640
 5412TIP3    H237652   1.309   5.609   0.775
 5413TIP3   OH237653   4.038   3.465   4.357
 5413TIP3    H137654   3.962   3.452   4.414
 5413TIP3    H237655   4.030   3.397   4.290
 5414TIP3   OH237656   5.072   2.140   2.304
 5414TIP3    H137657   5.115   2.218   2.267
 5414TIP3    H237658   5.098   2.069   2.246
 5415TIP3   OH237659   2.749   6.663   3.828
 5415TIP3    H137660   2.763   6.754   3.852
 5415TIP3    H237661   2.656   6.648   3.844
 5416TIP3   OH237662   6.392   4.259   2.134
 5416TIP3    H137663   6.359   4.180   2.092
 5416TIP3    H237664   6.313   4.306   2.162
 5417TIP3   OH237665   0.715   4.302  14.220
 5417TIP3    H137666   0.737   4.295  14.313
 5417TIP3    H237667   0.750   4.386  14.192
 5418TIP3   OH237668   2.052   6.749  14.897
 5418TIP3    H137669   1.999   6.670  14.909
 5418TIP3    H237670   2.049   6.766  14.803
 5419TIP3   OH237671   6.696   3.840   0.454
 5419TIP3    H137672   6.739   3.787   0.521
 5419TIP3    H237673   6.715   3.931   0.480
 5420TIP3   OH237674   4.380   4.303   6.231
 5420TIP3    H137675   4.363   4.369   6.298
 5420TIP3    H237676   4.294   4.285   6.193
 5421TIP3   OH237677   2.904   5.027   5.903
 5421TIP3    H137678   2.904   4.981   5.987
 5421TIP3    H237679   2.991   5.009   5.867
 5422TIP3   OH237680   3.071   1.726   4.790
 5422TIP3    H137681   3.047   1.641   4.752
 5422TIP3    H237682   3.156   1.746   4.751
 5423TIP3   OH237683   0.982   2.373   2.820
 5423TIP3    H137684   0.947   2.384   2.732
 5423TIP3    H237685   1.074   2.398   2.813
 5424TIP3   OH237686   5.252   2.326  16.032
 5424TIP3    H137687   5.191   2.345  16.103
 5424TIP3    H237688   5.248   2.403  15.975
 5425TIP3   OH237689   6.184   4.234  14.243
 5425TIP3    H137690   6.267   4.199  14.209
 5425TIP3    H237691   6.117   4.191  14.190
 5426TIP3   OH237692   2.064   3.667   3.079
 5426TIP3    H137693   2.004   3.734   3.045
 5426TIP3    H237694   2.091   3.700   3.165
 5427TIP3   OH237695   3.111   4.827  13.587
 5427TIP3    H137696   3.130   4.916  13.617
 5427TIP3    H237697   3.052   4.791  13.654
 5428TIP3   OH237698   5.781   6.295  15.570
 5428TIP3    H137699   5.770   6.363  15.504
 5428TIP3    H237700   5.749   6.215  15.527
 5429TIP3   OH237701   1.365   1.276   0.810
 5429TIP3    H137702   1.386   1.369   0.819
 5429TIP3    H237703   1.424   1.244   0.741
 5430TIP3   OH237704   5.822   0.764   0.450
 5430TIP3    H137705   5.750   0.705   0.471
 5430TIP3    H237706   5.863   0.725   0.373
 5431TIP3   OH237707   0.608   6.535   1.042
 5431TIP3    H137708   0.555   6.590   0.984
 5431TIP3    H237709   0.644   6.467   0.985
 5432TIP3   OH237710   6.047   4.804   5.282
 5432TIP3    H137711   6.079   4.714   5.272
 5432TIP3    H237712   5.951   4.796   5.279
 5433TIP3   OH237713   6.468   4.162  12.876
 5433TIP3    H137714   6.547   4.199  12.836
 5433TIP3    H237715   6.472   4.189  12.968
 5434TIP3   OH237716   3.318   5.290   2.767
 5434TIP3    H137717   3.403   5.245   2.764
 5434TIP3    H237718   3.296   5.292   2.860
 5435TIP3   OH237719   6.299   6.619   3.368
 5435TIP3    H137720   6.306   6.638   3.461
 5435TIP3    H237721   6.352   6.687   3.325
 5436TIP3   OH237722   6.509   5.938  14.527
 5436TIP3    H137723   6.552   5.937  14.441
 5436TIP3    H237724   6.581   5.929  14.590
 5437TIP3   OH237725   5.365   5.363   0.162
 5437TIP3    H137726   5.406   5.278   0.175
 5437TIP3    H237727   5.414   5.422   0.220
 5438TIP3   OH237728   0.788   2.573  11.211
 5438TIP3    H137729   0.850   2.505  11.185
 5438TIP3    H237730   0.737   2.534  11.282
 5439TIP3   OH237731   1.799   4.144   0.170
 5439TIP3    H137732   1.796   4.071   0.232
 5439TIP3    H237733   1.892   4.163   0.160
 5440TIP3   OH237734   2.042   5.797  12.579
 5440TIP3    H137735   2.107   5.774  12.512
 5440TIP3    H237736   1.964   5.821  12.529
 5441TIP3   OH237737   6.187   3.638  11.310
 5441TIP3    H137738   6.269   3.659  11.266
 5441TIP3    H237739   6.121   3.688  11.262
 5442TIP3   OH237740   0.531   1.399  12.196
 5442TIP3    H137741   0.538   1.383  12.290
 5442TIP3    H237742   0.588   1.332  12.156
 5443TIP3   OH237743   1.654   6.027   2.061
 5443TIP3    H137744   1.581   6.005   2.004
 5443TIP3    H237745   1.671   6.119   2.044
 5444TIP3   OH237746   1.264   4.366  12.962
 5444TIP3    H137747   1.226   4.403  13.041
 5444TIP3    H237748   1.215   4.285  12.946
 5445TIP3   OH237749   1.380   1.743  14.180
 5445TIP3    H137750   1.290   1.741  14.213
 5445TIP3    H237751   1.417   1.823  14.218
 5446TIP3   OH237752   1.642   2.620   2.605
 5446TIP3    H137753   1.632   2.601   2.698
 5446TIP3    H237754   1.553   2.622   2.571
 5447TIP3   OH237755   5.292   3.065  12.037
 5447TIP3    H137756   5.205   3.099  12.055
 5447TIP3    H237757   5.278   2.977  12.002
 5448TIP3   OH237758   6.033   3.968  13.754
 5448TIP3    H137759   6.097   4.019  13.703
 5448TIP3    H237760   5.949   3.985  13.712
 5449TIP3   OH237761   5.278   2.377   5.552
 5449TIP3    H137762   5.312   2.374   5.642
 5449TIP3    H237763   5.197   2.428   5.559
 5450TIP3   OH237764   6.638   5.688  12.519
 5450TIP3    H137765   6.656   5.620  12.454
 5450TIP3    H237766   6.554   5.663  12.557
 5451TIP3   OH237767   2.640   4.295  14.414
 5451TIP3    H137768   2.571   4.232  14.391
 5451TIP3    H237769   2.703   4.289  14.342
 5452TIP3   OH237770   1.934   6.545   5.494
 5452TIP3    H137771   1.961   6.454   5.479
 5452TIP3    H237772   1.839   6.539   5.507
 5453TIP3   OH237773   6.708   0.514   3.945
 5453TIP3    H137774   6.778   0.564   3.987
 5453TIP3    H237775   6.628   0.564   3.965
 5454TIP3   OH237776   4.661   1.023  13.028
 5454TIP3    H137777   4.614   1.099  13.064
 5454TIP3    H237778   4.754   1.045  13.041
 5455TIP3   OH237779   1.649   3.388   5.463
 5455TIP3    H137780   1.585   3.320   5.485
 5455TIP3    H237781   1.719   3.341   5.417
 5456TIP3   OH237782   6.454   6.282  12.997
 5456TIP3    H137783   6.410   6.333  13.065
 5456TIP3    H237784   6.521   6.233  13.045
 5457TIP3   OH237785   0.635   3.962  15.562
 5457TIP3    H137786   0.618   3.983  15.470
 5457TIP3    H237787   0.548   3.954  15.601
 5458TIP3   OH237788   0.997   5.334  16.404
 5458TIP3    H137789   1.003   5.334  16.499
 5458TIP3    H237790   0.904   5.349  16.386
 5459TIP3   OH237791   6.506   2.671   6.700
 5459TIP3    H137792   6.495   2.578   6.678
 5459TIP3    H237793   6.502   2.673   6.796
 5460TIP3   OH237794   5.575   4.873   3.108
 5460TIP3    H137795   5.502   4.812   3.118
 5460TIP3    H237796   5.535   4.952   3.071
 5461TIP3   OH237797   1.285   3.112  12.824
 5461TIP3    H137798   1.377   3.138  12.815
 5461TIP3    H237799   1.275   3.037  12.766
 5462TIP3   OH237800   1.819   0.301   5.817
 5462TIP3    H137801   1.848   0.379   5.864
 5462TIP3    H237802   1.748   0.332   5.760
 5463TIP3   OH237803   1.384   3.610   3.608
 5463TIP3    H137804   1.348   3.581   3.692
 5463TIP3    H237805   1.365   3.538   3.548
 5464TIP3   OH237806   1.130   5.809   4.052
 5464TIP3    H137807   1.059   5.752   4.081
 5464TIP3    H237808   1.119   5.815   3.957
 5465TIP3   OH237809   0.071   6.520   0.311
 5465TIP3    H137810   0.059   6.446   0.251
 5465TIP3    H237811   0.164   6.521   0.330
 5466TIP3   OH237812   5.213   2.370   2.194
 5466TIP3    H137813   5.146   2.438   2.186
 5466TIP3    H237814   5.274   2.405   2.259
 5467TIP3   OH237815   5.685   0.424   4.320
 5467TIP3    H137816   5.750   0.384   4.378
 5467TIP3    H237817   5.694   0.376   4.237
 5468TIP3   OH237818   3.223   4.849  10.534
 5468TIP3    H137819   3.210   4.760  10.565
 5468TIP3    H237820   3.135   4.883  10.520
 5469TIP3   OH237821   0.123   5.784  14.515
 5469TIP3    H137822   0.196   5.810  14.570
 5469TIP3    H237823   0.100   5.863  14.466
 5470TIP3   OH237824   4.734   4.906   3.317
 5470TIP3    H137825   4.746   4.842   3.388
 5470TIP3    H237826   4.793   4.978   3.340
 5471TIP3   OH237827   1.197   1.015  15.297
 5471TIP3    H137828   1.190   1.018  15.393
 5471TIP3    H237829   1.176   0.924  15.275
 5472TIP3   OH237830   3.970   2.836  12.942
 5472TIP3    H137831   3.970   2.741  12.935
 5472TIP3    H237832   3.988   2.867  12.853
 5473TIP3   OH237833   5.506   2.212   3.896
 5473TIP3    H137834   5.437   2.177   3.952
 5473TIP3    H237835   5.584   2.212   3.951
 5474TIP3   OH237836   3.064   4.551   4.243
 5474TIP3    H137837   3.081   4.474   4.297
 5474TIP3    H237838   3.008   4.606   4.297
 5475TIP3   OH237839   1.804   6.574   6.182
 5475TIP3    H137840   1.798   6.596   6.089
 5475TIP3    H237841   1.731   6.621   6.222
 5476TIP3   OH237842   2.582   5.313   4.247
 5476TIP3    H137843   2.652   5.259   4.209
 5476TIP3    H237844   2.591   5.301   4.341
 5477TIP3   OH237845   4.156   0.722   0.732
 5477TIP3    H137846   4.199   0.711   0.817
 5477TIP3    H237847   4.162   0.816   0.714
 5478TIP3   OH237848   0.580   3.530   5.192
 5478TIP3    H137849   0.566   3.579   5.110
 5478TIP3    H237850   0.492   3.505   5.220
 5479TIP3   OH237851   0.394   1.971   5.719
 5479TIP3    H137852   0.329   2.033   5.752
 5479TIP3    H237853   0.343   1.911   5.665
 5480TIP3   OH237854   0.000   0.669   0.326
 5480TIP3    H137855   0.057   0.717   0.265
 5480TIP3    H237856   0.037   0.580   0.327
 5481TIP3   OH237857   3.276   2.676  16.776
 5481TIP3    H137858   3.318   2.758  16.802
 5481TIP3    H237859   3.182   2.694  16.779
 5482TIP3   OH237860   4.973   5.129   3.945
 5482TIP3    H137861   4.936   5.214   3.918
 5482TIP3    H237862   4.995   5.085   3.863
 5483TIP3   OH237863   4.528   5.077  16.687
 5483TIP3    H137864   4.494   5.007  16.632
 5483TIP3    H237865   4.553   5.146  16.625
 5484TIP3   OH237866   6.441   3.606  14.809
 5484TIP3    H137867   6.432   3.522  14.854
 5484TIP3    H237868   6.478   3.665  14.875
 5485TIP3   OH237869   4.964   3.486  14.312
 5485TIP3    H137870   4.975   3.574  14.347
 5485TIP3    H237871   5.027   3.481  14.240
 5486TIP3   OH237872   6.335   4.585  16.336
 5486TIP3    H137873   6.285   4.624  16.408
 5486TIP3    H237874   6.426   4.592  16.363
 5487TIP3   OH237875   0.795   2.605   0.139
 5487TIP3    H137876   0.871   2.556   0.110
 5487TIP3    H237877   0.809   2.618   0.233
 5488TIP3   OH237878   0.350   5.245   3.819
 5488TIP3    H137879   0.437   5.216   3.793
 5488TIP3    H237880   0.326   5.190   3.893
 5489TIP3   OH237881   6.112   2.680   4.213
 5489TIP3    H137882   6.028   2.716   4.241
 5489TIP3    H237883   6.164   2.756   4.188
 5490TIP3   OH237884   1.497   2.039   0.836
 5490TIP3    H137885   1.433   2.109   0.832
 5490TIP3    H237886   1.538   2.038   0.749
 5491TIP3   OH237887   2.943   2.463  15.582
 5491TIP3    H137888   2.950   2.527  15.511
 5491TIP3    H237889   2.902   2.512  15.654
 5492TIP3   OH237890   3.906   5.234  14.467
 5492TIP3    H137891   3.813   5.211  14.472
 5492TIP3    H237892   3.907   5.329  14.483
 5493TIP3   OH237893   3.965   3.429  13.984
 5493TIP3    H137894   3.976   3.463  13.895
 5493TIP3    H237895   3.983   3.335  13.975
 5494TIP3   OH237896   0.221   5.980   0.129
 5494TIP3    H137897   0.207   5.961   0.222
 5494TIP3    H237898   0.243   5.896   0.090
 5495TIP3   OH237899   2.498   2.041  10.686
 5495TIP3    H137900   2.445   1.962  10.696
 5495TIP3    H237901   2.440   2.112  10.711
 5496TIP3   OH237902   0.644   5.029  15.410
 5496TIP3    H137903   0.692   5.009  15.491
 5496TIP3    H237904   0.604   5.114  15.426
 5497TIP3   OH237905   4.039   1.857  17.084
 5497TIP3    H137906   4.125   1.844  17.042
 5497TIP3    H237907   4.030   1.782  17.143
 5498TIP3   OH237908   3.238   1.384   4.969
 5498TIP3    H137909   3.209   1.375   4.879
 5498TIP3    H237910   3.334   1.383   4.963
 5499TIP3   OH237911   0.348   5.106   4.079
 5499TIP3    H137912   0.334   5.026   4.129
 5499TIP3    H237913   0.275   5.163   4.101
 5500TIP3   OH237914   6.251   4.471   4.981
 5500TIP3    H137915   6.167   4.483   5.026
 5500TIP3    H237916   6.314   4.455   5.052
 5501TIP3   OH237917   4.331   0.641   4.051
 5501TIP3    H137918   4.375   0.584   4.114
 5501TIP3    H237919   4.250   0.667   4.094
 5502TIP3   OH237920   3.741   5.097  11.018
 5502TIP3    H137921   3.661   5.103  11.071
 5502TIP3    H237922   3.742   5.005  10.989
 5503TIP3   OH237923   5.966   1.985   5.555
 5503TIP3    H137924   5.939   1.925   5.485
 5503TIP3    H237925   5.939   2.071   5.524
 5504TIP3   OH237926   3.759   1.427  15.855
 5504TIP3    H137927   3.788   1.395  15.769
 5504TIP3    H237928   3.809   1.374  15.918
 5505TIP3   OH237929   3.529   2.008   0.928
 5505TIP3    H137930   3.598   1.997   0.862
 5505TIP3    H237931   3.462   1.944   0.904
 5506TIP3   OH237932   0.171   3.151   2.980
 5506TIP3    H137933   0.142   3.096   2.907
 5506TIP3    H237934   0.265   3.163   2.964
 5507TIP3   OH237935   3.475   2.304  13.875
 5507TIP3    H137936   3.502   2.333  13.788
 5507TIP3    H237937   3.503   2.374  13.934
 5508TIP3   OH237938   2.963   0.066   2.984
 5508TIP3    H137939   2.928   0.041   2.898
 5508TIP3    H237940   2.995   0.155   2.972
 5509TIP3   OH237941   2.596   6.032   2.033
 5509TIP3    H137942   2.528   6.024   2.100
 5509TIP3    H237943   2.624   6.123   2.038
 5510TIP3   OH237944   1.025   0.335  12.074
 5510TIP3    H137945   1.096   0.301  12.018
 5510TIP3    H237946   0.950   0.279  12.054
 5511TIP3   OH237947   2.183   0.163   2.382
 5511TIP3    H137948   2.118   0.099   2.411
 5511TIP3    H237949   2.263   0.112   2.368
 5512TIP3   OH237950   3.231   0.353   1.314
 5512TIP3    H137951   3.300   0.373   1.251
 5512TIP3    H237952   3.269   0.287   1.372
 5513TIP3   OH237953   2.592   3.875  12.987
 5513TIP3    H137954   2.624   3.807  13.046
 5513TIP3    H237955   2.625   3.957  13.024
 5514TIP3   OH237956   4.232   0.169  15.273
 5514TIP3    H137957   4.210   0.224  15.197
 5514TIP3    H237958   4.147   0.136  15.303
 5515TIP3   OH237959   0.107   0.821   0.146
 5515TIP3    H137960   0.102   0.793   0.054
 5515TIP3    H237961   0.053   0.900   0.150
 5516TIP3   OH237962   4.141   0.005  16.752
 5516TIP3    H137963   4.198   0.013  16.675
 5516TIP3    H237964   4.053   0.017  16.719
 5517TIP3   OH237965   3.879   5.490   4.047
 5517TIP3    H137966   3.832   5.573   4.041
 5517TIP3    H237967   3.904   5.470   3.957
 5518TIP3   OH237968   3.630   1.194  15.507
 5518TIP3    H137969   3.606   1.109  15.544
 5518TIP3    H237970   3.556   1.217  15.452
 5519TIP3   OH237971   4.439   6.185   0.553
 5519TIP3    H137972   4.523   6.191   0.598
 5519TIP3    H237973   4.422   6.091   0.548
 5520TIP3   OH237974   0.745   2.017  16.379
 5520TIP3    H137975   0.786   1.949  16.325
 5520TIP3    H237976   0.654   1.990  16.386
 5521TIP3   OH237977   1.739   6.646  17.158
 5521TIP3    H137978   1.792   6.665  17.080
 5521TIP3    H237979   1.799   6.658  17.231
 5522TIP3   OH237980   4.857   4.749   6.656
 5522TIP3    H137981   4.861   4.839   6.688
 5522TIP3    H237982   4.944   4.733   6.619
 5523TIP3   OH237983   0.752   0.952  12.325
 5523TIP3    H137984   0.752   1.030  12.381
 5523TIP3    H237985   0.840   0.917  12.332
 5524TIP3   OH237986   2.432   0.147  14.168
 5524TIP3    H137987   2.360   0.207  14.147
 5524TIP3    H237988   2.481   0.192  14.236
 5525TIP3   OH237989   3.250   5.678  12.832
 5525TIP3    H137990   3.164   5.720  12.829
 5525TIP3    H237991   3.236   5.593  12.792
 5526TIP3   OH237992   5.694   1.534  16.912
 5526TIP3    H137993   5.679   1.494  16.997
 5526TIP3    H237994   5.698   1.628  16.929
 5527TIP3   OH237995   4.596   6.517   5.526
 5527TIP3    H137996   4.530   6.560   5.581
 5527TIP3    H237997   4.595   6.566   5.444
 5528TIP3   OH237998   0.960   5.941  12.362
 5528TIP3    H137999   1.018   5.931  12.287
 5528TIP3    H238000   1.018   5.957  12.436
 5529TIP3   OH238001   1.582   3.671  17.192
 5529TIP3    H138002   1.496   3.702  17.163
 5529TIP3    H238003   1.643   3.739  17.162
 5530TIP3   OH238004   0.370   1.004  14.195
 5530TIP3    H138005   0.359   0.911  14.219
 5530TIP3    H238006   0.299   1.048  14.241
 5531TIP3   OH238007   0.057   2.935  16.798
 5531TIP3    H138008   0.045   2.940  16.892
 5531TIP3    H238009  -0.018   2.885  16.766
 5532TIP3   OH238010   0.137   6.338   3.845
 5532TIP3    H138011   0.189   6.349   3.766
 5532TIP3    H238012   0.052   6.377   3.824
 5533TIP3   OH238013   5.900   0.476  16.213
 5533TIP3    H138014   5.816   0.521  16.214
 5533TIP3    H238015   5.950   0.517  16.142
 5534TIP3   OH238016   5.163   2.134   5.629
 5534TIP3    H138017   5.247   2.110   5.668
 5534TIP3    H238018   5.160   2.230   5.637
 5535TIP3   OH238019   4.604   5.737  11.569
 5535TIP3    H138020   4.539   5.798  11.603
 5535TIP3    H238021   4.677   5.743  11.631
 5536TIP3   OH238022   4.701   0.360  13.885
 5536TIP3    H138023   4.689   0.389  13.794
 5536TIP3    H238024   4.697   0.441  13.936
 5537TIP3   OH238025   3.259   4.088  11.667
 5537TIP3    H138026   3.287   4.062  11.755
 5537TIP3    H238027   3.164   4.093  11.672
 5538TIP3   OH238028   1.780   1.822   1.899
 5538TIP3    H138029   1.704   1.765   1.886
 5538TIP3    H238030   1.745   1.911   1.889
 5539TIP3   OH238031   2.896   5.226  15.473
 5539TIP3    H138032   2.842   5.148  15.486
 5539TIP3    H238033   2.985   5.193  15.463
 5540TIP3   OH238034   2.558   4.789  13.062
 5540TIP3    H138035   2.524   4.699  13.055
 5540TIP3    H238036   2.556   4.808  13.155
 5541TIP3   OH238037   4.925   5.886  15.342
 5541TIP3    H138038   4.849   5.940  15.360
 5541TIP3    H238039   4.968   5.875  15.427
 5542TIP3   OH238040   2.128   5.827  17.234
 5542TIP3    H138041   2.043   5.788  17.215
 5542TIP3    H238042   2.189   5.782  17.176
 5543TIP3   OH238043   6.023   2.160   0.136
 5543TIP3    H138044   6.081   2.235   0.154
 5543TIP3    H238045   6.026   2.149   0.041
 5544TIP3   OH238046   3.044   1.756   2.486
 5544TIP3    H138047   3.128   1.712   2.470
 5544TIP3    H238048   3.043   1.829   2.425
 5545TIP3   OH238049   0.100   3.159   3.245
 5545TIP3    H138050   0.036   3.229   3.254
 5545TIP3    H238051   0.118   3.154   3.151
 5546TIP3   OH238052   1.470   3.809   2.900
 5546TIP3    H138053   1.544   3.866   2.882
 5546TIP3    H238054   1.495   3.760   2.978
 5547TIP3   OH238055   1.467   0.518  14.926
 5547TIP3    H138056   1.553   0.540  14.962
 5547TIP3    H238057   1.484   0.452  14.860
 5548TIP3   OH238058   3.007   6.076   2.071
 5548TIP3    H138059   3.040   6.095   2.159
 5548TIP3    H238060   2.943   6.006   2.084
 5549TIP3   OH238061   5.386   3.584   5.048
 5549TIP3    H138062   5.292   3.581   5.032
 5549TIP3    H238063   5.416   3.659   4.996
 5550TIP3   OH238064   1.037   5.835  14.926
 5550TIP3    H138065   1.030   5.899  14.997
 5550TIP3    H238066   0.970   5.770  14.945
 5551TIP3   OH238067   2.346   4.262   2.811
 5551TIP3    H138068   2.334   4.285   2.719
 5551TIP3    H238069   2.381   4.173   2.809
 5552TIP3   OH238070   1.738   5.414  15.038
 5552TIP3    H138071   1.791   5.455  14.970
 5552TIP3    H238072   1.667   5.476  15.053
 5553TIP3   OH238073   6.130   4.744  15.375
 5553TIP3    H138074   6.064   4.755  15.444
 5553TIP3    H238075   6.104   4.664  15.330
 5554TIP3   OH238076   1.453   1.196   5.141
 5554TIP3    H138077   1.467   1.199   5.046
 5554TIP3    H238078   1.417   1.282   5.162
 5555TIP3   OH238079   2.600   4.494  11.313
 5555TIP3    H138080   2.588   4.558  11.243
 5555TIP3    H238081   2.566   4.412  11.277
 5556TIP3   OH238082   5.997   4.056   5.967
 5556TIP3    H138083   6.070   3.997   5.986
 5556TIP3    H238084   5.954   4.069   6.051
 5557TIP3   OH238085   6.598   1.246  16.384
 5557TIP3    H138086   6.619   1.187  16.456
 5557TIP3    H238087   6.648   1.326  16.404
 5558TIP3   OH238088   4.283   0.857  11.838
 5558TIP3    H138089   4.269   0.935  11.785
 5558TIP3    H238090   4.194   0.826  11.860
 5559TIP3   OH238091   6.575   4.480   2.231
 5559TIP3    H138092   6.517   4.404   2.221
 5559TIP3    H238093   6.649   4.446   2.282
 5560TIP3   OH238094   3.595   4.507   4.268
 5560TIP3    H138095   3.582   4.596   4.237
 5560TIP3    H238096   3.525   4.493   4.332
 5561TIP3   OH238097   5.398   1.370   1.561
 5561TIP3    H138098   5.465   1.385   1.628
 5561TIP3    H238099   5.337   1.307   1.601
 5562TIP3   OH238100   6.177   4.026  15.665
 5562TIP3    H138101   6.211   4.113  15.688
 5562TIP3    H238102   6.248   3.986  15.615
 5563TIP3   OH238103   3.410   0.383   5.144
 5563TIP3    H138104   3.392   0.426   5.228
 5563TIP3    H238105   3.353   0.428   5.081
 5564TIP3   OH238106   6.678   4.111  12.622
 5564TIP3    H138107   6.654   4.021  12.600
 5564TIP3    H238108   6.754   4.102  12.679
 5565TIP3   OH238109   2.592   5.923   1.606
 5565TIP3    H138110   2.627   6.010   1.588
 5565TIP3    H238111   2.608   5.873   1.526
 5566TIP3   OH238112   4.969   3.394   2.869
 5566TIP3    H138113   4.878   3.366   2.863
 5566TIP3    H238114   4.978   3.430   2.958
 5567TIP3   OH238115   6.040   1.627   3.058
 5567TIP3    H138116   5.964   1.679   3.033
 5567TIP3    H238117   6.007   1.568   3.126
 5568TIP3   OH238118   2.114   4.981   6.256
 5568TIP3    H138119   2.202   4.982   6.292
 5568TIP3    H238120   2.065   5.044   6.309
 5569TIP3   OH238121   1.804   1.498  11.297
 5569TIP3    H138122   1.740   1.566  11.321
 5569TIP3    H238123   1.795   1.432  11.365
 5570TIP3   OH238124   0.351   6.200   3.527
 5570TIP3    H138125   0.256   6.200   3.528
 5570TIP3    H238126   0.375   6.107   3.518
 5571TIP3   OH238127   2.994   4.017  12.028
 5571TIP3    H138128   3.040   3.970  12.098
 5571TIP3    H238129   3.017   3.970  11.948
 5572TIP3   OH238130   2.769   2.560  15.113
 5572TIP3    H138131   2.735   2.544  15.201
 5572TIP3    H238132   2.841   2.498  15.103
 5573TIP3   OH238133   1.393   6.114   5.277
 5573TIP3    H138134   1.476   6.156   5.302
 5573TIP3    H238135   1.389   6.123   5.182
 5574TIP3   OH238136   4.930   4.567  11.591
 5574TIP3    H138137   4.879   4.491  11.617
 5574TIP3    H238138   4.886   4.599  11.512
 5575TIP3   OH238139   0.230   0.795  12.533
 5575TIP3    H138140   0.280   0.809  12.613
 5575TIP3    H238141   0.163   0.863  12.534
 5576TIP3   OH238142   0.349   2.196   0.193
 5576TIP3    H138143   0.380   2.219   0.281
 5576TIP3    H238144   0.302   2.273   0.163
 5577TIP3   OH238145   0.593   6.571  16.328
 5577TIP3    H138146   0.567   6.651  16.375
 5577TIP3    H238147   0.517   6.549  16.274
 5578TIP3   OH238148   4.001   1.882  10.983
 5578TIP3    H138149   3.958   1.823  10.922
 5578TIP3    H238150   4.088   1.895  10.947
 5579TIP3   OH238151   0.947   2.777  16.646
 5579TIP3    H138152   0.908   2.768  16.732
 5579TIP3    H238153   1.011   2.848  16.656
 5580TIP3   OH238154   1.737   1.952   2.920
 5580TIP3    H138155   1.727   2.046   2.935
 5580TIP3    H238156   1.648   1.919   2.908
 5581TIP3   OH238157   2.308   1.570  15.794
 5581TIP3    H138158   2.245   1.508  15.758
 5581TIP3    H238159   2.266   1.655  15.787
 5582TIP3   OH238160   3.261   3.578   3.859
 5582TIP3    H138161   3.182   3.615   3.896
 5582TIP3    H238162   3.314   3.552   3.934
 5583TIP3   OH238163   4.847   1.197   4.539
 5583TIP3    H138164   4.932   1.171   4.502
 5583TIP3    H238165   4.830   1.284   4.501
 5584TIP3   OH238166   2.362   6.303   0.030
 5584TIP3    H138167   2.297   6.289   0.098
 5584TIP3    H238168   2.344   6.391  -0.003
 5585TIP3   OH238169   2.903   5.832   0.432
 5585TIP3    H138170   2.904   5.888   0.355
 5585TIP3    H238171   2.810   5.823   0.454
 5586TIP3   OH238172   2.045   4.632  15.689
 5586TIP3    H138173   2.116   4.655  15.629
 5586TIP3    H238174   2.004   4.715  15.710
 5587TIP3   OH238175   5.702   4.328   2.480
 5587TIP3    H138176   5.765   4.256   2.468
 5587TIP3    H238177   5.745   4.404   2.440
 5588TIP3   OH238178   4.496   0.054   2.317
 5588TIP3    H138179   4.457  -0.010   2.376
 5588TIP3    H238180   4.447   0.135   2.333
 5589TIP3   OH238181   2.735   0.703   1.123
 5589TIP3    H138182   2.709   0.789   1.090
 5589TIP3    H238183   2.683   0.690   1.202
 5590TIP3   OH238184   3.113   1.166  12.211
 5590TIP3    H138185   3.111   1.130  12.123
 5590TIP3    H238186   3.154   1.252  12.201
 5591TIP3   OH238187   1.191   2.969   5.017
 5591TIP3    H138188   1.116   2.910   5.025
 5591TIP3    H238189   1.176   3.034   5.086
 5592TIP3   OH238190   2.727   6.194  16.132
 5592TIP3    H138191   2.686   6.123  16.083
 5592TIP3    H238192   2.797   6.226  16.075
 5593TIP3   OH238193   2.221   2.046   4.298
 5593TIP3    H138194   2.164   1.980   4.336
 5593TIP3    H238195   2.309   2.021   4.326
 5594TIP3   OH238196   5.493   2.902   0.023
 5594TIP3    H138197   5.532   2.865   0.103
 5594TIP3    H238198   5.495   2.997   0.037
 5595TIP3   OH238199   3.038   3.005   1.250
 5595TIP3    H138200   2.978   3.075   1.225
 5595TIP3    H238201   3.110   3.013   1.187
 5596TIP3   OH238202   6.512   6.364  14.187
 5596TIP3    H138203   6.470   6.431  14.241
 5596TIP3    H238204   6.470   6.282  14.214
 5597TIP3   OH238205   4.501   0.042   1.807
 5597TIP3    H138206   4.520   0.106   1.876
 5597TIP3    H238207   4.434   0.084   1.753
 5598TIP3   OH238208   6.656   5.912  16.114
 5598TIP3    H138209   6.615   5.983  16.064
 5598TIP3    H238210   6.707   5.864  16.048
 5599TIP3   OH238211   4.657   0.128  11.095
 5599TIP3    H138212   4.678   0.137  11.188
 5599TIP3    H238213   4.637   0.035  11.084
 5600TIP3   OH238214   4.943   3.211  14.357
 5600TIP3    H138215   4.948   3.306  14.347
 5600TIP3    H238216   4.977   3.176  14.275
 5601TIP3   OH238217   6.182   1.552  13.315
 5601TIP3    H138218   6.174   1.569  13.222
 5601TIP3    H238219   6.160   1.636  13.357
 5602TIP3   OH238220   2.210   0.945  13.713
 5602TIP3    H138221   2.204   1.024  13.767
 5602TIP3    H238222   2.246   0.879  13.772
 5603TIP3   OH238223   1.999   6.015   3.283
 5603TIP3    H138224   2.059   5.975   3.346
 5603TIP3    H238225   1.954   5.941   3.242
 5604TIP3   OH238226   1.174   5.488  12.822
 5604TIP3    H138227   1.198   5.402  12.854
 5604TIP3    H238228   1.255   5.526  12.789
 5605TIP3   OH238229   4.974   1.291   5.063
 5605TIP3    H138230   4.944   1.260   4.978
 5605TIP3    H238231   5.054   1.340   5.044
 5606TIP3   OH238232   1.018   2.105  15.904
 5606TIP3    H138233   1.105   2.086  15.938
 5606TIP3    H238234   0.960   2.097  15.979
 5607TIP3   OH238235   1.911   2.432   2.931
 5607TIP3    H138236   1.949   2.352   2.966
 5607TIP3    H238237   1.975   2.500   2.952
 5608TIP3   OH238238   1.146   3.232  11.344
 5608TIP3    H138239   1.205   3.302  11.371
 5608TIP3    H238240   1.068   3.243  11.398
 5609TIP3   OH238241   1.056   0.855   1.383
 5609TIP3    H138242   1.103   0.781   1.344
 5609TIP3    H238243   1.125   0.919   1.401
 5610TIP3   OH238244   5.642   1.575  16.596
 5610TIP3    H138245   5.550   1.550  16.600
 5610TIP3    H238246   5.689   1.492  16.588
 5611TIP3   OH238247   5.992   1.842  13.940
 5611TIP3    H138248   5.930   1.847  13.867
 5611TIP3    H238249   5.947   1.887  14.012
 5612TIP3   OH238250   2.643   6.029  12.921
 5612TIP3    H138251   2.693   5.949  12.931
 5612TIP3    H238252   2.672   6.065  12.837
 5613TIP3   OH238253   2.592   3.935   3.507
 5613TIP3    H138254   2.618   3.920   3.416
 5613TIP3    H238255   2.621   4.025   3.526
 5614TIP3   OH238256   5.061   3.995   1.248
 5614TIP3    H138257   5.119   4.049   1.194
 5614TIP3    H238258   5.104   3.990   1.333
 5615TIP3   OH238259   2.384   0.805  14.421
 5615TIP3    H138260   2.429   0.752  14.353
 5615TIP3    H238261   2.391   0.895  14.389
 5616TIP3   OH238262   4.365   4.423  11.296
 5616TIP3    H138263   4.403   4.497  11.344
 5616TIP3    H238264   4.303   4.464  11.235
 5617TIP3   OH238265   3.229   0.379  16.420
 5617TIP3    H138266   3.243   0.296  16.465
 5617TIP3    H238267   3.198   0.353  16.333
 5618TIP3   OH238268   2.324   0.186  15.273
 5618TIP3    H138269   2.380   0.264  15.270
 5618TIP3    H238270   2.338   0.150  15.361
 5619TIP3   OH238271   3.520   0.432   6.280
 5619TIP3    H138272   3.473   0.359   6.320
 5619TIP3    H238273   3.606   0.396   6.259
 5620TIP3   OH238274   1.823   5.668  11.892
 5620TIP3    H138275   1.780   5.603  11.948
 5620TIP3    H238276   1.915   5.645  11.895
 5621TIP3   OH238277   6.173   4.845  16.366
 5621TIP3    H138278   6.189   4.938  16.382
 5621TIP3    H238279   6.194   4.803  16.449
 5622TIP3   OH238280   4.974   6.700   5.802
 5622TIP3    H138281   4.990   6.609   5.824
 5622TIP3    H238282   5.002   6.709   5.711
 5623TIP3   OH238283   5.306   0.134  12.814
 5623TIP3    H138284   5.342   0.046  12.827
 5623TIP3    H238285   5.239   0.142  12.882
 5624TIP3   OH238286   5.755   4.902  16.651
 5624TIP3    H138287   5.817   4.970  16.680
 5624TIP3    H238288   5.691   4.950  16.598
 5625TIP3   OH238289   0.487   3.380  12.154
 5625TIP3    H138290   0.409   3.324  12.146
 5625TIP3    H238291   0.554   3.335  12.102
 5626TIP3   OH238292   2.130   1.710   2.472
 5626TIP3    H138293   2.133   1.711   2.377
 5626TIP3    H238294   2.072   1.782   2.495
 5627TIP3   OH238295   4.865   2.107  11.895
 5627TIP3    H138296   4.818   2.149  11.967
 5627TIP3    H238297   4.847   2.162  11.819
 5628TIP3   OH238298   6.345   0.353   1.128
 5628TIP3    H138299   6.357   0.447   1.114
 5628TIP3    H238300   6.433   0.318   1.138
 5629TIP3   OH238301   2.947   5.824  15.310
 5629TIP3    H138302   2.944   5.797  15.218
 5629TIP3    H238303   2.860   5.804  15.344
 5630TIP3   OH238304   5.428   2.399   2.963
 5630TIP3    H138305   5.487   2.439   2.899
 5630TIP3    H238306   5.350   2.376   2.913
 5631TIP3   OH238307   4.150   2.500  15.803
 5631TIP3    H138308   4.115   2.415  15.829
 5631TIP3    H238309   4.104   2.563  15.857
 5632TIP3   OH238310   6.075   2.259   4.247
 5632TIP3    H138311   6.052   2.177   4.291
 5632TIP3    H238312   6.154   2.238   4.197
 5633TIP3   OH238313   3.841   0.249   5.380
 5633TIP3    H138314   3.891   0.186   5.432
 5633TIP3    H238315   3.890   0.331   5.388
 5634TIP3   OH238316   6.176   0.014   0.047
 5634TIP3    H138317   6.256  -0.021   0.007
 5634TIP3    H238318   6.135   0.064  -0.023
 5635TIP3   OH238319   4.580   4.977  11.310
 5635TIP3    H138320   4.513   5.027  11.263
 5635TIP3    H238321   4.576   4.889  11.272
 5636TIP3   OH238322   2.559   1.768  15.462
 5636TIP3    H138323   2.483   1.814  15.499
 5636TIP3    H238324   2.630   1.787  15.523
 5637TIP3   OH238325   2.803   4.128   5.910
 5637TIP3    H138326   2.762   4.157   5.829
 5637TIP3    H238327   2.825   4.208   5.956
 5638TIP3   OH238328   1.532   3.999  16.967
 5638TIP3    H138329   1.607   3.960  16.921
 5638TIP3    H238330   1.571   4.056  17.033
 5639TIP3   OH238331   0.560   1.934   3.772
 5639TIP3    H138332   0.635   1.984   3.740
 5639TIP3    H238333   0.543   1.870   3.703
 5640TIP3   OH238334   1.235   6.108  15.431
 5640TIP3    H138335   1.264   6.042  15.368
 5640TIP3    H238336   1.234   6.062  15.515
 5641TIP3   OH238337   4.970   2.793   0.790
 5641TIP3    H138338   4.885   2.793   0.746
 5641TIP3    H238339   5.009   2.877   0.767
 5642TIP3   OH238340   6.769   2.976  13.952
 5642TIP3    H138341   6.848   3.012  13.992
 5642TIP3    H238342   6.741   3.043  13.889
 5643TIP3   OH238343   2.975   0.517   4.338
 5643TIP3    H138344   3.059   0.479   4.311
 5643TIP3    H238345   2.943   0.562   4.259
 5644TIP3   OH238346   6.340   3.438   0.205
 5644TIP3    H138347   6.361   3.388   0.283
 5644TIP3    H238348   6.414   3.422   0.146
 5645TIP3   OH238349   2.574   2.661   3.240
 5645TIP3    H138350   2.531   2.646   3.324
 5645TIP3    H238351   2.644   2.724   3.260
 5646TIP3   OH238352   1.977   2.790   0.701
 5646TIP3    H138353   1.905   2.730   0.719
 5646TIP3    H238354   2.041   2.738   0.652
 5647TIP3   OH238355   5.875   5.217   5.897
 5647TIP3    H138356   5.790   5.188   5.930
 5647TIP3    H238357   5.855   5.297   5.847
 5648TIP3   OH238358   1.287   0.841  11.759
 5648TIP3    H138359   1.366   0.878  11.719
 5648TIP3    H238360   1.236   0.810  11.684
 5649TIP3   OH238361   4.924   1.583  16.621
 5649TIP3    H138362   4.944   1.633  16.542
 5649TIP3    H238363   4.862   1.515  16.592
 5650TIP3   OH238364   5.785   4.315   5.539
 5650TIP3    H138365   5.733   4.395   5.536
 5650TIP3    H238366   5.801   4.300   5.632
 5651TIP3   OH238367   1.310   3.979  14.733
 5651TIP3    H138368   1.341   4.006  14.820
 5651TIP3    H238369   1.237   4.038  14.714
 5652TIP3   OH238370   5.983   3.753  16.375
 5652TIP3    H138371   6.044   3.695  16.329
 5652TIP3    H238372   6.030   3.836  16.383
 5653TIP3   OH238373   4.679   1.124   2.418
 5653TIP3    H138374   4.756   1.117   2.362
 5653TIP3    H238375   4.620   1.183   2.370
 5654TIP3   OH238376   6.459   0.096  14.359
 5654TIP3    H138377   6.522   0.168  14.368
 5654TIP3    H238378   6.383   0.125  14.410
 5655TIP3   OH238379   3.170   5.818  14.443
 5655TIP3    H138380   3.180   5.912  14.433
 5655TIP3    H238381   3.110   5.808  14.517
 5656TIP3   OH238382   3.165   1.951   4.160
 5656TIP3    H138383   3.238   1.996   4.202
 5656TIP3    H238384   3.091   2.011   4.169
 5657TIP3   OH238385   2.441   1.149   1.570
 5657TIP3    H138386   2.531   1.170   1.598
 5657TIP3    H238387   2.407   1.231   1.536
 5658TIP3   OH238388   6.648   2.091  11.896
 5658TIP3    H138389   6.572   2.111  11.842
 5658TIP3    H238390   6.628   2.130  11.981
 5659TIP3   OH238391   1.070   5.112   2.142
 5659TIP3    H138392   1.130   5.187   2.138
 5659TIP3    H238393   1.026   5.112   2.057
 5660TIP3   OH238394   4.389   3.728  15.816
 5660TIP3    H138395   4.339   3.670  15.875
 5660TIP3    H238396   4.369   3.816  15.847
 5661TIP3   OH238397   6.101   2.781  15.560
 5661TIP3    H138398   6.104   2.690  15.589
 5661TIP3    H238399   6.193   2.809  15.561
 5662TIP3   OH238400   4.249   3.547  14.945
 5662TIP3    H138401   4.186   3.618  14.930
 5662TIP3    H238402   4.332   3.582  14.912
 5663TIP3   OH238403   1.932   4.599  15.394
 5663TIP3    H138404   1.922   4.532  15.461
 5663TIP3    H238405   2.026   4.613  15.387
 5664TIP3   OH238406   4.043   3.246   2.882
 5664TIP3    H138407   3.967   3.187   2.883
 5664TIP3    H238408   4.005   3.333   2.874
 5665TIP3   OH238409   2.197   1.714   3.583
 5665TIP3    H138410   2.191   1.621   3.561
 5665TIP3    H238411   2.173   1.759   3.502
 5666TIP3   OH238412   0.684   2.448  14.141
 5666TIP3    H138413   0.706   2.541  14.133
 5666TIP3    H238414   0.702   2.411  14.055
 5667TIP3   OH238415   3.621   4.409  13.589
 5667TIP3    H138416   3.705   4.453  13.603
 5667TIP3    H238417   3.572   4.425  13.670
 5668TIP3   OH238418   1.760   5.404  12.110
 5668TIP3    H138419   1.687   5.455  12.144
 5668TIP3    H238420   1.750   5.318  12.150
 5669TIP3   OH238421   1.083   2.798   1.173
 5669TIP3    H138422   1.034   2.845   1.105
 5669TIP3    H238423   1.018   2.742   1.216
 5670TIP3   OH238424   4.965   5.457   0.904
 5670TIP3    H138425   4.889   5.417   0.947
 5670TIP3    H238426   5.037   5.397   0.924
 5671TIP3   OH238427   3.107   4.628   4.866
 5671TIP3    H138428   3.099   4.604   4.959
 5671TIP3    H238429   3.035   4.690   4.851
 5672TIP3   OH238430   4.107   6.063  14.295
 5672TIP3    H138431   4.157   5.999  14.244
 5672TIP3    H238432   4.029   6.016  14.324
 5673TIP3   OH238433   6.621   5.096  15.074
 5673TIP3    H138434   6.699   5.071  15.025
 5673TIP3    H238435   6.655   5.147  15.148
 5674TIP3   OH238436   5.943   4.489   3.091
 5674TIP3    H138437   6.033   4.497   3.122
 5674TIP3    H238438   5.890   4.528   3.161
 5675TIP3   OH238439   2.189   1.922   6.241
 5675TIP3    H138440   2.147   1.997   6.198
 5675TIP3    H238441   2.137   1.847   6.213
 5676TIP3   OH238442   5.185   0.266  14.326
 5676TIP3    H138443   5.227   0.273  14.240
 5676TIP3    H238444   5.097   0.300  14.313
 5677TIP3   OH238445   4.721   2.137   1.516
 5677TIP3    H138446   4.653   2.171   1.458
 5677TIP3    H238447   4.803   2.158   1.473
 5678TIP3   OH238448   0.222   4.032  11.504
 5678TIP3    H138449   0.238   4.125  11.486
 5678TIP3    H238450   0.208   3.994  11.418
 5679TIP3   OH238451   2.664   3.280   1.320
 5679TIP3    H138452   2.655   3.376   1.319
 5679TIP3    H238453   2.683   3.259   1.411
 5680TIP3   OH238454   1.193   4.490  11.501
 5680TIP3    H138455   1.250   4.555  11.461
 5680TIP3    H238456   1.251   4.417  11.522
 5681TIP3   OH238457   2.203   3.132   3.826
 5681TIP3    H138458   2.243   3.161   3.745
 5681TIP3    H238459   2.153   3.053   3.803
 5682TIP3   OH238460   3.128   2.101   2.931
 5682TIP3    H138461   3.033   2.106   2.946
 5682TIP3    H238462   3.148   2.182   2.884
 5683TIP3   OH238463   1.033   0.937  12.799
 5683TIP3    H138464   1.064   0.934  12.890
 5683TIP3    H238465   1.007   0.848  12.779
 5684TIP3   OH238466   6.501   4.101   2.406
 5684TIP3    H138467   6.466   4.155   2.335
 5684TIP3    H238468   6.575   4.055   2.366
 5685TIP3   OH238469   5.007   5.433  11.664
 5685TIP3    H138470   5.051   5.376  11.601
 5685TIP3    H238471   4.918   5.397  11.670
 5686TIP3   OH238472   0.051   6.329   0.111
 5686TIP3    H138473   0.041   6.321   0.016
 5686TIP3    H238474  -0.038   6.319   0.146
 5687TIP3   OH238475   0.494   0.314  15.522
 5687TIP3    H138476   0.470   0.230  15.483
 5687TIP3    H238477   0.576   0.338  15.480
 5688TIP3   OH238478   1.226   1.004   3.715
 5688TIP3    H138479   1.306   1.054   3.727
 5688TIP3    H238480   1.158   1.059   3.754
 5689TIP3   OH238481   5.363   4.857   2.667
 5689TIP3    H138482   5.306   4.883   2.594
 5689TIP3    H238483   5.305   4.856   2.743
 5690TIP3   OH238484   0.337   0.425   4.134
 5690TIP3    H138485   0.312   0.470   4.053
 5690TIP3    H238486   0.331   0.493   4.201
 5691TIP3   OH238487   0.560   5.313   0.880
 5691TIP3    H138488   0.654   5.329   0.876
 5691TIP3    H238489   0.526   5.386   0.931
 5692TIP3   OH238490   2.325   5.076  16.961
 5692TIP3    H138491   2.385   5.005  16.984
 5692TIP3    H238492   2.275   5.042  16.887
 5693TIP3   OH238493   4.653   3.130   2.907
 5693TIP3    H138494   4.727   3.079   2.941
 5693TIP3    H238495   4.624   3.184   2.980
 5694TIP3   OH238496   6.403   6.541  16.291
 5694TIP3    H138497   6.410   6.594  16.212
 5694TIP3    H238498   6.459   6.586  16.355
 5695TIP3   OH238499   3.711   3.731  15.175
 5695TIP3    H138500   3.679   3.816  15.203
 5695TIP3    H238501   3.645   3.669  15.206
 5696TIP3   OH238502   1.931   4.394  15.614
 5696TIP3    H138503   1.972   4.473  15.648
 5696TIP3    H238504   1.896   4.349  15.691
 5697TIP3   OH238505   1.983   4.264  15.910
 5697TIP3    H138506   2.066   4.286  15.867
 5697TIP3    H238507   1.985   4.316  15.991
 5698TIP3   OH238508   5.753   6.308  15.133
 5698TIP3    H138509   5.849   6.319  15.130
 5698TIP3    H238510   5.738   6.223  15.093
 5699TIP3   OH238511   2.690   5.628   4.245
 5699TIP3    H138512   2.709   5.682   4.321
 5699TIP3    H238513   2.677   5.540   4.280
 5700TIP3   OH238514   0.067   5.385   5.417
 5700TIP3    H138515   0.120   5.450   5.370
 5700TIP3    H238516   0.104   5.301   5.392
 5701TIP3   OH238517   2.218   6.229  14.807
 5701TIP3    H138518   2.157   6.288  14.851
 5701TIP3    H238519   2.176   6.208  14.724
 5702TIP3   OH238520   4.261   2.305  16.434
 5702TIP3    H138521   4.270   2.300  16.529
 5702TIP3    H238522   4.291   2.394  16.412
 5703TIP3   OH238523   3.655   4.754   2.310
 5703TIP3    H138524   3.715   4.690   2.349
 5703TIP3    H238525   3.590   4.701   2.264
 5704TIP3   OH238526   3.486   1.952   4.393
 5704TIP3    H138527   3.434   2.013   4.341
 5704TIP3    H238528   3.459   1.865   4.363
 5705TIP3   OH238529   1.240   0.959   5.834
 5705TIP3    H138530   1.246   0.865   5.848
 5705TIP3    H238531   1.324   0.984   5.795
 5706TIP3   OH238532   3.279   0.894   1.508
 5706TIP3    H138533   3.282   0.914   1.415
 5706TIP3    H238534   3.198   0.935   1.539
 5707TIP3   OH238535   0.621   0.764   3.080
 5707TIP3    H138536   0.526   0.765   3.075
 5707TIP3    H238537   0.647   0.685   3.033
 5708TIP3   OH238538   1.740   3.173  10.495
 5708TIP3    H138539   1.743   3.266  10.519
 5708TIP3    H238540   1.647   3.154  10.486
 5709TIP3   OH238541   6.016   0.326  14.641
 5709TIP3    H138542   6.023   0.420  14.624
 5709TIP3    H238543   5.927   0.303  14.615
 5710TIP3   OH238544   3.372   4.988   5.098
 5710TIP3    H138545   3.347   4.952   5.182
 5710TIP3    H238546   3.373   4.913   5.038
 5711TIP3   OH238547   3.870   1.145   0.641
 5711TIP3    H138548   3.785   1.115   0.610
 5711TIP3    H238549   3.868   1.129   0.736
 5712TIP3   OH238550   5.570   3.424   4.282
 5712TIP3    H138551   5.599   3.401   4.194
 5712TIP3    H238552   5.651   3.426   4.334
 5713TIP3   OH238553   3.990   3.374   2.224
 5713TIP3    H138554   3.922   3.343   2.164
 5713TIP3    H238555   4.031   3.295   2.258
 5714TIP3   OH238556   0.451   4.509  13.677
 5714TIP3    H138557   0.519   4.446  13.652
 5714TIP3    H238558   0.371   4.457  13.681
 5715TIP3   OH238559   0.728   3.075   4.657
 5715TIP3    H138560   0.680   3.141   4.607
 5715TIP3    H238561   0.755   3.010   4.591
 5716TIP3   OH238562   6.167   3.161  16.347
 5716TIP3    H138563   6.141   3.069  16.355
 5716TIP3    H238564   6.180   3.174  16.253
 5717TIP3   OH238565   2.610   3.250   5.546
 5717TIP3    H138566   2.531   3.274   5.594
 5717TIP3    H238567   2.682   3.282   5.599
 5718TIP3   OH238568   3.395   4.643  13.202
 5718TIP3    H138569   3.436   4.674  13.283
 5718TIP3    H238570   3.458   4.667  13.133
 5719TIP3   OH238571   6.227   6.341  12.344
 5719TIP3    H138572   6.210   6.430  12.375
 5719TIP3    H238573   6.167   6.330  12.271
 5720TIP3   OH238574   1.343   5.059  14.911
 5720TIP3    H138575   1.393   5.024  14.837
 5720TIP3    H238576   1.407   5.112  14.959
 5721TIP3   OH238577   0.067   2.980  16.474
 5721TIP3    H138578   0.068   3.035  16.395
 5721TIP3    H238579   0.124   2.906  16.452
 5722TIP3   OH238580   2.044   4.768   0.980
 5722TIP3    H138581   2.057   4.742   1.071
 5722TIP3    H238582   1.955   4.740   0.959
 5723TIP3   OH238583   5.935   4.913   2.466
 5723TIP3    H138584   5.959   4.896   2.375
 5723TIP3    H238585   5.872   4.844   2.488
 5724TIP3   OH238586   2.376   6.110  12.031
 5724TIP3    H138587   2.409   6.189  11.987
 5724TIP3    H238588   2.332   6.142  12.109
 5725TIP3   OH238589   3.700   0.770  12.615
 5725TIP3    H138590   3.662   0.818  12.542
 5725TIP3    H238591   3.628   0.760  12.678
 5726TIP3   OH238592   5.181   2.854  14.036
 5726TIP3    H138593   5.271   2.863  14.066
 5726TIP3    H238594   5.183   2.780  13.975
 5727TIP3   OH238595   1.672   4.591   4.455
 5727TIP3    H138596   1.666   4.668   4.512
 5727TIP3    H238597   1.766   4.581   4.439
 5728TIP3   OH238598   6.747   5.280   3.573
 5728TIP3    H138599   6.763   5.373   3.558
 5728TIP3    H238600   6.734   5.273   3.668
 5729TIP3   OH238601   2.529   4.474  15.736
 5729TIP3    H138602   2.542   4.559  15.695
 5729TIP3    H238603   2.455   4.488  15.796
 5730TIP3   OH238604   0.666   4.855   3.417
 5730TIP3    H138605   0.576   4.821   3.421
 5730TIP3    H238606   0.661   4.930   3.358
 5731TIP3   OH238607   3.567   3.830  12.833
 5731TIP3    H138608   3.524   3.773  12.897
 5731TIP3    H238609   3.583   3.773  12.758
 5732TIP3   OH238610   5.452   5.901   1.383
 5732TIP3    H138611   5.548   5.898   1.381
 5732TIP3    H238612   5.427   5.826   1.438
 5733TIP3   OH238613   5.021   5.934  10.181
 5733TIP3    H138614   4.927   5.943  10.167
 5733TIP3    H238615   5.029   5.894  10.268
 5734TIP3   OH238616   3.986   6.459   0.009
 5734TIP3    H138617   4.008   6.542   0.051
 5734TIP3    H238618   4.040   6.394   0.053
 5735TIP3   OH238619   2.860   3.897  11.776
 5735TIP3    H138620   2.776   3.934  11.805
 5735TIP3    H238621   2.893   3.960  11.712
 5736TIP3   OH238622   2.895   1.754   3.659
 5736TIP3    H138623   2.849   1.675   3.687
 5736TIP3    H238624   2.827   1.810   3.622
 5737TIP3   OH238625   0.153   4.105  10.598
 5737TIP3    H138626   0.190   4.026  10.561
 5737TIP3    H238627   0.058   4.093  10.591
 5738TIP3   OH238628   6.013   1.926  13.568
 5738TIP3    H138629   5.986   1.867  13.497
 5738TIP3    H238630   5.949   1.910  13.637
 5739TIP3   OH238631   5.351   0.393  11.673
 5739TIP3    H138632   5.392   0.476  11.697
 5739TIP3    H238633   5.283   0.418  11.609
 5740TIP3   OH238634   1.203   2.505   4.088
 5740TIP3    H138635   1.161   2.429   4.047
 5740TIP3    H238636   1.151   2.580   4.058
 5741TIP3   OH238637   0.042   4.092   6.419
 5741TIP3    H138638   0.000   4.036   6.484
 5741TIP3    H238639   0.135   4.069   6.423
 5742TIP3   OH238640   6.587   2.627   0.383
 5742TIP3    H138641   6.570   2.704   0.330
 5742TIP3    H238642   6.501   2.598   0.413
 5743TIP3   OH238643   0.581   0.468  10.355
 5743TIP3    H138644   0.530   0.544  10.326
 5743TIP3    H238645   0.515   0.402  10.375
 5744TIP3   OH238646   1.337   2.913  14.016
 5744TIP3    H138647   1.351   2.849  14.085
 5744TIP3    H238648   1.253   2.889  13.977
 5745TIP3   OH238649   3.024   4.215   3.785
 5745TIP3    H138650   3.072   4.175   3.712
 5745TIP3    H238651   3.092   4.260   3.835
 5746TIP3   OH238652   6.200   3.307   2.846
 5746TIP3    H138653   6.193   3.270   2.934
 5746TIP3    H238654   6.158   3.242   2.789
 5747TIP3   OH238655   0.186   1.400  14.727
 5747TIP3    H138656   0.155   1.444  14.806
 5747TIP3    H238657   0.153   1.455  14.655
 5748TIP3   OH238658   1.241   6.026   5.856
 5748TIP3    H138659   1.247   6.118   5.830
 5748TIP3    H238660   1.182   6.027   5.931
 5749TIP3   OH238661   2.052   4.936  11.252
 5749TIP3    H138662   1.962   4.956  11.229
 5749TIP3    H238663   2.104   4.983  11.187
 5750TIP3   OH238664   5.282   4.794   6.148
 5750TIP3    H138665   5.372   4.809   6.119
 5750TIP3    H238666   5.290   4.727   6.216
 5751TIP3   OH238667   4.807   5.888   1.272
 5751TIP3    H138668   4.889   5.841   1.253
 5751TIP3    H238669   4.802   5.888   1.368
 5752TIP3   OH238670   5.368   3.187  10.909
 5752TIP3    H138671   5.457   3.187  10.874
 5752TIP3    H238672   5.319   3.244  10.851
 5753TIP3   OH238673   6.160   0.707  13.670
 5753TIP3    H138674   6.248   0.736  13.697
 5753TIP3    H238675   6.102   0.778  13.699
 5754TIP3   OH238676   0.947   0.658   4.199
 5754TIP3    H138677   0.889   0.644   4.275
 5754TIP3    H238678   0.970   0.570   4.170
 5755TIP3   OH238679   4.776   0.156  14.975
 5755TIP3    H138680   4.853   0.198  14.935
 5755TIP3    H238681   4.808   0.126  15.060
 5756TIP3   OH238682   2.734   5.838  14.266
 5756TIP3    H138683   2.683   5.907  14.224
 5756TIP3    H238684   2.803   5.817  14.203
 5757TIP3   OH238685   5.517   3.506  15.616
 5757TIP3    H138686   5.587   3.509  15.682
 5757TIP3    H238687   5.484   3.416  15.621
 5758TIP3   OH238688   3.398   1.925  10.588
 5758TIP3    H138689   3.339   1.944  10.515
 5758TIP3    H238690   3.397   2.005  10.641
 5759TIP3   OH238691   1.800   4.459   1.192
 5759TIP3    H138692   1.822   4.550   1.214
 5759TIP3    H238693   1.708   4.450   1.216
 5760TIP3   OH238694   2.148   4.248   5.380
 5760TIP3    H138695   2.219   4.284   5.433
 5760TIP3    H238696   2.192   4.197   5.312
 5761TIP3   OH238697   1.871   1.155   4.517
 5761TIP3    H138698   1.937   1.192   4.576
 5761TIP3    H238699   1.886   1.060   4.522
 5762TIP3   OH238700   2.221   0.726  16.594
 5762TIP3    H138701   2.268   0.643  16.604
 5762TIP3    H238702   2.221   0.764  16.682
 5763TIP3   OH238703   0.449   3.438  16.853
 5763TIP3    H138704   0.465   3.512  16.795
 5763TIP3    H238705   0.511   3.450  16.925
 5764TIP3   OH238706   4.824   1.110   5.243
 5764TIP3    H138707   4.900   1.158   5.209
 5764TIP3    H238708   4.764   1.107   5.168
 5765TIP3   OH238709   5.888   2.005   4.187
 5765TIP3    H138710   5.829   1.987   4.113
 5765TIP3    H238711   5.964   1.949   4.171
 5766TIP3   OH238712   2.863   1.463  15.887
 5766TIP3    H138713   2.945   1.473  15.938
 5766TIP3    H238714   2.891   1.473  15.796
 5767TIP3   OH238715   0.666   1.642  10.161
 5767TIP3    H138716   0.581   1.601  10.175
 5767TIP3    H238717   0.721   1.608  10.231
 5768TIP3   OH238718   4.653   0.965  12.763
 5768TIP3    H138719   4.599   1.037  12.729
 5768TIP3    H238720   4.644   0.971  12.858
 5769TIP3   OH238721   4.492   3.662  16.502
 5769TIP3    H138722   4.412   3.704  16.470
 5769TIP3    H238723   4.533   3.625  16.424
 5770TIP3   OH238724   5.868   4.428   2.215
 5770TIP3    H138725   5.877   4.412   2.121
 5770TIP3    H238726   5.855   4.341   2.253
 5771TIP3   OH238727   2.214   4.885  15.218
 5771TIP3    H138728   2.198   4.798  15.254
 5771TIP3    H238729   2.218   4.943  15.294
 5772TIP3   OH238730   1.375   5.196  16.165
 5772TIP3    H138731   1.471   5.199  16.168
 5772TIP3    H238732   1.350   5.146  16.243
 5773TIP3   OH238733   4.862   6.624   1.877
 5773TIP3    H138734   4.843   6.539   1.916
 5773TIP3    H238735   4.951   6.645   1.908
 5774TIP3   OH238736   0.587   5.092  12.776
 5774TIP3    H138737   0.521   5.155  12.747
 5774TIP3    H238738   0.588   5.025  12.708
 5775TIP3   OH238739   1.102   1.333  14.871
 5775TIP3    H138740   1.067   1.296  14.952
 5775TIP3    H238741   1.041   1.305  14.803
 5776TIP3   OH238742   5.322   1.677  13.871
 5776TIP3    H138743   5.346   1.589  13.842
 5776TIP3    H238744   5.267   1.712  13.800
 5777TIP3   OH238745   3.185   2.259   2.000
 5777TIP3    H138746   3.218   2.274   2.089
 5777TIP3    H238747   3.250   2.201   1.960
 5778TIP3   OH238748   3.953   2.910  12.608
 5778TIP3    H138749   3.912   2.872  12.531
 5778TIP3    H238750   4.026   2.851  12.628
 5779TIP3   OH238751   6.623   4.385   0.236
 5779TIP3    H138752   6.583   4.315   0.185
 5779TIP3    H238753   6.555   4.413   0.297
 5780TIP3   OH238754   2.246   4.917   6.903
 5780TIP3    H138755   2.264   5.009   6.924
 5780TIP3    H238756   2.302   4.899   6.827
 5781TIP3   OH238757   4.242   1.070   3.709
 5781TIP3    H138758   4.208   1.055   3.620
 5781TIP3    H238759   4.210   0.995   3.760
 5782TIP3   OH238760   3.131   4.377   3.428
 5782TIP3    H138761   3.053   4.354   3.479
 5782TIP3    H238762   3.122   4.471   3.412
 5783TIP3   OH238763   6.097   5.181   3.893
 5783TIP3    H138764   6.147   5.262   3.878
 5783TIP3    H238765   6.085   5.178   3.988
 5784TIP3   OH238766   5.888   1.281  11.410
 5784TIP3    H138767   5.929   1.270  11.324
 5784TIP3    H238768   5.814   1.220  11.409
 5785TIP3   OH238769   0.924   5.140  14.502
 5785TIP3    H138770   0.890   5.055  14.475
 5785TIP3    H238771   0.975   5.122  14.581
 5786TIP3   OH238772   1.043   1.215   0.300
 5786TIP3    H138773   1.080   1.301   0.281
 5786TIP3    H238774   1.050   1.206   0.395
 5787TIP3   OH238775   1.556   1.254  10.857
 5787TIP3    H138776   1.518   1.275  10.772
 5787TIP3    H238777   1.646   1.288  10.853
 5788TIP3   OH238778   5.483   5.972   2.311
 5788TIP3    H138779   5.447   5.900   2.363
 5788TIP3    H238780   5.434   5.969   2.229
 5789TIP3   OH238781   5.452   0.371  15.392
 5789TIP3    H138782   5.485   0.439  15.451
 5789TIP3    H238783   5.528   0.314  15.377
 5790TIP3   OH238784   4.741   3.456   1.143
 5790TIP3    H138785   4.803   3.405   1.196
 5790TIP3    H238786   4.795   3.500   1.078
 5791TIP3   OH238787   3.565   3.849   1.145
 5791TIP3    H138788   3.641   3.806   1.184
 5791TIP3    H238789   3.490   3.800   1.178
 5792TIP3   OH238790   0.369   0.040   6.056
 5792TIP3    H138791   0.347  -0.053   6.050
 5792TIP3    H238792   0.444   0.044   6.115
 5793TIP3   OH238793   2.407   3.206  14.143
 5793TIP3    H138794   2.362   3.141  14.197
 5793TIP3    H238795   2.341   3.272  14.124
 5794TIP3   OH238796   1.466   1.762   0.435
 5794TIP3    H138797   1.511   1.784   0.516
 5794TIP3    H238798   1.520   1.693   0.396
 5795TIP3   OH238799   5.039   5.512   0.346
 5795TIP3    H138800   4.965   5.469   0.389
 5795TIP3    H238801   5.096   5.541   0.417
 5796TIP3   OH238802   1.629   5.880  13.855
 5796TIP3    H138803   1.588   5.934  13.788
 5796TIP3    H238804   1.710   5.849  13.815
 5797TIP3   OH238805   3.796   2.215   5.668
 5797TIP3    H138806   3.838   2.301   5.661
 5797TIP3    H238807   3.766   2.197   5.579
 5798TIP3   OH238808   6.609   5.829   3.173
 5798TIP3    H138809   6.594   5.905   3.230
 5798TIP3    H238810   6.681   5.782   3.214
 5799TIP3   OH238811   2.627   5.477   3.934
 5799TIP3    H138812   2.628   5.391   3.976
 5799TIP3    H238813   2.718   5.507   3.940
 5800TIP3   OH238814   4.478   6.068   1.867
 5800TIP3    H138815   4.492   6.060   1.772
 5800TIP3    H238816   4.512   6.154   1.890
 5801TIP3   OH238817   2.002   3.462  13.830
 5801TIP3    H138818   1.989   3.386  13.774
 5801TIP3    H238819   2.073   3.437  13.890
 5802TIP3   OH238820   4.307   0.681   4.957
 5802TIP3    H138821   4.384   0.625   4.947
 5802TIP3    H238822   4.254   0.637   5.024
 5803TIP3   OH238823   0.977   5.721   2.623
 5803TIP3    H138824   1.044   5.667   2.666
 5803TIP3    H238825   0.977   5.691   2.532
 5804TIP3   OH238826   3.226   0.826   0.140
 5804TIP3    H138827   3.312   0.836   0.181
 5804TIP3    H238828   3.232   0.878   0.060
 5805TIP3   OH238829   5.672   6.471   0.862
 5805TIP3    H138830   5.675   6.502   0.953
 5805TIP3    H238831   5.607   6.400   0.863
 5806TIP3   OH238832   0.256   2.613   4.209
 5806TIP3    H138833   0.294   2.607   4.121
 5806TIP3    H238834   0.332   2.628   4.267
 5807TIP3   OH238835   2.002   1.638  11.548
 5807TIP3    H138836   2.027   1.553  11.512
 5807TIP3    H238837   2.068   1.656  11.615
 5808TIP3   OH238838   1.538   0.157   6.113
 5808TIP3    H138839   1.610   0.216   6.132
 5808TIP3    H238840   1.555   0.080   6.167
 5809TIP3   OH238841   6.187   2.397   5.852
 5809TIP3    H138842   6.211   2.432   5.938
 5809TIP3    H238843   6.212   2.305   5.855
 5810TIP3   OH238844   4.590   6.346   1.985
 5810TIP3    H138845   4.517   6.391   1.943
 5810TIP3    H238846   4.555   6.316   2.068
 5811TIP3   OH238847   4.853   5.404   4.057
 5811TIP3    H138848   4.910   5.473   4.025
 5811TIP3    H238849   4.788   5.392   3.987
 5812TIP3   OH238850   4.288   6.442  14.415
 5812TIP3    H138851   4.353   6.383  14.377
 5812TIP3    H238852   4.320   6.459  14.504
 5813TIP3   OH238853   5.023   5.488  13.435
 5813TIP3    H138854   5.045   5.556  13.499
 5813TIP3    H238855   5.107   5.447  13.414
 5814TIP3   OH238856   6.203   4.267  11.849
 5814TIP3    H138857   6.182   4.287  11.940
 5814TIP3    H238858   6.199   4.171  11.843
 5815TIP3   OH238859   5.329   1.561  12.930
 5815TIP3    H138860   5.346   1.508  13.008
 5815TIP3    H238861   5.270   1.630  12.960
 5816TIP3   OH238862   1.021   5.343  14.722
 5816TIP3    H138863   1.104   5.389  14.736
 5816TIP3    H238864   1.047   5.258  14.687
 5817TIP3   OH238865   2.690   6.062   4.842
 5817TIP3    H138866   2.609   6.112   4.831
 5817TIP3    H238867   2.759   6.128   4.851
 5818TIP3   OH238868   5.411   0.756   0.111
 5818TIP3    H138869   5.380   0.803   0.188
 5818TIP3    H238870   5.369   0.801   0.037
 5819TIP3   OH238871   1.837   0.073  13.394
 5819TIP3    H138872   1.901   0.086  13.464
 5819TIP3    H238873   1.802   0.160  13.376
 5820TIP3   OH238874   3.302   0.974   1.262
 5820TIP3    H138875   3.222   1.024   1.278
 5820TIP3    H238876   3.362   1.038   1.222
 5821TIP3   OH238877   4.964   2.814  11.778
 5821TIP3    H138878   5.012   2.773  11.706
 5821TIP3    H238879   4.916   2.886  11.738
 5822TIP3   OH238880   5.633   1.838  14.849
 5822TIP3    H138881   5.624   1.745  14.871
 5822TIP3    H238882   5.544   1.866  14.828
 5823TIP3   OH238883   0.161   2.775   1.758
 5823TIP3    H138884   0.208   2.757   1.839
 5823TIP3    H238885   0.210   2.727   1.691
 5824TIP3   OH238886   5.650   5.744  12.568
 5824TIP3    H138887   5.655   5.826  12.617
 5824TIP3    H238888   5.561   5.745  12.531
 5825TIP3   OH238889   5.616   4.631   5.997
 5825TIP3    H138890   5.711   4.625   6.000
 5825TIP3    H238891   5.597   4.723   6.018
 5826TIP3   OH238892   1.893   0.869   0.913
 5826TIP3    H138893   1.944   0.834   0.840
 5826TIP3    H238894   1.804   0.877   0.878
 5827TIP3   OH238895   1.236   1.906  13.931
 5827TIP3    H138896   1.316   1.907  13.878
 5827TIP3    H238897   1.206   1.815  13.927
 5828TIP3   OH238898   1.847   5.112   1.678
 5828TIP3    H138899   1.847   5.120   1.582
 5828TIP3    H238900   1.903   5.184   1.707
 5829TIP3   OH238901   2.894   6.698  14.586
 5829TIP3    H138902   2.842   6.699  14.506
 5829TIP3    H238903   2.865   6.776  14.634
 5830TIP3   OH238904   0.899   6.458  11.956
 5830TIP3    H138905   0.949   6.402  11.897
 5830TIP3    H238906   0.900   6.411  12.040
 5831TIP3   OH238907   6.410   1.149   6.374
 5831TIP3    H138908   6.476   1.082   6.396
 5831TIP3    H238909   6.327   1.102   6.379
 5832TIP3   OH238910   0.976   4.636  16.057
 5832TIP3    H138911   0.987   4.729  16.039
 5832TIP3    H238912   0.887   4.628  16.090
 5833TIP3   OH238913   4.568   3.396  12.419
 5833TIP3    H138914   4.544   3.485  12.445
 5833TIP3    H238915   4.533   3.340  12.488
 5834TIP3   OH238916   4.927   3.364   5.940
 5834TIP3    H138917   4.928   3.286   5.995
 5834TIP3    H238918   5.019   3.387   5.927
 5835TIP3   OH238919   4.615   3.856   0.544
 5835TIP3    H138920   4.558   3.927   0.516
 5835TIP3    H238921   4.555   3.782   0.560
 5836TIP3   OH238922   2.628   2.324   0.394
 5836TIP3    H138923   2.603   2.272   0.470
 5836TIP3    H238924   2.721   2.305   0.381
 5837TIP3   OH238925   3.757   0.361  12.171
 5837TIP3    H138926   3.785   0.353  12.263
 5837TIP3    H238927   3.740   0.271  12.144
 5838TIP3   OH238928   3.140   3.870  14.822
 5838TIP3    H138929   3.060   3.858  14.874
 5838TIP3    H238930   3.191   3.791  14.840
 5839TIP3   OH238931   6.001   1.338   5.919
 5839TIP3    H138932   6.053   1.335   5.999
 5839TIP3    H238933   5.910   1.342   5.948
 5840TIP3   OH238934   2.939   5.498   1.877
 5840TIP3    H138935   2.955   5.467   1.787
 5840TIP3    H238936   2.969   5.588   1.877
 5841TIP3   OH238937   6.649   4.486  15.052
 5841TIP3    H138938   6.677   4.477  15.143
 5841TIP3    H238939   6.612   4.401  15.030
 5842TIP3   OH238940   0.938   3.931  12.229
 5842TIP3    H138941   1.015   3.898  12.182
 5842TIP3    H238942   0.931   4.023  12.203
 5843TIP3   OH238943   2.624   3.707  11.663
 5843TIP3    H138944   2.694   3.668  11.715
 5843TIP3    H238945   2.608   3.644  11.593
 5844TIP3   OH238946   3.861   2.605   1.321
 5844TIP3    H138947   3.950   2.631   1.297
 5844TIP3    H238948   3.867   2.579   1.413
 5845TIP3   OH238949   6.603   2.315  12.500
 5845TIP3    H138950   6.650   2.397  12.486
 5845TIP3    H238951   6.529   2.320  12.440
 5846TIP3   OH238952   5.867   2.892   3.810
 5846TIP3    H138953   5.773   2.877   3.798
 5846TIP3    H238954   5.909   2.820   3.764
 5847TIP3   OH238955   5.767   1.742  16.036
 5847TIP3    H138956   5.830   1.698  15.980
 5847TIP3    H238957   5.805   1.740  16.124
 5848TIP3   OH238958   0.655   1.039  13.595
 5848TIP3    H138959   0.602   0.987  13.535
 5848TIP3    H238960   0.714   0.977  13.637
 5849TIP3   OH238961   3.230   5.397   3.734
 5849TIP3    H138962   3.162   5.401   3.667
 5849TIP3    H238963   3.287   5.326   3.705
 5850TIP3   OH238964   1.186   6.450   1.709
 5850TIP3    H138965   1.279   6.466   1.693
 5850TIP3    H238966   1.184   6.372   1.765
 5851TIP3   OH238967   3.851   4.514  13.681
 5851TIP3    H138968   3.934   4.476  13.651
 5851TIP3    H238969   3.861   4.608  13.666
 5852TIP3   OH238970   6.010   0.915  14.909
 5852TIP3    H138971   5.968   0.838  14.948
 5852TIP3    H238972   6.062   0.879  14.836
 5853TIP3   OH238973   0.358   2.785   4.517
 5853TIP3    H138974   0.411   2.853   4.559
 5853TIP3    H238975   0.419   2.738   4.461
 5854TIP3   OH238976   3.206   4.948  11.300
 5854TIP3    H138977   3.276   4.883  11.305
 5854TIP3    H238978   3.249   5.031  11.319
 5855TIP3   OH238979   4.091   4.628   0.804
 5855TIP3    H138980   4.166   4.607   0.859
 5855TIP3    H238981   4.119   4.609   0.715
 5856TIP3   OH238982   5.154   5.143  16.097
 5856TIP3    H138983   5.151   5.058  16.139
 5856TIP3    H238984   5.131   5.125  16.005
 5857TIP3   OH238985   3.481   2.198  16.165
 5857TIP3    H138986   3.484   2.293  16.160
 5857TIP3    H238987   3.481   2.169  16.074
 5858TIP3   OH238988   3.200   2.225  11.359
 5858TIP3    H138989   3.166   2.144  11.398
 5858TIP3    H238990   3.200   2.208  11.265
 5859TIP3   OH238991   6.359   2.572  12.471
 5859TIP3    H138992   6.415   2.610  12.538
 5859TIP3    H238993   6.370   2.629  12.394
 5860TIP3   OH238994   0.409   4.134   0.338
 5860TIP3    H138995   0.479   4.192   0.311
 5860TIP3    H238996   0.438   4.047   0.311
 5861TIP3   OH238997   5.586   4.146   4.353
 5861TIP3    H138998   5.672   4.184   4.370
 5861TIP3    H238999   5.599   4.052   4.366
 5862TIP3   OH239000   0.644   0.499  17.220
 5862TIP3    H139001   0.636   0.548  17.302
 5862TIP3    H239002   0.724   0.534  17.179
 5863TIP3   OH239003   2.699   1.382  11.589
 5863TIP3    H139004   2.707   1.307  11.648
 5863TIP3    H239005   2.613   1.370  11.547
 5864TIP3   OH239006   2.812   4.665   4.712
 5864TIP3    H139007   2.807   4.571   4.730
 5864TIP3    H239008   2.745   4.704   4.769
 5865TIP3   OH239009   5.519   1.734   4.257
 5865TIP3    H139010   5.506   1.719   4.351
 5865TIP3    H239011   5.498   1.826   4.244
 5866TIP3   OH239012   1.402   3.703   1.992
 5866TIP3    H139013   1.314   3.665   1.989
 5866TIP3    H239014   1.461   3.629   1.981
 5867TIP3   OH239015   0.786   1.176   5.846
 5867TIP3    H139016   0.715   1.112   5.838
 5867TIP3    H239017   0.856   1.142   5.790
 5868TIP3   OH239018   4.141   0.710  12.919
 5868TIP3    H139019   4.113   0.675  12.835
 5868TIP3    H239020   4.078   0.674  12.982
 5869TIP3   OH239021   5.890   1.975  14.820
 5869TIP3    H139022   5.801   1.942  14.833
 5869TIP3    H239023   5.878   2.065  14.789
 5870TIP3   OH239024   6.772   5.319  13.593
 5870TIP3    H139025   6.732   5.262  13.658
 5870TIP3    H239026   6.796   5.260  13.521
 5871TIP3   OH239027   3.613   2.655  12.123
 5871TIP3    H139028   3.561   2.624  12.197
 5871TIP3    H239029   3.616   2.580  12.063
 5872TIP3   OH239030   6.526   5.740   4.823
 5872TIP3    H139031   6.601   5.699   4.780
 5872TIP3    H239032   6.556   5.828   4.845
 5873TIP3   OH239033   1.619   3.996   4.616
 5873TIP3    H139034   1.614   3.973   4.523
 5873TIP3    H239035   1.588   4.087   4.619
 5874TIP3   OH239036   6.437   1.784   1.293
 5874TIP3    H139037   6.443   1.694   1.260
 5874TIP3    H239038   6.424   1.774   1.388
 5875TIP3   OH239039   4.334   4.465   5.713
 5875TIP3    H139040   4.256   4.493   5.761
 5875TIP3    H239041   4.404   4.523   5.744
 5876TIP3   OH239042   2.493   0.317  16.975
 5876TIP3    H139043   2.576   0.314  16.927
 5876TIP3    H239044   2.428   0.285  16.912
 5877TIP3   OH239045   0.480   2.943   4.721
 5877TIP3    H139046   0.557   2.998   4.708
 5877TIP3    H239047   0.487   2.913   4.812
 5878TIP3   OH239048   2.831   3.656   4.631
 5878TIP3    H139049   2.762   3.626   4.690
 5878TIP3    H239050   2.902   3.594   4.643
 5879TIP3   OH239051   2.135   1.184  11.843
 5879TIP3    H139052   2.136   1.091  11.821
 5879TIP3    H239053   2.080   1.191  11.921
 5880TIP3   OH239054   6.182   6.288   5.675
 5880TIP3    H139055   6.228   6.300   5.758
 5880TIP3    H239056   6.205   6.365   5.623
 5881TIP3   OH239057   6.434   0.866  16.567
 5881TIP3    H139058   6.375   0.855  16.492
 5881TIP3    H239059   6.493   0.936  16.541
 5882TIP3   OH239060   3.915   2.069   0.718
 5882TIP3    H139061   3.905   2.124   0.640
 5882TIP3    H239062   3.853   2.105   0.781
 5883TIP3   OH239063   1.295   1.980   0.315
 5883TIP3    H139064   1.378   1.975   0.268
 5883TIP3    H239065   1.307   1.923   0.390
 5884TIP3   OH239066   1.515   2.741  16.351
 5884TIP3    H139067   1.539   2.683  16.279
 5884TIP3    H239068   1.422   2.759  16.337
 5885TIP3   OH239069   4.267   5.303   4.960
 5885TIP3    H139070   4.187   5.337   5.000
 5885TIP3    H239071   4.252   5.309   4.866
 5886TIP3   OH239072   0.789   2.559   6.114
 5886TIP3    H139073   0.825   2.642   6.146
 5886TIP3    H239074   0.758   2.514   6.192
 5887TIP3   OH239075   5.787   3.752  16.145
 5887TIP3    H139076   5.851   3.802  16.094
 5887TIP3    H239077   5.837   3.716  16.218
 5888TIP3   OH239078   3.479   2.746   0.673
 5888TIP3    H139079   3.447   2.670   0.722
 5888TIP3    H239080   3.466   2.723   0.581
 5889TIP3   OH239081   0.670   0.033   5.605
 5889TIP3    H139082   0.613  -0.039   5.580
 5889TIP3    H239083   0.749  -0.009   5.638
 5890TIP3   OH239084   0.482   3.365   5.515
 5890TIP3    H139085   0.451   3.378   5.425
 5890TIP3    H239086   0.458   3.275   5.536
 5891TIP3   OH239087   4.197   6.643  13.288
 5891TIP3    H139088   4.201   6.703  13.362
 5891TIP3    H239089   4.150   6.691  13.220
 5892TIP3   OH239090   4.718   4.578   2.359
 5892TIP3    H139091   4.783   4.593   2.291
 5892TIP3    H239092   4.745   4.496   2.400
 5893TIP3   OH239093   3.852   5.578  16.195
 5893TIP3    H139094   3.859   5.609  16.105
 5893TIP3    H239095   3.881   5.652  16.249
 5894TIP3   OH239096   6.733   6.047   3.788
 5894TIP3    H139097   6.804   6.019   3.847
 5894TIP3    H239098   6.671   5.974   3.789
 5895TIP3   OH239099   5.325   0.727  15.329
 5895TIP3    H139100   5.345   0.657  15.266
 5895TIP3    H239101   5.410   0.765  15.351
 5896TIP3   OH239102   6.480   1.597  17.079
 5896TIP3    H139103   6.433   1.677  17.101
 5896TIP3    H239104   6.520   1.568  17.161
 5897TIP3   OH239105   6.478   4.786  17.104
 5897TIP3    H139106   6.496   4.736  17.183
 5897TIP3    H239107   6.482   4.878  17.132
 5898TIP3   OH239108   0.174   3.459   3.153
 5898TIP3    H139109   0.181   3.366   3.131
 5898TIP3    H239110   0.088   3.484   3.122
 5899TIP3   OH239111   3.396   5.574  10.946
 5899TIP3    H139112   3.431   5.488  10.924
 5899TIP3    H239113   3.335   5.557  11.018
 5900TIP3   OH239114   0.957   0.882  11.314
 5900TIP3    H139115   0.897   0.899  11.387
 5900TIP3    H239116   0.944   0.790  11.292
 5901TIP3   OH239117   5.881   5.402  11.875
 5901TIP3    H139118   5.802   5.393  11.821
 5901TIP3    H239119   5.860   5.472  11.937
 5902TIP3   OH239120   3.312   2.551   0.251
 5902TIP3    H139121   3.307   2.514   0.163
 5902TIP3    H239122   3.304   2.475   0.309
 5903TIP3   OH239123   0.595   5.171   1.718
 5903TIP3    H139124   0.654   5.175   1.793
 5903TIP3    H239125   0.527   5.109   1.745
 5904TIP3   OH239126   5.699   1.510  15.807
 5904TIP3    H139127   5.647   1.498  15.887
 5904TIP3    H239128   5.637   1.547  15.744
 5905TIP3   OH239129   5.725   2.625  11.376
 5905TIP3    H139130   5.689   2.653  11.292
 5905TIP3    H239131   5.651   2.585  11.422
 5906TIP3   OH239132   4.508   0.739   6.440
 5906TIP3    H139133   4.516   0.668   6.376
 5906TIP3    H239134   4.487   0.816   6.388
 5907TIP3   OH239135   1.539   6.441  14.468
 5907TIP3    H139136   1.575   6.355  14.491
 5907TIP3    H239137   1.591   6.503  14.519
 5908TIP3   OH239138   0.888   3.989  11.719
 5908TIP3    H139139   0.912   4.060  11.660
 5908TIP3    H239140   0.927   4.014  11.803
 5909TIP3   OH239141   1.103   6.127  14.197
 5909TIP3    H139142   1.064   6.214  14.205
 5909TIP3    H239143   1.033   6.072  14.161
 5910TIP3   OH239144   2.260   2.597   5.238
 5910TIP3    H139145   2.328   2.540   5.202
 5910TIP3    H239146   2.266   2.677   5.185
 5911TIP3   OH239147   4.547   3.239  12.624
 5911TIP3    H139148   4.615   3.243  12.691
 5911TIP3    H239149   4.468   3.214  12.671
 5912TIP3   OH239150   6.475   4.379  11.763
 5912TIP3    H139151   6.398   4.325  11.743
 5912TIP3    H239152   6.536   4.361  11.692
 5913TIP3   OH239153   1.237   6.090  12.412
 5913TIP3    H139154   1.317   6.073  12.463
 5913TIP3    H239155   1.264   6.082  12.321
 5914TIP3   OH239156   6.278   0.432   0.633
 5914TIP3    H139157   6.242   0.447   0.721
 5914TIP3    H239158   6.366   0.470   0.637
 5915TIP3   OH239159   6.080   2.758   0.370
 5915TIP3    H139160   6.090   2.820   0.298
 5915TIP3    H239161   6.003   2.707   0.348
 5916TIP3   OH239162   0.796   6.754   3.025
 5916TIP3    H139163   0.731   6.822   3.047
 5916TIP3    H239164   0.746   6.673   3.021
 5917TIP3   OH239165   3.257   2.854   4.724
 5917TIP3    H139166   3.318   2.817   4.787
 5917TIP3    H239167   3.310   2.912   4.669
 5918TIP3   OH239168   3.565   0.078  14.776
 5918TIP3    H139169   3.601  -0.003  14.739
 5918TIP3    H239170   3.491   0.099  14.720
 5919TIP3   OH239171   2.070   1.938  13.020
 5919TIP3    H139172   2.089   1.918  12.928
 5919TIP3    H239173   2.096   2.030  13.031
 5920TIP3   OH239174   5.784   4.199   4.081
 5920TIP3    H139175   5.705   4.191   4.134
 5920TIP3    H239176   5.827   4.278   4.113
 5921TIP3   OH239177   5.336   3.248   2.365
 5921TIP3    H139178   5.305   3.334   2.392
 5921TIP3    H239179   5.330   3.194   2.443
 5922TIP3   OH239180   1.978   1.826   2.887
 5922TIP3    H139181   1.893   1.860   2.915
 5922TIP3    H239182   1.977   1.734   2.914
 5923TIP3   OH239183   2.853   5.675  11.015
 5923TIP3    H139184   2.890   5.588  11.000
 5923TIP3    H239185   2.839   5.710  10.926
 5924TIP3   OH239186   5.772   1.744  14.162
 5924TIP3    H139187   5.798   1.676  14.224
 5924TIP3    H239188   5.699   1.789  14.206
 5925TIP3   OH239189   6.631   5.712   1.805
 5925TIP3    H139190   6.576   5.685   1.879
 5925TIP3    H239191   6.634   5.808   1.810
 5926TIP3   OH239192   0.960   1.443   1.698
 5926TIP3    H139193   0.994   1.396   1.621
 5926TIP3    H239194   0.925   1.374   1.755
 5927TIP3   OH239195   4.989   1.927  15.317
 5927TIP3    H139196   4.895   1.942  15.306
 5927TIP3    H239197   5.005   1.843  15.275
 5928TIP3   OH239198   0.575   6.332  15.794
 5928TIP3    H139199   0.489   6.373  15.794
 5928TIP3    H239200   0.623   6.379  15.863
 5929TIP3   OH239201   2.076   0.165   5.412
 5929TIP3    H139202   2.038   0.101   5.352
 5929TIP3    H239203   2.002   0.192   5.466
 5930TIP3   OH239204   4.667   2.694  14.385
 5930TIP3    H139205   4.631   2.639  14.314
 5930TIP3    H239206   4.756   2.713  14.357
 5931TIP3   OH239207   0.327   5.588   0.820
 5931TIP3    H139208   0.347   5.551   0.905
 5931TIP3    H239209   0.287   5.673   0.839
 5932TIP3   OH239210   0.533   2.704  11.878
 5932TIP3    H139211   0.514   2.617  11.841
 5932TIP3    H239212   0.628   2.709  11.880
 5933TIP3   OH239213   0.650   4.075   3.617
 5933TIP3    H139214   0.610   4.161   3.616
 5933TIP3    H239215   0.600   4.025   3.682
 5934TIP3   OH239216   4.446   0.710  11.594
 5934TIP3    H139217   4.462   0.805  11.597
 5934TIP3    H239218   4.377   0.699  11.530
 5935TIP3   OH239219   4.450   5.958   2.479
 5935TIP3    H139220   4.420   5.868   2.466
 5935TIP3    H239221   4.373   6.012   2.459
 5936TIP3   OH239222   4.014   6.593   5.056
 5936TIP3    H139223   4.066   6.536   5.000
 5936TIP3    H239224   4.049   6.578   5.144
 5937TIP3   OH239225   5.158   5.386   5.206
 5937TIP3    H139226   5.063   5.376   5.216
 5937TIP3    H239227   5.172   5.481   5.211
 5938TIP3   OH239228   3.521   1.490   0.418
 5938TIP3    H139229   3.599   1.470   0.469
 5938TIP3    H239230   3.461   1.531   0.481
 5939TIP3   OH239231   4.345   1.868   2.376
 5939TIP3    H139232   4.415   1.930   2.398
 5939TIP3    H239233   4.366   1.838   2.288
 5940TIP3   OH239234   6.082   3.477   2.666
 5940TIP3    H139235   6.112   3.424   2.739
 5940TIP3    H239236   6.129   3.443   2.590
 5941TIP3   OH239237   3.227   6.360   2.513
 5941TIP3    H139238   3.156   6.378   2.574
 5941TIP3    H239239   3.303   6.403   2.551
 5942TIP3   OH239240   0.589   3.110  12.875
 5942TIP3    H139241   0.501   3.098  12.911
 5942TIP3    H239242   0.602   3.035  12.817
 5943TIP3   OH239243   3.783   0.342   3.312
 5943TIP3    H139244   3.708   0.349   3.252
 5943TIP3    H239245   3.830   0.264   3.282
 5944TIP3   OH239246   3.201   2.605  15.899
 5944TIP3    H139247   3.237   2.694  15.905
 5944TIP3    H239248   3.133   2.612  15.831
 5945TIP3   OH239249   1.217   4.719  13.647
 5945TIP3    H139250   1.136   4.761  13.618
 5945TIP3    H239251   1.214   4.725  13.743
 5946TIP3   OH239252   1.606   6.251   4.752
 5946TIP3    H139253   1.691   6.286   4.779
 5946TIP3    H239254   1.573   6.316   4.690
 5947TIP3   OH239255   2.762   1.610  13.103
 5947TIP3    H139256   2.854   1.629  13.125
 5947TIP3    H239257   2.756   1.627  13.009
 5948TIP3   OH239258   2.430   2.931  17.195
 5948TIP3    H139259   2.432   2.964  17.105
 5948TIP3    H239260   2.362   2.864  17.195
 5949TIP3   OH239261   0.093   2.922   0.326
 5949TIP3    H139262   0.048   2.849   0.370
 5949TIP3    H239263   0.153   2.956   0.392
 5950TIP3   OH239264   0.627   1.646   5.318
 5950TIP3    H139265   0.717   1.614   5.314
 5950TIP3    H239266   0.573   1.567   5.318
 5951TIP3   OH239267   1.185   6.142   4.910
 5951TIP3    H139268   1.123   6.187   4.967
 5951TIP3    H239269   1.160   6.050   4.915
 5952TIP3   OH239270   4.478   1.889  16.335
 5952TIP3    H139271   4.518   1.832  16.401
 5952TIP3    H239272   4.494   1.844  16.252
 5953TIP3   OH239273   3.560   1.814  15.588
 5953TIP3    H139274   3.588   1.906  15.582
 5953TIP3    H239275   3.594   1.774  15.508
 5954TIP3   OH239276   5.471   4.613   3.791
 5954TIP3    H139277   5.387   4.584   3.827
 5954TIP3    H239278   5.536   4.590   3.857
 5955TIP3   OH239279   4.815   6.102   5.584
 5955TIP3    H139280   4.898   6.059   5.565
 5955TIP3    H239281   4.807   6.170   5.517
 5956TIP3   OH239282   3.128   3.860  12.186
 5956TIP3    H139283   3.069   3.785  12.198
 5956TIP3    H239284   3.206   3.838  12.238
 5957TIP3   OH239285   0.379   3.806   5.815
 5957TIP3    H139286   0.416   3.776   5.732
 5957TIP3    H239287   0.434   3.765   5.882
 5958TIP3   OH239288   0.492   6.173   3.774
 5958TIP3    H139289   0.534   6.213   3.698
 5958TIP3    H239290   0.428   6.113   3.737
 5959TIP3   OH239291   2.831   3.111  14.412
 5959TIP3    H139292   2.738   3.130  14.399
 5959TIP3    H239293   2.832   3.023  14.451
 5960TIP3   OH239294   0.232   6.476   0.928
 5960TIP3    H139295   0.270   6.391   0.952
 5960TIP3    H239296   0.190   6.506   1.008
 5961TIP3   OH239297   0.394   4.448  13.992
 5961TIP3    H139298   0.461   4.500  13.949
 5961TIP3    H239299   0.312   4.471  13.947
 5962TIP3   OH239300   2.366   4.203   2.500
 5962TIP3    H139301   2.389   4.196   2.408
 5962TIP3    H239302   2.338   4.294   2.511
 5963TIP3   OH239303   0.283   4.185   4.805
 5963TIP3    H139304   0.245   4.264   4.844
 5963TIP3    H239305   0.290   4.205   4.712
 5964TIP3   OH239306   2.071   6.161  14.578
 5964TIP3    H139307   2.058   6.240  14.526
 5964TIP3    H239308   2.034   6.091  14.524
 5965TIP3   OH239309   4.497   5.561  12.845
 5965TIP3    H139310   4.514   5.571  12.939
 5965TIP3    H239311   4.502   5.650  12.810
 5966TIP3   OH239312   2.835   3.665   3.029
 5966TIP3    H139313   2.817   3.605   2.957
 5966TIP3    H239314   2.755   3.717   3.037
 5967TIP3   OH239315   1.440   1.697   3.502
 5967TIP3    H139316   1.384   1.713   3.427
 5967TIP3    H239317   1.529   1.699   3.466
 5968TIP3   OH239318   3.654   5.524  13.180
 5968TIP3    H139319   3.564   5.538  13.150
 5968TIP3    H239320   3.709   5.568  13.114
 5969TIP3   OH239321   0.258   5.101   0.057
 5969TIP3    H139322   0.300   5.168   0.003
 5969TIP3    H239323   0.232   5.146   0.137
 5970TIP3   OH239324   0.680   4.300  12.815
 5970TIP3    H139325   0.655   4.371  12.873
 5970TIP3    H239326   0.620   4.229  12.835
 5971TIP3   OH239327   4.276   4.402   3.048
 5971TIP3    H139328   4.345   4.412   3.114
 5971TIP3    H239329   4.323   4.404   2.965
 5972TIP3   OH239330   0.316   6.449   3.648
 5972TIP3    H139331   0.359   6.365   3.635
 5972TIP3    H239332   0.363   6.509   3.590
 5973TIP3   OH239333   1.903   5.176  11.156
 5973TIP3    H139334   1.992   5.187  11.124
 5973TIP3    H239335   1.852   5.150  11.079
 5974TIP3   OH239336   1.726   2.066  14.088
 5974TIP3    H139337   1.691   2.044  14.174
 5974TIP3    H239338   1.771   2.150  14.102
 5975TIP3   OH239339   4.789   5.174  13.067
 5975TIP3    H139340   4.830   5.240  13.122
 5975TIP3    H239341   4.860   5.115  13.043
 5976TIP3   OH239342   0.509   2.319   4.978
 5976TIP3    H139343   0.553   2.326   5.062
 5976TIP3    H239344   0.576   2.344   4.913
 5977TIP3   OH239345   4.788   6.653  14.914
 5977TIP3    H139346   4.782   6.747  14.899
 5977TIP3    H239347   4.786   6.615  14.826
 5978TIP3   OH239348   4.157   0.759   5.771
 5978TIP3    H139349   4.112   0.816   5.832
 5978TIP3    H239350   4.232   0.725   5.821
 5979TIP3   OH239351   5.331   2.938   4.137
 5979TIP3    H139352   5.252   2.938   4.190
 5979TIP3    H239353   5.309   2.881   4.062
 5980TIP3   OH239354   5.768   5.343  11.181
 5980TIP3    H139355   5.840   5.327  11.242
 5980TIP3    H239356   5.695   5.369  11.237
 5981TIP3   OH239357   5.444   0.894  15.841
 5981TIP3    H139358   5.491   0.846  15.772
 5981TIP3    H239359   5.453   0.838  15.918
 5982TIP3   OH239360   0.804   1.355  14.250
 5982TIP3    H139361   0.750   1.277  14.234
 5982TIP3    H239362   0.846   1.338  14.334
 5983TIP3   OH239363   5.755   2.760  14.442
 5983TIP3    H139364   5.831   2.722  14.486
 5983TIP3    H239365   5.692   2.688  14.436
 5984TIP3   OH239366   3.803   2.978   2.055
 5984TIP3    H139367   3.798   2.910   2.122
 5984TIP3    H239368   3.750   3.049   2.089
 5985TIP3   OH239369   0.651   5.495   5.786
 5985TIP3    H139370   0.633   5.424   5.848
 5985TIP3    H239371   0.740   5.478   5.756
 5986TIP3   OH239372   0.222   1.738  11.552
 5986TIP3    H139373   0.202   1.644  11.557
 5986TIP3    H239374   0.179   1.768  11.472
 5987TIP3   OH239375   0.247   4.396   6.017
 5987TIP3    H139376   0.291   4.359   6.093
 5987TIP3    H239377   0.188   4.463   6.052
 5988TIP3   OH239378   0.473   3.905   3.801
 5988TIP3    H139379   0.420   3.879   3.876
 5988TIP3    H239380   0.423   3.876   3.725
 5989TIP3   OH239381   6.152   5.910   2.587
 5989TIP3    H139382   6.161   5.837   2.527
 5989TIP3    H239383   6.238   5.917   2.629
 5990TIP3   OH239384   3.057   0.075   5.257
 5990TIP3    H139385   3.149   0.048   5.256
 5990TIP3    H239386   3.042   0.108   5.168
 5991TIP3   OH239387   2.092   6.528   5.091
 5991TIP3    H139388   2.121   6.559   5.005
 5991TIP3    H239389   2.088   6.433   5.082
 5992TIP3   OH239390   5.634   5.187  16.750
 5992TIP3    H139391   5.638   5.268  16.800
 5992TIP3    H239392   5.547   5.151  16.770
 5993TIP3   OH239393   3.314   0.166   2.307
 5993TIP3    H139394   3.312   0.260   2.327
 5993TIP3    H239395   3.282   0.160   2.217
 5994TIP3   OH239396   1.123   4.969   6.335
 5994TIP3    H139397   1.199   5.026   6.349
 5994TIP3    H239398   1.146   4.916   6.259
 5995TIP3   OH239399   2.545   5.091  15.242
 5995TIP3    H139400   2.532   5.134  15.327
 5995TIP3    H239401   2.493   5.143  15.181
 5996TIP3   OH239402   2.053   6.374  14.186
 5996TIP3    H139403   2.115   6.348  14.117
 5996TIP3    H239404   2.109   6.409  14.256
 5997TIP3   OH239405   1.296   4.881  16.123
 5997TIP3    H139406   1.297   4.871  16.028
 5997TIP3    H239407   1.266   4.971  16.138
 5998TIP3   OH239408   5.965   5.467   1.457
 5998TIP3    H139409   5.872   5.486   1.444
 5998TIP3    H239410   6.009   5.549   1.437
 5999TIP3   OH239411   1.562   2.178  15.263
 5999TIP3    H139412   1.655   2.158  15.269
 5999TIP3    H239413   1.537   2.205  15.352
 6000TIP3   OH239414   1.938   6.520  12.258
 6000TIP3    H139415   1.980   6.587  12.205
 6000TIP3    H239416   1.854   6.505  12.215
 6001TIP3   OH239417   2.602   5.733  12.272
 6001TIP3    H139418   2.692   5.720  12.303
 6001TIP3    H239419   2.613   5.766  12.182
 6002TIP3   OH239420   4.573   6.609   1.672
 6002TIP3    H139421   4.639   6.581   1.736
 6002TIP3    H239422   4.538   6.690   1.708
 6003TIP3   OH239423   0.105   1.541  14.485
 6003TIP3    H139424   0.177   1.554  14.423
 6003TIP3    H239425   0.027   1.533  14.430
 6004TIP3   OH239426   3.906   3.037  15.980
 6004TIP3    H139427   3.931   3.031  15.888
 6004TIP3    H239428   3.976   3.088  16.020
 6005TIP3   OH239429   0.393   0.670  13.635
 6005TIP3    H139430   0.376   0.674  13.729
 6005TIP3    H239431   0.307   0.659  13.596
 6006TIP3   OH239432   6.592   1.115  10.968
 6006TIP3    H139433   6.561   1.195  11.010
 6006TIP3    H239434   6.516   1.081  10.921
 6007TIP3   OH239435   1.291   4.495  16.207
 6007TIP3    H139436   1.331   4.446  16.279
 6007TIP3    H239437   1.261   4.576  16.248
 6008TIP3   OH239438   3.454   5.588  15.376
 6008TIP3    H139439   3.463   5.570  15.282
 6008TIP3    H239440   3.513   5.662  15.392
 6009TIP3   OH239441   4.704   0.365  12.283
 6009TIP3    H139442   4.693   0.433  12.216
 6009TIP3    H239443   4.775   0.397  12.338
 6010TIP3   OH239444   0.298   0.112  14.101
 6010TIP3    H139445   0.302   0.205  14.080
 6010TIP3    H239446   0.348   0.102  14.181
 6011TIP3   OH239447   5.948   1.028   3.365
 6011TIP3    H139448   6.043   1.025   3.377
 6011TIP3    H239449   5.924   0.938   3.342
 6012TIP3   OH239450   0.693   4.694   5.843
 6012TIP3    H139451   0.741   4.677   5.925
 6012TIP3    H239452   0.619   4.634   5.846
 6013TIP3   OH239453   2.629   6.338   5.460
 6013TIP3    H139454   2.669   6.270   5.405
 6013TIP3    H239455   2.686   6.414   5.450
 6014TIP3   OH239456   0.092   5.856  10.613
 6014TIP3    H139457   0.006   5.833  10.577
 6014TIP3    H239458   0.130   5.773  10.640
 6015TIP3   OH239459   1.380   1.249   2.631
 6015TIP3    H139460   1.388   1.326   2.687
 6015TIP3    H239461   1.328   1.188   2.683
 6016TIP3   OH239462   2.001   1.563  16.018
 6016TIP3    H139463   1.966   1.536  15.933
 6016TIP3    H239464   2.092   1.533  16.018
 6017TIP3   OH239465   1.732   4.687   0.633
 6017TIP3    H139466   1.807   4.669   0.576
 6017TIP3    H239467   1.765   4.672   0.722
 6018TIP3   OH239468   5.406   2.281  13.632
 6018TIP3    H139469   5.469   2.211  13.615
 6018TIP3    H239470   5.452   2.341  13.691
 6019TIP3   OH239471   6.502   2.020   6.185
 6019TIP3    H139472   6.555   2.081   6.237
 6019TIP3    H239473   6.415   2.025   6.223
 6020TIP3   OH239474   6.716   4.270  16.881
 6020TIP3    H139475   6.707   4.364  16.893
 6020TIP3    H239476   6.712   4.234  16.970
 6021TIP3   OH239477   0.763   1.179   0.195
 6021TIP3    H139478   0.734   1.120   0.264
 6021TIP3    H239479   0.847   1.213   0.225
 6022TIP3   OH239480   2.197   2.369  16.709
 6022TIP3    H139481   2.102   2.382  16.715
 6022TIP3    H239482   2.213   2.291  16.763
 6023TIP3   OH239483   0.588   4.894  16.889
 6023TIP3    H139484   0.501   4.870  16.920
 6023TIP3    H239485   0.604   4.981  16.925
 6024TIP3   OH239486   4.975   0.187   6.301
 6024TIP3    H139487   4.926   0.164   6.380
 6024TIP3    H239488   5.023   0.267   6.325
 6025TIP3   OH239489   3.746   4.595  12.291
 6025TIP3    H139490   3.768   4.526  12.354
 6025TIP3    H239491   3.650   4.598  12.292
 6026TIP3   OH239492   0.253   6.732  10.967
 6026TIP3    H139493   0.203   6.697  11.040
 6026TIP3    H239494   0.329   6.775  11.007
 6027TIP3   OH239495   4.188   6.714  11.903
 6027TIP3    H139496   4.272   6.672  11.882
 6027TIP3    H239497   4.142   6.648  11.955
 6028TIP3   OH239498   6.428   2.730  14.266
 6028TIP3    H139499   6.420   2.645  14.223
 6028TIP3    H239500   6.484   2.713  14.342
 6029TIP3   OH239501   6.215   2.121   5.620
 6029TIP3    H139502   6.160   2.043   5.623
 6029TIP3    H239503   6.285   2.103   5.682
 6030TIP3   OH239504   1.538   0.088   0.351
 6030TIP3    H139505   1.543   0.163   0.410
 6030TIP3    H239506   1.581   0.017   0.398
 6031TIP3   OH239507   1.715   1.158  16.901
 6031TIP3    H139508   1.697   1.214  16.976
 6031TIP3    H239509   1.634   1.159  16.849
 6032TIP3   OH239510   0.165   4.323  11.792
 6032TIP3    H139511   0.251   4.305  11.831
 6032TIP3    H239512   0.123   4.237  11.789
 6033TIP3   OH239513   4.916   3.516   0.938
 6033TIP3    H139514   4.911   3.456   0.864
 6033TIP3    H239515   5.002   3.499   0.977
 6034TIP3   OH239516   0.025   5.705   3.319
 6034TIP3    H139517   0.040   5.790   3.359
 6034TIP3    H239518   0.108   5.682   3.278
 6035TIP3   OH239519   3.297   0.725   2.017
 6035TIP3    H139520   3.251   0.809   2.011
 6035TIP3    H239521   3.311   0.699   1.926
 6036TIP3   OH239522   2.106   5.442  10.938
 6036TIP3    H139523   2.100   5.371  11.002
 6036TIP3    H239524   2.199   5.466  10.937
 6037TIP3   OH239525   6.644   2.169   6.342
 6037TIP3    H139526   6.614   2.099   6.400
 6037TIP3    H239527   6.671   2.239   6.402
 6038TIP3   OH239528   3.172   5.563   4.248
 6038TIP3    H139529   3.162   5.470   4.227
 6038TIP3    H239530   3.242   5.565   4.313
 6039TIP3   OH239531   3.365   2.305  12.278
 6039TIP3    H139532   3.299   2.343  12.336
 6039TIP3    H239533   3.328   2.220  12.252
 6040TIP3   OH239534   2.180   5.000   2.241
 6040TIP3    H139535   2.211   4.917   2.275
 6040TIP3    H239536   2.095   5.014   2.284
 6041TIP3   OH239537   2.326   3.259  16.576
 6041TIP3    H139538   2.375   3.293  16.651
 6041TIP3    H239539   2.246   3.222  16.615
 6042TIP3   OH239540   0.035   4.571   6.601
 6042TIP3    H139541   0.113   4.536   6.644
 6042TIP3    H239542   0.008   4.503   6.539
 6043TIP3   OH239543   1.929   6.757   0.701
 6043TIP3    H139544   1.999   6.695   0.684
 6043TIP3    H239545   1.967   6.821   0.761
 6044TIP3   OH239546   0.532   2.689  13.926
 6044TIP3    H139547   0.614   2.647  13.903
 6044TIP3    H239548   0.487   2.625  13.982
 6045TIP3   OH239549   0.896   6.627  11.270
 6045TIP3    H139550   0.828   6.588  11.326
 6045TIP3    H239551   0.866   6.610  11.181
 6046TIP3   OH239552   4.106   1.970  16.227
 6046TIP3    H139553   4.044   1.932  16.289
 6046TIP3    H239554   4.134   1.896  16.173
 6047TIP3   OH239555   3.818   2.473  17.194
 6047TIP3    H139556   3.755   2.481  17.266
 6047TIP3    H239557   3.770   2.503  17.117
 6048TIP3   OH239558   6.333   1.580  14.142
 6048TIP3    H139559   6.297   1.625  14.219
 6048TIP3    H239560   6.257   1.563  14.086
 6049TIP3   OH239561   4.364   6.772  13.795
 6049TIP3    H139562   4.404   6.689  13.822
 6049TIP3    H239563   4.417   6.839  13.838
 6050TIP3   OH239564   0.881   2.993   4.137
 6050TIP3    H139565   0.919   3.076   4.106
 6050TIP3    H239566   0.791   2.994   4.104
 6051TIP3   OH239567   4.295   5.320  10.147
 6051TIP3    H139568   4.347   5.372  10.086
 6051TIP3    H239569   4.205   5.331  10.117
 6052TIP3   OH239570   0.975   1.570   1.354
 6052TIP3    H139571   0.880   1.578   1.370
 6052TIP3    H239572   0.999   1.655   1.316
 6053TIP3   OH239573   4.438   2.541   2.041
 6053TIP3    H139574   4.450   2.475   2.109
 6053TIP3    H239575   4.456   2.624   2.085
 6054TIP3   OH239576   1.608   0.799   1.802
 6054TIP3    H139577   1.691   0.830   1.767
 6054TIP3    H239578   1.628   0.776   1.893
 6055TIP3   OH239579   0.162   5.117   0.992
 6055TIP3    H139580   0.181   5.061   0.917
 6055TIP3    H239581   0.125   5.197   0.954
 6056TIP3   OH239582   3.828   2.153  14.284
 6056TIP3    H139583   3.780   2.216  14.337
 6056TIP3    H239584   3.766   2.125  14.217
 6057TIP3   OH239585   1.388   0.303  12.664
 6057TIP3    H139586   1.294   0.292  12.678
 6057TIP3    H239587   1.425   0.216  12.678
 6058TIP3   OH239588   6.111   0.917   1.523
 6058TIP3    H139589   6.122   0.883   1.612
 6058TIP3    H239590   6.160   0.999   1.522
 6059TIP3   OH239591   6.354   1.677   1.542
 6059TIP3    H139592   6.421   1.625   1.586
 6059TIP3    H239593   6.282   1.682   1.605
 6060TIP3   OH239594   5.006   3.624   4.469
 6060TIP3    H139595   5.045   3.547   4.511
 6060TIP3    H239596   4.957   3.588   4.395
 6061TIP3   OH239597   0.742   2.866  13.138
 6061TIP3    H139598   0.682   2.917  13.193
 6061TIP3    H239599   0.707   2.777  13.139
 6062TIP3   OH239600   0.454   0.231  11.438
 6062TIP3    H139601   0.437   0.196  11.526
 6062TIP3    H239602   0.400   0.310  11.433
 6063TIP3   OH239603   6.545   3.980   1.627
 6063TIP3    H139604   6.546   3.956   1.719
 6063TIP3    H239605   6.457   4.017   1.613
 6064TIP3   OH239606   1.050   6.127  16.342
 6064TIP3    H139607   1.048   6.217  16.310
 6064TIP3    H239608   1.073   6.075  16.265
 6065TIP3   OH239609   6.504   2.968   1.873
 6065TIP3    H139610   6.459   2.954   1.957
 6065TIP3    H239611   6.546   2.884   1.855
 6066TIP3   OH239612   4.126   4.780  11.420
 6066TIP3    H139613   4.090   4.696  11.391
 6066TIP3    H239614   4.050   4.832  11.444
 6067TIP3   OH239615   6.748   3.475   1.573
 6067TIP3    H139616   6.800   3.402   1.606
 6067TIP3    H239617   6.770   3.480   1.480
 6068TIP3   OH239618   5.330   2.398  16.899
 6068TIP3    H139619   5.357   2.313  16.935
 6068TIP3    H239620   5.388   2.461  16.940
 6069TIP3   OH239621   6.050   5.716   1.421
 6069TIP3    H139622   6.017   5.725   1.332
 6069TIP3    H239623   6.013   5.790   1.469
 6070TIP3   OH239624   5.739   5.072  16.223
 6070TIP3    H139625   5.823   5.073  16.178
 6070TIP3    H239626   5.744   5.144  16.286
 6071TIP3   OH239627   5.433   0.573   5.776
 6071TIP3    H139628   5.341   0.569   5.803
 6071TIP3    H239629   5.456   0.483   5.755
 6072TIP3   OH239630   2.275   3.660   2.906
 6072TIP3    H139631   2.270   3.584   2.848
 6072TIP3    H239632   2.210   3.643   2.974
 6073TIP3   OH239633   1.566   4.431  11.819
 6073TIP3    H139634   1.628   4.463  11.884
 6073TIP3    H239635   1.580   4.488  11.743
 6074TIP3   OH239636   6.487   0.886   3.212
 6074TIP3    H139637   6.484   0.935   3.129
 6074TIP3    H239638   6.484   0.794   3.186
 6075TIP3   OH239639   5.630   4.839   2.366
 6075TIP3    H139640   5.597   4.799   2.286
 6075TIP3    H239641   5.613   4.774   2.435
 6076TIP3   OH239642   4.425   0.768   2.576
 6076TIP3    H139643   4.350   0.789   2.631
 6076TIP3    H239644   4.489   0.836   2.596
 6077TIP3   OH239645   3.450   0.553   0.378
 6077TIP3    H139646   3.539   0.587   0.386
 6077TIP3    H239647   3.454   0.465   0.416
 6078TIP3   OH239648   1.870   5.100   3.885
 6078TIP3    H139649   1.900   5.115   3.795
 6078TIP3    H239650   1.778   5.076   3.875
 6079TIP3   OH239651   5.285   4.701  12.495
 6079TIP3    H139652   5.212   4.733  12.442
 6079TIP3    H239653   5.332   4.781  12.522
 6080TIP3   OH239654   3.786   4.570  11.583
 6080TIP3    H139655   3.728   4.496  11.602
 6080TIP3    H239656   3.746   4.612  11.506
 6081TIP3   OH239657   4.275   6.692   4.378
 6081TIP3    H139658   4.274   6.614   4.322
 6081TIP3    H239659   4.355   6.682   4.430
 6082TIP3   OH239660   4.809   5.648  15.791
 6082TIP3    H139661   4.878   5.706  15.824
 6082TIP3    H239662   4.731   5.703  15.788
 6083TIP3   OH239663   1.154   2.485  15.392
 6083TIP3    H139664   1.116   2.570  15.370
 6083TIP3    H239665   1.079   2.431  15.417
 6084TIP3   OH239666   0.568   2.796   1.938
 6084TIP3    H139667   0.624   2.752   1.874
 6084TIP3    H239668   0.600   2.764   2.023
 6085TIP3   OH239669   3.911   1.093  15.930
 6085TIP3    H139670   3.919   1.081  15.835
 6085TIP3    H239671   3.994   1.134  15.956
 6086TIP3   OH239672   6.301   5.713   6.245
 6086TIP3    H139673   6.340   5.674   6.323
 6086TIP3    H239674   6.297   5.641   6.181
 6087TIP3   OH239675   4.227   6.488   5.966
 6087TIP3    H139676   4.253   6.563   6.020
 6087TIP3    H239677   4.250   6.411   6.019
 6088TIP3   OH239678   4.574   2.009   6.070
 6088TIP3    H139679   4.513   2.020   6.143
 6088TIP3    H239680   4.630   1.937   6.096
 6089TIP3   OH239681   5.449   5.489   4.034
 6089TIP3    H139682   5.522   5.431   4.016
 6089TIP3    H239683   5.377   5.431   4.058
 6090TIP3   OH239684   0.630   6.420   3.677
 6090TIP3    H139685   0.683   6.429   3.598
 6090TIP3    H239686   0.591   6.506   3.690
 6091TIP3   OH239687   4.258   1.260  10.917
 6091TIP3    H139688   4.346   1.223  10.906
 6091TIP3    H239689   4.208   1.225  10.843
 6092TIP3   OH239690   0.934   0.091  13.577
 6092TIP3    H139691   1.003   0.077  13.512
 6092TIP3    H239692   0.854   0.058  13.536
 6093TIP3   OH239693   6.686   3.720   4.311
 6093TIP3    H139694   6.638   3.644   4.277
 6093TIP3    H239695   6.636   3.795   4.278
 6094TIP3   OH239696   1.708   6.048   5.779
 6094TIP3    H139697   1.788   6.052   5.830
 6094TIP3    H239698   1.648   6.108   5.823
 6095TIP3   OH239699   4.053   6.540  15.395
 6095TIP3    H139700   3.965   6.572  15.417
 6095TIP3    H239701   4.045   6.507  15.305
 6096TIP3   OH239702   0.968   1.605  16.366
 6096TIP3    H139703   1.056   1.592  16.331
 6096TIP3    H239704   0.920   1.526  16.342
 6097TIP3   OH239705   1.490   1.977   3.160
 6097TIP3    H139706   1.531   2.008   3.079
 6097TIP3    H239707   1.515   1.885   3.166
 6098TIP3   OH239708   5.174   3.114   5.872
 6098TIP3    H139709   5.092   3.079   5.908
 6098TIP3    H239710   5.242   3.067   5.919
 6099TIP3   OH239711   2.489   2.754   3.844
 6099TIP3    H139712   2.397   2.753   3.869
 6099TIP3    H239713   2.532   2.697   3.907
 6100TIP3   OH239714   2.644   6.223   4.148
 6100TIP3    H139715   2.593   6.236   4.069
 6100TIP3    H239716   2.628   6.132   4.173
 6101TIP3   OH239717   3.698   4.406  14.630
 6101TIP3    H139718   3.657   4.398  14.716
 6101TIP3    H239719   3.686   4.321  14.589
 6102TIP3   OH239720   3.907   1.728   2.380
 6102TIP3    H139721   3.968   1.795   2.350
 6102TIP3    H239722   3.946   1.694   2.461
 6103TIP3   OH239723   5.226   6.538   0.362
 6103TIP3    H139724   5.173   6.598   0.310
 6103TIP3    H239725   5.288   6.500   0.299
 6104TIP3   OH239726   0.927   6.117   0.795
 6104TIP3    H139727   0.897   6.173   0.723
 6104TIP3    H239728   0.980   6.050   0.752
 6105TIP3   OH239729   3.416   0.871   4.613
 6105TIP3    H139730   3.341   0.861   4.671
 6105TIP3    H239731   3.456   0.784   4.610
 6106TIP3   OH239732   6.786   1.834   5.074
 6106TIP3    H139733   6.843   1.810   5.147
 6106TIP3    H239734   6.788   1.930   5.074
 6107TIP3   OH239735   2.477   3.166  11.585
 6107TIP3    H139736   2.553   3.216  11.616
 6107TIP3    H239737   2.509   3.118  11.509
 6108TIP3   OH239738   2.045   2.423  14.618
 6108TIP3    H139739   2.077   2.391  14.534
 6108TIP3    H239740   2.110   2.395  14.681
 6109TIP3   OH239741   6.675   4.666   0.438
 6109TIP3    H139742   6.642   4.618   0.514
 6109TIP3    H239743   6.604   4.660   0.373
 6110TIP3   OH239744   3.677   1.384  16.380
 6110TIP3    H139745   3.725   1.325  16.438
 6110TIP3    H239746   3.667   1.335  16.298
 6111TIP3   OH239747   5.863   2.065   0.799
 6111TIP3    H139748   5.876   2.079   0.705
 6111TIP3    H239749   5.938   2.011   0.825
 6112TIP3   OH239750   4.643   4.107  16.774
 6112TIP3    H139751   4.566   4.120  16.830
 6112TIP3    H239752   4.667   4.016  16.787
 6113TIP3   OH239753   3.782   2.537   0.852
 6113TIP3    H139754   3.748   2.563   0.937
 6113TIP3    H239755   3.744   2.450   0.836
 6114TIP3   OH239756   6.591   6.321  14.578
 6114TIP3    H139757   6.513   6.276  14.545
 6114TIP3    H239758   6.648   6.251  14.609
 6115TIP3   OH239759   4.144   3.609   2.137
 6115TIP3    H139760   4.193   3.688   2.117
 6115TIP3    H239761   4.197   3.538   2.102
 6116TIP3   OH239762   1.195   5.986   5.575
 6116TIP3    H139763   1.261   5.943   5.519
 6116TIP3    H239764   1.199   5.938   5.657
 6117TIP3   OH239765   4.778   4.808   5.204
 6117TIP3    H139766   4.727   4.867   5.259
 6117TIP3    H239767   4.864   4.849   5.197
 6118TIP3   OH239768   1.084   2.319  15.745
 6118TIP3    H139769   1.024   2.266  15.797
 6118TIP3    H239770   1.164   2.324  15.798
 6119TIP3   OH239771   3.918   1.797   1.790
 6119TIP3    H139772   3.981   1.851   1.743
 6119TIP3    H239773   3.940   1.809   1.882
 6120TIP3   OH239774   5.521   2.217  11.072
 6120TIP3    H139775   5.470   2.245  11.147
 6120TIP3    H239776   5.522   2.121  11.079
 6121TIP3   OH239777   5.686   0.492  11.926
 6121TIP3    H139778   5.714   0.496  12.018
 6121TIP3    H239779   5.654   0.403  11.915
 6122TIP3   OH239780   5.131   5.922  10.933
 6122TIP3    H139781   5.143   5.830  10.957
 6122TIP3    H239782   5.069   5.956  10.998
 6123TIP3   OH239783   6.280   5.102  16.441
 6123TIP3    H139784   6.358   5.124  16.390
 6123TIP3    H239785   6.311   5.040  16.507
 6124TIP3   OH239786   1.091   2.947   6.424
 6124TIP3    H139787   1.041   2.944   6.342
 6124TIP3    H239788   1.069   3.032   6.463
 6125TIP3   OH239789   3.827   6.597   5.539
 6125TIP3    H139790   3.778   6.567   5.615
 6125TIP3    H239791   3.780   6.560   5.464
 6126TIP3   OH239792   3.581   2.916   2.828
 6126TIP3    H139793   3.551   2.967   2.753
 6126TIP3    H239794   3.504   2.910   2.885
 6127TIP3   OH239795   3.183   0.436  11.451
 6127TIP3    H139796   3.153   0.394  11.371
 6127TIP3    H239797   3.244   0.374  11.490
 6128TIP3   OH239798   0.244   3.089  14.021
 6128TIP3    H139799   0.212   3.173  14.054
 6128TIP3    H239800   0.318   3.111  13.964
 6129TIP3   OH239801   1.358   1.287  16.597
 6129TIP3    H139802   1.425   1.329  16.543
 6129TIP3    H239803   1.283   1.277  16.538
 6130TIP3   OH239804   1.594   6.720   5.737
 6130TIP3    H139805   1.570   6.789   5.675
 6130TIP3    H239806   1.679   6.748   5.773
 6131TIP3   OH239807   0.128   6.669  16.954
 6131TIP3    H139808   0.096   6.634  16.870
 6131TIP3    H239809   0.050   6.672  17.010
 6132TIP3   OH239810   4.048   6.118  13.428
 6132TIP3    H139811   3.994   6.168  13.489
 6132TIP3    H239812   4.094   6.185  13.377
 6133TIP3   OH239813   4.514   1.682   2.975
 6133TIP3    H139814   4.448   1.617   3.000
 6133TIP3    H239815   4.582   1.631   2.931
 6134TIP3   OH239816   0.602   2.113   5.873
 6134TIP3    H139817   0.540   2.049   5.837
 6134TIP3    H239818   0.556   2.153   5.946
 6135TIP3   OH239819   6.437   0.782  15.557
 6135TIP3    H139820   6.524   0.785  15.517
 6135TIP3    H239821   6.430   0.694  15.593
 6136TIP3   OH239822   0.818   6.670   0.761
 6136TIP3    H139823   0.724   6.661   0.776
 6136TIP3    H239824   0.825   6.687   0.667
 6137TIP3   OH239825   2.932   5.712  13.145
 6137TIP3    H139826   2.943   5.800  13.181
 6137TIP3    H239827   2.848   5.716  13.099
 6138TIP3   OH239828   1.683   3.688   3.596
 6138TIP3    H139829   1.604   3.652   3.636
 6138TIP3    H239830   1.652   3.748   3.529
 6139TIP3   OH239831   1.264   4.303   1.097
 6139TIP3    H139832   1.194   4.259   1.145
 6139TIP3    H239833   1.273   4.253   1.016
 6140TIP3   OH239834   1.644   4.355   0.871
 6140TIP3    H139835   1.630   4.312   0.787
 6140TIP3    H239836   1.696   4.293   0.921
 6141TIP3   OH239837   2.691   0.238  12.646
 6141TIP3    H139838   2.772   0.190  12.663
 6141TIP3    H239839   2.623   0.170  12.642
 6142TIP3   OH239840   4.815   0.447  13.251
 6142TIP3    H139841   4.791   0.391  13.178
 6142TIP3    H239842   4.737   0.448  13.307
 6143TIP3   OH239843   3.634   3.976  15.267
 6143TIP3    H139844   3.563   4.002  15.326
 6143TIP3    H239845   3.713   4.012  15.307
 6144TIP3   OH239846   1.364   4.636  11.352
 6144TIP3    H139847   1.339   4.727  11.368
 6144TIP3    H239848   1.396   4.635  11.262
 6145TIP3   OH239849   0.821   3.586  12.851
 6145TIP3    H139850   0.837   3.668  12.804
 6145TIP3    H239851   0.746   3.547  12.806
 6146TIP3   OH239852   1.664   5.011  13.106
 6146TIP3    H139853   1.575   4.980  13.090
 6146TIP3    H239854   1.661   5.049  13.194
 6147TIP3   OH239855   2.942   2.535   3.887
 6147TIP3    H139856   2.876   2.481   3.844
 6147TIP3    H239857   2.962   2.604   3.824
 6148TIP3   OH239858   2.951   6.323   2.590
 6148TIP3    H139859   2.917   6.412   2.586
 6148TIP3    H239860   2.959   6.304   2.683
 6149TIP3   OH239861   5.840   6.117   6.573
 6149TIP3    H139862   5.817   6.060   6.499
 6149TIP3    H239863   5.763   6.173   6.584
 6150TIP3   OH239864   2.846   3.939  10.621
 6150TIP3    H139865   2.817   3.874  10.685
 6150TIP3    H239866   2.773   4.000  10.613
 6151TIP3   OH239867   2.539   4.727  12.604
 6151TIP3    H139868   2.554   4.649  12.658
 6151TIP3    H239869   2.529   4.693  12.515
 6152TIP3   OH239870   6.717   5.492  12.718
 6152TIP3    H139871   6.714   5.532  12.631
 6152TIP3    H239872   6.679   5.558  12.776
 6153TIP3   OH239873   5.467   6.543  12.228
 6153TIP3    H139874   5.401   6.534  12.297
 6153TIP3    H239875   5.551   6.532  12.272
 6154TIP3   OH239876   0.364   1.778  13.490
 6154TIP3    H139877   0.310   1.711  13.534
 6154TIP3    H239878   0.304   1.852  13.478
 6155TIP3   OH239879   1.904   2.875  11.830
 6155TIP3    H139880   1.863   2.820  11.896
 6155TIP3    H239881   1.949   2.814  11.772
 6156TIP3   OH239882   2.160   4.424  13.513
 6156TIP3    H139883   2.120   4.407  13.428
 6156TIP3    H239884   2.113   4.366  13.573
 6157TIP3   OH239885   0.293   5.445  16.820
 6157TIP3    H139886   0.231   5.398  16.764
 6157TIP3    H239887   0.341   5.502  16.759
 6158TIP3   OH239888   0.930   3.119   4.844
 6158TIP3    H139889   0.873   3.092   4.772
 6158TIP3    H239890   0.973   3.199   4.813
 6159TIP3   OH239891   1.138   5.320   2.549
 6159TIP3    H139892   1.169   5.311   2.639
 6159TIP3    H239893   1.213   5.296   2.495
 6160TIP3   OH239894   2.000   3.837  13.098
 6160TIP3    H139895   2.023   3.927  13.073
 6160TIP3    H239896   2.082   3.788  13.089
 6161TIP3   OH239897   0.344   0.314  12.709
 6161TIP3    H139898   0.295   0.334  12.629
 6161TIP3    H239899   0.411   0.383  12.713
 6162TIP3   OH239900   3.669   1.253   3.693
 6162TIP3    H139901   3.599   1.188   3.682
 6162TIP3    H239902   3.740   1.204   3.735
 6163TIP3   OH239903   2.531   3.130   2.489
 6163TIP3    H139904   2.511   3.120   2.582
 6163TIP3    H239905   2.447   3.151   2.448
 6164TIP3   OH239906   1.177   3.252   2.018
 6164TIP3    H139907   1.153   3.278   1.929
 6164TIP3    H239908   1.104   3.199   2.048
 6165TIP3   OH239909   6.379   0.246  12.781
 6165TIP3    H139910   6.296   0.265  12.825
 6165TIP3    H239911   6.433   0.205  12.849
 6166TIP3   OH239912   2.510   3.523  14.107
 6166TIP3    H139913   2.447   3.594  14.093
 6166TIP3    H239914   2.495   3.463  14.034
 6167TIP3   OH239915   4.205   5.809   5.263
 6167TIP3    H139916   4.197   5.856   5.181
 6167TIP3    H239917   4.131   5.749   5.265
 6168TIP3   OH239918   2.877   0.747  15.287
 6168TIP3    H139919   2.784   0.731  15.302
 6168TIP3    H239920   2.919   0.663  15.303
 6169TIP3   OH239921   2.027   1.337  11.592
 6169TIP3    H139922   1.956   1.284  11.628
 6169TIP3    H239923   2.103   1.314  11.645
 6170TIP3   OH239924   0.966   4.901  16.863
 6170TIP3    H139925   1.015   4.906  16.945
 6170TIP3    H239926   1.030   4.871  16.798
 6171TIP3   OH239927   3.337   1.824   2.281
 6171TIP3    H139928   3.287   1.899   2.249
 6171TIP3    H239929   3.405   1.811   2.215
 6172TIP3   OH239930   2.760   6.679   4.816
 6172TIP3    H139931   2.760   6.651   4.907
 6172TIP3    H239932   2.668   6.679   4.791
 6173TIP3   OH239933   4.649   5.030   4.374
 6173TIP3    H139934   4.689   5.066   4.295
 6173TIP3    H239935   4.614   5.107   4.420
 6174TIP3   OH239936   1.743   0.049  12.103
 6174TIP3    H139937   1.832   0.019  12.085
 6174TIP3    H239938   1.695  -0.030  12.128
 6175TIP3   OH239939   1.009   5.927   2.427
 6175TIP3    H139940   1.057   5.873   2.490
 6175TIP3    H239941   1.072   5.946   2.358
 6176TIP3   OH239942   3.803   1.728  13.028
 6176TIP3    H139943   3.730   1.690  13.078
 6176TIP3    H239944   3.880   1.709  13.081
 6177TIP3   OH239945   4.161   0.415  15.748
 6177TIP3    H139946   4.197   0.439  15.833
 6177TIP3    H239947   4.219   0.458  15.684
 6178TIP3   OH239948   5.125   0.836   4.675
 6178TIP3    H139949   5.034   0.821   4.703
 6178TIP3    H239950   5.155   0.910   4.729
 6179TIP3   OH239951   1.217   0.470  13.897
 6179TIP3    H139952   1.300   0.427  13.919
 6179TIP3    H239953   1.241   0.559  13.873
 6180TIP3   OH239954   6.510   6.670   4.868
 6180TIP3    H139955   6.521   6.728   4.943
 6180TIP3    H239956   6.570   6.597   4.886
 6181TIP3   OH239957   4.441   3.887  12.318
 6181TIP3    H139958   4.514   3.930  12.273
 6181TIP3    H239959   4.464   3.892  12.411
 6182TIP3   OH239960   5.302   0.961   1.205
 6182TIP3    H139961   5.345   0.898   1.147
 6182TIP3    H239962   5.371   1.023   1.228
 6183TIP3   OH239963   2.559   3.231   4.642
 6183TIP3    H139964   2.464   3.226   4.655
 6183TIP3    H239965   2.591   3.279   4.718
 6184TIP3   OH239966   5.249   6.192   4.902
 6184TIP3    H139967   5.301   6.116   4.928
 6184TIP3    H239968   5.276   6.209   4.812
 6185TIP3   OH239969   5.632   1.650   1.054
 6185TIP3    H139970   5.576   1.596   0.998
 6185TIP3    H239971   5.719   1.646   1.014
 6186TIP3   OH239972   5.050   1.337  13.317
 6186TIP3    H139973   5.101   1.293  13.385
 6186TIP3    H239974   5.050   1.429  13.342
 6187TIP3   OH239975   2.373   2.787   2.770
 6187TIP3    H139976   2.431   2.775   2.695
 6187TIP3    H239977   2.420   2.848   2.827
 6188TIP3   OH239978   1.192   2.118   6.295
 6188TIP3    H139979   1.163   2.192   6.348
 6188TIP3    H239980   1.117   2.096   6.240
 6189TIP3   OH239981   1.606   5.275  13.787
 6189TIP3    H139982   1.595   5.369  13.805
 6189TIP3    H239983   1.663   5.272  13.710
 6190TIP3   OH239984   2.124   4.577  12.364
 6190TIP3    H139985   2.142   4.538  12.279
 6190TIP3    H239986   2.029   4.581  12.369
 6191TIP3   OH239987   4.574   4.456  12.627
 6191TIP3    H139988   4.638   4.395  12.664
 6191TIP3    H239989   4.505   4.461  12.692
 6192TIP3   OH239990   0.162   0.199  12.901
 6192TIP3    H139991   0.124   0.282  12.930
 6192TIP3    H239992   0.234   0.224  12.843
 6193TIP3   OH239993   3.378   2.954  15.353
 6193TIP3    H139994   3.338   3.039  15.333
 6193TIP3    H239995   3.417   2.966  15.439
 6194TIP3   OH239996   2.753   0.816   3.524
 6194TIP3    H139997   2.666   0.840   3.492
 6194TIP3    H239998   2.755   0.720   3.519
 6195TIP3   OH239999   2.613   4.748   0.791
 6195TIP3    H140000   2.654   4.671   0.750
 6195TIP3    H240001   2.549   4.778   0.726
 6196TIP3   OH240002   5.873   4.981  12.016
 6196TIP3    H140003   5.876   4.939  12.102
 6196TIP3    H240004   5.964   4.981  11.986
 6197TIP3   OH240005   0.174   0.537  13.554
 6197TIP3    H140006   0.252   0.483  13.566
 6197TIP3    H240007   0.101   0.475  13.558
 6198TIP3   OH240008   2.805   4.146   2.885
 6198TIP3    H140009   2.837   4.068   2.839
 6198TIP3    H240010   2.879   4.173   2.939
 6199TIP3   OH240011   5.999   2.181  15.555
 6199TIP3    H140012   6.055   2.215  15.624
 6199TIP3    H240013   5.966   2.260  15.510
 6200TIP3   OH240014   1.899   4.728  16.022
 6200TIP3    H140015   1.877   4.716  16.115
 6200TIP3    H240016   1.940   4.814  16.018
 6201TIP3   OH240017   5.754   3.740   0.808
 6201TIP3    H140018   5.722   3.824   0.774
 6201TIP3    H240019   5.675   3.695   0.838
 6202TIP3   OH240020   6.165   5.127   1.271
 6202TIP3    H140021   6.155   5.106   1.178
 6202TIP3    H240022   6.256   5.155   1.280
 6203TIP3   OH240023   2.006   3.171  13.753
 6203TIP3    H140024   2.055   3.106  13.702
 6203TIP3    H240025   2.062   3.189  13.828
 6204TIP3   OH240026   0.737   0.729  13.223
 6204TIP3    H140027   0.663   0.789  13.206
 6204TIP3    H240028   0.716   0.688  13.306
 6205TIP3   OH240029   5.853   5.694   3.009
 6205TIP3    H140030   5.892   5.780   2.996
 6205TIP3    H240031   5.759   5.710   3.011
 6206TIP3   OH240032   6.331   5.395  14.207
 6206TIP3    H140033   6.252   5.436  14.241
 6206TIP3    H240034   6.299   5.323  14.152
 6207TIP3   OH240035   4.918   3.823  13.661
 6207TIP3    H140036   4.973   3.764  13.712
 6207TIP3    H240037   4.829   3.805  13.692
 6208TIP3   OH240038   5.327   2.522  14.208
 6208TIP3    H140039   5.420   2.537  14.190
 6208TIP3    H240040   5.314   2.428  14.193
 6209TIP3   OH240041   2.804   2.986   5.089
 6209TIP3    H140042   2.825   2.921   5.022
 6209TIP3    H240043   2.742   2.942   5.147
 6210TIP3   OH240044   2.552   5.112  15.896
 6210TIP3    H140045   2.602   5.190  15.874
 6210TIP3    H240046   2.601   5.040  15.855
 6211TIP3   OH240047   4.984   2.916   4.045
 6211TIP3    H140048   4.963   3.009   4.033
 6211TIP3    H240049   5.032   2.893   3.966
 6212TIP3   OH240050   2.796   3.690  12.755
 6212TIP3    H140051   2.725   3.664  12.814
 6212TIP3    H240052   2.754   3.747  12.691
 6213TIP3   OH240053   4.765   6.401   5.703
 6213TIP3    H140054   4.696   6.440   5.649
 6213TIP3    H240055   4.729   6.316   5.729
 6214TIP3   OH240056   0.976   4.888  10.685
 6214TIP3    H140057   1.040   4.919  10.621
 6214TIP3    H240058   0.970   4.794  10.669
 6215TIP3   OH240059   2.764   5.331   2.747
 6215TIP3    H140060   2.836   5.271   2.727
 6215TIP3    H240061   2.779   5.406   2.689
 6216TIP3   OH240062   6.124   6.070   2.848
 6216TIP3    H140063   6.131   5.982   2.884
 6216TIP3    H240064   6.145   6.061   2.755
 6217TIP3   OH240065   1.066   2.089  15.310
 6217TIP3    H140066   1.154   2.067  15.279
 6217TIP3    H240067   1.013   2.094  15.230
 6218TIP3   OH240068   1.246   4.710   1.046
 6218TIP3    H140069   1.267   4.801   1.026
 6218TIP3    H240070   1.311   4.684   1.112
 6219TIP3   OH240071   1.504   0.328   3.019
 6219TIP3    H140072   1.433   0.266   3.030
 6219TIP3    H240073   1.582   0.281   3.050
 6220TIP3   OH240074   1.414   2.956   2.989
 6220TIP3    H140075   1.320   2.973   2.998
 6220TIP3    H240076   1.456   3.037   3.018
 6221TIP3   OH240077   5.132   3.402   4.178
 6221TIP3    H140078   5.213   3.384   4.225
 6221TIP3    H240079   5.150   3.480   4.126
 6222TIP3   OH240080   3.580   2.495  10.638
 6222TIP3    H140081   3.601   2.423  10.579
 6222TIP3    H240082   3.510   2.461  10.693
 6223TIP3   OH240083   0.189   1.438   0.746
 6223TIP3    H140084   0.277   1.468   0.767
 6223TIP3    H240085   0.200   1.385   0.666
 6224TIP3   OH240086   2.770   4.950  15.855
 6224TIP3    H140087   2.794   4.963  15.947
 6224TIP3    H240088   2.838   4.995  15.805
 6225TIP3   OH240089   3.355   4.884   4.636
 6225TIP3    H140090   3.271   4.837   4.633
 6225TIP3    H240091   3.421   4.815   4.631
 6226TIP3   OH240092   6.398   1.301  14.214
 6226TIP3    H140093   6.421   1.264  14.129
 6226TIP3    H240094   6.369   1.390  14.194
 6227TIP3   OH240095   6.542   0.369   0.183
 6227TIP3    H140096   6.497   0.285   0.174
 6227TIP3    H240097   6.631   0.353   0.151
 6228TIP3   OH240098   3.176   1.239  13.393
 6228TIP3    H140099   3.099   1.202  13.436
 6228TIP3    H240100   3.166   1.333  13.403
 6229TIP3   OH240101   1.458   0.117   5.283
 6229TIP3    H140102   1.419   0.039   5.244
 6229TIP3    H240103   1.452   0.184   5.214
 6230TIP3   OH240104   5.126   2.168  13.626
 6230TIP3    H140105   5.129   2.136  13.536
 6230TIP3    H240106   5.218   2.167  13.654
 6231TIP3   OH240107   5.121   3.401   4.564
 6231TIP3    H140108   5.057   3.353   4.618
 6231TIP3    H240109   5.205   3.362   4.587
 6232TIP3   OH240110   6.451   4.741  12.342
 6232TIP3    H140111   6.436   4.822  12.392
 6232TIP3    H240112   6.545   4.727  12.347
 6233TIP3   OH240113   6.572   3.765  16.840
 6233TIP3    H140114   6.587   3.674  16.866
 6233TIP3    H240115   6.531   3.805  16.916
 6234TIP3   OH240116   5.989   5.412   2.605
 6234TIP3    H140117   5.997   5.319   2.587
 6234TIP3    H240118   6.078   5.439   2.630
 6235TIP3   OH240119   0.138   4.984   1.910
 6235TIP3    H140120   0.067   4.971   1.847
 6235TIP3    H240121   0.109   5.059   1.963
 6236TIP3   OH240122   2.741   2.626   2.352
 6236TIP3    H140123   2.696   2.618   2.268
 6236TIP3    H240124   2.744   2.536   2.386
 6237TIP3   OH240125   3.139   0.760   3.434
 6237TIP3    H140126   3.230   0.751   3.406
 6237TIP3    H240127   3.141   0.829   3.500
 6238TIP3   OH240128   2.724   3.521   1.447
 6238TIP3    H140129   2.819   3.534   1.451
 6238TIP3    H240130   2.688   3.609   1.436
 6239TIP3   OH240131   6.158   0.013   4.276
 6239TIP3    H140132   6.170  -0.037   4.195
 6239TIP3    H240133   6.246   0.041   4.300
 6240TIP3   OH240134   5.999   6.511   2.073
 6240TIP3    H140135   6.077   6.456   2.081
 6240TIP3    H240136   5.965   6.492   1.986
 6241TIP3   OH240137   2.252   1.587   6.588
 6241TIP3    H140138   2.276   1.560   6.676
 6241TIP3    H240139   2.277   1.680   6.584
 6242TIP3   OH240140   4.853   2.201   0.559
 6242TIP3    H140141   4.895   2.206   0.474
 6242TIP3    H240142   4.908   2.140   0.610
 6243TIP3   OH240143   3.304   3.347  13.498
 6243TIP3    H140144   3.276   3.256  13.502
 6243TIP3    H240145   3.318   3.372  13.590
 6244TIP3   OH240146   1.139   3.754  16.992
 6244TIP3    H140147   1.061   3.699  16.981
 6244TIP3    H240148   1.116   3.837  16.949
 6245TIP3   OH240149   5.470   0.434  12.230
 6245TIP3    H140150   5.390   0.433  12.284
 6245TIP3    H240151   5.506   0.522  12.242
 6246TIP3   OH240152   3.651   4.016  14.159
 6246TIP3    H140153   3.661   4.069  14.080
 6246TIP3    H240154   3.677   4.074  14.230
 6247TIP3   OH240155   5.274   1.966   3.142
 6247TIP3    H140156   5.194   2.008   3.173
 6247TIP3    H240157   5.343   2.029   3.160
 6248TIP3   OH240158   4.639   6.768   4.871
 6248TIP3    H140159   4.722   6.753   4.826
 6248TIP3    H240160   4.627   6.691   4.927
 6249TIP3   OH240161   0.706   4.927  11.794
 6249TIP3    H140162   0.761   4.853  11.818
 6249TIP3    H240163   0.679   4.966  11.877
 6250TIP3   OH240164   2.081   4.823  12.882
 6250TIP3    H140165   2.027   4.888  12.927
 6250TIP3    H240166   2.169   4.860  12.881
 6251TIP3   OH240167   3.893   4.424   5.820
 6251TIP3    H140168   3.879   4.433   5.915
 6251TIP3    H240169   3.977   4.468   5.805
 6252TIP3   OH240170   3.922   6.309  13.169
 6252TIP3    H140171   3.921   6.367  13.245
 6252TIP3    H240172   3.836   6.268  13.169
 6253TIP3   OH240173   5.740   2.929   1.767
 6253TIP3    H140174   5.729   2.985   1.844
 6253TIP3    H240175   5.727   2.840   1.800
 6254TIP3   OH240176   0.792   1.185   1.352
 6254TIP3    H140177   0.779   1.256   1.289
 6254TIP3    H240178   0.881   1.199   1.386
 6255TIP3   OH240179   1.841   6.669  12.579
 6255TIP3    H140180   1.792   6.587  12.571
 6255TIP3    H240181   1.920   6.655  12.527
 6256TIP3   OH240182   3.008   3.988   6.013
 6256TIP3    H140183   2.930   4.039   5.988
 6256TIP3    H240184   3.041   3.954   5.930
 6257TIP3   OH240185   0.645   1.980   0.062
 6257TIP3    H140186   0.574   1.937   0.109
 6257TIP3    H240187   0.723   1.928   0.085
 6258TIP3   OH240188   2.058   4.974  16.052
 6258TIP3    H140189   1.988   5.032  16.081
 6258TIP3    H240190   2.130   5.032  16.028
 6259TIP3   OH240191   0.252   5.451  12.920
 6259TIP3    H140192   0.317   5.510  12.958
 6259TIP3    H240193   0.168   5.489  12.946
 6260TIP3   OH240194   1.871   3.071   4.326
 6260TIP3    H140195   1.832   3.131   4.390
 6260TIP3    H240196   1.948   3.118   4.293
 6261TIP3   OH240197   5.657   3.230   3.721
 6261TIP3    H140198   5.578   3.175   3.713
 6261TIP3    H240199   5.689   3.213   3.809
 6262TIP3   OH240200   3.727   1.359   4.656
 6262TIP3    H140201   3.775   1.438   4.681
 6262TIP3    H240202   3.773   1.288   4.701
 6263TIP3   OH240203   3.793   1.809  13.488
 6263TIP3    H140204   3.749   1.796  13.404
 6263TIP3    H240205   3.886   1.816  13.466
 6264TIP3   OH240206   5.345   0.765   1.851
 6264TIP3    H140207   5.412   0.829   1.875
 6264TIP3    H240208   5.280   0.816   1.802
 6265TIP3   OH240209   4.060   3.747   5.975
 6265TIP3    H140210   4.012   3.688   6.033
 6265TIP3    H240211   4.073   3.826   6.027
 6266TIP3   OH240212   3.650   5.212   2.849
 6266TIP3    H140213   3.690   5.141   2.900
 6266TIP3    H240214   3.723   5.268   2.824
 6267TIP3   OH240215   4.652   3.878  15.348
 6267TIP3    H140216   4.564   3.909  15.368
 6267TIP3    H240217   4.700   3.886  15.430
 6268TIP3   OH240218   1.943   4.953  17.160
 6268TIP3    H140219   2.000   5.030  17.167
 6268TIP3    H240220   1.996   4.887  17.117
 6269TIP3   OH240221   1.558   0.557  15.616
 6269TIP3    H140222   1.477   0.506  15.611
 6269TIP3    H240223   1.614   0.508  15.676
 6270TIP3   OH240224   5.513   3.234   5.286
 6270TIP3    H140225   5.448   3.269   5.347
 6270TIP3    H240226   5.566   3.310   5.262
 6271TIP3   OH240227   4.762   6.117  14.209
 6271TIP3    H140228   4.694   6.100  14.143
 6271TIP3    H240229   4.844   6.109  14.161
 6272TIP3   OH240230   1.475   3.903   2.172
 6272TIP3    H140231   1.484   3.859   2.256
 6272TIP3    H240232   1.453   3.833   2.110
 6273TIP3   OH240233   3.030   6.724  11.726
 6273TIP3    H140234   2.959   6.752  11.784
 6273TIP3    H240235   3.003   6.752  11.639
 6274TIP3   OH240236   2.044   2.242   0.706
 6274TIP3    H140237   1.960   2.277   0.734
 6274TIP3    H240238   2.061   2.169   0.766
 6275TIP3   OH240239   5.518   0.145   5.444
 6275TIP3    H140240   5.563   0.081   5.499
 6275TIP3    H240241   5.457   0.093   5.391
 6276TIP3   OH240242   6.723   1.642  13.482
 6276TIP3    H140243   6.673   1.564  13.460
 6276TIP3    H240244   6.665   1.692  13.540
 6277TIP3   OH240245   1.821   0.157   0.241
 6277TIP3    H140246   1.845   0.210   0.317
 6277TIP3    H240247   1.736   0.118   0.265
 6278TIP3   OH240248   3.485   4.107   2.926
 6278TIP3    H140249   3.527   4.026   2.899
 6278TIP3    H240250   3.556   4.160   2.963
 6279TIP3   OH240251   6.635   2.532   3.046
 6279TIP3    H140252   6.695   2.462   3.020
 6279TIP3    H240253   6.595   2.501   3.127
 6280TIP3   OH240254   0.377   5.072  11.084
 6280TIP3    H140255   0.459   5.031  11.109
 6280TIP3    H240256   0.342   5.109  11.166
 6281TIP3   OH240257   4.663   2.840   5.344
 6281TIP3    H140258   4.599   2.911   5.350
 6281TIP3    H240259   4.716   2.861   5.267
 6282TIP3   OH240260   1.255   4.120   4.486
 6282TIP3    H140261   1.337   4.157   4.518
 6282TIP3    H240262   1.278   4.076   4.404
 6283TIP3   OH240263   5.410   0.439   3.384
 6283TIP3    H140264   5.442   0.529   3.370
 6283TIP3    H240265   5.435   0.419   3.474
 6284TIP3   OH240266   0.056   6.695   3.946
 6284TIP3    H140267   0.090   6.643   4.018
 6284TIP3    H240268   0.111   6.773   3.945
 6285TIP3   OH240269   0.441   5.366  11.023
 6285TIP3    H140270   0.482   5.282  11.045
 6285TIP3    H240271   0.509   5.415  10.978
 6286TIP3   OH240272   2.057   1.863   0.584
 6286TIP3    H140273   2.111   1.935   0.555
 6286TIP3    H240274   2.082   1.789   0.528
 6287TIP3   OH240275   3.238   3.221   0.606
 6287TIP3    H140276   3.170   3.275   0.647
 6287TIP3    H240277   3.286   3.282   0.549
 6288TIP3   OH240278   5.912   4.032  16.681
 6288TIP3    H140279   5.868   3.956  16.644
 6288TIP3    H240280   5.993   3.997  16.719
 6289TIP3   OH240281   2.252   1.129  12.754
 6289TIP3    H140282   2.285   1.196  12.695
 6289TIP3    H240283   2.329   1.079  12.780
 6290TIP3   OH240284   4.232   4.698  11.826
 6290TIP3    H140285   4.196   4.784  11.806
 6290TIP3    H240286   4.201   4.679  11.915
 6291TIP3   OH240287   1.534   1.114  16.691
 6291TIP3    H140288   1.596   1.121  16.618
 6291TIP3    H240289   1.475   1.188  16.678
 6292TIP3   OH240290   2.039   5.890   5.219
 6292TIP3    H140291   1.995   5.974   5.203
 6292TIP3    H240292   2.001   5.858   5.300
 6293TIP3   OH240293   1.846   2.490  10.575
 6293TIP3    H140294   1.930   2.511  10.532
 6293TIP3    H240295   1.857   2.399  10.602
 6294TIP3   OH240296   4.929   1.245  14.546
 6294TIP3    H140297   4.910   1.163  14.591
 6294TIP3    H240298   4.874   1.243  14.468
 6295TIP3   OH240299   3.791   0.026  13.725
 6295TIP3    H140300   3.748   0.093  13.779
 6295TIP3    H240301   3.884   0.039  13.739
 6296TIP3   OH240302   1.704   4.827  11.117
 6296TIP3    H140303   1.785   4.788  11.150
 6296TIP3    H240304   1.642   4.754  11.115
 6297TIP3   OH240305   5.232   2.086  13.912
 6297TIP3    H140306   5.159   2.033  13.881
 6297TIP3    H240307   5.307   2.054  13.862
 6298TIP3   OH240308   2.498   6.058   3.409
 6298TIP3    H140309   2.589   6.087   3.407
 6298TIP3    H240310   2.448   6.137   3.428
 6299TIP3   OH240311   5.490   3.378  14.804
 6299TIP3    H140312   5.523   3.378  14.714
 6299TIP3    H240313   5.564   3.407  14.857
 6300TIP3   OH240314   1.043   0.934   0.194
 6300TIP3    H140315   1.046   1.018   0.239
 6300TIP3    H240316   1.073   0.953   0.105
 6301TIP3   OH240317   0.013   6.312  17.081
 6301TIP3    H140318   0.015   6.218  17.064
 6301TIP3    H240319  -0.070   6.341  17.044
 6302TIP3   OH240320   6.234   5.496   2.617
 6302TIP3    H140321   6.265   5.501   2.708
 6302TIP3    H240322   6.288   5.559   2.570
 6303TIP3   OH240323   2.556   6.397  16.257
 6303TIP3    H140324   2.636   6.348  16.277
 6303TIP3    H240325   2.536   6.376  16.166
 6304TIP3   OH240326   2.703   6.074   3.801
 6304TIP3    H140327   2.700   5.995   3.747
 6304TIP3    H240328   2.790   6.071   3.842
 6305TIP3   OH240329   2.862   2.074   2.346
 6305TIP3    H140330   2.810   2.052   2.424
 6305TIP3    H240331   2.833   2.012   2.280
 6306TIP3   OH240332   3.586   1.757  10.676
 6306TIP3    H140333   3.660   1.818  10.685
 6306TIP3    H240334   3.517   1.810  10.636
 6307TIP3   OH240335   5.198   2.128  14.715
 6307TIP3    H140336   5.130   2.159  14.654
 6307TIP3    H240337   5.258   2.078  14.660
 6308TIP3   OH240338   6.259   3.549   5.835
 6308TIP3    H140339   6.208   3.562   5.756
 6308TIP3    H240340   6.282   3.456   5.834
 6309TIP3   OH240341   3.791   1.251  14.325
 6309TIP3    H140342   3.730   1.222  14.393
 6309TIP3    H240343   3.878   1.234  14.362
 6310TIP3   OH240344   5.302   3.463   1.163
 6310TIP3    H140345   5.303   3.375   1.201
 6310TIP3    H240346   5.289   3.448   1.069
 6311TIP3   OH240347   2.868   6.220  15.160
 6311TIP3    H140348   2.829   6.296  15.202
 6311TIP3    H240349   2.809   6.200  15.088
 6312TIP3   OH240350   3.331   4.771   4.902
 6312TIP3    H140351   3.400   4.712   4.872
 6312TIP3    H240352   3.254   4.715   4.911
 6313TIP3   OH240353   0.321   0.471  11.403
 6313TIP3    H140354   0.367   0.474  11.487
 6313TIP3    H240355   0.250   0.534  11.413
 6314TIP3   OH240356   5.234   2.750   3.958
 6314TIP3    H140357   5.157   2.733   4.012
 6314TIP3    H240358   5.252   2.668   3.913
 6315TIP3   OH240359   5.530   0.956  13.616
 6315TIP3    H140360   5.579   0.921  13.690
 6315TIP3    H240361   5.555   0.900  13.542
 6316TIP3   OH240362   6.077   1.743  16.063
 6316TIP3    H140363   6.104   1.760  15.973
 6316TIP3    H240364   6.088   1.826  16.108
 6317TIP3   OH240365   5.972   4.681  16.248
 6317TIP3    H140366   6.030   4.756  16.234
 6317TIP3    H240367   6.014   4.609  16.202
 6318TIP3   OH240368   4.360   0.489   0.267
 6318TIP3    H140369   4.337   0.543   0.344
 6318TIP3    H240370   4.396   0.552   0.205
 6319TIP3   OH240371   2.848   6.589  12.189
 6319TIP3    H140372   2.857   6.633  12.273
 6319TIP3    H240373   2.785   6.519  12.205
 6320TIP3   OH240374   1.384   5.585  16.151
 6320TIP3    H140375   1.308   5.612  16.100
 6320TIP3    H240376   1.347   5.529  16.220
 6321TIP3   OH240377   2.244   3.416   0.663
 6321TIP3    H140378   2.195   3.489   0.702
 6321TIP3    H240379   2.229   3.342   0.722
 6322TIP3   OH240380   5.672   3.340  17.211
 6322TIP3    H140381   5.619   3.419  17.225
 6322TIP3    H240382   5.619   3.269  17.247
 6323TIP3   OH240383   3.809   5.029  11.849
 6323TIP3    H140384   3.829   5.029  11.942
 6323TIP3    H240385   3.811   4.936  11.825
 6324TIP3   OH240386   5.463   5.554  14.723
 6324TIP3    H140387   5.513   5.620  14.770
 6324TIP3    H240388   5.493   5.471  14.758
 6325TIP3   OH240389   4.354   0.595  11.197
 6325TIP3    H140390   4.379   0.668  11.140
 6325TIP3    H240391   4.434   0.543  11.206
 6326TIP3   OH240392   6.261   6.089  12.406
 6326TIP3    H140393   6.201   6.091  12.481
 6326TIP3    H240394   6.264   6.179  12.375
 6327TIP3   OH240395   6.278   0.793  15.923
 6327TIP3    H140396   6.231   0.817  16.003
 6327TIP3    H240397   6.292   0.875  15.877
 6328TIP3   OH240398   0.632   4.996   2.449
 6328TIP3    H140399   0.549   5.040   2.432
 6328TIP3    H240400   0.682   5.007   2.368
 6329TIP3   OH240401   3.934   0.485  16.010
 6329TIP3    H140402   4.016   0.481  16.060
 6329TIP3    H240403   3.939   0.412  15.949
 6330TIP3   OH240404   0.332   5.235  14.950
 6330TIP3    H140405   0.296   5.200  15.031
 6330TIP3    H240406   0.331   5.161  14.889
 6331TIP3   OH240407   0.726   0.366  14.607
 6331TIP3    H140408   0.644   0.401  14.574
 6331TIP3    H240409   0.780   0.355  14.529
 6332TIP3   OH240410   5.756   1.241   1.731
 6332TIP3    H140411   5.740   1.171   1.668
 6332TIP3    H240412   5.770   1.195   1.814
 6333TIP3   OH240413   0.578   1.773  14.720
 6333TIP3    H140414   0.560   1.813  14.805
 6333TIP3    H240415   0.493   1.771  14.676
 6334TIP3   OH240416   2.235   6.346   5.405
 6334TIP3    H140417   2.297   6.358   5.334
 6334TIP3    H240418   2.207   6.255   5.398
 6335TIP3   OH240419   3.898   4.789   1.817
 6335TIP3    H140420   3.903   4.800   1.722
 6335TIP3    H240421   3.977   4.832   1.851
 6336TIP3   OH240422   3.704   6.663  17.193
 6336TIP3    H140423   3.681   6.737  17.137
 6336TIP3    H240424   3.796   6.678  17.217
 6337TIP3   OH240425   0.177   5.816  11.370
 6337TIP3    H140426   0.087   5.790  11.387
 6337TIP3    H240427   0.220   5.811  11.456
 6338TIP3   OH240428   4.169   6.407   1.539
 6338TIP3    H140429   4.261   6.432   1.532
 6338TIP3    H240430   4.134   6.462   1.609
 6339TIP3   OH240431   2.030   1.565   0.825
 6339TIP3    H140432   2.101   1.533   0.881
 6339TIP3    H240433   1.981   1.626   0.881
 6340TIP3   OH240434   3.208   2.067  12.264
 6340TIP3    H140435   3.184   2.020  12.344
 6340TIP3    H240436   3.124   2.091  12.224
 6341TIP3   OH240437   3.779   4.860   4.525
 6341TIP3    H140438   3.801   4.951   4.504
 6341TIP3    H240439   3.815   4.846   4.612
 6342TIP3   OH240440   0.555   5.279   4.177
 6342TIP3    H140441   0.525   5.369   4.165
 6342TIP3    H240442   0.480   5.225   4.153
 6343TIP3   OH240443   6.151   2.106   2.865
 6343TIP3    H140444   6.151   2.185   2.811
 6343TIP3    H240445   6.225   2.055   2.834
 6344TIP3   OH240446   5.809   0.663  11.075
 6344TIP3    H140447   5.756   0.585  11.088
 6344TIP3    H240448   5.755   0.718  11.017
 6345TIP3   OH240449   3.746   2.695   2.669
 6345TIP3    H140450   3.660   2.731   2.692
 6345TIP3    H240451   3.809   2.750   2.717
 6346TIP3   OH240452   0.000   2.107   5.028
 6346TIP3    H140453  -0.081   2.125   4.981
 6346TIP3    H240454   0.050   2.189   5.024
 6347TIP3   OH240455   3.386   0.973  12.158
 6347TIP3    H140456   3.393   1.066  12.178
 6347TIP3    H240457   3.465   0.952  12.109
 6348TIP3   OH240458   6.568   3.261  10.703
 6348TIP3    H140459   6.519   3.280  10.782
 6348TIP3    H240460   6.659   3.280  10.725
 6349TIP3   OH240461   4.085   0.303  10.267
 6349TIP3    H140462   4.145   0.283  10.339
 6349TIP3    H240463   4.102   0.395  10.246
 6350TIP3   OH240464   4.157   2.228  16.185
 6350TIP3    H140465   4.168   2.263  16.273
 6350TIP3    H240466   4.147   2.133  16.197
 6351TIP3   OH240467   2.738   3.991  12.119
 6351TIP3    H140468   2.691   3.953  12.045
 6351TIP3    H240469   2.829   3.994  12.091
 6352TIP3   OH240470   4.543   6.522   5.028
 6352TIP3    H140471   4.523   6.430   5.044
 6352TIP3    H240472   4.474   6.570   5.074
 6353TIP3   OH240473   4.984   6.476   3.861
 6353TIP3    H140474   4.910   6.490   3.802
 6353TIP3    H240475   4.969   6.390   3.898
 6354TIP3   OH240476   3.272   4.247  12.255
 6354TIP3    H140477   3.362   4.272  12.273
 6354TIP3    H240478   3.237   4.220  12.340
 6355TIP3   OH240479   0.905   2.624  13.052
 6355TIP3    H140480   0.907   2.718  13.032
 6355TIP3    H240481   0.842   2.588  12.989
 6356TIP3   OH240482   5.518   2.628   5.700
 6356TIP3    H140483   5.546   2.541   5.728
 6356TIP3    H240484   5.599   2.674   5.678
 6357TIP3   OH240485   6.310   3.110   4.543
 6357TIP3    H140486   6.397   3.083   4.575
 6357TIP3    H240487   6.294   3.053   4.468
 6358TIP3   OH240488   4.336   5.990   4.183
 6358TIP3    H140489   4.323   5.912   4.130
 6358TIP3    H240490   4.340   5.959   4.273
 6359TIP3   OH240491   5.386   6.348  16.756
 6359TIP3    H140492   5.392   6.438  16.724
 6359TIP3    H240493   5.466   6.336  16.807
 6360TIP3   OH240494   5.447   1.487  11.943
 6360TIP3    H140495   5.517   1.490  11.878
 6360TIP3    H240496   5.475   1.550  12.010
 6361TIP3   OH240497   2.272   0.927   0.624
 6361TIP3    H140498   2.286   0.841   0.663
 6361TIP3    H240499   2.186   0.954   0.657
 6362TIP3   OH240500   4.841   2.167  12.524
 6362TIP3    H140501   4.781   2.117  12.470
 6362TIP3    H240502   4.806   2.256  12.523
 6363TIP3   OH240503   6.302   2.020  16.745
 6363TIP3    H140504   6.369   2.038  16.811
 6363TIP3    H240505   6.294   1.924  16.746
 6364TIP3   OH240506   2.831   6.070   1.082
 6364TIP3    H140507   2.797   5.982   1.102
 6364TIP3    H240508   2.921   6.054   1.055
 6365TIP3   OH240509   5.349   6.311   5.414
 6365TIP3    H140510   5.325   6.220   5.399
 6365TIP3    H240511   5.323   6.328   5.505
 6366TIP3   OH240512   1.400   2.834   3.567
 6366TIP3    H140513   1.341   2.863   3.638
 6366TIP3    H240514   1.365   2.876   3.489
 6367TIP3   OH240515   6.060   6.018  16.912
 6367TIP3    H140516   6.015   6.095  16.947
 6367TIP3    H240517   6.038   6.017  16.819
 6368TIP3   OH240518   4.208   3.190   2.655
 6368TIP3    H140519   4.191   3.096   2.662
 6368TIP3    H240520   4.150   3.230   2.720
 6369TIP3   OH240521   1.360   4.402   4.360
 6369TIP3    H140522   1.316   4.408   4.445
 6369TIP3    H240523   1.289   4.394   4.297
 6370TIP3   OH240524   3.090   5.478  11.952
 6370TIP3    H140525   3.036   5.524  11.887
 6370TIP3    H240526   3.152   5.428  11.900
 6371TIP3   OH240527   6.373   1.049  16.055
 6371TIP3    H140528   6.316   1.102  16.000
 6371TIP3    H240529   6.426   1.112  16.103
 6372TIP3   OH240530   2.055   1.230  14.212
 6372TIP3    H140531   1.965   1.254  14.186
 6372TIP3    H240532   2.071   1.280  14.292
 6373TIP3   OH240533   2.659   0.688   2.654
 6373TIP3    H140534   2.745   0.730   2.649
 6373TIP3    H240535   2.608   0.730   2.585
 6374TIP3   OH240536   0.325   4.307  10.687
 6374TIP3    H140537   0.286   4.231  10.644
 6374TIP3    H240538   0.285   4.383  10.644
 6375TIP3   OH240539   1.029   4.433   4.869
 6375TIP3    H140540   1.010   4.497   4.800
 6375TIP3    H240541   0.959   4.368   4.862
 6376TIP3   OH240542   3.833   5.031   1.295
 6376TIP3    H140543   3.906   4.973   1.276
 6376TIP3    H240544   3.872   5.107   1.338
 6377TIP3   OH240545   2.571   6.104   2.514
 6377TIP3    H140546   2.650   6.099   2.461
 6377TIP3    H240547   2.602   6.140   2.598
 6378TIP3   OH240548   6.000   6.236  15.034
 6378TIP3    H140549   6.037   6.240  14.946
 6378TIP3    H240550   6.072   6.263  15.091
 6379TIP3   OH240551   5.516   5.741   2.078
 6379TIP3    H140552   5.553   5.719   2.163
 6379TIP3    H240553   5.572   5.811   2.044
 6380TIP3   OH240554   4.047   1.463   0.987
 6380TIP3    H140555   4.094   1.429   1.063
 6380TIP3    H240556   4.094   1.543   0.964
 6381TIP3   OH240557   3.788   4.913   2.104
 6381TIP3    H140558   3.747   4.880   2.184
 6381TIP3    H240559   3.863   4.856   2.090
 6382TIP3   OH240560   2.451   5.331  13.722
 6382TIP3    H140561   2.427   5.386  13.796
 6382TIP3    H240562   2.539   5.360  13.698
 6383TIP3   OH240563   1.381   2.574   2.505
 6383TIP3    H140564   1.321   2.645   2.485
 6383TIP3    H240565   1.425   2.555   2.422
 6384TIP3   OH240566   5.082   3.760   2.619
 6384TIP3    H140567   5.177   3.774   2.629
 6384TIP3    H240568   5.054   3.723   2.702
 6385TIP3   OH240569   2.148   6.615   0.567
 6385TIP3    H140570   2.227   6.594   0.618
 6385TIP3    H240571   2.136   6.539   0.510
 6386TIP3   OH240572   0.942   0.252   4.683
 6386TIP3    H140573   1.017   0.308   4.702
 6386TIP3    H240574   0.963   0.211   4.599
 6387TIP3   OH240575   5.155   6.779  10.373
 6387TIP3    H140576   5.115   6.842  10.314
 6387TIP3    H240577   5.171   6.828  10.454
 6388TIP3   OH240578   0.904   2.884  15.482
 6388TIP3    H140579   0.956   2.842  15.549
 6388TIP3    H240580   0.952   2.964  15.460
 6389TIP3   OH240581   5.347   4.620  13.072
 6389TIP3    H140582   5.263   4.612  13.027
 6389TIP3    H240583   5.356   4.714  13.089
 6390TIP3   OH240584   4.637   5.420  11.132
 6390TIP3    H140585   4.632   5.455  11.221
 6390TIP3    H240586   4.555   5.374  11.120
 6391TIP3   OH240587   4.011   1.954  10.591
 6391TIP3    H140588   4.087   1.919  10.544
 6391TIP3    H240589   4.008   2.046  10.566
 6392TIP3   OH240590   4.921   3.168   2.205
 6392TIP3    H140591   4.988   3.213   2.154
 6392TIP3    H240592   4.885   3.235   2.262
 6393TIP3   OH240593   2.360   4.263   3.533
 6393TIP3    H140594   2.358   4.261   3.437
 6393TIP3    H240595   2.313   4.343   3.556
 6394TIP3   OH240596   1.679   3.597   1.984
 6394TIP3    H140597   1.727   3.514   1.992
 6394TIP3    H240598   1.739   3.656   1.939
 6395TIP3   OH240599   6.251   6.516  15.635
 6395TIP3    H140600   6.273   6.606  15.615
 6395TIP3    H240601   6.260   6.469  15.552
 6396TIP3   OH240602   3.177   3.196   4.165
 6396TIP3    H140603   3.115   3.209   4.237
 6396TIP3    H240604   3.125   3.157   4.095
 6397TIP3   OH240605   5.166   0.020   2.249
 6397TIP3    H140606   5.124  -0.009   2.168
 6397TIP3    H240607   5.258   0.035   2.225
 6398TIP3   OH240608   1.125   1.803   5.482
 6398TIP3    H140609   1.203   1.796   5.537
 6398TIP3    H240610   1.145   1.873   5.421
 6399TIP3   OH240611   2.594   1.455  13.857
 6399TIP3    H140612   2.662   1.518  13.882
 6399TIP3    H240613   2.523   1.510  13.824
 6400TIP3   OH240614   0.845   6.325  13.411
 6400TIP3    H140615   0.843   6.246  13.465
 6400TIP3    H240616   0.834   6.397  13.474
 6401TIP3   OH240617   6.084   1.071  11.590
 6401TIP3    H140618   6.071   1.028  11.505
 6401TIP3    H240619   6.015   1.137  11.594
 6402TIP3   OH240620   0.162   3.831  16.961
 6402TIP3    H140621   0.124   3.809  17.046
 6402TIP3    H240622   0.101   3.795  16.897
 6403TIP3   OH240623   3.739   2.309  16.076
 6403TIP3    H140624   3.760   2.216  16.062
 6403TIP3    H240625   3.717   2.314  16.169
 6404TIP3   OH240626   6.390   5.238   0.372
 6404TIP3    H140627   6.325   5.273   0.311
 6404TIP3    H240628   6.391   5.299   0.445
 6405TIP3   OH240629   2.396   6.137   1.175
 6405TIP3    H140630   2.430   6.221   1.206
 6405TIP3    H240631   2.302   6.141   1.193
 6406TIP3   OH240632   6.585   3.989  16.342
 6406TIP3    H140633   6.563   3.896  16.341
 6406TIP3    H240634   6.534   4.026  16.415
 6407TIP3   OH240635   3.084   6.355  17.221
 6407TIP3    H140636   3.120   6.356  17.309
 6407TIP3    H240637   3.119   6.434  17.180
 6408TIP3   OH240638   2.421   4.142  14.271
 6408TIP3    H140639   2.482   4.074  14.241
 6408TIP3    H240640   2.363   4.156  14.197
 6409TIP3   OH240641   0.289   4.719   5.953
 6409TIP3    H140642   0.345   4.665   6.009
 6409TIP3    H240643   0.325   4.808   5.961
 6410TIP3   OH240644   2.435   6.661  11.907
 6410TIP3    H140645   2.399   6.732  11.959
 6410TIP3    H240646   2.513   6.699  11.865
 6411TIP3   OH240647   6.006   2.802   0.106
 6411TIP3    H140648   6.078   2.849   0.063
 6411TIP3    H240649   5.937   2.798   0.040
 6412TIP3   OH240650   3.280   1.809   1.208
 6412TIP3    H140651   3.217   1.866   1.253
 6412TIP3    H240652   3.296   1.853   1.124
 6413TIP3   OH240653   5.754   6.474   3.870
 6413TIP3    H140654   5.792   6.451   3.955
 6413TIP3    H240655   5.677   6.418   3.863
 6414TIP3   OH240656   1.223   5.805   1.401
 6414TIP3    H140657   1.227   5.876   1.337
 6414TIP3    H240658   1.146   5.825   1.454
 6415TIP3   OH240659   2.452   3.834   0.250
 6415TIP3    H140660   2.384   3.810   0.312
 6415TIP3    H240661   2.521   3.769   0.264
 6416TIP3   OH240662   5.933   0.427   2.234
 6416TIP3    H140663   5.924   0.501   2.292
 6416TIP3    H240664   5.876   0.359   2.271
 6417TIP3   OH240665   5.991   0.958  11.291
 6417TIP3    H140666   5.963   0.880  11.244
 6417TIP3    H240667   5.913   0.989  11.337
 6418TIP3   OH240668   2.161   4.087   5.937
 6418TIP3    H140669   2.101   4.092   6.012
 6418TIP3    H240670   2.208   4.170   5.937
 6419TIP3   OH240671   0.055   1.314  13.157
 6419TIP3    H140672   0.124   1.293  13.095
 6419TIP3    H240673   0.102   1.346  13.234
 6420TIP3   OH240674   4.204   4.205  10.980
 6420TIP3    H140675   4.161   4.269  11.036
 6420TIP3    H240676   4.134   4.170  10.925
 6421TIP3   OH240677   5.513   5.926  10.814
 6421TIP3    H140678   5.595   5.927  10.766
 6421TIP3    H240679   5.459   5.992  10.771
 6422TIP3   OH240680   4.129   1.704  16.089
 6422TIP3    H140681   4.132   1.680  15.997
 6422TIP3    H240682   4.113   1.622  16.135
 6423TIP3   OH240683   3.930   2.747  12.359
 6423TIP3    H140684   3.883   2.811  12.305
 6423TIP3    H240685   4.011   2.730  12.313
 6424TIP3   OH240686   2.085   6.430   2.336
 6424TIP3    H140687   2.081   6.454   2.428
 6424TIP3    H240688   2.033   6.497   2.291
 6425TIP3   OH240689   0.691   6.307   5.898
 6425TIP3    H140690   0.610   6.258   5.915
 6425TIP3    H240691   0.745   6.292   5.975
 6426TIP3   OH240692   1.338   4.151   0.200
 6426TIP3    H140693   1.277   4.112   0.136
 6426TIP3    H240694   1.343   4.085   0.270
 6427TIP3   OH240695   0.935   6.344   2.262
 6427TIP3    H140696   0.843   6.370   2.270
 6427TIP3    H240697   0.976   6.416   2.214
 6428TIP3   OH240698   5.418   1.787  13.410
 6428TIP3    H140699   5.491   1.780  13.471
 6428TIP3    H240700   5.365   1.710  13.427
 6429TIP3   OH240701   4.246   0.300   2.080
 6429TIP3    H140702   4.172   0.271   2.026
 6429TIP3    H240703   4.260   0.391   2.054
 6430TIP3   OH240704   3.833   6.729  14.948
 6430TIP3    H140705   3.778   6.728  14.870
 6430TIP3    H240706   3.772   6.729  15.021
 6431TIP3   OH240707   3.482   3.634  15.297
 6431TIP3    H140708   3.497   3.683  15.378
 6431TIP3    H240709   3.477   3.542  15.326
 6432TIP3   OH240710   2.704   4.735  11.706
 6432TIP3    H140711   2.679   4.748  11.798
 6432TIP3    H240712   2.784   4.684  11.711
 6433TIP3   OH240713   4.147   1.272  17.193
 6433TIP3    H140714   4.186   1.327  17.125
 6433TIP3    H240715   4.187   1.302  17.275
 6434TIP3   OH240716   2.395   3.750   4.147
 6434TIP3    H140717   2.440   3.666   4.142
 6434TIP3    H240718   2.347   3.757   4.065
 6435TIP3   OH240719   6.247   6.689  12.859
 6435TIP3    H140720   6.266   6.597  12.842
 6435TIP3    H240721   6.202   6.689  12.943
 6436TIP3   OH240722   6.195   6.459  16.796
 6436TIP3    H140723   6.101   6.454  16.778
 6436TIP3    H240724   6.236   6.427  16.715
 6437TIP3   OH240725   3.836   2.681   3.339
 6437TIP3    H140726   3.802   2.603   3.297
 6437TIP3    H240727   3.823   2.751   3.275
 6438TIP3   OH240728   0.853   4.353   6.325
 6438TIP3    H140729   0.771   4.334   6.370
 6438TIP3    H240730   0.910   4.279   6.346
 6439TIP3   OH240731   0.436   3.321  13.444
 6439TIP3    H140732   0.461   3.259  13.512
 6439TIP3    H240733   0.504   3.388  13.446
 6440TIP3   OH240734   4.004   2.108  11.396
 6440TIP3    H140735   4.025   2.121  11.304
 6440TIP3    H240736   4.084   2.072  11.434
 6441TIP3   OH240737   6.138   5.773   4.486
 6441TIP3    H140738   6.231   5.792   4.500
 6441TIP3    H240739   6.108   5.842   4.427
 6442TIP3   OH240740   3.970   6.735  10.612
 6442TIP3    H140741   3.938   6.767  10.527
 6442TIP3    H240742   3.896   6.745  10.671
 6443TIP3   OH240743   5.390   1.970   4.283
 6443TIP3    H140744   5.409   2.032   4.354
 6443TIP3    H240745   5.333   1.905   4.323
 6444TIP3   OH240746   3.748   4.067   2.608
 6444TIP3    H140747   3.713   3.990   2.652
 6444TIP3    H240748   3.833   4.082   2.650
 6445TIP3   OH240749   1.719   1.805   5.610
 6445TIP3    H140750   1.707   1.823   5.703
 6445TIP3    H240751   1.810   1.776   5.602
 6446TIP3   OH240752   0.819   4.488   4.350
 6446TIP3    H140753   0.896   4.543   4.338
 6446TIP3    H240754   0.758   4.516   4.282
 6447TIP3   OH240755   3.327   5.707   2.472
 6447TIP3    H140756   3.418   5.685   2.452
 6447TIP3    H240757   3.284   5.623   2.486
 6448TIP3   OH240758   0.572   4.954   6.221
 6448TIP3    H140759   0.521   4.916   6.293
 6448TIP3    H240760   0.514   4.949   6.145
 6449TIP3   OH240761   1.175   0.928  16.758
 6449TIP3    H140762   1.180   0.836  16.783
 6449TIP3    H240763   1.192   0.975  16.840
 6450TIP3   OH240764   3.329   6.312   2.137
 6450TIP3    H140765   3.414   6.282   2.105
 6450TIP3    H240766   3.273   6.313   2.060
 6451TIP3   OH240767   6.478   0.479   1.873
 6451TIP3    H140768   6.485   0.477   1.777
 6451TIP3    H240769   6.566   0.504   1.903
 6452TIP3   OH240770   6.148   4.116  12.161
 6452TIP3    H140771   6.213   4.046  12.171
 6452TIP3    H240772   6.190   4.193  12.198
 6453TIP3   OH240773   0.623   1.214  12.779
 6453TIP3    H140774   0.576   1.157  12.717
 6453TIP3    H240775   0.676   1.155  12.831
 6454TIP3   OH240776   5.838   3.079   5.962
 6454TIP3    H140777   5.845   3.153   6.023
 6454TIP3    H240778   5.744   3.064   5.953
 6455TIP3   OH240779   1.077   2.770  15.309
 6455TIP3    H140780   1.167   2.790  15.332
 6455TIP3    H240781   1.027   2.846  15.338
 6456TIP3   OH240782   6.733   6.626  13.993
 6456TIP3    H140783   6.667   6.647  13.927
 6456TIP3    H240784   6.729   6.531  14.001
 6457TIP3   OH240785   3.627   2.291  13.237
 6457TIP3    H140786   3.532   2.304  13.244
 6457TIP3    H240787   3.640   2.198  13.256
 6458TIP3   OH240788   4.209   2.768   3.014
 6458TIP3    H140789   4.191   2.841   3.073
 6458TIP3    H240790   4.234   2.696   3.073
 6459TIP3   OH240791   5.526   5.016  16.441
 6459TIP3    H140792   5.601   5.059  16.401
 6459TIP3    H240793   5.507   4.943  16.381
 6460TIP3   OH240794   5.453   4.509  12.356
 6460TIP3    H140795   5.393   4.576  12.387
 6460TIP3    H240796   5.432   4.498  12.264
 6461TIP3   OH240797   5.706   3.980  15.189
 6461TIP3    H140798   5.683   3.927  15.112
 6461TIP3    H240799   5.648   4.056  15.183
 6462TIP3   OH240800   0.781   2.382  17.060
 6462TIP3    H140801   0.728   2.353  16.987
 6462TIP3    H240802   0.870   2.354  17.038
 6463TIP3   OH240803   5.789   4.971   5.742
 6463TIP3    H140804   5.764   4.960   5.834
 6463TIP3    H240805   5.850   4.900   5.725
 6464TIP3   OH240806   2.411   0.320   3.676
 6464TIP3    H140807   2.318   0.316   3.700
 6464TIP3    H240808   2.413   0.301   3.582
 6465TIP3   OH240809   5.904   4.558   1.913
 6465TIP3    H140810   5.872   4.622   1.977
 6465TIP3    H240811   5.827   4.538   1.859
 6466TIP3   OH240812   0.719   5.710   1.948
 6466TIP3    H140813   0.704   5.772   2.019
 6466TIP3    H240814   0.796   5.661   1.975
 6467TIP3   OH240815   3.474   4.858  11.675
 6467TIP3    H140816   3.416   4.910  11.731
 6467TIP3    H240817   3.562   4.889  11.695
 6468TIP3   OH240818   1.542   0.325   4.030
 6468TIP3    H140819   1.637   0.330   4.014
 6468TIP3    H240820   1.504   0.379   3.961
 6469TIP3   OH240821   6.013   1.619  16.740
 6469TIP3    H140822   6.016   1.611  16.835
 6469TIP3    H240823   5.949   1.688  16.724
 6470TIP3   OH240824   2.890   3.135   2.995
 6470TIP3    H140825   2.837   3.068   3.038
 6470TIP3    H240826   2.833   3.170   2.926
 6471TIP3   OH240827   1.375   0.532  13.264
 6471TIP3    H140828   1.414   0.450  13.294
 6471TIP3    H240829   1.409   0.544  13.175
 6472TIP3   OH240830   3.615   0.495  14.023
 6472TIP3    H140831   3.562   0.563  13.982
 6472TIP3    H240832   3.583   0.492  14.114
 6473TIP3   OH240833   6.131   6.330   4.660
 6473TIP3    H140834   6.152   6.251   4.610
 6473TIP3    H240835   6.208   6.345   4.715
 6474TIP3   OH240836   0.587   3.346   2.224
 6474TIP3    H140837   0.679   3.358   2.201
 6474TIP3    H240838   0.563   3.263   2.182
 6475TIP3   OH240839   3.388   6.107   0.518
 6475TIP3    H140840   3.454   6.044   0.547
 6475TIP3    H240841   3.397   6.109   0.422
 6476TIP3   OH240842   4.040   3.653   6.239
 6476TIP3    H140843   3.967   3.598   6.268
 6476TIP3    H240844   4.098   3.659   6.315
 6477TIP3   OH240845   0.451   6.272   5.517
 6477TIP3    H140846   0.462   6.235   5.429
 6477TIP3    H240847   0.536   6.258   5.559
 6478TIP3   OH240848   6.267   4.925  14.625
 6478TIP3    H140849   6.270   5.008  14.577
 6478TIP3    H240850   6.349   4.881  14.601
 6479TIP3   OH240851   5.949   1.333  12.652
 6479TIP3    H140852   5.990   1.383  12.581
 6479TIP3    H240853   5.889   1.394  12.694
 6480TIP3   OH240854   4.016   0.773  14.663
 6480TIP3    H140855   4.070   0.705  14.704
 6480TIP3    H240856   3.927   0.753  14.692
 6481TIP3   OH240857   0.937   5.607   1.398
 6481TIP3    H140858   0.843   5.611   1.415
 6481TIP3    H240859   0.952   5.672   1.330
 6482TIP3   OH240860   3.644   3.190   5.286
 6482TIP3    H140861   3.678   3.246   5.355
 6482TIP3    H240862   3.653   3.241   5.206
 6483TIP3   OH240863   6.325   0.320  13.882
 6483TIP3    H140864   6.324   0.349  13.973
 6483TIP3    H240865   6.366   0.234  13.884
 6484TIP3   OH240866   1.105   3.018   2.937
 6484TIP3    H140867   1.029   2.980   2.893
 6484TIP3    H240868   1.100   2.985   3.026
 6485TIP3   OH240869   3.209   2.293   1.367
 6485TIP3    H140870   3.216   2.332   1.280
 6485TIP3    H240871   3.281   2.230   1.371
 6486TIP3   OH240872   4.016   1.245  14.501
 6486TIP3    H140873   4.037   1.175  14.562
 6486TIP3    H240874   4.087   1.244  14.438
 6487TIP3   OH240875   2.542   2.313   4.325
 6487TIP3    H140876   2.617   2.256   4.308
 6487TIP3    H240877   2.486   2.303   4.248
 6488TIP3   OH240878   0.441   5.989   6.173
 6488TIP3    H140879   0.451   6.073   6.128
 6488TIP3    H240880   0.522   5.942   6.152
 6489TIP3   OH240881   5.042   0.477  16.150
 6489TIP3    H140882   5.063   0.384  16.161
 6489TIP3    H240883   5.018   0.506  16.238
 6490TIP3   OH240884   0.169   6.074  11.855
 6490TIP3    H140885   0.087   6.096  11.810
 6490TIP3    H240886   0.159   6.109  11.943
 6491TIP3   OH240887   4.266   4.264   0.577
 6491TIP3    H140888   4.335   4.291   0.638
 6491TIP3    H240889   4.267   4.330   0.508
 6492TIP3   OH240890   1.686   2.192  11.871
 6492TIP3    H140891   1.678   2.178  11.965
 6492TIP3    H240892   1.652   2.280  11.857
 6493TIP3   OH240893   3.969   5.610   2.754
 6493TIP3    H140894   3.915   5.687   2.775
 6493TIP3    H240895   4.049   5.624   2.805
 6494TIP3   OH240896   3.435   2.583  16.559
 6494TIP3    H140897   3.393   2.623  16.636
 6494TIP3    H240898   3.486   2.511  16.595
 6495TIP3   OH240899   1.122   4.182  12.387
 6495TIP3    H140900   1.143   4.272  12.361
 6495TIP3    H240901   1.083   4.191  12.474
 6496TIP3   OH240902   5.232   3.606  15.348
 6496TIP3    H140903   5.252   3.517  15.319
 6496TIP3    H240904   5.247   3.605  15.443
 6497TIP3   OH240905   3.874   0.127   0.610
 6497TIP3    H140906   3.787   0.100   0.580
 6497TIP3    H240907   3.919   0.155   0.530
 6498TIP3   OH240908   3.462   4.810   1.957
 6498TIP3    H140909   3.407   4.813   1.879
 6498TIP3    H240910   3.494   4.899   1.968
 6499TIP3   OH240911   2.570   3.133  13.537
 6499TIP3    H140912   2.480   3.165  13.537
 6499TIP3    H240913   2.561   3.038  13.549
 6500TIP3   OH240914   1.237   4.256  16.651
 6500TIP3    H140915   1.238   4.160  16.645
 6500TIP3    H240916   1.144   4.280  16.647
 6501TIP3   OH240917   4.048   2.449   0.811
 6501TIP3    H140918   4.038   2.410   0.724
 6501TIP3    H240919   3.968   2.501   0.824
 6502TIP3   OH240920   4.673   4.544  16.888
 6502TIP3    H140921   4.751   4.505  16.849
 6502TIP3    H240922   4.694   4.551  16.981
 6503TIP3   OH240923   1.721   4.537   2.845
 6503TIP3    H140924   1.717   4.488   2.763
 6503TIP3    H240925   1.661   4.611   2.832
 6504TIP3   OH240926   1.564   0.317   0.493
 6504TIP3    H140927   1.486   0.328   0.548
 6504TIP3    H240928   1.596   0.405   0.477
 6505TIP3   OH240929   1.112   2.328  13.809
 6505TIP3    H140930   1.158   2.277  13.744
 6505TIP3    H240931   1.181   2.370  13.861
 6506TIP3   OH240932   5.268   3.935  12.254
 6506TIP3    H140933   5.290   3.866  12.191
 6506TIP3    H240934   5.339   3.933  12.318
 6507TIP3   OH240935   4.371   1.075   1.286
 6507TIP3    H140936   4.428   0.999   1.270
 6507TIP3    H240937   4.289   1.053   1.242
 6508TIP3   OH240938   2.246   1.851   5.398
 6508TIP3    H140939   2.322   1.872   5.345
 6508TIP3    H240940   2.221   1.934   5.439
 6509TIP3   OH240941   1.031   5.290   5.343
 6509TIP3    H140942   1.112   5.334   5.367
 6509TIP3    H240943   1.057   5.201   5.320
 6510TIP3   OH240944   2.654   5.173  17.093
 6510TIP3    H140945   2.588   5.142  17.155
 6510TIP3    H240946   2.691   5.094  17.055
 6511TIP3   OH240947   2.104   1.103   2.718
 6511TIP3    H140948   2.123   1.037   2.651
 6511TIP3    H240949   2.174   1.092   2.782
 6512TIP3   OH240950   4.341   4.778  12.472
 6512TIP3    H140951   4.364   4.867  12.497
 6512TIP3    H240952   4.280   4.749  12.540
 6513TIP3   OH240953   4.642   6.118  16.247
 6513TIP3    H140954   4.638   6.128  16.343
 6513TIP3    H240955   4.707   6.048  16.233
 6514TIP3   OH240956   2.412   0.895  12.575
 6514TIP3    H140957   2.478   0.836  12.539
 6514TIP3    H240958   2.462   0.971  12.607
 6515TIP3   OH240959   4.120   2.676   1.278
 6515TIP3    H140960   4.170   2.752   1.247
 6515TIP3    H240961   4.155   2.658   1.365
 6516TIP3   OH240962   1.614   1.183   4.425
 6516TIP3    H140963   1.705   1.190   4.456
 6516TIP3    H240964   1.618   1.122   4.352
 6517TIP3   OH240965   4.070   4.920  12.745
 6517TIP3    H140966   4.122   4.843  12.722
 6517TIP3    H240967   4.090   4.936  12.837
 6518TIP3   OH240968   0.520   5.682   4.352
 6518TIP3    H140969   0.456   5.623   4.311
 6518TIP3    H240970   0.503   5.767   4.311
 6519TIP3   OH240971   5.604   6.090  17.028
 6519TIP3    H140972   5.523   6.040  17.042
 6519TIP3    H240973   5.648   6.044  16.956
 6520TIP3   OH240974   1.172   3.406  16.393
 6520TIP3    H140975   1.077   3.399  16.405
 6520TIP3    H240976   1.207   3.410  16.482
 6521TIP3   OH240977   3.008   0.733  15.660
 6521TIP3    H140978   3.038   0.763  15.574
 6521TIP3    H240979   3.053   0.790  15.722
 6522TIP3   OH240980   2.647   6.472   2.573
 6522TIP3    H140981   2.718   6.528   2.541
 6522TIP3    H240982   2.676   6.445   2.660
 6523TIP3   OH240983   5.908   4.213   4.665
 6523TIP3    H140984   5.972   4.263   4.717
 6523TIP3    H240985   5.835   4.199   4.725
 6524TIP3   OH240986   3.464   0.948  16.249
 6524TIP3    H140987   3.468   0.911  16.161
 6524TIP3    H240988   3.440   0.874  16.306
 6525TIP3   OH240989   4.463   4.365  15.144
 6525TIP3    H140990   4.383   4.368  15.195
 6525TIP3    H240991   4.517   4.435  15.179
 6526TIP3   OH240992   5.555   3.941  12.753
 6526TIP3    H140993   5.627   3.951  12.691
 6526TIP3    H240994   5.594   3.961  12.838
 6527TIP3   OH240995   3.376   6.596  13.571
 6527TIP3    H140996   3.415   6.550  13.496
 6527TIP3    H240997   3.295   6.548  13.588
 6528TIP3   OH240998   3.927   2.652   6.020
 6528TIP3    H140999   3.868   2.593   6.067
 6528TIP3    H241000   4.003   2.661   6.077
 6529TIP3   OH241001   0.404   2.497   0.808
 6529TIP3    H141002   0.486   2.466   0.848
 6529TIP3    H241003   0.390   2.584   0.845
 6530TIP3   OH241004   3.893   2.675  16.603
 6530TIP3    H141005   3.838   2.598  16.619
 6530TIP3    H241006   3.949   2.650  16.529
 6531TIP3   OH241007   4.383   5.040  12.891
 6531TIP3    H141008   4.293   5.018  12.915
 6531TIP3    H241009   4.404   5.116  12.945
 6532TIP3   OH241010   2.679   0.712  11.538
 6532TIP3    H141011   2.587   0.732  11.556
 6532TIP3    H241012   2.681   0.691  11.444
 6533TIP3   OH241013   4.797   5.217   6.532
 6533TIP3    H141014   4.799   5.247   6.441
 6533TIP3    H241015   4.741   5.281   6.576
 6534TIP3   OH241016   4.274   2.843  15.717
 6534TIP3    H141017   4.190   2.887  15.727
 6534TIP3    H241018   4.275   2.814  15.626
 6535TIP3   OH241019   4.080   4.788  13.896
 6535TIP3    H141020   4.148   4.829  13.951
 6535TIP3    H241021   4.092   4.694  13.911
 6536TIP3   OH241022   2.767   5.766  10.750
 6536TIP3    H141023   2.684   5.722  10.735
 6536TIP3    H241024   2.819   5.746  10.672
 6537TIP3   OH241025   1.921   6.156  16.984
 6537TIP3    H141026   1.979   6.131  17.056
 6537TIP3    H241027   1.916   6.077  16.930
 6538TIP3   OH241028   5.566   2.543   1.726
 6538TIP3    H141029   5.559   2.457   1.767
 6538TIP3    H241030   5.479   2.559   1.689
 6539TIP3   OH241031   2.967   4.308   0.832
 6539TIP3    H141032   2.937   4.227   0.873
 6539TIP3    H241033   3.060   4.293   0.815
 6540TIP3   OH241034   2.136   3.471   5.261
 6540TIP3    H141035   2.146   3.527   5.338
 6540TIP3    H241036   2.140   3.532   5.187
 6541TIP3   OH241037   2.260   0.140  13.111
 6541TIP3    H141038   2.329   0.110  13.052
 6541TIP3    H241039   2.185   0.084  13.091
 6542TIP3   OH241040   3.884   3.453  15.863
 6542TIP3    H141041   3.878   3.446  15.959
 6542TIP3    H241042   3.945   3.525  15.848
 6543TIP3   OH241043   2.156   1.653   3.274
 6543TIP3    H141044   2.239   1.607   3.263
 6543TIP3    H241045   2.179   1.745   3.274
 6544TIP3   OH241046   2.908   2.756   2.157
 6544TIP3    H141047   2.954   2.839   2.150
 6544TIP3    H241048   2.897   2.743   2.252
 6545TIP3   OH241049   0.456   4.658  13.260
 6545TIP3    H141050   0.364   4.631  13.271
 6545TIP3    H241051   0.477   4.633  13.170
 6546TIP3   OH241052   5.583   2.423   1.460
 6546TIP3    H141053   5.546   2.505   1.492
 6546TIP3    H241054   5.517   2.357   1.482
 6547TIP3   OH241055   4.077   2.238   4.326
 6547TIP3    H141056   4.051   2.275   4.241
 6547TIP3    H241057   4.012   2.170   4.344
 6548TIP3   OH241058   6.376   4.647   0.827
 6548TIP3    H141059   6.304   4.585   0.841
 6548TIP3    H241060   6.333   4.732   0.820
 6549TIP3   OH241061   4.774   5.454  10.318
 6549TIP3    H141062   4.854   5.503  10.298
 6549TIP3    H241063   4.768   5.388  10.248
 6550TIP3   OH241064   6.597   4.363  14.091
 6550TIP3    H141065   6.573   4.381  14.182
 6550TIP3    H241066   6.520   4.321  14.053
 6551TIP3   OH241067   5.258   4.022  14.031
 6551TIP3    H141068   5.228   4.062  13.949
 6551TIP3    H241069   5.221   4.078  14.099
 6552TIP3   OH241070   1.761   5.820   1.906
 6552TIP3    H141071   1.688   5.759   1.893
 6552TIP3    H241072   1.738   5.867   1.986
 6553TIP3   OH241073   1.532   5.627   0.223
 6553TIP3    H141074   1.594   5.565   0.262
 6553TIP3    H241075   1.585   5.706   0.207
 6554TIP3   OH241076   2.243   4.597  12.926
 6554TIP3    H141077   2.243   4.608  12.831
 6554TIP3    H241078   2.191   4.670  12.959
 6555TIP3   OH241079   4.756   3.362  17.120
 6555TIP3    H141080   4.756   3.357  17.216
 6555TIP3    H241081   4.798   3.446  17.101
 6556TIP3   OH241082   5.283   0.623   4.493
 6556TIP3    H141083   5.355   0.686   4.507
 6556TIP3    H241084   5.204   0.677   4.489
 6557TIP3   OH241085   2.766   1.697   1.724
 6557TIP3    H141086   2.857   1.722   1.738
 6557TIP3    H241087   2.771   1.622   1.664
 6558TIP3   OH241088   5.272   1.161   2.036
 6558TIP3    H141089   5.308   1.097   2.097
 6558TIP3    H241090   5.269   1.243   2.086
 6559TIP3   OH241091   3.547   2.892  11.655
 6559TIP3    H141092   3.623   2.844  11.688
 6559TIP3    H241093   3.567   2.910  11.564
 6560TIP3   OH241094   2.827   2.173  11.243
 6560TIP3    H141095   2.781   2.227  11.307
 6560TIP3    H241096   2.810   2.215  11.159
 6561TIP3   OH241097   5.661   2.135  13.832
 6561TIP3    H141098   5.633   2.085  13.909
 6561TIP3    H241099   5.657   2.072  13.760
 6562TIP3   OH241100   2.571   4.805   0.342
 6562TIP3    H141101   2.662   4.819   0.369
 6562TIP3    H241102   2.527   4.887   0.364
 6563TIP3   OH241103   1.123   2.378  13.426
 6563TIP3    H141104   1.128   2.297  13.478
 6563TIP3    H241105   1.049   2.426  13.463
 6564TIP3   OH241106   5.321   1.123  11.883
 6564TIP3    H141107   5.247   1.067  11.905
 6564TIP3    H241108   5.348   1.093  11.796
 6565TIP3   OH241109   0.085   1.147  16.218
 6565TIP3    H141110   0.062   1.211  16.286
 6565TIP3    H241111   0.175   1.122  16.237
 6566TIP3   OH241112   4.746   4.825   0.855
 6566TIP3    H141113   4.828   4.864   0.826
 6566TIP3    H241114   4.767   4.732   0.868
 6567TIP3   OH241115   6.752   6.625  11.511
 6567TIP3    H141116   6.707   6.565  11.451
 6567TIP3    H241117   6.812   6.674  11.455
 6568TIP3   OH241118   0.213   6.268   1.797
 6568TIP3    H141119   0.170   6.221   1.727
 6568TIP3    H241120   0.269   6.332   1.753
 6569TIP3   OH241121   6.129   1.125  11.900
 6569TIP3    H141122   6.102   1.122  11.808
 6569TIP3    H241123   6.165   1.038  11.917
 6570TIP3   OH241124   4.126   1.963  12.756
 6570TIP3    H141125   4.063   1.911  12.705
 6570TIP3    H241126   4.211   1.936  12.722
 6571TIP3   OH241127   3.054   3.400  13.648
 6571TIP3    H141128   3.009   3.478  13.616
 6571TIP3    H241129   3.128   3.389  13.589
 6572TIP3   OH241130   2.232   6.357  11.479
 6572TIP3    H141131   2.201   6.432  11.429
 6572TIP3    H241132   2.294   6.394  11.543
 6573TIP3   OH241133   4.839   0.353  11.110
 6573TIP3    H141134   4.794   0.270  11.093
 6573TIP3    H241135   4.820   0.407  11.034
 6574TIP3   OH241136   1.024   4.610  14.310
 6574TIP3    H141137   1.104   4.573  14.348
 6574TIP3    H241138   1.006   4.554  14.234
 6575TIP3   OH241139   4.128   1.441   5.120
 6575TIP3    H141140   4.080   1.522   5.136
 6575TIP3    H241141   4.196   1.440   5.188
 6576TIP3   OH241142   3.572   1.944   6.103
 6576TIP3    H141143   3.621   2.008   6.155
 6576TIP3    H241144   3.627   1.930   6.026
 6577TIP3   OH241145   4.828   4.469   1.382
 6577TIP3    H141146   4.868   4.540   1.333
 6577TIP3    H241147   4.876   4.391   1.355
 6578TIP3   OH241148   6.091   5.050  14.262
 6578TIP3    H141149   6.128   5.090  14.341
 6578TIP3    H241150   5.997   5.068  14.268
 6579TIP3   OH241151   2.088   4.078  14.262
 6579TIP3    H141152   2.159   4.122  14.216
 6579TIP3    H241153   2.130   4.037  14.337
 6580TIP3   OH241154   5.469   4.369  14.862
 6580TIP3    H141155   5.467   4.285  14.815
 6580TIP3    H241156   5.407   4.424  14.815
 6581TIP3   OH241157   2.548   6.237  11.555
 6581TIP3    H141158   2.568   6.207  11.467
 6581TIP3    H241159   2.535   6.332  11.546
 6582TIP3   OH241160   6.350   6.445  12.800
 6582TIP3    H141161   6.380   6.414  12.885
 6582TIP3    H241162   6.272   6.393  12.781
 6583TIP3   OH241163   2.469   6.484   4.198
 6583TIP3    H141164   2.478   6.524   4.285
 6583TIP3    H241165   2.488   6.392   4.212
 6584TIP3   OH241166   4.153   4.669  16.670
 6584TIP3    H141167   4.114   4.615  16.601
 6584TIP3    H241168   4.178   4.750  16.626
 6585TIP3   OH241169   6.599   0.180   4.182
 6585TIP3    H141170   6.582   0.115   4.251
 6585TIP3    H241171   6.525   0.170   4.122
 6586TIP3   OH241172   0.599   2.611   3.833
 6586TIP3    H141173   0.555   2.690   3.802
 6586TIP3    H241174   0.636   2.571   3.755
 6587TIP3   OH241175   4.437   1.314  13.403
 6587TIP3    H141176   4.472   1.265  13.328
 6587TIP3    H241177   4.421   1.248  13.470
 6588TIP3   OH241178   3.290   6.070  16.045
 6588TIP3    H141179   3.244   6.123  15.980
 6588TIP3    H241180   3.309   5.987  16.001
 6589TIP3   OH241181   6.229   4.590   2.730
 6589TIP3    H141182   6.226   4.677   2.690
 6589TIP3    H241183   6.138   4.572   2.756
 6590TIP3   OH241184   0.522   6.744   2.714
 6590TIP3    H141185   0.504   6.650   2.716
 6590TIP3    H241186   0.438   6.785   2.734
 6591TIP3   OH241187   5.172   6.697  14.839
 6591TIP3    H141188   5.205   6.720  14.752
 6591TIP3    H241189   5.136   6.609  14.829
 6592TIP3   OH241190   0.302   0.889   1.089
 6592TIP3    H141191   0.352   0.822   1.043
 6592TIP3    H241192   0.338   0.972   1.058
 6593TIP3   OH241193   5.650   1.242  11.230
 6593TIP3    H141194   5.610   1.311  11.179
 6593TIP3    H241195   5.712   1.200  11.170
 6594TIP3   OH241196   1.884   5.838   3.120
 6594TIP3    H141197   1.893   5.748   3.088
 6594TIP3    H241198   1.790   5.854   3.120
 6595TIP3   OH241199   2.301   0.541  14.458
 6595TIP3    H141200   2.342   0.627  14.451
 6595TIP3    H241201   2.310   0.503  14.370
 6596TIP3   OH241202   1.492   5.362  14.690
 6596TIP3    H141203   1.413   5.319  14.657
 6596TIP3    H241204   1.519   5.420  14.618
 6597TIP3   OH241205   3.065   5.750   6.455
 6597TIP3    H141206   2.995   5.693   6.424
 6597TIP3    H241207   3.140   5.728   6.399
 6598TIP3   OH241208   2.609   5.422   5.991
 6598TIP3    H141209   2.696   5.462   6.002
 6598TIP3    H241210   2.626   5.328   5.990
 6599TIP3   OH241211   2.556   4.396  13.417
 6599TIP3    H141212   2.645   4.362  13.409
 6599TIP3    H241213   2.524   4.362  13.500
 6600TIP3   OH241214   3.029   3.649   3.975
 6600TIP3    H141215   3.002   3.575   4.030
 6600TIP3    H241216   2.979   3.723   4.009
 6601TIP3   OH241217   0.215   0.815   4.544
 6601TIP3    H141218   0.292   0.773   4.582
 6601TIP3    H241219   0.156   0.744   4.521
 6602TIP3   OH241220   4.165   3.452   2.572
 6602TIP3    H141221   4.240   3.504   2.599
 6602TIP3    H241222   4.189   3.362   2.594
 6603TIP3   OH241223   6.022   0.868  10.998
 6603TIP3    H141224   5.990   0.778  11.006
 6603TIP3    H241225   6.112   0.864  11.032
 6604TIP3   OH241226   0.907   1.502   3.755
 6604TIP3    H141227   0.992   1.465   3.731
 6604TIP3    H241228   0.867   1.527   3.672
 6605TIP3   OH241229   3.881   0.081  11.810
 6605TIP3    H141230   3.945   0.011  11.798
 6605TIP3    H241231   3.931   0.155  11.843
 6606TIP3   OH241232   5.755   0.992  11.471
 6606TIP3    H141233   5.679   1.049  11.479
 6606TIP3    H241234   5.793   0.989  11.558
 6607TIP3   OH241235   5.180   3.750   6.485
 6607TIP3    H141236   5.159   3.657   6.490
 6607TIP3    H241237   5.115   3.792   6.542
 6608TIP3   OH241238   5.467   5.177   2.542
 6608TIP3    H141239   5.434   5.088   2.547
 6608TIP3    H241240   5.430   5.212   2.461
 6609TIP3   OH241241   5.432   1.238  14.679
 6609TIP3    H141242   5.337   1.235  14.685
 6609TIP3    H241243   5.461   1.148  14.693
 6610TIP3   OH241244   1.811   2.904  15.745
 6610TIP3    H141245   1.891   2.916  15.695
 6610TIP3    H241246   1.801   2.985  15.795
 6611TIP3   OH241247   3.686   4.184   5.932
 6611TIP3    H141248   3.676   4.180   6.028
 6611TIP3    H241249   3.749   4.254   5.918
 6612TIP3   OH241250   2.560   2.587  11.541
 6612TIP3    H141251   2.506   2.577  11.620
 6612TIP3    H241252   2.504   2.636  11.480
 6613TIP3   OH241253   6.049   0.936  12.364
 6613TIP3    H141254   6.007   0.988  12.295
 6613TIP3    H241255   5.991   0.944  12.439
 6614TIP3   OH241256   4.236   3.400  15.188
 6614TIP3    H141257   4.259   3.448  15.109
 6614TIP3    H241258   4.145   3.424  15.206
 6615TIP3   OH241259   4.566   0.541   4.412
 6615TIP3    H141260   4.538   0.592   4.488
 6615TIP3    H241261   4.486   0.497   4.382
 6616TIP3   OH241262   3.867   3.549   4.570
 6616TIP3    H141263   3.882   3.643   4.553
 6616TIP3    H241264   3.876   3.540   4.665
 6617TIP3   OH241265   6.589   2.054   2.233
 6617TIP3    H141266   6.496   2.060   2.255
 6617TIP3    H241267   6.604   2.122   2.168
 6618TIP3   OH241268   1.142   0.458  12.557
 6618TIP3    H141269   1.196   0.464  12.478
 6618TIP3    H241270   1.052   0.456  12.524
 6619TIP3   OH241271   1.448   2.269  16.158
 6619TIP3    H141272   1.527   2.324  16.162
 6619TIP3    H241273   1.414   2.270  16.248
 6620TIP3   OH241274   3.740   3.266  11.861
 6620TIP3    H141275   3.678   3.197  11.839
 6620TIP3    H241276   3.811   3.255  11.799
 6621TIP3   OH241277   4.647   2.872   2.036
 6621TIP3    H141278   4.644   2.828   1.951
 6621TIP3    H241279   4.715   2.939   2.025
 6622TIP3   OH241280   4.208   5.111  14.155
 6622TIP3    H141281   4.202   5.017  14.173
 6622TIP3    H241282   4.134   5.128  14.097
 6623TIP3   OH241283   4.138   4.804  16.169
 6623TIP3    H141284   4.224   4.846  16.172
 6623TIP3    H241285   4.118   4.796  16.076
 6624TIP3   OH241286   1.109   3.878  16.163
 6624TIP3    H141287   1.185   3.935  16.176
 6624TIP3    H241288   1.049   3.903  16.234
 6625TIP3   OH241289   4.710   2.830  14.855
 6625TIP3    H141290   4.800   2.840  14.886
 6625TIP3    H241291   4.663   2.906  14.890
 6626TIP3   OH241292   3.668   2.438   5.117
 6626TIP3    H141293   3.761   2.460   5.115
 6626TIP3    H241294   3.658   2.374   5.046
 6627TIP3   OH241295   0.836   1.383   1.178
 6627TIP3    H141296   0.900   1.416   1.241
 6627TIP3    H241297   0.805   1.461   1.133
 6628TIP3   OH241298   3.201   0.531   0.639
 6628TIP3    H141299   3.278   0.544   0.694
 6628TIP3    H241300   3.205   0.601   0.574
 6629TIP3   OH241301   3.890   3.258   0.600
 6629TIP3    H141302   3.809   3.223   0.563
 6629TIP3    H241303   3.881   3.243   0.694
 6630TIP3   OH241304   5.707   0.640  15.797
 6630TIP3    H141305   5.683   0.644  15.890
 6630TIP3    H241306   5.746   0.726  15.779
 6631TIP3   OH241307   4.515   3.570   6.770
 6631TIP3    H141308   4.463   3.503   6.816
 6631TIP3    H241309   4.452   3.613   6.712
 6632TIP3   OH241310   3.068   3.147   0.329
 6632TIP3    H141311   3.064   3.234   0.291
 6632TIP3    H241312   3.123   3.097   0.268
 6633TIP3   OH241313   3.479   6.352  16.190
 6633TIP3    H141314   3.400   6.354  16.243
 6633TIP3    H241315   3.519   6.267  16.210
 6634TIP3   OH241316   0.858   6.725  12.549
 6634TIP3    H141317   0.929   6.784  12.576
 6634TIP3    H241318   0.807   6.776  12.486
 6635TIP3   OH241319   6.588   2.311   2.736
 6635TIP3    H141320   6.662   2.310   2.675
 6635TIP3    H241321   6.625   2.340   2.819
 6636TIP3   OH241322   4.895   1.236   5.693
 6636TIP3    H141323   4.873   1.279   5.775
 6636TIP3    H241324   4.815   1.191   5.667
 6637TIP3   OH241325   1.030   4.071   5.075
 6637TIP3    H141326   1.071   4.058   5.160
 6637TIP3    H241327   1.080   4.015   5.015
 6638TIP3   OH241328   1.570   0.398  12.294
 6638TIP3    H141329   1.521   0.474  12.326
 6638TIP3    H241330   1.625   0.373  12.369
 6639TIP3   OH241331   1.312   6.034   3.897
 6639TIP3    H141332   1.283   6.026   3.988
 6639TIP3    H241333   1.257   5.972   3.849
 6640TIP3   OH241334   0.600   5.316   6.007
 6640TIP3    H141335   0.513   5.285   5.983
 6640TIP3    H241336   0.585   5.402   6.047
 6641TIP3   OH241337   0.467   3.697  14.939
 6641TIP3    H141338   0.493   3.705  15.031
 6641TIP3    H241339   0.377   3.664  14.942
 6642TIP3   OH241340   6.713   2.809  12.318
 6642TIP3    H141341   6.795   2.859  12.317
 6642TIP3    H241342   6.665   2.841  12.242
 6643TIP3   OH241343   6.717   4.816   1.224
 6643TIP3    H141344   6.799   4.819   1.173
 6643TIP3    H241345   6.673   4.899   1.203
 6644TIP3   OH241346   1.555   2.435  14.393
 6644TIP3    H141347   1.503   2.485  14.330
 6644TIP3    H241348   1.584   2.500  14.458
 6645TIP3   OH241349   3.522   6.633  16.209
 6645TIP3    H141350   3.432   6.658  16.231
 6645TIP3    H241351   3.513   6.550  16.162
 6646TIP3   OH241352   4.151   6.221  14.911
 6646TIP3    H141353   4.214   6.202  14.841
 6646TIP3    H241354   4.139   6.316  14.907
 6647TIP3   OH241355   0.392   4.363  10.955
 6647TIP3    H141356   0.381   4.351  10.861
 6647TIP3    H241357   0.339   4.293  10.994
 6648TIP3   OH241358   0.531   2.281   6.078
 6648TIP3    H141359   0.490   2.202   6.114
 6648TIP3    H241360   0.547   2.337   6.154
 6649TIP3   OH241361   0.162   2.213  11.515
 6649TIP3    H141362   0.148   2.160  11.437
 6649TIP3    H241363   0.097   2.179  11.578
 6650TIP3   OH241364   1.773   1.519  14.068
 6650TIP3    H141365   1.722   1.578  14.013
 6650TIP3    H241366   1.803   1.573  14.140
 6651TIP3   OH241367   2.813   5.059  15.155
 6651TIP3    H141368   2.854   5.003  15.221
 6651TIP3    H241369   2.719   5.044  15.166
 6652TIP3   OH241370   2.155   6.204  16.201
 6652TIP3    H141371   2.100   6.255  16.141
 6652TIP3    H241372   2.237   6.191  16.152
 6653TIP3   OH241373   2.404   5.017  14.482
 6653TIP3    H141374   2.369   5.022  14.570
 6653TIP3    H241375   2.490   5.058  14.487
 6654TIP3   OH241376   4.492   2.720   4.665
 6654TIP3    H141377   4.464   2.637   4.626
 6654TIP3    H241378   4.411   2.758   4.700
 6655TIP3   OH241379   3.358   2.617  11.140
 6655TIP3    H141380   3.323   2.645  11.055
 6655TIP3    H241381   3.404   2.535  11.120
 6656TIP3   OH241382   3.467   0.806   4.955
 6656TIP3    H141383   3.479   0.803   4.860
 6656TIP3    H241384   3.554   0.786   4.991
 6657TIP3   OH241385   2.276   3.444  13.906
 6657TIP3    H141386   2.363   3.462  13.869
 6657TIP3    H241387   2.279   3.351  13.927
 6658TIP3   OH241388   0.142   2.047  12.995
 6658TIP3    H141389   0.186   2.019  13.075
 6658TIP3    H241390   0.166   2.139  12.985
 6659TIP3   OH241391   0.599   5.134  16.990
 6659TIP3    H141392   0.575   5.219  17.029
 6659TIP3    H241393   0.683   5.151  16.946
 6660TIP3   OH241394   0.605   3.265  13.121
 6660TIP3    H141395   0.601   3.216  13.038
 6660TIP3    H241396   0.601   3.198  13.189
 6661TIP3   OH241397   4.520   5.517  16.931
 6661TIP3    H141398   4.594   5.488  16.878
 6661TIP3    H241399   4.559   5.552  17.011
 6662TIP3   OH241400   2.453   1.611  13.636
 6662TIP3    H141401   2.517   1.660  13.585
 6662TIP3    H241402   2.380   1.672  13.649
 6663TIP3   OH241403   3.722   5.418   6.121
 6663TIP3    H141404   3.761   5.505   6.133
 6663TIP3    H241405   3.666   5.406   6.198
 6664TIP3   OH241406   2.366   6.705   0.825
 6664TIP3    H141407   2.343   6.669   0.911
 6664TIP3    H241408   2.462   6.706   0.826
 6665TIP3   OH241409   0.709   2.664   1.773
 6665TIP3    H141410   0.730   2.574   1.796
 6665TIP3    H241411   0.647   2.657   1.700
 6666TIP3   OH241412   0.329   1.377  12.784
 6666TIP3    H141413   0.409   1.331  12.759
 6666TIP3    H241414   0.355   1.435  12.855
 6667TIP3   OH241415   4.122   4.545  15.925
 6667TIP3    H141416   4.100   4.636  15.907
 6667TIP3    H241417   4.213   4.536  15.898
 6668TIP3   OH241418   5.567   0.294  13.687
 6668TIP3    H141419   5.476   0.305  13.658
 6668TIP3    H241420   5.588   0.203  13.668
 6669TIP3   OH241421   5.918   5.648   2.444
 6669TIP3    H141422   5.936   5.555   2.460
 6669TIP3    H241423   5.903   5.685   2.530
 6670TIP3   OH241424   4.795   0.185  10.812
 6670TIP3    H141425   4.717   0.239  10.797
 6670TIP3    H241426   4.763   0.110  10.863
 6671TIP3   OH241427   5.632   6.083   3.341
 6671TIP3    H141428   5.583   6.132   3.274
 6671TIP3    H241429   5.644   6.145   3.412
 6672TIP3   OH241430   4.721   0.823   1.199
 6672TIP3    H141431   4.795   0.808   1.259
 6672TIP3    H241432   4.755   0.883   1.134
 6673TIP3   OH241433   3.392   0.201  11.815
 6673TIP3    H141434   3.297   0.211  11.817
 6673TIP3    H241435   3.424   0.269  11.875
 6674TIP3   OH241436   5.681   0.195  14.289
 6674TIP3    H141437   5.674   0.281  14.331
 6674TIP3    H241438   5.690   0.214  14.196
 6675TIP3   OH241439   5.096   5.339   0.630
 6675TIP3    H141440   5.167   5.388   0.589
 6675TIP3    H241441   5.043   5.406   0.674
 6676TIP3   OH241442   5.266   0.932  17.189
 6676TIP3    H141443   5.323   0.981  17.249
 6676TIP3    H241444   5.196   0.994  17.167
 6677TIP3   OH241445   0.966   0.582   3.437
 6677TIP3    H141446   1.029   0.523   3.397
 6677TIP3    H241447   1.007   0.669   3.431
 6678TIP3   OH241448   0.677   0.214   3.094
 6678TIP3    H141449   0.676   0.304   3.063
 6678TIP3    H241450   0.587   0.198   3.124
 6679TIP3   OH241451   0.059   2.900   2.822
 6679TIP3    H141452   0.064   2.844   2.900
 6679TIP3    H241453   0.023   2.843   2.754
 6680TIP3   OH241454   5.840   3.374  15.834
 6680TIP3    H141455   5.785   3.307  15.792
 6680TIP3    H241456   5.924   3.331  15.848
 6681TIP3   OH241457   0.083   5.700  14.990
 6681TIP3    H141458   0.054   5.632  15.050
 6681TIP3    H241459   0.144   5.656  14.930
 6682TIP3   OH241460   1.066   4.082  12.669
 6682TIP3    H141461   1.075   3.988  12.686
 6682TIP3    H241462   0.985   4.089  12.619
 6683TIP3   OH241463   4.216   0.835  11.428
 6683TIP3    H141464   4.237   0.925  11.453
 6683TIP3    H241465   4.222   0.834  11.333
 6684TIP3   OH241466   4.869   4.814  11.069
 6684TIP3    H141467   4.918   4.844  10.992
 6684TIP3    H241468   4.936   4.778  11.128
 6685TIP3   OH241469   5.182   5.654   5.247
 6685TIP3    H141470   5.278   5.654   5.250
 6685TIP3    H241471   5.156   5.645   5.339
 6686TIP3   OH241472   4.038   0.871  14.110
 6686TIP3    H141473   4.107   0.807  14.131
 6686TIP3    H241474   3.996   0.888  14.194
 6687TIP3   OH241475   2.128   6.144   5.661
 6687TIP3    H141476   2.124   6.192   5.744
 6687TIP3    H241477   2.221   6.125   5.650
 6688TIP3   OH241478   6.335   5.469  13.541
 6688TIP3    H141479   6.284   5.535  13.589
 6688TIP3    H241480   6.420   5.511  13.525
 6689TIP3   OH241481   5.934   5.108  15.575
 6689TIP3    H141482   5.907   5.058  15.652
 6689TIP3    H241483   5.983   5.182  15.610
 6690TIP3   OH241484   3.657   4.299   1.452
 6690TIP3    H141485   3.668   4.225   1.511
 6690TIP3    H241486   3.614   4.262   1.375
 6691TIP3   OH241487   6.520   4.514  11.212
 6691TIP3    H141488   6.497   4.421  11.219
 6691TIP3    H241489   6.495   4.539  11.123
 6692TIP3   OH241490   4.033   1.978  14.181
 6692TIP3    H141491   3.960   2.039  14.184
 6692TIP3    H241492   4.026   1.928  14.262
 6693TIP3   OH241493   0.841   3.849  14.559
 6693TIP3    H141494   0.880   3.763  14.543
 6693TIP3    H241495   0.781   3.835  14.633
 6694TIP3   OH241496   5.226   5.065   4.171
 6694TIP3    H141497   5.158   5.123   4.205
 6694TIP3    H241498   5.188   4.977   4.178
 6695TIP3   OH241499   2.678   3.864   2.936
 6695TIP3    H141500   2.751   3.889   2.880
 6695TIP3    H241501   2.600   3.901   2.894
 6696TIP3   OH241502   0.288   1.090  10.892
 6696TIP3    H141503   0.355   1.024  10.876
 6696TIP3    H241504   0.292   1.148  10.816
 6697TIP3   OH241505   0.142   4.835  12.208
 6697TIP3    H141506   0.235   4.815  12.209
 6697TIP3    H241507   0.115   4.820  12.118
 6698TIP3   OH241508   4.439   6.650   0.967
 6698TIP3    H141509   4.441   6.745   0.977
 6698TIP3    H241510   4.409   6.618   1.052
 6699TIP3   OH241511   0.751   4.910   0.196
 6699TIP3    H141512   0.840   4.895   0.164
 6699TIP3    H241513   0.696   4.906   0.118
 6700TIP3   OH241514   0.983   0.074  16.745
 6700TIP3    H141515   0.956   0.009  16.809
 6700TIP3    H241516   0.923   0.148  16.759
 6701TIP3   OH241517   2.847   5.940  16.611
 6701TIP3    H141518   2.795   5.867  16.578
 6701TIP3    H241519   2.937   5.908  16.611
 6702TIP3   OH241520   4.439   3.423   5.623
 6702TIP3    H141521   4.452   3.451   5.532
 6702TIP3    H241522   4.506   3.356   5.636
 6703TIP3   OH241523   2.663   6.751  15.975
 6703TIP3    H141524   2.655   6.784  16.065
 6703TIP3    H241525   2.757   6.739  15.962
 6704TIP3   OH241526   2.620   4.732   0.052
 6704TIP3    H141527   2.689   4.684   0.098
 6704TIP3    H241528   2.556   4.752   0.120
 6705TIP3   OH241529   5.365   2.405  12.644
 6705TIP3    H141530   5.415   2.327  12.670
 6705TIP3    H241531   5.305   2.421  12.717
 6706TIP3   OH241532   5.080   2.982  16.272
 6706TIP3    H141533   5.165   3.020  16.292
 6706TIP3    H241534   5.017   3.048  16.301
 6707TIP3   OH241535   5.458   0.528   1.674
 6707TIP3    H141536   5.404   0.569   1.742
 6707TIP3    H241537   5.504   0.457   1.719
 6708TIP3   OH241538   5.172   4.536   4.201
 6708TIP3    H141539   5.170   4.452   4.247
 6708TIP3    H241540   5.191   4.512   4.110
 6709TIP3   OH241541   0.689   5.744   3.648
 6709TIP3    H141542   0.632   5.723   3.722
 6709TIP3    H241543   0.654   5.692   3.575
 6710TIP3   OH241544   5.430   3.461  13.078
 6710TIP3    H141545   5.506   3.489  13.129
 6710TIP3    H241546   5.429   3.518  13.002
 6711TIP3   OH241547   4.014   4.441   4.864
 6711TIP3    H141548   4.014   4.445   4.959
 6711TIP3    H241549   4.107   4.442   4.840
 6712TIP3   OH241550   1.946   5.657  11.088
 6712TIP3    H141551   1.971   5.676  11.179
 6712TIP3    H241552   2.004   5.585  11.062
 6713TIP3   OH241553   2.847   6.450  11.864
 6713TIP3    H141554   2.845   6.456  11.768
 6713TIP3    H241555   2.809   6.364  11.883
 6714TIP3   OH241556   6.027   4.068  14.061
 6714TIP3    H141557   5.935   4.062  14.088
 6714TIP3    H241558   6.024   4.053  13.966
 6715TIP3   OH241559   6.245   1.632   2.631
 6715TIP3    H141560   6.338   1.610   2.623
 6715TIP3    H241561   6.245   1.720   2.669
 6716TIP3   OH241562   0.298   4.409   2.405
 6716TIP3    H141563   0.282   4.499   2.379
 6716TIP3    H241564   0.297   4.360   2.323
 6717TIP3   OH241565   5.416   5.100   3.276
 6717TIP3    H141566   5.408   5.045   3.354
 6717TIP3    H241567   5.471   5.173   3.304
 6718TIP3   OH241568   1.610   0.195  16.363
 6718TIP3    H141569   1.668   0.267  16.336
 6718TIP3    H241570   1.651   0.162  16.444
 6719TIP3   OH241571   0.712   2.704   2.153
 6719TIP3    H141572   0.776   2.720   2.084
 6719TIP3    H241573   0.762   2.662   2.223
 6720TIP3   OH241574   3.049   2.652  17.075
 6720TIP3    H141575   3.059   2.710  17.000
 6720TIP3    H241576   2.964   2.676  17.112
 6721TIP3   OH241577   2.677   1.422   3.118
 6721TIP3    H141578   2.743   1.445   3.183
 6721TIP3    H241579   2.697   1.478   3.043
 6722TIP3   OH241580   3.036   0.640   1.215
 6722TIP3    H141581   2.959   0.620   1.162
 6722TIP3    H241582   3.016   0.606   1.302
 6723TIP3   OH241583   5.836   4.824  17.048
 6723TIP3    H141584   5.882   4.903  17.020
 6723TIP3    H241585   5.896   4.782  17.110
 6724TIP3   OH241586   5.250   3.106   2.163
 6724TIP3    H141587   5.204   3.168   2.106
 6724TIP3    H241588   5.281   3.160   2.236
 6725TIP3   OH241589   3.181   1.457  10.106
 6725TIP3    H141590   3.151   1.398  10.175
 6725TIP3    H241591   3.223   1.530  10.153
 6726TIP3   OH241592   1.028   2.646   3.301
 6726TIP3    H141593   0.944   2.646   3.347
 6726TIP3    H241594   1.088   2.601   3.361
 6727TIP3   OH241595   2.333   4.039  12.541
 6727TIP3    H141596   2.364   4.065  12.454
 6727TIP3    H241597   2.358   4.111  12.598
 6728TIP3   OH241598   0.577   0.440  16.805
 6728TIP3    H141599   0.658   0.491  16.795
 6728TIP3    H241600   0.520   0.472  16.735
 6729TIP3   OH241601   6.437   1.216   4.415
 6729TIP3    H141602   6.372   1.161   4.369
 6729TIP3    H241603   6.453   1.288   4.355
 6730TIP3   OH241604   3.401   6.036   0.211
 6730TIP3    H141605   3.421   5.949   0.248
 6730TIP3    H241606   3.343   6.017   0.137
 6731TIP3   OH241607   2.212   2.812  13.966
 6731TIP3    H141608   2.220   2.796  14.060
 6731TIP3    H241609   2.299   2.843  13.940
 6732TIP3   OH241610   2.186   5.428   5.420
 6732TIP3    H141611   2.231   5.357   5.373
 6732TIP3    H241612   2.257   5.482   5.454
 6733TIP3   OH241613   2.686   0.098  12.210
 6733TIP3    H141614   2.762   0.070  12.261
 6733TIP3    H241615   2.623   0.027  12.219
 6734TIP3   OH241616   1.849   4.547  12.390
 6734TIP3    H141617   1.808   4.622  12.432
 6734TIP3    H241618   1.796   4.472  12.417
 6735TIP3   OH241619   2.607   1.874  16.093
 6735TIP3    H141620   2.588   1.830  16.175
 6735TIP3    H241621   2.664   1.947  16.117
 6736TIP3   OH241622   2.697   5.466  13.856
 6736TIP3    H141623   2.682   5.532  13.789
 6736TIP3    H241624   2.789   5.442  13.847
 6737TIP3   OH241625   2.296   3.595  10.864
 6737TIP3    H141626   2.372   3.584  10.920
 6737TIP3    H241627   2.331   3.632  10.783
 6738TIP3   OH241628   3.441   3.944   1.963
 6738TIP3    H141629   3.495   3.865   1.968
 6738TIP3    H241630   3.351   3.911   1.962
 6739TIP3   OH241631   1.972   6.238   3.877
 6739TIP3    H141632   1.931   6.322   3.857
 6739TIP3    H241633   2.054   6.260   3.921
 6740TIP3   OH241634   4.670   5.661   1.545
 6740TIP3    H141635   4.673   5.737   1.604
 6740TIP3    H241636   4.584   5.667   1.504
 6741TIP3   OH241637   4.732   1.205  12.610
 6741TIP3    H141638   4.741   1.240  12.699
 6741TIP3    H241639   4.816   1.165  12.591
 6742TIP3   OH241640   1.589   0.354   4.298
 6742TIP3    H141641   1.557   0.432   4.343
 6742TIP3    H241642   1.563   0.365   4.207
 6743TIP3   OH241643   3.748   0.128  12.661
 6743TIP3    H141644   3.668   0.089  12.626
 6743TIP3    H241645   3.773   0.070  12.733
 6744TIP3   OH241646   1.507   4.747  12.088
 6744TIP3    H141647   1.436   4.731  12.027
 6744TIP3    H241648   1.483   4.698  12.167
 6745TIP3   OH241649   3.794   6.545   2.621
 6745TIP3    H141650   3.877   6.586   2.645
 6745TIP3    H241651   3.751   6.607   2.563
 6746TIP3   OH241652   3.375   5.706  12.073
 6746TIP3    H141653   3.390   5.761  12.150
 6746TIP3    H241654   3.374   5.617  12.108
 6747TIP3   OH241655   2.653   2.722  14.752
 6747TIP3    H141656   2.693   2.751  14.835
 6747TIP3    H241657   2.720   2.665  14.713
 6748TIP3   OH241658   1.533   2.538   2.221
 6748TIP3    H141659   1.583   2.477   2.166
 6748TIP3    H241660   1.600   2.592   2.264
 6749TIP3   OH241661   4.292   5.030   0.815
 6749TIP3    H141662   4.236   5.024   0.738
 6749TIP3    H241663   4.243   5.083   0.877
 6750TIP3   OH241664   3.218   6.747   4.571
 6750TIP3    H141665   3.265   6.716   4.494
 6750TIP3    H241666   3.187   6.667   4.614
 6751TIP3   OH241667   6.528   2.678   4.482
 6751TIP3    H141668   6.483   2.609   4.529
 6751TIP3    H241669   6.576   2.633   4.413
 6752TIP3   OH241670   5.637   3.818   3.707
 6752TIP3    H141671   5.682   3.746   3.662
 6752TIP3    H241672   5.707   3.874   3.739
 6753TIP3   OH241673   0.046   4.656   2.110
 6753TIP3    H141674   0.065   4.653   2.016
 6753TIP3    H241675  -0.020   4.588   2.123
 6754TIP3   OH241676   4.406   4.209  14.428
 6754TIP3    H141677   4.428   4.273  14.361
 6754TIP3    H241678   4.483   4.206  14.485
 6755TIP3   OH241679   0.894   2.591  15.183
 6755TIP3    H141680   0.849   2.611  15.101
 6755TIP3    H241681   0.941   2.671  15.205
 6756TIP3   OH241682   1.942   0.754   2.445
 6756TIP3    H141683   1.849   0.771   2.463
 6756TIP3    H241684   1.941   0.706   2.362
 6757TIP3   OH241685   1.864   5.344  12.759
 6757TIP3    H141686   1.928   5.313  12.823
 6757TIP3    H241687   1.795   5.278  12.761
 6758TIP3   OH241688   4.603   2.045   3.980
 6758TIP3    H141689   4.656   2.080   3.908
 6758TIP3    H241690   4.657   1.976   4.017
 6759TIP3   OH241691   6.384   4.405   3.628
 6759TIP3    H141692   6.392   4.485   3.679
 6759TIP3    H241693   6.292   4.381   3.634
 6760TIP3   OH241694   6.331   4.082   1.859
 6760TIP3    H141695   6.327   4.178   1.860
 6760TIP3    H241696   6.421   4.062   1.885
 6761TIP3   OH241697   2.149   5.427  14.083
 6761TIP3    H141698   2.094   5.442  14.159
 6761TIP3    H241699   2.088   5.419  14.010
 6762TIP3   OH241700   3.163   4.149   6.185
 6762TIP3    H141701   3.111   4.085   6.136
 6762TIP3    H241702   3.156   4.119   6.276
 6763TIP3   OH241703   2.055   4.483   5.542
 6763TIP3    H141704   2.065   4.577   5.529
 6763TIP3    H241705   2.074   4.445   5.456
 6764TIP3   OH241706   1.199   0.717  16.122
 6764TIP3    H141707   1.196   0.751  16.033
 6764TIP3    H241708   1.285   0.676  16.130
 6765TIP3   OH241709   5.128   0.960   3.275
 6765TIP3    H141710   5.206   1.009   3.300
 6765TIP3    H241711   5.057   1.003   3.324
 6766TIP3   OH241712   2.197   0.702   5.738
 6766TIP3    H141713   2.232   0.790   5.750
 6766TIP3    H241714   2.102   0.713   5.744
 6767TIP3   OH241715   4.235   5.968   4.921
 6767TIP3    H141716   4.244   5.881   4.882
 6767TIP3    H241717   4.293   6.023   4.869
 6768TIP3   OH241718   6.311   0.346  14.202
 6768TIP3    H141719   6.307   0.334  14.297
 6768TIP3    H241720   6.265   0.269  14.167
 6769TIP3   OH241721   4.064   3.728   0.511
 6769TIP3    H141722   4.015   3.721   0.429
 6769TIP3    H241723   4.068   3.638   0.544
 6770TIP3   OH241724   5.703   3.386   5.848
 6770TIP3    H141725   5.737   3.312   5.796
 6770TIP3    H241726   5.725   3.364   5.938
 6771TIP3   OH241727   3.184   1.361   3.934
 6771TIP3    H141728   3.141   1.399   4.011
 6771TIP3    H241729   3.258   1.419   3.917
 6772TIP3   OH241730   5.738   5.486   2.708
 6772TIP3    H141731   5.770   5.430   2.779
 6772TIP3    H241732   5.805   5.478   2.640
 6773TIP3   OH241733   4.423   6.267  13.761
 6773TIP3    H141734   4.428   6.348  13.811
 6773TIP3    H241735   4.353   6.217  13.803
 6774TIP3   OH241736   0.383   6.758  13.177
 6774TIP3    H141737   0.343   6.827  13.230
 6774TIP3    H241738   0.434   6.804  13.111
 6775TIP3   OH241739   6.683   0.143   0.457
 6775TIP3    H141740   6.707   0.058   0.494
 6775TIP3    H241741   6.687   0.130   0.363
 6776TIP3   OH241742   1.939   2.563   3.447
 6776TIP3    H141743   1.894   2.602   3.372
 6776TIP3    H241744   2.001   2.501   3.408
 6777TIP3   OH241745   0.713   3.005  15.298
 6777TIP3    H141746   0.779   2.950  15.338
 6777TIP3    H241747   0.724   2.991  15.204
 6778TIP3   OH241748   6.014   0.726   2.726
 6778TIP3    H141749   5.968   0.807   2.747
 6778TIP3    H241750   5.970   0.659   2.778
 6779TIP3   OH241751   1.254   5.003  15.423
 6779TIP3    H141752   1.200   5.027  15.348
 6779TIP3    H241753   1.343   5.027  15.397
 6780TIP3   OH241754   3.069   3.438   0.695
 6780TIP3    H141755   2.986   3.392   0.711
 6780TIP3    H241756   3.071   3.508   0.760
 6781TIP3   OH241757   6.145   3.174   1.067
 6781TIP3    H141758   6.068   3.131   1.102
 6781TIP3    H241759   6.113   3.226   0.993
 6782TIP3   OH241760   6.650   1.658   5.373
 6782TIP3    H141761   6.590   1.597   5.416
 6782TIP3    H241762   6.612   1.745   5.389
 6783TIP3   OH241763   1.098   5.291   4.695
 6783TIP3    H141764   1.146   5.359   4.647
 6783TIP3    H241765   1.006   5.306   4.671
 6784TIP3   OH241766   1.940   3.761   3.664
 6784TIP3    H141767   1.985   3.692   3.713
 6784TIP3    H241768   1.849   3.731   3.658
 6785TIP3   OH241769   0.617   6.466   0.243
 6785TIP3    H141770   0.649   6.423   0.163
 6785TIP3    H241771   0.618   6.396   0.309
 6786TIP3   OH241772   4.813   6.294   2.888
 6786TIP3    H141773   4.747   6.225   2.900
 6786TIP3    H241774   4.896   6.251   2.909
 6787TIP3   OH241775   0.766   6.367   2.017
 6787TIP3    H141776   0.677   6.353   2.049
 6787TIP3    H241777   0.768   6.322   1.932
 6788TIP3   OH241778   2.835   5.432   2.501
 6788TIP3    H141779   2.907   5.371   2.485
 6788TIP3    H241780   2.757   5.384   2.473
 6789TIP3   OH241781   3.564   4.289  12.074
 6789TIP3    H141782   3.615   4.223  12.028
 6789TIP3    H241783   3.593   4.283  12.165
 6790TIP3   OH241784   5.855   3.125   3.544
 6790TIP3    H141785   5.804   3.052   3.509
 6790TIP3    H241786   5.803   3.159   3.616
 6791TIP3   OH241787   5.599   6.177  10.921
 6791TIP3    H141788   5.536   6.195  10.851
 6791TIP3    H241789   5.548   6.131  10.988
 6792TIP3   OH241790   2.077   2.471  11.904
 6792TIP3    H141791   2.012   2.496  11.838
 6792TIP3    H241792   2.159   2.511  11.873
 6793TIP3   OH241793   1.133   2.673   5.138
 6793TIP3    H141794   1.185   2.671   5.218
 6793TIP3    H241795   1.046   2.701   5.167
 6794TIP3   OH241796   3.233   3.465   1.704
 6794TIP3    H141797   3.150   3.417   1.701
 6794TIP3    H241798   3.282   3.434   1.628
 6795TIP3   OH241799   1.572   2.428  16.593
 6795TIP3    H141800   1.660   2.392  16.604
 6795TIP3    H241801   1.533   2.422  16.680
 6796TIP3   OH241802   2.364   5.425   2.636
 6796TIP3    H141803   2.370   5.479   2.715
 6796TIP3    H241804   2.415   5.473   2.570
 6797TIP3   OH241805   5.154   4.276   4.302
 6797TIP3    H141806   5.224   4.247   4.243
 6797TIP3    H241807   5.100   4.198   4.315
 6798TIP3   OH241808   0.306   2.712  11.437
 6798TIP3    H141809   0.248   2.643  11.469
 6798TIP3    H241810   0.352   2.673  11.363
 6799TIP3   OH241811   2.067   3.882  16.727
 6799TIP3    H141812   2.012   3.954  16.696
 6799TIP3    H241813   2.153   3.900  16.689
 6800TIP3   OH241814   2.744   3.746  10.754
 6800TIP3    H141815   2.808   3.700  10.699
 6800TIP3    H241816   2.728   3.685  10.826
 6801TIP3   OH241817   5.588   4.530   5.590
 6801TIP3    H141818   5.496   4.501   5.595
 6801TIP3    H241819   5.583   4.624   5.578
 6802TIP3   OH241820   2.526   0.424  11.065
 6802TIP3    H141821   2.518   0.493  10.999
 6802TIP3    H241822   2.548   0.346  11.014
 6803TIP3   OH241823   2.164   1.698   1.266
 6803TIP3    H141824   2.152   1.703   1.361
 6803TIP3    H241825   2.246   1.745   1.250
 6804TIP3   OH241826   0.095   5.908   5.729
 6804TIP3    H141827   0.150   5.878   5.656
 6804TIP3    H241828   0.142   5.983   5.765
 6805TIP3   OH241829   2.000   6.081  11.016
 6805TIP3    H141830   2.048   6.163  11.023
 6805TIP3    H241831   1.928   6.089  11.078
 6806TIP3   OH241832   4.545   1.880  17.058
 6806TIP3    H141833   4.627   1.927  17.071
 6806TIP3    H241834   4.569   1.788  17.055
 6807TIP3   OH241835   1.787   6.589   4.579
 6807TIP3    H141836   1.737   6.575   4.499
 6807TIP3    H241837   1.842   6.512   4.587
 6808TIP3   OH241838   2.133   0.120   5.701
 6808TIP3    H141839   2.130   0.200   5.648
 6808TIP3    H241840   2.152   0.050   5.639
 6809TIP3   OH241841   5.878   1.024  13.282
 6809TIP3    H141842   5.787   1.051  13.284
 6809TIP3    H241843   5.886   0.959  13.351
 6810TIP3   OH241844   1.455   4.076  14.531
 6810TIP3    H141845   1.399   4.022  14.586
 6810TIP3    H241846   1.452   4.163  14.572
 6811TIP3   OH241847   4.539   0.181   2.593
 6811TIP3    H141848   4.534   0.155   2.685
 6811TIP3    H241849   4.632   0.169   2.571
 6812TIP3   OH241850   1.894   3.845  14.338
 6812TIP3    H141851   1.944   3.926  14.326
 6812TIP3    H241852   1.809   3.874  14.371
 6813TIP3   OH241853   5.700   0.714  16.082
 6813TIP3    H141854   5.782   0.734  16.127
 6813TIP3    H241855   5.641   0.785  16.106
 6814TIP3   OH241856   6.552   0.465  12.828
 6814TIP3    H141857   6.498   0.389  12.811
 6814TIP3    H241858   6.600   0.479  12.746
 6815TIP3   OH241859   1.924   3.788   5.225
 6815TIP3    H141860   1.971   3.723   5.172
 6815TIP3    H241861   1.992   3.830   5.278
 6816TIP3   OH241862   0.626   1.428  15.511
 6816TIP3    H141863   0.644   1.522  15.508
 6816TIP3    H241864   0.678   1.392  15.439
 6817TIP3   OH241865   4.372   2.037   1.744
 6817TIP3    H141866   4.376   2.114   1.801
 6817TIP3    H241867   4.338   2.070   1.661
 6818TIP3   OH241868   0.242   6.722  16.314
 6818TIP3    H141869   0.194   6.805  16.323
 6818TIP3    H241870   0.332   6.745  16.338
 6819TIP3   OH241871   6.609   4.078  15.429
 6819TIP3    H141872   6.616   4.057  15.522
 6819TIP3    H241873   6.700   4.088  15.401
 6820TIP3   OH241874   4.229   5.614   1.231
 6820TIP3    H141875   4.175   5.538   1.254
 6820TIP3    H241876   4.168   5.687   1.230
 6821TIP3   OH241877   5.151   2.898   3.631
 6821TIP3    H141878   5.203   2.863   3.559
 6821TIP3    H241879   5.146   2.826   3.694
 6822TIP3   OH241880   4.774   3.151   5.874
 6822TIP3    H141881   4.839   3.092   5.913
 6822TIP3    H241882   4.814   3.238   5.880
 6823TIP3   OH241883   3.920   0.799   0.521
 6823TIP3    H141884   3.963   0.885   0.525
 6823TIP3    H241885   3.978   0.740   0.568
 6824TIP3   OH241886   5.508   3.392  11.378
 6824TIP3    H141887   5.434   3.442  11.413
 6824TIP3    H241888   5.479   3.364  11.291
 6825TIP3   OH241889   1.253   3.544   0.419
 6825TIP3    H141890   1.282   3.632   0.395
 6825TIP3    H241891   1.309   3.519   0.492
 6826TIP3   OH241892   3.434   2.190  12.961
 6826TIP3    H141893   3.452   2.260  13.024
 6826TIP3    H241894   3.370   2.134  13.005
 6827TIP3   OH241895   4.204   5.490   0.503
 6827TIP3    H141896   4.144   5.415   0.504
 6827TIP3    H241897   4.289   5.453   0.526
 6828TIP3   OH241898   6.055   3.321   3.670
 6828TIP3    H141899   6.056   3.240   3.722
 6828TIP3    H241900   6.020   3.387   3.729
 6829TIP3   OH241901   2.441   2.687   1.538
 6829TIP3    H141902   2.354   2.670   1.576
 6829TIP3    H241903   2.496   2.709   1.613
 6830TIP3   OH241904   6.735   1.356  11.600
 6830TIP3    H141905   6.810   1.409  11.574
 6830TIP3    H241906   6.765   1.308  11.677
 6831TIP3   OH241907   4.315   5.297   0.249
 6831TIP3    H141908   4.260   5.248   0.310
 6831TIP3    H241909   4.257   5.318   0.176
 6832TIP3   OH241910   6.125   6.360  14.441
 6832TIP3    H141911   6.145   6.270  14.467
 6832TIP3    H241912   6.195   6.413  14.480
 6833TIP3   OH241913   5.186   2.200  12.274
 6833TIP3    H141914   5.191   2.185  12.368
 6833TIP3    H241915   5.235   2.281  12.260
 6834TIP3   OH241916   5.372   5.302   5.348
 6834TIP3    H141917   5.293   5.318   5.297
 6834TIP3    H241918   5.397   5.212   5.327
 6835TIP3   OH241919   4.871   2.288   0.878
 6835TIP3    H141920   4.909   2.295   0.790
 6835TIP3    H241921   4.805   2.219   0.869
 6836TIP3   OH241922   0.015   1.106  15.938
 6836TIP3    H141923   0.065   1.159  15.876
 6836TIP3    H241924   0.038   1.141  16.024
 6837TIP3   OH241925   1.599   6.081   2.802
 6837TIP3    H141926   1.629   5.993   2.781
 6837TIP3    H241927   1.679   6.134   2.804
 6838TIP3   OH241928   5.145   3.174   6.613
 6838TIP3    H141929   5.062   3.217   6.590
 6838TIP3    H241930   5.160   3.200   6.704
 6839TIP3   OH241931   5.637   2.281  15.502
 6839TIP3    H141932   5.578   2.220  15.460
 6839TIP3    H241933   5.676   2.231  15.574
 6840TIP3   OH241934   5.200   3.378   5.899
 6840TIP3    H141935   5.280   3.400   5.852
 6840TIP3    H241936   5.198   3.283   5.900
 6841TIP3   OH241937   3.366   3.326  11.568
 6841TIP3    H141938   3.317   3.289  11.641
 6841TIP3    H241939   3.431   3.383  11.609
 6842TIP3   OH241940   6.702   0.369  17.066
 6842TIP3    H141941   6.766   0.381  17.137
 6842TIP3    H241942   6.623   0.414  17.097
 6843TIP3   OH241943   5.487   1.873   1.905
 6843TIP3    H141944   5.428   1.835   1.841
 6843TIP3    H241945   5.516   1.955   1.864
 6844TIP3   OH241946   3.823   6.335   2.417
 6844TIP3    H141947   3.836   6.389   2.339
 6844TIP3    H241948   3.729   6.337   2.432
 6845TIP3   OH241949   5.005   0.370   3.337
 6845TIP3    H141950   4.970   0.282   3.351
 6845TIP3    H241951   4.945   0.411   3.274
 6846TIP3   OH241952   4.317   1.054  14.102
 6846TIP3    H141953   4.367   0.973  14.110
 6846TIP3    H241954   4.367   1.108  14.042
 6847TIP3   OH241955   6.094   5.547   4.609
 6847TIP3    H141956   6.186   5.521   4.621
 6847TIP3    H241957   6.099   5.623   4.551
 6848TIP3   OH241958   0.484   4.766   0.668
 6848TIP3    H141959   0.539   4.732   0.739
 6848TIP3    H241960   0.456   4.688   0.620
 6849TIP3   OH241961   3.457   1.224  13.309
 6849TIP3    H141962   3.518   1.222  13.383
 6849TIP3    H241963   3.370   1.224  13.350
 6850TIP3   OH241964   4.055   5.274  12.223
 6850TIP3    H141965   4.089   5.295  12.310
 6850TIP3    H241966   3.969   5.235  12.240
 6851TIP3   OH241967   3.765   0.810   4.988
 6851TIP3    H141968   3.805   0.751   5.052
 6851TIP3    H241969   3.783   0.768   4.904
 6852TIP3   OH241970   4.319   5.715   4.805
 6852TIP3    H141971   4.382   5.685   4.870
 6852TIP3    H241972   4.365   5.707   4.721
 6853TIP3   OH241973   3.455   5.298  12.934
 6853TIP3    H141974   3.477   5.386  12.964
 6853TIP3    H241975   3.386   5.269  12.994
 6854TIP3   OH241976   6.058   3.447  12.259
 6854TIP3    H141977   6.005   3.438  12.337
 6854TIP3    H241978   6.091   3.537  12.263
 6855TIP3   OH241979   0.725   0.082   4.444
 6855TIP3    H141980   0.785   0.054   4.375
 6855TIP3    H241981   0.657   0.014   4.446
 6856TIP3   OH241982   6.321   5.809   1.427
 6856TIP3    H141983   6.235   5.771   1.445
 6856TIP3    H241984   6.330   5.879   1.491
 6857TIP3   OH241985   4.045   0.790  11.938
 6857TIP3    H141986   4.011   0.786  12.028
 6857TIP3    H241987   3.975   0.831  11.888
 6858TIP3   OH241988   5.842   6.310  11.387
 6858TIP3    H141989   5.844   6.406  11.383
 6858TIP3    H241990   5.882   6.282  11.305
 6859TIP3   OH241991   4.585   4.181  14.859
 6859TIP3    H141992   4.674   4.150  14.876
 6859TIP3    H241993   4.532   4.139  14.927
 6860TIP3   OH241994   4.278   4.870   2.436
 6860TIP3    H141995   4.214   4.810   2.397
 6860TIP3    H241996   4.351   4.814   2.462
 6861TIP3   OH241997   0.224   5.070   3.477
 6861TIP3    H141998   0.165   5.062   3.402
 6861TIP3    H241999   0.210   5.158   3.510
 6862TIP3   OH242000   4.468   2.611  13.790
 6862TIP3    H142001   4.415   2.543  13.831
 6862TIP3    H242002   4.555   2.601  13.830
 6863TIP3   OH242003   3.665   2.867   0.833
 6863TIP3    H142004   3.582   2.850   0.789
 6863TIP3    H242005   3.730   2.822   0.778
 6864TIP3   OH242006   1.806   5.463   5.590
 6864TIP3    H142007   1.812   5.371   5.564
 6864TIP3    H242008   1.716   5.488   5.571
 6865TIP3   OH242009   2.492   3.045   0.695
 6865TIP3    H142010   2.585   3.027   0.708
 6865TIP3    H242011   2.458   2.965   0.655
 6866TIP3   OH242012   1.868   5.835   4.469
 6866TIP3    H142013   1.911   5.914   4.501
 6866TIP3    H242014   1.857   5.779   4.546
 6867TIP3   OH242015   0.316   2.833   5.250
 6867TIP3    H142016   0.338   2.742   5.228
 6867TIP3    H242017   0.221   2.833   5.258
 6868TIP3   OH242018   4.575   0.394  13.386
 6868TIP3    H142019   4.548   0.447  13.461
 6868TIP3    H242020   4.496   0.345  13.362
 6869TIP3   OH242021   3.012   5.877  17.170
 6869TIP3    H142022   2.960   5.947  17.210
 6869TIP3    H242023   3.058   5.837  17.243
 6870TIP3   OH242024   6.234   1.006   5.140
 6870TIP3    H142025   6.191   0.987   5.057
 6870TIP3    H242026   6.195   0.946   5.203
 6871TIP3   OH242027   1.755   2.568   0.466
 6871TIP3    H142028   1.829   2.508   0.450
 6871TIP3    H242029   1.768   2.597   0.556
 6872TIP3   OH242030   2.533   3.228   0.447
 6872TIP3    H142031   2.534   3.172   0.524
 6872TIP3    H242032   2.610   3.202   0.397
 6873TIP3   OH242033   5.476   6.694  13.088
 6873TIP3    H142034   5.463   6.667  12.997
 6873TIP3    H242035   5.402   6.655  13.135
 6874TIP3   OH242036   5.066   5.905  16.242
 6874TIP3    H142037   5.084   5.959  16.165
 6874TIP3    H242038   5.141   5.918  16.299
 6875TIP3   OH242039   2.326   5.493  14.331
 6875TIP3    H142040   2.281   5.513  14.413
 6875TIP3    H242041   2.306   5.568  14.274
 6876TIP3   OH242042   4.100   2.093   3.190
 6876TIP3    H142043   4.122   2.124   3.102
 6876TIP3    H242044   4.178   2.046   3.219
 6877TIP3   OH242045   5.883   5.461  17.073
 6877TIP3    H142046   5.843   5.493  16.992
 6877TIP3    H242047   5.843   5.376  17.088
 6878TIP3   OH242048   3.537   5.242  14.216
 6878TIP3    H142049   3.592   5.310  14.178
 6878TIP3    H242050   3.506   5.279  14.299
 6879TIP3   OH242051   1.163   0.810  14.572
 6879TIP3    H142052   1.117   0.858  14.504
 6879TIP3    H242053   1.104   0.737  14.594
 6880TIP3   OH242054   6.541   1.152   3.705
 6880TIP3    H142055   6.629   1.181   3.679
 6880TIP3    H242056   6.556   1.069   3.751
 6881TIP3   OH242057   1.623   1.667   3.721
 6881TIP3    H142058   1.714   1.673   3.690
 6881TIP3    H242059   1.598   1.758   3.738
 6882TIP3   OH242060   4.678   0.063   0.490
 6882TIP3    H142061   4.612   0.131   0.474
 6882TIP3    H242062   4.634  -0.018   0.467
 6883TIP3   OH242063   0.495   0.608   3.520
 6883TIP3    H142064   0.448   0.663   3.583
 6883TIP3    H242065   0.472   0.644   3.435
 6884TIP3   OH242066   4.239   6.681  15.843
 6884TIP3    H142067   4.147   6.705  15.855
 6884TIP3    H242068   4.280   6.761  15.811
 6885TIP3   OH242069   3.262   1.267  14.316
 6885TIP3    H142070   3.210   1.191  14.292
 6885TIP3    H242071   3.212   1.310  14.385
 6886TIP3   OH242072   6.683   1.885  15.059
 6886TIP3    H142073   6.656   1.955  15.001
 6886TIP3    H242074   6.636   1.808  15.028
 6887TIP3   OH242075   5.902   6.199  15.874
 6887TIP3    H142076   5.920   6.278  15.824
 6887TIP3    H242077   5.987   6.158  15.886
 6888TIP3   OH242078   1.668   2.412  16.220
 6888TIP3    H142079   1.737   2.407  16.286
 6888TIP3    H242080   1.698   2.479  16.158
 6889TIP3   OH242081   5.130   1.335  16.062
 6889TIP3    H142082   5.097   1.355  16.150
 6889TIP3    H242083   5.135   1.240  16.060
 6890TIP3   OH242084   3.918   4.048   1.134
 6890TIP3    H142085   3.926   4.132   1.180
 6890TIP3    H242086   3.980   4.054   1.062
 6891TIP3   OH242087   0.914   0.031   4.836
 6891TIP3    H142088   0.921  -0.044   4.777
 6891TIP3    H242089   0.930   0.107   4.781
 6892TIP3   OH242090   5.513   4.736   5.256
 6892TIP3    H142091   5.426   4.776   5.258
 6892TIP3    H242092   5.544   4.740   5.347
 6893TIP3   OH242093   5.302   5.562  10.747
 6893TIP3    H142094   5.233   5.589  10.687
 6893TIP3    H242095   5.355   5.500  10.697
 6894TIP3   OH242096   3.289   1.699  17.111
 6894TIP3    H142097   3.318   1.732  17.026
 6894TIP3    H242098   3.244   1.774  17.152
 6895TIP3   OH242099   1.112   4.153  12.930
 6895TIP3    H142100   1.080   4.148  12.840
 6895TIP3    H242101   1.118   4.062  12.958
 6896TIP3   OH242102   4.173   0.920   2.342
 6896TIP3    H142103   4.126   0.962   2.270
 6896TIP3    H242104   4.251   0.973   2.354
 6897TIP3   OH242105   0.240   0.252  14.562
 6897TIP3    H142106   0.185   0.181  14.596
 6897TIP3    H242107   0.198   0.279  14.481
 6898TIP3   OH242108   4.675   2.632   1.237
 6898TIP3    H142109   4.617   2.689   1.187
 6898TIP3    H242110   4.616   2.581   1.293
 6899TIP3   OH242111   2.470   2.537   2.142
 6899TIP3    H142112   2.411   2.613   2.143
 6899TIP3    H242113   2.550   2.569   2.101
 6900TIP3   OH242114   3.494   0.330   3.571
 6900TIP3    H142115   3.408   0.302   3.540
 6900TIP3    H242116   3.532   0.252   3.611
 6901TIP3   OH242117   3.884   3.037   2.545
 6901TIP3    H142118   3.956   2.976   2.561
 6901TIP3    H242119   3.922   3.104   2.487
 6902TIP3   OH242120   1.970   2.543  16.556
 6902TIP3    H142121   1.940   2.495  16.633
 6902TIP3    H242122   1.996   2.475  16.493
 6903TIP3   OH242123   3.281   2.516  17.197
 6903TIP3    H142124   3.351   2.578  17.174
 6903TIP3    H242125   3.205   2.546  17.148
 6904TIP3   OH242126   4.563   1.294   1.788
 6904TIP3    H142127   4.637   1.248   1.749
 6904TIP3    H242128   4.526   1.346   1.717
 6905TIP3   OH242129   2.669   5.735  14.786
 6905TIP3    H142130   2.655   5.651  14.742
 6905TIP3    H242131   2.582   5.764  14.812
 6906TIP3   OH242132   0.404   1.246  14.587
 6906TIP3    H142133   0.352   1.316  14.627
 6906TIP3    H242134   0.493   1.281  14.586
 6907TIP3   OH242135   4.361   1.693   4.079
 6907TIP3    H142136   4.273   1.732   4.084
 6907TIP3    H242137   4.416   1.749   4.134
 6908TIP3   OH242138   6.667   0.242  11.395
 6908TIP3    H142139   6.656   0.245  11.490
 6908TIP3    H242140   6.759   0.264  11.381
 6909TIP3   OH242141   0.059   2.567   3.813
 6909TIP3    H142142   0.106   2.586   3.732
 6909TIP3    H242143   0.047   2.653   3.854
 6910TIP3   OH242144   4.830   0.584  10.899
 6910TIP3    H142145   4.765   0.652  10.881
 6910TIP3    H242146   4.903   0.604  10.840
 6911TIP3   OH242147   0.942   2.886   2.550
 6911TIP3    H142148   0.954   2.970   2.505
 6911TIP3    H242149   0.910   2.909   2.637
 6912TIP3   OH242150   4.387   5.331   5.319
 6912TIP3    H142151   4.378   5.305   5.410
 6912TIP3    H242152   4.305   5.304   5.278
 6913TIP3   OH242153   6.703   5.925  12.696
 6913TIP3    H142154   6.694   5.849  12.639
 6913TIP3    H242155   6.645   5.991  12.658
 6914TIP3   OH242156   5.460   4.339  12.755
 6914TIP3    H142157   5.476   4.433  12.768
 6914TIP3    H242158   5.480   4.324  12.663
 6915TIP3   OH242159   2.956   5.353  13.866
 6915TIP3    H142160   2.996   5.331  13.950
 6915TIP3    H242161   3.003   5.299  13.803
 6916TIP3   OH242162   3.132   6.480  13.935
 6916TIP3    H142163   3.063   6.543  13.955
 6916TIP3    H242164   3.181   6.472  14.017
 6917TIP3   OH242165   2.701   1.337  13.566
 6917TIP3    H142166   2.658   1.251  13.564
 6917TIP3    H242167   2.647   1.389  13.626
 6918TIP3   OH242168   1.735   3.024  13.662
 6918TIP3    H142169   1.733   3.079  13.583
 6918TIP3    H242170   1.798   3.067  13.720
 6919TIP3   OH242171   6.460   6.212  15.143
 6919TIP3    H142172   6.388   6.258  15.187
 6919TIP3    H242173   6.454   6.122  15.174
 6920TIP3   OH242174   3.606   3.827   2.708
 6920TIP3    H142175   3.552   3.880   2.649
 6920TIP3    H242176   3.547   3.808   2.782
 6921TIP3   OH242177   3.458   5.123  16.365
 6921TIP3    H142178   3.425   5.207  16.396
 6921TIP3    H242179   3.550   5.139  16.342
 6922TIP3   OH242180   4.260   5.484   5.958
 6922TIP3    H142181   4.229   5.549   6.021
 6922TIP3    H242182   4.181   5.449   5.917
 6923TIP3   OH242183   1.074   1.357  15.805
 6923TIP3    H142184   1.057   1.288  15.741
 6923TIP3    H242185   1.013   1.427  15.783
 6924TIP3   OH242186   5.343   3.672   0.359
 6924TIP3    H142187   5.373   3.740   0.299
 6924TIP3    H242188   5.295   3.719   0.427
 6925TIP3   OH242189   0.286   5.165  13.975
 6925TIP3    H142190   0.352   5.137  14.038
 6925TIP3    H242191   0.295   5.260  13.970
 6926TIP3   OH242192   0.019   0.799   3.051
 6926TIP3    H142193   0.004   0.890   3.028
 6926TIP3    H242194   0.067   0.803   3.134
 6927TIP3   OH242195   1.436   1.969  14.313
 6927TIP3    H142196   1.520   1.966  14.360
 6927TIP3    H242197   1.378   2.018  14.371
 6928TIP3   OH242198   5.015   5.738  13.545
 6928TIP3    H142199   4.998   5.832  13.545
 6928TIP3    H242200   5.097   5.728  13.593
 6929TIP3   OH242201   4.948   6.482  11.439
 6929TIP3    H142202   5.005   6.557  11.456
 6929TIP3    H242203   4.869   6.519  11.401
 6930TIP3   OH242204   2.993   2.327   6.253
 6930TIP3    H142205   2.947   2.395   6.303
 6930TIP3    H242206   3.078   2.321   6.296
 6931TIP3   OH242207   2.796   6.394   4.561
 6931TIP3    H142208   2.818   6.330   4.493
 6931TIP3    H242209   2.736   6.346   4.619
 6932TIP3   OH242210   4.178   5.789  15.454
 6932TIP3    H142211   4.256   5.822  15.497
 6932TIP3    H242212   4.162   5.851  15.382
 6933TIP3   OH242213   1.332   1.637   5.408
 6933TIP3    H142214   1.273   1.710   5.390
 6933TIP3    H242215   1.275   1.567   5.438
 6934TIP3   OH242216   4.953   5.749  16.814
 6934TIP3    H142217   5.015   5.677  16.825
 6934TIP3    H242218   4.993   5.806  16.748
 6935TIP3   OH242219   6.406   5.987   5.165
 6935TIP3    H142220   6.498   5.961   5.168
 6935TIP3    H242221   6.370   5.937   5.091
 6936TIP3   OH242222   4.452   0.195   5.624
 6936TIP3    H142223   4.380   0.144   5.588
 6936TIP3    H242224   4.531   0.154   5.588
 6937TIP3   OH242225   1.041   4.952   3.779
 6937TIP3    H142226   1.068   4.907   3.859
 6937TIP3    H242227   0.959   4.910   3.754
 6938TIP3   OH242228   2.639   4.078  11.869
 6938TIP3    H142229   2.695   4.152  11.890
 6938TIP3    H242230   2.562   4.117  11.827
 6939TIP3   OH242231   0.152   1.342   5.946
 6939TIP3    H142232   0.092   1.267   5.952
 6939TIP3    H242233   0.150   1.366   5.853
 6940TIP3   OH242234   3.989   1.702  13.256
 6940TIP3    H142235   4.061   1.650  13.219
 6940TIP3    H242236   4.030   1.784  13.284
 6941TIP3   OH242237   3.348   6.461   1.426
 6941TIP3    H142238   3.256   6.440   1.413
 6941TIP3    H242239   3.347   6.532   1.491
 6942TIP3   OH242240   5.109   4.652  16.756
 6942TIP3    H142241   5.170   4.587  16.722
 6942TIP3    H242242   5.132   4.659  16.849
 6943TIP3   OH242243   6.736   4.442   2.727
 6943TIP3    H142244   6.686   4.503   2.781
 6943TIP3    H242245   6.746   4.486   2.643
 6944TIP3   OH242246   3.913   5.772  16.379
 6944TIP3    H142247   4.008   5.787  16.378
 6944TIP3    H242248   3.897   5.726  16.462
 6945TIP3   OH242249   1.734   1.040   0.497
 6945TIP3    H142250   1.733   1.059   0.403
 6945TIP3    H242251   1.699   1.119   0.538
 6946TIP3   OH242252   3.827   2.371  14.654
 6946TIP3    H142253   3.869   2.397  14.572
 6946TIP3    H242254   3.771   2.445  14.677
 6947TIP3   OH242255   0.650   0.092   1.410
 6947TIP3    H142256   0.645   0.051   1.496
 6947TIP3    H242257   0.591   0.040   1.355
 6948TIP3   OH242258   5.206   0.350  15.058
 6948TIP3    H142259   5.172   0.374  14.972
 6948TIP3    H242260   5.270   0.418  15.079
 6949TIP3   OH242261   5.005   3.727   1.154
 6949TIP3    H142262   5.021   3.817   1.182
 6949TIP3    H242263   5.075   3.677   1.196
 6950TIP3   OH242264   0.710   0.087  12.346
 6950TIP3    H142265   0.633   0.029  12.348
 6950TIP3    H242266   0.682   0.161  12.292
 6951TIP3   OH242267   6.452   2.237  14.350
 6951TIP3    H142268   6.502   2.301  14.400
 6951TIP3    H242269   6.447   2.273  14.262
 6952TIP3   OH242270   4.256   3.325  16.803
 6952TIP3    H142271   4.208   3.276  16.736
 6952TIP3    H242272   4.347   3.326  16.772
 6953TIP3   OH242273   5.491   2.097  15.368
 6953TIP3    H142274   5.399   2.098  15.342
 6953TIP3    H242275   5.539   2.104  15.285
 6954TIP3   OH242276   0.630   3.605   2.343
 6954TIP3    H142277   0.632   3.509   2.348
 6954TIP3    H242278   0.560   3.624   2.281
 6955TIP3   OH242279   2.381   6.572   2.521
 6955TIP3    H142280   2.470   6.539   2.519
 6955TIP3    H242281   2.376   6.634   2.449
 6956TIP3   OH242282   5.236   1.215   1.744
 6956TIP3    H142283   5.223   1.134   1.693
 6956TIP3    H242284   5.263   1.185   1.830
 6957TIP3   OH242285   3.521   5.835   2.778
 6957TIP3    H142286   3.449   5.775   2.796
 6957TIP3    H242287   3.551   5.811   2.690
 6958TIP3   OH242288   6.364   1.181   3.499
 6958TIP3    H142289   6.413   1.231   3.433
 6958TIP3    H242290   6.427   1.166   3.570
 6959TIP3   OH242291   2.404   3.122  13.003
 6959TIP3    H142292   2.390   3.032  13.031
 6959TIP3    H242293   2.495   3.141  13.026
 6960TIP3   OH242294   5.517   3.064  16.981
 6960TIP3    H142295   5.467   3.142  17.008
 6960TIP3    H242296   5.546   3.025  17.064
 6961TIP3   OH242297   4.432   0.056  16.087
 6961TIP3    H142298   4.375   0.045  16.010
 6961TIP3    H242299   4.436   0.150  16.101
 6962TIP3   OH242300   3.031   0.746  16.364
 6962TIP3    H142301   3.052   0.692  16.441
 6962TIP3    H242302   2.938   0.766  16.373
 6963TIP3   OH242303   2.641   6.338  11.334
 6963TIP3    H142304   2.731   6.364  11.354
 6963TIP3    H242305   2.603   6.413  11.290
 6964TIP3   OH242306   6.179   2.747   5.007
 6964TIP3    H142307   6.208   2.662   4.975
 6964TIP3    H242308   6.200   2.746   5.100
 6965TIP3   OH242309   0.635   3.151  15.547
 6965TIP3    H142310   0.605   3.218  15.485
 6965TIP3    H242311   0.636   3.070  15.496
 6966TIP3   OH242312   6.102   6.237   1.395
 6966TIP3    H142313   6.089   6.331   1.403
 6966TIP3    H242314   6.134   6.225   1.306
 6967TIP3   OH242315   0.637   6.045  11.817
 6967TIP3    H142316   0.585   5.993  11.878
 6967TIP3    H242317   0.617   6.136  11.840
 6968TIP3   OH242318   4.737   5.928   2.115
 6968TIP3    H142319   4.732   6.008   2.168
 6968TIP3    H242320   4.808   5.945   2.053
 6969TIP3   OH242321   3.603   4.579  15.153
 6969TIP3    H142322   3.685   4.537  15.127
 6969TIP3    H242323   3.606   4.665  15.113
 6970TIP3   OH242324   6.349   0.469  15.103
 6970TIP3    H142325   6.433   0.470  15.148
 6970TIP3    H242326   6.293   0.413  15.157
 6971TIP3   OH242327   0.338   4.979   4.474
 6971TIP3    H142328   0.344   4.979   4.379
 6971TIP3    H242329   0.425   5.005   4.503
 6972TIP3   OH242330   3.614   3.471   2.162
 6972TIP3    H142331   3.551   3.520   2.109
 6972TIP3    H242332   3.693   3.525   2.161
 6973TIP3   OH242333   1.759   5.974   5.497
 6973TIP3    H142334   1.849   5.943   5.501
 6973TIP3    H242335   1.735   5.992   5.588
 6974TIP3   OH242336   6.601   0.482   2.228
 6974TIP3    H142337   6.531   0.432   2.186
 6974TIP3    H242338   6.658   0.509   2.156
 6975TIP3   OH242339   4.634   3.327   4.569
 6975TIP3    H142340   4.590   3.329   4.483
 6975TIP3    H242341   4.726   3.309   4.548
 6976TIP3   OH242342   0.180   6.592   4.160
 6976TIP3    H142343   0.176   6.517   4.218
 6976TIP3    H242344   0.266   6.631   4.177
 6977TIP3   OH242345   6.329   4.926   0.856
 6977TIP3    H142346   6.416   4.959   0.832
 6977TIP3    H242347   6.280   4.926   0.773
 6978TIP3   OH242348   1.226   6.018   2.262
 6978TIP3    H142349   1.261   5.932   2.238
 6978TIP3    H242350   1.183   6.050   2.183
 6979TIP3   OH242351   2.388   2.788   0.654
 6979TIP3    H142352   2.300   2.752   0.652
 6979TIP3    H242353   2.439   2.726   0.707
 6980TIP3   OH242354   4.467   6.474  15.181
 6980TIP3    H142355   4.389   6.530  15.183
 6980TIP3    H242356   4.515   6.496  15.261
 6981TIP3   OH242357   3.087   5.817   2.653
 6981TIP3    H142358   3.140   5.818   2.573
 6981TIP3    H242359   3.081   5.725   2.676
 6982TIP3   OH242360   3.773   1.252  14.026
 6982TIP3    H142361   3.856   1.219  13.993
 6982TIP3    H242362   3.743   1.312  13.958
 6983TIP3   OH242363   5.675   2.649   6.251
 6983TIP3    H142364   5.741   2.643   6.321
 6983TIP3    H242365   5.664   2.559   6.221
 6984TIP3   OH242366   2.268   4.327   5.933
 6984TIP3    H142367   2.240   4.362   6.018
 6984TIP3    H242368   2.233   4.388   5.869
 6985TIP3   OH242369   0.834   0.247   1.573
 6985TIP3    H142370   0.747   0.228   1.539
 6985TIP3    H242371   0.856   0.171   1.626
 6986TIP3   OH242372   1.366   3.084   4.626
 6986TIP3    H142373   1.400   3.033   4.700
 6986TIP3    H242374   1.277   3.050   4.613
 6987TIP3   OH242375   2.218   1.489   5.273
 6987TIP3    H142376   2.137   1.516   5.231
 6987TIP3    H242377   2.285   1.545   5.234
 6988TIP3   OH242378   4.961   1.152  11.511
 6988TIP3    H142379   4.986   1.218  11.576
 6988TIP3    H242380   5.037   1.094  11.506
 6989TIP3   OH242381   3.699   0.933  16.801
 6989TIP3    H142382   3.638   0.948  16.873
 6989TIP3    H242383   3.759   1.008  16.804
 6990TIP3   OH242384   2.867   0.595   0.404
 6990TIP3    H142385   2.848   0.508   0.369
 6990TIP3    H242386   2.960   0.607   0.390
 6991TIP3   OH242387   5.322   4.237   0.194
 6991TIP3    H142388   5.407   4.238   0.150
 6991TIP3    H242389   5.266   4.292   0.139
 6992TIP3   OH242390   4.163   2.293  13.115
 6992TIP3    H142391   4.156   2.249  13.030
 6992TIP3    H242392   4.126   2.380  13.101
 6993TIP3   OH242393   4.751   3.299  15.506
 6993TIP3    H142394   4.671   3.317  15.554
 6993TIP3    H242395   4.801   3.241  15.563
 6994TIP3   OH242396   3.680   2.315  15.590
 6994TIP3    H142397   3.776   2.311  15.583
 6994TIP3    H242398   3.656   2.393  15.540
 6995TIP3   OH242399   4.006   4.269  17.071
 6995TIP3    H142400   4.041   4.358  17.071
 6995TIP3    H242401   4.071   4.217  17.119
 6996TIP3   OH242402   2.650   6.769  15.678
 6996TIP3    H142403   2.647   6.752  15.772
 6996TIP3    H242404   2.678   6.861  15.671
 6997TIP3   OH242405   3.973   0.478   1.970
 6997TIP3    H142406   3.881   0.455   1.978
 6997TIP3    H242407   3.973   0.562   1.924
 6998TIP3   OH242408   0.833   2.267   3.375
 6998TIP3    H142409   0.754   2.239   3.421
 6998TIP3    H242410   0.847   2.201   3.308
 6999TIP3   OH242411   2.473   1.956  14.325
 6999TIP3    H142412   2.381   1.954  14.300
 6999TIP3    H242413   2.473   1.955  14.421
 7000TIP3   OH242414   4.596   2.838  11.373
 7000TIP3    H142415   4.581   2.927  11.341
 7000TIP3    H242416   4.616   2.787  11.294
 7001TIP3   OH242417   0.486   1.607  16.338
 7001TIP3    H142418   0.517   1.667  16.405
 7001TIP3    H242419   0.390   1.610  16.345
 7002TIP3   OH242420   4.078   4.265  15.154
 7002TIP3    H142421   4.012   4.220  15.101
 7002TIP3    H242422   4.136   4.306  15.089
 7003TIP3   OH242423   2.404   1.941  13.930
 7003TIP3    H142424   2.495   1.911  13.927
 7003TIP3    H242425   2.379   1.934  14.022
 7004TIP3   OH242426   6.043   2.015  13.148
 7004TIP3    H142427   6.004   2.091  13.192
 7004TIP3    H242428   6.125   2.000  13.195
 7005TIP3   OH242429   0.931   2.788   1.957
 7005TIP3    H142430   0.895   2.788   1.869
 7005TIP3    H242431   1.015   2.743   1.949
 7006TIP3   OH242432   3.742   1.710  12.594
 7006TIP3    H142433   3.756   1.616  12.601
 7006TIP3    H242434   3.824   1.749  12.622
 7007TIP3   OH242435   5.594   0.564   0.511
 7007TIP3    H142436   5.557   0.615   0.583
 7007TIP3    H242437   5.520   0.518   0.473
 7008TIP3   OH242438   4.592   0.426   1.308
 7008TIP3    H142439   4.635   0.489   1.365
 7008TIP3    H242440   4.655   0.408   1.238
 7009TIP3   OH242441   3.826   4.541  16.850
 7009TIP3    H142442   3.887   4.497  16.791
 7009TIP3    H242443   3.877   4.557  16.930
 7010TIP3   OH242444   3.293   0.955   3.242
 7010TIP3    H142445   3.373   1.000   3.216
 7010TIP3    H242446   3.323   0.875   3.284
 7011TIP3   OH242447   1.710   4.107  17.169
 7011TIP3    H142448   1.765   4.126  17.093
 7011TIP3    H242449   1.768   4.120  17.244
 7012TIP3   OH242450   5.011   3.107  12.270
 7012TIP3    H142451   4.945   3.170  12.297
 7012TIP3    H242452   4.972   3.062  12.194
 7013TIP3   OH242453   4.529   3.345  13.592
 7013TIP3    H142454   4.551   3.252  13.601
 7013TIP3    H242455   4.595   3.390  13.644
 7014TIP3   OH242456   5.130   4.579  10.417
 7014TIP3    H142457   5.162   4.541  10.499
 7014TIP3    H242458   5.037   4.557  10.415
 7015TIP3   OH242459   3.797   4.906   3.708
 7015TIP3    H142460   3.773   4.954   3.788
 7015TIP3    H242461   3.799   4.973   3.640
 7016TIP3   OH242462   2.530   0.804  15.403
 7016TIP3    H142463   2.603   0.837  15.456
 7016TIP3    H242464   2.486   0.741  15.460
 7017TIP3   OH242465   5.262   6.427   1.787
 7017TIP3    H142466   5.208   6.416   1.866
 7017TIP3    H242467   5.209   6.389   1.717
 7018TIP3   OH242468   1.142   1.477   0.666
 7018TIP3    H142469   1.236   1.484   0.678
 7018TIP3    H242470   1.104   1.531   0.735
 7019TIP3   OH242471   6.513   3.097  15.180
 7019TIP3    H142472   6.605   3.113  15.201
 7019TIP3    H242473   6.513   3.012  15.135
 7020TIP3   OH242474   2.641   2.864  13.153
 7020TIP3    H142475   2.708   2.919  13.111
 7020TIP3    H242476   2.680   2.838  13.236
 7021TIP3   OH242477   1.552   6.001   1.385
 7021TIP3    H142478   1.591   6.002   1.473
 7021TIP3    H242479   1.594   5.927   1.341
 7022TIP3   OH242480   0.552   0.132   4.674
 7022TIP3    H142481   0.637   0.117   4.633
 7022TIP3    H242482   0.564   0.106   4.765
 7023TIP3   OH242483   6.302   2.805  11.673
 7023TIP3    H142484   6.298   2.740  11.743
 7023TIP3    H242485   6.211   2.822  11.651
 7024TIP3   OH242486   2.676   2.223   2.658
 7024TIP3    H142487   2.683   2.315   2.633
 7024TIP3    H242488   2.613   2.222   2.730
 7025TIP3   OH242489   1.649   1.680   5.071
 7025TIP3    H142490   1.676   1.730   4.994
 7025TIP3    H242491   1.625   1.745   5.136
 7026TIP3   OH242492   5.404   1.579  14.129
 7026TIP3    H142493   5.308   1.588  14.126
 7026TIP3    H242494   5.430   1.578  14.036
 7027TIP3   OH242495   3.804   1.971   4.021
 7027TIP3    H142496   3.739   2.036   3.993
 7027TIP3    H242497   3.878   1.986   3.962
 7028TIP3   OH242498   3.727   5.234   0.791
 7028TIP3    H142499   3.636   5.227   0.762
 7028TIP3    H242500   3.762   5.309   0.744
 7029TIP3   OH242501   0.078   4.133   3.844
 7029TIP3    H142502   0.056   4.087   3.763
 7029TIP3    H242503   0.149   4.193   3.819
 7030TIP3   OH242504   5.549   3.855  17.036
 7030TIP3    H142505   5.542   3.943  17.074
 7030TIP3    H242506   5.581   3.869  16.947
 7031TIP3   OH242507   6.572   1.814   3.379
 7031TIP3    H142508   6.578   1.734   3.432
 7031TIP3    H242509   6.582   1.784   3.289
 7032TIP3   OH242510   0.174   2.777   5.752
 7032TIP3    H142511   0.165   2.740   5.664
 7032TIP3    H242512   0.085   2.783   5.786
 7033TIP3   OH242513   5.242   3.561  13.555
 7033TIP3    H142514   5.196   3.531  13.633
 7033TIP3    H242515   5.332   3.577  13.584
 7034TIP3   OH242516   4.255   1.110  11.410
 7034TIP3    H142517   4.188   1.168  11.445
 7034TIP3    H242518   4.217   1.076  11.329
 7035TIP3   OH242519   3.977   6.106  15.082
 7035TIP3    H142520   4.047   6.147  15.031
 7035TIP3    H242521   3.898   6.119  15.029
 7036TIP3   OH242522   0.772   3.983  12.922
 7036TIP3    H142523   0.787   3.920  12.992
 7036TIP3    H242524   0.743   4.063  12.967
 7037TIP3   OH242525   6.699   1.456   4.390
 7037TIP3    H142526   6.701   1.368   4.428
 7037TIP3    H242527   6.790   1.483   4.388
 7038TIP3   OH242528   1.468   2.636   1.627
 7038TIP3    H142529   1.396   2.577   1.606
 7038TIP3    H242530   1.435   2.689   1.699
 7039TIP3   OH242531   2.701   2.803  16.969
 7039TIP3    H142532   2.662   2.748  17.037
 7039TIP3    H242533   2.795   2.789  16.978
 7040TIP3   OH242534   4.447   1.085   5.471
 7040TIP3    H142535   4.406   1.089   5.557
 7040TIP3    H242536   4.383   1.042   5.415
 7041TIP3   OH242537   4.691   3.803  11.566
 7041TIP3    H142538   4.709   3.791  11.473
 7041TIP3    H242539   4.596   3.814  11.571
 7042TIP3   OH242540   2.114   5.322  11.380
 7042TIP3    H142541   2.033   5.319  11.329
 7042TIP3    H242542   2.184   5.321  11.314
 7043TIP3   OH242543   0.740   4.632  14.426
 7043TIP3    H142544   0.718   4.566  14.491
 7043TIP3    H242545   0.833   4.619  14.408
 7044TIP3   OH242546   4.116   4.155  12.519
 7044TIP3    H142547   4.078   4.155  12.607
 7044TIP3    H242548   4.092   4.070  12.483
 7045TIP3   OH242549   0.632   5.881   4.557
 7045TIP3    H142550   0.663   5.963   4.519
 7045TIP3    H242551   0.544   5.901   4.589
 7046TIP3   OH242552   4.896   2.497  15.750
 7046TIP3    H142553   4.870   2.406  15.767
 7046TIP3    H242554   4.878   2.510  15.656
 7047TIP3   OH242555   0.866   1.677   1.032
 7047TIP3    H142556   0.775   1.674   1.062
 7047TIP3    H242557   0.907   1.745   1.087
 7048TIP3   OH242558   2.387   5.566  15.384
 7048TIP3    H142559   2.297   5.554  15.352
 7048TIP3    H242560   2.441   5.523  15.318
 7049TIP3   OH242561   0.648   4.361  13.311
 7049TIP3    H142562   0.677   4.423  13.244
 7049TIP3    H242563   0.693   4.389  13.391
 7050TIP3   OH242564   1.701   3.180   2.057
 7050TIP3    H142565   1.610   3.210   2.064
 7050TIP3    H242566   1.740   3.238   1.991
 7051TIP3   OH242567   0.198   3.356  14.116
 7051TIP3    H142568   0.145   3.395  14.186
 7051TIP3    H242569   0.275   3.411  14.110
 7052TIP3   OH242570   3.200   2.229  13.821
 7052TIP3    H142571   3.227   2.312  13.782
 7052TIP3    H242572   3.278   2.198  13.867
 7053TIP3   OH242573   0.325   3.207  15.595
 7053TIP3    H142574   0.358   3.297  15.600
 7053TIP3    H242575   0.334   3.182  15.503
 7054TIP3   OH242576   0.142   1.165  14.875
 7054TIP3    H142577   0.226   1.121  14.882
 7054TIP3    H242578   0.161   1.250  14.836
 7055TIP3   OH242579   6.382   4.971  14.101
 7055TIP3    H142580   6.389   4.953  14.195
 7055TIP3    H242581   6.426   5.055  14.089
 7056TIP3   OH242582   0.969   5.020  16.338
 7056TIP3    H142583   0.919   4.997  16.417
 7056TIP3    H242584   0.912   5.081  16.291
 7057TIP3   OH242585   5.755   6.052  16.403
 7057TIP3    H142586   5.766   6.142  16.432
 7057TIP3    H242587   5.663   6.046  16.377
 7058TIP3   OH242588   5.311   6.561   4.425
 7058TIP3    H142589   5.254   6.638   4.419
 7058TIP3    H242590   5.285   6.507   4.351
 7059TIP3   OH242591   1.361   4.225   2.894
 7059TIP3    H142592   1.336   4.153   2.836
 7059TIP3    H242593   1.449   4.200   2.925
 7060TIP3   OH242594   4.883   6.445  16.443
 7060TIP3    H142595   4.890   6.521  16.501
 7060TIP3    H242596   4.794   6.449  16.408
 7061TIP3   OH242597   5.803   5.461  13.764
 7061TIP3    H142598   5.745   5.448  13.689
 7061TIP3    H242599   5.752   5.428  13.839
 7062TIP3   OH242600   4.121   6.270  16.538
 7062TIP3    H142601   4.200   6.216  16.543
 7062TIP3    H242602   4.154   6.360  16.541
 7063TIP3   OH242603   3.750   3.756   0.822
 7063TIP3    H142604   3.745   3.852   0.829
 7063TIP3    H242605   3.679   3.732   0.763
 7064TIP3   OH242606   1.759   3.863  11.363
 7064TIP3    H142607   1.790   3.786  11.412
 7064TIP3    H242608   1.736   3.828  11.277
 7065TIP3   OH242609   3.858   0.160  14.750
 7065TIP3    H142610   3.792   0.106  14.794
 7065TIP3    H242611   3.901   0.099  14.689
 7066TIP3   OH242612   1.036   4.477  13.621
 7066TIP3    H142613   1.106   4.514  13.675
 7066TIP3    H242614   1.080   4.408  13.570
 7067TIP3   OH242615   0.180   4.876   1.136
 7067TIP3    H142616   0.234   4.949   1.108
 7067TIP3    H242617   0.241   4.817   1.180
 7068TIP3   OH242618   5.999   5.252  13.066
 7068TIP3    H142619   6.076   5.282  13.114
 7068TIP3    H242620   6.005   5.293  12.981
 7069TIP3   OH242621   1.699   2.688   1.248
 7069TIP3    H142622   1.635   2.621   1.222
 7069TIP3    H242623   1.649   2.747   1.304
 7070TIP3   OH242624   0.851   1.107   5.345
 7070TIP3    H142625   0.872   1.130   5.255
 7070TIP3    H242626   0.936   1.094   5.387
 7071TIP3   OH242627   5.214   5.165   1.952
 7071TIP3    H142628   5.273   5.169   1.876
 7071TIP3    H242629   5.136   5.213   1.925
 7072TIP3   OH242630   3.310   0.094  14.609
 7072TIP3    H142631   3.292   0.001  14.610
 7072TIP3    H242632   3.228   0.135  14.581
 7073TIP3   OH242633   5.068   0.808   0.184
 7073TIP3    H142634   5.052   0.849   0.099
 7073TIP3    H242635   4.980   0.790   0.218
 7074TIP3   OH242636   1.528   6.513  11.343
 7074TIP3    H142637   1.608   6.566  11.340
 7074TIP3    H242638   1.478   6.542  11.267
 7075TIP3   OH242639   4.307   4.488  14.950
 7075TIP3    H142640   4.373   4.551  14.922
 7075TIP3    H242641   4.348   4.439  15.021
 7076TIP3   OH242642   4.374   5.871   4.421
 7076TIP3    H142643   4.299   5.821   4.453
 7076TIP3    H242644   4.390   5.936   4.490
 7077TIP3   OH242645   5.050   6.758  11.443
 7077TIP3    H142646   5.105   6.764  11.520
 7077TIP3    H242647   5.085   6.824  11.383
 7078TIP3   OH242648   0.089   2.502  13.129
 7078TIP3    H142649   0.098   2.417  13.086
 7078TIP3    H242650   0.173   2.515  13.174
 7079TIP3   OH242651   3.597   0.536   2.506
 7079TIP3    H142652   3.608   0.566   2.416
 7079TIP3    H242653   3.504   0.547   2.524
 7080TIP3   OH242654   3.925   3.268   0.313
 7080TIP3    H142655   3.872   3.213   0.371
 7080TIP3    H242656   3.964   3.206   0.251
 7081TIP3   OH242657   4.519   1.897   5.058
 7081TIP3    H142658   4.509   1.814   5.011
 7081TIP3    H242659   4.610   1.922   5.045
 7082TIP3   OH242660   0.233   6.458  10.413
 7082TIP3    H142661   0.163   6.474  10.476
 7082TIP3    H242662   0.246   6.543  10.370
 7083TIP3   OH242663   1.645   5.575  11.584
 7083TIP3    H142664   1.647   5.637  11.511
 7083TIP3    H242665   1.730   5.587  11.627
 7084TIP3   OH242666   2.726   2.304  11.000
 7084TIP3    H142667   2.739   2.301  10.905
 7084TIP3    H242668   2.732   2.397  11.022
 7085TIP3   OH242669   1.796   5.799  12.412
 7085TIP3    H142670   1.824   5.720  12.366
 7085TIP3    H242671   1.831   5.871  12.359
 7086TIP3   OH242672   0.146   6.394  16.045
 7086TIP3    H142673   0.054   6.394  16.069
 7086TIP3    H242674   0.161   6.307  16.007
 7087TIP3   OH242675   1.067   2.927   5.586
 7087TIP3    H142676   1.056   2.963   5.497
 7087TIP3    H242677   1.129   2.855   5.576
 7088TIP3   OH242678   4.462   6.599  12.185
 7088TIP3    H142679   4.482   6.630  12.273
 7088TIP3    H242680   4.537   6.546  12.160
 7089TIP3   OH242681   2.269   4.750   0.029
 7089TIP3    H142682   2.211   4.776  -0.042
 7089TIP3    H242683   2.274   4.655   0.023
 7090TIP3   OH242684   0.783   6.087  13.525
 7090TIP3    H142685   0.803   6.076  13.618
 7090TIP3    H242686   0.772   5.998  13.492
 7091TIP3   OH242687   1.308   2.678   4.406
 7091TIP3    H142688   1.378   2.695   4.343
 7091TIP3    H242689   1.274   2.765   4.427
 7092TIP3   OH242690   1.947   4.845  16.382
 7092TIP3    H142691   1.998   4.786  16.438
 7092TIP3    H242692   1.875   4.790  16.350
 7093TIP3   OH242693   0.128   1.718   6.321
 7093TIP3    H142694   0.071   1.789   6.293
 7093TIP3    H242695   0.216   1.746   6.295
 7094TIP3   OH242696   1.254   0.072  11.990
 7094TIP3    H142697   1.237  -0.018  12.017
 7094TIP3    H242698   1.332   0.098  12.039
 7095TIP3   OH242699   6.689   0.184  11.805
 7095TIP3    H142700   6.636   0.129  11.747
 7095TIP3    H242701   6.635   0.194  11.884
 7096TIP3   OH242702   3.735   1.847  16.242
 7096TIP3    H142703   3.772   1.764  16.213
 7096TIP3    H242704   3.789   1.874  16.316
 7097TIP3   OH242705   3.614   4.812  15.016
 7097TIP3    H142706   3.560   4.782  14.943
 7097TIP3    H242707   3.699   4.833  14.975
 7098TIP3   OH242708   4.951   0.485  16.748
 7098TIP3    H142709   4.967   0.404  16.796
 7098TIP3    H242710   4.855   0.489  16.738
 7099TIP3   OH242711   4.063   6.136  12.047
 7099TIP3    H142712   4.146   6.143  11.999
 7099TIP3    H242713   4.076   6.060  12.105
 7100TIP3   OH242714   0.408   6.207  12.529
 7100TIP3    H142715   0.467   6.234  12.600
 7100TIP3    H242716   0.451   6.240  12.450
 7101TIP3   OH242717   1.945   2.577  15.513
 7101TIP3    H142718   1.897   2.589  15.595
 7101TIP3    H242719   2.009   2.508  15.532
 7102TIP3   OH242720   5.440   6.162  11.902
 7102TIP3    H142721   5.395   6.230  11.852
 7102TIP3    H242722   5.440   6.085  11.846
 7103TIP3   OH242723   3.080   2.685  11.512
 7103TIP3    H142724   3.128   2.731  11.581
 7103TIP3    H242725   2.988   2.705  11.529
 7104TIP3   OH242726   2.051   4.211   2.418
 7104TIP3    H142727   2.131   4.204   2.471
 7104TIP3    H242728   2.004   4.285   2.456
 7105TIP3   OH242729   5.013   6.183  11.597
 7105TIP3    H142730   5.085   6.214  11.541
 7105TIP3    H242731   4.987   6.261  11.647
 7106TIP3   OH242732   0.472   5.107   3.179
 7106TIP3    H142733   0.437   5.170   3.241
 7106TIP3    H242734   0.566   5.106   3.196
 7107TIP3   OH242735   3.433   5.897  13.544
 7107TIP3    H142736   3.453   5.868  13.455
 7107TIP3    H242737   3.348   5.857  13.563
 7108TIP3   OH242738   0.028   1.957   6.191
 7108TIP3    H142739  -0.031   1.982   6.263
 7108TIP3    H242740   0.112   1.997   6.214
 7109TIP3   OH242741   2.463   2.283  15.369
 7109TIP3    H142742   2.404   2.236  15.428
 7109TIP3    H242743   2.405   2.341  15.319
 7110TIP3   OH242744   5.200   3.651  14.690
 7110TIP3    H142745   5.146   3.572  14.691
 7110TIP3    H242746   5.285   3.622  14.658
 7111TIP3   OH242747   1.654   0.931   0.813
 7111TIP3    H142748   1.685   1.018   0.838
 7111TIP3    H242749   1.567   0.925   0.852
 7112TIP3   OH242750   1.261   2.978   2.273
 7112TIP3    H142751   1.323   3.051   2.275
 7112TIP3    H242752   1.209   2.992   2.194
 7113TIP3   OH242753   2.476   0.514  16.355
 7113TIP3    H142754   2.406   0.452  16.334
 7113TIP3    H242755   2.450   0.596  16.312
 7114TIP3   OH242756   1.531   4.519   3.618
 7114TIP3    H142757   1.514   4.457   3.690
 7114TIP3    H242758   1.455   4.577   3.617
 7115TIP3   OH242759   5.313   4.986  15.639
 7115TIP3    H142760   5.222   4.962  15.657
 7115TIP3    H242761   5.366   4.928  15.693
 7116TIP3   OH242762   6.088   2.133  15.214
 7116TIP3    H142763   6.021   2.186  15.257
 7116TIP3    H242764   6.152   2.114  15.282
 7117TIP3   OH242765   4.652   1.537  13.511
 7117TIP3    H142766   4.590   1.524  13.582
 7117TIP3    H242767   4.631   1.624  13.476
 7118TIP3   OH242768   1.484   2.296  13.145
 7118TIP3    H142769   1.571   2.330  13.165
 7118TIP3    H242770   1.435   2.305  13.227
 7119TIP3   OH242771   3.163   3.651   3.417
 7119TIP3    H142772   3.147   3.710   3.343
 7119TIP3    H242773   3.078   3.641   3.458
 7120TIP3   OH242774   4.271   2.151   5.966
 7120TIP3    H142775   4.205   2.212   5.932
 7120TIP3    H242776   4.229   2.108   6.040
 7121TIP3   OH242777   1.764   2.441  13.433
 7121TIP3    H142778   1.723   2.475  13.353
 7121TIP3    H242779   1.845   2.400  13.403
 7122TIP3   OH242780   5.200   5.051  13.235
 7122TIP3    H142781   5.149   5.090  13.306
 7122TIP3    H242782   5.268   5.116  13.217
 7123TIP3   OH242783   4.632   2.315  11.780
 7123TIP3    H142784   4.617   2.339  11.689
 7123TIP3    H242785   4.577   2.238  11.793
 7124TIP3   OH242786   4.870   4.712   5.880
 7124TIP3    H142787   4.876   4.663   5.962
 7124TIP3    H242788   4.936   4.671   5.823
 7125TIP3   OH242789   0.586   6.498  15.415
 7125TIP3    H142790   0.638   6.570  15.452
 7125TIP3    H242791   0.539   6.462  15.491
 7126TIP3   OH242792   6.294   3.741   1.122
 7126TIP3    H142793   6.217   3.693   1.092
 7126TIP3    H242794   6.365   3.678   1.116
 7127TIP3   OH242795   4.409   1.022  11.074
 7127TIP3    H142796   4.363   0.939  11.064
 7127TIP3    H242797   4.435   1.046  10.985
 7128TIP3   OH242798   1.720   1.626  11.023
 7128TIP3    H142799   1.720   1.644  10.929
 7128TIP3    H242800   1.789   1.561  11.035
 7129TIP3   OH242801   2.807   2.134   4.459
 7129TIP3    H142802   2.717   2.116   4.483
 7129TIP3    H242803   2.810   2.228   4.443
 7130TIP3   OH242804   6.767   1.123   5.933
 7130TIP3    H142805   6.776   1.030   5.953
 7130TIP3    H242806   6.729   1.161   6.013
 7131TIP3   OH242807   4.802   1.600   2.931
 7131TIP3    H142808   4.882   1.651   2.927
 7131TIP3    H242809   4.787   1.584   3.024
 7132TIP3   OH242810   0.131   4.263  12.409
 7132TIP3    H142811   0.145   4.237  12.500
 7132TIP3    H242812   0.036   4.270  12.400
 7133TIP3   OH242813   5.379   3.084   3.702
 7133TIP3    H142814   5.339   3.107   3.785
 7133TIP3    H242815   5.307   3.048   3.650
 7134TIP3   OH242816   2.793   1.398  16.465
 7134TIP3    H142817   2.808   1.450  16.544
 7134TIP3    H242818   2.708   1.357  16.479
 7135TIP3   OH242819   6.709   2.058  14.493
 7135TIP3    H142820   6.695   2.067  14.399
 7135TIP3    H242821   6.625   2.082  14.533
 7136TIP3   OH242822   1.872   4.845  11.846
 7136TIP3    H142823   1.866   4.827  11.940
 7136TIP3    H242824   1.793   4.897  11.827
 7137TIP3   OH242825   1.683   2.533  12.126
 7137TIP3    H142826   1.623   2.555  12.197
 7137TIP3    H242827   1.634   2.472  12.071
 7138TIP3   OH242828   4.816   1.091  10.802
 7138TIP3    H142829   4.880   1.097  10.731
 7138TIP3    H242830   4.750   1.157  10.781
 7139TIP3   OH242831   5.266   4.100  16.411
 7139TIP3    H142832   5.355   4.100  16.445
 7139TIP3    H242833   5.264   4.172  16.347
 7140TIP3   OH242834   6.386   0.287   4.857
 7140TIP3    H142835   6.296   0.310   4.879
 7140TIP3    H242836   6.401   0.203   4.901
 7141TIP3   OH242837   5.614   3.692   1.979
 7141TIP3    H142838   5.645   3.773   1.939
 7141TIP3    H242839   5.609   3.710   2.072
 7142TIP3   OH242840   2.310   3.433   2.266
 7142TIP3    H142841   2.226   3.459   2.303
 7142TIP3    H242842   2.375   3.486   2.313
 7143TIP3   OH242843   6.440   5.871   2.255
 7143TIP3    H142844   6.358   5.864   2.206
 7143TIP3    H242845   6.508   5.843   2.194
 7144TIP3   OH242846   1.142   4.439  12.278
 7144TIP3    H142847   1.101   4.438  12.192
 7144TIP3    H242848   1.207   4.509  12.273
 7145TIP3   OH242849   3.176   3.664  13.495
 7145TIP3    H142850   3.226   3.662  13.413
 7145TIP3    H242851   3.223   3.725  13.551
 7146TIP3   OH242852   2.304   0.209  10.620
 7146TIP3    H142853   2.240   0.138  10.618
 7146TIP3    H242854   2.367   0.187  10.552
 7147TIP3   OH242855   5.660   4.982  15.427
 7147TIP3    H142856   5.637   4.978  15.520
 7147TIP3    H242857   5.705   5.066  15.417
 7148TIP3   OH242858   3.381   4.818   2.535
 7148TIP3    H142859   3.394   4.808   2.441
 7148TIP3    H242860   3.416   4.737   2.573
 7149TIP3   OH242861   2.145   4.738   5.432
 7149TIP3    H142862   2.198   4.810   5.468
 7149TIP3    H242863   2.055   4.760   5.456
 7150TIP3   OH242864   4.602   4.837  13.582
 7150TIP3    H142865   4.638   4.912  13.535
 7150TIP3    H242866   4.678   4.797  13.625
 7151TIP3   OH242867   6.670   4.542   3.858
 7151TIP3    H142868   6.677   4.533   3.763
 7151TIP3    H242869   6.600   4.605   3.872
 7152TIP3   OH242870   5.302   1.126  11.391
 7152TIP3    H142871   5.236   1.063  11.420
 7152TIP3    H242872   5.355   1.078  11.327
 7153TIP3   OH242873   5.716   1.202   5.285
 7153TIP3    H142874   5.758   1.177   5.368
 7153TIP3    H242875   5.638   1.147   5.280
 7154TIP3   OH242876   3.687   4.536   3.956
 7154TIP3    H142877   3.683   4.632   3.947
 7154TIP3    H242878   3.772   4.520   3.998
 7155TIP3   OH242879   0.020   0.542   5.065
 7155TIP3    H142880   0.040   0.563   4.974
 7155TIP3    H242881  -0.071   0.569   5.077
 7156TIP3   OH242882   1.960   5.620  16.254
 7156TIP3    H142883   1.917   5.555  16.198
 7156TIP3    H242884   1.966   5.699  16.200
 7157TIP3   OH242885   2.272   4.831   0.297
 7157TIP3    H142886   2.265   4.816   0.203
 7157TIP3    H242887   2.226   4.914   0.313
 7158TIP3   OH242888   0.270   5.903  13.741
 7158TIP3    H142889   0.342   5.840  13.732
 7158TIP3    H242890   0.313   5.986  13.763
 7159TIP3   OH242891   4.537   1.151   6.601
 7159TIP3    H142892   4.472   1.219   6.619
 7159TIP3    H242893   4.592   1.188   6.531
 7160TIP3   OH242894   5.572   0.048   4.656
 7160TIP3    H142895   5.480   0.068   4.638
 7160TIP3    H242896   5.597  -0.014   4.587
 7161TIP3   OH242897   4.832   5.443  17.128
 7161TIP3    H142898   4.889   5.518  17.146
 7161TIP3    H242899   4.879   5.368  17.163
 7162TIP3   OH242900   6.331   2.091   3.916
 7162TIP3    H142901   6.284   2.148   3.856
 7162TIP3    H242902   6.269   2.021   3.937
 7163TIP3   OH242903   3.623   1.370  11.561
 7163TIP3    H142904   3.529   1.377  11.546
 7163TIP3    H242905   3.631   1.340  11.651
 7164TIP3   OH242906   1.150   1.805  16.547
 7164TIP3    H142907   1.120   1.889  16.582
 7164TIP3    H242908   1.069   1.761  16.520
 7165TIP3   OH242909   5.198   0.331  17.039
 7165TIP3    H142910   5.196   0.394  17.111
 7165TIP3    H242911   5.261   0.265  17.066
 7166TIP3   OH242912   2.791   2.764   2.613
 7166TIP3    H142913   2.875   2.791   2.651
 7166TIP3    H242914   2.763   2.838   2.560
 7167TIP3   OH242915   5.706   1.509   2.241
 7167TIP3    H142916   5.746   1.570   2.303
 7167TIP3    H242917   5.772   1.499   2.173
 7168TIP3   OH242918   2.629   5.218   3.045
 7168TIP3    H142919   2.572   5.295   3.052
 7168TIP3    H242920   2.598   5.173   2.966
 7169TIP3   OH242921   5.969   6.476   1.798
 7169TIP3    H142922   5.928   6.557   1.768
 7169TIP3    H242923   6.062   6.496   1.802
 7170TIP3   OH242924   3.418   6.055  15.513
 7170TIP3    H142925   3.494   6.017  15.557
 7170TIP3    H242926   3.418   6.147  15.541
 7171TIP3   OH242927   1.783   1.036  14.355
 7171TIP3    H142928   1.755   1.118  14.313
 7171TIP3    H242929   1.769   0.969  14.288
 7172TIP3   OH242930   0.805   0.757   5.873
 7172TIP3    H142931   0.761   0.692   5.819
 7172TIP3    H242932   0.896   0.756   5.844
 7173TIP3   OH242933   2.545   2.940  11.787
 7173TIP3    H142934   2.471   2.965  11.731
 7173TIP3    H242935   2.553   3.012  11.850
 7174TIP3   OH242936   0.187   3.264   1.191
 7174TIP3    H142937   0.223   3.308   1.114
 7174TIP3    H242938   0.191   3.171   1.170
 7175TIP3   OH242939   1.606   6.354   6.187
 7175TIP3    H142940   1.669   6.306   6.240
 7175TIP3    H242941   1.650   6.438   6.168
 7176TIP3   OH242942   5.045   1.203   3.517
 7176TIP3    H142943   5.087   1.117   3.528
 7176TIP3    H242944   4.972   1.202   3.579
 7177TIP3   OH242945   5.472   1.754  16.008
 7177TIP3    H142946   5.556   1.756  16.053
 7177TIP3    H242947   5.425   1.681  16.048
 7178TIP3   OH242948   5.028   3.721   3.464
 7178TIP3    H142949   4.941   3.683   3.455
 7178TIP3    H242950   5.085   3.665   3.411
 7179TIP3   OH242951   5.792   4.020  16.080
 7179TIP3    H142952   5.878   3.979  16.090
 7179TIP3    H242953   5.810   4.101  16.033
 7180TIP3   OH242954   3.568   4.056   3.912
 7180TIP3    H142955   3.588   4.135   3.962
 7180TIP3    H242956   3.606   4.073   3.825
 7181TIP3   OH242957   5.604   5.409   5.086
 7181TIP3    H142958   5.653   5.437   5.162
 7181TIP3    H242959   5.512   5.424   5.110
 7182TIP3   OH242960   3.023   2.477  14.180
 7182TIP3    H142961   3.110   2.439  14.197
 7182TIP3    H242962   3.020   2.487  14.085
 7183TIP3   OH242963   4.438   6.347  12.371
 7183TIP3    H142964   4.365   6.367  12.312
 7183TIP3    H242965   4.507   6.409  12.346
 7184TIP3   OH242966   2.041   2.202  13.714
 7184TIP3    H142967   1.999   2.141  13.774
 7184TIP3    H242968   1.974   2.268  13.696
 7185TIP3   OH242969   2.273   0.122  11.562
 7185TIP3    H142970   2.244   0.049  11.617
 7185TIP3    H242971   2.333   0.171  11.617
 7186TIP3   OH242972   3.918   5.224   2.202
 7186TIP3    H142973   3.865   5.233   2.281
 7186TIP3    H242974   3.944   5.132   2.200
 7187TIP3   OH242975   4.666   1.493  11.513
 7187TIP3    H142976   4.620   1.410  11.507
 7187TIP3    H242977   4.711   1.503  11.429
 7188TIP3   OH242978   2.912   1.446  12.070
 7188TIP3    H142979   2.989   1.414  12.116
 7188TIP3    H242980   2.848   1.463  12.139
 7189TIP3   OH242981   2.234   2.531   2.743
 7189TIP3    H142982   2.236   2.449   2.793
 7189TIP3    H242983   2.305   2.584   2.780
 7190TIP3   OH242984   0.521   2.549   6.451
 7190TIP3    H142985   0.443   2.497   6.470
 7190TIP3    H242986   0.512   2.626   6.507
 7191TIP3   OH242987   3.002   1.923  15.536
 7191TIP3    H142988   2.962   1.883  15.458
 7191TIP3    H242989   3.082   1.964  15.504
 7192TIP3   OH242990   5.697   2.858  12.345
 7192TIP3    H142991   5.754   2.825  12.414
 7192TIP3    H242992   5.751   2.857  12.266
 7193TIP3   OH242993   5.552   4.079   5.752
 7193TIP3    H142994   5.476   4.107   5.700
 7193TIP3    H242995   5.514   4.025   5.822
 7194TIP3   OH242996   2.573   0.174  16.671
 7194TIP3    H142997   2.624   0.245  16.709
 7194TIP3    H242998   2.593   0.098  16.724
 7195TIP3   OH242999   4.454   5.189   5.579
 7195TIP3    H143000   4.527   5.152   5.628
 7195TIP3    H243001   4.424   5.263   5.633
 7196TIP3   OH243002   2.704   4.668   4.077
 7196TIP3    H143003   2.695   4.739   4.140
 7196TIP3    H243004   2.788   4.685   4.033
 7197TIP3   OH243005   5.090   5.559   1.911
 7197TIP3    H143006   5.055   5.647   1.927
 7197TIP3    H243007   5.099   5.552   1.816
 7198TIP3   OH243008   5.119   6.728   0.770
 7198TIP3    H143009   5.189   6.781   0.731
 7198TIP3    H243010   5.065   6.703   0.695
 7199TIP3   OH243011   2.808   2.412  10.746
 7199TIP3    H143012   2.896   2.417  10.784
 7199TIP3    H243013   2.820   2.362  10.665
 7200TIP3   OH243014   1.190   3.482  10.881
 7200TIP3    H143015   1.253   3.549  10.856
 7200TIP3    H243016   1.149   3.455  10.799
 7201TIP3   OH243017   5.530   6.248   1.148
 7201TIP3    H143018   5.521   6.203   1.232
 7201TIP3    H243019   5.572   6.331   1.171
 7202TIP3   OH243020   4.547   3.851   5.194
 7202TIP3    H143021   4.505   3.935   5.213
 7202TIP3    H243022   4.516   3.793   5.264
 7203TIP3   OH243023   6.171   3.187  16.083
 7203TIP3    H143024   6.085   3.157  16.113
 7203TIP3    H243025   6.185   3.139  16.002
 7204TIP3   OH243026   6.071   6.241  17.220
 7204TIP3    H143027   5.990   6.195  17.242
 7204TIP3    H243028   6.061   6.328  17.258
 7205TIP3   OH243029   1.645   2.123  14.628
 7205TIP3    H143030   1.634   2.127  14.533
 7205TIP3    H243031   1.569   2.073  14.659
 7206TIP3   OH243032   1.185   0.915  16.450
 7206TIP3    H143033   1.228   0.989  16.407
 7206TIP3    H243034   1.204   0.926  16.543
 7207TIP3   OH243035   2.807   1.520  16.701
 7207TIP3    H143036   2.843   1.436  16.729
 7207TIP3    H243037   2.862   1.586  16.745
 7208TIP3   OH243038   2.121   1.804   4.396
 7208TIP3    H143039   2.048   1.751   4.364
 7208TIP3    H243040   2.135   1.775   4.486
 7209TIP3   OH243041   5.236   1.561   6.591
 7209TIP3    H143042   5.268   1.534   6.505
 7209TIP3    H243043   5.192   1.644   6.575
 7210TIP3   OH243044   1.308   5.772   5.819
 7210TIP3    H143045   1.262   5.856   5.825
 7210TIP3    H243046   1.400   5.796   5.805
 7211TIP3   OH243047   5.991   0.442   5.578
 7211TIP3    H143048   5.948   0.426   5.662
 7211TIP3    H243049   5.941   0.389   5.515
 7212TIP3   OH243050   2.074   2.551   4.640
 7212TIP3    H143051   2.040   2.463   4.656
 7212TIP3    H243052   2.165   2.549   4.670
 7213TIP3   OH243053   6.474   6.258  16.321
 7213TIP3    H143054   6.450   6.349  16.337
 7213TIP3    H243055   6.532   6.260  16.246
 7214TIP3   OH243056   4.976   3.077  17.011
 7214TIP3    H143057   5.025   3.036  17.082
 7214TIP3    H243058   4.997   3.024  16.934
 7215TIP3   OH243059   0.379   5.672  16.689
 7215TIP3    H143060   0.422   5.729  16.753
 7215TIP3    H243061   0.298   5.718  16.665
 7216TIP3   OH243062   0.321   2.366   1.048
 7216TIP3    H143063   0.356   2.340   1.134
 7216TIP3    H243064   0.398   2.379   0.994
 7217TIP3   OH243065   4.097   2.893   2.022
 7217TIP3    H143066   4.189   2.909   2.000
 7217TIP3    H243067   4.053   2.975   2.001
 7218TIP3   OH243068   5.404   1.086   1.426
 7218TIP3    H143069   5.438   1.160   1.476
 7218TIP3    H243070   5.343   1.043   1.486
 7219TIP3   OH243071   5.564   6.685   4.395
 7219TIP3    H143072   5.595   6.652   4.311
 7219TIP3    H243073   5.485   6.634   4.413
 7220TIP3   OH243074   4.596   6.592   1.240
 7220TIP3    H143075   4.507   6.594   1.205
 7220TIP3    H243076   4.620   6.499   1.240
 7221TIP3   OH243077   2.376   2.732  14.918
 7221TIP3    H143078   2.357   2.640  14.935
 7221TIP3    H243079   2.456   2.731  14.865
 7222TIP3   OH243080   1.720   3.746   3.240
 7222TIP3    H143081   1.792   3.696   3.279
 7222TIP3    H243082   1.641   3.700   3.269
 7223TIP3   OH243083   3.395   3.255  12.764
 7223TIP3    H143084   3.324   3.199  12.796
 7223TIP3    H243085   3.350   3.331  12.727
 7224TIP3   OH243086   1.520   0.674  16.485
 7224TIP3    H143087   1.600   0.712  16.449
 7224TIP3    H243088   1.519   0.703  16.576
 7225TIP3   OH243089   6.112   4.684  12.314
 7225TIP3    H143090   6.139   4.624  12.245
 7225TIP3    H243091   6.163   4.657  12.390
 7226TIP3   OH243092   1.095   3.326   4.778
 7226TIP3    H143093   1.118   3.382   4.852
 7226TIP3    H243094   1.015   3.365   4.742
 7227TIP3   OH243095   6.076   3.502   4.475
 7227TIP3    H143096   6.011   3.499   4.545
 7227TIP3    H243097   6.098   3.410   4.460
 7228TIP3   OH243098   5.103   4.856  15.741
 7228TIP3    H143099   5.117   4.762  15.742
 7228TIP3    H243100   5.069   4.877  15.828
 7229TIP3   OH243101   2.219   5.973  13.249
 7229TIP3    H143102   2.303   5.986  13.206
 7229TIP3    H243103   2.155   6.006  13.186
 7230TIP3   OH243104   1.668   4.366  14.718
 7230TIP3    H143105   1.757   4.342  14.694
 7230TIP3    H243106   1.679   4.424  14.794
 7231TIP3   OH243107   1.234   2.804  16.676
 7231TIP3    H143108   1.241   2.825  16.769
 7231TIP3    H243109   1.321   2.770  16.653
 7232TIP3   OH243110   5.883   6.451  16.735
 7232TIP3    H143111   5.803   6.497  16.758
 7232TIP3    H243112   5.911   6.491  16.653
 7233TIP3   OH243113   1.716   4.212  16.096
 7233TIP3    H143114   1.648   4.238  16.035
 7233TIP3    H243115   1.797   4.216  16.045
 7234TIP3   OH243116   3.978   6.518  12.033
 7234TIP3    H143117   3.895   6.553  12.067
 7234TIP3    H243118   3.954   6.434  11.993
 7235TIP3   OH243119   5.934   3.425  14.365
 7235TIP3    H143120   5.847   3.385  14.374
 7235TIP3    H243121   5.990   3.353  14.334
 7236TIP3   OH243122   5.919   4.379   6.610
 7236TIP3    H143123   5.986   4.403   6.674
 7236TIP3    H243124   5.857   4.453   6.613
 7237TIP3   OH243125   4.628   2.421   2.781
 7237TIP3    H143126   4.706   2.470   2.757
 7237TIP3    H243127   4.648   2.330   2.759
 7238TIP3   OH243128   1.224   4.689   0.551
 7238TIP3    H143129   1.231   4.648   0.465
 7238TIP3    H243130   1.314   4.695   0.583
 7239TIP3   OH243131   4.833   5.855   3.654
 7239TIP3    H143132   4.866   5.770   3.682
 7239TIP3    H243133   4.739   5.841   3.640
 7240TIP3   OH243134   1.310   6.193  13.941
 7240TIP3    H143135   1.309   6.286  13.922
 7240TIP3    H243136   1.228   6.160  13.904
 7241TIP3   OH243137   3.430   0.432  12.813
 7241TIP3    H143138   3.358   0.401  12.867
 7241TIP3    H243139   3.494   0.466  12.876
 7242TIP3   OH243140   2.042   2.241  15.559
 7242TIP3    H143141   2.064   2.316  15.614
 7242TIP3    H243142   1.949   2.227  15.573
 7243TIP3   OH243143   5.988   5.320  13.610
 7243TIP3    H143144   5.912   5.369  13.578
 7243TIP3    H243145   6.007   5.359  13.695
 7244TIP3   OH243146   2.190   6.133  12.549
 7244TIP3    H143147   2.098   6.105  12.548
 7244TIP3    H243148   2.230   6.079  12.618
 7245TIP3   OH243149   4.948   0.540  16.407
 7245TIP3    H143150   4.861   0.573  16.429
 7245TIP3    H243151   5.007   0.584  16.468
 7246TIP3   OH243152   5.816   2.347   2.836
 7246TIP3    H143153   5.760   2.270   2.850
 7246TIP3    H243154   5.806   2.399   2.916
 7247TIP3   OH243155   2.076   3.168  11.424
 7247TIP3    H143156   2.111   3.250  11.387
 7247TIP3    H243157   1.987   3.191  11.451
 7248TIP3   OH243158   1.051   2.481  11.103
 7248TIP3    H143159   1.048   2.392  11.066
 7248TIP3    H243160   1.142   2.491  11.132
 7249TIP3   OH243161   2.964   3.423   1.956
 7249TIP3    H143162   3.027   3.429   2.028
 7249TIP3    H243163   2.929   3.512   1.947
 7250TIP3   OH243164   4.357   2.952   2.398
 7250TIP3    H143165   4.405   2.972   2.478
 7250TIP3    H243166   4.270   2.926   2.428
 7251TIP3   OH243167   1.772   5.245  11.580
 7251TIP3    H143168   1.688   5.253  11.535
 7251TIP3    H243169   1.778   5.325  11.632
 7252TIP3   OH243170   2.683   4.204   5.679
 7252TIP3    H143171   2.597   4.184   5.644
 7252TIP3    H243172   2.711   4.283   5.632
 7253TIP3   OH243173   5.275   2.713   4.472
 7253TIP3    H143174   5.247   2.791   4.424
 7253TIP3    H243175   5.287   2.744   4.562
 7254TIP3   OH243176   1.367   2.317   2.090
 7254TIP3    H143177   1.304   2.386   2.111
 7254TIP3    H243178   1.398   2.287   2.175
 7255TIP3   OH243179   0.333   4.950  14.828
 7255TIP3    H143180   0.402   4.968  14.764
 7255TIP3    H243181   0.370   4.882  14.885
 7256TIP3   OH243182   4.802   4.568   0.934
 7256TIP3    H143183   4.838   4.543   0.849
 7256TIP3    H243184   4.799   4.485   0.983
 7257TIP3   OH243185   2.871   0.179   4.782
 7257TIP3    H143186   2.826   0.097   4.805
 7257TIP3    H243187   2.851   0.191   4.689
 7258TIP3   OH243188   4.645   1.064  13.362
 7258TIP3    H143189   4.713   1.121  13.398
 7258TIP3    H243190   4.665   0.977  13.397
 7259TIP3   OH243191   2.782   3.895  15.283
 7259TIP3    H143192   2.816   3.967  15.337
 7259TIP3    H243193   2.690   3.887  15.310
 7260TIP3   OH243194   3.186   6.516  15.500
 7260TIP3    H143195   3.192   6.529  15.405
 7260TIP3    H243196   3.188   6.422  15.512
 7261TIP3   OH243197   0.771   1.188  16.044
 7261TIP3    H143198   0.761   1.098  16.015
 7261TIP3    H243199   0.752   1.241  15.967
 7262TIP3   OH243200   1.919   6.153   5.244
 7262TIP3    H143201   1.920   6.176   5.337
 7262TIP3    H243202   1.834   6.182   5.213
 7263TIP3   OH243203   4.102   0.114   0.185
 7263TIP3    H143204   4.036   0.172   0.223
 7263TIP3    H243205   4.175   0.172   0.165
 7264TIP3   OH243206   2.188   4.132  11.952
 7264TIP3    H143207   2.134   4.150  12.029
 7264TIP3    H243208   2.272   4.103  11.988
 7265TIP3   OH243209   2.667   4.010   2.035
 7265TIP3    H143210   2.656   4.006   1.940
 7265TIP3    H243211   2.610   3.940   2.068
 7266TIP3   OH243212   4.121   2.285   6.495
 7266TIP3    H143213   4.111   2.260   6.587
 7266TIP3    H243214   4.042   2.335   6.475
 7267TIP3   OH243215   0.897   4.522   0.483
 7267TIP3    H143216   0.887   4.588   0.552
 7267TIP3    H243217   0.861   4.442   0.522
 7268TIP3   OH243218   4.665   1.315  15.105
 7268TIP3    H143219   4.622   1.393  15.139
 7268TIP3    H243220   4.702   1.273  15.183
 7269TIP3   OH243221   4.221   4.263   7.036
 7269TIP3    H143222   4.133   4.300   7.046
 7269TIP3    H243223   4.248   4.288   6.948
 7270TIP3   OH243224   0.787   2.786   0.645
 7270TIP3    H143225   0.735   2.778   0.725
 7270TIP3    H243226   0.878   2.776   0.675
 7271TIP3   OH243227   6.578   6.027  13.291
 7271TIP3    H143228   6.668   6.023  13.261
 7271TIP3    H243229   6.527   5.986  13.220
 7272TIP3   OH243230   0.580   5.006   0.552
 7272TIP3    H143231   0.565   4.933   0.613
 7272TIP3    H243232   0.533   4.981   0.473
 7273TIP3   OH243233   0.900   6.484  11.605
 7273TIP3    H143234   0.914   6.414  11.669
 7273TIP3    H243235   0.870   6.439  11.526
 7274TIP3   OH243236   5.355   3.645   2.844
 7274TIP3    H143237   5.364   3.655   2.939
 7274TIP3    H243238   5.264   3.666   2.827
 7275TIP3   OH243239   3.025   0.853  12.257
 7275TIP3    H143240   3.018   0.928  12.197
 7275TIP3    H243241   3.116   0.825  12.248
 7276TIP3   OH243242   4.310   0.180   1.678
 7276TIP3    H143243   4.234   0.197   1.623
 7276TIP3    H243244   4.385   0.190   1.619
 7277TIP3   OH243245   3.206   0.752   4.751
 7277TIP3    H143246   3.192   0.661   4.723
 7277TIP3    H243247   3.177   0.754   4.842
 7278TIP3   OH243248   4.113   6.248  14.516
 7278TIP3    H143249   4.200   6.281  14.492
 7278TIP3    H243250   4.060   6.262  14.437
 7279TIP3   OH243251   2.979   1.691  16.862
 7279TIP3    H143252   2.971   1.670  16.955
 7279TIP3    H243253   3.067   1.661  16.837
 7280TIP3   OH243254   3.293   5.729   0.947
 7280TIP3    H143255   3.353   5.753   0.877
 7280TIP3    H243256   3.214   5.698   0.902
 7281TIP3   OH243257   4.799   1.779  15.006
 7281TIP3    H143258   4.848   1.832  14.944
 7281TIP3    H243259   4.740   1.840  15.050
 7282TIP3   OH243260   0.275   4.311   3.746
 7282TIP3    H143261   0.252   4.402   3.765
 7282TIP3    H243262   0.369   4.313   3.730
 7283TIP3   OH243263   3.173   5.307   4.615
 7283TIP3    H143264   3.220   5.269   4.540
 7283TIP3    H243265   3.159   5.233   4.674
 7284TIP3   OH243266   4.787   5.410   0.436
 7284TIP3    H143267   4.695   5.434   0.431
 7284TIP3    H243268   4.813   5.431   0.525
 7285TIP3   OH243269   1.648   0.731  13.680
 7285TIP3    H143270   1.592   0.657  13.703
 7285TIP3    H243271   1.610   0.766  13.600
 7286TIP3   OH243272   4.185   2.794  12.700
 7286TIP3    H143273   4.223   2.711  12.671
 7286TIP3    H243274   4.249   2.860  12.673
 7287TIP3   OH243275   6.546   6.320  13.421
 7287TIP3    H143276   6.625   6.360  13.385
 7287TIP3    H243277   6.561   6.318  13.516
 7288TIP3   OH243278   0.143   6.268  15.065
 7288TIP3    H143279   0.171   6.186  15.025
 7288TIP3    H243280   0.070   6.243  15.122
 7289TIP3   OH243281   1.403   0.271  11.727
 7289TIP3    H143282   1.451   0.246  11.806
 7289TIP3    H243283   1.451   0.347  11.694
 7290TIP3   OH243284   3.100   5.361  16.303
 7290TIP3    H143285   3.091   5.410  16.385
 7290TIP3    H243286   3.194   5.343  16.296
 7291TIP3   OH243287   5.386   3.429  16.611
 7291TIP3    H143288   5.468   3.405  16.653
 7291TIP3    H243289   5.386   3.525  16.611
 7292TIP3   OH243290   3.330   4.829  14.651
 7292TIP3    H143291   3.242   4.797  14.673
 7292TIP3    H243292   3.389   4.776  14.705
 7293TIP3   OH243293   1.438   2.093   4.944
 7293TIP3    H143294   1.387   2.051   4.874
 7293TIP3    H243295   1.512   2.133   4.898
 7294TIP3   OH243296   4.653   4.576   5.724
 7294TIP3    H143297   4.678   4.508   5.786
 7294TIP3    H243298   4.735   4.621   5.704
 7295TIP3   OH243299   2.177   2.993   1.199
 7295TIP3    H143300   2.149   2.952   1.117
 7295TIP3    H243301   2.115   2.962   1.265
 7296TIP3   OH243302   6.620   5.394   2.473
 7296TIP3    H143303   6.576   5.476   2.451
 7296TIP3    H243304   6.690   5.420   2.533
 7297TIP3   OH243305   0.752   1.885   4.961
 7297TIP3    H143306   0.717   1.965   5.000
 7297TIP3    H243307   0.844   1.884   4.986
 7298TIP3   OH243308   2.537   0.155   2.227
 7298TIP3    H143309   2.587   0.181   2.305
 7298TIP3    H243310   2.502   0.238   2.194
 7299TIP3   OH243311   2.317   1.232  15.166
 7299TIP3    H143312   2.239   1.182  15.140
 7299TIP3    H243313   2.317   1.308  15.108
 7300TIP3   OH243314   4.764   6.730  12.054
 7300TIP3    H143315   4.825   6.769  12.116
 7300TIP3    H243316   4.734   6.650  12.096
 7301TIP3   OH243317   4.622   2.057  14.092
 7301TIP3    H143318   4.617   1.984  14.153
 7301TIP3    H243319   4.687   2.116  14.131
 7302TIP3   OH243320   2.900   4.889   1.662
 7302TIP3    H143321   2.814   4.920   1.690
 7302TIP3    H243322   2.934   4.960   1.606
 7303TIP3   OH243323   4.375   1.000  13.348
 7303TIP3    H143324   4.328   1.006  13.431
 7303TIP3    H243325   4.461   1.037  13.367
 7304TIP3   OH243326   3.522   1.677   6.041
 7304TIP3    H143327   3.574   1.660   5.963
 7304TIP3    H243328   3.563   1.625   6.110
 7305TIP3   OH243329   4.282   4.684  16.911
 7305TIP3    H143330   4.260   4.763  16.961
 7305TIP3    H243331   4.223   4.685  16.836
 7306TIP3   OH243332   0.614   2.992  10.496
 7306TIP3    H143333   0.595   2.973  10.405
 7306TIP3    H243334   0.630   2.907  10.536
 7307TIP3   OH243335   1.977   0.959   0.594
 7307TIP3    H143336   1.885   0.977   0.576
 7307TIP3    H243337   1.994   0.875   0.552
 7308TIP3   OH243338   3.717   2.434  12.572
 7308TIP3    H143339   3.704   2.341  12.593
 7308TIP3    H243340   3.629   2.466  12.552
 7309TIP3   OH243341   5.990   5.341   0.808
 7309TIP3    H143342   5.952   5.272   0.863
 7309TIP3    H243343   6.028   5.294   0.734
 7310TIP3   OH243344   4.397   2.872  13.866
 7310TIP3    H143345   4.435   2.831  13.943
 7310TIP3    H243346   4.400   2.805  13.798
 7311TIP3   OH243347   5.046   6.713   5.536
 7311TIP3    H143348   4.978   6.653   5.505
 7311TIP3    H243349   5.106   6.723   5.462
 7312TIP3   OH243350   2.444   2.881   1.295
 7312TIP3    H143351   2.485   2.842   1.372
 7312TIP3    H243352   2.432   2.973   1.317
 7313TIP3   OH243353   2.555   2.501  13.842
 7313TIP3    H143354   2.520   2.508  13.930
 7313TIP3    H243355   2.563   2.406  13.827
 7314TIP3   OH243356   4.364   2.428   2.700
 7314TIP3    H143357   4.409   2.379   2.630
 7314TIP3    H243358   4.428   2.432   2.771
 7315TIP3   OH243359   6.539   3.982  10.517
 7315TIP3    H143360   6.484   3.979  10.595
 7315TIP3    H243361   6.572   4.072  10.514
 7316TIP3   OH243362   2.843   4.341   2.558
 7316TIP3    H143363   2.856   4.396   2.636
 7316TIP3    H243364   2.849   4.401   2.484
 7317TIP3   OH243365   5.766   0.054  12.424
 7317TIP3    H143366   5.726  -0.028  12.452
 7317TIP3    H243367   5.828   0.075  12.494
 7318TIP3   OH243368   1.786   3.469  12.558
 7318TIP3    H143369   1.778   3.388  12.506
 7318TIP3    H243370   1.841   3.526  12.504
 7319TIP3   OH243371   6.022   3.015   5.032
 7319TIP3    H143372   5.954   3.008   5.099
 7319TIP3    H243373   6.052   2.925   5.018
 7320TIP3   OH243374   2.820   2.633  17.230
 7320TIP3    H143375   2.757   2.565  17.208
 7320TIP3    H243376   2.767   2.704  17.268
 7321TIP3   OH243377   2.158   1.971   4.767
 7321TIP3    H143378   2.107   1.900   4.806
 7321TIP3    H243379   2.122   1.980   4.679
 7322TIP3   OH243380   5.393   2.727  15.828
 7322TIP3    H143381   5.462   2.734  15.894
 7322TIP3    H243382   5.425   2.659  15.768
 7323TIP3   OH243383   4.302   4.941  12.006
 7323TIP3    H143384   4.235   4.885  12.046
 7323TIP3    H243385   4.266   4.965  11.921
 7324TIP3   OH243386   0.008   4.019   2.340
 7324TIP3    H143387   0.067   3.993   2.269
 7324TIP3    H243388   0.022   3.953   2.408
 7325TIP3   OH243389   0.152   5.139   5.303
 7325TIP3    H143390   0.184   5.096   5.382
 7325TIP3    H243391   0.081   5.082   5.273
 7326TIP3   OH243392   3.233   5.066  16.553
 7326TIP3    H143393   3.324   5.068  16.522
 7326TIP3    H243394   3.239   5.031  16.642
 7327TIP3   OH243395   4.475   5.573   4.971
 7327TIP3    H143396   4.442   5.489   5.001
 7327TIP3    H243397   4.568   5.559   4.956
 7328TIP3   OH243398   1.438   0.149  12.179
 7328TIP3    H143399   1.510   0.094  12.148
 7328TIP3    H243400   1.479   0.213  12.237
 7329TIP3   OH243401   1.485   6.016   4.612
 7329TIP3    H143402   1.474   6.048   4.523
 7329TIP3    H243403   1.528   6.089   4.658
 7330TIP3   OH243404   0.287   5.282   0.262
 7330TIP3    H143405   0.380   5.279   0.240
 7330TIP3    H243406   0.265   5.375   0.264
 7331TIP3   OH243407   5.291   4.183   0.469
 7331TIP3    H143408   5.319   4.184   0.378
 7331TIP3    H243409   5.360   4.229   0.516
 7332TIP3   OH243410   1.020   4.615  15.755
 7332TIP3    H143411   1.026   4.604  15.660
 7332TIP3    H243412   0.955   4.684  15.767
 7333TIP3   OH243413   0.483   1.409   5.598
 7333TIP3    H143414   0.546   1.439   5.663
 7333TIP3    H243415   0.473   1.315   5.615
 7334TIP3   OH243416   0.737   6.541  12.683
 7334TIP3    H143417   0.708   6.558  12.772
 7334TIP3    H243418   0.793   6.615  12.661
 7335TIP3   OH243419   0.242   4.908   1.471
 7335TIP3    H143420   0.284   4.932   1.553
 7335TIP3    H243421   0.310   4.861   1.422
 7336TIP3   OH243422   0.393   0.564   0.236
 7336TIP3    H143423   0.364   0.620   0.164
 7336TIP3    H243424   0.407   0.478   0.196
 7337TIP3   OH243425   5.910   4.447  16.909
 7337TIP3    H143426   5.874   4.415  16.826
 7337TIP3    H243427   5.988   4.496  16.884
 7338TIP3   OH243428   4.573   4.937  14.676
 7338TIP3    H143429   4.491   4.921  14.630
 7338TIP3    H243430   4.547   4.969  14.762
 7339TIP3   OH243431   2.974   2.355  16.772
 7339TIP3    H143432   3.055   2.377  16.727
 7339TIP3    H243433   2.916   2.429  16.755
 7340TIP3   OH243434   6.751   6.184  15.443
 7340TIP3    H143435   6.843   6.165  15.463
 7340TIP3    H243436   6.714   6.099  15.419
 7341TIP3   OH243437   4.090   4.402  14.226
 7341TIP3    H143438   4.082   4.446  14.142
 7341TIP3    H243439   4.163   4.447  14.270
 7342TIP3   OH243440   2.496   3.637   4.396
 7342TIP3    H143441   2.586   3.629   4.364
 7342TIP3    H243442   2.470   3.725   4.370
 7343TIP3   OH243443   2.547   1.935   5.705
 7343TIP3    H143444   2.493   2.011   5.728
 7343TIP3    H243445   2.572   1.950   5.614
 7344TIP3   OH243446   0.162   0.079   0.873
 7344TIP3    H143447   0.130   0.148   0.815
 7344TIP3    H243448   0.090   0.062   0.933
 7345TIP3   OH243449   6.371   2.782  15.208
 7345TIP3    H143450   6.397   2.690  15.204
 7345TIP3    H243451   6.276   2.781  15.207
 7346TIP3   OH243452   4.848   1.532  15.574
 7346TIP3    H143453   4.891   1.489  15.500
 7346TIP3    H243454   4.888   1.619  15.579
 7347TIP3   OH243455   4.746   5.816  10.807
 7347TIP3    H143456   4.787   5.736  10.839
 7347TIP3    H243457   4.727   5.799  10.715
 7348TIP3   OH243458   6.131   0.247   4.717
 7348TIP3    H143459   6.169   0.169   4.759
 7348TIP3    H243460   6.058   0.272   4.774
 7349TIP3   OH243461   4.959   5.335  13.212
 7349TIP3    H143462   4.995   5.262  13.263
 7349TIP3    H243463   4.941   5.403  13.277
 7350TIP3   OH243464   3.622   4.136  14.561
 7350TIP3    H143465   3.621   4.164  14.469
 7350TIP3    H243466   3.531   4.114  14.580
 7351TIP3   OH243467   6.372   3.552  16.208
 7351TIP3    H143468   6.423   3.471  16.208
 7351TIP3    H243469   6.290   3.529  16.252
 7352TIP3   OH243470   5.112   4.171   4.671
 7352TIP3    H143471   5.171   4.195   4.599
 7352TIP3    H243472   5.025   4.192   4.637
 7353TIP3   OH243473   4.201   2.481   5.842
 7353TIP3    H143474   4.210   2.576   5.832
 7353TIP3    H243475   4.207   2.466   5.937
 7354TIP3   OH243476   1.788   3.322   3.263
 7354TIP3    H143477   1.760   3.408   3.296
 7354TIP3    H243478   1.866   3.341   3.212
 7355TIP3   OH243479   4.744   3.163   5.081
 7355TIP3    H143480   4.713   3.196   4.997
 7355TIP3    H243481   4.715   3.072   5.084
 7356TIP3   OH243482   1.681   2.542   2.857
 7356TIP3    H143483   1.671   2.621   2.910
 7356TIP3    H243484   1.769   2.510   2.876
 7357TIP3   OH243485   5.685   4.862  10.417
 7357TIP3    H143486   5.658   4.918  10.490
 7357TIP3    H243487   5.650   4.776  10.438
 7358TIP3   OH243488   4.253   1.905   5.148
 7358TIP3    H143489   4.268   1.926   5.240
 7358TIP3    H243490   4.340   1.881   5.114
 7359TIP3   OH243491   0.321   6.465  15.831
 7359TIP3    H143492   0.293   6.550  15.796
 7359TIP3    H243493   0.269   6.453  15.910
 7360TIP3   OH243494   6.776   3.789   0.705
 7360TIP3    H143495   6.713   3.760   0.771
 7360TIP3    H243496   6.860   3.758   0.737
 7361TIP3   OH243497   5.889   2.555   1.194
 7361TIP3    H143498   5.922   2.474   1.232
 7361TIP3    H243499   5.874   2.613   1.269
 7362TIP3   OH243500   0.370   6.505   3.983
 7362TIP3    H143501   0.351   6.437   3.919
 7362TIP3    H243502   0.301   6.495   4.049
 7363TIP3   OH243503   3.753   3.730   4.932
 7363TIP3    H143504   3.672   3.692   4.897
 7363TIP3    H243505   3.823   3.681   4.889
 7364TIP3   OH243506   6.716   4.980  14.692
 7364TIP3    H143507   6.625   4.999  14.713
 7364TIP3    H243508   6.724   4.885  14.699
 7365TIP3   OH243509   0.648   1.838  11.937
 7365TIP3    H143510   0.632   1.835  11.842
 7365TIP3    H243511   0.663   1.746  11.961
 7366TIP3   OH243512   2.457   3.970  16.899
 7366TIP3    H143513   2.510   4.031  16.848
 7366TIP3    H243514   2.520   3.922  16.953
 7367TIP3   OH243515   0.423   1.758   1.990
 7367TIP3    H143516   0.352   1.761   2.055
 7367TIP3    H243517   0.382   1.787   1.908
 7368TIP3   OH243518   0.039   3.859  10.543
 7368TIP3    H143519  -0.049   3.839  10.512
 7368TIP3    H243520   0.054   3.797  10.615
 7369TIP3   OH243521   6.719   2.134   0.297
 7369TIP3    H143522   6.687   2.194   0.229
 7369TIP3    H243523   6.708   2.047   0.259
 7370TIP3   OH243524   3.234   1.194  15.777
 7370TIP3    H143525   3.190   1.218  15.858
 7370TIP3    H243526   3.318   1.239  15.781
 7371TIP3   OH243527   5.373   1.967  14.868
 7371TIP3    H143528   5.353   1.909  14.941
 7371TIP3    H243529   5.290   2.010  14.849
 7372TIP3   OH243530   1.206   0.525  13.529
 7372TIP3    H143531   1.207   0.441  13.575
 7372TIP3    H243532   1.262   0.512  13.453
 7373TIP3   OH243533   4.753   0.783   0.633
 7373TIP3    H143534   4.744   0.769   0.539
 7373TIP3    H243535   4.793   0.703   0.667
 7374TIP3   OH243536   5.742   3.087  14.103
 7374TIP3    H143537   5.703   3.007  14.068
 7374TIP3    H243538   5.756   3.067  14.196
 7375TIP3   OH243539   2.604   4.344   3.778
 7375TIP3    H143540   2.647   4.406   3.836
 7375TIP3    H243541   2.522   4.386   3.753
 7376TIP3   OH243542   2.669   3.665  13.150
 7376TIP3    H143543   2.594   3.694  13.203
 7376TIP3    H243544   2.745   3.702  13.194
 7377TIP3   OH243545   6.073   0.056   5.960
 7377TIP3    H143546   6.112  -0.023   5.997
 7377TIP3    H243547   6.104   0.127   6.016
 7378TIP3   OH243548   2.311   6.446   3.523
 7378TIP3    H143549   2.265   6.363   3.507
 7378TIP3    H243550   2.244   6.504   3.559
 7379TIP3   OH243551   5.097   2.640   3.702
 7379TIP3    H143552   5.052   2.586   3.767
 7379TIP3    H243553   5.089   2.591   3.620
 7380TIP3   OH243554   1.641   1.332  17.075
 7380TIP3    H143555   1.652   1.407  17.018
 7380TIP3    H243556   1.681   1.359  17.158
 7381TIP3   OH243557   0.845   6.761   4.224
 7381TIP3    H143558   0.778   6.693   4.213
 7381TIP3    H243559   0.924   6.723   4.187
 7382TIP3   OH243560   2.038   5.002  13.828
 7382TIP3    H143561   2.130   5.028  13.835
 7382TIP3    H243562   2.000   5.065  13.767
 7383TIP3   OH243563   4.270   5.293   4.669
 7383TIP3    H143564   4.332   5.366   4.677
 7383TIP3    H243565   4.242   5.296   4.577
 7384TIP3   OH243566   3.871   2.464   1.754
 7384TIP3    H143567   3.896   2.545   1.709
 7384TIP3    H243568   3.847   2.404   1.684
 7385TIP3   OH243569   2.117   2.379   3.330
 7385TIP3    H143570   2.152   2.305   3.380
 7385TIP3    H243571   2.084   2.340   3.250
 7386TIP3   OH243572   4.893   6.345  13.435
 7386TIP3    H143573   4.861   6.404  13.367
 7386TIP3    H243574   4.890   6.396  13.516
 7387TIP3   OH243575   0.658   1.346  14.971
 7387TIP3    H143576   0.633   1.355  14.879
 7387TIP3    H243577   0.659   1.251  14.986
 7388TIP3   OH243578   1.659   0.704  14.653
 7388TIP3    H143579   1.703   0.684  14.736
 7388TIP3    H243580   1.583   0.757  14.679
 7389TIP3   OH243581   6.236   6.210  16.554
 7389TIP3    H143582   6.315   6.257  16.580
 7389TIP3    H243583   6.236   6.214  16.459
 7390TIP3   OH243584   0.491   3.447   4.215
 7390TIP3    H143585   0.561   3.407   4.164
 7390TIP3    H243586   0.426   3.377   4.226
 7391TIP3   OH243587   2.120   0.711   2.985
 7391TIP3    H143588   2.071   0.654   3.044
 7391TIP3    H243589   2.080   0.798   2.998
 7392TIP3   OH243590   3.916   1.186  13.519
 7392TIP3    H143591   3.914   1.269  13.567
 7392TIP3    H243592   3.873   1.123  13.577
 7393TIP3   OH243593   2.518   1.375   6.454
 7393TIP3    H143594   2.431   1.351   6.484
 7393TIP3    H243595   2.525   1.469   6.471
 7394TIP3   OH243596   6.073   3.855  12.877
 7394TIP3    H143597   6.059   3.938  12.922
 7394TIP3    H243598   6.156   3.866  12.831
 7395TIP3   OH243599   2.531   3.914  12.279
 7395TIP3    H143600   2.593   3.972  12.235
 7395TIP3    H243601   2.446   3.936  12.240
 7396TIP3   OH243602   4.636   6.168  13.176
 7396TIP3    H143603   4.690   6.141  13.251
 7396TIP3    H243604   4.636   6.093  13.118
 7397TIP3   OH243605   3.350   3.448  15.023
 7397TIP3    H143606   3.290   3.482  15.089
 7397TIP3    H243607   3.299   3.382  14.975
 7398TIP3   OH243608   1.364   1.558  14.997
 7398TIP3    H143609   1.378   1.620  15.069
 7398TIP3    H243610   1.296   1.499  15.029
 7399TIP3   OH243611   4.640   4.379  16.043
 7399TIP3    H143612   4.724   4.425  16.035
 7399TIP3    H243613   4.642   4.339  16.130
 7400TIP3   OH243614   6.703   6.046   2.906
 7400TIP3    H143615   6.770   6.008   2.963
 7400TIP3    H243616   6.745   6.051   2.820
 7401TIP3   OH243617   0.269   4.043  14.359
 7401TIP3    H143618   0.186   4.090  14.370
 7401TIP3    H243619   0.243   3.951  14.348
 7402TIP3   OH243620   2.469   2.287   5.407
 7402TIP3    H143621   2.395   2.343   5.383
 7402TIP3    H243622   2.531   2.346   5.451
 7403TIP3   OH243623   5.937   6.787  14.887
 7403TIP3    H143624   5.895   6.739  14.959
 7403TIP3    H243625   5.869   6.793  14.819
 7404TIP3   OH243626   1.621   2.220   2.961
 7404TIP3    H143627   1.595   2.284   2.895
 7404TIP3    H243628   1.637   2.272   3.040
 7405TIP3   OH243629   5.740   4.803  11.064
 7405TIP3    H143630   5.817   4.750  11.083
 7405TIP3    H243631   5.666   4.748  11.090
 7406TIP3   OH243632   2.196   0.201  12.549
 7406TIP3    H143633   2.259   0.263  12.585
 7406TIP3    H243634   2.147   0.252  12.484
 7407TIP3   OH243635   6.193   5.362   3.344
 7407TIP3    H143636   6.283   5.332   3.354
 7407TIP3    H243637   6.149   5.333   3.425
 7408TIP3   OH243638   2.057   1.335   1.124
 7408TIP3    H143639   2.026   1.259   1.075
 7408TIP3    H243640   2.103   1.298   1.199
 7409TIP3   OH243641   3.800   2.828  14.980
 7409TIP3    H143642   3.819   2.860  14.892
 7409TIP3    H243643   3.705   2.836  14.988
 7410TIP3   OH243644   6.066   4.937   4.252
 7410TIP3    H143645   6.044   4.985   4.331
 7410TIP3    H243646   6.161   4.947   4.243
 7411TIP3   OH243647   6.780   4.703  15.648
 7411TIP3    H143648   6.822   4.627  15.608
 7411TIP3    H243649   6.707   4.667  15.697
 7412TIP3   OH243650   1.564   0.850   2.744
 7412TIP3    H143651   1.482   0.885   2.777
 7412TIP3    H243652   1.630   0.878   2.808
 7413TIP3   OH243653   2.973   0.448  10.518
 7413TIP3    H143654   2.961   0.362  10.559
 7413TIP3    H243655   2.970   0.430  10.424
 7414TIP3   OH243656   2.222   2.241   0.280
 7414TIP3    H143657   2.303   2.198   0.307
 7414TIP3    H243658   2.152   2.185   0.314
 7415TIP3   OH243659   6.053   5.222  11.339
 7415TIP3    H143660   5.964   5.203  11.370
 7415TIP3    H243661   6.088   5.284  11.402
 7416TIP3   OH243662   0.527   3.809  15.955
 7416TIP3    H143663   0.540   3.873  15.885
 7416TIP3    H243664   0.507   3.861  16.032
 7417TIP3   OH243665   4.816   1.361  12.173
 7417TIP3    H143666   4.853   1.436  12.125
 7417TIP3    H243667   4.892   1.305  12.190
 7418TIP3   OH243668   0.208   0.322  11.651
 7418TIP3    H143669   0.189   0.277  11.568
 7418TIP3    H243670   0.293   0.363  11.636
 7419TIP3   OH243671   2.471   5.467  12.389
 7419TIP3    H143672   2.566   5.465  12.396
 7419TIP3    H243673   2.440   5.458  12.479
 7420TIP3   OH243674   5.586   2.087   4.484
 7420TIP3    H143675   5.580   2.128   4.570
 7420TIP3    H243676   5.675   2.052   4.480
 7421TIP3   OH243677   0.949   4.786  13.501
 7421TIP3    H143678   0.901   4.739  13.570
 7421TIP3    H243679   0.891   4.858  13.477
 7422TIP3   OH243680   0.075   3.429   5.356
 7422TIP3    H143681   0.052   3.378   5.278
 7422TIP3    H243682  -0.009   3.455   5.394
 7423TIP3   OH243683   4.819   3.594  11.667
 7423TIP3    H143684   4.910   3.624  11.669
 7423TIP3    H243685   4.768   3.674  11.649
 7424TIP3   OH243686   3.009   1.439  11.806
 7424TIP3    H143687   2.979   1.436  11.897
 7424TIP3    H243688   3.028   1.347  11.784
 7425TIP3   OH243689   0.307   3.655   0.039
 7425TIP3    H143690   0.322   3.666  -0.055
 7425TIP3    H243691   0.215   3.677   0.051
 7426TIP3   OH243692   5.026   3.626   5.546
 7426TIP3    H143693   5.107   3.611   5.496
 7426TIP3    H243694   4.976   3.545   5.535
 7427TIP3   OH243695   4.513   6.309   2.258
 7427TIP3    H143696   4.423   6.297   2.229
 7427TIP3    H243697   4.524   6.404   2.265
 7428TIP3   OH243698   4.037   0.987   5.857
 7428TIP3    H143699   4.083   1.070   5.844
 7428TIP3    H243700   3.956   1.011   5.902
 7429TIP3   OH243701   0.039   4.106  14.908
 7429TIP3    H143702   0.070   4.048  14.978
 7429TIP3    H243703  -0.012   4.049  14.851
 7430TIP3   OH243704   1.934   2.315   4.707
 7430TIP3    H143705   1.980   2.260   4.644
 7430TIP3    H243706   1.860   2.351   4.659
 7431TIP3   OH243707   2.439   2.448  14.120
 7431TIP3    H143708   2.456   2.495  14.202
 7431TIP3    H243709   2.489   2.367  14.129
 7432TIP3   OH243710   1.522   6.316   4.393
 7432TIP3    H143711   1.556   6.242   4.343
 7432TIP3    H243712   1.598   6.373   4.404
 7433TIP3   OH243713   3.528   0.483   5.823
 7433TIP3    H143714   3.589   0.411   5.808
 7433TIP3    H243715   3.538   0.540   5.747
 7434TIP3   OH243716   1.489   2.390  14.748
 7434TIP3    H143717   1.524   2.319  14.694
 7434TIP3    H243718   1.565   2.429  14.790
 7435TIP3   OH243719   4.497   1.917   4.219
 7435TIP3    H143720   4.415   1.966   4.228
 7435TIP3    H243721   4.550   1.969   4.160
 7436TIP3   OH243722   6.261   3.162   3.919
 7436TIP3    H143723   6.246   3.243   3.969
 7436TIP3    H243724   6.176   3.141   3.881
 7437TIP3   OH243725   1.646   6.251   5.351
 7437TIP3    H143726   1.710   6.318   5.374
 7437TIP3    H243727   1.670   6.175   5.405
 7438TIP3   OH243728   2.263   0.526  15.245
 7438TIP3    H143729   2.228   0.537  15.333
 7438TIP3    H243730   2.321   0.601  15.232
 7439TIP3   OH243731   3.530   4.845  12.024
 7439TIP3    H143732   3.510   4.772  12.083
 7439TIP3    H243733   3.444   4.878  11.997
 7440TIP3   OH243734   5.240   3.468   6.527
 7440TIP3    H143735   5.181   3.393   6.533
 7440TIP3    H243736   5.311   3.447   6.587
 7441TIP3   OH243737   4.626   1.910   1.379
 7441TIP3    H143738   4.699   1.959   1.417
 7441TIP3    H243739   4.613   1.837   1.440
 7442TIP3   OH243740   0.341   1.940  13.738
 7442TIP3    H143741   0.354   1.884  13.815
 7442TIP3    H243742   0.288   2.013  13.770
 7443TIP3   OH243743   1.083   2.106   5.456
 7443TIP3    H143744   1.003   2.056   5.468
 7443TIP3    H243745   1.062   2.194   5.489
 7444TIP3   OH243746   2.124   3.760   3.324
 7444TIP3    H143747   2.145   3.705   3.399
 7444TIP3    H243748   2.109   3.847   3.362
 7445TIP3   OH243749   2.964   0.557   2.286
 7445TIP3    H143750   2.975   0.570   2.380
 7445TIP3    H243751   3.037   0.605   2.246
 7446TIP3   OH243752   5.534   0.420   1.149
 7446TIP3    H143753   5.584   0.433   1.230
 7446TIP3    H243754   5.538   0.325   1.134
 7447TIP3   OH243755   0.259   1.419  17.144
 7447TIP3    H143756   0.166   1.429  17.123
 7447TIP3    H243757   0.285   1.506  17.175
 7448TIP3   OH243758   4.622   4.037  12.186
 7448TIP3    H143759   4.707   3.992  12.189
 7448TIP3    H243760   4.616   4.070  12.096
 7449TIP3   OH243761   0.614   0.350   6.872
 7449TIP3    H143762   0.636   0.377   6.961
 7449TIP3    H243763   0.697   0.325   6.832
 7450TIP3   OH243764   1.082   0.554  16.916
 7450TIP3    H143765   1.108   0.464  16.936
 7450TIP3    H243766   1.148   0.585  16.855
 7451TIP3   OH243767   5.504   4.169  15.348
 7451TIP3    H143768   5.569   4.129  15.406
 7451TIP3    H243769   5.420   4.138  15.380
 7452TIP3   OH243770   0.834   5.982  15.558
 7452TIP3    H143771   0.777   5.977  15.481
 7452TIP3    H243772   0.845   6.076  15.574
 7453TIP3   OH243773   1.805   0.329   0.719
 7453TIP3    H143774   1.796   0.349   0.626
 7453TIP3    H243775   1.825   0.236   0.722
 7454TIP3   OH243776   0.497   5.569   1.041
 7454TIP3    H143777   0.409   5.565   1.077
 7454TIP3    H243778   0.529   5.656   1.066
 7455TIP3   OH243779   4.425   6.506  16.577
 7455TIP3    H143780   4.347   6.546  16.538
 7455TIP3    H243781   4.402   6.414  16.589
 7456TIP3   OH243782   4.895   3.166   1.496
 7456TIP3    H143783   4.812   3.119   1.506
 7456TIP3    H243784   4.945   3.144   1.574
 7457TIP3   OH243785   0.722   5.374  16.396
 7457TIP3    H143786   0.646   5.432  16.396
 7457TIP3    H243787   0.732   5.347  16.487
 7458TIP3   OH243788   5.455   1.032   4.316
 7458TIP3    H143789   5.404   0.965   4.272
 7458TIP3    H243790   5.492   1.086   4.246
 7459TIP3   OH243791   3.875   6.691   3.441
 7459TIP3    H143792   3.837   6.757   3.383
 7459TIP3    H243793   3.920   6.630   3.382
 7460TIP3   OH243794   4.188   0.778   3.728
 7460TIP3    H143795   4.259   0.713   3.725
 7460TIP3    H243796   4.122   0.738   3.785
 7461TIP3   OH243797   2.951   4.802  12.909
 7461TIP3    H143798   3.008   4.744  12.959
 7461TIP3    H243799   2.932   4.754  12.829
 7462TIP3   OH243800   0.537   1.567   2.280
 7462TIP3    H143801   0.469   1.570   2.348
 7462TIP3    H243802   0.546   1.658   2.253
 7463TIP3   OH243803   4.269   4.293   6.772
 7463TIP3    H143804   4.227   4.366   6.728
 7463TIP3    H243805   4.343   4.270   6.715
 7464TIP3   OH243806   5.829   4.553  14.086
 7464TIP3    H143807   5.752   4.591  14.129
 7464TIP3    H243808   5.865   4.491  14.150
 7465TIP3   OH243809   2.952   2.545   0.212
 7465TIP3    H143810   2.908   2.551   0.126
 7465TIP3    H243811   3.045   2.548   0.191
 7466TIP3   OH243812   4.734   0.447  11.989
 7466TIP3    H143813   4.790   0.518  11.957
 7466TIP3    H243814   4.788   0.369  11.982
 7467TIP3   OH243815   4.533   1.361  15.598
 7467TIP3    H143816   4.550   1.455  15.594
 7467TIP3    H243817   4.619   1.320  15.593
 7468TIP3   OH243818   2.322   1.141  14.550
 7468TIP3    H143819   2.319   1.051  14.583
 7468TIP3    H243820   2.317   1.131  14.455
 7469TIP3   OH243821   6.053   2.389  13.602
 7469TIP3    H143822   6.092   2.467  13.562
 7469TIP3    H243823   6.086   2.388  13.692
 7470TIP3   OH243824   0.745   5.041  15.679
 7470TIP3    H143825   0.805   5.100  15.632
 7470TIP3    H243826   0.688   5.100  15.728
 7471TIP3   OH243827   4.009   0.890   2.544
 7471TIP3    H143828   4.087   0.904   2.491
 7471TIP3    H243829   4.042   0.873   2.632
 7472TIP3   OH243830   6.120   1.638   0.746
 7472TIP3    H143831   6.056   1.701   0.713
 7472TIP3    H243832   6.205   1.681   0.733
 7473TIP3   OH243833   3.842   3.128  12.832
 7473TIP3    H143834   3.919   3.100  12.781
 7473TIP3    H243835   3.768   3.097  12.780
 7474TIP3   OH243836   5.036   0.762   0.814
 7474TIP3    H143837   4.977   0.689   0.794
 7474TIP3    H243838   5.124   0.724   0.811
 7475TIP3   OH243839   2.570   5.299  12.659
 7475TIP3    H143840   2.617   5.309  12.742
 7475TIP3    H243841   2.621   5.351  12.597
 7476TIP3   OH243842   1.722   1.193   2.646
 7476TIP3    H143843   1.811   1.178   2.679
 7476TIP3    H243844   1.676   1.232   2.720
 7477TIP3   OH243845   0.506   3.714  12.462
 7477TIP3    H143846   0.446   3.743  12.530
 7477TIP3    H243847   0.453   3.657  12.406
 7478TIP3   OH243848   2.442   0.339   5.752
 7478TIP3    H143849   2.359   0.346   5.706
 7478TIP3    H243850   2.423   0.284   5.828
 7479TIP3   OH243851   2.525   1.000   2.684
 7479TIP3    H143852   2.620   0.986   2.689
 7479TIP3    H243853   2.496   0.943   2.613
 7480TIP3   OH243854   4.430   1.412   3.171
 7480TIP3    H143855   4.396   1.338   3.121
 7480TIP3    H243856   4.386   1.405   3.256
 7481TIP3   OH243857   5.360   5.646   4.899
 7481TIP3    H143858   5.267   5.627   4.908
 7481TIP3    H243859   5.380   5.628   4.808
 7482TIP3   OH243860   2.863   6.645  16.207
 7482TIP3    H143861   2.912   6.651  16.289
 7482TIP3    H243862   2.861   6.552  16.186
 7483TIP3   OH243863   5.630   5.512  12.788
 7483TIP3    H143864   5.546   5.492  12.746
 7483TIP3    H243865   5.612   5.586  12.845
 7484TIP3   OH243866   3.214   2.346  15.319
 7484TIP3    H143867   3.120   2.336  15.303
 7484TIP3    H243868   3.255   2.290  15.253
 7485TIP3   OH243869   2.135   3.419   2.588
 7485TIP3    H143870   2.211   3.397   2.642
 7485TIP3    H243871   2.163   3.496   2.538
 7486TIP3   OH243872   3.768   4.332  12.810
 7486TIP3    H143873   3.798   4.392  12.742
 7486TIP3    H243874   3.819   4.357  12.888
 7487TIP3   OH243875   0.996   0.144  15.752
 7487TIP3    H143876   1.032   0.207  15.814
 7487TIP3    H243877   0.966   0.071  15.807
 7488TIP3   OH243878   2.731   0.949   5.579
 7488TIP3    H143879   2.686   0.865   5.581
 7488TIP3    H243880   2.665   1.010   5.546
 7489TIP3   OH243881   2.906   5.310   4.553
 7489TIP3    H143882   2.878   5.218   4.554
 7489TIP3    H243883   2.994   5.308   4.590
 7490TIP3   OH243884   3.404   2.401   2.643
 7490TIP3    H143885   3.448   2.321   2.614
 7490TIP3    H243886   3.457   2.432   2.717
 7491TIP3   OH243887   5.760   1.009   4.534
 7491TIP3    H143888   5.756   1.030   4.440
 7491TIP3    H243889   5.849   0.975   4.546
 7492TIP3   OH243890   0.792   3.605   0.294
 7492TIP3    H143891   0.748   3.575   0.215
 7492TIP3    H243892   0.844   3.681   0.265
 7493TIP3   OH243893   0.165   0.025  11.710
 7493TIP3    H143894   0.186  -0.028  11.787
 7493TIP3    H243895   0.101   0.089  11.742
 7494TIP3   OH243896   0.317   3.787   4.620
 7494TIP3    H143897   0.307   3.698   4.587
 7494TIP3    H243898   0.411   3.802   4.622
 7495TIP3   OH243899   2.964   2.253   5.382
 7495TIP3    H143900   2.978   2.165   5.348
 7495TIP3    H243901   2.906   2.295   5.318
 7496TIP3   OH243902   4.274   5.864   0.729
 7496TIP3    H143903   4.261   5.958   0.722
 7496TIP3    H243904   4.333   5.853   0.804
 7497TIP3   OH243905   5.102   0.975  16.427
 7497TIP3    H143906   5.145   1.009  16.349
 7497TIP3    H243907   5.097   1.050  16.486
 7498TIP3   OH243908   5.781   4.054  13.578
 7498TIP3    H143909   5.798   4.144  13.552
 7498TIP3    H243910   5.712   4.024  13.518
 7499TIP3   OH243911   4.225   0.334  13.539
 7499TIP3    H143912   4.234   0.378  13.624
 7499TIP3    H243913   4.216   0.406  13.476
 7500TIP3   OH243914   6.480   0.043  13.582
 7500TIP3    H143915   6.426   0.120  13.600
 7500TIP3    H243916   6.502   0.051  13.489
 7501TIP3   OH243917   6.733   5.385  16.923
 7501TIP3    H143918   6.797   5.318  16.945
 7501TIP3    H243919   6.725   5.382  16.828
 7502TIP3   OH243920   0.297   2.168  14.255
 7502TIP3    H143921   0.327   2.100  14.195
 7502TIP3    H243922   0.377   2.211  14.285
 7503TIP3   OH243923   5.284   4.184  12.420
 7503TIP3    H143924   5.305   4.107  12.368
 7503TIP3    H243925   5.370   4.217  12.449
 7504TIP3   OH243926   1.445   6.539  12.444
 7504TIP3    H143927   1.366   6.588  12.467
 7504TIP3    H243928   1.455   6.476  12.515
 7505TIP3   OH243929   1.933   6.273   5.518
 7505TIP3    H143930   2.000   6.224   5.566
 7505TIP3    H243931   1.852   6.256   5.565
 7506TIP3   OH243932   3.276   3.811  15.164
 7506TIP3    H143933   3.327   3.737  15.199
 7506TIP3    H243934   3.188   3.775  15.151
 7507TIP3   OH243935   4.250   1.101  16.201
 7507TIP3    H143936   4.211   1.109  16.114
 7507TIP3    H243937   4.328   1.047  16.188
 7508TIP3   OH243938   4.045   2.270   6.226
 7508TIP3    H143939   4.089   2.280   6.310
 7508TIP3    H243940   4.057   2.178   6.203
 7509TIP3   OH243941   2.818   1.800   4.827
 7509TIP3    H143942   2.908   1.802   4.796
 7509TIP3    H243943   2.767   1.776   4.749
 7510TIP3   OH243944   4.936   2.336  14.002
 7510TIP3    H143945   4.894   2.288  13.930
 7510TIP3    H243946   5.029   2.336  13.979
 7511TIP3   OH243947   2.072   5.105   4.461
 7511TIP3    H143948   1.981   5.092   4.488
 7511TIP3    H243949   2.117   5.127   4.543
 7512TIP3   OH243950   3.383   6.775   3.003
 7512TIP3    H143951   3.317   6.819   3.057
 7512TIP3    H243952   3.434   6.724   3.066
 7513TIP3   OH243953   3.879   1.537  11.546
 7513TIP3    H143954   3.863   1.488  11.626
 7513TIP3    H243955   3.899   1.626  11.575
 7514TIP3   OH243956   4.324   6.233   2.073
 7514TIP3    H143957   4.293   6.260   1.987
 7514TIP3    H243958   4.378   6.156   2.056
 7515TIP3   OH243959   6.154   1.441   4.260
 7515TIP3    H143960   6.207   1.364   4.238
 7515TIP3    H243961   6.167   1.451   4.355
 7516TIP3   OH243962   2.216   5.343  12.129
 7516TIP3    H143963   2.174   5.330  12.044
 7516TIP3    H243964   2.254   5.431  12.124
 7517TIP3   OH243965   1.473   5.677  12.853
 7517TIP3    H143966   1.497   5.588  12.827
 7517TIP3    H243967   1.429   5.666  12.937
 7518TIP3   OH243968   4.157   1.260   4.926
 7518TIP3    H143969   4.237   1.211   4.946
 7518TIP3    H243970   4.153   1.328   4.992
 7519TIP3   OH243971   3.649   3.643  12.617
 7519TIP3    H143972   3.664   3.607  12.529
 7519TIP3    H243973   3.711   3.596  12.672
 7520TIP3   OH243974   6.310   3.942   4.148
 7520TIP3    H143975   6.241   3.888   4.111
 7520TIP3    H243976   6.328   3.902   4.234
 7521TIP3   OH243977   6.730   1.678   1.642
 7521TIP3    H143978   6.730   1.697   1.549
 7521TIP3    H243979   6.668   1.606   1.652
 7522TIP3   OH243980   1.301   3.907   0.367
 7522TIP3    H143981   1.347   3.843   0.312
 7522TIP3    H243982   1.306   3.869   0.455
 7523TIP3   OH243983   4.449   2.593  16.717
 7523TIP3    H143984   4.531   2.544  16.706
 7523TIP3    H243985   4.438   2.641  16.635
 7524TIP3   OH243986   4.173   5.208   3.857
 7524TIP3    H143987   4.168   5.221   3.951
 7524TIP3    H243988   4.260   5.172   3.841
 7525TIP3   OH243989   1.974   5.656   4.940
 7525TIP3    H143990   1.977   5.625   5.030
 7525TIP3    H243991   1.946   5.747   4.947
 7526TIP3   OH243992   0.149   3.631   3.561
 7526TIP3    H143993   0.063   3.665   3.584
 7526TIP3    H243994   0.136   3.536   3.554
 7527TIP3   OH243995   4.441   1.197   0.043
 7527TIP3    H143996   4.532   1.168   0.054
 7527TIP3    H243997   4.430   1.204  -0.052
 7528TIP3   OH243998   3.933   6.022  11.730
 7528TIP3    H143999   3.850   6.008  11.686
 7528TIP3    H244000   3.937   5.952  11.795
 7529TIP3   OH244001   6.137   1.465  11.719
 7529TIP3    H144002   6.177   1.550  11.739
 7529TIP3    H244003   6.136   1.419  11.803
 7530TIP3   OH244004   2.055   0.250  15.784
 7530TIP3    H144005   2.142   0.214  15.804
 7530TIP3    H244006   2.007   0.243  15.866
 7531TIP3   OH244007   2.149   3.918  14.503
 7531TIP3    H144008   2.190   3.839  14.538
 7531TIP3    H244009   2.079   3.938  14.565
 7532TIP3   OH244010   2.018   0.939   3.098
 7532TIP3    H144011   2.063   1.024   3.102
 7532TIP3    H244012   1.960   0.939   3.174
 7533TIP3   OH244013   2.603   3.063   3.850
 7533TIP3    H144014   2.594   2.977   3.890
 7533TIP3    H244015   2.688   3.061   3.807
 7534TIP3   OH244016   3.814   2.947   5.249
 7534TIP3    H144017   3.804   2.977   5.339
 7534TIP3    H244018   3.754   3.001   5.199
 7535TIP3   OH244019   6.392   2.764  12.283
 7535TIP3    H144020   6.304   2.786  12.254
 7535TIP3    H244021   6.433   2.849  12.301
 7536TIP3   OH244022   5.857   0.053   4.131
 7536TIP3    H144023   5.837   0.037   4.039
 7536TIP3    H244024   5.949   0.028   4.141
 7537TIP3   OH244025   6.562   4.798  11.758
 7537TIP3    H144026   6.597   4.803  11.669
 7537TIP3    H244027   6.496   4.867  11.762
 7538TIP3   OH244028   5.798   0.297   5.440
 7538TIP3    H144029   5.785   0.229   5.374
 7538TIP3    H244030   5.778   0.254   5.523
 7539TIP3   OH244031   1.290   5.335  12.568
 7539TIP3    H144032   1.317   5.334  12.477
 7539TIP3    H244033   1.194   5.328  12.565
 7540TIP3   OH244034   4.906   5.642  12.839
 7540TIP3    H144035   4.927   5.559  12.797
 7540TIP3    H244036   4.862   5.694  12.772
 7541TIP3   OH244037   6.135   3.713   0.742
 7541TIP3    H144038   6.214   3.661   0.754
 7541TIP3    H244039   6.090   3.709   0.827
 7542TIP3   OH244040   5.834   0.801  10.794
 7542TIP3    H144041   5.911   0.847  10.827
 7542TIP3    H244042   5.863   0.712  10.779
 7543TIP3   OH244043   5.286   5.985   1.170
 7543TIP3    H144044   5.366   5.958   1.215
 7543TIP3    H244045   5.296   5.952   1.081
 7544TIP3   OH244046   1.009   6.684   3.176
 7544TIP3    H144047   0.972   6.689   3.265
 7544TIP3    H244048   0.936   6.709   3.119
 7545TIP3   OH244049   1.386   4.514   1.232
 7545TIP3    H144050   1.469   4.485   1.271
 7545TIP3    H244051   1.351   4.435   1.191
 7546TIP3   OH244052   3.480   5.397   3.433
 7546TIP3    H144053   3.514   5.352   3.356
 7546TIP3    H244054   3.433   5.330   3.482
 7547TIP3   OH244055   6.463   1.207  11.266
 7547TIP3    H144056   6.374   1.173  11.259
 7547TIP3    H244057   6.472   1.265  11.190
 7548TIP3   OH244058   0.208   1.082  11.986
 7548TIP3    H144059   0.190   1.174  12.003
 7548TIP3    H244060   0.302   1.073  12.002
 7549TIP3   OH244061   6.447   4.185   0.190
 7549TIP3    H144062   6.429   4.099   0.227
 7549TIP3    H244063   6.378   4.199   0.126
 7550TIP3   OH244064   2.426   1.343  12.603
 7550TIP3    H144065   2.364   1.415  12.610
 7550TIP3    H244066   2.464   1.352  12.516
 7551TIP3   OH244067   2.631   6.604  11.491
 7551TIP3    H144068   2.615   6.606  11.396
 7551TIP3    H244069   2.637   6.696  11.516
 7552TIP3   OH244070   6.364   5.041   6.159
 7552TIP3    H144071   6.299   4.982   6.196
 7552TIP3    H244072   6.391   5.096   6.233
 7553TIP3   OH244073   0.642   4.214   5.881
 7553TIP3    H144074   0.630   4.170   5.965
 7553TIP3    H244075   0.578   4.173   5.823
 7554TIP3   OH244076   6.221   2.830   2.299
 7554TIP3    H144077   6.293   2.784   2.341
 7554TIP3    H244078   6.189   2.768   2.233
 7555TIP3   OH244079   3.272   1.128   5.622
 7555TIP3    H144080   3.282   1.089   5.535
 7555TIP3    H244081   3.254   1.220   5.605
 7556TIP3   OH244082   0.237   3.087   5.915
 7556TIP3    H144083   0.168   3.087   5.848
 7556TIP3    H244084   0.190   3.098   5.998
 7557TIP3   OH244085   3.056   5.545  16.506
 7557TIP3    H144086   2.960   5.551  16.507
 7557TIP3    H244087   3.085   5.635  16.497
 7558TIP3   OH244088   4.773   2.183   3.714
 7558TIP3    H144089   4.696   2.241   3.714
 7558TIP3    H244090   4.820   2.206   3.634
 7559TIP3   OH244091   4.620   3.297  16.122
 7559TIP3    H144092   4.712   3.326  16.122
 7559TIP3    H244093   4.621   3.214  16.075
 7560TIP3   OH244094   2.021   0.564   0.520
 7560TIP3    H144095   2.060   0.651   0.513
 7560TIP3    H244096   2.050   0.518   0.441
 7561TIP3   OH244097   4.647   6.741   3.630
 7561TIP3    H144098   4.713   6.687   3.672
 7561TIP3    H244099   4.564   6.714   3.670
 7562TIP3   OH244100   4.209   2.861   5.302
 7562TIP3    H144101   4.168   2.940   5.266
 7562TIP3    H244102   4.264   2.895   5.373
 7563TIP3   OH244103   5.083   1.390  16.349
 7563TIP3    H144104   5.108   1.379  16.441
 7563TIP3    H244105   5.053   1.481  16.343
 7564TIP3   OH244106   5.253   4.725   1.937
 7564TIP3    H144107   5.187   4.772   1.989
 7564TIP3    H244108   5.230   4.633   1.946
 7565TIP3   OH244109   3.801   3.615  11.856
 7565TIP3    H144110   3.845   3.680  11.802
 7565TIP3    H244111   3.738   3.574  11.797
 7566TIP3   OH244112   4.583   2.963   0.149
 7566TIP3    H144113   4.551   2.903   0.082
 7566TIP3    H244114   4.659   3.005   0.110
 7567TIP3   OH244115   3.042   0.896   5.431
 7567TIP3    H144116   2.982   0.829   5.466
 7567TIP3    H244117   2.986   0.955   5.381
 7568TIP3   OH244118   4.813   3.486  14.819
 7568TIP3    H144119   4.843   3.465  14.730
 7568TIP3    H244120   4.880   3.448  14.876
 7569TIP3   OH244121   5.932   5.500  16.198
 7569TIP3    H144122   5.972   5.458  16.274
 7569TIP3    H244123   6.000   5.497  16.130
 7570TIP3   OH244124   1.812   1.047   1.408
 7570TIP3    H144125   1.792   1.087   1.324
 7570TIP3    H244126   1.746   1.083   1.468
 7571TIP3   OH244127   0.255   4.720   0.180
 7571TIP3    H144128   0.188   4.747   0.117
 7571TIP3    H244129   0.206   4.687   0.255
 7572TIP3   OH244130   3.433   3.158   2.311
 7572TIP3    H144131   3.363   3.126   2.368
 7572TIP3    H244132   3.514   3.134   2.355
 7573TIP3   OH244133   4.390   0.382   1.833
 7573TIP3    H144134   4.337   0.439   1.776
 7573TIP3    H244135   4.361   0.294   1.812
 7574TIP3   OH244136   0.178   5.936  16.175
 7574TIP3    H144137   0.229   5.912  16.252
 7574TIP3    H244138   0.098   5.976  16.210
 7575TIP3   OH244139   5.094   6.171   1.118
 7575TIP3    H144140   5.045   6.110   1.064
 7575TIP3    H244141   5.175   6.125   1.140
 7576TIP3   OH244142   4.874   6.138   4.702
 7576TIP3    H144143   4.919   6.109   4.781
 7576TIP3    H244144   4.798   6.187   4.735
 7577TIP3   OH244145   5.934   1.429  13.341
 7577TIP3    H144146   5.960   1.446  13.250
 7577TIP3    H244147   5.998   1.477  13.394
 7578TIP3   OH244148   4.250   1.680  12.809
 7578TIP3    H144149   4.301   1.759  12.789
 7578TIP3    H244150   4.270   1.620  12.737
 7579TIP3   OH244151   5.571   1.210   4.492
 7579TIP3    H144152   5.659   1.237   4.465
 7579TIP3    H244153   5.555   1.129   4.444
 7580TIP3   OH244154   4.210   3.832  13.047
 7580TIP3    H144155   4.243   3.746  13.076
 7580TIP3    H244156   4.138   3.851  13.106
 7581TIP3   OH244157   0.708   6.235   5.610
 7581TIP3    H144158   0.770   6.164   5.598
 7581TIP3    H244159   0.709   6.252   5.704
 7582TIP3   OH244160   4.581   4.446  14.777
 7582TIP3    H144161   4.561   4.353  14.792
 7582TIP3    H244162   4.592   4.482  14.865
 7583TIP3   OH244163   6.660   6.229   0.468
 7583TIP3    H144164   6.743   6.233   0.516
 7583TIP3    H244165   6.612   6.306   0.498
 7584TIP3   OH244166   4.405   2.570  11.868
 7584TIP3    H144167   4.400   2.644  11.928
 7584TIP3    H244168   4.352   2.596  11.793
 7585TIP3   OH244169   1.958   4.048   2.999
 7585TIP3    H144170   2.000   4.056   3.084
 7585TIP3    H244171   1.989   4.124   2.949
 7586TIP3   OH244172   3.566   6.336  11.766
 7586TIP3    H144173   3.649   6.332  11.813
 7586TIP3    H244174   3.581   6.398  11.695
 7587TIP3   OH244175   3.093   3.743  15.566
 7587TIP3    H144176   3.186   3.759  15.551
 7587TIP3    H244177   3.069   3.678  15.500
 7588TIP3   OH244178   5.655   5.630  15.662
 7588TIP3    H144179   5.588   5.585  15.713
 7588TIP3    H244180   5.612   5.652  15.579
 7589TIP3   OH244181   1.584   0.816  12.977
 7589TIP3    H144182   1.596   0.852  12.889
 7589TIP3    H244183   1.583   0.721  12.964
 7590TIP3   OH244184   3.455   5.398   6.222
 7590TIP3    H144185   3.420   5.316   6.187
 7590TIP3    H244186   3.427   5.465   6.159
 7591TIP3   OH244187   6.144   2.070  11.945
 7591TIP3    H144188   6.057   2.035  11.927
 7591TIP3    H244189   6.195   1.994  11.974
 7592TIP3   OH244190   0.017   3.971   0.190
 7592TIP3    H144191  -0.062   4.023   0.180
 7592TIP3    H244192   0.006   3.926   0.274
 7593TIP3   OH244193   5.422   1.104   3.663
 7593TIP3    H144194   5.496   1.109   3.602
 7593TIP3    H244195   5.357   1.050   3.618
 7594TIP3   OH244196   5.110   3.256   6.293
 7594TIP3    H144197   5.069   3.208   6.222
 7594TIP3    H244198   5.038   3.287   6.347
 7595TIP3   OH244199   2.294   3.550  11.606
 7595TIP3    H144200   2.238   3.627  11.608
 7595TIP3    H244201   2.311   3.535  11.513
 7596TIP3   OH244202   3.736   4.480   2.350
 7596TIP3    H144203   3.741   4.427   2.270
 7596TIP3    H244204   3.788   4.432   2.414
 7597TIP3   OH244205   6.677   5.278   3.044
 7597TIP3    H144206   6.581   5.277   3.044
 7597TIP3    H244207   6.700   5.352   3.101
 7598TIP3   OH244208   0.758   6.151  12.418
 7598TIP3    H144209   0.742   6.164  12.511
 7598TIP3    H244210   0.789   6.060  12.412
 7599TIP3   OH244211   0.217   3.704   3.278
 7599TIP3    H144212   0.202   3.614   3.249
 7599TIP3    H244213   0.162   3.713   3.356
 7600TIP3   OH244214   1.007   4.491   2.636
 7600TIP3    H144215   1.092   4.477   2.678
 7600TIP3    H244216   0.971   4.568   2.679
 7601TIP3   OH244217   3.118   4.497   1.069
 7601TIP3    H144218   3.170   4.464   0.996
 7601TIP3    H244219   3.140   4.441   1.143
 7602TIP3   OH244220   5.933   6.040   1.821
 7602TIP3    H144221   5.911   6.113   1.763
 7602TIP3    H244222   5.848   6.007   1.851
 7603TIP3   OH244223   3.133   5.973  12.791
 7603TIP3    H144224   3.072   5.907  12.758
 7603TIP3    H244225   3.206   5.972  12.729
 7604TIP3   OH244226   5.281   0.160  12.545
 7604TIP3    H144227   5.353   0.220  12.524
 7604TIP3    H244228   5.274   0.164  12.641
 7605TIP3   OH244229   0.108   0.757  14.266
 7605TIP3    H144230   0.061   0.840  14.252
 7605TIP3    H244231   0.040   0.697  14.298
 7606TIP3   OH244232   1.680   4.170   5.392
 7606TIP3    H144233   1.665   4.079   5.415
 7606TIP3    H244234   1.592   4.206   5.376
 7607TIP3   OH244235   4.262   3.640   5.529
 7607TIP3    H144236   4.299   3.553   5.512
 7607TIP3    H244237   4.332   3.700   5.504
 7608TIP3   OH244238   3.627   4.400   5.697
 7608TIP3    H144239   3.608   4.320   5.648
 7608TIP3    H244240   3.716   4.387   5.731
 7609TIP3   OH244241   1.779   3.370  11.786
 7609TIP3    H144242   1.813   3.294  11.834
 7609TIP3    H244243   1.849   3.394  11.726
 7610TIP3   OH244244   0.043   4.680  14.050
 7610TIP3    H144245  -0.046   4.657  14.074
 7610TIP3    H244246   0.098   4.623  14.104
 7611TIP3   OH244247   1.687   3.431   4.525
 7611TIP3    H144248   1.767   3.462   4.482
 7611TIP3    H244249   1.661   3.504   4.582
 7612TIP3   OH244250   0.618   3.936  11.347
 7612TIP3    H144251   0.712   3.924  11.363
 7612TIP3    H244252   0.594   4.011  11.402
 7613TIP3   OH244253   6.693   2.598   5.847
 7613TIP3    H144254   6.681   2.690   5.872
 7613TIP3    H244255   6.615   2.554   5.879
 7614TIP3   OH244256   0.519   6.253  16.355
 7614TIP3    H144257   0.586   6.233  16.291
 7614TIP3    H244258   0.482   6.337  16.326
 7615TIP3   OH244259   0.308   2.740   3.132
 7615TIP3    H144260   0.226   2.737   3.082
 7615TIP3    H244261   0.324   2.650   3.158
 7616TIP3   OH244262   0.768   2.035  17.018
 7616TIP3    H144263   0.724   1.997  17.094
 7616TIP3    H244264   0.737   1.982  16.944
 7617TIP3   OH244265   6.397   2.718   3.930
 7617TIP3    H144266   6.433   2.648   3.876
 7617TIP3    H244267   6.345   2.772   3.869
 7618TIP3   OH244268   1.141   0.295   2.689
 7618TIP3    H144269   1.123   0.248   2.771
 7618TIP3    H244270   1.225   0.338   2.704
 7619TIP3   OH244271   5.907   0.986   3.887
 7619TIP3    H144272   5.843   1.057   3.874
 7619TIP3    H244273   5.872   0.913   3.836
 7620TIP3   OH244274   2.536   1.664   6.473
 7620TIP3    H144275   2.566   1.711   6.396
 7620TIP3    H244276   2.447   1.695   6.488
 7621TIP3   OH244277   4.587   3.202   5.669
 7621TIP3    H144278   4.656   3.195   5.735
 7621TIP3    H244279   4.510   3.162   5.710
 7622TIP3   OH244280   0.966   4.886   1.593
 7622TIP3    H144281   0.930   4.864   1.508
 7622TIP3    H244282   0.924   4.825   1.654
 7623TIP3   OH244283   2.919   1.471   4.710
 7623TIP3    H144284   2.919   1.494   4.617
 7623TIP3    H244285   2.996   1.415   4.721
 7624TIP3   OH244286   2.701   4.173  14.023
 7624TIP3    H144287   2.753   4.238  14.071
 7624TIP3    H244288   2.641   4.226  13.970
 7625TIP3   OH244289   2.518   2.689  15.836
 7625TIP3    H144290   2.564   2.649  15.910
 7625TIP3    H244291   2.457   2.622  15.806
 7626TIP3   OH244292   1.341   6.352  11.903
 7626TIP3    H144293   1.314   6.318  11.988
 7626TIP3    H244294   1.432   6.323  11.892
 7627TIP3   OH244295   6.705   2.745  13.659
 7627TIP3    H144296   6.625   2.761  13.710
 7627TIP3    H244297   6.774   2.787  13.709
 7628TIP3   OH244298   5.455   0.661   5.289
 7628TIP3    H144299   5.421   0.627   5.207
 7628TIP3    H244300   5.547   0.682   5.270
 7629TIP3   OH244301   1.112   1.971  15.584
 7629TIP3    H144302   1.160   2.034  15.637
 7629TIP3    H244303   1.111   2.010  15.496
 7630TIP3   OH244304   2.330   4.919  12.933
 7630TIP3    H144305   2.389   4.935  12.859
 7630TIP3    H244306   2.385   4.876  12.998
 7631TIP3   OH244307   1.144   2.104  16.617
 7631TIP3    H144308   1.222   2.102  16.673
 7631TIP3    H244309   1.131   2.196  16.596
 7632TIP3   OH244310   4.809   2.679  11.971
 7632TIP3    H144311   4.775   2.720  12.051
 7632TIP3    H244312   4.836   2.753  11.916
 7633TIP3   OH244313   4.253   3.719  14.514
 7633TIP3    H144314   4.180   3.694  14.456
 7633TIP3    H244315   4.282   3.804  14.480
 7634TIP3   OH244316   1.489   1.376   4.600
 7634TIP3    H144317   1.545   1.331   4.538
 7634TIP3    H244318   1.442   1.441   4.548
 7635TIP3   OH244319   0.385   3.473  14.440
 7635TIP3    H144320   0.352   3.476  14.530
 7635TIP3    H244321   0.395   3.380  14.421
 7636TIP3   OH244322   1.118   4.979   0.318
 7636TIP3    H144323   1.142   5.072   0.317
 7636TIP3    H244324   1.099   4.960   0.410
 7637TIP3   OH244325   6.075   1.036  15.161
 7637TIP3    H144326   6.032   1.118  15.138
 7637TIP3    H244327   6.119   1.009  15.081
 7638TIP3   OH244328   3.226   6.163  12.439
 7638TIP3    H144329   3.316   6.132  12.443
 7638TIP3    H244330   3.234   6.258  12.434
 7639TIP3   OH244331   2.208   4.216   6.409
 7639TIP3    H144332   2.229   4.285   6.345
 7639TIP3    H244333   2.278   4.223   6.475
 7640TIP3   OH244334   5.106   0.141  13.006
 7640TIP3    H144335   5.091   0.051  13.036
 7640TIP3    H244336   5.022   0.185  13.019
 7641TIP3   OH244337   6.081   5.365   3.052
 7641TIP3    H144338   6.093   5.281   3.007
 7641TIP3    H244339   6.128   5.355   3.134
 7642TIP3   OH244340   1.587   1.976   3.482
 7642TIP3    H144341   1.503   1.997   3.442
 7642TIP3    H244342   1.631   1.920   3.418
 7643TIP3   OH244343   0.347   0.973   0.229
 7643TIP3    H144344   0.271   0.942   0.180
 7643TIP3    H244345   0.340   1.068   0.227
 7644TIP3   OH244346   0.074   3.776  14.857
 7644TIP3    H144347  -0.020   3.793  14.853
 7644TIP3    H244348   0.081   3.687  14.891
 7645TIP3   OH244349   2.468   5.687  16.599
 7645TIP3    H144350   2.419   5.609  16.573
 7645TIP3    H244351   2.500   5.666  16.687
 7646TIP3   OH244352   4.553   0.083  16.665
 7646TIP3    H144353   4.646   0.103  16.679
 7646TIP3    H244354   4.553   0.020  16.593
 7647TIP3   OH244355   1.826   1.117  10.996
 7647TIP3    H144356   1.866   1.069  10.923
 7647TIP3    H244357   1.797   1.200  10.957
 7648TIP3   OH244358   3.714   3.987  11.095
 7648TIP3    H144359   3.699   3.987  11.001
 7648TIP3    H244360   3.666   3.911  11.127
 7649TIP3   OH244361   0.090   6.535   4.860
 7649TIP3    H144362   0.064   6.595   4.790
 7649TIP3    H244363   0.023   6.467   4.860
 7650TIP3   OH244364   4.102   4.930   6.164
 7650TIP3    H144365   4.023   4.983   6.181
 7650TIP3    H244366   4.148   4.929   6.248
 7651TIP3   OH244367   5.067   3.632   5.853
 7651TIP3    H144368   5.072   3.597   5.764
 7651TIP3    H244369   5.114   3.567   5.906
 7652TIP3   OH244370   1.280   3.059  16.101
 7652TIP3    H144371   1.294   3.092  16.190
 7652TIP3    H244372   1.192   3.021  16.104
 7653TIP3   OH244373   0.789   0.909   5.144
 7653TIP3    H144374   0.801   0.924   5.238
 7653TIP3    H244375   0.705   0.950   5.124
 7654TIP3   OH244376   4.203   0.476   5.119
 7654TIP3    H144377   4.225   0.392   5.078
 7654TIP3    H244378   4.254   0.478   5.200
 7655TIP3   OH244379   3.458   6.402   1.007
 7655TIP3    H144380   3.447   6.363   0.921
 7655TIP3    H244381   3.511   6.340   1.056
 7656TIP3   OH244382   2.942   5.709   6.711
 7656TIP3    H144383   2.992   5.696   6.631
 7656TIP3    H244384   2.854   5.678   6.690
 7657TIP3   OH244385   4.052   3.864  14.101
 7657TIP3    H144386   3.966   3.851  14.060
 7657TIP3    H244387   4.036   3.928  14.171
 7658TIP3   OH244388   4.758   4.331   5.882
 7658TIP3    H144389   4.829   4.323   5.818
 7658TIP3    H244390   4.769   4.255   5.939
 7659TIP3   OH244391   0.771   3.174   3.684
 7659TIP3    H144392   0.816   3.166   3.768
 7659TIP3    H244393   0.719   3.254   3.692
 7660TIP3   OH244394   3.776   0.859   5.307
 7660TIP3    H144395   3.806   0.774   5.273
 7660TIP3    H244396   3.686   0.867   5.276
 7661TIP3   OH244397   3.000   3.683   5.203
 7661TIP3    H144398   3.054   3.702   5.280
 7661TIP3    H244399   2.910   3.682   5.237
 7662TIP3   OH244400   3.400   0.380  10.351
 7662TIP3    H144401   3.325   0.419  10.304
 7662TIP3    H244402   3.438   0.453  10.400
 7663TIP3   OH244403   5.137   1.482  14.068
 7663TIP3    H144404   5.156   1.391  14.091
 7663TIP3    H244405   5.171   1.492  13.979
 7664TIP3   OH244406   0.732   5.877  12.049
 7664TIP3    H144407   0.764   5.795  12.087
 7664TIP3    H244408   0.657   5.901  12.104
 7665TIP3   OH244409   4.517   5.219  16.983
 7665TIP3    H144410   4.519   5.241  17.076
 7665TIP3    H244411   4.490   5.300  16.940
 7666TIP3   OH244412   6.647   2.534   2.020
 7666TIP3    H144413   6.652   2.576   2.106
 7666TIP3    H244414   6.657   2.607   1.958
 7667TIP3   OH244415   2.053   0.064  14.644
 7667TIP3    H144416   2.098   0.147  14.662
 7667TIP3    H244417   1.986   0.087  14.580
 7668TIP3   OH244418   1.894   5.992   4.165
 7668TIP3    H144419   1.923   5.964   4.078
 7668TIP3    H244420   1.958   5.955   4.225
 7669TIP3   OH244421   0.736   1.956   0.643
 7669TIP3    H144422   0.826   1.966   0.674
 7669TIP3    H244423   0.743   1.893   0.570
 7670TIP3   OH244424   0.553   0.741   0.990
 7670TIP3    H144425   0.521   0.684   0.921
 7670TIP3    H244426   0.625   0.692   1.030
 7671TIP3   OH244427   1.035   1.315   6.033
 7671TIP3    H144428   0.970   1.382   6.056
 7671TIP3    H244429   0.987   1.233   6.035
 7672TIP3   OH244430   3.315   0.460  10.813
 7672TIP3    H144431   3.354   0.389  10.864
 7672TIP3    H244432   3.388   0.499  10.765
 7673TIP3   OH244433   2.070   5.563   3.788
 7673TIP3    H144434   2.017   5.489   3.818
 7673TIP3    H244435   2.160   5.538   3.806
 7674TIP3   OH244436   5.401   3.467  12.773
 7674TIP3    H144437   5.478   3.520  12.790
 7674TIP3    H244438   5.327   3.524  12.795
 7675TIP3   OH244439   2.978   3.042  14.692
 7675TIP3    H144440   2.939   3.019  14.607
 7675TIP3    H244441   2.998   2.958  14.733
 7676TIP3   OH244442   4.081   2.216  12.854
 7676TIP3    H144443   4.099   2.137  12.803
 7676TIP3    H244444   3.985   2.224  12.853
 7677TIP3   OH244445   1.285   4.897  11.410
 7677TIP3    H144446   1.272   4.955  11.335
 7677TIP3    H244447   1.225   4.929  11.477
 7678TIP3   OH244448   0.084   1.264  13.715
 7678TIP3    H144449   0.071   1.293  13.625
 7678TIP3    H244450   0.121   1.176  13.706
 7679TIP3   OH244451   3.296   3.940   0.020
 7679TIP3    H144452   3.224   3.985  -0.026
 7679TIP3    H244453   3.295   3.978   0.108
 7680TIP3   OH244454   6.012   5.365  12.784
 7680TIP3    H144455   5.969   5.419  12.718
 7680TIP3    H244456   6.074   5.311  12.735
 7681TIP3   OH244457   1.527   1.799   0.003
 7681TIP3    H144458   1.543   1.813  -0.090
 7681TIP3    H244459   1.480   1.716   0.007
 7682TIP3   OH244460   0.118   3.889   5.505
 7682TIP3    H144461   0.134   3.796   5.523
 7682TIP3    H244462   0.083   3.890   5.416
 7683TIP3   OH244463   0.627   4.557   0.856
 7683TIP3    H144464   0.612   4.462   0.852
 7683TIP3    H244465   0.715   4.566   0.891
 7684TIP3   OH244466   0.430   1.092  12.612
 7684TIP3    H144467   0.476   1.144  12.546
 7684TIP3    H244468   0.337   1.110  12.595
 7685TIP3   OH244469   4.675   6.248   1.004
 7685TIP3    H144470   4.598   6.273   1.056
 7685TIP3    H244471   4.718   6.331   0.983
 7686TIP3   OH244472   2.190   0.246  11.331
 7686TIP3    H144473   2.212   0.235  11.423
 7686TIP3    H244474   2.220   0.166  11.289
 7687TIP3   OH244475   0.798   6.753   3.911
 7687TIP3    H144476   0.735   6.688   3.941
 7687TIP3    H244477   0.765   6.782   3.827
 7688TIP3   OH244478   0.096   4.498  16.341
 7688TIP3    H144479   0.182   4.465  16.367
 7688TIP3    H244480   0.103   4.593  16.350
 7689TIP3   OH244481   1.390   4.836  12.855
 7689TIP3    H144482   1.419   4.751  12.888
 7689TIP3    H244483   1.298   4.842  12.883
 7690TIP3   OH244484   4.628   4.514   4.476
 7690TIP3    H144485   4.572   4.577   4.431
 7690TIP3    H244486   4.655   4.453   4.407
 7691TIP3   OH244487   1.776   2.904  13.190
 7691TIP3    H144488   1.870   2.909  13.169
 7691TIP3    H244489   1.733   2.955  13.121
 7692TIP3   OH244490   6.244   2.991  15.892
 7692TIP3    H144491   6.269   3.001  15.800
 7692TIP3    H244492   6.214   2.900  15.898
 7693TIP3   OH244493   4.004   1.535  16.518
 7693TIP3    H144494   3.991   1.441  16.503
 7693TIP3    H244495   3.951   1.578  16.452
 7694TIP3   OH244496   5.714   5.132  13.972
 7694TIP3    H144497   5.794   5.120  13.920
 7694TIP3    H244498   5.736   5.202  14.034
 7695TIP3   OH244499   5.914   1.282   4.621
 7695TIP3    H144500   5.904   1.366   4.577
 7695TIP3    H244501   6.009   1.271   4.630
 7696TIP3   OH244502   6.516   3.824  15.821
 7696TIP3    H144503   6.441   3.765  15.808
 7696TIP3    H244504   6.476   3.909  15.839
 7697TIP3   OH244505   6.575   4.858  13.872
 7697TIP3    H144506   6.496   4.822  13.832
 7697TIP3    H244507   6.575   4.823  13.961
 7698TIP3   OH244508   2.372   2.192  14.260
 7698TIP3    H144509   2.433   2.223  14.194
 7698TIP3    H244510   2.411   2.112  14.293
 7699TIP3   OH244511   4.040   0.226   1.914
 7699TIP3    H144512   4.030   0.320   1.926
 7699TIP3    H244513   4.005   0.209   1.826
 7700TIP3   OH244514   0.479   1.028  11.907
 7700TIP3    H144515   0.514   0.979  11.981
 7700TIP3    H244516   0.552   1.083  11.877
 7701TIP3   OH244517   5.134   5.506   1.274
 7701TIP3    H144518   5.169   5.444   1.338
 7701TIP3    H244519   5.077   5.453   1.218
 7702TIP3   OH244520   4.828   5.578  10.927
 7702TIP3    H144521   4.884   5.598  11.002
 7702TIP3    H244522   4.740   5.569  10.964
 7703TIP3   OH244523   5.849   2.459   3.093
 7703TIP3    H144524   5.773   2.443   3.148
 7703TIP3    H244525   5.914   2.497   3.151
 7704TIP3   OH244526   0.675   4.586   3.360
 7704TIP3    H144527   0.659   4.677   3.385
 7704TIP3    H244528   0.720   4.592   3.275
 7705TIP3   OH244529   1.929   6.091   4.591
 7705TIP3    H144530   1.928   6.137   4.508
 7705TIP3    H244531   2.014   6.115   4.631
 7706TIP3   OH244532   6.376   2.433  15.860
 7706TIP3    H144533   6.373   2.529  15.857
 7706TIP3    H244534   6.350   2.412  15.950
 7707TIP3   OH244535   4.752   4.011   5.954
 7707TIP3    H144536   4.817   4.061   6.004
 7707TIP3    H244537   4.775   3.919   5.970
 7708TIP3   OH244538   2.207   1.721   4.663
 7708TIP3    H144539   2.267   1.674   4.720
 7708TIP3    H244540   2.124   1.720   4.709
 7709TIP3   OH244541   2.352   4.937   1.611
 7709TIP3    H144542   2.299   4.980   1.543
 7709TIP3    H244543   2.345   4.995   1.687
 7710TIP3   OH244544   1.121   0.764  11.063
 7710TIP3    H144545   1.138   0.744  10.970
 7710TIP3    H244546   1.191   0.824  11.088
 7711TIP3   OH244547   5.609   4.602  11.227
 7711TIP3    H144548   5.559   4.565  11.155
 7711TIP3    H244549   5.587   4.549  11.303
 7712TIP3   OH244550   0.875   1.348  13.748
 7712TIP3    H144551   0.911   1.428  13.786
 7712TIP3    H244552   0.808   1.378  13.687
 7713TIP3   OH244553   4.579   0.383  13.071
 7713TIP3    H144554   4.553   0.390  13.163
 7713TIP3    H244555   4.532   0.453  13.026
 7714TIP3   OH244556   1.234   4.208  11.793
 7714TIP3    H144557   1.189   4.168  11.718
 7714TIP3    H244558   1.299   4.265  11.753
 7715TIP3   OH244559   6.076   1.917   2.556
 7715TIP3    H144560   6.123   1.962   2.486
 7715TIP3    H244561   5.986   1.951   2.550
 7716TIP3   OH244562   6.443   4.032  13.274
 7716TIP3    H144563   6.369   3.998  13.223
 7716TIP3    H244564   6.403   4.091  13.338
 7717TIP3   OH244565   6.471   1.487  13.792
 7717TIP3    H144566   6.468   1.579  13.819
 7717TIP3    H244567   6.410   1.482  13.718
 7718TIP3   OH244568   4.615   5.372  14.884
 7718TIP3    H144569   4.662   5.329  14.955
 7718TIP3    H244570   4.549   5.426  14.927
 7719TIP3   OH244571   0.795   4.903  14.468
 7719TIP3    H144572   0.731   4.944  14.411
 7719TIP3    H244573   0.765   4.812  14.477
 7720TIP3   OH244574   2.434   5.369  16.284
 7720TIP3    H144575   2.450   5.442  16.224
 7720TIP3    H244576   2.339   5.363  16.290
 7721TIP3   OH244577   6.521   0.867   1.915
 7721TIP3    H144578   6.531   0.905   2.003
 7721TIP3    H244579   6.592   0.905   1.864
 7722TIP3   OH244580   1.456   0.978  17.030
 7722TIP3    H144581   1.541   0.934  17.032
 7722TIP3    H244582   1.394   0.913  17.062
 7723TIP3   OH244583   2.991   1.672   5.687
 7723TIP3    H144584   2.953   1.760   5.689
 7723TIP3    H244585   2.917   1.613   5.696
 7724TIP3   OH244586   4.676   1.844   0.210
 7724TIP3    H144587   4.700   1.884   0.293
 7724TIP3    H244588   4.667   1.917   0.149
 7725TIP3   OH244589   5.376   6.005  12.264
 7725TIP3    H144590   5.412   6.062  12.196
 7725TIP3    H244591   5.359   5.922  12.219
 7726TIP3   OH244592   1.818   5.366  11.336
 7726TIP3    H144593   1.792   5.325  11.418
 7726TIP3    H244594   1.848   5.294  11.281
 7727TIP3   OH244595   0.606   4.638  13.860
 7727TIP3    H144596   0.550   4.715  13.869
 7727TIP3    H244597   0.569   4.590  13.786
 7728TIP3   OH244598   0.906   4.392  12.687
 7728TIP3    H144599   0.822   4.357  12.718
 7728TIP3    H244600   0.943   4.322  12.633
 7729TIP3   OH244601   3.525   6.505  13.793
 7729TIP3    H144602   3.479   6.523  13.711
 7729TIP3    H244603   3.616   6.492  13.767
 7730TIP3   OH244604   1.869   5.296  16.196
 7730TIP3    H144605   1.897   5.248  16.118
 7730TIP3    H244606   1.878   5.234  16.268
 7731TIP3   OH244607   5.145   6.199  16.744
 7731TIP3    H144608   5.231   6.236  16.728
 7731TIP3    H244609   5.133   6.208  16.839
 7732TIP3   OH244610   6.056   4.151  17.117
 7732TIP3    H144611   6.018   4.153  17.029
 7732TIP3    H244612   6.021   4.072  17.157
 7733TIP3   OH244613   3.511   5.279  15.355
 7733TIP3    H144614   3.557   5.348  15.402
 7733TIP3    H244615   3.419   5.292  15.378
 7734TIP3   OH244616   3.661   4.070  11.938
 7734TIP3    H144617   3.654   4.032  11.851
 7734TIP3    H244618   3.730   4.020  11.981
 7735TIP3   OH244619   2.647   5.498  14.122
 7735TIP3    H144620   2.661   5.464  14.034
 7735TIP3    H244621   2.627   5.421  14.175
 7736TIP3   OH244622   6.314   2.993   1.696
 7736TIP3    H144623   6.387   2.976   1.756
 7736TIP3    H244624   6.237   2.997   1.752
 7737TIP3   OH244625   2.808   0.628   4.158
 7737TIP3    H144626   2.853   0.676   4.087
 7737TIP3    H244627   2.715   0.634   4.135
 7738TIP3   OH244628   4.803   2.681   2.937
 7738TIP3    H144629   4.818   2.658   3.029
 7738TIP3    H244630   4.710   2.705   2.934
 7739TIP3   OH244631   0.880   1.101   1.095
 7739TIP3    H144632   0.902   1.159   1.168
 7739TIP3    H244633   0.930   1.137   1.021
 7740TIP3   OH244634   3.983   5.772   1.172
 7740TIP3    H144635   3.966   5.862   1.145
 7740TIP3    H244636   3.915   5.753   1.236
 7741TIP3   OH244637   1.890   2.447  15.061
 7741TIP3    H144638   1.829   2.468  15.131
 7741TIP3    H244639   1.970   2.493  15.086
 7742TIP3   OH244640   5.822   3.314   5.549
 7742TIP3    H144641   5.806   3.394   5.599
 7742TIP3    H244642   5.885   3.340   5.482
 7743TIP3   OH244643   6.320   4.534  14.178
 7743TIP3    H144644   6.285   4.476  14.111
 7743TIP3    H244645   6.252   4.539  14.244
 7744TIP3   OH244646   3.289   2.456   3.981
 7744TIP3    H144647   3.353   2.417   4.040
 7744TIP3    H244648   3.215   2.480   4.037
 7745TIP3   OH244649   6.335   5.690  16.950
 7745TIP3    H144650   6.416   5.718  16.993
 7745TIP3    H244651   6.352   5.600  16.924
 7746TIP3   OH244652   0.364   6.566   6.067
 7746TIP3    H144653   0.292   6.503   6.065
 7746TIP3    H244654   0.405   6.551   6.152
 7747TIP3   OH244655   5.456   1.453   0.810
 7747TIP3    H144656   5.363   1.474   0.795
 7747TIP3    H244657   5.497   1.464   0.724
 7748TIP3   OH244658   0.758   2.780  11.029
 7748TIP3    H144659   0.756   2.722  11.105
 7748TIP3    H244660   0.720   2.729  10.958
 7749TIP3   OH244661   4.746   0.810  12.201
 7749TIP3    H144662   4.696   0.778  12.126
 7749TIP3    H244663   4.736   0.905  12.198
 7750TIP3   OH244664   2.699   2.119  15.337
 7750TIP3    H144665   2.682   2.050  15.400
 7750TIP3    H244666   2.632   2.185  15.355
 7751TIP3   OH244667   4.805   3.603   3.869
 7751TIP3    H144668   4.893   3.641   3.861
 7751TIP3    H244669   4.746   3.679   3.866
 7752TIP3   OH244670   6.219   3.947  13.179
 7752TIP3    H144671   6.142   3.986  13.221
 7752TIP3    H244672   6.211   3.972  13.087
 7753TIP3   OH244673   3.378   4.164   5.946
 7753TIP3    H144674   3.312   4.158   6.015
 7753TIP3    H244675   3.460   4.141   5.990
 7754TIP3   OH244676   4.943   1.595   3.681
 7754TIP3    H144677   5.011   1.570   3.618
 7754TIP3    H244678   4.861   1.565   3.643
 7755TIP3   OH244679   5.407   5.516  13.800
 7755TIP3    H144680   5.432   5.572  13.874
 7755TIP3    H244681   5.486   5.466  13.781
 7756TIP3   OH244682   6.338   3.126  13.438
 7756TIP3    H144683   6.375   3.096  13.355
 7756TIP3    H244684   6.270   3.063  13.460
 7757TIP3   OH244685   4.469   1.911  15.443
 7757TIP3    H144686   4.560   1.893  15.421
 7757TIP3    H244687   4.426   1.923  15.359
 7758TIP3   OH244688   6.117   6.194  12.132
 7758TIP3    H144689   6.178   6.121  12.140
 7758TIP3    H244690   6.092   6.196  12.040
 7759TIP3   OH244691   4.860   3.663  16.999
 7759TIP3    H144692   4.834   3.744  16.956
 7759TIP3    H244693   4.907   3.693  17.078
 7760TIP3   OH244694   5.039   6.697  13.285
 7760TIP3    H144695   4.945   6.684  13.269
 7760TIP3    H244696   5.049   6.791  13.294
 7761TIP3   OH244697   5.943   6.401  13.768
 7761TIP3    H144698   5.898   6.365  13.844
 7761TIP3    H244699   6.029   6.358  13.769
 7762TIP3   OH244700   1.457   2.084  16.619
 7762TIP3    H144701   1.434   2.151  16.555
 7762TIP3    H244702   1.492   2.133  16.694
 7763TIP3   OH244703   2.508   2.983   5.999
 7763TIP3    H144704   2.587   3.001   5.947
 7763TIP3    H244705   2.522   3.032   6.080
 7764TIP3   OH244706   5.618   1.611  16.280
 7764TIP3    H144707   5.537   1.615  16.332
 7764TIP3    H244708   5.680   1.667  16.326
 7765TIP3   OH244709   1.794   6.313  13.133
 7765TIP3    H144710   1.746   6.247  13.183
 7765TIP3    H244711   1.831   6.372  13.200
 7766TIP3   OH244712   2.796   6.279  17.042
 7766TIP3    H144713   2.712   6.234  17.034
 7766TIP3    H244714   2.775   6.365  17.078
 7767TIP3   OH244715   2.731   1.546   3.774
 7767TIP3    H144716   2.792   1.486   3.815
 7767TIP3    H244717   2.648   1.499   3.772
 7768TIP3   OH244718   5.579   3.030  14.563
 7768TIP3    H144719   5.601   3.049  14.654
 7768TIP3    H244720   5.529   2.948  14.566
 7769TIP3   OH244721   2.257   4.082  13.205
 7769TIP3    H144722   2.233   4.045  13.289
 7769TIP3    H244723   2.245   4.011  13.142
 7770TIP3   OH244724   4.873   5.012   6.708
 7770TIP3    H144725   4.859   5.068   6.632
 7770TIP3    H244726   4.848   5.066   6.783
 7771TIP3   OH244727   0.030   1.129  13.435
 7771TIP3    H144728   0.100   1.123  13.370
 7771TIP3    H244729   0.021   1.039  13.468
 7772TIP3   OH244730   0.431   5.461   2.718
 7772TIP3    H144731   0.486   5.415   2.655
 7772TIP3    H244732   0.399   5.393   2.777
 7773TIP3   OH244733   4.072   1.876   5.627
 7773TIP3    H144734   3.983   1.910   5.617
 7773TIP3    H244735   4.061   1.781   5.628
 7774TIP3   OH244736   4.037   1.868  14.988
 7774TIP3    H144737   4.057   1.810  14.915
 7774TIP3    H244738   4.101   1.938  14.981
 7775TIP3   OH244739   1.914   3.745  15.755
 7775TIP3    H144740   1.903   3.840  15.765
 7775TIP3    H244741   1.875   3.708  15.834
 7776TIP3   OH244742   3.320   3.749   5.786
 7776TIP3    H144743   3.346   3.724   5.875
 7776TIP3    H244744   3.232   3.786   5.797
 7777TIP3   OH244745   1.039   0.688  12.692
 7777TIP3    H144746   1.123   0.686  12.646
 7777TIP3    H244747   0.976   0.658  12.627
 7778TIP3   OH244748   5.421   0.876   2.415
 7778TIP3    H144749   5.423   0.796   2.363
 7778TIP3    H244750   5.331   0.881   2.448
 7779TIP3   OH244751   1.016   1.939   3.836
 7779TIP3    H144752   1.104   1.978   3.834
 7779TIP3    H244753   1.030   1.852   3.874
 7780TIP3   OH244754   6.108   3.275  15.388
 7780TIP3    H144755   6.035   3.216  15.408
 7780TIP3    H244756   6.081   3.360  15.425
 7781TIP3   OH244757   2.412   1.828   2.373
 7781TIP3    H144758   2.422   1.919   2.346
 7781TIP3    H244759   2.379   1.833   2.462
 7782TIP3   OH244760   2.530   0.369  13.735
 7782TIP3    H144761   2.529   0.309  13.810
 7782TIP3    H244762   2.439   0.369  13.704
 7783TIP3   OH244763   6.667   2.259   0.851
 7783TIP3    H144764   6.602   2.228   0.914
 7783TIP3    H244765   6.652   2.354   0.847
 7784TIP3   OH244766   2.941   1.254   3.196
 7784TIP3    H144767   2.899   1.168   3.197
 7784TIP3    H244768   2.889   1.308   3.255
 7785TIP3   OH244769   2.428   0.707  17.028
 7785TIP3    H144770   2.507   0.703  17.082
 7785TIP3    H244771   2.459   0.740  16.943
 7786TIP3   OH244772   6.019   0.291   3.529
 7786TIP3    H144773   5.931   0.327   3.517
 7786TIP3    H244774   6.076   0.367   3.526
 7787TIP3   OH244775   4.611   1.324   4.080
 7787TIP3    H144776   4.654   1.332   3.995
 7787TIP3    H244777   4.607   1.229   4.096
 7788TIP3   OH244778   0.421   0.542  11.673
 7788TIP3    H144779   0.490   0.488  11.712
 7788TIP3    H244780   0.361   0.560  11.745
 7789TIP3   OH244781   3.879   4.237  14.839
 7789TIP3    H144782   3.972   4.253  14.853
 7789TIP3    H244783   3.857   4.291  14.763
 7790TIP3   OH244784   4.313   6.538   0.030
 7790TIP3    H144785   4.398   6.521  -0.010
 7790TIP3    H244786   4.283   6.452   0.059
 7791TIP3   OH244787   3.071   4.729   4.611
 7791TIP3    H144788   3.081   4.652   4.666
 7791TIP3    H244789   2.979   4.731   4.587
 7792TIP3   OH244790   2.785   2.722   4.486
 7792TIP3    H144791   2.860   2.776   4.461
 7792TIP3    H244792   2.749   2.765   4.564
 7793TIP3   OH244793   5.281   2.586   5.983
 7793TIP3    H144794   5.345   2.657   5.980
 7793TIP3    H244795   5.297   2.543   6.067
 7794TIP3   OH244796   4.776   1.029   3.992
 7794TIP3    H144797   4.817   1.009   4.076
 7794TIP3    H244798   4.701   0.969   3.987
 7795TIP3   OH244799   4.019   3.782   4.760
 7795TIP3    H144800   4.105   3.744   4.778
 7795TIP3    H244801   4.020   3.867   4.804
 7796TIP3   OH244802   4.801   6.735  15.654
 7796TIP3    H144803   4.855   6.802  15.696
 7796TIP3    H244804   4.737   6.784  15.603
 7797TIP3   OH244805   0.631   1.608   1.113
 7797TIP3    H144806   0.586   1.580   1.193
 7797TIP3    H244807   0.601   1.697   1.099
 7798TIP3   OH244808   5.665   3.395   4.813
 7798TIP3    H144809   5.730   3.409   4.882
 7798TIP3    H244810   5.634   3.482   4.791
 7799TIP3   OH244811   4.078   2.236  13.388
 7799TIP3    H144812   4.096   2.255  13.296
 7799TIP3    H244813   4.100   2.317  13.434
 7800TIP3   OH244814   2.606   6.608   0.876
 7800TIP3    H144815   2.546   6.537   0.853
 7800TIP3    H244816   2.651   6.629   0.794
 7801TIP3   OH244817   3.768   3.536  14.170
 7801TIP3    H144818   3.811   3.469  14.116
 7801TIP3    H244819   3.703   3.575  14.111
 7802TIP3   OH244820   1.571   2.360  15.504
 7802TIP3    H144821   1.534   2.406  15.579
 7802TIP3    H244822   1.583   2.428  15.438
 7803TIP3   OH244823   1.184   2.996  11.663
 7803TIP3    H144824   1.265   3.032  11.627
 7803TIP3    H244825   1.144   3.069  11.710
 7804TIP3   OH244826   4.810   1.771  12.065
 7804TIP3    H144827   4.735   1.808  12.019
 7804TIP3    H244828   4.884   1.787  12.008
 7805TIP3   OH244829   1.974   2.006   5.634
 7805TIP3    H144830   1.963   2.080   5.574
 7805TIP3    H244831   1.922   2.030   5.711
 7806TIP3   OH244832   5.803   0.454   3.495
 7806TIP3    H144833   5.790   0.533   3.441
 7806TIP3    H244834   5.730   0.456   3.557
 7807TIP3   OH244835   3.189   2.311   2.476
 7807TIP3    H144836   3.154   2.355   2.399
 7807TIP3    H244837   3.255   2.372   2.510
 7808TIP3   OH244838   4.047   0.686   2.185
 7808TIP3    H144839   4.117   0.705   2.248
 7808TIP3    H244840   4.087   0.625   2.123
 7809TIP3   OH244841   3.364   6.638  14.096
 7809TIP3    H144842   3.414   6.588  14.032
 7809TIP3    H244843   3.335   6.574  14.160
 7810TIP3   OH244844   4.949   4.129   6.099
 7810TIP3    H144845   5.016   4.169   6.044
 7810TIP3    H244846   4.998   4.088   6.171
 7811TIP3   OH244847   0.903   1.921  16.646
 7811TIP3    H144848   0.959   1.998  16.656
 7811TIP3    H244849   0.820   1.955  16.614
 7812TIP3   OH244850   3.374   4.372  16.833
 7812TIP3    H144851   3.435   4.347  16.902
 7812TIP3    H244852   3.301   4.311  16.842
 7813TIP3   OH244853   4.804   1.986   5.108
 7813TIP3    H144854   4.817   2.041   5.185
 7813TIP3    H244855   4.881   2.001   5.054
 7814TIP3   OH244856   3.152   3.107  12.879
 7814TIP3    H144857   3.124   3.029  12.832
 7814TIP3    H244858   3.071   3.146  12.913
 7815TIP3   OH244859   6.214   0.910   3.742
 7815TIP3    H144860   6.277   0.864   3.687
 7815TIP3    H244861   6.130   0.872   3.719
 7816TIP3   OH244862   4.953   0.925   5.416
 7816TIP3    H144863   4.942   0.943   5.322
 7816TIP3    H244864   5.036   0.878   5.422
 7817TIP3   OH244865   2.037   5.695  14.717
 7817TIP3    H144866   1.956   5.744  14.734
 7817TIP3    H244867   2.079   5.686  14.802
 7818TIP3   OH244868   1.919   4.657  11.155
 7818TIP3    H144869   1.978   4.704  11.215
 7818TIP3    H244870   1.978   4.620  11.089
 7819TIP3   OH244871   0.715   4.717   1.109
 7819TIP3    H144872   0.685   4.656   1.177
 7819TIP3    H244873   0.804   4.690   1.090
 7820TIP3   OH244874   0.481   1.474   3.462
 7820TIP3    H144875   0.402   1.430   3.431
 7820TIP3    H244876   0.456   1.566   3.468
 7821TIP3   OH244877   6.395   6.680   4.066
 7821TIP3    H144878   6.386   6.775   4.062
 7821TIP3    H244879   6.485   6.663   4.039
 7822TIP3   OH244880   1.237   0.839   1.754
 7822TIP3    H144881   1.318   0.885   1.733
 7822TIP3    H244882   1.169   0.905   1.741
 7823TIP3   OH244883   4.663   6.314  11.139
 7823TIP3    H144884   4.739   6.356  11.099
 7823TIP3    H244885   4.652   6.359  11.223
 7824TIP3   OH244886   2.515   3.528   2.452
 7824TIP3    H144887   2.441   3.489   2.500
 7824TIP3    H244888   2.555   3.588   2.514
 7825TIP3   OH244889   0.578   4.520   1.254
 7825TIP3    H144890   0.497   4.510   1.304
 7825TIP3    H244891   0.631   4.445   1.281
 7826TIP3   OH244892   3.186   0.200  14.344
 7826TIP3    H144893   3.268   0.150  14.337
 7826TIP3    H244894   3.120   0.141  14.308
 7827TIP3   OH244895   3.985   1.603  15.818
 7827TIP3    H144896   3.916   1.553  15.862
 7827TIP3    H244897   3.941   1.641  15.742
 7828TIP3   OH244898   0.659   3.685   1.279
 7828TIP3    H144899   0.752   3.686   1.303
 7828TIP3    H244900   0.652   3.747   1.207
 7829TIP3   OH244901   6.168   6.241  13.718
 7829TIP3    H144902   6.228   6.200  13.780
 7829TIP3    H244903   6.104   6.173  13.698
 7830TIP3   OH244904   6.667   1.477  15.983
 7830TIP3    H144905   6.748   1.528  15.976
 7830TIP3    H244906   6.606   1.521  15.923
 7831TIP3   OH244907   2.528   2.739   0.263
 7831TIP3    H144908   2.538   2.669   0.328
 7831TIP3    H244909   2.450   2.787   0.291
 7832TIP3   OH244910   4.688   0.721  12.613
 7832TIP3    H144911   4.674   0.652  12.678
 7832TIP3    H244912   4.662   0.802  12.658
 7833TIP3   OH244913   0.119   6.354  13.670
 7833TIP3    H144914   0.039   6.396  13.639
 7833TIP3    H244915   0.096   6.261  13.677
 7834TIP3   OH244916   5.390   2.140  16.341
 7834TIP3    H144917   5.388   2.079  16.267
 7834TIP3    H244918   5.304   2.130  16.383
 7835TIP3   OH244919   5.861   1.750  16.289
 7835TIP3    H144920   5.884   1.662  16.258
 7835TIP3    H244921   5.918   1.764  16.365
 7836TIP3   OH244922   1.514   2.464  12.895
 7836TIP3    H144923   1.489   2.398  12.959
 7836TIP3    H244924   1.433   2.486  12.849
 7837TIP3   OH244925   2.350   4.898  11.728
 7837TIP3    H144926   2.392   4.852  11.655
 7837TIP3    H244927   2.264   4.922  11.694
 7838TIP3   OH244928   1.420   6.046  14.378
 7838TIP3    H144929   1.505   6.020  14.344
 7838TIP3    H244930   1.405   5.991  14.454
 7839TIP3   OH244931   0.536   3.231   3.171
 7839TIP3    H144932   0.493   3.301   3.121
 7839TIP3    H244933   0.614   3.273   3.208
 7840TIP3   OH244934   4.916   2.794   4.735
 7840TIP3    H144935   4.943   2.729   4.670
 7840TIP3    H244936   4.894   2.743   4.813
 7841TIP3   OH244937   3.472   0.719  13.937
 7841TIP3    H144938   3.472   0.785  14.006
 7841TIP3    H244939   3.383   0.682  13.940
 7842TIP3   OH244940   0.467   6.065  17.016
 7842TIP3    H144941   0.483   6.083  17.109
 7842TIP3    H244942   0.374   6.083  17.004
 7843TIP3   OH244943   4.909   1.048  11.075
 7843TIP3    H144944   4.869   1.065  10.990
 7843TIP3    H244945   4.994   1.008  11.054
 7844TIP3   OH244946   5.409   4.781  16.290
 7844TIP3    H144947   5.498   4.755  16.312
 7844TIP3    H244948   5.358   4.700  16.301
 7845TIP3   OH244949   5.138   4.393   3.654
 7845TIP3    H144950   5.224   4.368   3.619
 7845TIP3    H244951   5.094   4.309   3.670
 7846TIP3   OH244952   4.534   3.655   1.150
 7846TIP3    H144953   4.508   3.662   1.058
 7846TIP3    H244954   4.599   3.585   1.152
 7847TIP3   OH244955   4.203   4.469  17.037
 7847TIP3    H144956   4.255   4.408  16.984
 7847TIP3    H244957   4.243   4.555  17.021
 7848TIP3   OH244958   5.332   5.732   4.626
 7848TIP3    H144959   5.379   5.757   4.546
 7848TIP3    H244960   5.277   5.808   4.646
 7849TIP3   OH244961   0.404   2.023  13.180
 7849TIP3    H144962   0.399   2.070  13.263
 7849TIP3    H244963   0.361   1.939  13.198
 7850TIP3   OH244964   2.553   5.375   5.542
 7850TIP3    H144965   2.516   5.397   5.627
 7850TIP3    H244966   2.554   5.458   5.494
 7851TIP3   OH244967   5.207   4.036  17.173
 7851TIP3    H144968   5.245   4.124  17.172
 7851TIP3    H244969   5.180   4.023  17.264
 7852TIP3   OH244970   3.934   4.637   2.112
 7852TIP3    H144971   3.902   4.608   2.026
 7852TIP3    H244972   3.926   4.560   2.168
 7853TIP3   OH244973   1.454   1.899   3.725
 7853TIP3    H144974   1.500   1.951   3.659
 7853TIP3    H244975   1.417   1.826   3.676
 7854TIP3   OH244976   0.827   5.201   3.596
 7854TIP3    H144977   0.826   5.169   3.506
 7854TIP3    H244978   0.916   5.184   3.626
 7855TIP3   OH244979   3.640   1.611   4.135
 7855TIP3    H144980   3.593   1.527   4.135
 7855TIP3    H244981   3.581   1.671   4.089
 7856TIP3   OH244982   5.463   2.270  12.193
 7856TIP3    H144983   5.404   2.321  12.138
 7856TIP3    H244984   5.549   2.312  12.183
 7857TIP3   OH244985   2.205   4.862   3.547
 7857TIP3    H144986   2.269   4.881   3.478
 7857TIP3    H244987   2.252   4.805   3.608
 7858TIP3   OH244988   2.999   5.203  16.106
 7858TIP3    H144989   3.090   5.191  16.133
 7858TIP3    H244990   2.966   5.272  16.164
 7859TIP3   OH244991   0.619   0.856  13.864
 7859TIP3    H144992   0.641   0.799  13.789
 7859TIP3    H244993   0.613   0.796  13.938
 7860TIP3   OH244994   5.513   3.181   0.136
 7860TIP3    H144995   5.562   3.207   0.214
 7860TIP3    H244996   5.422   3.199   0.158
 7861TIP3   OH244997   0.991   2.405   1.270
 7861TIP3    H144998   0.958   2.495   1.274
 7861TIP3    H244999   0.964   2.366   1.353
 7862TIP3   OH245000   0.338   2.029  15.079
 7862TIP3    H145001   0.243   2.015  15.085
 7862TIP3    H245002   0.356   2.031  14.985
 7863TIP3   OH245003   3.028   6.082  15.662
 7863TIP3    H145004   3.074   6.068  15.579
 7863TIP3    H245005   3.051   6.006  15.715
 7864TIP3   OH245006   0.476   6.242  12.258
 7864TIP3    H145007   0.571   6.229  12.261
 7864TIP3    H245008   0.452   6.224  12.167
 7865TIP3   OH245009   3.238   1.347  11.114
 7865TIP3    H145010   3.194   1.329  11.031
 7865TIP3    H245011   3.225   1.440  11.129
 7866TIP3   OH245012   0.156   2.429   6.393
 7866TIP3    H145013   0.068   2.396   6.409
 7866TIP3    H245014   0.184   2.385   6.313
 7867TIP3   OH245015   4.659   4.612   1.835
 7867TIP3    H145016   4.693   4.592   1.748
 7867TIP3    H245017   4.705   4.551   1.893
 7868TIP3   OH245018   1.274   0.632  16.760
 7868TIP3    H145019   1.337   0.561  16.753
 7868TIP3    H245020   1.323   0.711  16.737
 7869TIP3   OH245021   2.810   1.891  14.582
 7869TIP3    H145022   2.805   1.852  14.669
 7869TIP3    H245023   2.903   1.909  14.569
 7870TIP3   OH245024   0.958   1.251   0.856
 7870TIP3    H145025   0.930   1.341   0.840
 7870TIP3    H245026   1.054   1.254   0.850
 7871TIP3   OH245027   2.841   1.742  12.541
 7871TIP3    H145028   2.750   1.713  12.549
 7871TIP3    H245029   2.841   1.801  12.465
 7872TIP3   OH245030   5.318   0.222   1.568
 7872TIP3    H145031   5.279   0.251   1.486
 7872TIP3    H245032   5.247   0.223   1.632
 7873TIP3   OH245033   6.308   0.759   2.320
 7873TIP3    H145034   6.360   0.791   2.246
 7873TIP3    H245035   6.222   0.799   2.308
 7874TIP3   OH245036   2.947   5.153   2.114
 7874TIP3    H145037   2.956   5.213   2.188
 7874TIP3    H245038   2.928   5.210   2.040
 7875TIP3   OH245039   4.713   0.748   3.848
 7875TIP3    H145040   4.731   0.656   3.868
 7875TIP3    H245041   4.671   0.782   3.927
 7876TIP3   OH245042   2.858   3.969  15.000
 7876TIP3    H145043   2.866   4.054  14.957
 7876TIP3    H245044   2.869   3.987  15.093
 7877TIP3   OH245045   1.218   4.661  17.223
 7877TIP3    H145046   1.293   4.647  17.166
 7877TIP3    H245047   1.142   4.634  17.171
 7878TIP3   OH245048   4.397   5.187  11.742
 7878TIP3    H145049   4.369   5.270  11.705
 7878TIP3    H245050   4.486   5.174  11.707
 7879TIP3   OH245051   2.625   4.915   1.504
 7879TIP3    H145052   2.555   4.953   1.557
 7879TIP3    H245053   2.631   4.824   1.534
 7880TIP3   OH245054   4.973   1.897   2.604
 7880TIP3    H145055   5.021   1.954   2.664
 7880TIP3    H245056   5.007   1.809   2.623
 7881TIP3   OH245057   2.457   3.559   0.717
 7881TIP3    H145058   2.384   3.515   0.674
 7881TIP3    H245059   2.468   3.513   0.800
 7882TIP3   OH245060   0.874   4.188  13.080
 7882TIP3    H145061   0.951   4.201  13.024
 7882TIP3    H245062   0.908   4.140  13.155
 7883TIP3   OH245063   6.429   2.126  16.503
 7883TIP3    H145064   6.499   2.178  16.544
 7883TIP3    H245065   6.365   2.112  16.573
 7884TIP3   OH245066   3.939   4.621  11.200
 7884TIP3    H145067   3.908   4.648  11.115
 7884TIP3    H245068   3.877   4.658  11.262
 7885TIP3   OH245069   1.074   1.092  11.184
 7885TIP3    H145070   1.049   1.003  11.209
 7885TIP3    H245071   1.026   1.148  11.246
 7886TIP3   OH245072   3.941   1.181   4.755
 7886TIP3    H145073   3.979   1.233   4.825
 7886TIP3    H245074   3.997   1.103   4.750
 7887TIP3   OH245075   1.686   1.792  11.827
 7887TIP3    H145076   1.594   1.819  11.825
 7887TIP3    H245077   1.692   1.736  11.905
 7888TIP3   OH245078   4.798   4.824  14.841
 7888TIP3    H145079   4.722   4.871  14.808
 7888TIP3    H245080   4.860   4.893  14.865
 7889TIP3   OH245081   1.301   1.278  13.874
 7889TIP3    H145082   1.352   1.220  13.817
 7889TIP3    H245083   1.367   1.324  13.926
 7890TIP3   OH245084   2.325   3.082   3.369
 7890TIP3    H145085   2.285   3.018   3.427
 7890TIP3    H245086   2.415   3.092   3.401
 7891TIP3   OH245087   4.149   6.541  16.585
 7891TIP3    H145088   4.076   6.521  16.644
 7891TIP3    H245089   4.151   6.636  16.580
 7892TIP3   OH245090   3.026   5.328   3.568
 7892TIP3    H145091   3.061   5.244   3.598
 7892TIP3    H245092   3.036   5.326   3.473
 7893TIP3   OH245093   5.166   5.418  13.938
 7893TIP3    H145094   5.119   5.501  13.948
 7893TIP3    H245095   5.250   5.444  13.899
 7894TIP3   OH245096   4.767   0.437   2.554
 7894TIP3    H145097   4.859   0.411   2.562
 7894TIP3    H245098   4.768   0.532   2.570
 7895TIP3   OH245099   5.282   0.066  13.939
 7895TIP3    H145100   5.319   0.143  13.981
 7895TIP3    H245101   5.231   0.023  14.007
 7896TIP3   OH245102   1.144   0.074   3.672
 7896TIP3    H145103   1.136   0.134   3.598
 7896TIP3    H245104   1.209   0.009   3.644
 7897TIP3   OH245105   0.162   6.065   1.987
 7897TIP3    H145106   0.069   6.085   1.982
 7897TIP3    H245107   0.206   6.140   1.948
 7898TIP3   OH245108   6.262   4.730  12.765
 7898TIP3    H145109   6.344   4.720  12.814
 7898TIP3    H245110   6.284   4.700  12.676
 7899TIP3   OH245111   5.611   3.221  15.691
 7899TIP3    H145112   5.644   3.147  15.740
 7899TIP3    H245113   5.530   3.189  15.651
 7900TIP3   OH245114   5.011   2.426  16.877
 7900TIP3    H145115   5.101   2.443  16.849
 7900TIP3    H245116   4.960   2.495  16.834
 7901TIP3   OH245117   1.981   4.616  12.107
 7901TIP3    H145118   2.022   4.697  12.135
 7901TIP3    H245119   2.029   4.591  12.028
 7902TIP3   OH245120   5.183   5.588   0.567
 7902TIP3    H145121   5.147   5.642   0.636
 7902TIP3    H245122   5.275   5.578   0.590
 7903TIP3   OH245123   1.888   4.521  14.468
 7903TIP3    H145124   1.976   4.557  14.456
 7903TIP3    H245125   1.901   4.426  14.471
 7904TIP3   OH245126   5.188   4.113  13.785
 7904TIP3    H145127   5.228   4.109  13.699
 7904TIP3    H245128   5.095   4.129  13.767
 7905TIP3   OH245129   5.842   0.568   3.958
 7905TIP3    H145130   5.839   0.474   3.977
 7905TIP3    H245131   5.762   0.604   3.997
 7906TIP3   OH245132   1.844   0.666  13.448
 7906TIP3    H145133   1.838   0.743  13.505
 7906TIP3    H245134   1.830   0.700  13.360
 7907TIP3   OH245135   3.238   3.353   3.700
 7907TIP3    H145136   3.271   3.296   3.770
 7907TIP3    H245137   3.246   3.442   3.736
 7908TIP3   OH245138   4.655   3.775  13.760
 7908TIP3    H145139   4.592   3.830  13.713
 7908TIP3    H245140   4.601   3.712  13.808
 7909TIP3   OH245141   4.287   1.131   5.688
 7909TIP3    H145142   4.258   1.193   5.755
 7909TIP3    H245143   4.353   1.078   5.733
 7910TIP3   OH245144   3.446   4.132  15.385
 7910TIP3    H145145   3.362   4.151  15.343
 7910TIP3    H245146   3.423   4.096  15.470
 7911TIP3   OH245147   2.184   1.424   4.280
 7911TIP3    H145148   2.154   1.473   4.356
 7911TIP3    H245149   2.279   1.421   4.288
 7912TIP3   OH245150   6.070   1.373   1.138
 7912TIP3    H145151   6.103   1.452   1.096
 7912TIP3    H245152   6.055   1.312   1.065
 7913TIP3   OH245153   0.861   2.758  15.969
 7913TIP3    H145154   0.876   2.694  15.899
 7913TIP3    H245155   0.766   2.770  15.969
 7914TIP3   OH245156   4.003   0.578  14.069
 7914TIP3    H145157   4.089   0.616  14.081
 7914TIP3    H245158   4.011   0.526  13.989
 7915TIP3   OH245159   3.901   0.211  11.229
 7915TIP3    H145160   3.835   0.154  11.267
 7915TIP3    H245161   3.860   0.245  11.149
 7916TIP3   OH245162   5.597   3.493   5.223
 7916TIP3    H145163   5.559   3.548   5.154
 7916TIP3    H245164   5.624   3.555   5.291
 7917TIP3   OH245165   5.651   6.144  11.498
 7917TIP3    H145166   5.734   6.181  11.468
 7917TIP3    H245167   5.585   6.210  11.477
 7918TIP3   OH245168   3.592   0.321   4.766
 7918TIP3    H145169   3.499   0.305   4.782
 7918TIP3    H245170   3.595   0.351   4.675
 7919TIP3   OH245171   6.155   6.094  15.871
 7919TIP3    H145172   6.221   6.155  15.839
 7919TIP3    H245173   6.204   6.014  15.892
 7920TIP3   OH245174   0.401   1.831  15.833
 7920TIP3    H145175   0.491   1.823  15.865
 7920TIP3    H245176   0.410   1.856  15.741
 7921TIP3   OH245177   5.896   6.049   3.243
 7921TIP3    H145178   5.804   6.060   3.270
 7921TIP3    H245179   5.930   5.981   3.300
 7922TIP3   OH245180   4.733   6.024  11.385
 7922TIP3    H145181   4.637   6.026  11.383
 7922TIP3    H245182   4.756   6.063  11.470
 7923TIP3   OH245183   6.587   4.438  12.794
 7923TIP3    H145184   6.554   4.503  12.856
 7923TIP3    H245185   6.655   4.392  12.843
 7924TIP3   OH245186   4.977   1.882   2.312
 7924TIP3    H145187   4.980   1.894   2.407
 7924TIP3    H245188   5.063   1.912   2.281
 7925TIP3   OH245189   2.609   1.970   2.834
 7925TIP3    H145190   2.552   1.907   2.878
 7925TIP3    H245191   2.685   1.919   2.807
 7926TIP3   OH245192   2.720   4.161  16.875
 7926TIP3    H145193   2.781   4.134  16.944
 7926TIP3    H245194   2.775   4.171  16.797
 7927TIP3   OH245195   5.881   3.560   1.616
 7927TIP3    H145196   5.806   3.516   1.576
 7927TIP3    H245197   5.928   3.599   1.542
 7928TIP3   OH245198   2.586   0.475  12.546
 7928TIP3    H145199   2.632   0.397  12.576
 7928TIP3    H245200   2.507   0.442  12.504
 7929TIP3   OH245201   5.311   2.919  10.973
 7929TIP3    H145202   5.373   2.872  10.917
 7929TIP3    H245203   5.316   3.010  10.942
 7930TIP3   OH245204   1.014   6.275   5.144
 7930TIP3    H145205   1.027   6.312   5.231
 7930TIP3    H245206   1.037   6.183   5.153
 7931TIP3   OH245207   2.557   3.591  16.425
 7931TIP3    H145208   2.566   3.687  16.427
 7931TIP3    H245209   2.503   3.571  16.501
 7932TIP3   OH245210   3.603   0.329  17.022
 7932TIP3    H145211   3.627   0.250  16.973
 7932TIP3    H245212   3.603   0.399  16.957
 7933TIP3   OH245213   5.196   4.375  12.128
 7933TIP3    H145214   5.171   4.282  12.131
 7933TIP3    H245215   5.291   4.374  12.120
 7934TIP3   OH245216   1.918   4.333  12.890
 7934TIP3    H145217   1.922   4.423  12.924
 7934TIP3    H245218   1.825   4.314  12.883
 7935TIP3   OH245219   5.461   4.377  13.133
 7935TIP3    H145220   5.412   4.456  13.111
 7935TIP3    H245221   5.549   4.394  13.100
 7936TIP3   OH245222   3.656   0.764   0.492
 7936TIP3    H145223   3.627   0.856   0.496
 7936TIP3    H245224   3.750   0.770   0.474
 7937TIP3   OH245225   1.612   2.128  17.019
 7937TIP3    H145226   1.550   2.115  17.091
 7937TIP3    H245227   1.686   2.174  17.059
 7938TIP3   OH245228   6.236   1.740  14.351
 7938TIP3    H145229   6.250   1.834  14.366
 7938TIP3    H245230   6.140   1.730  14.353
 7939TIP3   OH245231   6.616   5.182  12.335
 7939TIP3    H145232   6.663   5.219  12.261
 7939TIP3    H245233   6.533   5.229  12.337
 7940TIP3   OH245234   3.868   4.782  12.587
 7940TIP3    H145235   3.781   4.820  12.601
 7940TIP3    H245236   3.911   4.844  12.527
 7941TIP3   OH245237   0.714   5.457   0.377
 7941TIP3    H145238   0.700   5.441   0.284
 7941TIP3    H245239   0.634   5.427   0.420
 7942TIP3   OH245240   6.784   2.819  11.249
 7942TIP3    H145241   6.777   2.827  11.344
 7942TIP3    H245242   6.698   2.844  11.215
 7943TIP3   OH245243   3.590   2.331  14.321
 7943TIP3    H145244   3.566   2.380  14.242
 7943TIP3    H245245   3.573   2.392  14.393
 7944TIP3   OH245246   2.482   0.547   4.460
 7944TIP3    H145247   2.552   0.607   4.484
 7944TIP3    H245248   2.473   0.489   4.536
 7945TIP3   OH245249   1.434   2.773   5.259
 7945TIP3    H145250   1.522   2.736   5.270
 7945TIP3    H245251   1.400   2.732   5.180
 7946TIP3   OH245252   3.620   2.535   5.709
 7946TIP3    H145253   3.692   2.597   5.713
 7946TIP3    H245254   3.551   2.582   5.660
 7947TIP3   OH245255   4.580   4.637  14.975
 7947TIP3    H145256   4.657   4.651  14.921
 7947TIP3    H245257   4.600   4.680  15.058
 7948TIP3   OH245258   2.480   5.609  13.229
 7948TIP3    H145259   2.385   5.614  13.218
 7948TIP3    H245260   2.502   5.683  13.286
 7949TIP3   OH245261   0.429   6.248   0.952
 7949TIP3    H145262   0.381   6.224   0.873
 7949TIP3    H245263   0.519   6.223   0.934
 7950TIP3   OH245264   6.646   5.550   3.467
 7950TIP3    H145265   6.582   5.511   3.407
 7950TIP3    H245266   6.704   5.601   3.410
 7951TIP3   OH245267   0.152   3.877  13.323
 7951TIP3    H145268   0.131   3.823  13.248
 7951TIP3    H245269   0.093   3.847  13.392
 7952TIP3   OH245270   5.781   4.809   2.062
 7952TIP3    H145271   5.762   4.833   1.971
 7952TIP3    H245272   5.695   4.806   2.104
 7953TIP3   OH245273   2.362   3.805   3.602
 7953TIP3    H145274   2.311   3.879   3.635
 7953TIP3    H245275   2.435   3.845   3.555
 7954TIP3   OH245276   6.506   5.605   1.380
 7954TIP3    H145277   6.461   5.527   1.411
 7954TIP3    H245278   6.445   5.644   1.316
 7955TIP3   OH245279   1.508   2.028  15.049
 7955TIP3    H145280   1.587   1.978  15.027
 7955TIP3    H245281   1.539   2.103  15.100
 7956TIP3   OH245282   6.523   5.586   0.670
 7956TIP3    H145283   6.586   5.617   0.605
 7956TIP3    H245284   6.569   5.517   0.717
 7957TIP3   OH245285   1.552   4.319  14.082
 7957TIP3    H145286   1.624   4.377  14.107
 7957TIP3    H245287   1.585   4.271  14.006
 7958TIP3   OH245288   2.849   4.213  13.261
 7958TIP3    H145289   2.789   4.167  13.202
 7958TIP3    H245290   2.905   4.145  13.298
 7959TIP3   OH245291   4.630   1.242   4.729
 7959TIP3    H145292   4.628   1.146   4.723
 7959TIP3    H245293   4.680   1.269   4.652
 7960TIP3   OH245294   5.892   5.740  13.786
 7960TIP3    H145295   5.872   5.653  13.751
 7960TIP3    H245296   5.877   5.732  13.880
 7961TIP3   OH245297   1.880   4.254  16.774
 7961TIP3    H145298   1.836   4.325  16.727
 7961TIP3    H245299   1.863   4.177  16.721
 7962TIP3   OH245300   1.362   1.624  13.266
 7962TIP3    H145301   1.312   1.562  13.319
 7962TIP3    H245302   1.367   1.583  13.180
 7963TIP3   OH245303   4.930   1.790  15.555
 7963TIP3    H145304   4.935   1.856  15.625
 7963TIP3    H245305   4.995   1.819  15.491
 7964TIP3   OH245306   5.927   6.680  14.077
 7964TIP3    H145307   5.962   6.678  13.987
 7964TIP3    H245308   6.003   6.662  14.132
 7965TIP3   OH245309   6.179   2.537  15.598
 7965TIP3    H145310   6.240   2.508  15.530
 7965TIP3    H245311   6.176   2.465  15.661
 7966TIP3   OH245312   6.534   0.816   6.171
 7966TIP3    H145313   6.514   0.828   6.078
 7966TIP3    H245314   6.465   0.757   6.202
 7967TIP3   OH245315   2.306   5.618   4.794
 7967TIP3    H145316   2.249   5.543   4.781
 7967TIP3    H245317   2.332   5.612   4.887
 7968TIP3   OH245318   3.516   0.234  13.566
 7968TIP3    H145319   3.451   0.165  13.578
 7968TIP3    H245320   3.490   0.302  13.628
 7969TIP3   OH245321   6.474   6.767   0.771
 7969TIP3    H145322   6.409   6.724   0.716
 7969TIP3    H245323   6.550   6.709   0.769
 7970TIP3   OH245324   1.897   0.034  13.131
 7970TIP3    H145325   1.868   0.012  13.219
 7970TIP3    H245326   1.923  -0.050  13.093
 7971TIP3   OH245327   6.423   4.803  15.604
 7971TIP3    H145328   6.509   4.823  15.568
 7971TIP3    H245329   6.384   4.889  15.621
 7972TIP3   OH245330   3.021   5.241   2.416
 7972TIP3    H145331   3.025   5.147   2.398
 7972TIP3    H245332   3.074   5.282   2.348
 7973TIP3   OH245333   1.365   5.356   0.138
 7973TIP3    H145334   1.381   5.305   0.059
 7973TIP3    H245335   1.451   5.391   0.162
 7974TIP3   OH245336   1.628   0.900   3.583
 7974TIP3    H145337   1.582   0.984   3.577
 7974TIP3    H245338   1.650   0.890   3.676
 7975TIP3   OH245339   6.260   0.909  14.765
 7975TIP3    H145340   6.298   0.925  14.852
 7975TIP3    H245341   6.315   0.960  14.705
 7976TIP3   OH245342   2.346   1.667  17.224
 7976TIP3    H145343   2.292   1.621  17.289
 7976TIP3    H245344   2.430   1.680  17.267
 7977TIP3   OH245345   1.006   0.680   2.335
 7977TIP3    H145346   1.026   0.647   2.423
 7977TIP3    H245347   1.004   0.601   2.281
 7978TIP3   OH245348   4.775   6.599  14.235
 7978TIP3    H145349   4.744   6.649  14.310
 7978TIP3    H245350   4.740   6.646  14.159
 7979TIP3   OH245351   2.827   5.457  11.232
 7979TIP3    H145352   2.755   5.518  11.217
 7979TIP3    H245353   2.884   5.467  11.156
 7980TIP3   OH245354   6.488   5.050   1.457
 7980TIP3    H145355   6.496   5.080   1.366
 7980TIP3    H245356   6.536   5.114   1.508
 7981TIP3   OH245357   4.735   3.316  15.825
 7981TIP3    H145358   4.705   3.252  15.888
 7981TIP3    H245359   4.829   3.323  15.841
 7982TIP3   OH245360   5.179   1.172  14.634
 7982TIP3    H145361   5.193   1.105  14.567
 7982TIP3    H245362   5.102   1.220  14.603
 7983TIP3   OH245363   3.341   0.539  11.689
 7983TIP3    H145364   3.324   0.469  11.752
 7983TIP3    H245365   3.275   0.525  11.621
 7984TIP3   OH245366   3.459   1.907  16.208
 7984TIP3    H145367   3.445   1.999  16.189
 7984TIP3    H245368   3.553   1.898  16.222
 7985TIP3   OH245369   5.058   2.523  16.533
 7985TIP3    H145370   5.116   2.453  16.566
 7985TIP3    H245371   5.097   2.604  16.567
 7986TIP3   OH245372   2.981   0.677   1.750
 7986TIP3    H145373   2.893   0.641   1.746
 7986TIP3    H245374   3.026   0.640   1.674
 7987TIP3   OH245375   6.480   4.163   4.393
 7987TIP3    H145376   6.387   4.170   4.412
 7987TIP3    H245377   6.514   4.252   4.402
 7988TIP3   OH245378   4.491   5.791  15.243
 7988TIP3    H145379   4.513   5.762  15.331
 7988TIP3    H245380   4.477   5.885  15.251
 7989TIP3   OH245381   0.625   4.030  12.125
 7989TIP3    H145382   0.643   4.007  12.034
 7989TIP3    H245383   0.712   4.045  12.163
 7990TIP3   OH245384   2.165   4.125  13.836
 7990TIP3    H145385   2.193   4.039  13.802
 7990TIP3    H245386   2.190   4.187  13.767
 7991TIP3   OH245387   2.043   1.565   2.934
 7991TIP3    H145388   2.032   1.480   2.891
 7991TIP3    H245389   2.135   1.587   2.921
 7992TIP3   OH245390   0.103   6.315  12.048
 7992TIP3    H145391   0.104   6.333  12.142
 7992TIP3    H245392   0.021   6.353  12.017
 7993TIP3   OH245393   3.078   4.818   0.868
 7993TIP3    H145394   2.999   4.768   0.888
 7993TIP3    H245395   3.080   4.888   0.932
 7994TIP3   OH245396   0.862   4.962   2.609
 7994TIP3    H145397   0.777   4.995   2.579
 7994TIP3    H245398   0.923   4.988   2.541
 7995TIP3   OH245399   2.075   4.471  10.937
 7995TIP3    H145400   2.102   4.460  11.028
 7995TIP3    H245401   2.153   4.448  10.886
 7996TIP3   OH245402   3.102   4.213   4.951
 7996TIP3    H145403   3.139   4.289   4.996
 7996TIP3    H245404   3.053   4.166   5.018
 7997TIP3   OH245405   0.633   3.372  16.490
 7997TIP3    H145406   0.606   3.300  16.547
 7997TIP3    H245407   0.694   3.423  16.544
 7998TIP3   OH245408   0.910   5.414   5.680
 7998TIP3    H145409   0.981   5.409   5.744
 7998TIP3    H245410   0.915   5.332   5.632
 7999TIP3   OH245411   4.062   3.855  16.707
 7999TIP3    H145412   4.114   3.777  16.685
 7999TIP3    H245413   4.064   3.908  16.627
 8000TIP3   OH245414   2.910   3.003   1.811
 8000TIP3    H145415   2.915   2.911   1.784
 8000TIP3    H245416   3.001   3.032   1.811
 8001TIP3   OH245417   3.043   6.019   5.407
 8001TIP3    H145418   3.086   6.040   5.324
 8001TIP3    H245419   3.012   6.103   5.440
 8002TIP3   OH245420   4.758   0.052  16.318
 8002TIP3    H145421   4.775   0.130  16.370
 8002TIP3    H245422   4.845   0.017  16.297
 8003TIP3   OH245423   0.894   6.736  16.464
 8003TIP3    H145424   0.906   6.815  16.411
 8003TIP3    H245425   0.907   6.766  16.554
 8004TIP3   OH245426   3.480   6.221  14.075
 8004TIP3    H145427   3.390   6.188  14.073
 8004TIP3    H245428   3.500   6.230  14.168
 8005TIP3   OH245429   3.881   1.109  16.227
 8005TIP3    H145430   3.888   1.081  16.136
 8005TIP3    H245431   3.847   1.033  16.273
 8006TIP3   OH245432   6.145   2.778   5.896
 8006TIP3    H145433   6.109   2.845   5.838
 8006TIP3    H245434   6.082   2.771   5.967
 8007TIP3   OH245435   2.146   1.607  16.772
 8007TIP3    H145436   2.091   1.612  16.695
 8007TIP3    H245437   2.085   1.600  16.845
 8008TIP3   OH245438   0.404   0.538   2.552
 8008TIP3    H145439   0.479   0.513   2.499
 8008TIP3    H245440   0.420   0.629   2.576
 8009TIP3   OH245441   4.119   0.082   4.012
 8009TIP3    H145442   4.134   0.107   3.921
 8009TIP3    H245443   4.123  -0.014   4.011
 8010TIP3   OH245444   4.848   6.148  16.864
 8010TIP3    H145445   4.796   6.129  16.786
 8010TIP3    H245446   4.930   6.184  16.830
 8011TIP3   OH245447   4.948   0.496   4.683
 8011TIP3    H145448   4.965   0.528   4.771
 8011TIP3    H245449   4.991   0.411   4.680
 8012TIP3   OH245450   4.012   0.790   4.432
 8012TIP3    H145451   3.968   0.745   4.505
 8012TIP3    H245452   3.970   0.876   4.429
 8013TIP3   OH245453   3.453   5.098   0.941
 8013TIP3    H145454   3.547   5.115   0.938
 8013TIP3    H245455   3.438   5.057   1.026
 8014TIP3   OH245456   3.743   2.187  16.474
 8014TIP3    H145457   3.666   2.133  16.491
 8014TIP3    H245458   3.817   2.133  16.503
 8015TIP3   OH245459   0.608   1.910  11.660
 8015TIP3    H145460   0.546   1.963  11.609
 8015TIP3    H245461   0.691   1.918  11.612
 8016TIP3   OH245462   4.773   5.989  12.860
 8016TIP3    H145463   4.741   5.971  12.948
 8016TIP3    H245464   4.761   5.907  12.812
 8017TIP3   OH245465   5.396   6.267   2.116
 8017TIP3    H145466   5.450   6.217   2.054
 8017TIP3    H245467   5.411   6.225   2.200
 8018TIP3   OH245468   2.670   3.610   4.834
 8018TIP3    H145469   2.589   3.661   4.835
 8018TIP3    H245470   2.720   3.643   4.909
 8019TIP3   OH245471   2.439   4.855   4.654
 8019TIP3    H145472   2.501   4.812   4.712
 8019TIP3    H245473   2.362   4.871   4.709
 8020TIP3   OH245474   5.544   3.737   2.255
 8020TIP3    H145475   5.560   3.643   2.252
 8020TIP3    H245476   5.448   3.745   2.257
 8021TIP3   OH245477   1.684   3.363  12.100
 8021TIP3    H145478   1.671   3.337  12.009
 8021TIP3    H245479   1.635   3.298  12.151
 8022TIP3   OH245480   5.102   4.145  11.080
 8022TIP3    H145481   5.131   4.117  11.167
 8022TIP3    H245482   5.171   4.113  11.021
 8023TIP3   OH245483   0.793   3.825  15.066
 8023TIP3    H145484   0.877   3.870  15.077
 8023TIP3    H245485   0.736   3.890  15.027
 8024TIP3   OH245486   2.436   1.196  11.111
 8024TIP3    H145487   2.447   1.239  11.027
 8024TIP3    H245488   2.494   1.120  11.107
 8025TIP3   OH245489   5.128   3.601  12.262
 8025TIP3    H145490   5.151   3.668  12.197
 8025TIP3    H245491   5.122   3.649  12.345
 8026TIP3   OH245492   2.543   1.231  17.207
 8026TIP3    H145493   2.504   1.192  17.285
 8026TIP3    H245494   2.527   1.167  17.137
 8027TIP3   OH245495   6.229   0.303  15.332
 8027TIP3    H145496   6.223   0.328  15.424
 8027TIP3    H245497   6.297   0.236  15.330
 8028TIP3   OH245498   0.023   0.363  12.226
 8028TIP3    H145499   0.048   0.311  12.303
 8028TIP3    H245500   0.091   0.430  12.219
 8029TIP3   OH245501   4.844   6.071  12.420
 8029TIP3    H145502   4.875   5.995  12.369
 8029TIP3    H245503   4.901   6.073  12.496
 8030TIP3   OH245504   0.375   2.513  12.874
 8030TIP3    H145505   0.457   2.473  12.846
 8030TIP3    H245506   0.372   2.597  12.827
 8031TIP3   OH245507   0.152   1.952  16.358
 8031TIP3    H145508   0.086   1.989  16.417
 8031TIP3    H245509   0.199   2.028  16.324
 8032TIP3   OH245510   6.170   0.473  14.885
 8032TIP3    H145511   6.246   0.483  14.943
 8032TIP3    H245512   6.147   0.381  14.891
 8033TIP3   OH245513   2.363   4.442   1.988
 8033TIP3    H145514   2.363   4.503   2.061
 8033TIP3    H245515   2.275   4.406   1.987
 8034TIP3   OH245516   5.992   5.004   3.221
 8034TIP3    H145517   5.936   4.926   3.218
 8034TIP3    H245518   5.932   5.075   3.243
 8035TIP3   OH245519   4.394   4.521  13.991
 8035TIP3    H145520   4.341   4.555  14.062
 8035TIP3    H245521   4.436   4.598  13.953
 8036TIP3   OH245522   6.659   0.230  10.780
 8036TIP3    H145523   6.623   0.163  10.837
 8036TIP3    H245524   6.742   0.193  10.749
 8037TIP3   OH245525   3.716   4.057  10.714
 8037TIP3    H145526   3.642   4.083  10.659
 8037TIP3    H245527   3.724   4.127  10.779
 8038TIP3   OH245528   1.183   4.222  14.341
 8038TIP3    H145529   1.125   4.279  14.390
 8038TIP3    H245530   1.228   4.279  14.279
 8039TIP3   OH245531   3.101   5.103   1.836
 8039TIP3    H145532   3.115   5.147   1.752
 8039TIP3    H245533   3.010   5.124   1.859
 8040TIP3   OH245534   1.837   2.694  17.218
 8040TIP3    H145535   1.905   2.629  17.203
 8040TIP3    H245536   1.792   2.664  17.297
 8041TIP3   OH245537   1.683   5.841   3.568
 8041TIP3    H145538   1.724   5.796   3.641
 8041TIP3    H245539   1.720   5.930   3.571
 8042TIP3   OH245540   5.722   4.558  12.455
 8042TIP3    H145541   5.789   4.521  12.396
 8042TIP3    H245542   5.643   4.560  12.402
 8043TIP3   OH245543   6.358   2.988   2.105
 8043TIP3    H145544   6.297   3.062   2.109
 8043TIP3    H245545   6.331   2.931   2.176
 8044TIP3   OH245546   2.247   5.488  16.524
 8044TIP3    H145547   2.273   5.516  16.437
 8044TIP3    H245548   2.160   5.451  16.513
 8045TIP3   OH245549   2.659   4.097   1.730
 8045TIP3    H145550   2.642   4.096   1.636
 8045TIP3    H245551   2.755   4.090   1.737
 8046TIP3   OH245552   2.673   0.351   1.945
 8046TIP3    H145553   2.767   0.359   1.961
 8046TIP3    H245554   2.659   0.258   1.925
 8047TIP3   OH245555   1.969   4.894  14.501
 8047TIP3    H145556   2.007   4.936  14.424
 8047TIP3    H245557   1.875   4.896  14.485
 8048TIP3   OH245558   2.044   3.348   5.571
 8048TIP3    H145559   2.040   3.307   5.484
 8048TIP3    H245560   2.117   3.304   5.615
 8049TIP3   OH245561   3.013   5.277  12.614
 8049TIP3    H145562   3.092   5.223  12.611
 8049TIP3    H245563   3.044   5.364  12.639
 8050TIP3   OH245564   2.914   4.710   2.451
 8050TIP3    H145565   2.940   4.784   2.395
 8050TIP3    H245566   2.976   4.641   2.429
 8051TIP3   OH245567   4.123   3.992   1.878
 8051TIP3    H145568   4.166   3.962   1.958
 8051TIP3    H245569   4.031   3.966   1.889
 8052TIP3   OH245570   1.370   1.870  16.747
 8052TIP3    H145571   1.316   1.817  16.687
 8052TIP3    H245572   1.401   1.943  16.693
 8053TIP3   OH245573   0.486   5.772  11.703
 8053TIP3    H145574   0.512   5.817  11.623
 8053TIP3    H245575   0.543   5.695  11.706
 8054TIP3   OH245576   5.928   0.882   1.037
 8054TIP3    H145577   5.973   0.847   1.113
 8054TIP3    H245578   5.951   0.975   1.035
 8055TIP3   OH245579   5.866   5.392   3.645
 8055TIP3    H145580   5.804   5.324   3.670
 8055TIP3    H245581   5.831   5.472   3.685
 8056TIP3   OH245582   6.630   3.053   2.892
 8056TIP3    H145583   6.711   3.002   2.889
 8056TIP3    H245584   6.586   3.022   2.971
 8057TIP3   OH245585   1.748   0.390  12.491
 8057TIP3    H145586   1.800   0.318  12.528
 8057TIP3    H245587   1.715   0.437  12.568
 8058TIP3   OH245588   1.792   3.212  16.955
 8058TIP3    H145589   1.761   3.270  17.024
 8058TIP3    H245590   1.869   3.169  16.993
 8059TIP3   OH245591   0.434   3.819   2.686
 8059TIP3    H145592   0.403   3.806   2.776
 8059TIP3    H245593   0.429   3.733   2.646
 8060TIP3   OH245594   4.651   5.985   1.025
 8060TIP3    H145595   4.723   5.980   1.088
 8060TIP3    H245596   4.621   6.076   1.029
 8061TIP3   OH245597   3.940   4.462   5.546
 8061TIP3    H145598   3.900   4.442   5.631
 8061TIP3    H245599   3.959   4.556   5.549
 8062TIP3   OH245600   0.221   2.988   2.193
 8062TIP3    H145601   0.156   3.033   2.139
 8062TIP3    H245602   0.171   2.950   2.265
 8063TIP3   OH245603   5.769   4.680  16.030
 8063TIP3    H145604   5.837   4.671  16.096
 8063TIP3    H245605   5.722   4.759  16.056
 8064TIP3   OH245606   0.258   2.271   2.787
 8064TIP3    H145607   0.318   2.248   2.859
 8064TIP3    H245608   0.315   2.304   2.718
 8065TIP3   OH245609   6.629   4.905  11.499
 8065TIP3    H145610   6.711   4.955  11.497
 8065TIP3    H245611   6.560   4.971  11.491
 8066TIP3   OH245612   4.003   1.093   5.078
 8066TIP3    H145613   4.078   1.036   5.062
 8066TIP3    H245614   4.015   1.166   5.016
 8067TIP3   OH245615   3.409   6.249  14.374
 8067TIP3    H145616   3.395   6.223  14.465
 8067TIP3    H245617   3.329   6.221  14.329
 8068TIP3   OH245618   2.468   0.997   5.193
 8068TIP3    H145619   2.511   1.007   5.107
 8068TIP3    H245620   2.375   1.012   5.175
 8069TIP3   OH245621   4.553   4.567  16.573
 8069TIP3    H145622   4.548   4.523  16.658
 8069TIP3    H245623   4.482   4.530  16.522
 8070TIP3   OH245624   1.302   2.059   2.665
 8070TIP3    H145625   1.224   2.111   2.648
 8070TIP3    H245626   1.277   1.970   2.641
 8071TIP3   OH245627   0.280   4.158  15.434
 8071TIP3    H145628   0.228   4.078  15.447
 8071TIP3    H245629   0.288   4.166  15.339
 8072TIP3   OH245630   4.379   6.722   0.369
 8072TIP3    H145631   4.340   6.773   0.440
 8072TIP3    H245632   4.433   6.656   0.413
 8073TIP3   OH245633   2.781   2.641   3.527
 8073TIP3    H145634   2.857   2.699   3.532
 8073TIP3    H245635   2.798   2.586   3.450
 8074TIP3   OH245636   3.503   3.846  14.983
 8074TIP3    H145637   3.577   3.804  15.028
 8074TIP3    H245638   3.445   3.873  15.054
 8075TIP3   OH245639   4.009   5.364   6.225
 8075TIP3    H145640   3.985   5.387   6.315
 8075TIP3    H245641   3.967   5.280   6.209
 8076TIP3   OH245642   4.382   5.706   1.985
 8076TIP3    H145643   4.335   5.630   2.020
 8076TIP3    H245644   4.392   5.764   2.060
 8077TIP3   OH245645   4.880   6.574  16.965
 8077TIP3    H145646   4.886   6.479  16.977
 8077TIP3    H245647   4.828   6.605  17.039
 8078TIP3   OH245648   2.438   5.009   4.057
 8078TIP3    H145649   2.395   5.094   4.066
 8078TIP3    H245650   2.405   4.958   4.132
 8079TIP3   OH245651   4.818   5.263   2.813
 8079TIP3    H145652   4.781   5.338   2.859
 8079TIP3    H245653   4.898   5.242   2.861
 8080TIP3   OH245654   3.241   0.051  15.318
 8080TIP3    H145655   3.257   0.131  15.267
 8080TIP3    H245656   3.278  -0.019  15.265
 8081TIP3   OH245657   0.561   4.302  14.729
 8081TIP3    H145658   0.475   4.267  14.707
 8081TIP3    H245659   0.623   4.248  14.680
 8082TIP3   OH245660   4.889   5.292   5.195
 8082TIP3    H145661   4.798   5.313   5.215
 8082TIP3    H245662   4.883   5.230   5.122
 8083TIP3   OH245663   5.348   1.951   0.434
 8083TIP3    H145664   5.364   1.906   0.351
 8083TIP3    H245665   5.403   2.029   0.430
 8084TIP3   OH245666   1.842   1.163  10.527
 8084TIP3    H145667   1.923   1.206  10.504
 8084TIP3    H245668   1.775   1.231  10.521
 8085TIP3   OH245669   5.574   2.583  16.017
 8085TIP3    H145670   5.540   2.546  16.098
 8085TIP3    H245671   5.565   2.513  15.953
 8086TIP3   OH245672   1.633   1.144   3.281
 8086TIP3    H145673   1.699   1.207   3.253
 8086TIP3    H245674   1.556   1.163   3.228
 8087TIP3   OH245675   2.220   6.530   3.125
 8087TIP3    H145676   2.312   6.546   3.102
 8087TIP3    H245677   2.202   6.442   3.092
 8088TIP3   OH245678   6.476   2.632   6.352
 8088TIP3    H145679   6.450   2.716   6.390
 8088TIP3    H245680   6.470   2.570   6.425
 8089TIP3   OH245681   6.574   0.233   2.312
 8089TIP3    H145682   6.613   0.320   2.304
 8089TIP3    H245683   6.496   0.247   2.366
 8090TIP3   OH245684   4.929   4.341  14.318
 8090TIP3    H145685   4.862   4.385  14.267
 8090TIP3    H245686   4.897   4.251  14.328
 8091TIP3   OH245687   6.127   5.943  14.228
 8091TIP3    H145688   6.167   5.864  14.191
 8091TIP3    H245689   6.033   5.923  14.230
 8092TIP3   OH245690   1.897   0.171  12.561
 8092TIP3    H145691   1.988   0.198  12.550
 8092TIP3    H245692   1.902   0.080  12.589
 8093TIP3   OH245693   5.318   2.982   3.144
 8093TIP3    H145694   5.251   2.937   3.195
 8093TIP3    H245695   5.303   3.075   3.162
 8094TIP3   OH245696   4.151   1.790  12.549
 8094TIP3    H145697   4.193   1.860  12.499
 8094TIP3    H245698   4.211   1.716  12.542
 8095TIP3   OH245699   6.431   2.001  13.629
 8095TIP3    H145700   6.340   2.023  13.610
 8095TIP3    H245701   6.456   2.060  13.700
 8096TIP3   OH245702   4.616   5.742  15.492
 8096TIP3    H145703   4.531   5.727  15.533
 8096TIP3    H245704   4.667   5.665  15.515
 8097TIP3   OH245705   0.069   4.721  16.643
 8097TIP3    H145706   0.058   4.628  16.621
 8097TIP3    H245707   0.161   4.740  16.622
 8098TIP3   OH245708   1.423   3.210  14.906
 8098TIP3    H145709   1.481   3.135  14.891
 8098TIP3    H245710   1.482   3.284  14.921
 8099TIP3   OH245711   0.933   4.360   3.186
 8099TIP3    H145712   0.954   4.342   3.095
 8099TIP3    H245713   0.851   4.313   3.202
 8100TIP3   OH245714   1.433   5.783  11.158
 8100TIP3    H145715   1.426   5.704  11.105
 8100TIP3    H245716   1.352   5.831  11.140
 8101TIP3   OH245717   1.279   4.134  13.992
 8101TIP3    H145718   1.296   4.215  14.041
 8101TIP3    H245719   1.337   4.140  13.916
 8102TIP3   OH245720   3.640   1.191   2.190
 8102TIP3    H145721   3.575   1.206   2.258
 8102TIP3    H245722   3.613   1.247   2.117
 8103TIP3   OH245723   4.866   2.572   5.118
 8103TIP3    H145724   4.860   2.665   5.142
 8103TIP3    H245725   4.912   2.571   5.034
 8104TIP3   OH245726   1.447   0.344  13.979
 8104TIP3    H145727   1.422   0.252  13.975
 8104TIP3    H245728   1.416   0.374  14.064
 8105TIP3   OH245729   3.733   6.702   4.347
 8105TIP3    H145730   3.713   6.613   4.377
 8105TIP3    H245731   3.702   6.705   4.257
 8106TIP3   OH245732   0.298   5.128   2.598
 8106TIP3    H145733   0.361   5.186   2.555
 8106TIP3    H245734   0.255   5.082   2.526
 8107TIP3   OH245735   3.985   5.547   0.951
 8107TIP3    H145736   3.958   5.598   1.027
 8107TIP3    H245737   3.992   5.611   0.880
 8108TIP3   OH245738   1.820   4.624   3.133
 8108TIP3    H145739   1.790   4.574   3.058
 8108TIP3    H245740   1.815   4.563   3.207
 8109TIP3   OH245741   6.581   6.750  16.371
 8109TIP3    H145742   6.603   6.751  16.464
 8109TIP3    H245743   6.631   6.822  16.333
 8110TIP3   OH245744   1.676   0.115   5.025
 8110TIP3    H145745   1.754   0.123   4.970
 8110TIP3    H245746   1.687   0.031   5.070
 8111TIP3   OH245747   1.887   5.493   4.453
 8111TIP3    H145748   1.896   5.545   4.533
 8111TIP3    H245749   1.799   5.513   4.421
 8112TIP3   OH245750   5.004   4.514   3.286
 8112TIP3    H145751   5.090   4.554   3.273
 8112TIP3    H245752   4.946   4.562   3.227
 8113TIP3   OH245753   4.600   5.726  11.993
 8113TIP3    H145754   4.520   5.676  11.974
 8113TIP3    H245755   4.660   5.704  11.922
 8114TIP3   OH245756   5.068   4.685   2.484
 8114TIP3    H145757   5.001   4.701   2.550
 8114TIP3    H245758   5.077   4.768   2.438
 8115TIP3   OH245759   5.861   2.644   2.368
 8115TIP3    H145760   5.866   2.572   2.430
 8115TIP3    H245761   5.943   2.638   2.318
 8116TIP3   OH245762   2.928   4.343  15.325
 8116TIP3    H145763   2.929   4.414  15.260
 8116TIP3    H245764   2.852   4.363  15.380
 8117TIP3   OH245765   1.618   5.403   3.660
 8117TIP3    H145766   1.667   5.468   3.710
 8117TIP3    H245767   1.576   5.349   3.727
 8118TIP3   OH245768   1.085   2.093   2.262
 8118TIP3    H145769   0.994   2.064   2.258
 8118TIP3    H245770   1.125   2.058   2.182
 8119TIP3   OH245771   5.301   2.461  13.128
 8119TIP3    H145772   5.314   2.408  13.049
 8119TIP3    H245773   5.210   2.492  13.121
 8120TIP3   OH245774   3.407   3.025   4.577
 8120TIP3    H145775   3.503   3.018   4.577
 8120TIP3    H245776   3.387   3.072   4.496
 8121TIP3   OH245777   6.783   2.522   6.805
 8121TIP3    H145778   6.782   2.587   6.734
 8121TIP3    H245779   6.700   2.536   6.850
 8122TIP3   OH245780   1.484   4.610  16.725
 8122TIP3    H145781   1.403   4.632  16.679
 8122TIP3    H245782   1.545   4.585  16.655
 8123TIP3   OH245783   2.506   4.742   2.169
 8123TIP3    H145784   2.558   4.718   2.246
 8123TIP3    H245785   2.421   4.701   2.184
 8124TIP3   OH245786   5.659   0.308  12.790
 8124TIP3    H145787   5.643   0.389  12.839
 8124TIP3    H245788   5.654   0.239  12.857
 8125TIP3   OH245789   1.245   6.165  17.020
 8125TIP3    H145790   1.251   6.090  16.961
 8125TIP3    H245791   1.162   6.206  16.997
 8126TIP3   OH245792   2.877   0.071   5.456
 8126TIP3    H145793   2.865   0.165   5.467
 8126TIP3    H245794   2.955   0.064   5.401
 8127TIP3   OH245795   0.007   5.155   3.834
 8127TIP3    H145796   0.029   5.063   3.842
 8127TIP3    H245797   0.064   5.199   3.897
 8128TIP3   OH245798   4.646   6.683  17.122
 8128TIP3    H145799   4.624   6.774  17.142
 8128TIP3    H245800   4.599   6.665  17.040
 8129TIP3   OH245801   1.521   6.640  16.721
 8129TIP3    H145802   1.450   6.685  16.767
 8129TIP3    H245803   1.476   6.586  16.656
 8130TIP3   OH245804   1.607   6.088   3.843
 8130TIP3    H145805   1.610   6.120   3.753
 8130TIP3    H245806   1.519   6.053   3.853
 8131TIP3   OH245807   6.502   1.082   2.676
 8131TIP3    H145808   6.504   1.172   2.644
 8131TIP3    H245809   6.496   1.029   2.596
 8132TIP3   OH245810   0.062   0.774   5.276
 8132TIP3    H145811   0.041   0.691   5.233
 8132TIP3    H245812  -0.018   0.799   5.321
 8133TIP3   OH245813   6.226   5.829  12.649
 8133TIP3    H145814   6.210   5.923  12.644
 8133TIP3    H245815   6.253   5.813  12.739
 8134TIP3   OH245816   0.927   5.595   0.130
 8134TIP3    H145817   0.918   5.684   0.164
 8134TIP3    H245818   0.838   5.561   0.128
 8135TIP3   OH245819   0.570   6.012   2.001
 8135TIP3    H145820   0.645   6.067   2.022
 8135TIP3    H245821   0.546   5.972   2.084
 8136TIP3   OH245822   0.995   4.618   1.145
 8136TIP3    H145823   1.087   4.639   1.129
 8136TIP3    H245824   0.991   4.522   1.143
 8137TIP3   OH245825   5.405   5.851   1.759
 8137TIP3    H145826   5.350   5.838   1.682
 8137TIP3    H245827   5.465   5.776   1.759
 8138TIP3   OH245828   1.642   6.732  12.958
 8138TIP3    H145829   1.679   6.794  13.021
 8138TIP3    H245830   1.560   6.702  12.998
 8139TIP3   OH245831   4.602   6.411  14.090
 8139TIP3    H145832   4.529   6.388  14.147
 8139TIP3    H245833   4.676   6.426  14.149
 8140TIP3   OH245834   6.125   6.266   4.364
 8140TIP3    H145835   6.106   6.242   4.274
 8140TIP3    H245836   6.187   6.339   4.358
 8141TIP3   OH245837   4.962   1.946  14.842
 8141TIP3    H145838   4.931   1.894  14.768
 8141TIP3    H245839   5.010   2.018  14.801
 8142TIP3   OH245840   0.325   5.805  15.170
 8142TIP3    H145841   0.320   5.724  15.220
 8142TIP3    H245842   0.309   5.779  15.079
 8143TIP3   OH245843   3.602   2.635  12.775
 8143TIP3    H145844   3.530   2.591  12.731
 8143TIP3    H245845   3.670   2.568  12.782
 8144TIP3   OH245846   0.667   3.470  13.392
 8144TIP3    H145847   0.670   3.563  13.415
 8144TIP3    H245848   0.713   3.464  13.308
 8145TIP3   OH245849   0.686   5.591   0.715
 8145TIP3    H145850   0.751   5.531   0.679
 8145TIP3    H245851   0.604   5.541   0.714
 8146TIP3   OH245852   0.199   6.177   5.571
 8146TIP3    H145853   0.196   6.174   5.666
 8146TIP3    H245854   0.289   6.201   5.551
 8147TIP3   OH245855   4.700   4.812  15.194
 8147TIP3    H145856   4.776   4.754  15.201
 8147TIP3    H245857   4.724   4.889  15.245
 8148TIP3   OH245858   1.997   3.862   3.962
 8148TIP3    H145859   2.049   3.910   3.898
 8148TIP3    H245860   2.000   3.917   4.041
 8149TIP3   OH245861   0.551   4.875  16.605
 8149TIP3    H145862   0.570   4.888  16.698
 8149TIP3    H245863   0.468   4.827  16.605
 8150TIP3   OH245864   1.615   2.466  17.109
 8150TIP3    H145865   1.707   2.455  17.082
 8150TIP3    H245866   1.565   2.451  17.028
 8151TIP3   OH245867   3.930   2.864  14.727
 8151TIP3    H145868   3.992   2.828  14.791
 8151TIP3    H245869   3.984   2.923  14.674
 8152TIP3   OH245870   3.894   6.520   3.215
 8152TIP3    H145871   3.883   6.434   3.255
 8152TIP3    H245872   3.806   6.557   3.213
 8153TIP3   OH245873   1.050   3.830   3.676
 8153TIP3    H145874   1.011   3.870   3.754
 8153TIP3    H245875   1.104   3.900   3.638
 8154TIP3   OH245876   3.437   3.029  14.960
 8154TIP3    H145877   3.437   2.938  14.929
 8154TIP3    H245878   3.460   3.022  15.053
 8155TIP3   OH245879   4.039   4.802   3.533
 8155TIP3    H145880   3.971   4.765   3.589
 8155TIP3    H245881   4.093   4.728   3.508
 8156TIP3   OH245882   0.454   2.660  15.747
 8156TIP3    H145883   0.369   2.703  15.737
 8156TIP3    H245884   0.506   2.694  15.675
 8157TIP3   OH245885   0.294   4.969  16.445
 8157TIP3    H145886   0.307   5.000  16.355
 8157TIP3    H245887   0.342   4.886  16.448
 8158TIP3   OH245888   5.989   0.380  15.795
 8158TIP3    H145889   5.987   0.450  15.860
 8158TIP3    H245890   5.967   0.423  15.712
 8159TIP3   OH245891   2.881   0.821  12.822
 8159TIP3    H145892   2.812   0.853  12.879
 8159TIP3    H245893   2.919   0.900  12.784
 8160TIP3   OH245894   2.178   2.778  13.254
 8160TIP3    H145895   2.205   2.775  13.346
 8160TIP3    H245896   2.095   2.730  13.251
 8161TIP3   OH245897   2.448   5.903   5.097
 8161TIP3    H145898   2.538   5.922   5.123
 8161TIP3    H245899   2.439   5.809   5.108
 8162TIP3   OH245900   2.625   3.630   2.666
 8162TIP3    H145901   2.555   3.587   2.714
 8162TIP3    H245902   2.706   3.594   2.702
 8163TIP3   OH245903   3.903   3.708   0.290
 8163TIP3    H145904   3.847   3.784   0.274
 8163TIP3    H245905   3.844   3.633   0.287
 8164TIP3   OH245906   5.557   1.526  15.561
 8164TIP3    H145907   5.522   1.600  15.511
 8164TIP3    H245908   5.488   1.460  15.556
 8165TIP3   OH245909   4.776   5.097  16.912
 8165TIP3    H145910   4.701   5.092  16.853
 8165TIP3    H245911   4.737   5.108  16.999
 8166TIP3   OH245912   5.197   1.154  16.688
 8166TIP3    H145913   5.150   1.224  16.734
 8166TIP3    H245914   5.142   1.076  16.700
 8167TIP3   OH245915   6.753   1.426   1.273
 8167TIP3    H145916   6.738   1.345   1.224
 8167TIP3    H245917   6.847   1.425   1.293
 8168TIP3   OH245918   5.419   0.987   3.110
 8168TIP3    H145919   5.456   0.934   3.040
 8168TIP3    H245920   5.476   0.973   3.185
 8169TIP3   OH245921   1.157   4.684  12.121
 8169TIP3    H145922   1.202   4.740  12.185
 8169TIP3    H245923   1.064   4.693  12.143
 8170TIP3   OH245924   4.418   4.767   5.771
 8170TIP3    H145925   4.403   4.747   5.864
 8170TIP3    H245926   4.492   4.712   5.746
 8171TIP3   OH245927   1.944   0.659   3.357
 8171TIP3    H145928   2.037   0.643   3.371
 8171TIP3    H245929   1.923   0.614   3.275
 8172TIP3   OH245930   3.258   4.033  15.866
 8172TIP3    H145931   3.186   4.087  15.897
 8172TIP3    H245932   3.293   3.992  15.946
 8173TIP3   OH245933   6.785   0.710   3.515
 8173TIP3    H145934   6.742   0.659   3.584
 8173TIP3    H245935   6.802   0.795   3.556
 8174TIP3   OH245936   5.154   3.624  15.081
 8174TIP3    H145937   5.202   3.615  15.164
 8174TIP3    H245938   5.081   3.683  15.102
 8175TIP3   OH245939   3.279   5.101   5.533
 8175TIP3    H145940   3.321   5.125   5.450
 8175TIP3    H245941   3.352   5.083   5.592
 8176TIP3   OH245942   3.578   3.635   5.412
 8176TIP3    H145943   3.606   3.580   5.486
 8176TIP3    H245944   3.650   3.627   5.349
 8177TIP3   OH245945   0.500   4.669  12.467
 8177TIP3    H145946   0.421   4.621  12.490
 8177TIP3    H245947   0.564   4.601  12.443
 8178TIP3   OH245948   4.756   2.878  16.822
 8178TIP3    H145949   4.751   2.960  16.872
 8178TIP3    H245950   4.734   2.903  16.733
 8179TIP3   OH245951   5.023   5.595   5.470
 8179TIP3    H145952   4.951   5.531   5.467
 8179TIP3    H245953   5.045   5.602   5.562
 8180TIP3   OH245954   1.191   0.689   1.977
 8180TIP3    H145955   1.223   0.734   1.899
 8180TIP3    H245956   1.101   0.720   1.988
 8181TIP3   OH245957   2.645   1.959  16.723
 8181TIP3    H145958   2.694   1.926  16.798
 8181TIP3    H245959   2.644   1.887  16.660
 8182TIP3   OH245960   1.778   2.202  15.603
 8182TIP3    H145961   1.735   2.262  15.541
 8182TIP3    H245962   1.750   2.115  15.574
 8183TIP3   OH245963   2.836   0.334  10.855
 8183TIP3    H145964   2.830   0.289  10.771
 8183TIP3    H245965   2.758   0.306  10.904
 8184TIP3   OH245966   2.728   0.825  14.296
 8184TIP3    H145967   2.662   0.797  14.232
 8184TIP3    H245968   2.700   0.913  14.321
 8185TIP3   OH245969   0.455   6.299  10.477
 8185TIP3    H145970   0.373   6.348  10.474
 8185TIP3    H245971   0.430   6.208  10.460
 8186TIP3   OH245972   2.222   2.614  14.399
 8186TIP3    H145973   2.215   2.649  14.487
 8186TIP3    H245974   2.315   2.599  14.385
 8187TIP3   OH245975   1.782   2.862  16.120
 8187TIP3    H145976   1.788   2.909  16.203
 8187TIP3    H245977   1.689   2.867  16.096
 8188TIP3   OH245978   1.672   0.725  15.244
 8188TIP3    H145979   1.741   0.791  15.253
 8188TIP3    H245980   1.707   0.647  15.287
 8189TIP3   OH245981   0.968   1.079  14.359
 8189TIP3    H145982   0.965   0.986  14.337
 8189TIP3    H245983   1.053   1.092  14.401
 8190TIP3   OH245984   1.198   6.573   2.810
 8190TIP3    H145985   1.178   6.480   2.819
 8190TIP3    H245986   1.238   6.581   2.723
 8191TIP3   OH245987   4.278   0.032   3.058
 8191TIP3    H145988   4.270  -0.062   3.075
 8191TIP3    H245989   4.271   0.039   2.963
 8192TIP3   OH245990   5.885   2.765  12.515
 8192TIP3    H145991   5.955   2.701  12.525
 8192TIP3    H245992   5.912   2.839  12.570
 8193TIP3   OH245993   5.368   0.512  13.281
 8193TIP3    H145994   5.408   0.499  13.195
 8193TIP3    H245995   5.274   0.505  13.266
 8194TIP3   OH245996   4.244   5.113   1.891
 8194TIP3    H145997   4.249   5.198   1.847
 8194TIP3    H245998   4.205   5.132   1.976
 8195TIP3   OH245999   3.755   5.093  14.923
 8195TIP3    H146000   3.793   5.005  14.927
 8195TIP3    H246001   3.727   5.111  15.012
 8196TIP3   OH246002   0.021   3.276   5.096
 8196TIP3    H146003  -0.071   3.249   5.105
 8196TIP3    H246004   0.047   3.245   5.009
 8197TIP3   OH246005   5.681   3.619  10.516
 8197TIP3    H146006   5.602   3.666  10.491
 8197TIP3    H246007   5.649   3.541  10.562
 8198TIP3   OH246008   5.155   3.389  15.649
 8198TIP3    H146009   5.092   3.437  15.596
 8198TIP3    H246010   5.125   3.299  15.648
 8199TIP3   OH246011   1.026   4.412  12.011
 8199TIP3    H146012   1.119   4.388  12.009
 8199TIP3    H246013   1.002   4.427  11.919
 8200TIP3   OH246014   1.184   1.297  14.530
 8200TIP3    H146015   1.214   1.270  14.617
 8200TIP3    H246016   1.200   1.220  14.474
 8201TIP3   OH246017   4.092   4.546   0.546
 8201TIP3    H146018   4.123   4.488   0.477
 8201TIP3    H246019   4.003   4.515   0.565
 8202TIP3   OH246020   5.021   4.604  12.117
 8202TIP3    H146021   5.032   4.623  12.024
 8202TIP3    H246022   5.079   4.529  12.133
 8203TIP3   OH246023   3.742   1.117  16.531
 8203TIP3    H146024   3.757   1.036  16.482
 8203TIP3    H246025   3.819   1.126  16.587
 8204TIP3   OH246026   3.681   2.822   5.706
 8204TIP3    H146027   3.586   2.834   5.710
 8204TIP3    H246028   3.713   2.852   5.790
 8205TIP3   OH246029   2.141   0.247  17.061
 8205TIP3    H146030   2.215   0.301  17.088
 8205TIP3    H246031   2.101   0.218  17.144
 8206TIP3   OH246032   4.331   1.744  13.663
 8206TIP3    H146033   4.391   1.709  13.729
 8206TIP3    H246034   4.311   1.669  13.607
 8207TIP3   OH246035   2.129   6.716   4.823
 8207TIP3    H146036   2.106   6.705   4.731
 8207TIP3    H246037   2.152   6.809   4.831
 8208TIP3   OH246038   4.910   4.301   1.757
 8208TIP3    H146039   4.987   4.353   1.780
 8208TIP3    H246040   4.865   4.286   1.840
 8209TIP3   OH246041   3.764   2.304   6.409
 8209TIP3    H146042   3.669   2.306   6.416
 8209TIP3    H246043   3.792   2.392   6.434
 8210TIP3   OH246044   0.961   3.895   6.154
 8210TIP3    H146045   0.971   3.801   6.171
 8210TIP3    H246046   0.924   3.900   6.066
 8211TIP3   OH246047   1.310   4.067   6.336
 8211TIP3    H146048   1.318   3.999   6.403
 8211TIP3    H246049   1.287   4.146   6.385
 8212TIP3   OH246050   4.005   4.110   0.166
 8212TIP3    H146051   4.037   4.034   0.213
 8212TIP3    H246052   3.942   4.150   0.225
 8213TIP3   OH246053   3.077   0.389  12.846
 8213TIP3    H146054   2.982   0.382  12.839
 8213TIP3    H246055   3.098   0.475  12.809
 8214TIP3   OH246056   4.811   0.745   4.560
 8214TIP3    H146057   4.763   0.794   4.627
 8214TIP3    H246058   4.831   0.661   4.601
 8215TIP3   OH246059   5.034   5.318   2.996
 8215TIP3    H146060   5.013   5.375   3.071
 8215TIP3    H246061   5.106   5.263   3.027
 8216TIP3   OH246062   3.852   2.789   0.651
 8216TIP3    H146063   3.817   2.808   0.564
 8216TIP3    H246064   3.876   2.697   0.648
 8217TIP3   OH246065   6.281   1.395   2.408
 8217TIP3    H146066   6.219   1.437   2.468
 8217TIP3    H246067   6.234   1.392   2.325
 8218TIP3   OH246068   4.237   1.658  10.833
 8218TIP3    H146069   4.218   1.751  10.842
 8218TIP3    H246070   4.157   1.614  10.860
 8219TIP3   OH246071   0.759   5.207  10.972
 8219TIP3    H146072   0.719   5.283  10.930
 8219TIP3    H246073   0.743   5.135  10.911
 8220TIP3   OH246074   3.931   3.435   5.681
 8220TIP3    H146075   3.935   3.529   5.695
 8220TIP3    H246076   3.905   3.399   5.766
 8221TIP3   OH246077   2.526   0.217   3.410
 8221TIP3    H146078   2.549   0.254   3.325
 8221TIP3    H246079   2.609   0.211   3.457
 8222TIP3   OH246080   0.146   5.550  13.587
 8222TIP3    H146081   0.103   5.469  13.612
 8222TIP3    H246082   0.180   5.586  13.668
 8223TIP3   OH246083   4.654   2.623  11.727
 8223TIP3    H146084   4.579   2.670  11.692
 8223TIP3    H246085   4.722   2.631  11.659
 8224TIP3   OH246086   4.778   6.086  17.185
 8224TIP3    H146087   4.760   6.008  17.237
 8224TIP3    H246088   4.760   6.159  17.244
 8225TIP3   OH246089   3.888   1.505  17.063
 8225TIP3    H146090   3.799   1.495  17.096
 8225TIP3    H246091   3.878   1.557  16.983
 8226TIP3   OH246092   1.089   0.713   3.102
 8226TIP3    H146093   1.037   0.634   3.085
 8226TIP3    H246094   1.175   0.680   3.127
 8227TIP3   OH246095   4.710   2.927   0.624
 8227TIP3    H146096   4.639   2.953   0.565
 8227TIP3    H246097   4.732   3.006   0.673
 8228TIP3   OH246098   4.741   0.917  11.797
 8228TIP3    H146099   4.712   0.931  11.707
 8228TIP3    H246100   4.760   1.004  11.830
 8229TIP3   OH246101   0.012   4.991   4.077
 8229TIP3    H146102   0.036   5.083   4.072
 8229TIP3    H246103   0.048   4.952   3.997
 8230TIP3   OH246104   0.594   5.120  16.425
 8230TIP3    H146105   0.570   5.180  16.496
 8230TIP3    H246106   0.531   5.049  16.432
 8231TIP3   OH246107   0.208   1.880   4.564
 8231TIP3    H146108   0.300   1.868   4.544
 8231TIP3    H246109   0.200   1.851   4.655
 8232TIP3   OH246110   2.196   3.419   0.146
 8232TIP3    H146111   2.215   3.352   0.081
 8232TIP3    H246112   2.214   3.378   0.230
 8233TIP3   OH246113   2.738   1.872   1.505
 8233TIP3    H146114   2.795   1.845   1.433
 8233TIP3    H246115   2.753   1.808   1.574
 8234TIP3   OH246116   4.391   1.081   3.368
 8234TIP3    H146117   4.398   1.007   3.428
 8234TIP3    H246118   4.468   1.073   3.311
 8235TIP3   OH246119   6.656   1.812  16.972
 8235TIP3    H146120   6.749   1.786  16.973
 8235TIP3    H246121   6.609   1.730  16.987
 8236TIP3   OH246122   0.515   4.339   3.632
 8236TIP3    H146123   0.552   4.427   3.644
 8236TIP3    H246124   0.476   4.342   3.545
 8237TIP3   OH246125   1.608   1.983   4.019
 8237TIP3    H146126   1.548   1.992   4.093
 8237TIP3    H246127   1.609   1.889   4.000
 8238TIP3   OH246128   0.980   6.573   1.195
 8238TIP3    H146129   0.982   6.657   1.150
 8238TIP3    H246130   0.939   6.591   1.280
 8239TIP3   OH246131   1.100   3.672  13.876
 8239TIP3    H146132   1.147   3.631  13.948
 8239TIP3    H246133   1.042   3.735  13.918
 8240TIP3   OH246134   1.381   5.695   5.435
 8240TIP3    H146135   1.429   5.622   5.475
 8240TIP3    H246136   1.412   5.772   5.482
 8241TIP3   OH246137   2.194   0.577  16.899
 8241TIP3    H146138   2.254   0.513  16.860
 8241TIP3    H246139   2.235   0.601  16.982
 8242TIP3   OH246140   2.502   5.269   5.223
 8242TIP3    H146141   2.580   5.320   5.204
 8242TIP3    H246142   2.523   5.221   5.303
 8243TIP3   OH246143   1.702   3.641   1.479
 8243TIP3    H146144   1.798   3.635   1.474
 8243TIP3    H246145   1.685   3.729   1.513
 8244TIP3   OH246146   6.015   4.589  16.543
 8244TIP3    H146147   5.993   4.659  16.481
 8244TIP3    H246148   6.001   4.509  16.493
 8245TIP3   OH246149   1.719   2.888   4.730
 8245TIP3    H146150   1.756   2.892   4.818
 8245TIP3    H246151   1.625   2.880   4.745
 8246TIP3   OH246152   6.386   5.994   0.122
 8246TIP3    H146153   6.326   6.001   0.048
 8246TIP3    H246154   6.373   5.905   0.155
 8247TIP3   OH246155   2.534   4.594  12.365
 8247TIP3    H146156   2.468   4.526  12.354
 8247TIP3    H246157   2.539   4.636  12.279
 8248TIP3   OH246158   2.714   1.967  11.797
 8248TIP3    H146159   2.698   1.952  11.704
 8248TIP3    H246160   2.629   1.996  11.832
 8249TIP3   OH246161   4.927   1.591  14.244
 8249TIP3    H146162   4.994   1.533  14.209
 8249TIP3    H246163   4.848   1.569  14.194
 8250TIP3   OH246164   3.166   2.150  13.325
 8250TIP3    H146165   3.078   2.152  13.362
 8250TIP3    H246166   3.223   2.127  13.399
 8251TIP3   OH246167   0.991   5.233   1.850
 8251TIP3    H146168   0.999   5.280   1.768
 8251TIP3    H246169   0.896   5.230   1.867
 8252TIP3   OH246170   4.013   4.272   4.021
 8252TIP3    H146171   3.975   4.358   4.005
 8252TIP3    H246172   3.969   4.239   4.100
 8253TIP3   OH246173   4.933   4.534   4.351
 8253TIP3    H146174   4.851   4.564   4.312
 8253TIP3    H246175   4.999   4.549   4.283
 8254TIP3   OH246176   4.514   4.804  12.221
 8254TIP3    H146177   4.465   4.778  12.299
 8254TIP3    H246178   4.448   4.847  12.165
 8255TIP3   OH246179   3.801   2.440   4.587
 8255TIP3    H146180   3.876   2.496   4.605
 8255TIP3    H246181   3.727   2.487   4.627
 8256TIP3   OH246182   0.162   2.877  13.767
 8256TIP3    H146183   0.162   2.949  13.829
 8256TIP3    H246184   0.255   2.855  13.756
 8257TIP3   OH246185   5.575   1.730   1.543
 8257TIP3    H146186   5.601   1.673   1.615
 8257TIP3    H246187   5.496   1.689   1.508
 8258TIP3   OH246188   4.949   2.648  14.024
 8258TIP3    H146189   4.990   2.703  13.957
 8258TIP3    H246190   5.022   2.603  14.067
 8259TIP3   OH246191   3.729   5.377   1.119
 8259TIP3    H146192   3.647   5.373   1.069
 8259TIP3    H246193   3.796   5.396   1.053
 8260TIP3   OH246194   5.859   5.976  14.339
 8260TIP3    H146195   5.807   6.020  14.272
 8260TIP3    H246196   5.884   6.045  14.399
 8261TIP3   OH246197   1.326   3.986   2.748
 8261TIP3    H146198   1.351   3.910   2.800
 8261TIP3    H246199   1.372   3.974   2.665
 8262TIP3   OH246200   2.690   3.813   0.744
 8262TIP3    H146201   2.762   3.874   0.728
 8262TIP3    H246202   2.653   3.841   0.828
 8263TIP3   OH246203   4.442   0.897  15.731
 8263TIP3    H146204   4.374   0.845  15.774
 8263TIP3    H246205   4.449   0.859  15.643
 8264TIP3   OH246206   4.813   6.465   0.890
 8264TIP3    H146207   4.856   6.496   0.970
 8264TIP3    H246208   4.883   6.428   0.837
 8265TIP3   OH246209   2.961   3.131  16.172
 8265TIP3    H146210   2.866   3.126  16.179
 8265TIP3    H246211   2.990   3.166  16.257
 8266TIP3   OH246212   6.102   5.203   0.592
 8266TIP3    H146213   6.112   5.142   0.520
 8266TIP3    H246214   6.151   5.281   0.565
 8267TIP3   OH246215   4.323   1.399   4.056
 8267TIP3    H146216   4.403   1.349   4.043
 8267TIP3    H246217   4.353   1.487   4.081
 8268TIP3   OH246218   6.782   0.291  15.881
 8268TIP3    H146219   6.854   0.294  15.818
 8268TIP3    H246220   6.732   0.214  15.855
 8269TIP3   OH246221   4.097   4.987  14.990
 8269TIP3    H146222   4.027   4.931  14.957
 8269TIP3    H246223   4.178   4.943  14.964
 8270TIP3   OH246224   0.368   0.571  16.227
 8270TIP3    H146225   0.283   0.553  16.268
 8270TIP3    H246226   0.412   0.486  16.226
 8271TIP3   OH246227   1.790   4.892  12.119
 8271TIP3    H146228   1.736   4.820  12.152
 8271TIP3    H246229   1.878   4.872  12.152
 8272TIP3   OH246230   0.883   6.125   5.422
 8272TIP3    H146231   0.948   6.101   5.356
 8272TIP3    H246232   0.826   6.187   5.377
 8273TIP3   OH246233   5.534   5.240  13.760
 8273TIP3    H146234   5.606   5.194  13.716
 8273TIP3    H246235   5.544   5.218  13.852
 8274TIP3   OH246236   1.089   4.465  13.171
 8274TIP3    H146237   1.095   4.404  13.245
 8274TIP3    H246238   1.090   4.552  13.211
 8275TIP3   OH246239   4.269   1.260  14.313
 8275TIP3    H146240   4.322   1.322  14.264
 8275TIP3    H246241   4.282   1.177  14.268
 8276TIP3   OH246242   1.623   5.552  13.805
 8276TIP3    H146243   1.682   5.628  13.809
 8276TIP3    H246244   1.538   5.590  13.783
 8277TIP3   OH246245   1.971   5.598  14.337
 8277TIP3    H146246   2.049   5.642  14.300
 8277TIP3    H246247   2.001   5.564  14.421
 8278TIP3   OH246248   3.684   0.124   5.192
 8278TIP3    H146249   3.602   0.155   5.231
 8278TIP3    H246250   3.752   0.157   5.250
 8279TIP3   OH246251   1.187   2.426   3.362
 8279TIP3    H146252   1.211   2.426   3.270
 8279TIP3    H246253   1.269   2.440   3.409
 8280TIP3   OH246254   1.271   6.414   6.615
 8280TIP3    H146255   1.179   6.414   6.641
 8280TIP3    H246256   1.319   6.398   6.696
 8281TIP3   OH246257   2.127   2.565  13.470
 8281TIP3    H146258   2.055   2.618  13.435
 8281TIP3    H246259   2.110   2.561  13.564
 8282TIP3   OH246260   3.621   4.624   3.705
 8282TIP3    H146261   3.653   4.568   3.776
 8282TIP3    H246262   3.525   4.617   3.711
 8283TIP3   OH246263   3.066   6.569   4.230
 8283TIP3    H146264   3.085   6.497   4.170
 8283TIP3    H246265   3.110   6.545   4.312
 8284TIP3   OH246266   6.620   2.704   1.209
 8284TIP3    H146267   6.695   2.726   1.263
 8284TIP3    H246268   6.602   2.783   1.158
 8285TIP3   OH246269   4.613   0.718  11.086
 8285TIP3    H146270   4.679   0.759  11.142
 8285TIP3    H246271   4.640   0.739  10.997
 8286TIP3   OH246272   3.475   0.472  12.523
 8286TIP3    H146273   3.525   0.442  12.598
 8286TIP3    H246274   3.437   0.555  12.551
 8287TIP3   OH246275   3.220   4.892  12.757
 8287TIP3    H146276   3.219   4.806  12.800
 8287TIP3    H246277   3.302   4.932  12.784
 8288TIP3   OH246278   0.609   0.826   4.745
 8288TIP3    H146279   0.592   0.919   4.765
 8288TIP3    H246280   0.701   0.814   4.766
 8289TIP3   OH246281   4.853   5.631  13.190
 8289TIP3    H146282   4.885   5.602  13.276
 8289TIP3    H246283   4.932   5.653  13.141
 8290TIP3   OH246284   5.040   1.856  13.238
 8290TIP3    H146285   4.954   1.895  13.222
 8290TIP3    H246286   5.089   1.926  13.281
 8291TIP3   OH246287   0.629   6.724  10.517
 8291TIP3    H146288   0.698   6.744  10.579
 8291TIP3    H246289   0.561   6.790  10.533
 8292TIP3   OH246290   0.395   6.065   0.680
 8292TIP3    H146291   0.391   6.050   0.585
 8292TIP3    H246292   0.459   6.001   0.711
 8293TIP3   OH246293   3.224   5.382   5.097
 8293TIP3    H146294   3.159   5.399   5.166
 8293TIP3    H246295   3.292   5.447   5.112
 8294TIP3   OH246296   0.243   2.792  16.412
 8294TIP3    H146297   0.236   2.698  16.396
 8294TIP3    H246298   0.286   2.826  16.333
 8295TIP3   OH246299   6.749   4.281  12.960
 8295TIP3    H146300   6.816   4.336  13.001
 8295TIP3    H246301   6.719   4.223  13.031
 8296TIP3   OH246302   2.660   2.093  15.076
 8296TIP3    H146303   2.666   2.015  15.022
 8296TIP3    H246304   2.705   2.070  15.157
 8297TIP3   OH246305   0.773   2.661  14.724
 8297TIP3    H146306   0.815   2.575  14.725
 8297TIP3    H246307   0.803   2.701  14.643
 8298TIP3   OH246308   0.386   1.842  11.988
 8298TIP3    H146309   0.478   1.862  11.969
 8298TIP3    H246310   0.338   1.879  11.914
 8299TIP3   OH246311   0.520   2.875  12.190
 8299TIP3    H146312   0.501   2.884  12.284
 8299TIP3    H246313   0.539   2.782  12.179
 8300TIP3   OH246314   4.467   2.706   5.644
 8300TIP3    H146315   4.426   2.682   5.561
 8300TIP3    H246316   4.427   2.790   5.668
 8301TIP3   OH246317   5.461   5.729   2.458
 8301TIP3    H146318   5.432   5.683   2.537
 8301TIP3    H246319   5.552   5.701   2.447
 8302TIP3   OH246320   0.827   5.752   0.873
 8302TIP3    H146321   0.741   5.712   0.861
 8302TIP3    H246322   0.889   5.680   0.858
 8303TIP3   OH246323   4.075   6.095   2.847
 8303TIP3    H146324   4.014   6.126   2.915
 8303TIP3    H246325   4.045   6.006   2.827
 8304TIP3   OH246326   4.992   1.250  11.244
 8304TIP3    H146327   4.970   1.176  11.188
 8304TIP3    H246328   4.948   1.231  11.327
 8305TIP3   OH246329   2.247   6.250   2.785
 8305TIP3    H146330   2.290   6.331   2.810
 8305TIP3    H246331   2.237   6.256   2.690
 8306TIP3   OH246332   2.446   3.171   1.970
 8306TIP3    H146333   2.516   3.232   1.994
 8306TIP3    H246334   2.491   3.087   1.958
 8307TIP3   OH246335   6.045   1.986   2.041
 8307TIP3    H146336   5.952   2.001   2.022
 8307TIP3    H246337   6.075   2.068   2.079
 8308TIP3   OH246338   0.122   0.733   4.019
 8308TIP3    H146339   0.142   0.812   3.970
 8308TIP3    H246340   0.078   0.764   4.098
 8309TIP3   OH246341   5.892   2.274  12.298
 8309TIP3    H146342   5.955   2.234  12.357
 8309TIP3    H246343   5.843   2.335  12.353
 8310TIP3   OH246344   0.544   2.367  16.556
 8310TIP3    H146345   0.532   2.447  16.505
 8310TIP3    H246346   0.474   2.309  16.526
 8311TIP3   OH246347   3.388   0.238  11.520
 8311TIP3    H146348   3.388   0.194  11.605
 8311TIP3    H246349   3.480   0.247  11.497
 8312TIP3   OH246350   0.140   4.988   2.901
 8312TIP3    H146351   0.099   4.987   2.815
 8312TIP3    H246352   0.233   5.004   2.884
 8313TIP3   OH246353   5.122   2.331   1.530
 8313TIP3    H146354   5.096   2.422   1.542
 8313TIP3    H246355   5.045   2.290   1.491
 8314TIP3   OH246356   3.133   5.821  16.453
 8314TIP3    H146357   3.166   5.903  16.490
 8314TIP3    H246358   3.142   5.833  16.358
 8315TIP3   OH246359   3.877   3.387  14.804
 8315TIP3    H146360   3.877   3.482  14.791
 8315TIP3    H246361   3.969   3.366  14.824
 8316TIP3   OH246362   3.768   4.039   4.610
 8316TIP3    H146363   3.760   4.012   4.702
 8316TIP3    H246364   3.678   4.041   4.578
 8317TIP3   OH246365   2.369   1.276   4.717
 8317TIP3    H146366   2.289   1.226   4.702
 8317TIP3    H246367   2.395   1.306   4.630
 8318TIP3   OH246368   5.994   2.056   3.555
 8318TIP3    H146369   5.974   2.127   3.617
 8318TIP3    H246370   5.911   2.012   3.541
 8319TIP3   OH246371   6.263   5.638  11.956
 8319TIP3    H146372   6.238   5.720  11.913
 8319TIP3    H246373   6.238   5.570  11.894
 8320TIP3   OH246374   1.647   5.772   1.255
 8320TIP3    H146375   1.620   5.815   1.174
 8320TIP3    H246376   1.738   5.748   1.240
 8321TIP3   OH246377   1.183   4.834  16.718
 8321TIP3    H146378   1.161   4.794  16.634
 8321TIP3    H246379   1.265   4.879  16.702
 8322TIP3   OH246380   4.861   5.195  13.659
 8322TIP3    H146381   4.816   5.164  13.738
 8322TIP3    H246382   4.953   5.176  13.676
 8323TIP3   OH246383   2.905   0.594  12.561
 8323TIP3    H146384   2.959   0.666  12.594
 8323TIP3    H246385   2.966   0.535  12.518
 8324TIP3   OH246386   2.446   2.655  12.552
 8324TIP3    H146387   2.400   2.639  12.470
 8324TIP3    H246388   2.390   2.617  12.620
 8325TIP3   OH246389   4.002   6.170   5.473
 8325TIP3    H146390   4.069   6.198   5.411
 8325TIP3    H246391   3.920   6.180   5.425
 8326TIP3   OH246392   3.112   4.560  13.893
 8326TIP3    H146393   3.048   4.626  13.870
 8326TIP3    H246394   3.172   4.604  13.954
 8327TIP3   OH246395   5.367   1.264  11.598
 8327TIP3    H146396   5.335   1.218  11.521
 8327TIP3    H246397   5.406   1.194  11.652
 8328TIP3   OH246398   2.279   6.624  16.158
 8328TIP3    H146399   2.252   6.598  16.246
 8328TIP3    H246400   2.372   6.601  16.154
 8329TIP3   OH246401   4.741   1.243   3.323
 8329TIP3    H146402   4.807   1.192   3.370
 8329TIP3    H246403   4.724   1.192   3.243
 8330TIP3   OH246404   1.308   6.782   0.473
 8330TIP3    H146405   1.383   6.808   0.420
 8330TIP3    H246406   1.328   6.692   0.501
 8331TIP3   OH246407   1.634   3.009  15.546
 8331TIP3    H146408   1.588   2.954  15.609
 8331TIP3    H246409   1.725   2.977  15.548
 8332TIP3   OH246410   0.027   2.312  14.042
 8332TIP3    H146411   0.079   2.376  13.993
 8332TIP3    H246412  -0.002   2.249  13.976
 8333TIP3   OH246413   2.203   0.528  14.169
 8333TIP3    H146414   2.159   0.455  14.212
 8333TIP3    H246415   2.229   0.494  14.084
 8334TIP3   OH246416   2.943   5.649  16.763
 8334TIP3    H146417   3.022   5.690  16.729
 8334TIP3    H246418   2.974   5.569  16.805
 8335TIP3   OH246419   1.081   2.832  11.428
 8335TIP3    H146420   1.110   2.907  11.481
 8335TIP3    H246421   1.007   2.796  11.476
 8336TIP3   OH246422   4.534   0.372  10.814
 8336TIP3    H146423   4.538   0.353  10.720
 8336TIP3    H246424   4.499   0.461  10.820
 8337TIP3   OH246425   5.607   1.710  13.233
 8337TIP3    H146426   5.537   1.724  13.296
 8337TIP3    H246427   5.679   1.766  13.262
 8338TIP3   OH246428   1.794   3.427   2.961
 8338TIP3    H146429   1.845   3.346   2.956
 8338TIP3    H246430   1.858   3.496   2.943
 8339TIP3   OH246431   5.559   2.986   4.249
 8339TIP3    H146432   5.597   3.050   4.189
 8339TIP3    H246433   5.470   2.973   4.218
 8340TIP3   OH246434   0.933   4.373   2.906
 8340TIP3    H146435   1.015   4.364   2.857
 8340TIP3    H246436   0.867   4.393   2.839
 8341TIP3   OH246437   1.248   6.640   3.472
 8341TIP3    H146438   1.181   6.595   3.524
 8341TIP3    H246439   1.307   6.571   3.444
 8342TIP3   OH246440   1.878   4.528   6.449
 8342TIP3    H146441   1.837   4.488   6.372
 8342TIP3    H246442   1.816   4.595   6.478
 8343TIP3   OH246443   2.549   1.650   0.160
 8343TIP3    H146444   2.527   1.621   0.249
 8343TIP3    H246445   2.644   1.663   0.161
 8344TIP3   OH246446   2.420   5.791  14.844
 8344TIP3    H146447   2.411   5.774  14.750
 8344TIP3    H246448   2.375   5.874  14.858
 8345TIP3   OH246449   0.287   0.595  17.149
 8345TIP3    H146450   0.277   0.684  17.115
 8345TIP3    H246451   0.297   0.541  17.071
 8346TIP3   OH246452   3.645   1.122  12.034
 8346TIP3    H146453   3.640   1.155  12.124
 8346TIP3    H246454   3.720   1.062  12.035
 8347TIP3   OH246455   0.464   5.989   5.385
 8347TIP3    H146456   0.514   6.068   5.364
 8347TIP3    H246457   0.530   5.922   5.400
 8348TIP3   OH246458   4.071   3.703   4.185
 8348TIP3    H146459   4.028   3.644   4.247
 8348TIP3    H246460   4.153   3.660   4.163
 8349TIP3   OH246461   1.869   4.190   5.178
 8349TIP3    H146462   1.953   4.211   5.219
 8349TIP3    H246463   1.813   4.167   5.252
 8350TIP3   OH246464   1.002   4.117   6.340
 8350TIP3    H146465   1.010   4.030   6.302
 8350TIP3    H246466   1.091   4.139   6.370
 8351TIP3   OH246467   5.870   0.364  13.383
 8351TIP3    H146468   5.824   0.283  13.405
 8351TIP3    H246469   5.849   0.424  13.455
 8352TIP3   OH246470   5.934   2.565  11.948
 8352TIP3    H146471   5.968   2.476  11.942
 8352TIP3    H246472   5.911   2.588  11.858
 8353TIP3   OH246473   5.441   4.783  11.521
 8353TIP3    H146474   5.505   4.853  11.509
 8353TIP3    H246475   5.483   4.721  11.580
 8354TIP3   OH246476   3.713   6.169  14.339
 8354TIP3    H146477   3.784   6.203  14.285
 8354TIP3    H246478   3.662   6.246  14.364
 8355TIP3   OH246479   4.063   0.004   2.355
 8355TIP3    H146480   3.984   0.057   2.352
 8355TIP3    H246481   4.096   0.005   2.265
 8356TIP3   OH246482   6.071   4.682  14.075
 8356TIP3    H146483   5.988   4.635  14.072
 8356TIP3    H246484   6.136   4.618  14.045
 8357TIP3   OH246485   5.342   3.630   4.659
 8357TIP3    H146486   5.285   3.576   4.714
 8357TIP3    H246487   5.288   3.706   4.637
 8358TIP3   OH246488   3.565   4.192  12.656
 8358TIP3    H146489   3.607   4.110  12.631
 8358TIP3    H246490   3.607   4.216  12.739
 8359TIP3   OH246491   5.560   2.740   1.317
 8359TIP3    H146492   5.626   2.759   1.384
 8359TIP3    H246493   5.480   2.782   1.349
 8360TIP3   OH246494   5.855   6.139  12.597
 8360TIP3    H146495   5.940   6.099  12.582
 8360TIP3    H246496   5.821   6.156  12.509
 8361TIP3   OH246497   6.263   5.676   5.041
 8361TIP3    H146498   6.232   5.590   5.012
 8361TIP3    H246499   6.193   5.736   5.015
 8362TIP3   OH246500   2.735   2.025   0.323
 8362TIP3    H146501   2.749   1.967   0.398
 8362TIP3    H246502   2.822   2.058   0.302
 8363TIP3   OH246503   4.576   6.572   2.259
 8363TIP3    H146504   4.671   6.561   2.253
 8363TIP3    H246505   4.564   6.648   2.316
 8364TIP3   OH246506   3.860   5.207   1.926
 8364TIP3    H146507   3.854   5.113   1.909
 8364TIP3    H246508   3.907   5.213   2.009
 8365TIP3   OH246509   5.453   4.788   1.393
 8365TIP3    H146510   5.369   4.759   1.430
 8365TIP3    H246511   5.502   4.707   1.381
 8366TIP3   OH246512   0.373   4.044   0.953
 8366TIP3    H146513   0.367   4.139   0.956
 8366TIP3    H246514   0.460   4.027   0.916
 8367TIP3   OH246515   5.781   5.860  13.575
 8367TIP3    H146516   5.818   5.815  13.651
 8367TIP3    H246517   5.700   5.900  13.607
 8368TIP3   OH246518   1.850   2.775  15.053
 8368TIP3    H146519   1.773   2.728  15.023
 8368TIP3    H246520   1.837   2.787  15.147
 8369TIP3   OH246521   4.386   4.099  11.673
 8369TIP3    H146522   4.308   4.126  11.721
 8369TIP3    H246523   4.434   4.181  11.658
 8370TIP3   OH246524   5.249   4.289  15.743
 8370TIP3    H146525   5.268   4.233  15.817
 8370TIP3    H246526   5.324   4.280  15.685
 8371TIP3   OH246527   4.155   1.327   6.189
 8371TIP3    H146528   4.206   1.355   6.265
 8371TIP3    H246529   4.065   1.355   6.208
 8372TIP3   OH246530   5.478   2.284   0.698
 8372TIP3    H146531   5.436   2.358   0.743
 8372TIP3    H246532   5.414   2.256   0.632
 8373TIP3   OH246533   4.007   5.103  13.933
 8373TIP3    H146534   3.956   5.082  13.855
 8373TIP3    H246535   3.945   5.147  13.991
 8374TIP3   OH246536   4.986   2.136   0.315
 8374TIP3    H146537   4.955   2.048   0.338
 8374TIP3    H246538   5.077   2.123   0.289
 8375TIP3   OH246539   2.310   5.680   3.066
 8375TIP3    H146540   2.350   5.761   3.098
 8375TIP3    H246541   2.225   5.677   3.109
 8376TIP3   OH246542   3.022   1.161  11.721
 8376TIP3    H146543   3.056   1.136  11.635
 8376TIP3    H246544   2.945   1.105  11.734
 8377TIP3   OH246545   6.478   2.548   2.733
 8377TIP3    H146546   6.385   2.546   2.756
 8377TIP3    H246547   6.506   2.456   2.737
 8378TIP3   OH246548   3.102   2.854   3.965
 8378TIP3    H146549   3.159   2.908   4.019
 8378TIP3    H246550   3.021   2.847   4.015
 8379TIP3   OH246551   6.265   0.095   2.758
 8379TIP3    H146552   6.232   0.041   2.830
 8379TIP3    H246553   6.204   0.079   2.687
 8380TIP3   OH246554   4.653   1.063   6.143
 8380TIP3    H146555   4.658   1.132   6.210
 8380TIP3    H246556   4.744   1.040   6.126
 8381TIP3   OH246557   4.207   0.524   2.501
 8381TIP3    H146558   4.130   0.561   2.457
 8381TIP3    H246559   4.231   0.589   2.567
 8382TIP3   OH246560   6.028   3.886  10.812
 8382TIP3    H146561   6.051   3.798  10.844
 8382TIP3    H246562   5.954   3.871  10.753
 8383TIP3   OH246563   6.692   5.095  10.683
 8383TIP3    H146564   6.621   5.134  10.631
 8383TIP3    H246565   6.647   5.048  10.753
 8384TIP3   OH246566   1.326   5.497  14.386
 8384TIP3    H146567   1.320   5.404  14.406
 8384TIP3    H246568   1.342   5.501  14.292
 8385TIP3   OH246569   5.624   4.265   3.876
 8385TIP3    H146570   5.706   4.252   3.924
 8385TIP3    H246571   5.589   4.348   3.908
 8386TIP3   OH246572   6.757   6.672  12.002
 8386TIP3    H146573   6.752   6.705  12.091
 8386TIP3    H246574   6.851   6.673  11.981
 8387TIP3   OH246575   1.123   3.572  13.406
 8387TIP3    H146576   1.105   3.501  13.345
 8387TIP3    H246577   1.116   3.532  13.493
 8388TIP3   OH246578   1.868   0.608  14.466
 8388TIP3    H146579   1.811   0.614  14.543
 8388TIP3    H246580   1.928   0.536  14.487
 8389TIP3   OH246581   5.499   5.436   2.220
 8389TIP3    H146582   5.444   5.454   2.143
 8389TIP3    H246583   5.531   5.347   2.207
 8390TIP3   OH246584   6.291   5.716   0.135
 8390TIP3    H146585   6.308   5.706   0.229
 8390TIP3    H246586   6.374   5.696   0.093
 8391TIP3   OH246587   5.833   2.669  13.482
 8391TIP3    H146588   5.757   2.623  13.519
 8391TIP3    H246589   5.821   2.760  13.508
 8392TIP3   OH246590   0.509   6.670   4.833
 8392TIP3    H146591   0.533   6.605   4.899
 8392TIP3    H246592   0.480   6.618   4.758
 8393TIP3   OH246593   3.089   3.903   5.764
 8393TIP3    H146594   3.130   3.979   5.723
 8393TIP3    H246595   3.000   3.902   5.729
 8394TIP3   OH246596   3.006   6.020  13.207
 8394TIP3    H146597   3.068   6.076  13.254
 8394TIP3    H246598   2.938   6.001  13.272
 8395TIP3   OH246599   2.104   2.557   0.291
 8395TIP3    H146600   2.166   2.558   0.218
 8395TIP3    H246601   2.063   2.643   0.289
 8396TIP3   OH246602   6.449   5.635  11.090
 8396TIP3    H146603   6.507   5.694  11.139
 8396TIP3    H246604   6.387   5.602  11.155
 8397TIP3   OH246605   5.308   3.994  16.794
 8397TIP3    H146606   5.347   4.061  16.849
 8397TIP3    H246607   5.358   3.996  16.712
 8398TIP3   OH246608   5.194   6.778   4.307
 8398TIP3    H146609   5.128   6.732   4.256
 8398TIP3    H246610   5.255   6.813   4.242
 8399TIP3   OH246611   1.699   5.629  11.308
 8399TIP3    H146612   1.785   5.589  11.318
 8399TIP3    H246613   1.638   5.556  11.313
 8400TIP3   OH246614   0.713   3.398  14.499
 8400TIP3    H146615   0.781   3.465  14.502
 8400TIP3    H246616   0.760   3.318  14.471
 8401TIP3   OH246617   2.959   2.533   1.994
 8401TIP3    H146618   3.021   2.582   2.048
 8401TIP3    H246619   2.922   2.467   2.053
 8402TIP3   OH246620   2.964   3.881  16.809
 8402TIP3    H146621   2.945   3.964  16.765
 8402TIP3    H246622   3.058   3.883  16.825
 8403TIP3   OH246623   0.348   2.263  13.696
 8403TIP3    H146624   0.368   2.354  13.719
 8403TIP3    H246625   0.270   2.243  13.748
 8404TIP3   OH246626   1.310   2.214  16.844
 8404TIP3    H146627   1.342   2.303  16.833
 8404TIP3    H246628   1.325   2.195  16.937
 8405TIP3   OH246629   4.850   5.229  11.137
 8405TIP3    H146630   4.777   5.287  11.114
 8405TIP3    H246631   4.918   5.249  11.074
 8406TIP3   OH246632   3.231   1.849  16.635
 8406TIP3    H146633   3.192   1.924  16.679
 8406TIP3    H246634   3.185   1.845  16.550
 8407TIP3   OH246635   0.140   3.822   1.060
 8407TIP3    H146636   0.170   3.816   0.969
 8407TIP3    H246637   0.115   3.914   1.070
 8408TIP3   OH246638   1.159   0.349   3.353
 8408TIP3    H146639   1.072   0.338   3.317
 8408TIP3    H246640   1.217   0.304   3.292
 8409TIP3   OH246641   5.818   3.456   3.134
 8409TIP3    H146642   5.819   3.414   3.220
 8409TIP3    H246643   5.742   3.419   3.089
 8410TIP3   OH246644   3.986   5.179  11.693
 8410TIP3    H146645   3.912   5.137  11.735
 8410TIP3    H246646   3.984   5.269  11.726
 8411TIP3   OH246647   2.686   4.215   6.717
 8411TIP3    H146648   2.735   4.229   6.799
 8411TIP3    H246649   2.751   4.178   6.657
 8412TIP3   OH246650   3.181   0.904  14.097
 8412TIP3    H146651   3.207   0.843  14.027
 8412TIP3    H246652   3.099   0.867  14.131
 8413TIP3   OH246653   0.882   0.010   1.722
 8413TIP3    H146654   0.839  -0.067   1.683
 8413TIP3    H246655   0.842   0.018   1.809
 8414TIP3   OH246656   5.834   5.254   2.272
 8414TIP3    H146657   5.929   5.270   2.267
 8414TIP3    H246658   5.819   5.232   2.364
 8415TIP3   OH246659   4.063   3.253  13.560
 8415TIP3    H146660   3.969   3.233  13.569
 8415TIP3    H246661   4.068   3.308  13.482
 8416TIP3   OH246662   3.312   0.138   0.077
 8416TIP3    H146663   3.303   0.128  -0.018
 8416TIP3    H246664   3.346   0.226   0.089
 8417TIP3   OH246665   5.643   2.521   0.536
 8417TIP3    H146666   5.549   2.502   0.538
 8417TIP3    H246667   5.673   2.505   0.626
 8418TIP3   OH246668   0.356   2.774  13.216
 8418TIP3    H146669   0.361   2.680  13.199
 8418TIP3    H246670   0.263   2.794  13.217
 8419TIP3   OH246671   6.267   0.220  13.601
 8419TIP3    H146672   6.259   0.305  13.558
 8419TIP3    H246673   6.262   0.240  13.695
 8420TIP3   OH246674   1.439   6.717   4.283
 8420TIP3    H146675   1.379   6.684   4.217
 8420TIP3    H246676   1.390   6.786   4.329
 8421TIP3   OH246677   0.935   4.154  14.813
 8421TIP3    H146678   0.971   4.192  14.733
 8421TIP3    H246679   1.012   4.132  14.866
 8422TIP3   OH246680   5.795   1.795   1.236
 8422TIP3    H146681   5.724   1.757   1.185
 8422TIP3    H246682   5.805   1.736   1.310
 8423TIP3   OH246683   1.520   4.423  14.382
 8423TIP3    H146684   1.586   4.493  14.385
 8423TIP3    H246685   1.572   4.342  14.379
 8424TIP3   OH246686   1.070   4.614   4.358
 8424TIP3    H146687   1.129   4.666   4.413
 8424TIP3    H246688   1.127   4.567   4.298
 8425TIP3   OH246689   1.366   0.729  15.823
 8425TIP3    H146690   1.341   0.674  15.749
 8425TIP3    H246691   1.290   0.785  15.838
 8426TIP3   OH246692   5.889   0.843  15.789
 8426TIP3    H146693   5.876   0.915  15.727
 8426TIP3    H246694   5.878   0.884  15.875
 8427TIP3   OH246695   1.035   5.070   2.415
 8427TIP3    H146696   1.018   5.098   2.325
 8427TIP3    H246697   1.041   5.152   2.465
 8428TIP3   OH246698   3.846   0.473   4.737
 8428TIP3    H146699   3.913   0.404   4.732
 8428TIP3    H246700   3.793   0.460   4.658
 8429TIP3   OH246701   5.167   4.454   1.833
 8429TIP3    H146702   5.221   4.490   1.762
 8429TIP3    H246703   5.096   4.517   1.844
 8430TIP3   OH246704   0.216   5.681   5.031
 8430TIP3    H146705   0.263   5.683   4.948
 8430TIP3    H246706   0.146   5.618   5.019
 8431TIP3   OH246707   1.979   4.925  15.752
 8431TIP3    H146708   2.045   4.963  15.694
 8431TIP3    H246709   2.000   4.961  15.838
 8432TIP3   OH246710   5.581   0.305   1.798
 8432TIP3    H146711   5.653   0.294   1.736
 8432TIP3    H246712   5.530   0.224   1.789
 8433TIP3   OH246713   0.200   5.003   3.191
 8433TIP3    H146714   0.181   5.010   3.097
 8433TIP3    H246715   0.296   5.009   3.196
 8434TIP3   OH246716   2.852   1.810   1.155
 8434TIP3    H146717   2.870   1.828   1.063
 8434TIP3    H246718   2.763   1.777   1.156
 8435TIP3   OH246719   0.072   5.267   3.321
 8435TIP3    H146720   0.044   5.297   3.407
 8435TIP3    H246721  -0.003   5.220   3.286
 8436TIP3   OH246722   4.388   2.147  10.987
 8436TIP3    H146723   4.377   2.160  10.892
 8436TIP3    H246724   4.471   2.101  10.995
 8437TIP3   OH246725   0.072   5.538  14.654
 8437TIP3    H146726   0.157   5.581  14.665
 8437TIP3    H246727   0.026   5.592  14.591
 8438TIP3   OH246728   1.408   5.337   1.773
 8438TIP3    H146729   1.379   5.246   1.776
 8438TIP3    H246730   1.410   5.359   1.680
 8439TIP3   OH246731   6.409   1.597   0.268
 8439TIP3    H146732   6.475   1.608   0.336
 8439TIP3    H246733   6.452   1.624   0.187
 8440TIP3   OH246734   5.378   1.417   3.483
 8440TIP3    H146735   5.319   1.423   3.559
 8440TIP3    H246736   5.454   1.369   3.516
 8441TIP3   OH246737   4.912   2.232   6.693
 8441TIP3    H146738   4.892   2.310   6.745
 8441TIP3    H246739   5.002   2.245   6.662
 8442TIP3   OH246740   5.419   6.508  14.823
 8442TIP3    H146741   5.403   6.419  14.854
 8442TIP3    H246742   5.437   6.558  14.902
 8443TIP3   OH246743   6.185   0.690   3.381
 8443TIP3    H146744   6.094   0.692   3.353
 8443TIP3    H246745   6.204   0.780   3.408
 8444TIP3   OH246746   5.680   5.461   1.376
 8444TIP3    H146747   5.657   5.524   1.308
 8444TIP3    H246748   5.618   5.389   1.365
 8445TIP3   OH246749   3.257   5.860  10.814
 8445TIP3    H146750   3.289   5.949  10.799
 8445TIP3    H246751   3.313   5.805  10.759
 8446TIP3   OH246752   1.318   6.013   3.498
 8446TIP3    H146753   1.317   6.089   3.440
 8446TIP3    H246754   1.229   5.978   3.492
 8447TIP3   OH246755   6.754   0.686   0.951
 8447TIP3    H146756   6.760   0.701   0.856
 8447TIP3    H246757   6.690   0.751   0.981
 8448TIP3   OH246758   3.949   0.573   3.142
 8448TIP3    H146759   3.960   0.489   3.096
 8448TIP3    H246760   3.981   0.555   3.231
 8449TIP3   OH246761   0.887   0.284   3.277
 8449TIP3    H146762   0.834   0.235   3.214
 8449TIP3    H246763   0.823   0.325   3.336
 8450TIP3   OH246764   5.398   2.201   2.075
 8450TIP3    H146765   5.338   2.128   2.091
 8450TIP3    H246766   5.366   2.271   2.132
 8451TIP3   OH246767   4.061   5.607   0.007
 8451TIP3    H146768   4.007   5.678  -0.028
 8451TIP3    H246769   4.142   5.610  -0.044
 8452TIP3   OH246770   3.085   5.674  15.516
 8452TIP3    H146771   3.088   5.717  15.430
 8452TIP3    H246772   3.006   5.707  15.557
 8453TIP3   OH246773   4.071   4.298  15.430
 8453TIP3    H146774   4.104   4.387  15.447
 8453TIP3    H246775   4.085   4.286  15.336
 8454TIP3   OH246776   3.300   2.574  13.067
 8454TIP3    H146777   3.246   2.644  13.029
 8454TIP3    H246778   3.384   2.616  13.085
 8455TIP3   OH246779   2.869   6.187   1.861
 8455TIP3    H146780   2.938   6.169   1.924
 8455TIP3    H246781   2.916   6.214   1.782
 8456TIP3   OH246782   2.403   5.606   2.019
 8456TIP3    H146783   2.496   5.609   1.998
 8456TIP3    H246784   2.364   5.674   1.965
 8457TIP3   OH246785   0.759   5.988  13.830
 8457TIP3    H146786   0.797   6.075  13.838
 8457TIP3    H246787   0.738   5.962  13.920
 8458TIP3   OH246788   3.174   1.752   4.450
 8458TIP3    H146789   3.196   1.703   4.529
 8458TIP3    H246790   3.256   1.755   4.400
 8459TIP3   OH246791   1.408   6.571  12.760
 8459TIP3    H146792   1.398   6.476  12.770
 8459TIP3    H246793   1.319   6.604  12.754
 8460TIP3   OH246794   6.575   2.048  14.807
 8460TIP3    H146795   6.519   2.087  14.740
 8460TIP3    H246796   6.633   1.990  14.758
 8461TIP3   OH246797   6.329   0.835   4.632
 8461TIP3    H146798   6.400   0.776   4.608
 8461TIP3    H246799   6.264   0.778   4.675
 8462TIP3   OH246800   6.121   2.187  12.561
 8462TIP3    H146801   6.169   2.224  12.635
 8462TIP3    H246802   6.029   2.197  12.585
 8463TIP3   OH246803   3.341   4.528  15.003
 8463TIP3    H146804   3.262   4.561  15.046
 8463TIP3    H246805   3.403   4.514  15.074
 8464TIP3   OH246806   4.099   5.064  16.617
 8464TIP3    H146807   4.034   5.103  16.558
 8464TIP3    H246808   4.160   5.020  16.559
 8465TIP3   OH246809   5.980   5.023  10.160
 8465TIP3    H146810   6.060   5.002  10.112
 8465TIP3    H246811   5.964   5.115  10.142
 8466TIP3   OH246812   3.124   2.080  16.756
 8466TIP3    H146813   3.200   2.138  16.762
 8466TIP3    H246814   3.051   2.138  16.734
 8467TIP3   OH246815   2.333   0.477  16.628
 8467TIP3    H146816   2.406   0.506  16.574
 8467TIP3    H246817   2.350   0.384  16.645
 8468TIP3   OH246818   3.750   1.453  15.563
 8468TIP3    H146819   3.751   1.502  15.481
 8468TIP3    H246820   3.707   1.370  15.540
 8469TIP3   OH246821   5.466   3.853  12.406
 8469TIP3    H146822   5.460   3.778  12.466
 8469TIP3    H246823   5.552   3.891  12.425
 8470TIP3   OH246824   2.328   2.138   5.810
 8470TIP3    H146825   2.394   2.195   5.850
 8470TIP3    H246826   2.252   2.194   5.798
 8471TIP3   OH246827   3.734   2.083  11.448
 8471TIP3    H146828   3.828   2.099  11.439
 8471TIP3    H246829   3.694   2.140  11.383
 8472TIP3   OH246830   0.604   3.699   2.921
 8472TIP3    H146831   0.569   3.788   2.923
 8472TIP3    H246832   0.695   3.709   2.892
 8473TIP3   OH246833   1.238   0.151  10.384
 8473TIP3    H146834   1.260   0.244  10.375
 8473TIP3    H246835   1.144   0.147  10.367
 8474TIP3   OH246836   2.168   2.021   2.906
 8474TIP3    H146837   2.138   1.931   2.916
 8474TIP3    H246838   2.123   2.053   2.828
 8475TIP3   OH246839   4.341   3.555   4.145
 8475TIP3    H146840   4.364   3.541   4.237
 8475TIP3    H246841   4.389   3.487   4.098
 8476TIP3   OH246842   3.555   2.553   2.814
 8476TIP3    H146843   3.531   2.625   2.872
 8476TIP3    H246844   3.645   2.572   2.787
 8477TIP3   OH246845   6.571   3.114  15.762
 8477TIP3    H146846   6.590   3.183  15.826
 8477TIP3    H246847   6.615   3.142  15.682
 8478TIP3   OH246848   3.617   1.934  14.981
 8478TIP3    H146849   3.582   1.899  14.899
 8478TIP3    H246850   3.712   1.935  14.968
 8479TIP3   OH246851   1.109   5.005  15.679
 8479TIP3    H146852   1.167   5.001  15.603
 8479TIP3    H246853   1.023   5.026  15.642
 8480TIP3   OH246854   2.645   5.793   5.530
 8480TIP3    H146855   2.706   5.721   5.517
 8480TIP3    H246856   2.698   5.862   5.571
 8481TIP3   OH246857   1.401   2.473  16.808
 8481TIP3    H146858   1.307   2.491  16.813
 8481TIP3    H246859   1.438   2.554  16.773
 8482TIP3   OH246860   4.376   6.365   4.395
 8482TIP3    H146861   4.446   6.430   4.400
 8482TIP3    H246862   4.297   6.414   4.419
 8483TIP3   OH246863   1.288   1.848   5.898
 8483TIP3    H146864   1.348   1.919   5.924
 8483TIP3    H246865   1.248   1.819   5.980
 8484TIP3   OH246866   6.245   3.467   1.254
 8484TIP3    H146867   6.254   3.453   1.348
 8484TIP3    H246868   6.156   3.437   1.234
 8485TIP3   OH246869   4.161   6.048  17.190
 8485TIP3    H146870   4.201   6.097  17.118
 8485TIP3    H246871   4.236   6.015  17.240
 8486TIP3   OH246872   6.331   5.918   1.665
 8486TIP3    H146873   6.253   5.920   1.721
 8486TIP3    H246874   6.392   5.978   1.708
 8487TIP3   OH246875   3.241   4.599  16.883
 8487TIP3    H146876   3.277   4.514  16.857
 8487TIP3    H246877   3.249   4.654  16.806
 8488TIP3   OH246878   3.895   0.824   6.635
 8488TIP3    H146879   3.811   0.798   6.598
 8488TIP3    H246880   3.917   0.754   6.697
 8489TIP3   OH246881   3.008   4.723   6.046
 8489TIP3    H146882   3.044   4.687   6.127
 8489TIP3    H246883   2.917   4.742   6.067
 8490TIP3   OH246884   6.532   1.488   1.663
 8490TIP3    H146885   6.593   1.438   1.610
 8490TIP3    H246886   6.475   1.423   1.704
 8491TIP3   OH246887   3.338   2.444   3.190
 8491TIP3    H146888   3.353   2.516   3.251
 8491TIP3    H246889   3.301   2.487   3.112
 8492TIP3   OH246890   1.537   2.785  13.283
 8492TIP3    H146891   1.609   2.823  13.233
 8492TIP3    H246892   1.480   2.859  13.303
 8493TIP3   OH246893   1.537   6.705   0.757
 8493TIP3    H146894   1.528   6.621   0.803
 8493TIP3    H246895   1.589   6.683   0.679
 8494TIP3   OH246896   6.725   5.096  11.896
 8494TIP3    H146897   6.629   5.092  11.890
 8494TIP3    H246898   6.742   5.139  11.980
 8495TIP3   OH246899   4.859   4.282  12.665
 8495TIP3    H146900   4.811   4.222  12.608
 8495TIP3    H246901   4.937   4.305  12.615
 8496TIP3   OH246902   6.580   2.647  16.761
 8496TIP3    H146903   6.654   2.627  16.704
 8496TIP3    H246904   6.542   2.726  16.724
 8497TIP3   OH246905   5.837   1.687   5.534
 8497TIP3    H146906   5.856   1.596   5.513
 8497TIP3    H246907   5.866   1.698   5.624
 8498TIP3   OH246908   2.052   2.029   0.351
 8498TIP3    H146909   1.970   1.994   0.315
 8498TIP3    H246910   2.110   1.953   0.356
 8499TIP3   OH246911   5.645   3.646   2.801
 8499TIP3    H146912   5.716   3.585   2.782
 8499TIP3    H246913   5.573   3.618   2.745
 8500TIP3   OH246914   4.955   1.530   5.957
 8500TIP3    H146915   4.969   1.444   5.996
 8500TIP3    H246916   4.937   1.587   6.032
 8501TIP3   OH246917   5.231   0.560   0.012
 8501TIP3    H146918   5.254   0.481   0.061
 8501TIP3    H246919   5.288   0.628   0.049
 8502TIP3   OH246920   2.662   2.508  15.374
 8502TIP3    H146921   2.627   2.419  15.381
 8502TIP3    H246922   2.687   2.530  15.464
 8503TIP3   OH246923   2.426   0.855  13.527
 8503TIP3    H146924   2.458   0.942  13.550
 8503TIP3    H246925   2.338   0.852  13.563
 8504TIP3   OH246926   2.596   0.405  10.732
 8504TIP3    H146927   2.553   0.474  10.783
 8504TIP3    H246928   2.594   0.329  10.789
 8505TIP3   OH246929   6.548   1.279  15.839
 8505TIP3    H146930   6.597   1.200  15.862
 8505TIP3    H246931   6.580   1.346  15.899
 8506TIP3   OH246932   6.169   0.665  14.692
 8506TIP3    H146933   6.200   0.603  14.758
 8506TIP3    H246934   6.209   0.748  14.715
 8507TIP3   OH246935   5.416   6.597   3.919
 8507TIP3    H146936   5.380   6.641   3.997
 8507TIP3    H246937   5.365   6.632   3.846
 8508TIP3   OH246938   3.907   0.733   1.910
 8508TIP3    H146939   3.981   0.787   1.939
 8508TIP3    H246940   3.851   0.794   1.862
 8509TIP3   OH246941   5.709   1.468   6.158
 8509TIP3    H146942   5.659   1.539   6.198
 8509TIP3    H246943   5.788   1.510   6.125
 8510TIP3   OH246944   2.175   1.117   4.993
 8510TIP3    H146945   2.109   1.186   4.998
 8510TIP3    H246946   2.168   1.084   4.903
 8511TIP3   OH246947   3.853   3.710  12.258
 8511TIP3    H146948   3.873   3.642  12.323
 8511TIP3    H246949   3.937   3.753  12.242
 8512TIP3   OH246950   4.759   0.698   4.249
 8512TIP3    H146951   4.680   0.691   4.196
 8512TIP3    H246952   4.729   0.687   4.339
 8513TIP3   OH246953   3.478   2.007   0.291
 8513TIP3    H146954   3.470   1.934   0.229
 8513TIP3    H246955   3.541   1.976   0.357
 8514TIP3   OH246956   4.308   0.614  17.172
 8514TIP3    H146957   4.245   0.542  17.165
 8514TIP3    H246958   4.264   0.679  17.226
 8515TIP3   OH246959   4.165   6.668  14.639
 8515TIP3    H146960   4.238   6.606  14.639
 8515TIP3    H246961   4.203   6.750  14.671
 8516TIP3   OH246962   2.496   0.954   1.271
 8516TIP3    H146963   2.419   0.907   1.241
 8516TIP3    H246964   2.486   0.961   1.365
 8517TIP3   OH246965   2.227   0.957   0.173
 8517TIP3    H146966   2.174   1.032   0.198
 8517TIP3    H246967   2.180   0.916   0.101
 8518TIP3   OH246968   4.464   1.246   2.234
 8518TIP3    H146969   4.408   1.263   2.310
 8518TIP3    H246970   4.428   1.300   2.164
 8519TIP3   OH246971   2.478   2.004  13.498
 8519TIP3    H146972   2.512   2.079  13.448
 8519TIP3    H246973   2.440   1.947  13.432
 8520TIP3   OH246974   4.379   4.037   7.003
 8520TIP3    H146975   4.349   4.030   6.912
 8520TIP3    H246976   4.351   4.124   7.031
 8521TIP3   OH246977   3.549   4.986  17.016
 8521TIP3    H146978   3.570   4.926  16.945
 8521TIP3    H246979   3.556   4.932  17.095
 8522TIP3   OH246980   0.828   0.817   0.392
 8522TIP3    H146981   0.912   0.861   0.401
 8522TIP3    H246982   0.819   0.766   0.472
 8523TIP3   OH246983   5.728   2.111   2.061
 8523TIP3    H146984   5.667   2.159   2.116
 8523TIP3    H246985   5.790   2.177   2.030
 8524TIP3   OH246986   5.936   2.340   3.658
 8524TIP3    H146987   5.953   2.404   3.728
 8524TIP3    H246988   5.883   2.273   3.701
 8525TIP3   OH246989   0.048   0.868   5.997
 8525TIP3    H146990   0.015   0.865   6.087
 8525TIP3    H246991  -0.000   0.798   5.952
 8526TIP3   OH246992   0.787   3.325   5.624
 8526TIP3    H146993   0.805   3.232   5.610
 8526TIP3    H246994   0.741   3.353   5.545
 8527TIP3   OH246995   6.115   5.918  13.858
 8527TIP3    H146996   6.065   5.839  13.876
 8527TIP3    H246997   6.109   5.969  13.939
 8528TIP3   OH246998   5.163   5.943   4.679
 8528TIP3    H146999   5.105   5.939   4.755
 8528TIP3    H247000   5.105   5.931   4.604
 8529TIP3   OH247001   0.338   0.274   4.521
 8529TIP3    H147002   0.294   0.234   4.446
 8529TIP3    H247003   0.412   0.216   4.539
 8530TIP3   OH247004   1.396   2.729   3.191
 8530TIP3    H147005   1.411   2.745   3.098
 8530TIP3    H247006   1.456   2.659   3.214
 8531TIP3   OH247007   2.256   4.569  12.644
 8531TIP3    H147008   2.221   4.538  12.560
 8531TIP3    H247009   2.344   4.531  12.649
 8532TIP3   OH247010   3.193   0.798  13.674
 8532TIP3    H147011   3.161   0.881  13.709
 8532TIP3    H247012   3.179   0.735  13.744
 8533TIP3   OH247013   6.785   0.895   4.802
 8533TIP3    H147014   6.825   0.811   4.828
 8533TIP3    H247015   6.724   0.915   4.873
 8534TIP3   OH247016   2.179   3.857   0.423
 8534TIP3    H147017   2.123   3.906   0.483
 8534TIP3    H247018   2.140   3.770   0.420
 8535TIP3   OH247019   3.721   5.678  15.661
 8535TIP3    H147020   3.815   5.693  15.650
 8535TIP3    H247021   3.684   5.694  15.574
 8536TIP3   OH247022   4.147   1.017  11.175
 8536TIP3    H147023   4.074   0.988  11.120
 8536TIP3    H247024   4.197   1.076  11.119
 8537TIP3   OH247025   5.451   5.356  12.264
 8537TIP3    H147026   5.502   5.390  12.190
 8537TIP3    H247027   5.431   5.266  12.239
 8538TIP3   OH247028   4.717   1.822   2.203
 8538TIP3    H147029   4.712   1.727   2.218
 8538TIP3    H247030   4.809   1.843   2.216
 8539TIP3   OH247031   4.291   5.000   1.429
 8539TIP3    H147032   4.301   5.096   1.431
 8539TIP3    H247033   4.373   4.968   1.393
 8540TIP3   OH247034   2.654   6.461   1.608
 8540TIP3    H147035   2.729   6.425   1.562
 8540TIP3    H247036   2.616   6.524   1.547
 8541TIP3   OH247037   5.590   2.714   3.952
 8541TIP3    H147038   5.578   2.720   4.047
 8541TIP3    H247039   5.536   2.639   3.926
 8542TIP3   OH247040   4.875   2.677   3.356
 8542TIP3    H147041   4.959   2.635   3.339
 8542TIP3    H247042   4.896   2.753   3.411
 8543TIP3   OH247043   5.749   2.240   0.555
 8543TIP3    H147044   5.697   2.269   0.629
 8543TIP3    H247045   5.686   2.227   0.485
 8544TIP3   OH247046   5.441   3.593  14.598
 8544TIP3    H147047   5.478   3.508  14.575
 8544TIP3    H247048   5.505   3.656  14.566
 8545TIP3   OH247049   3.307   1.714  12.953
 8545TIP3    H147050   3.252   1.758  13.017
 8545TIP3    H247051   3.390   1.761  12.956
 8546TIP3   OH247052   4.177   1.001  14.953
 8546TIP3    H147053   4.264   1.041  14.956
 8546TIP3    H247054   4.129   1.052  14.888
 8547TIP3   OH247055   4.694   3.913   3.031
 8547TIP3    H147056   4.648   3.991   3.001
 8547TIP3    H247057   4.698   3.923   3.126
 8548TIP3   OH247058   6.220   5.985  15.054
 8548TIP3    H147059   6.261   6.034  14.982
 8548TIP3    H247060   6.225   5.894  15.026
 8549TIP3   OH247061   1.689   1.584  12.543
 8549TIP3    H147062   1.670   1.678  12.550
 8549TIP3    H247063   1.704   1.556  12.633
 8550TIP3   OH247064   0.156   4.982  10.547
 8550TIP3    H147065   0.064   5.003  10.562
 8550TIP3    H247066   0.202   5.065  10.559
 8551TIP3   OH247067   6.660   3.607   2.483
 8551TIP3    H147068   6.687   3.526   2.439
 8551TIP3    H247069   6.742   3.656   2.494
 8552TIP3   OH247070   5.446   4.780  14.329
 8552TIP3    H147071   5.532   4.738  14.332
 8552TIP3    H247072   5.393   4.732  14.392
 8553TIP3   OH247073   5.852   6.783   1.087
 8553TIP3    H147074   5.869   6.769   0.993
 8553TIP3    H247075   5.916   6.728   1.131
 8554TIP3   OH247076   4.726   2.428  15.018
 8554TIP3    H147077   4.680   2.475  14.948
 8554TIP3    H247078   4.813   2.412  14.984
 8555TIP3   OH247079   6.235   2.581  12.177
 8555TIP3    H147080   6.189   2.573  12.261
 8555TIP3    H247081   6.325   2.601  12.201
 8556TIP3   OH247082   0.867   5.005   6.389
 8556TIP3    H147083   0.833   5.081   6.341
 8556TIP3    H247084   0.959   5.000   6.364
 8557TIP3   OH247085   3.583   1.586  15.055
 8557TIP3    H147086   3.585   1.534  14.975
 8557TIP3    H247087   3.668   1.630  15.058
 8558TIP3   OH247088   3.679   5.216  15.789
 8558TIP3    H147089   3.702   5.300  15.750
 8558TIP3    H247090   3.729   5.213  15.871
 8559TIP3   OH247091   5.674   6.762  15.865
 8559TIP3    H147092   5.665   6.787  15.773
 8559TIP3    H247093   5.594   6.794  15.907
 8560TIP3   OH247094   4.783   4.009   0.747
 8560TIP3    H147095   4.709   4.005   0.686
 8560TIP3    H247096   4.747   3.978   0.830
 8561TIP3   OH247097   2.851   0.429  14.115
 8561TIP3    H147098   2.900   0.492  14.168
 8561TIP3    H247099   2.876   0.344  14.151
 8562TIP3   OH247100   3.054   2.997   2.197
 8562TIP3    H147101   3.108   2.940   2.251
 8562TIP3    H247102   3.114   3.064   2.164
 8563TIP3   OH247103   0.596   3.675  14.473
 8563TIP3    H147104   0.679   3.627  14.473
 8563TIP3    H247105   0.529   3.606  14.472
 8564TIP3   OH247106   5.423   2.295  16.565
 8564TIP3    H147107   5.329   2.297  16.582
 8564TIP3    H247108   5.431   2.261  16.476
 8565TIP3   OH247109   5.254   3.328   3.776
 8565TIP3    H147110   5.174   3.362   3.814
 8565TIP3    H247111   5.300   3.287   3.849
 8566TIP3   OH247112   4.231   6.125   0.825
 8566TIP3    H147113   4.275   6.209   0.838
 8566TIP3    H247114   4.140   6.142   0.850
 8567TIP3   OH247115   0.448   5.386  12.127
 8567TIP3    H147116   0.536   5.370  12.093
 8567TIP3    H247117   0.458   5.389  12.222
 8568TIP3   OH247118   5.754   1.282  16.219
 8568TIP3    H147119   5.834   1.324  16.189
 8568TIP3    H247120   5.684   1.342  16.194
 8569TIP3   OH247121   5.459   2.391  15.265
 8569TIP3    H147122   5.530   2.417  15.207
 8569TIP3    H247123   5.472   2.444  15.344
 8570TIP3   OH247124   2.736   3.493  13.722
 8570TIP3    H147125   2.796   3.423  13.748
 8570TIP3    H247126   2.790   3.552  13.669
 8571TIP3   OH247127   3.990   4.679   4.359
 8571TIP3    H147128   3.934   4.602   4.362
 8571TIP3    H247129   3.949   4.742   4.418
 8572TIP3   OH247130   3.454   6.444  12.058
 8572TIP3    H147131   3.390   6.494  12.008
 8572TIP3    H247132   3.404   6.373  12.097
 8573TIP3   OH247133   3.227   4.532  13.397
 8573TIP3    H147134   3.250   4.511  13.307
 8573TIP3    H247135   3.152   4.476  13.417
 8574TIP3   OH247136   3.093   1.130   1.169
 8574TIP3    H147137   3.031   1.059   1.188
 8574TIP3    H247138   3.038   1.208   1.162
 8575TIP3   OH247139   6.710   2.080  12.176
 8575TIP3    H147140   6.778   2.143  12.154
 8575TIP3    H247141   6.716   2.070  12.271
 8576TIP3   OH247142   4.146   2.325   3.375
 8576TIP3    H147143   4.153   2.394   3.308
 8576TIP3    H247144   4.084   2.263   3.337
 8577TIP3   OH247145   0.306   4.840  15.802
 8577TIP3    H147146   0.286   4.756  15.843
 8577TIP3    H247147   0.295   4.825  15.708
 8578TIP3   OH247148   4.016   5.231  15.094
 8578TIP3    H147149   4.053   5.150  15.060
 8578TIP3    H247150   3.948   5.255  15.030
 8579TIP3   OH247151   3.621   6.713  16.474
 8579TIP3    H147152   3.581   6.690  16.390
 8579TIP3    H247153   3.624   6.808  16.475
 8580TIP3   OH247154   4.432   1.583   3.838
 8580TIP3    H147155   4.511   1.633   3.859
 8580TIP3    H247156   4.368   1.610   3.904
 8581TIP3   OH247157   1.518   0.495   5.339
 8581TIP3    H147158   1.424   0.512   5.343
 8581TIP3    H247159   1.528   0.428   5.271
 8582TIP3   OH247160   5.001   0.946  15.593
 8582TIP3    H147161   5.075   0.886  15.595
 8582TIP3    H247162   4.982   0.964  15.685
 8583TIP3   OH247163   0.225   5.528  11.695
 8583TIP3    H147164   0.294   5.481  11.742
 8583TIP3    H247165   0.217   5.611  11.741
 8584TIP3   OH247166   5.342   3.319   5.066
 8584TIP3    H147167   5.384   3.402   5.045
 8584TIP3    H247168   5.395   3.283   5.137
 8585TIP3   OH247169   4.121   4.030   3.242
 8585TIP3    H147170   4.106   3.973   3.317
 8585TIP3    H247171   4.201   3.997   3.202
 8586TIP3   OH247172   0.272   2.191   4.891
 8586TIP3    H147173   0.330   2.262   4.919
 8586TIP3    H247174   0.272   2.129   4.963
 8587TIP3   OH247175   0.436   1.242   2.203
 8587TIP3    H147176   0.489   1.282   2.272
 8587TIP3    H247177   0.471   1.279   2.122
 8588TIP3   OH247178   2.253   4.136  11.238
 8588TIP3    H147179   2.248   4.055  11.188
 8588TIP3    H247180   2.347   4.156  11.243
 8589TIP3   OH247181   2.705   2.760   5.275
 8589TIP3    H147182   2.725   2.670   5.302
 8589TIP3    H247183   2.747   2.815   5.341
 8590TIP3   OH247184   3.871   1.098   2.408
 8590TIP3    H147185   3.923   1.032   2.455
 8590TIP3    H247186   3.787   1.055   2.392
 8591TIP3   OH247187   6.393   0.913  16.943
 8591TIP3    H147188   6.401   1.006  16.962
 8591TIP3    H247189   6.428   0.870  17.021
 8592TIP3   OH247190   5.612   4.878   1.081
 8592TIP3    H147191   5.582   4.787   1.084
 8592TIP3    H247192   5.646   4.889   0.992
 8593TIP3   OH247193   3.158   5.018  15.127
 8593TIP3    H147194   3.105   5.006  15.205
 8593TIP3    H247195   3.139   4.941  15.073
 8594TIP3   OH247196   5.819   4.181   5.788
 8594TIP3    H147197   5.731   4.146   5.800
 8594TIP3    H247198   5.874   4.131   5.849
 8595TIP3   OH247199   0.275   6.371   0.507
 8595TIP3    H147200   0.238   6.429   0.573
 8595TIP3    H247201   0.370   6.377   0.519
 8596TIP3   OH247202   1.602   3.898  15.408
 8596TIP3    H147203   1.654   3.956  15.353
 8596TIP3    H247204   1.512   3.931  15.399
 8597TIP3   OH247205   1.008   0.444   0.087
 8597TIP3    H147206   1.088   0.401   0.056
 8597TIP3    H247207   1.039   0.517   0.141
 8598TIP3   OH247208   1.238   2.022  14.684
 8598TIP3    H147209   1.318   1.973  14.668
 8598TIP3    H247210   1.237   2.038  14.778
 8599TIP3   OH247211   1.913   2.083   3.243
 8599TIP3    H147212   1.863   2.007   3.213
 8599TIP3    H247213   1.898   2.086   3.337
 8600TIP3   OH247214   6.005   6.169  10.508
 8600TIP3    H147215   5.977   6.187  10.598
 8600TIP3    H247216   5.946   6.222  10.454
 8601TIP3   OH247217   6.090   1.511  14.927
 8601TIP3    H147218   6.035   1.526  14.849
 8601TIP3    H247219   6.112   1.599  14.957
 8602TIP3   OH247220   0.398   6.003  10.788
 8602TIP3    H147221   0.347   6.063  10.843
 8602TIP3    H247222   0.377   6.028  10.698
 8603TIP3   OH247223   3.346   3.605  11.265
 8603TIP3    H147224   3.334   3.633  11.174
 8603TIP3    H247225   3.438   3.579  11.270
 8604TIP3   OH247226   6.166   3.929   6.505
 8604TIP3    H147227   6.117   4.011   6.518
 8604TIP3    H247228   6.256   3.951   6.531
 8605TIP3   OH247229   6.264   6.660   2.422
 8605TIP3    H147230   6.302   6.637   2.338
 8605TIP3    H247231   6.339   6.682   2.477
 8606TIP3   OH247232   2.509   0.095   0.036
 8606TIP3    H147233   2.437   0.154   0.058
 8606TIP3    H247234   2.552   0.136  -0.039
 8607TIP3   OH247235   0.018   2.153  12.415
 8607TIP3    H147236  -0.047   2.197  12.470
 8607TIP3    H247237   0.087   2.218  12.403
 8608TIP3   OH247238   1.958   2.978   4.962
 8608TIP3    H147239   1.924   3.022   4.884
 8608TIP3    H247240   2.045   3.016   4.974
 8609TIP3   OH247241   2.925   1.738   3.063
 8609TIP3    H147242   2.998   1.761   3.006
 8609TIP3    H247243   2.936   1.794   3.140
 8610TIP3   OH247244   1.630   6.109   4.189
 8610TIP3    H147245   1.711   6.063   4.208
 8610TIP3    H247246   1.613   6.092   4.096
 8611TIP3   OH247247   3.884   1.800  11.240
 8611TIP3    H147248   3.946   1.867  11.209
 8611TIP3    H247249   3.934   1.719  11.236
 8612TIP3   OH247250   0.153   6.787   3.403
 8612TIP3    H147251   0.136   6.850   3.334
 8612TIP3    H247252   0.186   6.710   3.357
 8613TIP3   OH247253   2.834   0.970   2.628
 8613TIP3    H147254   2.896   0.968   2.555
 8613TIP3    H247255   2.886   1.002   2.703
 8614TIP3   OH247256   6.579   2.625  14.905
 8614TIP3    H147257   6.673   2.635  14.919
 8614TIP3    H247258   6.570   2.551  14.845
 8615TIP3   OH247259   3.175   3.910   5.336
 8615TIP3    H147260   3.241   3.868   5.391
 8615TIP3    H247261   3.127   3.967   5.395
 8616TIP3   OH247262   1.422   4.323  14.632
 8616TIP3    H147263   1.510   4.320  14.670
 8616TIP3    H247264   1.427   4.389  14.564
 8617TIP3   OH247265   1.734   5.325   5.126
 8617TIP3    H147266   1.703   5.271   5.053
 8617TIP3    H247267   1.828   5.308   5.129
 8618TIP3   OH247268   6.134   6.293  12.899
 8618TIP3    H147269   6.135   6.232  12.974
 8618TIP3    H247270   6.058   6.348  12.914
 8619TIP3   OH247271   5.166   4.299  16.581
 8619TIP3    H147272   5.117   4.341  16.511
 8619TIP3    H247273   5.180   4.209  16.552
 8620TIP3   OH247274   4.554   1.085   3.122
 8620TIP3    H147275   4.475   1.127   3.088
 8620TIP3    H247276   4.557   1.001   3.077
 8621TIP3   OH247277   2.127   5.570  13.656
 8621TIP3    H147278   2.151   5.518  13.579
 8621TIP3    H247279   2.198   5.555  13.718
 8622TIP3   OH247280   2.033   0.696   4.537
 8622TIP3    H147281   2.014   0.644   4.615
 8622TIP3    H247282   2.061   0.632   4.472
 8623TIP3   OH247283   4.289   4.531   4.155
 8623TIP3    H147284   4.324   4.591   4.090
 8623TIP3    H247285   4.356   4.463   4.164
 8624TIP3   OH247286   1.088   4.093   2.141
 8624TIP3    H147287   1.146   4.128   2.074
 8624TIP3    H247288   1.000   4.122   2.114
 8625TIP3   OH247289   1.020   1.985  11.097
 8625TIP3    H147290   1.078   1.991  11.172
 8625TIP3    H247291   0.937   2.019  11.128
 8626TIP3   OH247292   4.060   2.242  14.778
 8626TIP3    H147293   3.974   2.281  14.761
 8626TIP3    H247294   4.121   2.298  14.730
 8627TIP3   OH247295   2.833   2.440   4.745
 8627TIP3    H147296   2.918   2.465   4.782
 8627TIP3    H247297   2.835   2.344   4.744
 8628TIP3   OH247298   3.704   5.334  12.290
 8628TIP3    H147299   3.608   5.331  12.291
 8628TIP3    H247300   3.729   5.318  12.381
 8629TIP3   OH247301   4.161   5.106   1.058
 8629TIP3    H147302   4.068   5.100   1.038
 8629TIP3    H247303   4.181   5.026   1.105
 8630TIP3   OH247304   3.103   1.378   2.740
 8630TIP3    H147305   3.063   1.465   2.747
 8630TIP3    H247306   3.090   1.339   2.826
 8631TIP3   OH247307   1.514   6.464  14.860
 8631TIP3    H147308   1.480   6.376  14.844
 8631TIP3    H247309   1.436   6.520  14.860
 8632TIP3   OH247310   3.410   4.823   0.233
 8632TIP3    H147311   3.477   4.884   0.204
 8632TIP3    H247312   3.432   4.805   0.324
 8633TIP3   OH247313   5.584   2.601   2.436
 8633TIP3    H147314   5.550   2.685   2.465
 8633TIP3    H247315   5.674   2.620   2.410
 8634TIP3   OH247316   6.570   1.976   3.745
 8634TIP3    H147317   6.509   1.975   3.671
 8634TIP3    H247318   6.514   1.989   3.822
 8635TIP3   OH247319   2.501   0.376   4.248
 8635TIP3    H147320   2.422   0.324   4.234
 8635TIP3    H247321   2.477   0.441   4.314
 8636TIP3   OH247322   2.401   2.984  13.279
 8636TIP3    H147323   2.353   2.902  13.294
 8636TIP3    H247324   2.485   2.956  13.243
 8637TIP3   OH247325   5.052   2.742   0.295
 8637TIP3    H147326   5.093   2.660   0.267
 8637TIP3    H247327   5.013   2.778   0.215
 8638TIP3   OH247328   1.710   4.499   3.386
 8638TIP3    H147329   1.644   4.504   3.455
 8638TIP3    H247330   1.663   4.465   3.310
 8639TIP3   OH247331   0.527   5.243  14.188
 8639TIP3    H147332   0.455   5.285  14.236
 8639TIP3    H247333   0.596   5.230  14.253
 8640TIP3   OH247334   3.814   0.537   1.686
 8640TIP3    H147335   3.730   0.563   1.649
 8640TIP3    H247336   3.855   0.620   1.712
 8641TIP3   OH247337   1.335   4.587  14.510
 8641TIP3    H147338   1.355   4.677  14.537
 8641TIP3    H247339   1.396   4.571  14.437
 8642TIP3   OH247340   2.024   5.308   0.425
 8642TIP3    H147341   2.095   5.366   0.453
 8642TIP3    H247342   1.982   5.355   0.353
 8643TIP3   OH247343   1.363   0.657   4.124
 8643TIP3    H147344   1.284   0.648   4.070
 8643TIP3    H247345   1.356   0.745   4.162
 8644TIP3   OH247346   5.106   4.942   3.186
 8644TIP3    H147347   5.142   5.021   3.145
 8644TIP3    H247348   5.129   4.951   3.278
 8645TIP3   OH247349   2.023   1.695  13.440
 8645TIP3    H147350   2.008   1.700  13.346
 8645TIP3    H247351   2.072   1.775  13.461
 8646TIP3   OH247352   2.920   0.689  11.353
 8646TIP3    H147353   2.979   0.673  11.427
 8646TIP3    H247354   2.940   0.620  11.291
 8647TIP3   OH247355   5.356   2.260  11.302
 8647TIP3    H147356   5.342   2.266  11.397
 8647TIP3    H247357   5.269   2.242  11.267
 8648TIP3   OH247358   5.034   1.822  11.309
 8648TIP3    H147359   5.046   1.913  11.279
 8648TIP3    H247360   5.123   1.787  11.316
 8649TIP3   OH247361   5.881   4.277  13.487
 8649TIP3    H147362   5.972   4.246  13.488
 8649TIP3    H247363   5.874   4.333  13.564
 8650TIP3   OH247364   3.421   2.784  14.209
 8650TIP3    H147365   3.332   2.792  14.244
 8650TIP3    H247366   3.437   2.868  14.166
 8651TIP3   OH247367   2.938   5.677   4.362
 8651TIP3    H147368   2.986   5.612   4.311
 8651TIP3    H247369   2.958   5.761   4.321
 8652TIP3   OH247370   2.640   3.320   2.327
 8652TIP3    H147371   2.618   3.397   2.380
 8652TIP3    H247372   2.624   3.246   2.385
 8653TIP3   OH247373   0.536   6.057   1.686
 8653TIP3    H147374   0.577   6.037   1.602
 8653TIP3    H247375   0.543   5.975   1.736
 8654TIP3   OH247376   6.011   2.356  12.925
 8654TIP3    H147377   5.923   2.351  12.963
 8654TIP3    H247378   5.995   2.375  12.832
 8655TIP3   OH247379   3.222   4.696  16.337
 8655TIP3    H147380   3.261   4.620  16.380
 8655TIP3    H247381   3.230   4.677  16.243
 8656TIP3   OH247382   5.959   2.658   3.599
 8656TIP3    H147383   5.890   2.616   3.651
 8656TIP3    H247384   6.040   2.640   3.648
 8657TIP3   OH247385   4.083   1.341   3.915
 8657TIP3    H147386   4.020   1.372   3.979
 8657TIP3    H247387   4.168   1.365   3.951
 8658TIP3   OH247388   6.372   4.469   1.577
 8658TIP3    H147389   6.285   4.499   1.603
 8658TIP3    H247390   6.397   4.526   1.504
 8659TIP3   OH247391   5.118   4.637   6.000
 8659TIP3    H147392   5.177   4.699   6.044
 8659TIP3    H247393   5.059   4.606   6.069
 8660TIP3   OH247394   6.341   1.248  16.477
 8660TIP3    H147395   6.314   1.157  16.468
 8660TIP3    H247396   6.413   1.258  16.415
 8661TIP3   OH247397   0.013   5.482   4.983
 8661TIP3    H147398   0.018   5.388   4.996
 8661TIP3    H247399  -0.080   5.503   4.997
 8662TIP3   OH247400   0.988   6.551   2.528
 8662TIP3    H147401   0.896   6.573   2.540
 8662TIP3    H247402   1.033   6.594   2.601
 8663TIP3   OH247403   6.287   1.902   2.731
 8663TIP3    H147404   6.360   1.911   2.670
 8663TIP3    H247405   6.211   1.935   2.682
 8664TIP3   OH247406   4.874   0.078   0.865
 8664TIP3    H147407   4.847   0.066   0.956
 8664TIP3    H247408   4.942   0.012   0.852
 8665TIP3   OH247409   6.640   6.403   1.357
 8665TIP3    H147410   6.670   6.320   1.319
 8665TIP3    H247411   6.721   6.451   1.375
 8666TIP3   OH247412   4.119   2.158   2.917
 8666TIP3    H147413   4.058   2.087   2.899
 8666TIP3    H247414   4.200   2.113   2.942
 8667TIP3   OH247415   0.859   6.658  13.316
 8667TIP3    H147416   0.865   6.749  13.285
 8667TIP3    H247417   0.950   6.633  13.331
 8668TIP3   OH247418   2.064   0.078  13.543
 8668TIP3    H147419   2.123   0.129  13.488
 8668TIP3    H247420   2.063   0.124  13.627
 8669TIP3   OH247421   5.201   1.773   5.080
 8669TIP3    H147422   5.269   1.742   5.141
 8669TIP3    H247423   5.119   1.760   5.127
 8670TIP3   OH247424   1.803   1.904  12.881
 8670TIP3    H147425   1.874   1.861  12.833
 8670TIP3    H247426   1.769   1.836  12.939
 8671TIP3   OH247427   1.712   4.625  14.312
 8671TIP3    H147428   1.790   4.595  14.358
 8671TIP3    H247429   1.730   4.607  14.220
 8672TIP3   OH247430   3.858   0.254  15.139
 8672TIP3    H147431   3.952   0.239  15.137
 8672TIP3    H247432   3.839   0.306  15.061
 8673TIP3   OH247433   3.676   6.190   0.663
 8673TIP3    H147434   3.709   6.101   0.654
 8673TIP3    H247435   3.752   6.242   0.690
 8674TIP3   OH247436   5.879   0.335   1.076
 8674TIP3    H147437   5.919   0.286   1.004
 8674TIP3    H247438   5.953   0.372   1.123
 8675TIP3   OH247439   5.635   3.777  12.030
 8675TIP3    H147440   5.659   3.754  12.120
 8675TIP3    H247441   5.622   3.872  12.033
 8676TIP3   OH247442   4.069   5.444  11.055
 8676TIP3    H147443   4.067   5.430  10.961
 8676TIP3    H247444   4.085   5.357  11.092
 8677TIP3   OH247445   0.567   5.000  14.697
 8677TIP3    H147446   0.605   5.023  14.612
 8677TIP3    H247447   0.612   5.058  14.759
 8678TIP3   OH247448   2.481   3.133  16.960
 8678TIP3    H147449   2.521   3.208  17.005
 8678TIP3    H247450   2.505   3.146  16.868
 8679TIP3   OH247451   5.801   4.715  15.416
 8679TIP3    H147452   5.748   4.795  15.411
 8679TIP3    H247453   5.813   4.689  15.324
 8680TIP3   OH247454   3.387   2.604  11.459
 8680TIP3    H147455   3.309   2.591  11.405
 8680TIP3    H247456   3.355   2.651  11.536
 8681TIP3   OH247457   0.596   6.625  11.721
 8681TIP3    H147458   0.541   6.703  11.721
 8681TIP3    H247459   0.576   6.581  11.804
 8682TIP3   OH247460   5.120   0.481   0.531
 8682TIP3    H147461   5.032   0.516   0.512
 8682TIP3    H247462   5.106   0.414   0.597
 8683TIP3   OH247463   4.584   3.780  16.018
 8683TIP3    H147464   4.540   3.858  16.052
 8683TIP3    H247465   4.610   3.804  15.929
 8684TIP3   OH247466   5.903   5.919   6.044
 8684TIP3    H147467   5.829   5.978   6.056
 8684TIP3    H247468   5.872   5.854   5.980
 8685TIP3   OH247469   5.689   0.037  13.697
 8685TIP3    H147470   5.743  -0.040  13.713
 8685TIP3    H247471   5.605   0.002  13.667
 8686TIP3   OH247472   4.274   6.294   5.394
 8686TIP3    H147473   4.285   6.345   5.474
 8686TIP3    H247474   4.360   6.298   5.351
 8687TIP3   OH247475   0.881   5.773   5.640
 8687TIP3    H147476   0.921   5.723   5.711
 8687TIP3    H247477   0.915   5.862   5.650
 8688TIP3   OH247478   3.865   4.619   1.414
 8688TIP3    H147479   3.953   4.604   1.379
 8688TIP3    H247480   3.874   4.695   1.471
 8689TIP3   OH247481   6.092   3.919  10.494
 8689TIP3    H147482   6.015   3.939  10.442
 8689TIP3    H247483   6.089   3.982  10.566
 8690TIP3   OH247484   1.192   0.179  12.289
 8690TIP3    H147485   1.279   0.152  12.259
 8690TIP3    H247486   1.165   0.246  12.226
 8691TIP3   OH247487   4.123   5.492   3.561
 8691TIP3    H147488   4.189   5.448   3.508
 8691TIP3    H247489   4.043   5.486   3.510
 8692TIP3   OH247490   3.841   1.322   1.798
 8692TIP3    H147491   3.813   1.244   1.750
 8692TIP3    H247492   3.828   1.394   1.736
 8693TIP3   OH247493   3.724   0.603  13.263
 8693TIP3    H147494   3.657   0.562  13.318
 8693TIP3    H247495   3.771   0.661  13.322
 8694TIP3   OH247496   0.258   1.585   3.239
 8694TIP3    H147497   0.212   1.544   3.313
 8694TIP3    H247498   0.341   1.615   3.276
 8695TIP3   OH247499   4.374   4.646  17.172
 8695TIP3    H147500   4.368   4.724  17.227
 8695TIP3    H247501   4.421   4.676  17.094
 8696TIP3   OH247502   0.678   5.981   0.940
 8696TIP3    H147503   0.762   5.938   0.958
 8696TIP3    H247504   0.653   5.948   0.853
 8697TIP3   OH247505   2.942   1.393   5.914
 8697TIP3    H147506   2.893   1.449   5.854
 8697TIP3    H247507   2.976   1.453   5.980
 8698TIP3   OH247508   5.176   6.157   1.948
 8698TIP3    H147509   5.269   6.157   1.970
 8698TIP3    H247510   5.132   6.129   2.029
 8699TIP3   OH247511   6.334   5.272   5.102
 8699TIP3    H147512   6.365   5.345   5.047
 8699TIP3    H247513   6.254   5.305   5.143
 8700TIP3   OH247514   0.532   1.699   0.144
 8700TIP3    H147515   0.510   1.776   0.196
 8700TIP3    H247516   0.451   1.676   0.098
 8701TIP3   OH247517   0.891   3.011  11.878
 8701TIP3    H147518   0.839   3.004  11.959
 8701TIP3    H247519   0.901   2.921  11.848
 8702TIP3   OH247520   2.300   2.746  16.426
 8702TIP3    H147521   2.318   2.706  16.341
 8702TIP3    H247522   2.359   2.701  16.486
 8703TIP3   OH247523   3.777   2.078   0.405
 8703TIP3    H147524   3.841   2.041   0.345
 8703TIP3    H247525   3.718   2.006   0.426
 8704TIP3   OH247526   4.676   1.433  13.238
 8704TIP3    H147527   4.656   1.430  13.332
 8704TIP3    H247528   4.722   1.516  13.226
 8705TIP3   OH247529   5.758   4.847   1.793
 8705TIP3    H147530   5.698   4.791   1.744
 8705TIP3    H247531   5.840   4.845   1.743
 8706TIP3   OH247532   3.981   1.429  13.636
 8706TIP3    H147533   3.983   1.525  13.640
 8706TIP3    H247534   4.064   1.402  13.673
 8707TIP3   OH247535   4.079   2.781  13.332
 8707TIP3    H147536   4.111   2.858  13.379
 8707TIP3    H247537   4.114   2.790  13.243
 8708TIP3   OH247538   0.507   0.250  11.092
 8708TIP3    H147539   0.543   0.260  11.180
 8708TIP3    H247540   0.561   0.306  11.037
 8709TIP3   OH247541   3.782   4.464  13.047
 8709TIP3    H147542   3.690   4.469  13.073
 8709TIP3    H247543   3.830   4.460  13.129
 8710TIP3   OH247544   1.024   6.027  15.141
 8710TIP3    H147545   1.052   6.108  15.098
 8710TIP3    H247546   0.959   6.055  15.205
 8711TIP3   OH247547   1.854   2.603  11.298
 8711TIP3    H147548   1.810   2.668  11.352
 8711TIP3    H247549   1.814   2.520  11.321
 8712TIP3   OH247550   0.258   1.940  11.761
 8712TIP3    H147551   0.316   1.993  11.707
 8712TIP3    H247552   0.244   1.860  11.710
 8713TIP3   OH247553   6.239   4.762   4.008
 8713TIP3    H147554   6.271   4.808   4.086
 8713TIP3    H247555   6.318   4.730   3.965
 8714TIP3   OH247556   1.226   4.325   2.270
 8714TIP3    H147557   1.131   4.331   2.282
 8714TIP3    H247558   1.242   4.362   2.183
 8715TIP3   OH247559   4.331   3.601   3.134
 8715TIP3    H147560   4.298   3.591   3.224
 8715TIP3    H247561   4.288   3.530   3.086
 8716TIP3   OH247562   4.119   4.297   6.397
 8716TIP3    H147563   4.054   4.302   6.467
 8716TIP3    H247564   4.090   4.360   6.332
 8717TIP3   OH247565   5.693   2.770   5.026
 8717TIP3    H147566   5.772   2.811   5.060
 8717TIP3    H247567   5.625   2.794   5.089
 8718TIP3   OH247568   5.284   1.748  11.592
 8718TIP3    H147569   5.281   1.675  11.654
 8718TIP3    H247570   5.268   1.706  11.507
 8719TIP3   OH247571   4.235   0.957   5.360
 8719TIP3    H147572   4.175   0.976   5.432
 8719TIP3    H247573   4.183   0.977   5.281
 8720TIP3   OH247574   2.810   1.876  16.948
 8720TIP3    H147575   2.762   1.794  16.957
 8720TIP3    H247576   2.894   1.851  16.910
 8721TIP3   OH247577   6.423   6.714  15.482
 8721TIP3    H147578   6.506   6.707  15.529
 8721TIP3    H247579   6.441   6.775  15.410
 8722TIP3   OH247580   2.025   0.648  13.884
 8722TIP3    H147581   2.037   0.738  13.915
 8722TIP3    H247582   1.991   0.601  13.959
 8723TIP3   OH247583   4.753   0.460  16.130
 8723TIP3    H147584   4.826   0.442  16.189
 8723TIP3    H247585   4.751   0.555  16.123
 8724TIP3   OH247586   2.909   1.682  14.009
 8724TIP3    H147587   2.915   1.643  13.922
 8724TIP3    H247588   2.877   1.771  13.993
 8725TIP3   OH247589   5.891   5.190   6.235
 8725TIP3    H147590   5.948   5.247   6.183
 8725TIP3    H247591   5.820   5.166   6.176
 8726TIP3   OH247592   3.317   4.160  13.525
 8726TIP3    H147593   3.359   4.156  13.610
 8726TIP3    H247594   3.280   4.248  13.520
 8727TIP3   OH247595   4.777   5.430  11.422
 8727TIP3    H147596   4.688   5.466  11.420
 8727TIP3    H247597   4.766   5.341  11.458
 8728TIP3   OH247598   0.270   3.866  11.918
 8728TIP3    H147599   0.182   3.873  11.956
 8728TIP3    H247600   0.290   3.954  11.887
 8729TIP3   OH247601   0.909   3.950  11.328
 8729TIP3    H147602   0.958   3.876  11.363
 8729TIP3    H247603   0.928   4.023  11.386
 8730TIP3   OH247604   4.792   0.262   1.594
 8730TIP3    H147605   4.707   0.229   1.623
 8730TIP3    H247606   4.833   0.186   1.551
 8731TIP3   OH247607   2.368   3.666   5.141
 8731TIP3    H147608   2.407   3.584   5.171
 8731TIP3    H247609   2.334   3.707   5.221
 8732TIP3   OH247610   4.884   5.392  15.779
 8732TIP3    H147611   4.874   5.487  15.784
 8732TIP3    H247612   4.966   5.379  15.732
 8733TIP3   OH247613   4.818   5.114  15.871
 8733TIP3    H147614   4.832   5.209  15.868
 8733TIP3    H247615   4.761   5.100  15.946
 8734TIP3   OH247616   0.778   5.591   5.108
 8734TIP3    H147617   0.700   5.578   5.162
 8734TIP3    H247618   0.749   5.650   5.038
 8735TIP3   OH247619   0.890   3.579  14.583
 8735TIP3    H147620   0.871   3.606  14.672
 8735TIP3    H247621   0.975   3.536  14.588
 8736TIP3   OH247622   5.089   1.747   1.858
 8736TIP3    H147623   4.994   1.758   1.848
 8736TIP3    H247624   5.100   1.654   1.877
 8737TIP3   OH247625   5.615   5.728   0.368
 8737TIP3    H147626   5.685   5.675   0.404
 8737TIP3    H247627   5.561   5.666   0.318
 8738TIP3   OH247628   0.796   6.682   0.183
 8738TIP3    H147629   0.743   6.603   0.177
 8738TIP3    H247630   0.785   6.725   0.099
 8739TIP3   OH247631   4.865   5.375   3.620
 8739TIP3    H147632   4.809   5.373   3.699
 8739TIP3    H247633   4.861   5.285   3.587
 8740TIP3   OH247634   1.195   1.398   5.444
 8740TIP3    H147635   1.129   1.420   5.510
 8740TIP3    H247636   1.270   1.366   5.495
 8741TIP3   OH247637   3.457   5.747  11.295
 8741TIP3    H147638   3.401   5.794  11.234
 8741TIP3    H247639   3.422   5.657  11.295
 8742TIP3   OH247640   3.544   1.156   1.605
 8742TIP3    H147641   3.600   1.082   1.627
 8742TIP3    H247642   3.455   1.122   1.617
 8743TIP3   OH247643   3.937   0.263  15.826
 8743TIP3    H147644   3.934   0.193  15.761
 8743TIP3    H247645   3.977   0.337  15.780
 8744TIP3   OH247646   2.183   6.624  10.846
 8744TIP3    H147647   2.229   6.541  10.856
 8744TIP3    H247648   2.222   6.682  10.911
 8745TIP3   OH247649   0.349   0.223  16.563
 8745TIP3    H147650   0.372   0.134  16.590
 8745TIP3    H247651   0.295   0.257  16.635
 8746TIP3   OH247652   4.151   3.927   2.889
 8746TIP3    H147653   4.170   3.984   2.815
 8746TIP3    H247654   4.056   3.912   2.884
 8747TIP3   OH247655   3.364   6.010   1.345
 8747TIP3    H147656   3.344   5.919   1.321
 8747TIP3    H247657   3.388   6.005   1.438
 8748TIP3   OH247658   1.849   0.503  12.714
 8748TIP3    H147659   1.913   0.537  12.776
 8748TIP3    H247660   1.822   0.419  12.751
 8749TIP3   OH247661   4.940   6.421   5.907
 8749TIP3    H147662   4.880   6.413   5.980
 8749TIP3    H247663   4.887   6.401   5.829
 8750TIP3   OH247664   2.102   6.112   1.272
 8750TIP3    H147665   2.045   6.183   1.298
 8750TIP3    H247666   2.075   6.090   1.183
 8751TIP3   OH247667   4.448   2.446  15.924
 8751TIP3    H147668   4.439   2.446  16.019
 8751TIP3    H247669   4.359   2.460  15.891
 8752TIP3   OH247670   1.779   0.759   6.078
 8752TIP3    H147671   1.709   0.695   6.068
 8752TIP3    H247672   1.735   0.837   6.113
 8753TIP3   OH247673   1.997   5.755   0.695
 8753TIP3    H147674   2.060   5.778   0.626
 8753TIP3    H247675   2.011   5.662   0.711
 8754TIP3   OH247676   0.201   1.450   1.437
 8754TIP3    H147677   0.216   1.356   1.448
 8754TIP3    H247678   0.199   1.485   1.526
 8755TIP3   OH247679   6.292   5.927   0.573
 8755TIP3    H147680   6.293   6.023   0.569
 8755TIP3    H247681   6.214   5.906   0.624
 8756TIP3   OH247682   3.371   5.084   2.963
 8756TIP3    H147683   3.291   5.036   2.941
 8756TIP3    H247684   3.438   5.049   2.904
 8757TIP3   OH247685   2.426   5.352  17.016
 8757TIP3    H147686   2.514   5.385  17.034
 8757TIP3    H247687   2.439   5.265  16.980
 8758TIP3   OH247688   3.125   2.150   4.771
 8758TIP3    H147689   3.132   2.104   4.688
 8758TIP3    H247690   3.191   2.108   4.827
 8759TIP3   OH247691   2.149   6.039  15.525
 8759TIP3    H147692   2.238   6.036  15.488
 8759TIP3    H247693   2.112   6.121  15.491
 8760TIP3   OH247694   3.264   3.155   2.087
 8760TIP3    H147695   3.236   3.241   2.120
 8760TIP3    H247696   3.339   3.132   2.141
 8761TIP3   OH247697   2.141   3.198   0.817
 8761TIP3    H147698   2.143   3.116   0.868
 8761TIP3    H247699   2.099   3.174   0.735
 8762TIP3   OH247700   5.303   2.903   6.005
 8762TIP3    H147701   5.316   2.864   5.918
 8762TIP3    H247702   5.391   2.907   6.042
 8763TIP3   OH247703   5.074   5.117   3.686
 8763TIP3    H147704   5.122   5.195   3.655
 8763TIP3    H247705   5.131   5.044   3.664
 8764TIP3   OH247706   5.372   5.945  17.076
 8764TIP3    H147707   5.334   5.864  17.041
 8764TIP3    H247708   5.368   5.934  17.171
 8765TIP3   OH247709   3.834   4.527  14.988
 8765TIP3    H147710   3.859   4.495  15.074
 8765TIP3    H247711   3.917   4.551  14.946
 8766TIP3   OH247712   2.460   2.830  15.579
 8766TIP3    H147713   2.472   2.785  15.662
 8766TIP3    H247714   2.382   2.884  15.591
 8767TIP3   OH247715   5.630   3.077   1.044
 8767TIP3    H147716   5.698   3.028   0.998
 8767TIP3    H247717   5.646   3.169   1.021
 8768TIP3   OH247718   0.075   1.220   1.966
 8768TIP3    H147719   0.086   1.310   1.998
 8768TIP3    H247720   0.162   1.194   1.936
 8769TIP3   OH247721   2.964   3.074   2.518
 8769TIP3    H147722   2.910   3.114   2.586
 8769TIP3    H247723   2.901   3.033   2.459
 8770TIP3   OH247724   3.295   0.509   3.091
 8770TIP3    H147725   3.345   0.558   3.156
 8770TIP3    H247726   3.350   0.511   3.012
 8771TIP3   OH247727   1.498   4.788   2.929
 8771TIP3    H147728   1.423   4.732   2.952
 8771TIP3    H247729   1.518   4.835   3.010
 8772TIP3   OH247730   3.310   6.253  11.825
 8772TIP3    H147731   3.251   6.328  11.821
 8772TIP3    H247732   3.397   6.291  11.819
 8773TIP3   OH247733   0.317   0.635  13.909
 8773TIP3    H147734   0.276   0.549  13.906
 8773TIP3    H247735   0.367   0.635  13.990
 8774TIP3   OH247736   2.074   4.266  12.657
 8774TIP3    H147737   2.125   4.223  12.726
 8774TIP3    H247738   2.011   4.319  12.705
 8775TIP3   OH247739   4.154   0.375  11.017
 8775TIP3    H147740   4.240   0.411  11.039
 8775TIP3    H247741   4.165   0.340  10.928
 8776TIP3   OH247742   2.054   2.992  13.548
 8776TIP3    H147743   2.050   3.050  13.472
 8776TIP3    H247744   2.094   2.911  13.515
 8777TIP3   OH247745   5.760   1.059   4.269
 8777TIP3    H147746   5.701   1.053   4.194
 8777TIP3    H247747   5.833   1.112   4.238
 8778TIP3   OH247748   2.842   3.147  13.483
 8778TIP3    H147749   2.850   3.226  13.430
 8778TIP3    H247750   2.750   3.122  13.473
 8779TIP3   OH247751   5.559   3.911  13.768
 8779TIP3    H147752   5.576   3.920  13.674
 8779TIP3    H247753   5.473   3.950  13.780
 8780TIP3   OH247754   3.261   4.581  11.838
 8780TIP3    H147755   3.222   4.498  11.865
 8780TIP3    H247756   3.354   4.561  11.826
 8781TIP3   OH247757   3.777   4.958  16.645
 8781TIP3    H147758   3.797   4.904  16.568
 8781TIP3    H247759   3.852   5.017  16.653
 8782TIP3   OH247760   3.217   1.077  16.500
 8782TIP3    H147761   3.203   0.983  16.503
 8782TIP3    H247762   3.179   1.111  16.580
 8783TIP3   OH247763   4.658   1.106  14.138
 8783TIP3    H147764   4.742   1.062  14.125
 8783TIP3    H247765   4.630   1.130  14.050
 8784TIP3   OH247766   1.411   4.480   0.841
 8784TIP3    H147767   1.490   4.432   0.867
 8784TIP3    H247768   1.410   4.556   0.899
 8785TIP3   OH247769   3.892   3.491   6.418
 8785TIP3    H147770   3.850   3.473   6.502
 8785TIP3    H247771   3.981   3.518   6.441
 8786TIP3   OH247772   1.308   4.797  15.164
 8786TIP3    H147773   1.306   4.719  15.109
 8786TIP3    H247774   1.369   4.774  15.235
 8787TIP3   OH247775   3.262   3.303  14.037
 8787TIP3    H147776   3.354   3.303  14.065
 8787TIP3    H247777   3.223   3.230  14.085
 8788TIP3   OH247778   6.504   1.538   1.179
 8788TIP3    H147779   6.588   1.515   1.221
 8788TIP3    H247780   6.523   1.534   1.085
 8789TIP3   OH247781   0.006   4.135  14.382
 8789TIP3    H147782  -0.010   4.129  14.477
 8789TIP3    H247783  -0.062   4.193  14.350
 8790TIP3   OH247784   4.367   2.311   6.394
 8790TIP3    H147785   4.291   2.282   6.444
 8790TIP3    H247786   4.396   2.234   6.346
 8791TIP3   OH247787   2.111   6.468  14.574
 8791TIP3    H147788   2.065   6.461  14.658
 8791TIP3    H247789   2.054   6.521  14.519
 8792TIP3   OH247790   3.564   0.196   1.971
 8792TIP3    H147791   3.480   0.238   1.993
 8792TIP3    H247792   3.630   0.263   1.990
 8793TIP3   OH247793   6.625   4.608  12.104
 8793TIP3    H147794   6.609   4.536  12.042
 8793TIP3    H247795   6.691   4.662  12.061
 8794TIP3   OH247796   2.779   5.764   1.422
 8794TIP3    H147797   2.739   5.817   1.352
 8794TIP3    H247798   2.872   5.783   1.417
 8795TIP3   OH247799   1.173   2.370  13.155
 8795TIP3    H147800   1.249   2.409  13.200
 8795TIP3    H247801   1.108   2.358  13.224
 8796TIP3   OH247802   1.416   0.585  12.762
 8796TIP3    H147803   1.469   0.541  12.828
 8796TIP3    H247804   1.390   0.515  12.702
 8797TIP3   OH247805   0.591   5.889  12.287
 8797TIP3    H147806   0.520   5.919  12.344
 8797TIP3    H247807   0.640   5.827  12.340
 8798TIP3   OH247808   2.122   6.410  12.836
 8798TIP3    H147809   2.202   6.366  12.865
 8798TIP3    H247810   2.107   6.479  12.901
 8799TIP3   OH247811   5.981   3.368   5.345
 8799TIP3    H147812   6.053   3.431   5.354
 8799TIP3    H247813   6.017   3.299   5.288
 8800TIP3   OH247814   2.107   6.265  15.871
 8800TIP3    H147815   2.092   6.351  15.911
 8800TIP3    H247816   2.181   6.279  15.812
 8801TIP3   OH247817   6.051   0.319   3.789
 8801TIP3    H147818   6.038   0.313   3.694
 8801TIP3    H247819   6.068   0.411   3.806
 8802TIP3   OH247820   3.443   1.434  11.286
 8802TIP3    H147821   3.426   1.382  11.207
 8802TIP3    H247822   3.538   1.431  11.298
 8803TIP3   OH247823   3.117   0.302   5.583
 8803TIP3    H147824   3.142   0.380   5.633
 8803TIP3    H247825   3.034   0.325   5.543
 8804TIP3   OH247826   1.711   4.731   4.061
 8804TIP3    H147827   1.796   4.744   4.103
 8804TIP3    H247828   1.647   4.764   4.125
 8805TIP3   OH247829   5.911   5.450  14.726
 8805TIP3    H147830   5.873   5.519  14.780
 8805TIP3    H247831   6.003   5.477  14.715
 8806TIP3   OH247832   5.302   3.285   3.503
 8806TIP3    H147833   5.396   3.287   3.487
 8806TIP3    H247834   5.293   3.304   3.597
 8807TIP3   OH247835   6.383   2.159  17.079
 8807TIP3    H147836   6.344   2.234  17.035
 8807TIP3    H247837   6.403   2.190  17.167
 8808TIP3   OH247838   4.441   2.749   1.130
 8808TIP3    H147839   4.370   2.690   1.152
 8808TIP3    H247840   4.401   2.816   1.075
 8809TIP3   OH247841   4.464   4.777  13.840
 8809TIP3    H147842   4.432   4.867  13.847
 8809TIP3    H247843   4.511   4.775  13.757
 8810TIP3   OH247844   4.646   1.029  15.897
 8810TIP3    H147845   4.604   0.959  15.848
 8810TIP3    H247846   4.739   1.023  15.874
 8811TIP3   OH247847   6.369   2.290  11.415
 8811TIP3    H147848   6.337   2.310  11.327
 8811TIP3    H247849   6.336   2.362  11.470
 8812TIP3   OH247850   2.455   1.777   2.994
 8812TIP3    H147851   2.383   1.821   3.039
 8812TIP3    H247852   2.520   1.761   3.062
 8813TIP3   OH247853   1.489   2.366   1.848
 8813TIP3    H147854   1.471   2.395   1.938
 8813TIP3    H247855   1.407   2.326   1.819
 8814TIP3   OH247856   5.779   4.818  13.835
 8814TIP3    H147857   5.693   4.830  13.795
 8814TIP3    H247858   5.798   4.725  13.823
 8815TIP3   OH247859   4.041   2.204  12.466
 8815TIP3    H147860   4.014   2.173  12.552
 8815TIP3    H247861   3.960   2.214  12.417
 8816TIP3   OH247862   3.642   0.758  15.654
 8816TIP3    H147863   3.700   0.829  15.680
 8816TIP3    H247864   3.567   0.802  15.613
 8817TIP3   OH247865   3.265   5.178   4.941
 8817TIP3    H147866   3.261   5.255   4.998
 8817TIP3    H247867   3.280   5.105   5.000
 8818TIP3   OH247868   6.697   5.644  12.052
 8818TIP3    H147869   6.640   5.691  12.113
 8818TIP3    H247870   6.717   5.562  12.096
 8819TIP3   OH247871   1.445   5.439  11.708
 8819TIP3    H147872   1.498   5.382  11.764
 8819TIP3    H247873   1.509   5.487  11.656
 8820TIP3   OH247874   0.085   1.506  15.614
 8820TIP3    H147875   0.157   1.533  15.672
 8820TIP3    H247876   0.014   1.483  15.674
 8821TIP3   OH247877   0.411   4.685  11.699
 8821TIP3    H147878   0.321   4.697  11.668
 8821TIP3    H247879   0.440   4.604  11.657
 8822TIP3   OH247880   6.646   1.079  16.596
 8822TIP3    H147881   6.616   1.115  16.679
 8822TIP3    H247882   6.736   1.050  16.613
 8823TIP3   OH247883   3.728   5.380  14.982
 8823TIP3    H147884   3.649   5.427  14.955
 8823TIP3    H247885   3.711   5.289  14.958
 8824TIP3   OH247886   4.279   3.537   3.676
 8824TIP3    H147887   4.234   3.612   3.715
 8824TIP3    H247888   4.250   3.462   3.727
 8825TIP3   OH247889   3.453   0.658   6.155
 8825TIP3    H147890   3.490   0.582   6.199
 8825TIP3    H247891   3.387   0.691   6.216
 8826TIP3   OH247892   1.338   1.494  11.712
 8826TIP3    H147893   1.283   1.513  11.637
 8826TIP3    H247894   1.363   1.579  11.747
 8827TIP3   OH247895   5.936   6.573  11.318
 8827TIP3    H147896   5.958   6.665  11.332
 8827TIP3    H247897   6.020   6.527  11.323
 8828TIP3   OH247898   6.020   1.531  13.598
 8828TIP3    H147899   5.983   1.509  13.683
 8828TIP3    H247900   6.115   1.526  13.612
 8829TIP3   OH247901   4.062   2.242   5.309
 8829TIP3    H147902   3.994   2.211   5.249
 8829TIP3    H247903   4.110   2.163   5.334
 8830TIP3   OH247904   0.906   4.453  15.255
 8830TIP3    H147905   0.932   4.495  15.337
 8830TIP3    H247906   0.887   4.526  15.196
 8831TIP3   OH247907   3.685   4.814   3.967
 8831TIP3    H147908   3.615   4.872   3.935
 8831TIP3    H247909   3.698   4.840   4.058
 8832TIP3   OH247910   5.605   2.041  15.074
 8832TIP3    H147911   5.522   2.076  15.042
 8832TIP3    H247912   5.645   2.000  14.997
 8833TIP3   OH247913   0.410   6.112  13.799
 8833TIP3    H147914   0.452   6.156  13.873
 8833TIP3    H247915   0.414   6.175  13.728
 8834TIP3   OH247916   0.139   5.383  13.308
 8834TIP3    H147917   0.140   5.406  13.401
 8834TIP3    H247918   0.231   5.384  13.283
 8835TIP3   OH247919   1.250   5.535  16.976
 8835TIP3    H147920   1.298   5.613  17.005
 8835TIP3    H247921   1.271   5.528  16.883
 8836TIP3   OH247922   0.192   3.645   4.145
 8836TIP3    H147923   0.149   3.682   4.221
 8836TIP3    H247924   0.206   3.553   4.168
 8837TIP3   OH247925   4.468   3.411  11.680
 8837TIP3    H147926   4.492   3.382  11.768
 8837TIP3    H247927   4.387   3.460  11.692
 8838TIP3   OH247928   4.974   1.587   4.762
 8838TIP3    H147929   5.069   1.587   4.749
 8838TIP3    H247930   4.949   1.494   4.758
 8839TIP3   OH247931   3.921   4.840  14.155
 8839TIP3    H147932   3.902   4.826  14.062
 8839TIP3    H247933   3.855   4.903  14.184
 8840TIP3   OH247934   2.292   3.328  15.944
 8840TIP3    H147935   2.225   3.370  15.890
 8840TIP3    H247936   2.300   3.383  16.021
 8841TIP3   OH247937   0.539   5.670  15.890
 8841TIP3    H147938   0.481   5.604  15.853
 8841TIP3    H247939   0.568   5.632  15.973
 8842TIP3   OH247940   1.380   0.463   2.698
 8842TIP3    H147941   1.357   0.473   2.606
 8842TIP3    H247942   1.474   0.445   2.698
 8843TIP3   OH247943   2.422   2.083   1.118
 8843TIP3    H147944   2.385   2.166   1.148
 8843TIP3    H247945   2.443   2.035   1.199
 8844TIP3   OH247946   0.404   1.476  15.658
 8844TIP3    H147947   0.449   1.481  15.574
 8844TIP3    H247948   0.359   1.391  15.657
 8845TIP3   OH247949   2.406   1.945   1.962
 8845TIP3    H147950   2.441   2.010   2.022
 8845TIP3    H247951   2.456   1.865   1.982
 8846TIP3   OH247952   1.825   1.312  15.426
 8846TIP3    H147953   1.759   1.323  15.358
 8846TIP3    H247954   1.824   1.218  15.446
 8847TIP3   OH247955   0.488   4.310  11.854
 8847TIP3    H147956   0.556   4.334  11.917
 8847TIP3    H247957   0.447   4.231  11.890
 8848TIP3   OH247958   1.507   0.659  12.402
 8848TIP3    H147959   1.506   0.754  12.394
 8848TIP3    H247960   1.571   0.641  12.470
 8849TIP3   OH247961   2.329   1.446  16.058
 8849TIP3    H147962   2.421   1.445  16.084
 8849TIP3    H247963   2.324   1.511  15.988
 8850TIP3   OH247964   1.327   4.695   4.493
 8850TIP3    H147965   1.268   4.643   4.548
 8850TIP3    H247966   1.415   4.670   4.521
 8851TIP3   OH247967   4.742   1.310   1.158
 8851TIP3    H147968   4.688   1.246   1.111
 8851TIP3    H247969   4.786   1.260   1.226
 8852TIP3   OH247970   4.890   0.618   5.263
 8852TIP3    H147971   4.943   0.539   5.256
 8852TIP3    H247972   4.857   0.617   5.353
 8853TIP3   OH247973   0.632   0.197  12.839
 8853TIP3    H147974   0.667   0.198  12.750
 8853TIP3    H247975   0.571   0.271  12.841
 8854TIP3   OH247976   3.842   6.690   1.112
 8854TIP3    H147977   3.759   6.645   1.126
 8854TIP3    H247978   3.817   6.782   1.101
 8855TIP3   OH247979   0.302   5.130  11.434
 8855TIP3    H147980   0.361   5.195  11.473
 8855TIP3    H247981   0.340   5.046  11.458
 8856TIP3   OH247982   6.499   2.727  17.006
 8856TIP3    H147983   6.536   2.647  16.969
 8856TIP3    H247984   6.417   2.740  16.958
 8857TIP3   OH247985   4.275   2.745   0.216
 8857TIP3    H147986   4.189   2.719   0.249
 8857TIP3    H247987   4.305   2.812   0.277
 8858TIP3   OH247988   3.850   0.159   2.351
 8858TIP3    H147989   3.890   0.218   2.416
 8858TIP3    H247990   3.770   0.203   2.324
 8859TIP3   OH247991   4.270   3.124   4.354
 8859TIP3    H147992   4.222   3.207   4.349
 8859TIP3    H247993   4.214   3.066   4.404
 8860TIP3   OH247994   0.404   3.565   2.191
 8860TIP3    H147995   0.346   3.541   2.119
 8860TIP3    H247996   0.417   3.483   2.239
 8861TIP3   OH247997   6.188   0.592  14.032
 8861TIP3    H147998   6.263   0.595  14.091
 8861TIP3    H247999   6.201   0.666  13.973
 8862TIP3   OH248000   6.517   1.768  14.010
 8862TIP3    H148001   6.453   1.699  14.028
 8862TIP3    H248002   6.581   1.760  14.080
 8863TIP3   OH248003   0.840   2.063  12.995
 8863TIP3    H148004   0.896   2.097  12.924
 8863TIP3    H248005   0.818   1.974  12.967
 8864TIP3   OH248006   5.687   6.383  15.814
 8864TIP3    H148007   5.745   6.347  15.881
 8864TIP3    H248008   5.700   6.326  15.738
 8865TIP3   OH248009   3.168   3.594  12.913
 8865TIP3    H148010   3.185   3.687  12.901
 8865TIP3    H248011   3.203   3.553  12.834
 8866TIP3   OH248012   5.186   1.675  16.755
 8866TIP3    H148013   5.103   1.631  16.738
 8866TIP3    H248014   5.221   1.632  16.833
 8867TIP3   OH248015   3.006   3.817  17.147
 8867TIP3    H148016   3.005   3.827  17.242
 8867TIP3    H248017   2.972   3.729  17.131
 8868TIP3   OH248018   6.154   4.669  13.004
 8868TIP3    H148019   6.185   4.738  13.062
 8868TIP3    H248020   6.167   4.704  12.916
 8869TIP3   OH248021   5.682   6.421  11.048
 8869TIP3    H148022   5.641   6.335  11.041
 8869TIP3    H248023   5.623   6.480  11.000
 8870TIP3   OH248024   5.294   4.124  11.311
 8870TIP3    H148025   5.213   4.135  11.359
 8870TIP3    H248026   5.324   4.035  11.333
 8871TIP3   OH248027   4.427   1.279  17.023
 8871TIP3    H148028   4.401   1.369  17.044
 8871TIP3    H248029   4.515   1.287  16.987
 8872TIP3   OH248030   5.052   2.950  12.901
 8872TIP3    H148031   5.142   2.946  12.869
 8872TIP3    H248032   5.004   2.889  12.845
 8873TIP3   OH248033   0.217   5.681  16.052
 8873TIP3    H148034   0.182   5.757  16.098
 8873TIP3    H248035   0.280   5.642  16.113
 8874TIP3   OH248036   0.409   1.137   4.927
 8874TIP3    H148037   0.347   1.090   4.871
 8874TIP3    H248038   0.493   1.131   4.882
 8875TIP3   OH248039   1.970   4.316   4.957
 8875TIP3    H148040   1.918   4.330   4.878
 8875TIP3    H248041   1.912   4.267   5.015
 8876TIP3   OH248042   4.495   1.038   4.438
 8876TIP3    H148043   4.561   1.067   4.501
 8876TIP3    H248044   4.458   0.958   4.477
 8877TIP3   OH248045   4.091   4.488  11.472
 8877TIP3    H148046   4.126   4.399  11.461
 8877TIP3    H248047   4.015   4.491  11.415
 8878TIP3   OH248048   6.223   4.745   3.338
 8878TIP3    H148049   6.218   4.746   3.242
 8878TIP3    H248050   6.212   4.836   3.363
 8879TIP3   OH248051   5.671   2.063  16.007
 8879TIP3    H148052   5.697   2.062  16.099
 8879TIP3    H248053   5.666   1.971  15.982
 8880TIP3   OH248054   3.472   2.589  12.346
 8880TIP3    H148055   3.492   2.530  12.418
 8880TIP3    H248056   3.380   2.575  12.326
 8881TIP3   OH248057   4.883   2.805   0.082
 8881TIP3    H148058   4.833   2.768   0.009
 8881TIP3    H248059   4.851   2.895   0.089
 8882TIP3   OH248060   6.467   5.956   6.191
 8882TIP3    H148061   6.414   6.007   6.252
 8882TIP3    H248062   6.437   5.865   6.202
 8883TIP3   OH248063   6.239   0.444   5.393
 8883TIP3    H148064   6.163   0.448   5.451
 8883TIP3    H248065   6.315   0.443   5.452
 8884TIP3   OH248066   0.223   1.274   2.407
 8884TIP3    H148067   0.278   1.215   2.355
 8884TIP3    H248068   0.281   1.347   2.430
 8885TIP3   OH248069   5.651   5.178  15.822
 8885TIP3    H148070   5.672   5.097  15.777
 8885TIP3    H248071   5.643   5.243  15.752
 8886TIP3   OH248072   5.628   5.184  12.610
 8886TIP3    H148073   5.622   5.123  12.683
 8886TIP3    H248074   5.720   5.209  12.606
 8887TIP3   OH248075   1.904   5.880  13.514
 8887TIP3    H148076   1.886   5.871  13.420
 8887TIP3    H248077   1.859   5.961  13.539
 8888TIP3   OH248078   1.797   5.610  14.583
 8888TIP3    H148079   1.825   5.660  14.507
 8888TIP3    H248080   1.706   5.587  14.565
 8889TIP3   OH248081   1.397   6.079   0.274
 8889TIP3    H148082   1.454   6.084   0.197
 8889TIP3    H248083   1.375   6.170   0.294
 8890TIP3   OH248084   3.958   1.116  14.838
 8890TIP3    H148085   3.983   1.209  14.844
 8890TIP3    H248086   3.863   1.118  14.827
 8891TIP3   OH248087   5.831   5.438   2.987
 8891TIP3    H148088   5.918   5.404   3.005
 8891TIP3    H248089   5.842   5.533   2.982
 8892TIP3   OH248090   4.404   2.684   2.321
 8892TIP3    H148091   4.374   2.770   2.350
 8892TIP3    H248092   4.337   2.623   2.351
 8893TIP3   OH248093   3.961   3.139   4.982
 8893TIP3    H148094   3.945   3.096   4.897
 8893TIP3    H248095   3.907   3.218   4.978
 8894TIP3   OH248096   0.447   0.649  14.626
 8894TIP3    H148097   0.424   0.574  14.572
 8894TIP3    H248098   0.486   0.712  14.564
 8895TIP3   OH248099   4.811   1.349  10.617
 8895TIP3    H148100   4.884   1.325  10.560
 8895TIP3    H248101   4.768   1.422  10.572
 8896TIP3   OH248102   6.650   2.800   3.196
 8896TIP3    H148103   6.573   2.834   3.151
 8896TIP3    H248104   6.662   2.860   3.270
 8897TIP3   OH248105   1.333   6.780   3.248
 8897TIP3    H148106   1.254   6.759   3.299
 8897TIP3    H248107   1.403   6.733   3.293
 8898TIP3   OH248108   1.197   0.302  16.928
 8898TIP3    H148109   1.162   0.214  16.944
 8898TIP3    H248110   1.260   0.291  16.858
 8899TIP3   OH248111   1.736   4.779   1.662
 8899TIP3    H148112   1.814   4.813   1.619
 8899TIP3    H248113   1.756   4.783   1.755
 8900TIP3   OH248114   3.962   6.020   0.648
 8900TIP3    H148115   3.975   5.945   0.590
 8900TIP3    H248116   4.002   6.093   0.601
 8901TIP3   OH248117   5.245   0.829  15.033
 8901TIP3    H148118   5.196   0.750  15.055
 8901TIP3    H248119   5.241   0.883  15.112
 8902TIP3   OH248120   3.404   2.302   0.076
 8902TIP3    H148121   3.464   2.248   0.024
 8902TIP3    H248122   3.357   2.354   0.011
 8903TIP3   OH248123   0.273   3.389   5.743
 8903TIP3    H148124   0.216   3.312   5.751
 8903TIP3    H248125   0.233   3.441   5.673
 8904TIP3   OH248126   4.181   1.692   1.866
 8904TIP3    H148127   4.264   1.698   1.913
 8904TIP3    H248128   4.114   1.707   1.933
 8905TIP3   OH248129   4.893   3.344   2.427
 8905TIP3    H148130   4.824   3.312   2.486
 8905TIP3    H248131   4.965   3.369   2.485
 8906TIP3   OH248132   5.153   3.803  11.413
 8906TIP3    H148133   5.113   3.782  11.497
 8906TIP3    H248134   5.227   3.860  11.435
 8907TIP3   OH248135   1.869   1.987  14.762
 8907TIP3    H148136   1.811   2.031  14.700
 8907TIP3    H248137   1.928   2.055  14.793
 8908TIP3   OH248138   5.726   0.243   2.283
 8908TIP3    H148139   5.689   0.308   2.224
 8908TIP3    H248140   5.715   0.160   2.237
 8909TIP3   OH248141   1.480   4.893   0.622
 8909TIP3    H148142   1.548   4.916   0.686
 8909TIP3    H248143   1.486   4.798   0.613
 8910TIP3   OH248144   0.058   3.281   1.733
 8910TIP3    H148145   0.000   3.225   1.681
 8910TIP3    H248146   0.003   3.315   1.803
 8911TIP3   OH248147   1.571   0.869  13.445
 8911TIP3    H148148   1.641   0.896  13.387
 8911TIP3    H248149   1.508   0.941  13.442
 8912TIP3   OH248150   6.650   0.550  16.466
 8912TIP3    H148151   6.683   0.577  16.381
 8912TIP3    H248152   6.679   0.619  16.526
 8913TIP3   OH248153   4.921   3.180   5.273
 8913TIP3    H148154   4.853   3.172   5.206
 8913TIP3    H248155   4.974   3.101   5.263
 8914TIP3   OH248156   3.437   3.594   3.652
 8914TIP3    H148157   3.365   3.599   3.716
 8914TIP3    H248158   3.516   3.605   3.704
 8915TIP3   OH248159   2.509   3.435   0.948
 8915TIP3    H148160   2.476   3.470   1.031
 8915TIP3    H248161   2.474   3.346   0.944
 8916TIP3   OH248162   3.714   1.982   2.295
 8916TIP3    H148163   3.776   1.981   2.222
 8916TIP3    H248164   3.763   1.948   2.370
 8917TIP3   OH248165   4.891   1.820   1.586
 8917TIP3    H148166   4.881   1.789   1.676
 8917TIP3    H248167   4.972   1.871   1.587
 8918TIP3   OH248168   3.018   2.839   4.395
 8918TIP3    H148169   3.032   2.779   4.468
 8918TIP3    H248170   3.047   2.924   4.428
 8919TIP3   OH248171   5.822   6.114   4.683
 8919TIP3    H148172   5.744   6.063   4.661
 8919TIP3    H248173   5.791   6.204   4.690
 8920TIP3   OH248174   3.397   4.632   6.586
 8920TIP3    H148175   3.419   4.717   6.548
 8920TIP3    H248176   3.481   4.597   6.617
 8921TIP3   OH248177   3.213   3.069   5.204
 8921TIP3    H148178   3.282   3.077   5.269
 8921TIP3    H248179   3.259   3.062   5.120
 8922TIP3   OH248180   2.863   6.449  14.686
 8922TIP3    H148181   2.851   6.526  14.630
 8922TIP3    H248182   2.932   6.399  14.643
 8923TIP3   OH248183   3.352   0.610   2.608
 8923TIP3    H148184   3.330   0.700   2.583
 8923TIP3    H248185   3.268   0.564   2.605
 8924TIP3   OH248186   2.801   6.413  15.968
 8924TIP3    H148187   2.835   6.419  15.879
 8924TIP3    H248188   2.712   6.448  15.962
 8925TIP3   OH248189   4.820   3.523  10.658
 8925TIP3    H148190   4.731   3.556  10.644
 8925TIP3    H248191   4.809   3.429  10.671
 8926TIP3   OH248192   4.483   4.683   1.139
 8926TIP3    H148193   4.442   4.682   1.053
 8926TIP3    H248194   4.479   4.592   1.169
 8927TIP3   OH248195   4.212   5.942   1.911
 8927TIP3    H148196   4.305   5.963   1.920
 8927TIP3    H248197   4.206   5.896   1.827
 8928TIP3   OH248198   0.558   5.403   5.521
 8928TIP3    H148199   0.624   5.442   5.579
 8928TIP3    H248200   0.525   5.327   5.569
 8929TIP3   OH248201   5.910   3.876   1.254
 8929TIP3    H148202   5.964   3.938   1.302
 8929TIP3    H248203   5.927   3.791   1.296
 8930TIP3   OH248204   3.496   5.263   0.638
 8930TIP3    H148205   3.412   5.218   0.649
 8930TIP3    H248206   3.494   5.297   0.549
 8931TIP3   OH248207   5.141   2.666   5.279
 8931TIP3    H148208   5.179   2.613   5.209
 8931TIP3    H248209   5.061   2.619   5.304
 8932TIP3   OH248210   2.157   6.286   3.049
 8932TIP3    H148211   2.188   6.264   2.961
 8932TIP3    H248212   2.064   6.304   3.038
 8933TIP3   OH248213   6.422   3.467   4.711
 8933TIP3    H148214   6.513   3.439   4.719
 8933TIP3    H248215   6.381   3.402   4.653
 8934TIP3   OH248216   6.309   5.038  17.213
 8934TIP3    H148217   6.318   5.069  17.303
 8934TIP3    H248218   6.367   5.095  17.162
 8935TIP3   OH248219   0.555   5.266  15.503
 8935TIP3    H148220   0.516   5.353  15.515
 8935TIP3    H248221   0.636   5.269  15.554
 8936TIP3   OH248222   4.977   3.319   4.808
 8936TIP3    H148223   5.001   3.273   4.889
 8936TIP3    H248224   4.957   3.249   4.746
 8937TIP3   OH248225   3.743   2.804   4.297
 8937TIP3    H148226   3.676   2.785   4.231
 8937TIP3    H248227   3.803   2.863   4.253
 8938TIP3   OH248228   3.188   6.352   4.693
 8938TIP3    H148229   3.219   6.303   4.769
 8938TIP3    H248230   3.136   6.423   4.730
 8939TIP3   OH248231   3.818   6.623  15.535
 8939TIP3    H148232   3.764   6.582  15.467
 8939TIP3    H248233   3.772   6.705  15.555
 8940TIP3   OH248234   0.080   2.761  13.232
 8940TIP3    H148235   0.016   2.723  13.291
 8940TIP3    H248236   0.106   2.690  13.174
 8941TIP3   OH248237   3.330   3.995  12.496
 8941TIP3    H148238   3.257   4.056  12.495
 8941TIP3    H248239   3.401   4.042  12.539
 8942TIP3   OH248240   1.503   0.215  14.862
 8942TIP3    H148241   1.581   0.270  14.870
 8942TIP3    H248242   1.501   0.190  14.769
 8943TIP3   OH248243   1.092   2.983  13.669
 8943TIP3    H148244   1.121   2.962  13.580
 8943TIP3    H248245   1.095   3.078  13.673
 8944TIP3   OH248246   3.066   4.648   3.421
 8944TIP3    H148247   3.096   4.659   3.512
 8944TIP3    H248248   2.973   4.670   3.425
 8945TIP3   OH248249   3.128   5.728   4.045
 8945TIP3    H148250   3.158   5.662   4.107
 8945TIP3    H248251   3.096   5.800   4.100
 8946TIP3   OH248252   2.770   4.071   2.441
 8946TIP3    H148253   2.695   4.012   2.450
 8946TIP3    H248254   2.757   4.137   2.510
 8947TIP3   OH248255   2.600   5.052  14.801
 8947TIP3    H148256   2.533   4.984  14.796
 8947TIP3    H248257   2.591   5.089  14.889
 8948TIP3   OH248258   5.652   3.537  13.206
 8948TIP3    H148259   5.680   3.490  13.284
 8948TIP3    H248260   5.733   3.561  13.161
 8949TIP3   OH248261   2.270   5.185   0.510
 8949TIP3    H148262   2.200   5.124   0.535
 8949TIP3    H248263   2.236   5.230   0.432
 8950TIP3   OH248264   5.243   2.495   1.217
 8950TIP3    H148265   5.248   2.574   1.162
 8950TIP3    H248266   5.183   2.438   1.171
 8951TIP3   OH248267   5.338   0.492  12.983
 8951TIP3    H148268   5.310   0.480  12.893
 8951TIP3    H248269   5.349   0.403  13.017
 8952TIP3   OH248270   4.202   4.167  13.203
 8952TIP3    H148271   4.261   4.243  13.198
 8952TIP3    H248272   4.260   4.094  13.223
 8953TIP3   OH248273   0.551   2.319  16.234
 8953TIP3    H148274   0.586   2.329  16.145
 8953TIP3    H248275   0.593   2.240  16.267
 8954TIP3   OH248276   0.967   0.911   3.252
 8954TIP3    H148277   1.027   0.931   3.324
 8954TIP3    H248278   1.009   0.841   3.204
 8955TIP3   OH248279   1.019   1.258  12.293
 8955TIP3    H148280   1.060   1.201  12.228
 8955TIP3    H248281   1.069   1.340  12.288
 8956TIP3   OH248282   6.761   1.813  16.031
 8956TIP3    H148283   6.786   1.853  16.114
 8956TIP3    H248284   6.670   1.785  16.045
 8957TIP3   OH248285   1.489   5.700  14.043
 8957TIP3    H148286   1.523   5.740  13.963
 8957TIP3    H248287   1.424   5.636  14.013
 8958TIP3   OH248288   1.757   4.395   2.392
 8958TIP3    H148289   1.662   4.406   2.391
 8958TIP3    H248290   1.782   4.393   2.300
 8959TIP3   OH248291   1.036   4.128  13.883
 8959TIP3    H148292   0.995   4.051  13.922
 8959TIP3    H248293   1.106   4.151  13.945
 8960TIP3   OH248294   2.159   1.981  12.529
 8960TIP3    H148295   2.085   1.934  12.490
 8960TIP3    H248296   2.127   2.006  12.616
 8961TIP3   OH248297   2.585   3.315  15.789
 8961TIP3    H148298   2.520   3.323  15.860
 8961TIP3    H248299   2.650   3.254  15.824
 8962TIP3   OH248300   1.969   0.669   2.172
 8962TIP3    H148301   2.002   0.580   2.179
 8962TIP3    H248302   2.046   0.722   2.154
 8963TIP3   OH248303   0.828   0.255  13.948
 8963TIP3    H148304   0.791   0.208  14.023
 8963TIP3    H248305   0.756   0.308  13.915
 8964TIP3   OH248306   1.298   3.001  11.031
 8964TIP3    H148307   1.319   2.996  10.938
 8964TIP3    H248308   1.323   3.089  11.057
 8965TIP3   OH248309   4.626   5.361  13.445
 8965TIP3    H148310   4.562   5.291  13.452
 8965TIP3    H248311   4.708   5.321  13.474
 8966TIP3   OH248312   4.638   6.504   3.951
 8966TIP3    H148313   4.576   6.462   3.892
 8966TIP3    H248314   4.708   6.440   3.962
 8967TIP3   OH248315   1.065   6.056  12.638
 8967TIP3    H148316   1.053   6.148  12.663
 8967TIP3    H248317   1.144   6.056  12.584
 8968TIP3   OH248318   1.229   3.155   3.755
 8968TIP3    H148319   1.311   3.113   3.729
 8968TIP3    H248320   1.255   3.221   3.819
 8969TIP3   OH248321   3.563   0.709  11.336
 8969TIP3    H148322   3.556   0.649  11.411
 8969TIP3    H248323   3.621   0.779  11.367
 8970TIP3   OH248324   5.945   2.388  15.000
 8970TIP3    H148325   5.923   2.342  15.080
 8970TIP3    H248326   6.037   2.412  15.010
 8971TIP3   OH248327   4.470   4.309   2.075
 8971TIP3    H148328   4.426   4.291   1.992
 8971TIP3    H248329   4.401   4.307   2.140
 8972TIP3   OH248330   1.781   3.044  12.073
 8972TIP3    H148331   1.759   2.957  12.039
 8972TIP3    H248332   1.801   3.029  12.166
 8973TIP3   OH248333   1.487   0.905   4.011
 8973TIP3    H148334   1.555   0.894   4.077
 8973TIP3    H248335   1.516   0.852   3.937
 8974TIP3   OH248336   3.067   5.113   6.364
 8974TIP3    H148337   3.003   5.071   6.307
 8974TIP3    H248338   3.016   5.165   6.425
 8975TIP3   OH248339   1.449   2.853   4.230
 8975TIP3    H148340   1.524   2.897   4.189
 8975TIP3    H248341   1.390   2.924   4.253
 8976TIP3   OH248342   5.641   1.251  15.862
 8976TIP3    H148343   5.581   1.283  15.930
 8976TIP3    H248344   5.670   1.329  15.816
 8977TIP3   OH248345   6.494   4.375  14.351
 8977TIP3    H148346   6.480   4.314  14.423
 8977TIP3    H248347   6.417   4.432  14.353
 8978TIP3   OH248348   3.954   2.121  13.742
 8978TIP3    H148349   4.017   2.176  13.694
 8978TIP3    H248350   3.995   2.035  13.744
 8979TIP3   OH248351   2.655   5.214   3.960
 8979TIP3    H148352   2.749   5.226   3.942
 8979TIP3    H248353   2.639   5.122   3.941
 8980TIP3   OH248354   6.275   5.800  10.524
 8980TIP3    H148355   6.344   5.865  10.537
 8980TIP3    H248356   6.317   5.717  10.547
 8981TIP3   OH248357   4.709   2.316   4.854
 8981TIP3    H148358   4.794   2.286   4.888
 8981TIP3    H248359   4.688   2.255   4.783
 8982TIP3   OH248360   0.232   6.058  14.942
 8982TIP3    H148361   0.200   5.968  14.950
 8982TIP3    H248362   0.316   6.058  14.988
 8983TIP3   OH248363   5.324   1.858  10.615
 8983TIP3    H148364   5.240   1.811  10.616
 8983TIP3    H248365   5.326   1.904  10.699
 8984TIP3   OH248366   3.828   3.571  11.492
 8984TIP3    H148367   3.870   3.618  11.420
 8984TIP3    H248368   3.839   3.629  11.568
 8985TIP3   OH248369   3.185   1.866   0.070
 8985TIP3    H148370   3.172   1.898   0.159
 8985TIP3    H248371   3.134   1.926   0.015
 8986TIP3   OH248372   2.281   1.633   2.215
 8986TIP3    H148373   2.348   1.692   2.250
 8986TIP3    H248374   2.236   1.686   2.148
 8987TIP3   OH248375   4.078   6.268   0.569
 8987TIP3    H148376   4.171   6.254   0.587
 8987TIP3    H248377   4.076   6.341   0.507
 8988TIP3   OH248378   6.697   0.866  15.016
 8988TIP3    H148379   6.689   0.944  14.960
 8988TIP3    H248380   6.724   0.796  14.956
 8989TIP3   OH248381   0.700   2.932  16.569
 8989TIP3    H148382   0.739   2.992  16.506
 8989TIP3    H248383   0.764   2.860  16.576
 8990TIP3   OH248384   5.470   4.469  12.094
 8990TIP3    H148385   5.480   4.401  12.028
 8990TIP3    H248386   5.433   4.543  12.047
 8991TIP3   OH248387   2.149   5.152  17.166
 8991TIP3    H148388   2.207   5.122  17.096
 8991TIP3    H248389   2.134   5.245  17.147
 8992TIP3   OH248390   1.868   4.185   4.046
 8992TIP3    H148391   1.772   4.191   4.045
 8992TIP3    H248392   1.888   4.131   4.122
 8993TIP3   OH248393   2.794   2.685  13.874
 8993TIP3    H148394   2.705   2.667  13.842
 8993TIP3    H248395   2.781   2.732  13.956
 8994TIP3   OH248396   0.625   0.592   1.257
 8994TIP3    H148397   0.530   0.600   1.247
 8994TIP3    H248398   0.641   0.498   1.249
 8995TIP3   OH248399   1.923   5.643  13.098
 8995TIP3    H148400   1.917   5.548  13.087
 8995TIP3    H248401   1.946   5.676  13.010
 8996TIP3   OH248402   1.677   2.146   4.791
 8996TIP3    H148403   1.754   2.189   4.828
 8996TIP3    H248404   1.666   2.188   4.705
 8997TIP3   OH248405   2.694   5.020   1.798
 8997TIP3    H148406   2.675   5.092   1.738
 8997TIP3    H248407   2.685   5.059   1.885
 8998TIP3   OH248408   1.053   3.727   0.155
 8998TIP3    H148409   1.149   3.727   0.152
 8998TIP3    H248410   1.026   3.714   0.063
 8999TIP3   OH248411   3.873   1.387   4.082
 8999TIP3    H148412   3.782   1.360   4.096
 8999TIP3    H248413   3.908   1.399   4.171
 9000TIP3   OH248414   6.125   1.318  15.348
 9000TIP3    H148415   6.199   1.311  15.409
 9000TIP3    H248416   6.051   1.282  15.396
 9001TIP3   OH248417   2.242   0.057   0.201
 9001TIP3    H148418   2.203   0.077   0.286
 9001TIP3    H248419   2.295  -0.022   0.217
 9002TIP3   OH248420   0.057   4.231  12.117
 9002TIP3    H148421   0.077   4.286  12.193
 9002TIP3    H248422  -0.018   4.274  12.076
 9003TIP3   OH248423   5.730   5.541   5.302
 9003TIP3    H148424   5.696   5.615   5.351
 9003TIP3    H248425   5.823   5.563   5.288
 9004TIP3   OH248426   4.323   5.586  17.144
 9004TIP3    H148427   4.412   5.556  17.163
 9004TIP3    H248428   4.299   5.541  17.062
 9005TIP3   OH248429   1.211   0.317  15.228
 9005TIP3    H148430   1.187   0.259  15.301
 9005TIP3    H248431   1.156   0.287  15.155
 9006TIP3   OH248432   4.196   6.311   1.170
 9006TIP3    H148433   4.196   6.406   1.156
 9006TIP3    H248434   4.215   6.274   1.083
 9007TIP3   OH248435   4.927   2.516   1.250
 9007TIP3    H148436   4.841   2.552   1.230
 9007TIP3    H248437   4.967   2.501   1.164
 9008TIP3   OH248438   0.666   6.588   4.101
 9008TIP3    H148439   0.636   6.601   4.191
 9008TIP3    H248440   0.606   6.523   4.064
 9009TIP3   OH248441   1.192   2.799  11.156
 9009TIP3    H148442   1.153   2.837  11.235
 9009TIP3    H248443   1.210   2.875  11.100
 9010TIP3   OH248444   3.559   4.333  14.078
 9010TIP3    H148445   3.513   4.268  14.131
 9010TIP3    H248446   3.510   4.336  13.996
 9011TIP3   OH248447   5.818   5.238  10.942
 9011TIP3    H148448   5.801   5.258  11.034
 9011TIP3    H248449   5.775   5.309  10.894
 9012TIP3   OH248450   4.835   1.073  16.141
 9012TIP3    H148451   4.845   1.038  16.052
 9012TIP3    H248452   4.825   0.995  16.196
 9013TIP3   OH248453   5.998   4.688  11.176
 9013TIP3    H148454   6.080   4.688  11.127
 9013TIP3    H248455   5.988   4.779  11.205
 9014TIP3   OH248456   5.677   3.345   0.976
 9014TIP3    H148457   5.772   3.342   0.963
 9014TIP3    H248458   5.652   3.432   0.944
 9015TIP3   OH248459   1.531   3.267  15.783
 9015TIP3    H148460   1.473   3.334  15.746
 9015TIP3    H248461   1.477   3.187  15.783
 9016TIP3   OH248462   4.542   1.461  10.729
 9016TIP3    H148463   4.603   1.535  10.730
 9016TIP3    H248464   4.572   1.404  10.800
 9017TIP3   OH248465   6.339   2.474  16.581
 9017TIP3    H148466   6.312   2.556  16.623
 9017TIP3    H248467   6.262   2.445  16.533
 9018TIP3   OH248468   2.070   1.702  14.872
 9018TIP3    H148469   2.014   1.690  14.949
 9018TIP3    H248470   2.014   1.680  14.798
 9019TIP3   OH248471   0.349   3.007   1.080
 9019TIP3    H148472   0.368   3.080   1.021
 9019TIP3    H248473   0.285   2.953   1.032
 9020TIP3   OH248474   3.354   3.880  13.514
 9020TIP3    H148475   3.323   3.970  13.522
 9020TIP3    H248476   3.379   3.872  13.422
 9021TIP3   OH248477   2.766   0.095   6.067
 9021TIP3    H148478   2.723   0.012   6.090
 9021TIP3    H248479   2.702   0.162   6.089
 9022TIP3   OH248480   6.176   0.745  11.478
 9022TIP3    H148481   6.100   0.750  11.536
 9022TIP3    H248482   6.140   0.719  11.393
 9023TIP3   OH248483   0.312   6.440  14.615
 9023TIP3    H148484   0.335   6.395  14.697
 9023TIP3    H248485   0.321   6.373  14.548
 9024TIP3   OH248486   2.690   0.430  14.701
 9024TIP3    H148487   2.706   0.524  14.703
 9024TIP3    H248488   2.777   0.390  14.705
 9025TIP3   OH248489   3.912   0.992   1.646
 9025TIP3    H148490   3.922   0.993   1.741
 9025TIP3    H248491   3.827   0.951   1.631
 9026TIP3   OH248492   1.619   3.920  16.633
 9026TIP3    H148493   1.620   3.843  16.575
 9026TIP3    H248494   1.693   3.973  16.603
 9027TIP3   OH248495   5.357   6.475  16.371
 9027TIP3    H148496   5.274   6.463  16.417
 9027TIP3    H248497   5.379   6.567  16.383
 9028TIP3   OH248498   0.864   0.281   1.014
 9028TIP3    H148499   0.825   0.291   0.928
 9028TIP3    H248500   0.915   0.361   1.026
 9029TIP3   OH248501   5.138   2.899   1.349
 9029TIP3    H148502   5.108   2.842   1.419
 9029TIP3    H248503   5.233   2.889   1.347
 9030TIP3   OH248504   3.555   6.752  12.513
 9030TIP3    H148505   3.624   6.703  12.468
 9030TIP3    H248506   3.507   6.796  12.443
 9031TIP3   OH248507   0.393   4.584   1.021
 9031TIP3    H148508   0.463   4.616   0.964
 9031TIP3    H248509   0.322   4.560   0.961
 9032TIP3   OH248510   5.382   3.984  15.714
 9032TIP3    H148511   5.431   3.956  15.791
 9032TIP3    H248512   5.447   3.987  15.643
 9033TIP3   OH248513   3.243   3.074   2.482
 9033TIP3    H148514   3.256   3.157   2.529
 9033TIP3    H248515   3.149   3.058   2.487
 9034TIP3   OH248516   3.101   3.090   3.529
 9034TIP3    H148517   3.108   3.181   3.557
 9034TIP3    H248518   3.186   3.051   3.550
 9035TIP3   OH248519   5.619   3.648  15.379
 9035TIP3    H148520   5.705   3.662  15.419
 9035TIP3    H248521   5.572   3.594  15.442
 9036TIP3   OH248522   2.011   1.033  16.570
 9036TIP3    H148523   1.956   1.007  16.644
 9036TIP3    H248524   1.997   1.128  16.564
 9037TIP3   OH248525   3.438   1.124   2.828
 9037TIP3    H148526   3.353   1.111   2.784
 9037TIP3    H248527   3.425   1.199   2.885
 9038TIP3   OH248528   1.421   5.993   4.332
 9038TIP3    H148529   1.488   6.036   4.279
 9038TIP3    H248530   1.343   6.047   4.319
 9039TIP3   OH248531   2.611   2.119  12.747
 9039TIP3    H148532   2.583   2.196  12.797
 9039TIP3    H248533   2.565   2.128  12.663
 9040TIP3   OH248534   4.162   2.497   1.495
 9040TIP3    H148535   4.118   2.529   1.574
 9040TIP3    H248536   4.251   2.476   1.524
 9041TIP3   OH248537   5.970   3.604   2.392
 9041TIP3    H148538   6.035   3.625   2.459
 9041TIP3    H248539   6.022   3.577   2.316
 9042TIP3   OH248540   5.333   3.277   5.464
 9042TIP3    H148541   5.363   3.320   5.544
 9042TIP3    H248542   5.244   3.248   5.484
 9043TIP3   OH248543   2.026   2.292  12.232
 9043TIP3    H148544   1.933   2.308  12.213
 9043TIP3    H248545   2.067   2.283  12.146
 9044TIP3   OH248546   4.407   4.557  16.109
 9044TIP3    H148547   4.474   4.519  16.052
 9044TIP3    H248548   4.411   4.651  16.090
 9045TIP3   OH248549   3.190   4.566  11.565
 9045TIP3    H148550   3.261   4.628  11.583
 9045TIP3    H248551   3.228   4.481  11.585
 9046TIP3   OH248552   1.734   0.452  14.921
 9046TIP3    H148553   1.819   0.494  14.931
 9046TIP3    H248554   1.752   0.358  14.923
 9047TIP3   OH248555   0.799   4.553  11.904
 9047TIP3    H148556   0.814   4.504  11.985
 9047TIP3    H248557   0.867   4.620  11.903
 9048TIP3   OH248558   0.312   0.987   5.989
 9048TIP3    H148559   0.220   0.960   5.995
 9048TIP3    H248560   0.339   0.961   5.901
 9049TIP3   OH248561   0.946   6.492   6.208
 9049TIP3    H148562   0.963   6.398   6.208
 9049TIP3    H248563   0.859   6.500   6.247
 9050TIP3   OH248564   3.731   1.339   0.094
 9050TIP3    H148565   3.765   1.315   0.008
 9050TIP3    H248566   3.697   1.428   0.084
 9051TIP3   OH248567   4.093   1.121   2.182
 9051TIP3    H148568   4.001   1.136   2.206
 9051TIP3    H248569   4.119   1.200   2.136
 9052TIP3   OH248570   4.781   0.135   5.218
 9052TIP3    H148571   4.738   0.171   5.140
 9052TIP3    H248572   4.772   0.203   5.284
 9053TIP3   OH248573   5.557   2.387  14.983
 9053TIP3    H148574   5.560   2.362  14.891
 9053TIP3    H248575   5.469   2.422  14.995
 9054TIP3   OH248576   6.393   5.361  16.731
 9054TIP3    H148577   6.432   5.303  16.665
 9054TIP3    H248578   6.459   5.429  16.745
 9055TIP3   OH248579   3.750   0.775  13.492
 9055TIP3    H148580   3.667   0.791  13.538
 9055TIP3    H248581   3.755   0.845  13.427
 9056TIP3   OH248582   3.347   2.454  10.855
 9056TIP3    H148583   3.395   2.407  10.923
 9056TIP3    H248584   3.346   2.545  10.884
 9057TIP3   OH248585   1.971   2.137  11.807
 9057TIP3    H148586   1.888   2.138  11.854
 9057TIP3    H248587   1.953   2.182  11.725
 9058TIP3   OH248588   3.743   6.261   1.439
 9058TIP3    H148589   3.833   6.277   1.413
 9058TIP3    H248590   3.696   6.340   1.415
 9059TIP3   OH248591   4.987   5.923  14.280
 9059TIP3    H148592   4.995   5.829  14.266
 9059TIP3    H248593   4.982   5.933  14.375
 9060TIP3   OH248594   0.832   1.198  12.485
 9060TIP3    H148595   0.886   1.169  12.558
 9060TIP3    H248596   0.894   1.220  12.416
 9061TIP3   OH248597   1.807   5.221   0.573
 9061TIP3    H148598   1.783   5.136   0.536
 9061TIP3    H248599   1.894   5.239   0.537
 9062TIP3   OH248600   0.646   0.169  14.784
 9062TIP3    H148601   0.681   0.227  14.716
 9062TIP3    H248602   0.620   0.228  14.855
 9063TIP3   OH248603   5.895   4.337   6.292
 9063TIP3    H148604   5.847   4.263   6.329
 9063TIP3    H248605   5.970   4.348   6.349
 9064TIP3   OH248606   0.494   6.642  11.978
 9064TIP3    H148607   0.447   6.561  11.960
 9064TIP3    H248608   0.545   6.625  12.057
 9065TIP3   OH248609   2.929   6.052  15.973
 9065TIP3    H148610   2.987   6.111  16.022
 9065TIP3    H248611   2.988   5.990  15.931
 9066TIP3   OH248612   3.851   3.921  12.852
 9066TIP3    H148613   3.764   3.885  12.867
 9066TIP3    H248614   3.882   3.947  12.939
 9067TIP3   OH248615   2.148   0.356   3.751
 9067TIP3    H148616   2.138   0.437   3.700
 9067TIP3    H248617   2.078   0.299   3.719
 9068TIP3   OH248618   2.030   5.907   5.553
 9068TIP3    H148619   2.067   5.995   5.561
 9068TIP3    H248620   2.061   5.861   5.630
 9069TIP3   OH248621   3.283   3.453  11.841
 9069TIP3    H148622   3.366   3.418  11.874
 9069TIP3    H248623   3.269   3.533  11.892
 9070TIP3   OH248624   0.950   4.784  11.953
 9070TIP3    H148625   1.037   4.778  11.992
 9070TIP3    H248626   0.896   4.825  12.021
 9071TIP3   OH248627   5.228   6.549  13.132
 9071TIP3    H148628   5.291   6.494  13.179
 9071TIP3    H248629   5.165   6.575  13.199
 9072TIP3   OH248630   2.785   2.841  14.509
 9072TIP3    H148631   2.743   2.845  14.596
 9072TIP3    H248632   2.783   2.749  14.485
 9073TIP3   OH248633   6.548   3.367   0.032
 9073TIP3    H148634   6.484   3.389  -0.036
 9073TIP3    H248635   6.632   3.375  -0.012
 9074TIP3   OH248636   3.323   6.524  16.547
 9074TIP3    H148637   3.243   6.477  16.528
 9074TIP3    H248638   3.330   6.589  16.477
 9075TIP3   OH248639   6.431   5.226  13.429
 9075TIP3    H148640   6.388   5.302  13.468
 9075TIP3    H248641   6.475   5.260  13.352
 9076TIP3   OH248642   3.307   2.143  16.497
 9076TIP3    H148643   3.307   2.238  16.486
 9076TIP3    H248644   3.262   2.110  16.419
 9077TIP3   OH248645   1.350   1.907  12.882
 9077TIP3    H148646   1.335   1.999  12.857
 9077TIP3    H248647   1.266   1.878  12.917
 9078TIP3   OH248648   0.350   4.303   1.048
 9078TIP3    H148649   0.302   4.366   0.996
 9078TIP3    H248650   0.432   4.347   1.071
 9079TIP3   OH248651   3.384   3.586   0.119
 9079TIP3    H148652   3.448   3.649   0.153
 9079TIP3    H248653   3.338   3.634   0.050
 9080TIP3   OH248654   4.009   4.967  13.612
 9080TIP3    H148655   4.089   4.948  13.661
 9080TIP3    H248656   4.024   5.054  13.574
 9081TIP3   OH248657   5.591   5.498  11.329
 9081TIP3    H148658   5.636   5.578  11.358
 9081TIP3    H248659   5.500   5.512  11.353
 9082TIP3   OH248660   6.649   4.299   4.002
 9082TIP3    H148661   6.643   4.370   3.938
 9082TIP3    H248662   6.738   4.266   3.994
 9083TIP3   OH248663   1.260   0.628  16.427
 9083TIP3    H148664   1.355   0.625  16.425
 9083TIP3    H248665   1.238   0.719  16.407
 9084TIP3   OH248666   1.061   6.166   2.064
 9084TIP3    H148667   0.979   6.148   2.019
 9084TIP3    H248668   1.036   6.222   2.138
 9085TIP3   OH248669   1.151   5.051  15.173
 9085TIP3    H148670   1.068   5.053  15.126
 9085TIP3    H248671   1.204   4.986  15.127
 9086TIP3   OH248672   6.483   0.322   4.556
 9086TIP3    H148673   6.457   0.401   4.508
 9086TIP3    H248674   6.474   0.346   4.649
 9087TIP3   OH248675   5.871   0.801  12.723
 9087TIP3    H148676   5.903   0.811  12.812
 9087TIP3    H248677   5.859   0.890  12.691
 9088TIP3   OH248678   4.292   1.966  14.084
 9088TIP3    H148679   4.344   2.013  14.150
 9088TIP3    H248680   4.206   1.954  14.125
 9089TIP3   OH248681   1.836   1.097  15.790
 9089TIP3    H148682   1.761   1.046  15.823
 9089TIP3    H248683   1.888   1.033  15.742
 9090TIP3   OH248684   0.011   4.540  11.856
 9090TIP3    H148685   0.055   4.464  11.819
 9090TIP3    H248686  -0.038   4.578  11.783
 9091TIP3   OH248687   2.899   3.140   4.867
 9091TIP3    H148688   2.970   3.075   4.866
 9091TIP3    H248689   2.857   3.127   4.952
 9092TIP3   OH248690   0.940   3.304  11.510
 9092TIP3    H148691   0.862   3.335  11.463
 9092TIP3    H248692   0.958   3.373  11.574
 9093TIP3   OH248693   0.074   3.388  16.184
 9093TIP3    H148694   0.147   3.397  16.122
 9093TIP3    H248695   0.012   3.456  16.158
 9094TIP3   OH248696   6.474   5.396  15.284
 9094TIP3    H148697   6.449   5.484  15.254
 9094TIP3    H248698   6.393   5.359  15.319
 9095TIP3   OH248699   0.222   4.897  13.244
 9095TIP3    H148700   0.150   4.835  13.256
 9095TIP3    H248701   0.216   4.957  13.318
 9096TIP3   OH248702   5.888   3.256  16.450
 9096TIP3    H148703   5.927   3.334  16.490
 9096TIP3    H248704   5.957   3.221  16.393
 9097TIP3   OH248705   2.882   3.429  11.350
 9097TIP3    H148706   2.970   3.437  11.386
 9097TIP3    H248707   2.880   3.492  11.278
 9098TIP3   OH248708   1.807   5.204   2.119
 9098TIP3    H148709   1.721   5.223   2.155
 9098TIP3    H248710   1.790   5.177   2.029
 9099TIP3   OH248711   3.010   4.734   4.022
 9099TIP3    H148712   3.047   4.646   4.028
 9099TIP3    H248713   3.081   4.792   4.050
 9100TIP3   OH248714   2.307   5.247  15.715
 9100TIP3    H148715   2.392   5.204  15.722
 9100TIP3    H248716   2.251   5.182  15.673
 9101TIP3   OH248717   4.539   3.092   4.294
 9101TIP3    H148718   4.555   3.184   4.274
 9101TIP3    H248719   4.452   3.091   4.334
 9102TIP3   OH248720   6.211   4.062  10.907
 9102TIP3    H148721   6.136   4.005  10.892
 9102TIP3    H248722   6.173   4.144  10.938
 9103TIP3   OH248723   0.781   4.880   4.122
 9103TIP3    H148724   0.816   4.968   4.106
 9103TIP3    H248725   0.837   4.822   4.071
 9104TIP3   OH248726   3.870   4.959  11.215
 9104TIP3    H148727   3.852   5.038  11.163
 9104TIP3    H248728   3.785   4.916  11.224
 9105TIP3   OH248729   6.565   2.411  15.653
 9105TIP3    H148730   6.499   2.439  15.717
 9105TIP3    H248731   6.610   2.491  15.628
 9106TIP3   OH248732   0.603   3.907   0.342
 9106TIP3    H148733   0.666   3.974   0.369
 9106TIP3    H248734   0.648   3.858   0.273
 9107TIP3   OH248735   5.152   4.734  11.608
 9107TIP3    H148736   5.066   4.700  11.584
 9107TIP3    H248737   5.194   4.755  11.525
 9108TIP3   OH248738   6.413   5.233  13.866
 9108TIP3    H148739   6.434   5.324  13.887
 9108TIP3    H248740   6.341   5.210  13.925
 9109TIP3   OH248741   0.317   5.523  13.806
 9109TIP3    H148742   0.346   5.462  13.738
 9109TIP3    H248743   0.395   5.575  13.826
 9110TIP3   OH248744   1.992   5.172  13.620
 9110TIP3    H148745   1.963   5.238  13.682
 9110TIP3    H248746   2.075   5.205  13.587
 9111TIP3   OH248747   1.665   3.740  11.136
 9111TIP3    H148748   1.723   3.666  11.154
 9111TIP3    H248749   1.671   3.753  11.041
 9112TIP3   OH248750   3.357   0.237   0.427
 9112TIP3    H148751   3.375   0.200   0.513
 9112TIP3    H248752   3.369   0.164   0.366
 9113TIP3   OH248753   0.126   6.144   3.232
 9113TIP3    H148754   0.060   6.080   3.259
 9113TIP3    H248755   0.084   6.229   3.246
 9114TIP3   OH248756   2.462   1.206  16.241
 9114TIP3    H148757   2.508   1.203  16.157
 9114TIP3    H248758   2.528   1.236  16.303
 9115TIP3   OH248759   5.103   5.863  11.397
 9115TIP3    H148760   5.038   5.819  11.452
 9115TIP3    H248761   5.052   5.925  11.345
 9116TIP3   OH248762   1.693   2.282   4.555
 9116TIP3    H148763   1.690   2.375   4.535
 9116TIP3    H248764   1.726   2.241   4.474
 9117TIP3   OH248765   0.642   3.934  11.868
 9117TIP3    H148766   0.573   3.962  11.807
 9117TIP3    H248767   0.723   3.944  11.818
 9118TIP3   OH248768   4.310   5.276  16.721
 9118TIP3    H148769   4.239   5.256  16.660
 9118TIP3    H248770   4.370   5.202  16.712
 9119TIP3   OH248771   0.932   2.833   3.613
 9119TIP3    H148772   0.970   2.745   3.604
 9119TIP3    H248773   0.876   2.827   3.690
 9120TIP3   OH248774   5.743   1.079  13.970
 9120TIP3    H148775   5.764   1.166  14.003
 9120TIP3    H248776   5.651   1.086  13.943
 9121TIP3   OH248777   4.560   0.809  11.964
 9121TIP3    H148778   4.494   0.782  11.900
 9121TIP3    H248779   4.631   0.846  11.911
 9122TIP3   OH248780   5.668   6.575  11.271
 9122TIP3    H148781   5.751   6.588  11.316
 9122TIP3    H248782   5.691   6.532  11.189
 9123TIP3   OH248783   1.183   4.335   3.305
 9123TIP3    H148784   1.203   4.253   3.259
 9123TIP3    H248785   1.088   4.347   3.292
 9124TIP3   OH248786   5.251   5.539  14.552
 9124TIP3    H148787   5.181   5.588  14.595
 9124TIP3    H248788   5.328   5.554  14.608
 9125TIP3   OH248789   0.681   5.415  17.075
 9125TIP3    H148790   0.737   5.448  17.005
 9125TIP3    H248791   0.610   5.479  17.081
 9126TIP3   OH248792   2.241   2.257   2.142
 9126TIP3    H148793   2.201   2.344   2.146
 9126TIP3    H248794   2.168   2.196   2.152
 9127TIP3   OH248795   2.592   4.399  16.025
 9127TIP3    H148796   2.508   4.363  16.052
 9127TIP3    H248797   2.607   4.362  15.938
 9128TIP3   OH248798   5.568   5.119   5.651
 9128TIP3    H148799   5.574   5.214   5.653
 9128TIP3    H248800   5.657   5.088   5.669
 9129TIP3   OH248801   0.907   3.735   5.545
 9129TIP3    H148802   0.951   3.663   5.590
 9129TIP3    H248803   0.855   3.692   5.477
 9130TIP3   OH248804   2.826   5.020   6.183
 9130TIP3    H148805   2.824   5.107   6.222
 9130TIP3    H248806   2.734   4.995   6.175
 9131TIP3   OH248807   4.956   5.420   3.244
 9131TIP3    H148808   4.991   5.507   3.262
 9131TIP3    H248809   4.896   5.403   3.316
 9132TIP3   OH248810   3.394   0.860   3.792
 9132TIP3    H148811   3.325   0.849   3.858
 9132TIP3    H248812   3.466   0.902   3.840
 9133TIP3   OH248813   6.091   2.994   1.330
 9133TIP3    H148814   6.002   2.961   1.335
 9133TIP3    H248815   6.099   3.053   1.405
 9134TIP3   OH248816   3.819   3.504  12.794
 9134TIP3    H148817   3.914   3.494  12.791
 9134TIP3    H248818   3.796   3.494  12.886
 9135TIP3   OH248819   1.834   3.157  10.897
 9135TIP3    H148820   1.804   3.220  10.963
 9135TIP3    H248821   1.886   3.094  10.947
 9136TIP3   OH248822   4.907   2.838  13.503
 9136TIP3    H148823   4.856   2.816  13.426
 9136TIP3    H248824   4.900   2.933  13.511
 9137TIP3   OH248825   6.376   2.001  11.419
 9137TIP3    H148826   6.459   1.981  11.461
 9137TIP3    H248827   6.354   2.089  11.450
 9138TIP3   OH248828   3.671   0.231  15.922
 9138TIP3    H148829   3.763   0.228  15.894
 9138TIP3    H248830   3.665   0.165  15.991
 9139TIP3   OH248831   0.335   4.108  14.610
 9139TIP3    H148832   0.313   4.095  14.518
 9139TIP3    H248833   0.352   4.020  14.644
 9140TIP3   OH248834   4.154   5.871  16.353
 9140TIP3    H148835   4.225   5.830  16.304
 9140TIP3    H248836   4.198   5.918  16.424
 9141TIP3   OH248837   6.178   6.022   3.600
 9141TIP3    H148838   6.159   6.108   3.561
 9141TIP3    H248839   6.094   5.976   3.598
 9142TIP3   OH248840   6.779   1.698   5.636
 9142TIP3    H148841   6.843   1.633   5.666
 9142TIP3    H248842   6.749   1.665   5.551
 9143TIP3   OH248843   2.519   4.387  13.997
 9143TIP3    H148844   2.516   4.330  14.074
 9143TIP3    H248845   2.429   4.417  13.986
 9144TIP3   OH248846   1.715   0.512   3.819
 9144TIP3    H148847   1.734   0.418   3.817
 9144TIP3    H248848   1.715   0.534   3.912
 9145TIP3   OH248849   6.505   4.740  12.914
 9145TIP3    H148850   6.490   4.820  12.964
 9145TIP3    H248851   6.585   4.703  12.951
 9146TIP3   OH248852   3.853   0.595  11.207
 9146TIP3    H148853   3.787   0.656  11.240
 9146TIP3    H248854   3.870   0.535  11.279
 9147TIP3   OH248855   1.038   4.998   4.557
 9147TIP3    H148856   1.009   5.047   4.634
 9147TIP3    H248857   1.030   5.061   4.485
 9148TIP3   OH248858   2.249   5.120  12.678
 9148TIP3    H148859   2.220   5.048  12.733
 9148TIP3    H248860   2.186   5.122  12.605
 9149TIP3   OH248861   6.519   6.188  13.810
 9149TIP3    H148862   6.450   6.199  13.875
 9149TIP3    H248863   6.474   6.153  13.733
 9150TIP3   OH248864   2.167   2.613   0.551
 9150TIP3    H148865   2.159   2.599   0.456
 9150TIP3    H248866   2.188   2.526   0.586
 9151TIP3   OH248867   5.542   0.741  11.563
 9151TIP3    H148868   5.570   0.750  11.472
 9151TIP3    H248869   5.582   0.659  11.592
 9152TIP3   OH248870   3.816   6.071   1.231
 9152TIP3    H148871   3.905   6.080   1.197
 9152TIP3    H248872   3.818   6.114   1.316
 9153TIP3   OH248873   1.200   6.781   1.426
 9153TIP3    H148874   1.207   6.820   1.339
 9153TIP3    H248875   1.193   6.687   1.411
 9154TIP3   OH248876   0.070   0.933  11.124
 9154TIP3    H148877   0.113   0.935  11.209
 9154TIP3    H248878   0.008   0.861  11.130
 9155TIP3   OH248879   1.962   0.343   4.572
 9155TIP3    H148880   1.949   0.253   4.543
 9155TIP3    H248881   1.994   0.389   4.495
 9156TIP3   OH248882   3.169   1.387   5.609
 9156TIP3    H148883   3.108   1.406   5.680
 9156TIP3    H248884   3.149   1.452   5.542
 9157TIP3   OH248885   0.694   5.660  14.493
 9157TIP3    H148886   0.695   5.720  14.567
 9157TIP3    H248887   0.665   5.576  14.530
 9158TIP3   OH248888   3.736   6.069  10.988
 9158TIP3    H148889   3.820   6.028  11.010
 9158TIP3    H248890   3.682   5.996  10.958
 9159TIP3   OH248891   4.114   1.897   3.576
 9159TIP3    H148892   4.140   1.943   3.655
 9159TIP3    H248893   4.174   1.822   3.570
 9160TIP3   OH248894   4.999   1.055  10.581
 9160TIP3    H148895   5.059   0.985  10.557
 9160TIP3    H248896   4.978   1.099  10.499
 9161TIP3   OH248897   1.866   5.564  13.418
 9161TIP3    H148898   1.852   5.498  13.350
 9161TIP3    H248899   1.861   5.648  13.372
 9162TIP3   OH248900   1.069   1.688  15.643
 9162TIP3    H148901   1.106   1.624  15.582
 9162TIP3    H248902   1.067   1.770  15.592
 9163TIP3   OH248903   6.398   6.729  17.156
 9163TIP3    H148904   6.413   6.653  17.100
 9163TIP3    H248905   6.485   6.758  17.181
 9164TIP3   OH248906   0.566   1.990   3.071
 9164TIP3    H148907   0.575   1.903   3.033
 9164TIP3    H248908   0.620   1.988   3.150
 9165TIP3   OH248909   1.375   1.386  13.422
 9165TIP3    H148910   1.377   1.430  13.507
 9165TIP3    H248911   1.289   1.344  13.418
 9166TIP3   OH248912   2.555   5.964   4.159
 9166TIP3    H148913   2.492   5.969   4.231
 9166TIP3    H248914   2.504   5.935   4.084
 9167TIP3   OH248915   3.542   3.843   0.160
 9167TIP3    H148916   3.455   3.874   0.137
 9167TIP3    H248917   3.602   3.901   0.113
 9168TIP3   OH248918   0.630   4.953  16.119
 9168TIP3    H148919   0.675   5.006  16.185
 9168TIP3    H248920   0.675   4.869  16.121
 9169TIP3   OH248921   4.818   0.910   1.546
 9169TIP3    H148922   4.820   1.004   1.561
 9169TIP3    H248923   4.869   0.898   1.466
 9170TIP3   OH248924   3.003   3.772   3.222
 9170TIP3    H148925   2.988   3.855   3.266
 9170TIP3    H248926   2.943   3.772   3.147
 9171TIP3   OH248927   0.547   3.671  16.743
 9171TIP3    H148928   0.611   3.709  16.803
 9171TIP3    H248929   0.542   3.734  16.670
 9172TIP3   OH248930   3.463   0.670   3.609
 9172TIP3    H148931   3.527   0.628   3.665
 9172TIP3    H248932   3.418   0.733   3.666
 9173TIP3   OH248933   0.732   4.134  13.474
 9173TIP3    H148934   0.704   4.077  13.546
 9173TIP3    H248935   0.757   4.215  13.517
 9174TIP3   OH248936   3.338   6.450   4.970
 9174TIP3    H148937   3.296   6.437   5.055
 9174TIP3    H248938   3.391   6.529   4.982
 9175TIP3   OH248939   5.066   3.708   1.710
 9175TIP3    H148940   5.102   3.620   1.701
 9175TIP3    H248941   5.025   3.708   1.796
 9176TIP3   OH248942   2.568   2.566   0.457
 9176TIP3    H148943   2.567   2.573   0.552
 9176TIP3    H248944   2.568   2.471   0.440
 9177TIP3   OH248945   3.729   2.165   5.408
 9177TIP3    H148946   3.661   2.133   5.349
 9177TIP3    H248947   3.770   2.237   5.361
 9178TIP3   OH248948   4.983   0.245  16.877
 9178TIP3    H148949   5.075   0.223  16.865
 9178TIP3    H248950   4.975   0.267  16.970
 9179TIP3   OH248951   4.356   5.014  11.133
 9179TIP3    H148952   4.282   4.954  11.135
 9179TIP3    H248953   4.415   4.977  11.068
 9180TIP3   OH248954   4.201   6.446   3.663
 9180TIP3    H148955   4.127   6.400   3.703
 9180TIP3    H248956   4.211   6.406   3.577
 9181TIP3   OH248957   6.055   0.041   2.154
 9181TIP3    H148958   6.123   0.034   2.221
 9181TIP3    H248959   5.990  -0.024   2.180
 9182TIP3   OH248960   1.753   1.290   6.075
 9182TIP3    H148961   1.744   1.241   6.156
 9182TIP3    H248962   1.827   1.250   6.030
 9183TIP3   OH248963   1.853   1.516   0.380
 9183TIP3    H148964   1.843   1.484   0.290
 9183TIP3    H248965   1.947   1.507   0.397
 9184TIP3   OH248966   2.036   0.525   3.958
 9184TIP3    H148967   2.048   0.557   3.868
 9184TIP3    H248968   1.987   0.443   3.947
 9185TIP3   OH248969   4.301   4.723   4.874
 9185TIP3    H148970   4.264   4.674   4.948
 9185TIP3    H248971   4.395   4.723   4.889
 9186TIP3   OH248972   0.614   6.533  14.570
 9186TIP3    H148973   0.539   6.585  14.598
 9186TIP3    H248974   0.668   6.524  14.648
 9187TIP3   OH248975   3.338   5.852  16.774
 9187TIP3    H148976   3.395   5.852  16.697
 9187TIP3    H248977   3.286   5.931  16.765
 9188TIP3   OH248978   2.111   2.222  10.595
 9188TIP3    H148979   2.191   2.218  10.649
 9188TIP3    H248980   2.137   2.185  10.511
 9189TIP3   OH248981   1.032   3.392  15.505
 9189TIP3    H148982   1.050   3.459  15.572
 9189TIP3    H248983   1.092   3.413  15.434
 9190TIP3   OH248984   2.343   0.872   3.952
 9190TIP3    H148985   2.375   0.961   3.963
 9190TIP3    H248986   2.289   0.857   4.030
 9191TIP3   OH248987   2.858   3.560  14.169
 9191TIP3    H148988   2.888   3.513  14.091
 9191TIP3    H248989   2.764   3.573  14.154
 9192TIP3   OH248990   5.965   2.298  12.028
 9192TIP3    H148991   5.942   2.280  12.119
 9192TIP3    H248992   6.014   2.222  12.000
 9193TIP3   OH248993   5.445   5.346   3.725
 9193TIP3    H148994   5.386   5.346   3.800
 9193TIP3    H248995   5.455   5.438   3.702
 9194TIP3   OH248996   5.991   5.789   1.160
 9194TIP3    H148997   5.926   5.759   1.097
 9194TIP3    H248998   5.984   5.885   1.159
 9195TIP3   OH248999   5.179   2.536   6.544
 9195TIP3    H149000   5.171   2.474   6.617
 9195TIP3    H249001   5.102   2.592   6.552
 9196TIP3   OH249002   5.146   2.256   3.777
 9196TIP3    H149003   5.147   2.297   3.864
 9196TIP3    H249004   5.123   2.165   3.794
 9197TIP3   OH249005   0.175   1.858   0.541
 9197TIP3    H149006   0.269   1.843   0.533
 9197TIP3    H249007   0.167   1.946   0.578
 9198TIP3   OH249008   1.494   6.328   2.561
 9198TIP3    H149009   1.569   6.381   2.534
 9198TIP3    H249010   1.464   6.285   2.480
 9199TIP3   OH249011   0.480   5.936   4.175
 9199TIP3    H149012   0.418   5.998   4.213
 9199TIP3    H249013   0.427   5.881   4.118
 9200TIP3   OH249014   4.840   3.907  12.679
 9200TIP3    H149015   4.787   3.957  12.616
 9200TIP3    H249016   4.917   3.961  12.694
 9201TIP3   OH249017   3.703   5.599   3.311
 9201TIP3    H149018   3.723   5.509   3.284
 9201TIP3    H249019   3.610   5.609   3.293
 9202TIP3   OH249020   3.319   1.361   1.610
 9202TIP3    H149021   3.386   1.316   1.560
 9202TIP3    H249022   3.340   1.342   1.702
 9203TIP3   OH249023   3.426   0.777   5.678
 9203TIP3    H149024   3.348   0.833   5.682
 9203TIP3    H249025   3.480   0.806   5.751
 9204TIP3   OH249026   5.146   2.477   0.258
 9204TIP3    H149027   5.230   2.494   0.215
 9204TIP3    H249028   5.118   2.392   0.224
 9205TIP3   OH249029   6.567   5.547   0.080
 9205TIP3    H149030   6.608   5.488   0.144
 9205TIP3    H249031   6.579   5.634   0.117
 9206TIP3   OH249032   6.031   1.504   0.434
 9206TIP3    H149033   5.983   1.424   0.453
 9206TIP3    H249034   6.090   1.515   0.508
 9207TIP3   OH249035   1.315   2.600   3.787
 9207TIP3    H149036   1.375   2.671   3.809
 9207TIP3    H249037   1.355   2.522   3.826
 9208TIP3   OH249038   1.856   4.151  14.968
 9208TIP3    H149039   1.864   4.244  14.949
 9208TIP3    H249040   1.943   4.115  14.952
 9209TIP3   OH249041   5.604   6.700   1.853
 9209TIP3    H149042   5.627   6.676   1.764
 9209TIP3    H249043   5.563   6.621   1.889
 9210TIP3   OH249044   6.466   1.021   2.951
 9210TIP3    H149045   6.497   1.045   2.864
 9210TIP3    H249046   6.377   0.990   2.936
 9211TIP3   OH249047   4.659   3.322  16.763
 9211TIP3    H149048   4.672   3.401  16.815
 9211TIP3    H249049   4.574   3.335  16.721
 9212TIP3   OH249050   3.687   5.287   1.563
 9212TIP3    H149051   3.708   5.220   1.629
 9212TIP3    H249052   3.594   5.272   1.543
 9213TIP3   OH249053   3.986   2.071   5.915
 9213TIP3    H149054   3.927   1.997   5.899
 9213TIP3    H249055   4.021   2.055   6.003
 9214TIP3   OH249056   2.026   4.114  13.004
 9214TIP3    H149057   1.976   4.108  13.085
 9214TIP3    H249058   1.981   4.181  12.953
 9215TIP3   OH249059   6.382   4.088  13.751
 9215TIP3    H149060   6.369   3.994  13.740
 9215TIP3    H249061   6.394   4.121  13.662
 9216TIP3   OH249062   4.478   1.661  11.228
 9216TIP3    H149063   4.458   1.704  11.312
 9216TIP3    H249064   4.412   1.592  11.221
 9217TIP3   OH249065   1.185   5.831  15.977
 9217TIP3    H149066   1.102   5.817  16.022
 9217TIP3    H249067   1.177   5.782  15.895
 9218TIP3   OH249068   0.651   1.274   3.398
 9218TIP3    H149069   0.659   1.218   3.476
 9218TIP3    H249070   0.577   1.332   3.417
 9219TIP3   OH249071   0.115   0.123  10.795
 9219TIP3    H149072   0.150   0.061  10.859
 9219TIP3    H249073   0.192   0.163  10.755
 9220TIP3   OH249074   2.201   1.287  15.481
 9220TIP3    H149075   2.197   1.350  15.553
 9220TIP3    H249076   2.233   1.206  15.521
 9221TIP3   OH249077   0.848   1.256   4.059
 9221TIP3    H149078   0.876   1.227   4.146
 9221TIP3    H249079   0.756   1.280   4.070
 9222TIP3   OH249080   3.778   2.142   2.765
 9222TIP3    H149081   3.707   2.087   2.798
 9222TIP3    H249082   3.773   2.222   2.817
 9223TIP3   OH249083   6.604   1.901  11.544
 9223TIP3    H149084   6.681   1.944  11.582
 9223TIP3    H249085   6.570   1.847  11.615
 9224TIP3   OH249086   1.565   6.549  16.021
 9224TIP3    H149087   1.581   6.596  15.939
 9224TIP3    H249088   1.567   6.618  16.088
 9225TIP3   OH249089   5.689   6.135   5.548
 9225TIP3    H149090   5.780   6.110   5.563
 9225TIP3    H249091   5.662   6.082   5.473
 9226TIP3   OH249092   1.470   4.204   4.641
 9226TIP3    H149093   1.404   4.217   4.709
 9226TIP3    H249094   1.508   4.291   4.627
 9227TIP3   OH249095   0.370   0.688   4.768
 9227TIP3    H149096   0.452   0.736   4.775
 9227TIP3    H249097   0.393   0.596   4.783
 9228TIP3   OH249098   4.297   3.941  14.346
 9228TIP3    H149099   4.329   4.015  14.398
 9228TIP3    H249100   4.222   3.976  14.298
 9229TIP3   OH249101   2.895   3.572  10.595
 9229TIP3    H149102   2.877   3.528  10.511
 9229TIP3    H249103   2.962   3.518  10.636
 9230TIP3   OH249104   5.395   2.364   5.798
 9230TIP3    H149105   5.422   2.313   5.875
 9230TIP3    H249106   5.367   2.448   5.833
 9231TIP3   OH249107   5.821   1.109  16.673
 9231TIP3    H149108   5.778   1.122  16.588
 9231TIP3    H249109   5.880   1.184  16.682
 9232TIP3   OH249110   6.665   1.827   0.721
 9232TIP3    H149111   6.749   1.827   0.676
 9232TIP3    H249112   6.675   1.893   0.789
 9233TIP3   OH249113   2.966   5.768  11.290
 9233TIP3    H149114   3.005   5.703  11.347
 9233TIP3    H249115   2.953   5.723  11.207
 9234TIP3   OH249116   0.272   2.569   6.907
 9234TIP3    H149117   0.183   2.545   6.883
 9234TIP3    H249118   0.326   2.542   6.832
 9235TIP3   OH249119   1.682   1.700   4.026
 9235TIP3    H149120   1.648   1.644   3.956
 9235TIP3    H249121   1.764   1.658   4.053
 9236TIP3   OH249122   3.835   0.975  15.651
 9236TIP3    H149123   3.923   1.001  15.625
 9236TIP3    H249124   3.778   1.014  15.585
 9237TIP3   OH249125   5.588   3.093  16.287
 9237TIP3    H149126   5.642   3.129  16.357
 9237TIP3    H249127   5.571   3.003  16.313
 9238TIP3   OH249128   2.979   5.721  12.736
 9238TIP3    H149129   2.903   5.738  12.681
 9238TIP3    H249130   2.957   5.641  12.784
 9239TIP3   OH249131   2.065   0.536   0.221
 9239TIP3    H149132   2.158   0.548   0.200
 9239TIP3    H249133   2.029   0.625   0.222
 9240TIP3   OH249134   0.036   2.257  15.175
 9240TIP3    H149135   0.053   2.168  15.207
 9240TIP3    H249136  -0.028   2.245  15.105
 9241TIP3   OH249137   5.744   3.944   0.617
 9241TIP3    H149138   5.745   4.032   0.655
 9241TIP3    H249139   5.831   3.910   0.634
 9242TIP3   OH249140   2.973   1.038   5.161
 9242TIP3    H149141   2.963   1.094   5.238
 9242TIP3    H249142   3.058   1.061   5.125
 9243TIP3   OH249143   1.881   5.396  13.967
 9243TIP3    H149144   1.846   5.330  13.907
 9243TIP3    H249145   1.804   5.440  14.002
 9244TIP3   OH249146   2.130   4.861  14.714
 9244TIP3    H149147   2.078   4.874  14.634
 9244TIP3    H249148   2.101   4.931  14.773
 9245TIP3   OH249149   3.113   1.635  15.949
 9245TIP3    H149150   3.169   1.713  15.949
 9245TIP3    H249151   3.081   1.629  16.039
 9246TIP3   OH249152   5.007   2.621  14.610
 9246TIP3    H149153   5.076   2.629  14.545
 9246TIP3    H249154   4.928   2.605  14.559
 9247TIP3   OH249155   1.540   6.228  11.287
 9247TIP3    H149156   1.456   6.222  11.241
 9247TIP3    H249157   1.555   6.322  11.296
 9248TIP3   OH249158   3.331   5.754  17.007
 9248TIP3    H149159   3.258   5.804  17.044
 9248TIP3    H249160   3.331   5.775  16.914
 9249TIP3   OH249161   1.500   0.576   4.848
 9249TIP3    H149162   1.590   0.606   4.860
 9249TIP3    H249163   1.462   0.577   4.936
 9250TIP3   OH249164   2.036   6.604  15.415
 9250TIP3    H149165   2.008   6.597  15.506
 9250TIP3    H249166   2.104   6.537  15.406
 9251TIP3   OH249167   3.706   0.594   2.219
 9251TIP3    H149168   3.786   0.634   2.254
 9251TIP3    H249169   3.671   0.660   2.159
 9252TIP3   OH249170   0.366   4.228   6.590
 9252TIP3    H149171   0.325   4.172   6.524
 9252TIP3    H249172   0.331   4.196   6.673
 9253TIP3   OH249173   2.788   2.764  10.831
 9253TIP3    H149174   2.868   2.789  10.877
 9253TIP3    H249175   2.762   2.844  10.784
 9254TIP3   OH249176   3.470   5.975  13.819
 9254TIP3    H149177   3.411   6.049  13.810
 9254TIP3    H249178   3.450   5.919  13.743
 9255TIP3   OH249179   2.268   4.751  15.596
 9255TIP3    H149180   2.219   4.831  15.579
 9255TIP3    H249181   2.351   4.782  15.633
 9256TIP3   OH249182   5.458   1.297   3.881
 9256TIP3    H149183   5.404   1.238   3.934
 9256TIP3    H249184   5.466   1.252   3.797
 9257TIP3   OH249185   3.270   5.135  12.611
 9257TIP3    H149186   3.364   5.133  12.629
 9257TIP3    H249187   3.237   5.052  12.646
 9258TIP3   OH249188   3.126   3.063   4.476
 9258TIP3    H149189   3.073   3.131   4.434
 9258TIP3    H249190   3.185   3.111   4.533
 9259TIP3   OH249191   4.997   2.501  14.866
 9259TIP3    H149192   4.955   2.440  14.806
 9259TIP3    H249193   4.986   2.587  14.825
 9260TIP3   OH249194   3.337   2.899   3.629
 9260TIP3    H149195   3.423   2.857   3.625
 9260TIP3    H249196   3.282   2.835   3.673
 9261TIP3   OH249197   6.584   5.307   1.600
 9261TIP3    H149198   6.537   5.374   1.649
 9261TIP3    H249199   6.596   5.235   1.662
 9262TIP3   OH249200   1.169   1.946  11.344
 9262TIP3    H149201   1.219   1.865  11.337
 9262TIP3    H249202   1.233   2.015  11.325
 9263TIP3   OH249203   2.568   3.642  16.709
 9263TIP3    H149204   2.527   3.579  16.769
 9263TIP3    H249205   2.644   3.676  16.757
 9264TIP3   OH249206   3.861   1.357   0.450
 9264TIP3    H149207   3.841   1.299   0.524
 9264TIP3    H249208   3.877   1.442   0.490
 9265TIP3   OH249209   6.241   0.626   5.168
 9265TIP3    H149210   6.178   0.627   5.096
 9265TIP3    H249211   6.214   0.552   5.222
 9266TIP3   OH249212   4.948   1.961  10.838
 9266TIP3    H149213   4.868   2.000  10.801
 9266TIP3    H249214   4.917   1.899  10.903
 9267TIP3   OH249215   0.796   1.859  14.442
 9267TIP3    H149216   0.757   1.774  14.462
 9267TIP3    H249217   0.721   1.914  14.419
 9268TIP3   OH249218   5.422   2.873  14.373
 9268TIP3    H149219   5.434   2.910  14.286
 9268TIP3    H249220   5.399   2.947  14.428
 9269TIP3   OH249221   1.799   1.020  11.708
 9269TIP3    H149222   1.857   0.966  11.762
 9269TIP3    H249223   1.846   1.032  11.626
 9270TIP3   OH249224   2.980   6.515   0.558
 9270TIP3    H149225   3.068   6.553   0.566
 9270TIP3    H249226   2.940   6.562   0.485
 9271TIP3   OH249227   3.157   2.169   0.805
 9271TIP3    H149228   3.242   2.205   0.779
 9271TIP3    H249229   3.176   2.077   0.825
 9272TIP3   OH249230   0.333   0.491   0.953
 9272TIP3    H149231   0.277   0.492   0.876
 9272TIP3    H249232   0.422   0.493   0.919
 9273TIP3   OH249233   5.021   2.323  13.187
 9273TIP3    H149234   5.080   2.267  13.137
 9273TIP3    H249235   4.982   2.265  13.253
 9274TIP3   OH249236   4.928   0.055  15.943
 9274TIP3    H149237   4.834   0.055  15.960
 9274TIP3    H249238   4.953  -0.037  15.945
 9275TIP3   OH249239   1.932   0.175   2.144
 9275TIP3    H149240   1.874   0.162   2.219
 9275TIP3    H249241   1.881   0.146   2.069
 9276TIP3   OH249242   4.696   3.261   0.522
 9276TIP3    H149243   4.787   3.269   0.493
 9276TIP3    H249244   4.702   3.248   0.616
 9277TIP3   OH249245   3.195   6.110   4.516
 9277TIP3    H149246   3.107   6.115   4.480
 9277TIP3    H249247   3.189   6.153   4.601
 9278TIP3   OH249248   6.199   4.164  16.020
 9278TIP3    H149249   6.215   4.209  16.103
 9278TIP3    H249250   6.200   4.233  15.954
 9279TIP3   OH249251   3.225   3.900  14.313
 9279TIP3    H149252   3.203   3.953  14.236
 9279TIP3    H249253   3.310   3.863  14.293
 9280TIP3   OH249254   5.983   5.916   0.034
 9280TIP3    H149255   5.931   5.848  -0.008
 9280TIP3    H249256   6.070   5.908  -0.005
 9281TIP3   OH249257   2.264   5.162  15.982
 9281TIP3    H149258   2.257   5.227  15.912
 9281TIP3    H249259   2.345   5.114  15.962
 9282TIP3   OH249260   0.081   3.738  14.555
 9282TIP3    H149261  -0.001   3.689  14.560
 9282TIP3    H249262   0.094   3.772  14.643
 9283TIP3   OH249263   5.856   4.953  13.491
 9283TIP3    H149264   5.926   5.010  13.461
 9283TIP3    H249265   5.842   4.892  13.418
 9284TIP3   OH249266   4.555   6.034   0.269
 9284TIP3    H149267   4.592   5.979   0.338
 9284TIP3    H249268   4.628   6.089   0.241
 9285TIP3   OH249269   2.606   2.218  14.099
 9285TIP3    H149270   2.669   2.168  14.150
 9285TIP3    H249271   2.623   2.194  14.008
 9286TIP3   OH249272   4.584   5.983  12.114
 9286TIP3    H149273   4.570   5.897  12.077
 9286TIP3    H249274   4.496   6.019  12.128
 9287TIP3   OH249275   6.032   1.967  16.422
 9287TIP3    H149276   6.021   1.981  16.328
 9287TIP3    H249277   6.053   1.874  16.429
 9288TIP3   OH249278   1.171   1.701   3.850
 9288TIP3    H149279   1.207   1.631   3.795
 9288TIP3    H249280   1.217   1.692   3.933
 9289TIP3   OH249281   4.693   1.830  11.501
 9289TIP3    H149282   4.726   1.872  11.422
 9289TIP3    H249283   4.639   1.757  11.470
 9290TIP3   OH249284   2.013   5.980  11.641
 9290TIP3    H149285   1.952   5.948  11.708
 9290TIP3    H249286   2.085   6.019  11.690
 9291TIP3   OH249287   0.346   2.037   1.080
 9291TIP3    H149288   0.324   1.960   1.132
 9291TIP3    H249289   0.271   2.095   1.090
 9292TIP3   OH249290   1.194   4.449   4.582
 9292TIP3    H149291   1.102   4.440   4.606
 9292TIP3    H249292   1.238   4.380   4.630
 9293TIP3   OH249293   2.477   4.495   4.001
 9293TIP3    H149294   2.535   4.564   4.031
 9293TIP3    H249295   2.397   4.540   3.974
 9294TIP3   OH249296   6.230   6.723  15.914
 9294TIP3    H149297   6.153   6.668  15.931
 9294TIP3    H249298   6.304   6.665  15.927
 9295TIP3   OH249299   5.306   5.937  14.817
 9295TIP3    H149300   5.358   5.926  14.897
 9295TIP3    H249301   5.264   5.852  14.805
 9296TIP3   OH249302   0.715   4.900  11.513
 9296TIP3    H149303   0.781   4.969  11.504
 9296TIP3    H249304   0.688   4.905  11.604
 9297TIP3   OH249305   2.450   1.333   5.273
 9297TIP3    H149306   2.445   1.314   5.179
 9297TIP3    H249307   2.361   1.356   5.297
 9298TIP3   OH249308   3.340   4.098  12.002
 9298TIP3    H149309   3.435   4.086  12.003
 9298TIP3    H249310   3.318   4.126  12.091
 9299TIP3   OH249311   3.206   1.811  15.073
 9299TIP3    H149312   3.298   1.801  15.050
 9299TIP3    H249313   3.160   1.751  15.014
 9300TIP3   OH249314   4.780   6.539  13.288
 9300TIP3    H149315   4.705   6.570  13.339
 9300TIP3    H249316   4.756   6.558  13.198
 9301TIP3   OH249317   4.720   6.303  11.532
 9301TIP3    H149318   4.723   6.323  11.626
 9301TIP3    H249319   4.793   6.353  11.495
 9302TIP3   OH249320   1.733   0.652   5.303
 9302TIP3    H149321   1.653   0.608   5.330
 9302TIP3    H249322   1.791   0.581   5.276
 9303TIP3   OH249323   4.048   1.286  11.148
 9303TIP3    H149324   3.956   1.263  11.140
 9303TIP3    H249325   4.084   1.275  11.060
 9304TIP3   OH249326   3.823   1.562  14.381
 9304TIP3    H149327   3.832   1.522  14.468
 9304TIP3    H249328   3.902   1.615  14.371
 9305TIP3   OH249329   2.388   4.539  14.692
 9305TIP3    H149330   2.448   4.535  14.617
 9305TIP3    H249331   2.336   4.459  14.685
 9306TIP3   OH249332   4.598   6.108  14.812
 9306TIP3    H149333   4.564   6.174  14.873
 9306TIP3    H249334   4.604   6.028  14.865
 9307TIP3   OH249335   1.025   3.089  14.569
 9307TIP3    H149336   0.954   3.106  14.631
 9307TIP3    H249337   1.102   3.128  14.609
 9308TIP3   OH249338   4.307   0.936   0.606
 9308TIP3    H149339   4.381   0.911   0.662
 9308TIP3    H249340   4.343   0.935   0.517
 9309TIP3   OH249341   0.078   0.948  11.642
 9309TIP3    H149342   0.162   0.991  11.660
 9309TIP3    H249343   0.072   0.946  11.547
 9310TIP3   OH249344   2.295   6.679  16.844
 9310TIP3    H149345   2.201   6.696  16.847
 9310TIP3    H249346   2.336   6.764  16.858
 9311TIP3   OH249347   1.587   6.508   1.851
 9311TIP3    H149348   1.638   6.544   1.923
 9311TIP3    H249349   1.514   6.569   1.840
 9312TIP3   OH249350   2.414   3.200   3.997
 9312TIP3    H149351   2.483   3.157   3.947
 9312TIP3    H249352   2.336   3.191   3.943
 9313TIP3   OH249353   0.950   1.979   4.731
 9313TIP3    H149354   0.952   2.074   4.738
 9313TIP3    H249355   0.884   1.961   4.664
 9314TIP3   OH249356   6.081   6.230   1.977
 9314TIP3    H149357   6.019   6.179   2.029
 9314TIP3    H249358   6.084   6.185   1.893
 9315TIP3   OH249359   4.799   3.541  10.951
 9315TIP3    H149360   4.841   3.466  10.909
 9315TIP3    H249361   4.861   3.568  11.018
 9316TIP3   OH249362   1.655   5.111  14.425
 9316TIP3    H149363   1.699   5.147  14.502
 9316TIP3    H249364   1.679   5.019  14.425
 9317TIP3   OH249365   6.149   3.356  12.883
 9317TIP3    H149366   6.136   3.412  12.960
 9317TIP3    H249367   6.187   3.276  12.918
 9318TIP3   OH249368   6.443   1.424  13.226
 9318TIP3    H149369   6.501   1.407  13.300
 9318TIP3    H249370   6.357   1.441  13.265
 9319TIP3   OH249371   0.609   3.954  14.074
 9319TIP3    H149372   0.699   3.985  14.069
 9319TIP3    H249373   0.557   4.035  14.074
 9320TIP3   OH249374   1.237   2.661  11.944
 9320TIP3    H149375   1.231   2.757  11.936
 9320TIP3    H249376   1.265   2.632  11.858
 9321TIP3   OH249377   4.676   2.036  12.377
 9321TIP3    H149378   4.648   2.083  12.299
 9321TIP3    H249379   4.687   1.946  12.349
 9322TIP3   OH249380   5.317   4.535  16.601
 9322TIP3    H149381   5.408   4.532  16.572
 9322TIP3    H249382   5.273   4.468  16.549
 9323TIP3   OH249383   0.445   0.556  14.891
 9323TIP3    H149384   0.402   0.475  14.864
 9323TIP3    H249385   0.441   0.612  14.813
 9324TIP3   OH249386   2.201   0.409   5.647
 9324TIP3    H149387   2.219   0.410   5.553
 9324TIP3    H249388   2.178   0.499   5.668
 9325TIP3   OH249389   6.281   4.157   3.359
 9325TIP3    H149390   6.332   4.233   3.384
 9325TIP3    H249391   6.345   4.086   3.353
 9326TIP3   OH249392   0.226   6.511  15.173
 9326TIP3    H149393   0.314   6.480  15.194
 9326TIP3    H249394   0.186   6.440  15.123
 9327TIP3   OH249395   1.360   3.646   1.412
 9327TIP3    H149396   1.454   3.652   1.393
 9327TIP3    H249397   1.334   3.561   1.375
 9328TIP3   OH249398   1.803   2.767   0.970
 9328TIP3    H149399   1.765   2.730   1.049
 9328TIP3    H249400   1.876   2.709   0.948
 9329TIP3   OH249401   4.327   5.603  12.016
 9329TIP3    H149402   4.308   5.639  12.103
 9329TIP3    H249403   4.307   5.510  12.023
 9330TIP3   OH249404   0.584   0.223   2.752
 9330TIP3    H149405   0.626   0.210   2.667
 9330TIP3    H249406   0.564   0.135   2.783
 9331TIP3   OH249407   3.711   1.253  12.278
 9331TIP3    H149408   3.730   1.168  12.317
 9331TIP3    H249409   3.779   1.311  12.311
 9332TIP3   OH249410   4.291   5.098  12.450
 9332TIP3    H149411   4.293   5.194  12.443
 9332TIP3    H249412   4.368   5.076  12.501
 9333TIP3   OH249413   2.178   6.041  15.215
 9333TIP3    H149414   2.202   6.051  15.307
 9333TIP3    H249415   2.085   6.063  15.211
 9334TIP3   OH249416   2.385   0.239  11.796
 9334TIP3    H149417   2.401   0.327  11.831
 9334TIP3    H249418   2.456   0.186  11.832
 9335TIP3   OH249419   1.370   5.377  12.280
 9335TIP3    H149420   1.437   5.430  12.322
 9335TIP3    H249421   1.297   5.438  12.265
 9336TIP3   OH249422   6.685   3.684   4.675
 9336TIP3    H149423   6.665   3.734   4.755
 9336TIP3    H249424   6.683   3.748   4.605
 9337TIP3   OH249425   6.156   5.001   3.442
 9337TIP3    H149426   6.101   5.008   3.364
 9337TIP3    H249427   6.154   5.088   3.481
 9338TIP3   OH249428   5.235   3.583   1.394
 9338TIP3    H149429   5.268   3.546   1.312
 9338TIP3    H249430   5.283   3.536   1.462
 9339TIP3   OH249431   1.220   2.311  14.255
 9339TIP3    H149432   1.135   2.340  14.222
 9339TIP3    H249433   1.250   2.246  14.191
 9340TIP3   OH249434   4.182   1.237  12.676
 9340TIP3    H149435   4.125   1.302  12.716
 9340TIP3    H249436   4.204   1.273  12.590
 9341TIP3   OH249437   0.933   0.620  11.209
 9341TIP3    H149438   1.001   0.672  11.166
 9341TIP3    H249439   0.963   0.530  11.200
 9342TIP3   OH249440   4.302   3.409   2.011
 9342TIP3    H149441   4.298   3.450   1.924
 9342TIP3    H249442   4.331   3.320   1.995
 9343TIP3   OH249443   3.821   2.131  13.467
 9343TIP3    H149444   3.863   2.170  13.391
 9343TIP3    H249445   3.891   2.124  13.532
 9344TIP3   OH249446   4.378   3.314  13.368
 9344TIP3    H149447   4.379   3.221  13.349
 9344TIP3    H249448   4.444   3.326  13.436
 9345TIP3   OH249449   4.794   5.387   2.285
 9345TIP3    H149450   4.833   5.305   2.254
 9345TIP3    H249451   4.812   5.387   2.379
 9346TIP3   OH249452   0.799   3.083  16.338
 9346TIP3    H149453   0.847   3.001  16.327
 9346TIP3    H249454   0.799   3.123  16.251
 9347TIP3   OH249455   6.147   0.038   3.006
 9347TIP3    H149456   6.063  -0.003   2.986
 9347TIP3    H249457   6.128   0.132   3.011
 9348TIP3   OH249458   1.571   0.470  12.972
 9348TIP3    H149459   1.662   0.474  12.942
 9348TIP3    H249460   1.556   0.377  12.991
 9349TIP3   OH249461   2.276   5.279  15.250
 9349TIP3    H149462   2.184   5.299  15.236
 9349TIP3    H249463   2.276   5.215  15.322
 9350TIP3   OH249464   5.998   4.484   5.091
 9350TIP3    H149465   5.938   4.559   5.091
 9350TIP3    H249466   5.955   4.419   5.146
 9351TIP3   OH249467   0.641   4.792   2.091
 9351TIP3    H149468   0.641   4.881   2.125
 9351TIP3    H249469   0.549   4.772   2.075
 9352TIP3   OH249470   4.368   6.331  13.333
 9352TIP3    H149471   4.458   6.356  13.357
 9352TIP3    H249472   4.312   6.386  13.388
 9353TIP3   OH249473   2.177   1.026   4.729
 9353TIP3    H149474   2.175   1.031   4.633
 9353TIP3    H249475   2.202   0.936   4.748
 9354TIP3   OH249476   5.224   0.438  13.877
 9354TIP3    H149477   5.283   0.498  13.831
 9354TIP3    H249478   5.169   0.494  13.931
 9355TIP3   OH249479   4.746   5.971  10.255
 9355TIP3    H149480   4.780   6.061  10.253
 9355TIP3    H249481   4.667   5.977  10.309
 9356TIP3   OH249482   0.017   1.634  13.194
 9356TIP3    H149483  -0.036   1.641  13.274
 9356TIP3    H249484  -0.039   1.589  13.131
 9357TIP3   OH249485   3.733   1.509  15.287
 9357TIP3    H149486   3.679   1.588  15.291
 9357TIP3    H249487   3.793   1.525  15.214
 9358TIP3   OH249488   2.581   2.627   2.974
 9358TIP3    H149489   2.516   2.696   2.984
 9358TIP3    H249490   2.625   2.622   3.058
 9359TIP3   OH249491   6.169   3.925   0.018
 9359TIP3    H149492   6.236   3.977   0.063
 9359TIP3    H249493   6.182   3.836   0.051
 9360TIP3   OH249494   3.236   5.364  11.761
 9360TIP3    H149495   3.172   5.320  11.704
 9360TIP3    H249496   3.321   5.340  11.724
 9361TIP3   OH249497   3.484   2.382   3.633
 9361TIP3    H149498   3.562   2.331   3.610
 9361TIP3    H249499   3.517   2.456   3.684
 9362TIP3   OH249500   6.122   0.636  11.229
 9362TIP3    H149501   6.143   0.631  11.135
 9362TIP3    H249502   6.033   0.603  11.235
 9363TIP3   OH249503   0.611   5.380   0.123
 9363TIP3    H149504   0.637   5.375   0.031
 9363TIP3    H249505   0.582   5.291   0.145
 9364TIP3   OH249506   5.390   3.029   0.710
 9364TIP3    H149507   5.364   3.117   0.685
 9364TIP3    H249508   5.386   3.029   0.806
 9365TIP3   OH249509   6.480   3.446  15.173
 9365TIP3    H149510   6.566   3.413  15.149
 9365TIP3    H249511   6.435   3.370  15.211
 9366TIP3   OH249512   4.236   5.608   6.434
 9366TIP3    H149513   4.307   5.668   6.411
 9366TIP3    H249514   4.269   5.522   6.407
 9367TIP3   OH249515   3.018   5.632   1.076
 9367TIP3    H149516   3.041   5.563   1.012
 9367TIP3    H249517   3.045   5.596   1.160
 9368TIP3   OH249518   4.966   0.922   5.757
 9368TIP3    H149519   5.024   0.872   5.814
 9368TIP3    H249520   4.878   0.894   5.783
 9369TIP3   OH249521   2.931   4.262   0.398
 9369TIP3    H149522   2.914   4.185   0.344
 9369TIP3    H249523   3.026   4.262   0.411
 9370TIP3   OH249524   5.227   1.811  17.119
 9370TIP3    H149525   5.296   1.866  17.082
 9370TIP3    H249526   5.273   1.733  17.150
 9371TIP3   OH249527   1.828   5.723  13.729
 9371TIP3    H149528   1.920   5.703  13.747
 9371TIP3    H249529   1.828   5.763  13.642
 9372TIP3   OH249530   2.923   0.860   5.805
 9372TIP3    H149531   3.018   0.857   5.794
 9372TIP3    H249532   2.891   0.915   5.733
 9373TIP3   OH249533   5.795   4.177  12.278
 9373TIP3    H149534   5.845   4.258  12.269
 9373TIP3    H249535   5.859   4.108  12.257
 9374TIP3   OH249536   6.173   4.593  16.881
 9374TIP3    H149537   6.107   4.648  16.838
 9374TIP3    H249538   6.251   4.649  16.885
 9375TIP3   OH249539   4.141   4.017   4.371
 9375TIP3    H149540   4.132   4.077   4.445
 9375TIP3    H249541   4.066   3.957   4.379
 9376TIP3   OH249542   3.864   0.807  12.356
 9376TIP3    H149543   3.940   0.755  12.383
 9376TIP3    H249544   3.798   0.742  12.331
 9377TIP3   OH249545   1.650   4.787   4.659
 9377TIP3    H149546   1.664   4.881   4.661
 9377TIP3    H249547   1.640   4.762   4.751
 9378TIP3   OH249548   0.200   3.980  14.060
 9378TIP3    H149549   0.138   3.939  14.121
 9378TIP3    H249550   0.271   4.013  14.116
 9379TIP3   OH249551   0.869   2.676  11.570
 9379TIP3    H149552   0.787   2.651  11.528
 9379TIP3    H249553   0.934   2.615  11.536
 9380TIP3   OH249554   0.593   5.603  12.905
 9380TIP3    H149555   0.546   5.570  12.981
 9380TIP3    H249556   0.531   5.661  12.862
 9381TIP3   OH249557   4.930   1.172   0.279
 9381TIP3    H149558   5.022   1.148   0.280
 9381TIP3    H249559   4.891   1.121   0.351
 9382TIP3   OH249560   1.177   6.652  13.495
 9382TIP3    H149561   1.168   6.557  13.492
 9382TIP3    H249562   1.265   6.669  13.463
 9383TIP3   OH249563   5.435   0.185  17.040
 9383TIP3    H149564   5.488   0.119  17.085
 9383TIP3    H249565   5.489   0.214  16.966
 9384TIP3   OH249566   3.971   4.074  10.898
 9384TIP3    H149567   3.905   4.138  10.871
 9384TIP3    H249568   3.947   3.994  10.851
 9385TIP3   OH249569   6.634   2.331   5.121
 9385TIP3    H149570   6.662   2.274   5.193
 9385TIP3    H249571   6.637   2.276   5.043
 9386TIP3   OH249572   3.416   5.098  14.717
 9386TIP3    H149573   3.372   5.024  14.676
 9386TIP3    H249574   3.399   5.087  14.811
 9387TIP3   OH249575   4.508   1.399   0.385
 9387TIP3    H149576   4.448   1.472   0.367
 9387TIP3    H249577   4.570   1.433   0.449
 9388TIP3   OH249578   1.595   4.530  11.567
 9388TIP3    H149579   1.663   4.588  11.603
 9388TIP3    H249580   1.543   4.587  11.510
 9389TIP3   OH249581   0.279   6.545   3.291
 9389TIP3    H149582   0.366   6.569   3.259
 9389TIP3    H249583   0.296   6.482   3.361
 9390TIP3   OH249584   1.902   0.072  17.022
 9390TIP3    H149585   1.972   0.100  16.963
 9390TIP3    H249586   1.943   0.071  17.109
 9391TIP3   OH249587   4.026   0.701  11.552
 9391TIP3    H149588   4.051   0.618  11.511
 9391TIP3    H249589   4.096   0.761  11.527
 9392TIP3   OH249590   5.602   2.064   5.896
 9392TIP3    H149591   5.540   2.118   5.945
 9392TIP3    H249592   5.642   2.008   5.962
 9393TIP3   OH249593   3.217   5.503   5.535
 9393TIP3    H149594   3.287   5.455   5.579
 9393TIP3    H249595   3.256   5.586   5.510
 9394TIP3   OH249596   2.263   5.948  11.073
 9394TIP3    H149597   2.302   6.034  11.091
 9394TIP3    H249598   2.174   5.968  11.046
 9395TIP3   OH249599   6.683   6.385  15.303
 9395TIP3    H149600   6.704   6.302  15.345
 9395TIP3    H249601   6.602   6.414  15.344
 9396TIP3   OH249602   3.699   0.485   3.507
 9396TIP3    H149603   3.728   0.429   3.435
 9396TIP3    H249604   3.617   0.445   3.537
 9397TIP3   OH249605   0.648   5.375   4.778
 9397TIP3    H149606   0.638   5.362   4.873
 9397TIP3    H249607   0.573   5.430   4.754
 9398TIP3   OH249608   3.268   5.440  12.703
 9398TIP3    H149609   3.342   5.380  12.693
 9398TIP3    H249610   3.211   5.397  12.768
 9399TIP3   OH249611   6.210   4.151   5.177
 9399TIP3    H149612   6.169   4.077   5.222
 9399TIP3    H249613   6.282   4.111   5.127
 9400TIP3   OH249614   6.240   0.453   3.490
 9400TIP3    H149615   6.323   0.422   3.527
 9400TIP3    H249616   6.255   0.546   3.472
 9401TIP3   OH249617   0.133   0.539  14.553
 9401TIP3    H149618   0.053   0.557  14.504
 9401TIP3    H249619   0.195   0.507  14.487
 9402TIP3   OH249620   5.470   3.587   6.422
 9402TIP3    H149621   5.485   3.598   6.516
 9402TIP3    H249622   5.384   3.545   6.417
 9403TIP3   OH249623   4.695   1.172   1.534
 9403TIP3    H149624   4.751   1.240   1.495
 9403TIP3    H249625   4.630   1.154   1.466
 9404TIP3   OH249626   1.155   2.909   3.222
 9404TIP3    H149627   1.067   2.880   3.243
 9404TIP3    H249628   1.212   2.840   3.257
 9405TIP3   OH249629   4.378   2.167   3.374
 9405TIP3    H149630   4.304   2.224   3.396
 9405TIP3    H249631   4.455   2.222   3.386
 9406TIP3   OH249632   0.493   1.634  13.745
 9406TIP3    H149633   0.564   1.616  13.683
 9406TIP3    H249634   0.537   1.660  13.826
 9407TIP3   OH249635   2.567   0.012   2.637
 9407TIP3    H149636   2.588   0.058   2.555
 9407TIP3    H249637   2.478   0.040   2.658
 9408TIP3   OH249638   2.267   4.219  11.624
 9408TIP3    H149639   2.347   4.246  11.579
 9408TIP3    H249640   2.225   4.302  11.648
 9409TIP3   OH249641   3.240   4.989   1.418
 9409TIP3    H149642   3.282   4.937   1.486
 9409TIP3    H249643   3.150   5.000   1.448
 9410TIP3   OH249644   0.688   1.015  13.140
 9410TIP3    H149645   0.647   1.028  13.226
 9410TIP3    H249646   0.616   0.993  13.082
 9411TIP3   OH249647   3.068   4.149  12.480
 9411TIP3    H149648   3.014   4.210  12.430
 9411TIP3    H249649   3.039   4.062  12.454
 9412TIP3   OH249650   3.883   6.034  12.893
 9412TIP3    H149651   3.790   6.032  12.870
 9412TIP3    H249652   3.927   6.053  12.810
 9413TIP3   OH249653   2.040   2.656   5.396
 9413TIP3    H149654   2.114   2.643   5.337
 9413TIP3    H249655   2.076   2.703   5.471
 9414TIP3   OH249656   0.061   0.251   4.020
 9414TIP3    H149657  -0.033   0.268   4.007
 9414TIP3    H249658   0.082   0.297   4.101
 9415TIP3   OH249659   1.655   2.606   5.557
 9415TIP3    H149660   1.620   2.693   5.577
 9415TIP3    H249661   1.608   2.547   5.615
 9416TIP3   OH249662   0.161   3.957  11.242
 9416TIP3    H149663   0.221   4.008  11.187
 9416TIP3    H249664   0.102   3.915  11.180
 9417TIP3   OH249665   2.376   5.755   1.281
 9417TIP3    H149666   2.404   5.831   1.230
 9417TIP3    H249667   2.396   5.778   1.372
 9418TIP3   OH249668   5.515   6.064   4.024
 9418TIP3    H149669   5.559   6.130   4.078
 9418TIP3    H249670   5.495   5.992   4.084
 9419TIP3   OH249671   3.903   1.557  10.621
 9419TIP3    H149672   3.878   1.466  10.609
 9419TIP3    H249673   3.896   1.596  10.534
 9420TIP3   OH249674   4.825   6.529  14.691
 9420TIP3    H149675   4.918   6.508  14.689
 9420TIP3    H249676   4.787   6.476  14.620
 9421TIP3   OH249677   6.200   2.977   0.014
 9421TIP3    H149678   6.132   3.044   0.007
 9421TIP3    H249679   6.237   2.989   0.101
 9422TIP3   OH249680   5.105   2.387  17.154
 9422TIP3    H149681   5.014   2.359  17.158
 9422TIP3    H249682   5.116   2.418  17.064
 9423TIP3   OH249683   6.749   1.015  12.738
 9423TIP3    H149684   6.711   0.949  12.680
 9423TIP3    H249685   6.680   1.080  12.749
 9424TIP3   OH249686   4.429   3.681  15.556
 9424TIP3    H149687   4.368   3.626  15.508
 9424TIP3    H249688   4.388   3.695  15.641
 9425TIP3   OH249689   4.479   4.602  11.478
 9425TIP3    H149690   4.459   4.688  11.516
 9425TIP3    H249691   4.573   4.590  11.494
 9426TIP3   OH249692   4.378   5.401   3.426
 9426TIP3    H149693   4.412   5.319   3.389
 9426TIP3    H249694   4.406   5.399   3.517
 9427TIP3   OH249695   1.728   2.106  12.737
 9427TIP3    H149696   1.744   2.041  12.806
 9427TIP3    H249697   1.660   2.067  12.682
 9428TIP3   OH249698   0.971   3.116  16.682
 9428TIP3    H149699   0.994   3.179  16.614
 9428TIP3    H249700   1.018   3.146  16.759
 9429TIP3   OH249701   2.265   0.340  13.602
 9429TIP3    H149702   2.178   0.334  13.642
 9429TIP3    H249703   2.249   0.377  13.516
 9430TIP3   OH249704   5.056   5.604  15.035
 9430TIP3    H149705   5.055   5.700  15.033
 9430TIP3    H249706   4.967   5.579  15.009
 9431TIP3   OH249707   5.212   2.698   1.059
 9431TIP3    H149708   5.121   2.723   1.073
 9431TIP3    H249709   5.255   2.777   1.027
 9432TIP3   OH249710   6.177   3.132   1.898
 9432TIP3    H149711   6.238   3.190   1.853
 9432TIP3    H249712   6.115   3.191   1.942
 9433TIP3   OH249713   4.603   5.236  16.449
 9433TIP3    H149714   4.562   5.298  16.389
 9433TIP3    H249715   4.696   5.261  16.449
 9434TIP3   OH249716   5.748   4.600   3.852
 9434TIP3    H149717   5.757   4.535   3.921
 9434TIP3    H249718   5.784   4.680   3.890
 9435TIP3   OH249719   3.010   1.253  14.822
 9435TIP3    H149720   2.968   1.317  14.764
 9435TIP3    H249721   3.084   1.220  14.772
 9436TIP3   OH249722   6.379   2.228   6.002
 9436TIP3    H149723   6.394   2.144   6.046
 9436TIP3    H249724   6.421   2.218   5.917
 9437TIP3   OH249725   0.931   0.586  13.488
 9437TIP3    H149726   1.020   0.594  13.523
 9437TIP3    H249727   0.943   0.549  13.400
 9438TIP3   OH249728   3.677   4.581  14.051
 9438TIP3    H149729   3.599   4.636  14.053
 9438TIP3    H249730   3.649   4.498  14.088
 9439TIP3   OH249731   4.265   3.563  12.731
 9439TIP3    H149732   4.183   3.597  12.764
 9439TIP3    H249733   4.321   3.554  12.808
 9440TIP3   OH249734   0.533   0.860  13.437
 9440TIP3    H149735   0.488   0.835  13.356
 9440TIP3    H249736   0.505   0.794  13.500
 9441TIP3   OH249737   5.357   2.182  14.143
 9441TIP3    H149738   5.329   2.128  14.069
 9441TIP3    H249739   5.295   2.161  14.213
 9442TIP3   OH249740   3.236   0.279   3.500
 9442TIP3    H149741   3.190   0.352   3.459
 9442TIP3    H249742   3.172   0.241   3.561
 9443TIP3   OH249743   3.854   3.884   0.068
 9443TIP3    H149744   3.902   3.806   0.040
 9443TIP3    H249745   3.922   3.950   0.083
 9444TIP3   OH249746   4.095   1.947  13.027
 9444TIP3    H149747   4.182   1.969  13.060
 9444TIP3    H249748   4.105   1.950  12.932
 9445TIP3   OH249749   3.306   2.502  11.995
 9445TIP3    H149750   3.334   2.552  11.918
 9445TIP3    H249751   3.339   2.414  11.979
 9446TIP3   OH249752   3.763   5.020  14.295
 9446TIP3    H149753   3.788   5.101  14.250
 9446TIP3    H249754   3.668   5.028  14.306
 9447TIP3   OH249755   2.829   0.820   5.042
 9447TIP3    H149756   2.765   0.830   5.112
 9447TIP3    H249757   2.899   0.882   5.063
 9448TIP3   OH249758   3.873   5.824   5.799
 9448TIP3    H149759   3.896   5.734   5.775
 9448TIP3    H249760   3.939   5.849   5.863
 9449TIP3   OH249761   3.329   5.445  14.635
 9449TIP3    H149762   3.246   5.437  14.682
 9449TIP3    H249763   3.337   5.539  14.616
 9450TIP3   OH249764   4.078   3.153  13.238
 9450TIP3    H149765   4.086   3.142  13.143
 9450TIP3    H249766   4.001   3.101  13.262
 9451TIP3   OH249767   2.935   4.499  11.365
 9451TIP3    H149768   3.015   4.529  11.322
 9451TIP3    H249769   2.956   4.412  11.399
 9452TIP3   OH249770   4.834   2.423   1.612
 9452TIP3    H149771   4.839   2.369   1.533
 9452TIP3    H249772   4.785   2.501   1.585
 9453TIP3   OH249773   4.626   2.669   3.189
 9453TIP3    H149774   4.696   2.712   3.239
 9453TIP3    H249775   4.564   2.740   3.169
 9454TIP3   OH249776   0.862   0.555  13.878
 9454TIP3    H149777   0.885   0.636  13.832
 9454TIP3    H249778   0.925   0.491  13.846
 9455TIP3   OH249779   6.311   1.689   5.768
 9455TIP3    H149780   6.333   1.751   5.837
 9455TIP3    H249781   6.354   1.607   5.794
 9456TIP3   OH249782   5.830   2.755  15.867
 9456TIP3    H149783   5.767   2.745  15.938
 9456TIP3    H249784   5.808   2.839  15.827
 9457TIP3   OH249785   2.306   0.989   5.517
 9457TIP3    H149786   2.247   1.049   5.561
 9457TIP3    H249787   2.385   1.040   5.500
 9458TIP3   OH249788   3.661   0.734   6.519
 9458TIP3    H149789   3.651   0.794   6.446
 9458TIP3    H249790   3.584   0.677   6.514
 9459TIP3   OH249791   6.314   2.227   4.143
 9459TIP3    H149792   6.351   2.315   4.140
 9459TIP3    H249793   6.346   2.185   4.063
 9460TIP3   OH249794   5.955   1.782  15.583
 9460TIP3    H149795   5.949   1.692  15.551
 9460TIP3    H249796   5.865   1.814  15.583
 9461TIP3   OH249797   2.636   1.604  14.142
 9461TIP3    H149798   2.616   1.675  14.082
 9461TIP3    H249799   2.731   1.612  14.157
 9462TIP3   OH249800   3.417   5.658   3.367
 9462TIP3    H149801   3.422   5.658   3.271
 9462TIP3    H249802   3.414   5.566   3.391
 9463TIP3   OH249803   2.852   4.568  15.636
 9463TIP3    H149804   2.853   4.613  15.721
 9463TIP3    H249805   2.764   4.533  15.627
 9464TIP3   OH249806   0.956   5.819   1.615
 9464TIP3    H149807   0.929   5.832   1.706
 9464TIP3    H249808   0.900   5.749   1.583
 9465TIP3   OH249809   6.480   1.684  14.949
 9465TIP3    H149810   6.414   1.698  14.881
 9465TIP3    H249811   6.432   1.695  15.031
 9466TIP3   OH249812   5.079   4.552   5.741
 9466TIP3    H149813   5.090   4.566   5.835
 9466TIP3    H249814   5.020   4.477   5.734
 9467TIP3   OH249815   4.570   4.856   5.010
 9467TIP3    H149816   4.526   4.936   5.039
 9467TIP3    H249817   4.647   4.848   5.066
 9468TIP3   OH249818   2.738   1.837  15.220
 9468TIP3    H149819   2.830   1.832  15.246
 9468TIP3    H249820   2.690   1.819  15.300
 9469TIP3   OH249821   5.652   4.992   0.538
 9469TIP3    H149822   5.675   5.083   0.558
 9469TIP3    H249823   5.558   4.995   0.519
 9470TIP3   OH249824   3.056   5.909   0.953
 9470TIP3    H149825   3.070   5.876   0.864
 9470TIP3    H249826   3.063   5.831   1.008
 9471TIP3   OH249827   3.899   5.878   2.720
 9471TIP3    H149828   3.853   5.959   2.698
 9471TIP3    H249829   3.930   5.845   2.635
 9472TIP3   OH249830   6.692   6.132   2.019
 9472TIP3    H149831   6.691   6.224   1.994
 9472TIP3    H249832   6.645   6.130   2.103
 9473TIP3   OH249833   0.595   4.326  15.212
 9473TIP3    H149834   0.519   4.312  15.155
 9473TIP3    H249835   0.670   4.316  15.153
 9474TIP3   OH249836   1.441   3.502   4.092
 9474TIP3    H149837   1.509   3.555   4.134
 9474TIP3    H249838   1.390   3.467   4.166
 9475TIP3   OH249839   4.341   2.629   0.557
 9475TIP3    H149840   4.383   2.576   0.624
 9475TIP3    H249841   4.336   2.717   0.596
 9476TIP3   OH249842   0.579   1.940  11.317
 9476TIP3    H149843   0.526   1.923  11.239
 9476TIP3    H249844   0.669   1.945  11.286
 9477TIP3   OH249845   1.239   3.757  11.038
 9477TIP3    H149846   1.310   3.714  10.990
 9477TIP3    H249847   1.279   3.834  11.077
 9478TIP3   OH249848   5.822   6.472  10.605
 9478TIP3    H149849   5.741   6.422  10.605
 9478TIP3    H249850   5.847   6.479  10.697
 9479TIP3   OH249851   6.542   5.933  13.035
 9479TIP3    H149852   6.468   5.873  13.034
 9479TIP3    H249853   6.611   5.888  12.986
 9480TIP3   OH249854   3.202   0.220  12.363
 9480TIP3    H149855   3.237   0.255  12.445
 9480TIP3    H249856   3.172   0.132  12.385
 9481TIP3   OH249857   0.967   5.853  11.886
 9481TIP3    H149858   0.881   5.850  11.928
 9481TIP3    H249859   0.996   5.762  11.885
 9482TIP3   OH249860   4.512   5.356   3.682
 9482TIP3    H149861   4.515   5.312   3.766
 9482TIP3    H249862   4.567   5.433   3.694
 9483TIP3   OH249863   0.621   1.685  17.133
 9483TIP3    H149864   0.684   1.614  17.139
 9483TIP3    H249865   0.611   1.716  17.223
 9484TIP3   OH249866   2.007   1.867   1.116
 9484TIP3    H149867   2.062   1.873   1.037
 9484TIP3    H249868   2.049   1.800   1.169
 9485TIP3   OH249869   2.805   4.345  14.199
 9485TIP3    H149870   2.877   4.338  14.136
 9485TIP3    H249871   2.804   4.438  14.224
 9486TIP3   OH249872   0.090   5.939  10.978
 9486TIP3    H149873   0.167   5.995  10.984
 9486TIP3    H249874   0.049   5.962  10.895
 9487TIP3   OH249875   4.790   3.305  11.643
 9487TIP3    H149876   4.772   3.399  11.652
 9487TIP3    H249877   4.860   3.301  11.578
 9488TIP3   OH249878   3.431   0.105   5.851
 9488TIP3    H149879   3.434   0.019   5.893
 9488TIP3    H249880   3.486   0.161   5.907
 9489TIP3   OH249881   2.916   0.083   4.489
 9489TIP3    H149882   2.914   0.014   4.422
 9489TIP3    H249883   2.991   0.060   4.544
 9490TIP3   OH249884   2.200   3.579   1.890
 9490TIP3    H149885   2.242   3.641   1.831
 9490TIP3    H249886   2.272   3.526   1.925
 9491TIP3   OH249887   2.115   3.934   0.004
 9491TIP3    H149888   2.115   3.890  -0.081
 9491TIP3    H249889   2.035   3.904   0.047
 9492TIP3   OH249890   2.673   4.641   1.506
 9492TIP3    H149891   2.674   4.575   1.575
 9492TIP3    H249892   2.735   4.608   1.440
 9493TIP3   OH249893   3.866   5.107   3.923
 9493TIP3    H149894   3.866   5.181   3.984
 9493TIP3    H249895   3.955   5.072   3.927
 9494TIP3   OH249896   4.285   3.737  16.889
 9494TIP3    H149897   4.232   3.676  16.838
 9494TIP3    H249898   4.338   3.783  16.823
 9495TIP3   OH249899   2.463   4.854   4.384
 9495TIP3    H149900   2.457   4.862   4.479
 9495TIP3    H249901   2.429   4.767   4.364
 9496TIP3   OH249902   2.567   0.176  13.918
 9496TIP3    H149903   2.642   0.158  13.974
 9496TIP3    H249904   2.492   0.180  13.978
 9497TIP3   OH249905   0.922   1.836   0.073
 9497TIP3    H149906   1.006   1.847   0.028
 9497TIP3    H249907   0.910   1.741   0.081
 9498TIP3   OH249908   4.965   4.922   4.816
 9498TIP3    H149909   4.964   4.827   4.827
 9498TIP3    H249910   4.896   4.940   4.752
 9499TIP3   OH249911   1.844   0.180  14.903
 9499TIP3    H149912   1.780   0.119  14.939
 9499TIP3    H249913   1.926   0.131  14.901
 9500TIP3   OH249914   5.913   3.420  16.157
 9500TIP3    H149915   5.829   3.430  16.201
 9500TIP3    H249916   5.903   3.341  16.104
 9501TIP3   OH249917   5.152   5.441  16.778
 9501TIP3    H149918   5.081   5.390  16.738
 9501TIP3    H249919   5.137   5.433  16.873
 9502TIP3   OH249920   6.490   1.736  16.009
 9502TIP3    H149921   6.441   1.817  15.998
 9502TIP3    H249922   6.487   1.694  15.923
 9503TIP3   OH249923   3.659   4.328   4.870
 9503TIP3    H149924   3.608   4.247   4.866
 9503TIP3    H249925   3.701   4.326   4.956
 9504TIP3   OH249926   3.353   2.947  12.985
 9504TIP3    H149927   3.275   3.002  12.979
 9504TIP3    H249928   3.405   2.987  13.055
 9505TIP3   OH249929   1.251   2.767  16.239
 9505TIP3    H149930   1.246   2.863  16.237
 9505TIP3    H249931   1.229   2.740  16.149
 9506TIP3   OH249932   1.725   4.904   1.277
 9506TIP3    H149933   1.811   4.944   1.262
 9506TIP3    H249934   1.743   4.810   1.277
 9507TIP3   OH249935   1.962   0.329  12.075
 9507TIP3    H149936   1.893   0.394  12.091
 9507TIP3    H249937   1.915   0.246  12.065
 9508TIP3   OH249938   6.598   0.280  14.117
 9508TIP3    H149939   6.670   0.221  14.140
 9508TIP3    H249940   6.530   0.261  14.182
 9509TIP3   OH249941   6.719   4.973  13.201
 9509TIP3    H149942   6.626   4.955  13.187
 9509TIP3    H249943   6.742   5.036  13.132
 9510TIP3   OH249944   4.303   2.591   6.461
 9510TIP3    H149945   4.373   2.616   6.521
 9510TIP3    H249946   4.324   2.501   6.436
 9511TIP3   OH249947   1.708   1.657   3.425
 9511TIP3    H149948   1.784   1.683   3.476
 9511TIP3    H249949   1.678   1.576   3.466
 9512TIP3   OH249950   3.905   6.579  12.540
 9512TIP3    H149951   3.986   6.628  12.525
 9512TIP3    H249952   3.842   6.617  12.480
 9513TIP3   OH249953   4.210   0.190  16.306
 9513TIP3    H149954   4.125   0.187  16.262
 9513TIP3    H249955   4.270   0.226  16.240
 9514TIP3   OH249956   6.140   2.664   2.094
 9514TIP3    H149957   6.138   2.591   2.031
 9514TIP3    H249958   6.094   2.735   2.049
 9515TIP3   OH249959   0.218   1.849  14.208
 9515TIP3    H149960   0.300   1.857  14.158
 9515TIP3    H249961   0.241   1.876  14.297
 9516TIP3   OH249962   3.627   6.004  10.713
 9516TIP3    H149963   3.617   6.075  10.650
 9516TIP3    H249964   3.558   6.018  10.777
 9517TIP3   OH249965   4.872   1.243   1.789
 9517TIP3    H149966   4.915   1.159   1.772
 9517TIP3    H249967   4.885   1.257   1.883
 9518TIP3   OH249968   3.098   4.495  15.905
 9518TIP3    H149969   3.043   4.420  15.925
 9518TIP3    H249970   3.037   4.567  15.893
 9519TIP3   OH249971   2.457   1.500  16.726
 9519TIP3    H149972   2.446   1.545  16.809
 9519TIP3    H249973   2.372   1.461  16.708
 9520TIP3   OH249974   5.879   2.043   4.467
 9520TIP3    H149975   5.970   2.051   4.495
 9520TIP3    H249976   5.885   2.018   4.375
 9521TIP3   OH249977   0.109   0.648  11.397
 9521TIP3    H149978   0.051   0.619  11.327
 9521TIP3    H249979   0.075   0.734  11.422
 9522TIP3   OH249980   4.438   1.735  13.996
 9522TIP3    H149981   4.362   1.678  13.990
 9522TIP3    H249982   4.404   1.818  14.030
 9523TIP3   OH249983   1.838   2.400   5.662
 9523TIP3    H149984   1.745   2.408   5.684
 9523TIP3    H249985   1.884   2.414   5.745
 9524TIP3   OH249986   3.935   2.742  11.391
 9524TIP3    H149987   3.941   2.837  11.387
 9524TIP3    H249988   3.921   2.723  11.484
 9525TIP3   OH249989   2.073   5.149   3.286
 9525TIP3    H149990   2.049   5.216   3.350
 9525TIP3    H249991   2.020   5.073   3.309
 9526TIP3   OH249992   5.459   6.045   1.962
 9526TIP3    H149993   5.529   6.070   1.901
 9526TIP3    H249994   5.418   5.969   1.920
 9527TIP3   OH249995   4.978   4.626   1.906
 9527TIP3    H149996   5.015   4.704   1.947
 9527TIP3    H249997   4.916   4.660   1.842
 9528TIP3   OH249998   1.012   1.334  17.125
 9528TIP3    H149999   1.026   1.258  17.181
 9528TIP3    H250000   1.064   1.316  17.046
 9529TIP3   OH250001   3.594   2.278   4.451
 9529TIP3    H150002   3.655   2.300   4.521
 9529TIP3    H250003   3.508   2.298   4.487
 9530TIP3   OH250004   4.703   6.750  13.961
 9530TIP3    H150005   4.621   6.793  13.987
 9530TIP3    H250006   4.769   6.819  13.964
 9531TIP3   OH250007   2.500   2.809  14.190
 9531TIP3    H150008   2.502   2.744  14.260
 9531TIP3    H250009   2.587   2.805  14.151
 9532TIP3   OH250010   5.720   5.979   2.037
 9532TIP3    H150011   5.723   5.955   2.130
 9532TIP3    H250012   5.711   6.074   2.037
 9533TIP3   OH250013   1.628   4.186   2.954
 9533TIP3    H150014   1.709   4.236   2.963
 9533TIP3    H250015   1.652   4.097   2.981
 9534TIP3   OH250016   5.644   5.290  11.805
 9534TIP3    H150017   5.688   5.216  11.763
 9534TIP3    H250018   5.606   5.253  11.885
 9535TIP3   OH250019   3.703   5.710  10.425
 9535TIP3    H150020   3.778   5.702  10.366
 9535TIP3    H250021   3.676   5.620  10.440
 9536TIP3   OH250022   3.784   0.562  15.516
 9536TIP3    H150023   3.708   0.621  15.521
 9536TIP3    H250024   3.858   0.620  15.496
 9537TIP3   OH250025   2.908   5.357   0.420
 9537TIP3    H150026   2.902   5.418   0.493
 9537TIP3    H250027   3.001   5.357   0.396
 9538TIP3   OH250028   0.390   1.311   3.152
 9538TIP3    H150029   0.422   1.226   3.184
 9538TIP3    H250030   0.325   1.338   3.218
 9539TIP3   OH250031   2.684   0.058   0.240
 9539TIP3    H150032   2.614   0.071   0.175
 9539TIP3    H250033   2.646   0.086   0.323
 9540TIP3   OH250034   1.868   5.069  15.559
 9540TIP3    H150035   1.952   5.116  15.553
 9540TIP3    H250036   1.891   4.985  15.599
 9541TIP3   OH250037   4.116   5.956  15.268
 9541TIP3    H150038   4.072   6.001  15.195
 9541TIP3    H250039   4.158   6.027  15.318
 9542TIP3   OH250040   4.783   5.160  15.611
 9542TIP3    H150041   4.779   5.119  15.697
 9542TIP3    H250042   4.830   5.243  15.625
 9543TIP3   OH250043   2.916   4.465  15.076
 9543TIP3    H150044   2.859   4.542  15.080
 9543TIP3    H250045   3.005   4.501  15.077
 9544TIP3   OH250046   6.458   5.070   3.830
 9544TIP3    H150047   6.482   5.045   3.741
 9544TIP3    H250048   6.421   5.158   3.820
 9545TIP3   OH250049   1.041   2.072   3.268
 9545TIP3    H150050   1.112   2.064   3.332
 9545TIP3    H250051   1.082   2.115   3.193
 9546TIP3   OH250052   0.372   3.016  16.210
 9546TIP3    H150053   0.280   3.026  16.183
 9546TIP3    H250054   0.397   3.103  16.242
 9547TIP3   OH250055   2.675   3.013   1.988
 9547TIP3    H150056   2.721   3.014   1.904
 9547TIP3    H250057   2.729   3.068   2.045
 9548TIP3   OH250058   0.363   0.314   5.499
 9548TIP3    H150059   0.288   0.259   5.478
 9548TIP3    H250060   0.334   0.368   5.573
 9549TIP3   OH250061   0.398   4.908  15.381
 9549TIP3    H150062   0.367   4.836  15.436
 9549TIP3    H250063   0.492   4.910  15.396
 9550TIP3   OH250064   4.702   5.906   0.490
 9550TIP3    H150065   4.792   5.872   0.489
 9550TIP3    H250066   4.648   5.832   0.515
 9551TIP3   OH250067   6.762   3.130  13.503
 9551TIP3    H150068   6.685   3.077  13.482
 9551TIP3    H250069   6.730   3.195  13.566
 9552TIP3   OH250070   0.228   3.955   6.000
 9552TIP3    H150071   0.249   3.911   5.918
 9552TIP3    H250072   0.278   3.906   6.066
 9553TIP3   OH250073   2.809   3.216   6.045
 9553TIP3    H150074   2.827   3.299   6.000
 9553TIP3    H250075   2.757   3.241   6.121
 9554TIP3   OH250076   5.679   4.523  14.945
 9554TIP3    H150077   5.731   4.563  14.875
 9554TIP3    H250078   5.598   4.496  14.902
 9555TIP3   OH250079   4.069   3.095   0.116
 9555TIP3    H150080   4.043   3.039   0.043
 9555TIP3    H250081   4.165   3.100   0.109
 9556TIP3   OH250082   5.245   2.987  16.627
 9556TIP3    H150083   5.241   3.079  16.651
 9556TIP3    H250084   5.338   2.972  16.609
 9557TIP3   OH250085   0.695   1.995   4.191
 9557TIP3    H150086   0.684   1.903   4.168
 9557TIP3    H250087   0.755   2.030   4.125
 9558TIP3   OH250088   6.594   4.670   4.608
 9558TIP3    H150089   6.678   4.705   4.637
 9558TIP3    H250090   6.559   4.736   4.549
 9559TIP3   OH250091   3.365   6.670  15.140
 9559TIP3    H150092   3.351   6.742  15.078
 9559TIP3    H250093   3.280   6.625  15.143
 9560TIP3   OH250094   5.348   2.486   0.791
 9560TIP3    H150095   5.260   2.508   0.820
 9560TIP3    H250096   5.364   2.542   0.715
 9561TIP3   OH250097   0.819   5.454   2.171
 9561TIP3    H150098   0.848   5.414   2.253
 9561TIP3    H250099   0.812   5.547   2.191
 9562TIP3   OH250100   3.915   4.100   5.099
 9562TIP3    H150101   4.005   4.127   5.120
 9562TIP3    H250102   3.861   4.174   5.125
 9563TIP3   OH250103   1.776   2.982  12.575
 9563TIP3    H150104   1.827   3.024  12.643
 9563TIP3    H250105   1.773   2.889  12.600
 9564TIP3   OH250106   6.249   0.586  15.747
 9564TIP3    H150107   6.224   0.644  15.675
 9564TIP3    H250108   6.272   0.646  15.818
 9565TIP3   OH250109   5.956   3.263   2.347
 9565TIP3    H150110   5.978   3.174   2.376
 9565TIP3    H250111   5.878   3.286   2.399
 9566TIP3   OH250112   6.763   5.690  16.876
 9566TIP3    H150113   6.734   5.609  16.834
 9566TIP3    H250114   6.683   5.742  16.888
 9567TIP3   OH250115   5.951   0.031   3.678
 9567TIP3    H150116   5.935  -0.031   3.607
 9567TIP3    H250117   5.962   0.116   3.634
 9568TIP3   OH250118   1.133   5.137   5.585
 9568TIP3    H150119   1.188   5.215   5.591
 9568TIP3    H250120   1.158   5.097   5.502
 9569TIP3   OH250121   4.553   3.513   0.720
 9569TIP3    H150122   4.561   3.451   0.793
 9569TIP3    H250123   4.642   3.521   0.686
 9570TIP3   OH250124   3.536   4.950  15.589
 9570TIP3    H150125   3.503   4.898  15.516
 9570TIP3    H250126   3.526   5.041  15.560
 9571TIP3   OH250127   6.509   4.790  14.626
 9571TIP3    H150128   6.453   4.717  14.601
 9571TIP3    H250129   6.594   4.750  14.644
 9572TIP3   OH250130   3.049   1.284  16.348
 9572TIP3    H150131   3.079   1.203  16.390
 9572TIP3    H250132   2.957   1.292  16.374
 9573TIP3   OH250133   3.491   4.932   2.786
 9573TIP3    H150134   3.583   4.907   2.776
 9573TIP3    H250135   3.456   4.928   2.697
 9574TIP3   OH250136   2.150   4.216  15.097
 9574TIP3    H150137   2.206   4.196  15.172
 9574TIP3    H250138   2.186   4.298  15.061
 9575TIP3   OH250139   3.174   5.911  11.449
 9575TIP3    H150140   3.152   5.842  11.386
 9575TIP3    H250141   3.188   5.989  11.395
 9576TIP3   OH250142   2.240   6.062   5.261
 9576TIP3    H150143   2.315   6.045   5.204
 9576TIP3    H250144   2.178   5.991   5.243
 9577TIP3   OH250145   5.467   6.468   5.214
 9577TIP3    H150146   5.435   6.556   5.237
 9577TIP3    H250147   5.428   6.411   5.279
 9578TIP3   OH250148   4.323   3.969   4.732
 9578TIP3    H150149   4.266   4.030   4.686
 9578TIP3    H250150   4.279   3.953   4.815
 9579TIP3   OH250151   0.338   3.258  15.062
 9579TIP3    H150152   0.324   3.352  15.052
 9579TIP3    H250153   0.297   3.219  14.984
 9580TIP3   OH250154   3.239   6.521  11.775
 9580TIP3    H150155   3.313   6.582  11.770
 9580TIP3    H250156   3.163   6.578  11.785
 9581TIP3   OH250157   4.906   4.359  14.748
 9581TIP3    H150158   4.872   4.440  14.786
 9581TIP3    H250159   4.829   4.306  14.731
 9582TIP3   OH250160   2.096   0.954   4.165
 9582TIP3    H150161   2.034   0.886   4.136
 9582TIP3    H250162   2.052   1.037   4.144
 9583TIP3   OH250163   3.895   5.514  14.823
 9583TIP3    H150164   3.850   5.496  14.906
 9583TIP3    H250165   3.900   5.429  14.780
 9584TIP3   OH250166   5.260   2.440  14.709
 9584TIP3    H150167   5.240   2.371  14.773
 9584TIP3    H250168   5.266   2.394  14.625
 9585TIP3   OH250169   6.416   2.362  12.295
 9585TIP3    H150170   6.380   2.412  12.369
 9585TIP3    H250171   6.357   2.287  12.287
 9586TIP3   OH250172   5.694   4.752  16.388
 9586TIP3    H150173   5.775   4.720  16.348
 9586TIP3    H250174   5.723   4.800  16.466
 9587TIP3   OH250175   5.013   3.136   0.359
 9587TIP3    H150176   5.011   3.110   0.268
 9587TIP3    H250177   5.032   3.055   0.407
 9588TIP3   OH250178   3.368   2.330   0.736
 9588TIP3    H150179   3.405   2.411   0.772
 9588TIP3    H250180   3.330   2.356   0.652
 9589TIP3   OH250181   3.296   2.246  10.676
 9589TIP3    H150182   3.313   2.317  10.739
 9589TIP3    H250183   3.318   2.284  10.591
 9590TIP3   OH250184   5.899   2.810   0.611
 9590TIP3    H150185   5.988   2.834   0.588
 9590TIP3    H250186   5.880   2.860   0.691
 9591TIP3   OH250187   3.776   5.157   4.785
 9591TIP3    H150188   3.747   5.248   4.778
 9591TIP3    H250189   3.700   5.105   4.757
 9592TIP3   OH250190   2.234   5.366   1.474
 9592TIP3    H150191   2.318   5.340   1.438
 9592TIP3    H250192   2.240   5.345   1.567
 9593TIP3   OH250193   5.787   3.705   4.509
 9593TIP3    H150194   5.795   3.628   4.452
 9593TIP3    H250195   5.724   3.679   4.576
 9594TIP3   OH250196   2.744   1.972   3.631
 9594TIP3    H150197   2.707   2.057   3.659
 9594TIP3    H250198   2.839   1.985   3.636
 9595TIP3   OH250199   1.695   6.667  15.794
 9595TIP3    H150200   1.701   6.760  15.816
 9595TIP3    H250201   1.784   6.634  15.801
 9596TIP3   OH250202   6.144   0.038  14.453
 9596TIP3    H150203   6.052   0.015  14.440
 9596TIP3    H250204   6.159   0.026  14.546
 9597TIP3   OH250205   0.733   0.192  11.437
 9597TIP3    H150206   0.760   0.283  11.450
 9597TIP3    H250207   0.640   0.192  11.458
 9598TIP3   OH250208   1.333   3.059   0.192
 9598TIP3    H150209   1.281   3.113   0.132
 9598TIP3    H250210   1.272   2.992   0.223
 9599TIP3   OH250211   6.609   0.330  12.048
 9599TIP3    H150212   6.671   0.344  12.120
 9599TIP3    H250213   6.640   0.389  11.979
 9600TIP3   OH250214   5.113   2.361  16.268
 9600TIP3    H150215   5.044   2.421  16.297
 9600TIP3    H250216   5.132   2.307  16.345
 9601TIP3   OH250217   6.496   3.315  14.880
 9601TIP3    H150218   6.577   3.348  14.920
 9601TIP3    H250219   6.524   3.271  14.800
 9602TIP3   OH250220   2.567   1.332   5.818
 9602TIP3    H150221   2.510   1.352   5.744
 9602TIP3    H250222   2.585   1.238   5.810
 9603TIP3   OH250223   1.066   2.677  10.907
 9603TIP3    H150224   1.037   2.587  10.923
 9603TIP3    H250225   1.108   2.703  10.990
 9604TIP3   OH250226   2.891   6.348  13.631
 9604TIP3    H150227   2.827   6.278  13.633
 9604TIP3    H250228   2.920   6.357  13.722
 9605TIP3   OH250229   1.215   3.634  13.136
 9605TIP3    H150230   1.269   3.555  13.136
 9605TIP3    H250231   1.182   3.640  13.226
 9606TIP3   OH250232   3.531   2.518  14.118
 9606TIP3    H150233   3.551   2.547  14.030
 9606TIP3    H250234   3.505   2.597  14.165
 9607TIP3   OH250235   0.750   6.079   4.385
 9607TIP3    H150236   0.736   6.125   4.302
 9607TIP3    H250237   0.826   6.122   4.425
 9608TIP3   OH250238   4.508   0.528   5.208
 9608TIP3    H150239   4.472   0.486   5.286
 9608TIP3    H250240   4.516   0.621   5.232
 9609TIP3   OH250241   0.309   6.074   4.401
 9609TIP3    H150242   0.239   6.088   4.465
 9609TIP3    H250243   0.389   6.103   4.446
 9610TIP3   OH250244   5.758   0.877  12.461
 9610TIP3    H150245   5.688   0.921  12.509
 9610TIP3    H250246   5.733   0.884  12.369
 9611TIP3   OH250247   6.150   4.680  13.775
 9611TIP3    H150248   6.173   4.751  13.835
 9611TIP3    H250249   6.088   4.719  13.714
 9612TIP3   OH250250   1.318   0.725  13.867
 9612TIP3    H150251   1.256   0.782  13.912
 9612TIP3    H250252   1.319   0.757  13.777
 9613TIP3   OH250253   5.818   0.311  16.912
 9613TIP3    H150254   5.803   0.332  17.004
 9613TIP3    H250255   5.784   0.386  16.865
 9614TIP3   OH250256   4.151   3.302   4.615
 9614TIP3    H150257   4.073   3.250   4.635
 9614TIP3    H250258   4.123   3.393   4.622
 9615TIP3   OH250259   3.059   2.889   2.714
 9615TIP3    H150260   3.104   2.805   2.708
 9615TIP3    H250261   3.086   2.937   2.635
 9616TIP3   OH250262   2.671   3.193   2.824
 9616TIP3    H150263   2.603   3.260   2.816
 9616TIP3    H250264   2.623   3.112   2.842
 9617TIP3   OH250265   5.793   0.100   4.384
 9617TIP3    H150266   5.710   0.054   4.401
 9617TIP3    H250267   5.810   0.085   4.291
 9618TIP3   OH250268   2.194   2.022   6.661
 9618TIP3    H150269   2.181   1.966   6.737
 9618TIP3    H250270   2.237   1.965   6.596
 9619TIP3   OH250271   3.831   4.378  15.895
 9619TIP3    H150272   3.864   4.316  15.829
 9619TIP3    H250273   3.801   4.453  15.844
 9620TIP3   OH250274   6.125   3.333  13.275
 9620TIP3    H150275   6.219   3.354  13.273
 9620TIP3    H250276   6.106   3.317  13.367
 9621TIP3   OH250277   6.218   4.578   4.520
 9621TIP3    H150278   6.198   4.533   4.602
 9621TIP3    H250279   6.137   4.572   4.468
 9622TIP3   OH250280   4.528   3.417   3.981
 9622TIP3    H150281   4.608   3.441   3.933
 9622TIP3    H250282   4.487   3.349   3.927
 9623TIP3   OH250283   0.397   4.963   3.675
 9623TIP3    H150284   0.475   5.019   3.679
 9623TIP3    H250285   0.353   4.988   3.594
 9624TIP3   OH250286   3.744   4.516   4.676
 9624TIP3    H150287   3.696   4.450   4.727
 9624TIP3    H250288   3.832   4.515   4.713
 9625TIP3   OH250289   2.409   4.445  15.167
 9625TIP3    H150290   2.480   4.385  15.189
 9625TIP3    H250291   2.443   4.497  15.094
 9626TIP3   OH250292   6.265   1.688  12.436
 9626TIP3    H150293   6.292   1.629  12.506
 9626TIP3    H250294   6.300   1.647  12.356
 9627TIP3   OH250295   5.228   0.814  15.672
 9627TIP3    H150296   5.207   0.720  15.669
 9627TIP3    H250297   5.287   0.822  15.747
 9628TIP3   OH250298   4.638   1.317   2.620
 9628TIP3    H150299   4.650   1.260   2.544
 9628TIP3    H250300   4.715   1.301   2.674
 9629TIP3   OH250301   2.644   0.641   3.111
 9629TIP3    H150302   2.603   0.721   3.079
 9629TIP3    H250303   2.582   0.572   3.087
 9630TIP3   OH250304   6.692   0.600  14.369
 9630TIP3    H150305   6.614   0.655  14.363
 9630TIP3    H250306   6.659   0.511  14.362
 9631TIP3   OH250307   2.726   4.015   3.189
 9631TIP3    H150308   2.674   4.094   3.179
 9631TIP3    H250309   2.683   3.950   3.132
 9632TIP3   OH250310   2.593   4.668   1.089
 9632TIP3    H150311   2.651   4.630   1.023
 9632TIP3    H250312   2.531   4.597   1.108
 9633TIP3   OH250313   1.496   1.141  13.437
 9633TIP3    H150314   1.423   1.109  13.384
 9633TIP3    H250315   1.487   1.236  13.436
 9634TIP3   OH250316   2.960   3.638   3.621
 9634TIP3    H150317   2.989   3.568   3.679
 9634TIP3    H250318   2.867   3.648   3.639
 9635TIP3   OH250319   4.469   5.129  14.214
 9635TIP3    H150320   4.483   5.039  14.244
 9635TIP3    H250321   4.377   5.132  14.189
 9636TIP3   OH250322   1.570   2.995   1.854
 9636TIP3    H150323   1.649   2.964   1.900
 9636TIP3    H250324   1.571   3.090   1.866
 9637TIP3   OH250325   3.875   1.937   1.375
 9637TIP3    H150326   3.909   2.023   1.401
 9637TIP3    H250327   3.952   1.880   1.375
 9638TIP3   OH250328   4.246   1.013   1.016
 9638TIP3    H150329   4.151   1.005   1.028
 9638TIP3    H250330   4.275   0.926   0.991
 9639TIP3   OH250331   2.929   2.537  16.173
 9639TIP3    H150332   3.021   2.513  16.164
 9639TIP3    H250333   2.923   2.625  16.136
 9640TIP3   OH250334   5.865   3.235   2.888
 9640TIP3    H150335   5.903   3.322   2.879
 9640TIP3    H250336   5.874   3.214   2.981
 9641TIP3   OH250337   0.632   5.905   3.953
 9641TIP3    H150338   0.610   5.913   4.046
 9641TIP3    H250339   0.613   5.992   3.917
 9642TIP3   OH250340   0.725   0.719  14.699
 9642TIP3    H150341   0.727   0.777  14.623
 9642TIP3    H250342   0.653   0.658  14.680
 9643TIP3   OH250343   0.255   5.492   1.132
 9643TIP3    H150344   0.226   5.466   1.220
 9643TIP3    H250345   0.193   5.450   1.073
 9644TIP3   OH250346   4.183   4.895  15.659
 9644TIP3    H150347   4.258   4.858  15.612
 9644TIP3    H250348   4.193   4.990  15.648
 9645TIP3   OH250349   0.440   2.621   0.519
 9645TIP3    H150350   0.472   2.592   0.605
 9645TIP3    H250351   0.346   2.631   0.531
 9646TIP3   OH250352   5.856   0.894  15.215
 9646TIP3    H150353   5.797   0.932  15.150
 9646TIP3    H250354   5.930   0.953  15.219
 9647TIP3   OH250355   2.008   6.478  15.668
 9647TIP3    H150356   2.020   6.555  15.723
 9647TIP3    H250357   2.095   6.441  15.658
 9648TIP3   OH250358   4.696   4.630   4.721
 9648TIP3    H150359   4.628   4.619   4.788
 9648TIP3    H250360   4.695   4.548   4.672
 9649TIP3   OH250361   5.819   4.661  11.460
 9649TIP3    H150362   5.911   4.665  11.436
 9649TIP3    H250363   5.772   4.656  11.376
 9650TIP3   OH250364   3.073   6.218   5.061
 9650TIP3    H150365   3.003   6.275   5.028
 9650TIP3    H250366   3.144   6.279   5.084
 9651TIP3   OH250367   0.239   6.655   2.209
 9651TIP3    H150368   0.195   6.620   2.132
 9651TIP3    H250369   0.208   6.745   2.215
 9652TIP3   OH250370   6.389   3.938   0.314
 9652TIP3    H150371   6.307   3.887   0.316
 9652TIP3    H250372   6.424   3.929   0.403
 9653TIP3   OH250373   3.388   1.999   6.387
 9653TIP3    H150374   3.364   2.054   6.461
 9653TIP3    H250375   3.479   1.973   6.405
 9654TIP3   OH250376   0.923   2.532   4.819
 9654TIP3    H150377   0.978   2.507   4.894
 9654TIP3    H250378   0.848   2.576   4.859
 9655TIP3   OH250379   0.884   6.769  11.599
 9655TIP3    H150380   0.835   6.688  11.589
 9655TIP3    H250381   0.832   6.834  11.552
 9656TIP3   OH250382   4.394   2.477  14.542
 9656TIP3    H150383   4.412   2.570  14.555
 9656TIP3    H250384   4.430   2.458  14.455
 9657TIP3   OH250385   2.639   5.807   0.483
 9657TIP3    H150386   2.614   5.717   0.461
 9657TIP3    H250387   2.563   5.860   0.456
 9658TIP3   OH250388   1.940   0.723   5.632
 9658TIP3    H150389   1.847   0.737   5.615
 9658TIP3    H250390   1.943   0.657   5.701
 9659TIP3   OH250391   2.367   3.012   5.357
 9659TIP3    H150392   2.360   3.100   5.394
 9659TIP3    H250393   2.358   2.954   5.432
 9660TIP3   OH250394   6.195   1.383  11.967
 9660TIP3    H150395   6.190   1.290  11.945
 9660TIP3    H250396   6.144   1.392  12.047
 9661TIP3   OH250397   2.776   3.494   6.767
 9661TIP3    H150398   2.781   3.589   6.753
 9661TIP3    H250399   2.700   3.465   6.716
 9662TIP3   OH250400   1.630   6.500  16.952
 9662TIP3    H150401   1.668   6.556  17.020
 9662TIP3    H250402   1.622   6.557  16.875
 9663TIP3   OH250403   5.108   3.618  16.272
 9663TIP3    H150404   5.100   3.670  16.192
 9663TIP3    H250405   5.063   3.669  16.339
 9664TIP3   OH250406   5.430   5.861  13.461
 9664TIP3    H150407   5.405   5.947  13.425
 9664TIP3    H250408   5.451   5.879  13.553
 9665TIP3   OH250409   6.627   6.427  12.010
 9665TIP3    H150410   6.572   6.430  12.088
 9665TIP3    H250411   6.666   6.515  12.005
 9666TIP3   OH250412   4.781   3.630  15.314
 9666TIP3    H150413   4.769   3.724  15.324
 9666TIP3    H250414   4.714   3.603  15.251
 9667TIP3   OH250415   1.773   3.790  12.082
 9667TIP3    H150416   1.726   3.835  12.013
 9667TIP3    H250417   1.705   3.764  12.145
 9668TIP3   OH250418   0.519   5.235   2.137
 9668TIP3    H150419   0.538   5.319   2.177
 9668TIP3    H250420   0.490   5.256   2.048
 9669TIP3   OH250421   5.814   6.121   1.335
 9669TIP3    H150422   5.890   6.119   1.394
 9669TIP3    H250423   5.756   6.186   1.374
 9670TIP3   OH250424   0.599   2.817   0.848
 9670TIP3    H150425   0.633   2.873   0.919
 9670TIP3    H250426   0.511   2.794   0.877
 9671TIP3   OH250427   5.634   4.559   1.743
 9671TIP3    H150428   5.562   4.621   1.751
 9671TIP3    H250429   5.607   4.499   1.673
 9672TIP3   OH250430   3.407   5.391   4.129
 9672TIP3    H150431   3.379   5.480   4.146
 9672TIP3    H250432   3.340   5.355   4.070
 9673TIP3   OH250433   1.081   0.611   4.873
 9673TIP3    H150434   1.136   0.540   4.905
 9673TIP3    H250435   0.996   0.597   4.913
 9674TIP3   OH250436   2.232   2.804   5.577
 9674TIP3    H150437   2.314   2.786   5.532
 9674TIP3    H250438   2.259   2.835   5.664
 9675TIP3   OH250439   5.816   3.057  14.386
 9675TIP3    H150440   5.804   2.963  14.400
 9675TIP3    H250441   5.747   3.098  14.438
 9676TIP3   OH250442   2.969   1.635   2.706
 9676TIP3    H150443   3.046   1.678   2.744
 9676TIP3    H250444   2.970   1.661   2.614
 9677TIP3   OH250445   1.889   3.992   4.988
 9677TIP3    H150446   1.888   4.058   5.057
 9677TIP3    H250447   1.925   3.914   5.030
 9678TIP3   OH250448   3.644   3.693  15.892
 9678TIP3    H150449   3.572   3.651  15.939
 9678TIP3    H250450   3.661   3.636  15.817
 9679TIP3   OH250451   1.855   6.162   2.765
 9679TIP3    H150452   1.899   6.182   2.682
 9679TIP3    H250453   1.896   6.080   2.794
 9680TIP3   OH250454   2.028   0.412   1.622
 9680TIP3    H150455   1.939   0.400   1.589
 9680TIP3    H250456   2.085   0.375   1.555
 9681TIP3   OH250457   1.707   1.054  16.446
 9681TIP3    H150458   1.717   1.068  16.352
 9681TIP3    H250459   1.750   0.971  16.463
 9682TIP3   OH250460   6.451   3.698   0.681
 9682TIP3    H150461   6.408   3.776   0.647
 9682TIP3    H250462   6.488   3.726   0.765
 9683TIP3   OH250463   0.570   3.220  12.387
 9683TIP3    H150464   0.652   3.265  12.406
 9683TIP3    H250465   0.560   3.227  12.292
 9684TIP3   OH250466   5.733   6.562  14.220
 9684TIP3    H150467   5.712   6.498  14.153
 9684TIP3    H250468   5.795   6.622  14.178
 9685TIP3   OH250469   6.092   3.237   5.650
 9685TIP3    H150470   6.131   3.270   5.569
 9685TIP3    H250471   6.004   3.275   5.651
 9686TIP3   OH250472   3.651   2.819   0.062
 9686TIP3    H150473   3.617   2.858   0.142
 9686TIP3    H250474   3.696   2.740   0.092
 9687TIP3   OH250475   0.614   3.858   3.359
 9687TIP3    H150476   0.705   3.886   3.347
 9687TIP3    H250477   0.618   3.789   3.425
 9688TIP3   OH250478   3.366   1.709   4.261
 9688TIP3    H150479   3.386   1.616   4.266
 9688TIP3    H250480   3.378   1.731   4.169
 9689TIP3   OH250481   1.039   0.456  14.101
 9689TIP3    H150482   1.109   0.473  14.039
 9689TIP3    H250483   0.959   0.480  14.054
 9690TIP3   OH250484   0.820   0.525   4.932
 9690TIP3    H150485   0.829   0.619   4.917
 9690TIP3    H250486   0.756   0.496   4.867
 9691TIP3   OH250487   1.221   6.053  16.544
 9691TIP3    H150488   1.157   6.057  16.472
 9691TIP3    H250489   1.305   6.072  16.503
 9692TIP3   OH250490   5.077   0.476  14.553
 9692TIP3    H150491   5.146   0.541  14.557
 9692TIP3    H250492   5.087   0.425  14.634
 9693TIP3   OH250493   3.068   5.345   2.919
 9693TIP3    H150494   3.062   5.287   2.843
 9693TIP3    H250495   3.152   5.323   2.959
 9694TIP3   OH250496   3.342   3.125   3.126
 9694TIP3    H150497   3.371   3.057   3.187
 9694TIP3    H250498   3.292   3.077   3.060
 9695TIP3   OH250499   5.578   0.369   2.071
 9695TIP3    H150500   5.566   0.332   1.984
 9695TIP3    H250501   5.489   0.378   2.106
 9696TIP3   OH250502   1.549   5.117   4.555
 9696TIP3    H150503   1.505   5.199   4.534
 9696TIP3    H250504   1.510   5.053   4.496
 9697TIP3   OH250505   3.858   1.412   5.012
 9697TIP3    H150506   3.825   1.365   5.089
 9697TIP3    H250507   3.953   1.404   5.019
 9698TIP3   OH250508   5.802   2.067   1.790
 9698TIP3    H150509   5.820   1.979   1.756
 9698TIP3    H250510   5.759   2.052   1.874
 9699TIP3   OH250511   3.755   2.492  13.141
 9699TIP3    H150512   3.726   2.506  13.051
 9699TIP3    H250513   3.699   2.422  13.174
 9700TIP3   OH250514   2.861   6.724  11.954
 9700TIP3    H150515   2.853   6.702  12.047
 9700TIP3    H250516   2.852   6.639  11.909
 9701TIP3   OH250517   0.713   2.332   2.320
 9701TIP3    H150518   0.633   2.323   2.269
 9701TIP3    H250519   0.739   2.242   2.341
 9702TIP3   OH250520   5.144   4.307  16.871
 9702TIP3    H150521   5.049   4.317  16.862
 9702TIP3    H250522   5.175   4.293  16.781
 9703TIP3   OH250523   1.976   3.345  15.847
 9703TIP3    H150524   1.944   3.422  15.894
 9703TIP3    H250525   2.013   3.380  15.766
 9704TIP3   OH250526   1.222   3.409   6.539
 9704TIP3    H150527   1.177   3.483   6.500
 9704TIP3    H250528   1.169   3.333   6.514
 9705TIP3   OH250529   0.939   3.552  10.533
 9705TIP3    H150530   0.943   3.476  10.592
 9705TIP3    H250531   0.893   3.619  10.584
 9706TIP3   OH250532   3.158   4.094   3.523
 9706TIP3    H150533   3.088   4.029   3.522
 9706TIP3    H250534   3.231   4.050   3.568
 9707TIP3   OH250535   6.012   4.140   6.499
 9707TIP3    H150536   5.953   4.196   6.550
 9707TIP3    H250537   6.094   4.189   6.496
 9708TIP3   OH250538   5.541   5.729   3.919
 9708TIP3    H150539   5.520   5.639   3.941
 9708TIP3    H250540   5.607   5.755   3.983
 9709TIP3   OH250541   3.117   2.312   3.372
 9709TIP3    H150542   3.175   2.388   3.373
 9709TIP3    H250543   3.155   2.253   3.306
 9710TIP3   OH250544   4.459   0.639  10.817
 9710TIP3    H150545   4.394   0.666  10.881
 9710TIP3    H250546   4.493   0.720  10.780
 9711TIP3   OH250547   5.162   4.025   2.106
 9711TIP3    H150548   5.150   4.052   2.197
 9711TIP3    H250549   5.173   4.107   2.058
 9712TIP3   OH250550   5.378   0.750   1.421
 9712TIP3    H150551   5.340   0.779   1.505
 9712TIP3    H250552   5.429   0.825   1.391
 9713TIP3   OH250553   2.297   0.988  16.193
 9713TIP3    H150554   2.351   1.063  16.219
 9713TIP3    H250555   2.310   0.981  16.099
 9714TIP3   OH250556   1.707   3.983   1.901
 9714TIP3    H150557   1.667   4.069   1.893
 9714TIP3    H250558   1.775   3.994   1.967
 9715TIP3   OH250559   2.371   6.257  12.889
 9715TIP3    H150560   2.414   6.212  12.817
 9715TIP3    H250561   2.363   6.191  12.958
 9716TIP3   OH250562   1.724   1.321  14.402
 9716TIP3    H150563   1.750   1.410  14.424
 9716TIP3    H250564   1.760   1.267  14.472
 9717TIP3   OH250565   6.499   5.893   3.782
 9717TIP3    H150566   6.461   5.846   3.857
 9717TIP3    H250567   6.516   5.824   3.718
 9718TIP3   OH250568   6.110   5.245   6.024
 9718TIP3    H150569   6.160   5.165   6.010
 9718TIP3    H250570   6.022   5.225   5.991
 9719TIP3   OH250571   4.410   5.201   0.525
 9719TIP3    H150572   4.450   5.115   0.507
 9719TIP3    H250573   4.320   5.192   0.495
 9720TIP3   OH250574   6.226   5.644  16.344
 9720TIP3    H150575   6.199   5.560  16.308
 9720TIP3    H250576   6.179   5.652  16.426
 9721TIP3   OH250577   1.220   1.339   2.144
 9721TIP3    H150578   1.268   1.275   2.092
 9721TIP3    H250579   1.202   1.411   2.084
 9722TIP3   OH250580   4.991   0.943  12.211
 9722TIP3    H150581   4.966   0.867  12.263
 9722TIP3    H250582   4.909   0.988  12.193
 9723TIP3   OH250583   4.492   0.429  14.668
 9723TIP3    H150584   4.477   0.336  14.685
 9723TIP3    H250585   4.481   0.470  14.754
 9724TIP3   OH250586   4.873   6.275   0.550
 9724TIP3    H150587   4.797   6.317   0.509
 9724TIP3    H250588   4.908   6.217   0.482
 9725TIP3   OH250589   5.652   6.204  12.305
 9725TIP3    H150590   5.683   6.154  12.229
 9725TIP3    H250591   5.570   6.244  12.276
 9726TIP3   OH250592   4.193   4.523  15.533
 9726TIP3    H150593   4.223   4.438  15.564
 9726TIP3    H250594   4.259   4.585  15.564
 9727TIP3   OH250595   6.518   2.559   5.268
 9727TIP3    H150596   6.548   2.584   5.181
 9727TIP3    H250597   6.585   2.497   5.299
 9728TIP3   OH250598   3.580   2.402  16.708
 9728TIP3    H150599   3.586   2.307  16.714
 9728TIP3    H250600   3.670   2.433  16.719
 9729TIP3   OH250601   3.247   2.203  15.544
 9729TIP3    H150602   3.245   2.261  15.620
 9729TIP3    H250603   3.224   2.260  15.470
 9730TIP3   OH250604   3.929   3.035  11.748
 9730TIP3    H150605   4.016   3.062  11.777
 9730TIP3    H250606   3.937   3.024  11.653
 9731TIP3   OH250607   0.231   4.604  15.279
 9731TIP3    H150608   0.251   4.690  15.242
 9731TIP3    H250609   0.209   4.550  15.203
 9732TIP3   OH250610   1.971   3.860  16.394
 9732TIP3    H150611   2.006   3.878  16.307
 9732TIP3    H250612   1.951   3.766  16.392
 9733TIP3   OH250613   4.242   6.785  16.489
 9733TIP3    H150614   4.333   6.774  16.461
 9733TIP3    H250615   4.205   6.850  16.429
 9734TIP3   OH250616   1.844   4.669   0.264
 9734TIP3    H150617   1.755   4.699   0.282
 9734TIP3    H250618   1.897   4.711   0.332
 9735TIP3   OH250619   5.370   3.283  12.585
 9735TIP3    H150620   5.398   3.342  12.655
 9735TIP3    H250621   5.306   3.334  12.535
 9736TIP3   OH250622   2.136   1.725  13.192
 9736TIP3    H150623   2.166   1.660  13.128
 9736TIP3    H250624   2.107   1.799  13.139
 9737TIP3   OH250625   0.583   1.566  12.598
 9737TIP3    H150626   0.617   1.651  12.571
 9737TIP3    H250627   0.611   1.555  12.689
 9738TIP3   OH250628   6.342   3.469   1.949
 9738TIP3    H150629   6.407   3.536   1.971
 9738TIP3    H250630   6.385   3.416   1.881
 9739TIP3   OH250631   2.859   3.545   4.282
 9739TIP3    H150632   2.857   3.494   4.362
 9739TIP3    H250633   2.835   3.634   4.309
 9740TIP3   OH250634   5.965   4.904  15.838
 9740TIP3    H150635   6.047   4.862  15.864
 9740TIP3    H250636   5.942   4.960  15.912
 9741TIP3   OH250637   5.702   1.149  16.441
 9741TIP3    H150638   5.618   1.166  16.485
 9741TIP3    H250639   5.719   1.229  16.391
 9742TIP3   OH250640   5.650   4.019  15.599
 9742TIP3    H150641   5.740   3.990  15.611
 9742TIP3    H250642   5.610   3.951  15.545
 9743TIP3   OH250643   0.931   4.935   2.980
 9743TIP3    H150644   0.931   4.840   2.979
 9743TIP3    H250645   1.023   4.959   2.988
 9744TIP3   OH250646   1.851   2.995  16.373
 9744TIP3    H150647   1.910   2.925  16.404
 9744TIP3    H250648   1.781   2.997  16.437
 9745TIP3   OH250649   6.045   4.234  15.442
 9745TIP3    H150650   6.021   4.143  15.424
 9745TIP3    H250651   6.093   4.262  15.365
 9746TIP3   OH250652   6.435   5.127  11.916
 9746TIP3    H150653   6.400   5.051  11.964
 9746TIP3    H250654   6.412   5.202  11.971
 9747TIP3   OH250655   5.295   5.997  16.396
 9747TIP3    H150656   5.286   6.091  16.377
 9747TIP3    H250657   5.368   5.993  16.459
 9748TIP3   OH250658   3.505   3.082  11.828
 9748TIP3    H150659   3.510   3.023  11.753
 9748TIP3    H250660   3.510   3.024  11.904
 9749TIP3   OH250661   4.769   3.995   2.739
 9749TIP3    H150662   4.742   3.940   2.813
 9749TIP3    H250663   4.773   3.935   2.665
 9750TIP3   OH250664   2.659   2.611   4.002
 9750TIP3    H150665   2.694   2.587   4.088
 9750TIP3    H250666   2.648   2.528   3.957
 9751TIP3   OH250667   1.649   6.571   4.354
 9751TIP3    H150668   1.686   6.624   4.284
 9751TIP3    H250669   1.557   6.598   4.358
 9752TIP3   OH250670   1.356   2.659  14.176
 9752TIP3    H150671   1.315   2.573  14.163
 9752TIP3    H250672   1.320   2.691  14.259
 9753TIP3   OH250673   5.646   5.907   0.113
 9753TIP3    H150674   5.692   5.870   0.188
 9753TIP3    H250675   5.605   5.831   0.071
 9754TIP3   OH250676   3.034   1.460  13.724
 9754TIP3    H150677   3.008   1.409  13.647
 9754TIP3    H250678   3.098   1.523  13.691
 9755TIP3   OH250679   0.402   5.614  13.112
 9755TIP3    H150680   0.466   5.613  13.183
 9755TIP3    H250681   0.335   5.675  13.141
 9756TIP3   OH250682   4.714   0.901   5.058
 9756TIP3    H150683   4.685   0.810   5.059
 9756TIP3    H250684   4.637   0.951   5.085
 9757TIP3   OH250685   5.684   5.990  12.750
 9757TIP3    H150686   5.746   5.997  12.823
 9757TIP3    H250687   5.719   6.049  12.683
 9758TIP3   OH250688   3.298   1.436  15.966
 9758TIP3    H150689   3.243   1.514  15.957
 9758TIP3    H250690   3.249   1.379  16.024
 9759TIP3   OH250691   0.051   5.222  15.576
 9759TIP3    H150692   0.005   5.151  15.619
 9759TIP3    H250693   0.142   5.193  15.572
 9760TIP3   OH250694   3.327   5.413  15.576
 9760TIP3    H150695   3.351   5.467  15.501
 9760TIP3    H250696   3.231   5.413  15.576
 9761TIP3   OH250697   5.825   2.303   4.656
 9761TIP3    H150698   5.796   2.214   4.676
 9761TIP3    H250699   5.809   2.352   4.736
 9762TIP3   OH250700   0.377   5.112  16.854
 9762TIP3    H150701   0.364   5.027  16.897
 9762TIP3    H250702   0.469   5.133  16.871
 9763TIP3   OH250703   6.115   0.133   5.402
 9763TIP3    H150704   6.128   0.225   5.423
 9763TIP3    H250705   6.091   0.092   5.485
 9764TIP3   OH250706   4.287   4.270  15.639
 9764TIP3    H150707   4.360   4.298  15.584
 9764TIP3    H250708   4.249   4.196  15.593
 9765TIP3   OH250709   2.507   4.460  12.714
 9765TIP3    H150710   2.471   4.376  12.743
 9765TIP3    H250711   2.584   4.437  12.662
 9766TIP3   OH250712   5.670   6.215   1.858
 9766TIP3    H150713   5.630   6.297   1.884
 9766TIP3    H250714   5.735   6.239   1.792
 9767TIP3   OH250715   6.162   5.403  11.489
 9767TIP3    H150716   6.148   5.385  11.582
 9767TIP3    H250717   6.189   5.495  11.486
 9768TIP3   OH250718   4.265   6.764   3.545
 9768TIP3    H150719   4.318   6.693   3.508
 9768TIP3    H250720   4.317   6.797   3.618
 9769TIP3   OH250721   1.018   1.188  12.692
 9769TIP3    H150722   1.106   1.225  12.688
 9769TIP3    H250723   1.030   1.104  12.736
 9770TIP3   OH250724   3.293   4.975  17.233
 9770TIP3    H150725   3.370   5.006  17.185
 9770TIP3    H250726   3.324   4.899  17.282
 9771TIP3   OH250727   1.706   2.598   1.893
 9771TIP3    H150728   1.704   2.571   1.985
 9771TIP3    H250729   1.776   2.663   1.889
 9772TIP3   OH250730   4.292   6.428   2.562
 9772TIP3    H150731   4.204   6.412   2.595
 9772TIP3    H250732   4.282   6.429   2.466
 9773TIP3   OH250733   5.301   0.259  14.782
 9773TIP3    H150734   5.366   0.195  14.811
 9773TIP3    H250735   5.342   0.303  14.708
 9774TIP3   OH250736   2.239   4.907   5.219
 9774TIP3    H150737   2.321   4.887   5.173
 9774TIP3    H250738   2.220   4.827   5.268
 9775TIP3   OH250739   2.911   2.717  15.442
 9775TIP3    H150740   2.835   2.771  15.420
 9775TIP3    H250741   2.974   2.735  15.372
 9776TIP3   OH250742   0.932   2.831   0.113
 9776TIP3    H150743   0.912   2.740   0.090
 9776TIP3    H250744   0.978   2.825   0.196
 9777TIP3   OH250745   6.020   2.601  16.899
 9777TIP3    H150746   6.012   2.691  16.929
 9777TIP3    H250747   5.981   2.548  16.968
 9778TIP3   OH250748   5.058   1.777  14.050
 9778TIP3    H150749   5.063   1.819  14.136
 9778TIP3    H250750   5.070   1.684  14.068
 9779TIP3   OH250751   1.094   3.514  16.732
 9779TIP3    H150752   1.136   3.597  16.711
 9779TIP3    H250753   1.143   3.448  16.683
 9780TIP3   OH250754   2.617   5.049   4.642
 9780TIP3    H150755   2.551   4.986   4.616
 9780TIP3    H250756   2.589   5.131   4.601
 9781TIP3   OH250757   1.483   1.310   6.099
 9781TIP3    H150758   1.487   1.336   6.191
 9781TIP3    H250759   1.571   1.327   6.066
 9782TIP3   OH250760   0.055   0.706  14.812
 9782TIP3    H150761   0.135   0.741  14.854
 9782TIP3    H250762   0.081   0.691  14.721
 9783TIP3   OH250763   2.329   6.741  13.353
 9783TIP3    H150764   2.390   6.769  13.421
 9783TIP3    H250765   2.378   6.753  13.271
 9784TIP3   OH250766   0.188   5.572  14.298
 9784TIP3    H150767   0.114   5.514  14.312
 9784TIP3    H250768   0.190   5.628  14.376
 9785TIP3   OH250769   5.243   6.076  15.297
 9785TIP3    H150770   5.172   6.011  15.297
 9785TIP3    H250771   5.201   6.158  15.320
 9786TIP3   OH250772   6.039   6.678   3.227
 9786TIP3    H150773   6.107   6.740   3.256
 9786TIP3    H250774   6.088   6.607   3.186
 9787TIP3   OH250775   0.588   1.168   1.731
 9787TIP3    H150776   0.540   1.150   1.650
 9787TIP3    H250777   0.619   1.083   1.760
 9788TIP3   OH250778   0.918   1.616   5.467
 9788TIP3    H150779   0.931   1.558   5.542
 9788TIP3    H250780   0.981   1.687   5.481
 9789TIP3   OH250781   4.506   1.958  14.785
 9789TIP3    H150782   4.554   1.879  14.760
 9789TIP3    H250783   4.529   2.022  14.717
 9790TIP3   OH250784   0.097   6.214   1.493
 9790TIP3    H150785   0.052   6.174   1.418
 9790TIP3    H250786   0.067   6.164   1.569
 9791TIP3   OH250787   0.795   0.183   2.570
 9791TIP3    H150788   0.822   0.213   2.656
 9791TIP3    H250789   0.864   0.212   2.511
 9792TIP3   OH250790   3.201   4.117   2.134
 9792TIP3    H150791   3.241   4.043   2.180
 9792TIP3    H250792   3.157   4.167   2.203
 9793TIP3   OH250793   2.870   4.738  14.529
 9793TIP3    H150794   2.812   4.801  14.486
 9793TIP3    H250795   2.821   4.709  14.606
 9794TIP3   OH250796   1.776   5.792  15.745
 9794TIP3    H150797   1.868   5.820  15.748
 9794TIP3    H250798   1.731   5.864  15.700
 9795TIP3   OH250799   4.363   4.703  13.499
 9795TIP3    H150800   4.287   4.651  13.472
 9795TIP3    H250801   4.412   4.647  13.558
 9796TIP3   OH250802   2.425   1.040  17.057
 9796TIP3    H150803   2.400   0.950  17.081
 9796TIP3    H250804   2.367   1.063  16.985
 9797TIP3   OH250805   0.769   2.310  14.964
 9797TIP3    H150806   0.829   2.371  14.921
 9797TIP3    H250807   0.807   2.224  14.948
 9798TIP3   OH250808   6.294   1.473  13.575
 9798TIP3    H150809   6.274   1.519  13.494
 9798TIP3    H250810   6.290   1.380  13.552
 9799TIP3   OH250811   5.795   3.227   2.587
 9799TIP3    H150812   5.871   3.168   2.592
 9799TIP3    H250813   5.726   3.172   2.549
 9800TIP3   OH250814   3.669   3.901  13.546
 9800TIP3    H150815   3.579   3.878  13.570
 9800TIP3    H250816   3.717   3.819  13.555
 9801TIP3   OH250817   6.294   1.504  16.896
 9801TIP3    H150818   6.353   1.496  16.971
 9801TIP3    H250819   6.210   1.529  16.935
 9802TIP3   OH250820   4.762   4.532   5.159
 9802TIP3    H150821   4.734   4.530   5.250
 9802TIP3    H250822   4.750   4.623   5.131
 9803TIP3   OH250823   0.228   5.850  11.648
 9803TIP3    H150824   0.318   5.821  11.662
 9803TIP3    H250825   0.207   5.902  11.725
 9804TIP3   OH250826   4.972   1.337   0.987
 9804TIP3    H150827   4.934   1.298   1.066
 9804TIP3    H250828   5.043   1.278   0.962
 9805TIP3   OH250829   2.396   1.170  10.836
 9805TIP3    H150830   2.324   1.166  10.773
 9805TIP3    H250831   2.470   1.203  10.785
 9806TIP3   OH250832   4.028   2.863   4.775
 9806TIP3    H150833   4.120   2.888   4.789
 9806TIP3    H250834   3.997   2.838   4.863
 9807TIP3   OH250835   2.115   3.808  17.005
 9807TIP3    H150836   2.104   3.713  17.002
 9807TIP3    H250837   2.092   3.837  16.917
 9808TIP3   OH250838   3.827   3.433  12.077
 9808TIP3    H150839   3.778   3.509  12.046
 9808TIP3    H250840   3.805   3.363  12.015
 9809TIP3   OH250841   4.376   0.409  14.203
 9809TIP3    H150842   4.428   0.401  14.283
 9809TIP3    H250843   4.286   0.394  14.231
 9810TIP3   OH250844   1.734   3.072  11.724
 9810TIP3    H150845   1.789   3.018  11.780
 9810TIP3    H250846   1.677   3.121  11.784
 9811TIP3   OH250847   0.255   3.445   1.873
 9811TIP3    H150848   0.182   3.426   1.814
 9811TIP3    H250849   0.292   3.360   1.895
 9812TIP3   OH250850   2.716   0.054   1.606
 9812TIP3    H150851   2.764   0.134   1.583
 9812TIP3    H250852   2.668   0.031   1.527
 9813TIP3   OH250853   1.162   3.564  11.249
 9813TIP3    H150854   1.248   3.605  11.259
 9813TIP3    H250855   1.157   3.543  11.156
 9814TIP3   OH250856   6.477   2.540   4.790
 9814TIP3    H150857   6.388   2.544   4.755
 9814TIP3    H250858   6.533   2.520   4.715
 9815TIP3   OH250859   3.197   0.665  15.274
 9815TIP3    H150860   3.209   0.574  15.303
 9815TIP3    H250861   3.112   0.689  15.309
 9816TIP3   OH250862   1.374   5.895  12.651
 9816TIP3    H150863   1.354   5.850  12.569
 9816TIP3    H250864   1.396   5.825  12.712
 9817TIP3   OH250865   4.003   5.268  15.371
 9817TIP3    H150866   4.028   5.256  15.280
 9817TIP3    H250867   3.908   5.284  15.369
 9818TIP3   OH250868   0.790   1.799  12.937
 9818TIP3    H150869   0.754   1.735  12.999
 9818TIP3    H250870   0.783   1.755  12.852
 9819TIP3   OH250871   4.769   0.068   2.209
 9819TIP3    H150872   4.797   0.126   2.139
 9819TIP3    H250873   4.673   0.076   2.209
 9820TIP3   OH250874   3.538   0.745   1.318
 9820TIP3    H150875   3.474   0.735   1.247
 9820TIP3    H250876   3.576   0.831   1.304
 9821TIP3   OH250877   4.384   6.242   3.514
 9821TIP3    H150878   4.439   6.303   3.465
 9821TIP3    H250879   4.382   6.163   3.461
 9822TIP3   OH250880   5.549   6.196  12.916
 9822TIP3    H150881   5.520   6.216  13.004
 9822TIP3    H250882   5.528   6.103  12.904
 9823TIP3   OH250883   6.758   0.250   2.767
 9823TIP3    H150884   6.821   0.202   2.714
 9823TIP3    H250885   6.683   0.262   2.710
 9824TIP3   OH250886   2.162   3.683   5.825
 9824TIP3    H150887   2.077   3.660   5.787
 9824TIP3    H250888   2.184   3.767   5.783
 9825TIP3   OH250889   1.506   0.034   3.980
 9825TIP3    H150890   1.504   0.129   3.991
 9825TIP3    H250891   1.415   0.010   3.966
 9826TIP3   OH250892   4.332   2.346  16.726
 9826TIP3    H150893   4.359   2.437  16.735
 9826TIP3    H250894   4.398   2.296  16.774
 9827TIP3   OH250895   5.258   2.212   4.452
 9827TIP3    H150896   5.299   2.242   4.534
 9827TIP3    H250897   5.253   2.290   4.397
 9828TIP3   OH250898   4.164   5.698   4.523
 9828TIP3    H150899   4.124   5.697   4.610
 9828TIP3    H250900   4.099   5.657   4.466
 9829TIP3   OH250901   0.308   6.591  13.706
 9829TIP3    H150902   0.250   6.515  13.707
 9829TIP3    H250903   0.250   6.666  13.719
 9830TIP3   OH250904   2.618   3.781  17.041
 9830TIP3    H150905   2.694   3.747  16.993
 9830TIP3    H250906   2.616   3.728  17.121
 9831TIP3   OH250907   5.045   0.102   3.640
 9831TIP3    H150908   5.020   0.085   3.549
 9831TIP3    H250909   4.992   0.177   3.667
 9832TIP3   OH250910   4.337   1.201  15.729
 9832TIP3    H150911   4.399   1.261  15.687
 9832TIP3    H250912   4.361   1.114  15.696
 9833TIP3   OH250913   2.174   5.832  14.450
 9833TIP3    H150914   2.143   5.764  14.509
 9833TIP3    H250915   2.269   5.825  14.453
 9834TIP3   OH250916   4.214   2.295   0.973
 9834TIP3    H150917   4.218   2.210   0.928
 9834TIP3    H250918   4.167   2.352   0.912
 9835TIP3   OH250919   1.712   2.367   2.094
 9835TIP3    H150920   1.776   2.313   2.046
 9835TIP3    H250921   1.738   2.358   2.185
 9836TIP3   OH250922   4.976   6.243   0.796
 9836TIP3    H150923   4.958   6.258   0.703
 9836TIP3    H250924   4.956   6.151   0.810
 9837TIP3   OH250925   5.043   0.925  16.856
 9837TIP3    H150926   5.015   0.855  16.915
 9837TIP3    H250927   4.978   0.925  16.786
 9838TIP3   OH250928   5.105   6.592  10.778
 9838TIP3    H150929   5.139   6.536  10.848
 9838TIP3    H250930   5.116   6.681  10.812
 9839TIP3   OH250931   1.610   3.417  14.910
 9839TIP3    H150932   1.689   3.364  14.923
 9839TIP3    H250933   1.616   3.446  14.819
 9840TIP3   OH250934   6.614   2.799  12.808
 9840TIP3    H150935   6.674   2.736  12.848
 9840TIP3    H250936   6.625   2.787  12.714
 9841TIP3   OH250937   6.680   5.371  15.944
 9841TIP3    H150938   6.632   5.316  15.883
 9841TIP3    H250939   6.652   5.341  16.030
 9842TIP3   OH250940   0.940   3.188   2.468
 9842TIP3    H150941   0.934   3.181   2.563
 9842TIP3    H250942   1.027   3.224   2.452
 9843TIP3   OH250943   6.342   5.902   5.537
 9843TIP3    H150944   6.305   5.973   5.485
 9843TIP3    H250945   6.312   5.919   5.627
 9844TIP3   OH250946   4.931   1.651  17.165
 9844TIP3    H150947   4.996   1.711  17.130
 9844TIP3    H250948   4.916   1.682  17.255
 9845TIP3   OH250949   5.756   2.912  12.900
 9845TIP3    H150950   5.829   2.947  12.849
 9845TIP3    H250951   5.679   2.956  12.863
 9846TIP3   OH250952   2.511   2.899   2.264
 9846TIP3    H150953   2.475   2.988   2.272
 9846TIP3    H250954   2.440   2.848   2.225
 9847TIP3   OH250955   1.300   1.482   6.336
 9847TIP3    H150956   1.220   1.437   6.363
 9847TIP3    H250957   1.370   1.434   6.379
 9848TIP3   OH250958   5.960   4.019  15.322
 9848TIP3    H150959   5.884   4.020  15.264
 9848TIP3    H250960   6.029   3.975  15.271
 9849TIP3   OH250961   0.658   5.339  15.176
 9849TIP3    H150962   0.712   5.340  15.255
 9849TIP3    H250963   0.720   5.356  15.105
 9850TIP3   OH250964   4.361   4.979  15.458
 9850TIP3    H150965   4.347   4.911  15.392
 9850TIP3    H250966   4.319   5.057  15.422
 9851TIP3   OH250967   0.192   5.282  10.307
 9851TIP3    H150968   0.097   5.287  10.317
 9851TIP3    H250969   0.205   5.273  10.212
 9852TIP3   OH250970   4.248   2.754   1.720
 9852TIP3    H150971   4.231   2.693   1.792
 9852TIP3    H250972   4.320   2.714   1.671
 9853TIP3   OH250973   5.248   0.124   0.630
 9853TIP3    H150974   5.175   0.183   0.616
 9853TIP3    H250975   5.318   0.180   0.665
 9854TIP3   OH250976   3.515   6.714   3.803
 9854TIP3    H150977   3.422   6.697   3.788
 9854TIP3    H250978   3.516   6.784   3.869
 9855TIP3   OH250979   3.118   4.990   2.898
 9855TIP3    H150980   3.058   5.012   2.969
 9855TIP3    H250981   3.082   4.910   2.860
 9856TIP3   OH250982   4.614   5.763   2.296
 9856TIP3    H150983   4.647   5.821   2.228
 9856TIP3    H250984   4.690   5.747   2.352
 9857TIP3   OH250985   6.297   3.201  15.051
 9857TIP3    H150986   6.365   3.182  15.116
 9857TIP3    H250987   6.340   3.258  14.987
 9858TIP3   OH250988   3.605   3.218  13.513
 9858TIP3    H150989   3.556   3.274  13.573
 9858TIP3    H250990   3.660   3.164  13.569
 9859TIP3   OH250991   0.486   5.195   5.294
 9859TIP3    H150992   0.435   5.139   5.353
 9859TIP3    H250993   0.454   5.172   5.207
 9860TIP3   OH250994   0.252   2.094   4.248
 9860TIP3    H150995   0.200   2.096   4.328
 9860TIP3    H250996   0.214   2.163   4.193
 9861TIP3   OH250997   5.098   0.238   0.132
 9861TIP3    H150998   5.167   0.302   0.153
 9861TIP3    H250999   5.017   0.289   0.138
 9862TIP3   OH251000   2.288   0.147   0.673
 9862TIP3    H151001   2.281   0.199   0.753
 9862TIP3    H251002   2.293   0.057   0.703
 9863TIP3   OH251003   0.654   4.399  12.098
 9863TIP3    H151004   0.644   4.487  12.135
 9863TIP3    H251005   0.578   4.351  12.132
 9864TIP3   OH251006   5.171   1.258  14.239
 9864TIP3    H151007   5.093   1.216  14.202
 9864TIP3    H251008   5.243   1.199  14.218
 9865TIP3   OH251009   6.428   5.513   1.679
 9865TIP3    H151010   6.480   5.585   1.715
 9865TIP3    H251011   6.337   5.542   1.689
 9866TIP3   OH251012   2.026   0.355  12.380
 9866TIP3    H151013   1.933   0.372  12.391
 9866TIP3    H251014   2.036   0.335  12.287
 9867TIP3   OH251015   3.133   1.094  12.486
 9867TIP3    H151016   3.110   1.120  12.396
 9867TIP3    H251017   3.229   1.091  12.486
 9868TIP3   OH251018   1.254   2.077   3.800
 9868TIP3    H151019   1.258   2.146   3.733
 9868TIP3    H251020   1.326   2.018   3.777
 9869TIP3   OH251021   3.152   1.429  14.016
 9869TIP3    H151022   3.084   1.423  13.948
 9869TIP3    H251023   3.151   1.343  14.058
 9870TIP3   OH251024   3.467   2.058   4.658
 9870TIP3    H151025   3.504   2.024   4.576
 9870TIP3    H251026   3.407   1.989   4.687
 9871TIP3   OH251027   0.643   1.567  12.873
 9871TIP3    H151028   0.571   1.590  12.931
 9871TIP3    H251029   0.708   1.526  12.930
 9872TIP3   OH251030   2.162   1.175   3.113
 9872TIP3    H151031   2.245   1.159   3.067
 9872TIP3    H251032   2.161   1.270   3.127
 9873TIP3   OH251033   0.055   4.513   1.568
 9873TIP3    H151034   0.030   4.604   1.552
 9873TIP3    H251035   0.030   4.467   1.489
 9874TIP3   OH251036   0.461   2.778  13.488
 9874TIP3    H151037   0.457   2.858  13.540
 9874TIP3    H251038   0.397   2.791  13.418
 9875TIP3   OH251039   2.943   2.479  12.844
 9875TIP3    H151040   2.919   2.473  12.751
 9875TIP3    H251041   3.027   2.434  12.851
 9876TIP3   OH251042   2.699   3.805   5.706
 9876TIP3    H151043   2.781   3.833   5.665
 9876TIP3    H251044   2.630   3.842   5.651
 9877TIP3   OH251045   0.755   6.333  17.198
 9877TIP3    H151046   0.839   6.338  17.244
 9877TIP3    H251047   0.716   6.251  17.229
 9878TIP3   OH251048   5.250   3.480   2.173
 9878TIP3    H151049   5.281   3.555   2.122
 9878TIP3    H251050   5.270   3.504   2.264
 9879TIP3   OH251051   4.668   4.414  13.060
 9879TIP3    H151052   4.664   4.490  13.001
 9879TIP3    H251053   4.751   4.424  13.107
 9880TIP3   OH251054   4.242   1.341   2.045
 9880TIP3    H151055   4.266   1.359   1.955
 9880TIP3    H251056   4.192   1.419   2.072
 9881TIP3   OH251057   2.706   5.325  15.793
 9881TIP3    H151058   2.694   5.420  15.802
 9881TIP3    H251059   2.775   5.303  15.855
 9882TIP3   OH251060   6.762   6.757  12.273
 9882TIP3    H151061   6.815   6.837  12.271
 9882TIP3    H251062   6.799   6.706  12.345
 9883TIP3   OH251063   1.769   2.322   5.939
 9883TIP3    H151064   1.811   2.293   6.020
 9883TIP3    H251065   1.775   2.247   5.880
 9884TIP3   OH251066   1.371   6.388   1.441
 9884TIP3    H151067   1.316   6.405   1.365
 9884TIP3    H251068   1.354   6.297   1.465
 9885TIP3   OH251069   6.492   3.240   3.713
 9885TIP3    H151070   6.531   3.168   3.763
 9885TIP3    H251071   6.399   3.237   3.736
 9886TIP3   OH251072   1.102   2.817  15.661
 9886TIP3    H151073   1.158   2.740  15.669
 9886TIP3    H251074   1.156   2.890  15.692
 9887TIP3   OH251075   2.062   3.719   4.299
 9887TIP3    H151076   2.099   3.689   4.216
 9887TIP3    H251077   2.138   3.736   4.354
 9888TIP3   OH251078   6.545   5.100   0.162
 9888TIP3    H151079   6.601   5.160   0.113
 9888TIP3    H251080   6.519   5.150   0.240
 9889TIP3   OH251081   5.977   5.683  11.689
 9889TIP3    H151082   5.924   5.756  11.723
 9889TIP3    H251083   6.032   5.722  11.622
 9890TIP3   OH251084   3.394   5.389   1.259
 9890TIP3    H151085   3.457   5.460   1.265
 9890TIP3    H251086   3.410   5.336   1.337
 9891TIP3   OH251087   5.602   6.766  15.589
 9891TIP3    H151088   5.531   6.830  15.601
 9891TIP3    H251089   5.662   6.809  15.528
 9892TIP3   OH251090   1.015   2.397   5.330
 9892TIP3    H151091   1.051   2.465   5.387
 9892TIP3    H251092   1.088   2.336   5.318
 9893TIP3   OH251093   2.598   4.505   5.088
 9893TIP3    H151094   2.550   4.441   5.036
 9893TIP3    H251095   2.551   4.509   5.171
 9894TIP3   OH251096   6.591   5.416  11.561
 9894TIP3    H151097   6.577   5.435  11.653
 9894TIP3    H251098   6.531   5.476  11.515
 9895TIP3   OH251099   6.665   4.165  17.128
 9895TIP3    H151100   6.757   4.143  17.110
 9895TIP3    H251101   6.629   4.085  17.167
 9896TIP3   OH251102   0.948   4.940  16.074
 9896TIP3    H151103   0.980   5.030  16.061
 9896TIP3    H251104   0.937   4.932  16.169
 9897TIP3   OH251105   4.578   5.744  13.328
 9897TIP3    H151106   4.530   5.690  13.391
 9897TIP3    H251107   4.627   5.806  13.382
 9898TIP3   OH251108   6.680   0.357   1.545
 9898TIP3    H151109   6.767   0.355   1.506
 9898TIP3    H251110   6.650   0.447   1.533
 9899TIP3   OH251111   2.691   4.500   0.241
 9899TIP3    H151112   2.597   4.515   0.240
 9899TIP3    H251113   2.708   4.458   0.325
 9900TIP3   OH251114   3.364   2.142  14.227
 9900TIP3    H151115   3.426   2.213  14.244
 9900TIP3    H251116   3.411   2.082  14.168
 9901TIP3   OH251117   3.383   1.477  16.796
 9901TIP3    H151118   3.301   1.471  16.747
 9901TIP3    H251119   3.375   1.410  16.863
 9902TIP3   OH251120   3.953   1.490  10.282
 9902TIP3    H151121   3.914   1.415  10.326
 9902TIP3    H251122   3.894   1.563  10.302
 9903TIP3   OH251123   3.144   1.510  13.444
 9903TIP3    H151124   3.207   1.582  13.445
 9903TIP3    H251125   3.061   1.550  13.472
 9904TIP3   OH251126   4.754   4.286   6.249
 9904TIP3    H151127   4.813   4.226   6.202
 9904TIP3    H251128   4.762   4.261   6.341
 9905TIP3   OH251129   1.871   0.830  12.992
 9905TIP3    H151130   1.896   0.838  13.084
 9905TIP3    H251131   1.807   0.760  12.990
 9906TIP3   OH251132   5.060   4.090  13.394
 9906TIP3    H151133   5.037   4.064  13.305
 9906TIP3    H251134   5.042   4.013  13.447
 9907TIP3   OH251135   5.731   0.892  17.185
 9907TIP3    H151136   5.714   0.880  17.091
 9907TIP3    H251137   5.708   0.807  17.224
 9908TIP3   OH251138   6.169   3.221   3.273
 9908TIP3    H151139   6.154   3.311   3.245
 9908TIP3    H251140   6.263   3.215   3.287
 9909TIP3   OH251141   4.912   2.448   2.215
 9909TIP3    H151142   4.833   2.404   2.247
 9909TIP3    H251143   4.883   2.492   2.135
 9910TIP3   OH251144   2.528   3.735   1.412
 9910TIP3    H151145   2.573   3.810   1.372
 9910TIP3    H251146   2.542   3.745   1.506
 9911TIP3   OH251147   4.474   3.292  17.086
 9911TIP3    H151148   4.558   3.332  17.062
 9911TIP3    H251149   4.490   3.198  17.078
 9912TIP3   OH251150   2.940   6.138  12.227
 9912TIP3    H151151   2.989   6.193  12.166
 9912TIP3    H251152   2.851   6.175  12.227
 9913TIP3   OH251153   4.584   3.873   1.964
 9913TIP3    H151154   4.554   3.896   1.876
 9913TIP3    H251155   4.657   3.932   1.981
 9914TIP3   OH251156   4.105   1.723  14.764
 9914TIP3    H151157   4.118   1.654  14.699
 9914TIP3    H251158   4.120   1.805  14.716
 9915TIP3   OH251159   3.546   0.999  11.484
 9915TIP3    H151160   3.572   0.998  11.576
 9915TIP3    H251161   3.469   1.057  11.482
 9916TIP3   OH251162   3.531   6.339   2.438
 9916TIP3    H151163   3.487   6.298   2.363
 9916TIP3    H251164   3.500   6.429   2.438
 9917TIP3   OH251165   4.334   2.045  16.530
 9917TIP3    H151166   4.299   2.120  16.481
 9917TIP3    H251167   4.363   1.984  16.462
 9918TIP3   OH251168   5.419   1.988   5.704
 9918TIP3    H151169   5.483   2.022   5.767
 9918TIP3    H251170   5.465   1.916   5.661
 9919TIP3   OH251171   1.112   2.033   5.119
 9919TIP3    H151172   1.156   2.115   5.142
 9919TIP3    H251173   1.019   2.057   5.110
 9920TIP3   OH251174   2.759   5.134  11.849
 9920TIP3    H151175   2.727   5.194  11.916
 9920TIP3    H251176   2.809   5.190  11.789
 9921TIP3   OH251177   1.785   6.630  16.670
 9921TIP3    H151178   1.774   6.569  16.598
 9921TIP3    H251179   1.697   6.662  16.689
 9922TIP3   OH251180   1.140   5.610   2.400
 9922TIP3    H151181   1.231   5.620   2.373
 9922TIP3    H251182   1.143   5.554   2.478
 9923TIP3   OH251183   2.427   6.196  16.682
 9923TIP3    H151184   2.396   6.117  16.638
 9923TIP3    H251185   2.422   6.264  16.614
 9924TIP3   OH251186   2.426   6.149  15.709
 9924TIP3    H151187   2.388   6.101  15.635
 9924TIP3    H251188   2.408   6.241  15.689
 9925TIP3   OH251189   0.978   1.162  11.901
 9925TIP3    H151190   1.065   1.190  11.872
 9925TIP3    H251191   0.946   1.235  11.954
 9926TIP3   OH251192   4.264   5.397  11.632
 9926TIP3    H151193   4.231   5.471  11.682
 9926TIP3    H251194   4.224   5.406  11.546
 9927TIP3   OH251195   1.578   4.629  13.676
 9927TIP3    H151196   1.513   4.590  13.734
 9927TIP3    H251197   1.576   4.573  13.598
 9928TIP3   OH251198   3.368   2.334  13.201
 9928TIP3    H151199   3.300   2.281  13.243
 9928TIP3    H251200   3.330   2.422  13.196
 9929TIP3   OH251201   3.826   4.406  15.239
 9929TIP3    H151202   3.769   4.377  15.310
 9929TIP3    H251203   3.875   4.328  15.214
 9930TIP3   OH251204   0.122   0.392   0.360
 9930TIP3    H151205   0.216   0.377   0.366
 9930TIP3    H251206   0.086   0.307   0.333
 9931TIP3   OH251207   5.906   5.801   4.759
 9931TIP3    H151208   5.955   5.737   4.811
 9931TIP3    H251209   5.964   5.876   4.751
 9932TIP3   OH251210   2.073   4.756   4.802
 9932TIP3    H151211   2.082   4.844   4.764
 9932TIP3    H251212   2.149   4.748   4.860
 9933TIP3   OH251213   5.346   1.120  15.235
 9933TIP3    H151214   5.263   1.123  15.283
 9933TIP3    H251215   5.343   1.195  15.176
 9934TIP3   OH251216   4.896   5.821  14.820
 9934TIP3    H151217   4.827   5.782  14.874
 9934TIP3    H251218   4.894   5.914  14.842
 9935TIP3   OH251219   2.934   0.190  11.908
 9935TIP3    H151220   2.904   0.099  11.903
 9935TIP3    H251221   3.021   0.185  11.947
 9936TIP3   OH251222   0.694   1.694  13.529
 9936TIP3    H151223   0.779   1.736  13.515
 9936TIP3    H251224   0.705   1.605  13.498
 9937TIP3   OH251225   1.543   4.360   1.370
 9937TIP3    H151226   1.626   4.319   1.394
 9937TIP3    H251227   1.484   4.339   1.442
 9938TIP3   OH251228   5.033   3.756  14.440
 9938TIP3    H151229   5.034   3.759  14.536
 9938TIP3    H251230   5.112   3.804  14.415
 9939TIP3   OH251231   5.589   3.420  12.043
 9939TIP3    H151232   5.628   3.472  11.973
 9939TIP3    H251233   5.644   3.437  12.119
 9940TIP3   OH251234   0.837   6.666   1.426
 9940TIP3    H151235   0.876   6.701   1.506
 9940TIP3    H251236   0.788   6.739   1.389
 9941TIP3   OH251237   4.430   1.082  14.933
 9941TIP3    H151238   4.501   1.051  14.990
 9941TIP3    H251239   4.432   1.177  14.942
 9942TIP3   OH251240   4.004   3.953   1.462
 9942TIP3    H151241   4.081   3.920   1.507
 9942TIP3    H251242   4.037   4.018   1.400
 9943TIP3   OH251243   4.359   6.511  13.582
 9943TIP3    H151244   4.415   6.565  13.526
 9943TIP3    H251245   4.417   6.443  13.615
 9944TIP3   OH251246   2.055   2.527   1.075
 9944TIP3    H151247   1.995   2.496   1.143
 9944TIP3    H251248   2.109   2.594   1.118
 9945TIP3   OH251249   4.900   1.004  16.632
 9945TIP3    H151250   4.888   1.075  16.570
 9945TIP3    H251251   4.820   0.952  16.625
 9946TIP3   OH251252   2.268   2.188  16.916
 9946TIP3    H151253   2.225   2.170  16.999
 9946TIP3    H251254   2.349   2.137  16.919
 9947TIP3   OH251255   1.261   0.576  11.844
 9947TIP3    H151256   1.283   0.668  11.825
 9947TIP3    H251257   1.337   0.542  11.890
 9948TIP3   OH251258   6.615   0.514   6.298
 9948TIP3    H151259   6.641   0.491   6.209
 9948TIP3    H251260   6.539   0.571   6.287
 9949TIP3   OH251261   4.140   3.300  14.872
 9949TIP3    H151262   4.194   3.378  14.877
 9949TIP3    H251263   4.202   3.227  14.867
 9950TIP3   OH251264   0.784   4.403  10.900
 9950TIP3    H151265   0.723   4.375  10.831
 9950TIP3    H251266   0.731   4.458  10.958
 9951TIP3   OH251267   0.733   3.335  11.753
 9951TIP3    H151268   0.741   3.362  11.662
 9951TIP3    H251269   0.682   3.405  11.794
 9952TIP3   OH251270   2.764   6.239   5.222
 9952TIP3    H151271   2.791   6.249   5.130
 9952TIP3    H251272   2.750   6.145   5.232
 9953TIP3   OH251273   2.616   1.271   1.253
 9953TIP3    H151274   2.616   1.238   1.342
 9953TIP3    H251275   2.534   1.238   1.215
 9954TIP3   OH251276   3.976   0.022  15.681
 9954TIP3    H151277   3.957  -0.053  15.624
 9954TIP3    H251278   4.059   0.056  15.648
 9955TIP3   OH251279   2.602   1.592  11.384
 9955TIP3    H151280   2.598   1.643  11.304
 9955TIP3    H251281   2.528   1.532  11.378
 9956TIP3   OH251282   6.661   2.899   3.439
 9956TIP3    H151283   6.732   2.861   3.492
 9956TIP3    H251284   6.582   2.878   3.487
 9957TIP3   OH251285   1.977   3.900  13.535
 9957TIP3    H151286   1.976   3.951  13.616
 9957TIP3    H251287   1.886   3.903  13.504
 9958TIP3   OH251288   5.199   2.370  13.922
 9958TIP3    H151289   5.193   2.275  13.918
 9958TIP3    H251290   5.285   2.390  13.884
 9959TIP3   OH251291   1.041   4.068  11.935
 9959TIP3    H151292   1.079   3.991  11.977
 9959TIP3    H251293   1.114   4.109  11.890
 9960TIP3   OH251294   2.250   6.180   3.960
 9960TIP3    H151295   2.334   6.211   3.926
 9960TIP3    H251296   2.240   6.093   3.920
 9961TIP3   OH251297   1.472   2.397  13.678
 9961TIP3    H151298   1.499   2.330  13.741
 9961TIP3    H251299   1.540   2.465  13.685
 9962TIP3   OH251300   2.834   2.753   1.124
 9962TIP3    H151301   2.783   2.672   1.130
 9962TIP3    H251302   2.878   2.748   1.040
 9963TIP3   OH251303   5.494   2.628  13.532
 9963TIP3    H151304   5.488   2.575  13.453
 9963TIP3    H251305   5.405   2.628  13.567
 9964TIP3   OH251306   6.771   0.593   1.322
 9964TIP3    H151307   6.764   0.667   1.261
 9964TIP3    H251308   6.788   0.517   1.266
 9965TIP3   OH251309   6.431   0.704  13.418
 9965TIP3    H151310   6.470   0.782  13.458
 9965TIP3    H251311   6.410   0.731  13.329
 9966TIP3   OH251312   3.652   6.399  14.937
 9966TIP3    H151313   3.715   6.387  15.008
 9966TIP3    H251314   3.645   6.313  14.896
 9967TIP3   OH251315   3.552   2.836  13.366
 9967TIP3    H151316   3.542   2.928  13.339
 9967TIP3    H251317   3.639   2.831  13.404
 9968TIP3   OH251318   1.938   4.831   2.769
 9968TIP3    H151319   1.984   4.747   2.771
 9968TIP3    H251320   1.850   4.810   2.739
 9969TIP3   OH251321   3.903   0.499  10.946
 9969TIP3    H151322   3.975   0.437  10.953
 9969TIP3    H251323   3.906   0.548  11.028
 9970TIP3   OH251324   1.440   1.593  11.095
 9970TIP3    H151325   1.399   1.549  11.020
 9970TIP3    H251326   1.532   1.602  11.070
 9971TIP3   OH251327   3.984   3.823  15.148
 9971TIP3    H151328   3.898   3.787  15.170
 9971TIP3    H251329   4.003   3.788  15.061
 9972TIP3   OH251330   2.247   0.271  16.818
 9972TIP3    H151331   2.174   0.316  16.775
 9972TIP3    H251332   2.212   0.245  16.903
 9973TIP3   OH251333   4.916   2.205  12.216
 9973TIP3    H151334   4.867   2.154  12.280
 9973TIP3    H251335   5.008   2.182  12.233
 9974TIP3   OH251336   4.627   2.478   6.436
 9974TIP3    H151337   4.564   2.502   6.367
 9974TIP3    H251338   4.685   2.554   6.442
 9975TIP3   OH251339   6.480   4.348  17.090
 9975TIP3    H151340   6.535   4.275  17.120
 9975TIP3    H251341   6.542   4.413  17.058
 9976TIP3   OH251342   2.526   3.852  15.356
 9976TIP3    H151343   2.491   3.837  15.444
 9976TIP3    H251344   2.448   3.850  15.300
 9977TIP3   OH251345   3.833   4.097   0.419
 9977TIP3    H151346   3.912   4.073   0.467
 9977TIP3    H251347   3.834   4.193   0.416
 9978TIP3   OH251348   0.657   5.769   5.444
 9978TIP3    H151349   0.730   5.767   5.505
 9978TIP3    H251350   0.693   5.739   5.361
 9979TIP3   OH251351   1.785   2.341  13.726
 9979TIP3    H151352   1.748   2.429  13.721
 9979TIP3    H251353   1.755   2.298  13.645
 9980TIP3   OH251354   2.129   4.624   1.186
 9980TIP3    H151355   2.224   4.633   1.201
 9980TIP3    H251356   2.120   4.537   1.147
 9981TIP3   OH251357   0.086   0.627   4.817
 9981TIP3    H151358   0.178   0.641   4.793
 9981TIP3    H251359   0.059   0.550   4.766
 9982TIP3   OH251360   5.168   0.574  13.600
 9982TIP3    H151361   5.089   0.536  13.638
 9982TIP3    H251362   5.137   0.645  13.544
 9983TIP3   OH251363   0.767   3.523   5.406
 9983TIP3    H151364   0.692   3.540   5.348
 9983TIP3    H251365   0.818   3.456   5.360
 9984TIP3   OH251366   2.904   0.842  15.026
 9984TIP3    H151367   2.934   0.931  15.040
 9984TIP3    H251368   2.897   0.805  15.114
 9985TIP3   OH251369   5.701   1.684   0.393
 9985TIP3    H151370   5.696   1.694   0.298
 9985TIP3    H251371   5.778   1.734   0.419
 9986TIP3   OH251372   2.417   5.628   2.794
 9986TIP3    H151373   2.482   5.696   2.780
 9986TIP3    H251374   2.359   5.664   2.861
 9987TIP3   OH251375   0.759   5.561   3.959
 9987TIP3    H151376   0.789   5.518   3.879
 9987TIP3    H251377   0.682   5.611   3.933
 9988TIP3   OH251378   3.845   6.236   2.082
 9988TIP3    H151379   3.898   6.308   2.116
 9988TIP3    H251380   3.902   6.191   2.019
 9989TIP3   OH251381   6.768   2.760   0.545
 9989TIP3    H151382   6.853   2.718   0.557
 9989TIP3    H251383   6.716   2.696   0.496
 9990TIP3   OH251384   6.387   3.725  15.240
 9990TIP3    H151385   6.444   3.775  15.181
 9990TIP3    H251386   6.391   3.636  15.206
 9991TIP3   OH251387   3.072   1.804  10.600
 9991TIP3    H151388   3.108   1.870  10.542
 9991TIP3    H251389   3.040   1.735  10.542
 9992TIP3   OH251390   4.807   5.462  12.174
 9992TIP3    H151391   4.833   5.389  12.118
 9992TIP3    H251392   4.885   5.480  12.226
 9993TIP3   OH251393   0.159   5.164   1.574
 9993TIP3    H151394   0.223   5.092   1.570
 9993TIP3    H251395   0.075   5.121   1.557
 9994TIP3   OH251396   0.121   5.117  12.233
 9994TIP3    H151397   0.131   5.022  12.239
 9994TIP3    H251398   0.086   5.143  12.319
 9995TIP3   OH251399   5.298   0.129   2.985
 9995TIP3    H151400   5.237   0.125   2.912
 9995TIP3    H251401   5.245   0.159   3.059
 9996TIP3   OH251402   3.256   0.286  12.643
 9996TIP3    H151403   3.335   0.338  12.658
 9996TIP3    H251404   3.212   0.285  12.727
 9997TIP3   OH251405   3.082   5.071  14.515
 9997TIP3    H151406   2.994   5.107  14.527
 9997TIP3    H251407   3.096   5.015  14.591
 9998TIP3   OH251408   1.817   5.918  16.809
 9998TIP3    H151409   1.787   5.940  16.721
 9998TIP3    H251410   1.785   5.829  16.823
 9999TIP3   OH251411   1.509   4.505  13.003
 9999TIP3    H151412   1.442   4.443  12.978
 9999TIP3    H251413   1.466   4.564  13.066
10000TIP3   OH251414   4.908   5.614  14.582
10000TIP3    H151415   4.851   5.544  14.611
10000TIP3    H251416   4.904   5.679  14.652
10001TIP3   OH251417   0.758   1.239   2.283
10001TIP3    H151418   0.821   1.306   2.307
10001TIP3    H251419   0.725   1.267   2.197
10002TIP3   OH251420   6.574   4.376   1.933
10002TIP3    H151421   6.577   4.306   1.868
10002TIP3    H251422   6.488   4.367   1.974
10003TIP3   OH251423   1.565   3.945   0.616
10003TIP3    H151424   1.476   3.912   0.601
10003TIP3    H251425   1.561   3.987   0.702
10004TIP3   OH251426   4.472   6.112  15.247
10004TIP3    H151427   4.470   6.181  15.313
10004TIP3    H251428   4.485   6.158  15.164
10005TIP3   OH251429   0.199   1.482   1.982
10005TIP3    H151430   0.268   1.455   1.921
10005TIP3    H251431   0.221   1.571   2.007
10006TIP3   OH251432   6.344   5.957  11.002
10006TIP3    H151433   6.279   6.008  10.954
10006TIP3    H251434   6.382   6.020  11.064
10007TIP3   OH251435   1.893   4.665   6.147
10007TIP3    H151436   1.862   4.576   6.165
10007TIP3    H251437   1.815   4.713   6.119
10008TIP3   OH251438   0.197   5.476   3.915
10008TIP3    H151439   0.241   5.404   3.871
10008TIP3    H251440   0.234   5.477   4.003
10009TIP3   OH251441   6.669   6.527   2.598
10009TIP3    H151442   6.640   6.538   2.507
10009TIP3    H251443   6.610   6.583   2.648
10010TIP3   OH251444   4.376   2.966   2.110
10010TIP3    H151445   4.354   2.984   2.201
10010TIP3    H251446   4.470   2.947   2.111
10011TIP3   OH251447   0.114   3.087  11.830
10011TIP3    H151448   0.113   3.104  11.736
10011TIP3    H251449   0.141   2.995  11.838
10012TIP3   OH251450   2.542   2.007  14.589
10012TIP3    H151451   2.554   2.079  14.528
10012TIP3    H251452   2.629   1.966  14.595
10013TIP3   OH251453   5.930   1.611   5.210
10013TIP3    H151454   5.849   1.630   5.259
10013TIP3    H251455   5.991   1.580   5.276
10014TIP3   OH251456   2.965   3.399   0.037
10014TIP3    H151457   3.048   3.374  -0.004
10014TIP3    H251458   2.985   3.404   0.130
10015TIP3   OH251459   0.175   2.327   4.063
10015TIP3    H151460   0.120   2.391   4.108
10015TIP3    H251461   0.263   2.365   4.063
10016TIP3   OH251462   0.600   4.290  10.715
10016TIP3    H151463   0.584   4.277  10.621
10016TIP3    H251464   0.571   4.380  10.731
10017TIP3   OH251465   5.470   1.705   2.110
10017TIP3    H151466   5.545   1.695   2.168
10017TIP3    H251467   5.506   1.742   2.030
10018TIP3   OH251468   2.145   5.507  14.541
10018TIP3    H151469   2.111   5.555  14.616
10018TIP3    H251470   2.134   5.415  14.565
10019TIP3   OH251471   0.269   2.380  11.183
10019TIP3    H151472   0.253   2.351  11.093
10019TIP3    H251473   0.182   2.381  11.223
10020TIP3   OH251474   2.223   3.316   1.124
10020TIP3    H151475   2.283   3.388   1.144
10020TIP3    H251476   2.279   3.247   1.089
10021TIP3   OH251477   3.458   6.157  11.576
10021TIP3    H151478   3.477   6.223  11.643
10021TIP3    H251479   3.403   6.093  11.621
10022TIP3   OH251480   6.334   6.265  16.074
10022TIP3    H151481   6.341   6.176  16.040
10022TIP3    H251482   6.299   6.254  16.163
10023TIP3   OH251483   1.665   3.929  16.324
10023TIP3    H151484   1.669   4.024  16.314
10023TIP3    H251485   1.719   3.895  16.254
10024TIP3   OH251486   4.025   2.394   5.631
10024TIP3    H151487   4.044   2.304   5.606
10024TIP3    H251488   4.098   2.420   5.687
10025TIP3   OH251489   1.039   0.731   0.845
10025TIP3    H151490   1.121   0.712   0.799
10025TIP3    H251491   1.066   0.787   0.919
10026TIP3   OH251492   0.328   2.395  16.056
10026TIP3    H151493   0.365   2.366  16.139
10026TIP3    H251494   0.404   2.405  15.999
10027TIP3   OH251495   2.603   2.029   5.153
10027TIP3    H151496   2.635   2.113   5.120
10027TIP3    H251497   2.517   2.018   5.113
10028TIP3   OH251498   2.871   4.537  17.017
10028TIP3    H151499   2.776   4.547  17.006
10028TIP3    H251500   2.882   4.521  17.111
10029TIP3   OH251501   4.678   6.447  12.104
10029TIP3    H151502   4.715   6.375  12.154
10029TIP3    H251503   4.725   6.446  12.020
10030TIP3   OH251504   5.022   2.010  16.152
10030TIP3    H151505   4.930   1.984  16.155
10030TIP3    H251506   5.032   2.051  16.065
10031TIP3   OH251507   3.307   0.895   2.599
10031TIP3    H151508   3.258   0.977   2.606
10031TIP3    H251509   3.263   0.836   2.660
10032TIP3   OH251510   1.521   1.991  10.444
10032TIP3    H151511   1.547   1.942  10.522
10032TIP3    H251512   1.451   1.939  10.405
10033TIP3   OH251513   0.916   1.180  13.192
10033TIP3    H151514   0.856   1.106  13.181
10033TIP3    H251515   0.924   1.191  13.287
10034TIP3   OH251516   4.504   2.977   3.155
10034TIP3    H151517   4.477   3.056   3.109
10034TIP3    H251518   4.427   2.953   3.207
10035TIP3   OH251519   2.643   1.456  16.069
10035TIP3    H151520   2.729   1.429  16.037
10035TIP3    H251521   2.599   1.493  15.992
10036TIP3   OH251522   3.959   4.192   4.807
10036TIP3    H151523   3.967   4.287   4.819
10036TIP3    H251524   3.874   4.170   4.845
10037TIP3   OH251525   3.246   6.661  12.057
10037TIP3    H151526   3.182   6.591  12.046
10037TIP3    H251527   3.290   6.667  11.972
10038TIP3   OH251528   3.309   0.050  13.293
10038TIP3    H151529   3.216   0.028  13.302
10038TIP3    H251530   3.355  -0.015  13.345
10039TIP3   OH251531   3.643   5.473  11.465
10039TIP3    H151532   3.724   5.424  11.450
10039TIP3    H251533   3.672   5.562  11.484
10040TIP3   OH251534   2.897   5.093   4.176
10040TIP3    H151535   2.968   5.035   4.205
10040TIP3    H251536   2.911   5.101   4.081
10041TIP3   OH251537   1.617   5.824   2.254
10041TIP3    H151538   1.675   5.853   2.324
10041TIP3    H251539   1.616   5.896   2.192
10042TIP3   OH251540   6.121   5.801   0.757
10042TIP3    H151541   6.045   5.847   0.724
10042TIP3    H251542   6.090   5.757   0.836
10043TIP3   OH251543   4.435   6.465  11.288
10043TIP3    H151544   4.409   6.390  11.234
10043TIP3    H251545   4.451   6.428  11.375
10044TIP3   OH251546   4.859   5.611  16.232
10044TIP3    H151547   4.802   5.680  16.266
10044TIP3    H251548   4.875   5.553  16.306
10045TIP3   OH251549   5.001   6.736   5.129
10045TIP3    H151550   5.038   6.777   5.050
10045TIP3    H251551   4.925   6.791   5.150
10046TIP3   OH251552   1.489   4.417   2.325
10046TIP3    H151553   1.427   4.485   2.353
10046TIP3    H251554   1.435   4.338   2.319
10047TIP3   OH251555   5.335   1.678   3.462
10047TIP3    H151556   5.249   1.680   3.419
10047TIP3    H251557   5.352   1.585   3.477
10048TIP3   OH251558   5.413   5.952   5.483
10048TIP3    H151559   5.382   5.972   5.394
10048TIP3    H251560   5.345   5.895   5.519
10049TIP3   OH251561   0.069   3.609  12.203
10049TIP3    H151562   0.059   3.594  12.109
10049TIP3    H251563   0.163   3.608  12.218
10050TIP3   OH251564   0.172   0.149   2.233
10050TIP3    H151565   0.120   0.167   2.155
10050TIP3    H251566   0.238   0.218   2.234
10051TIP3   OH251567   3.878   4.427   3.659
10051TIP3    H151568   3.886   4.518   3.689
10051TIP3    H251569   3.961   4.408   3.616
10052TIP3   OH251570   5.415   5.657   1.514
10052TIP3    H151571   5.489   5.661   1.575
10052TIP3    H251572   5.380   5.568   1.524
10053TIP3   OH251573   1.549   3.990   0.146
10053TIP3    H151574   1.476   4.051   0.153
10053TIP3    H251575   1.595   4.015   0.066
10054TIP3   OH251576   6.339   4.485  14.801
10054TIP3    H151577   6.365   4.408  14.851
10054TIP3    H251578   6.415   4.505  14.746
10055TIP3   OH251579   1.730   0.975  11.963
10055TIP3    H151580   1.718   1.009  11.874
10055TIP3    H251581   1.786   1.039  12.006
10056TIP3   OH251582   1.713   5.104  12.816
10056TIP3    H151583   1.739   5.045  12.887
10056TIP3    H251584   1.618   5.111  12.824
10057TIP3   OH251585   3.636   4.009   3.669
10057TIP3    H151586   3.662   4.096   3.639
10057TIP3    H251587   3.615   3.961   3.589
10058TIP3   OH251588   1.157   6.356   2.427
10058TIP3    H151589   1.072   6.338   2.388
10058TIP3    H251590   1.136   6.388   2.515
10059TIP3   OH251591   1.917   2.671  13.322
10059TIP3    H151592   1.853   2.641  13.387
10059TIP3    H251593   1.869   2.736  13.270
10060TIP3   OH251594   5.493   0.114  12.283
10060TIP3    H151595   5.586   0.100  12.305
10060TIP3    H251596   5.488   0.206  12.258
10061TIP3   OH251597   4.876   0.731  13.262
10061TIP3    H151598   4.859   0.637  13.261
10061TIP3    H251599   4.857   0.758  13.351
10062TIP3   OH251600   5.806   3.115  12.371
10062TIP3    H151601   5.773   3.046  12.314
10062TIP3    H251602   5.737   3.128  12.436
10063TIP3   OH251603   4.076   1.963   2.298
10063TIP3    H151604   4.163   1.965   2.338
10063TIP3    H251605   4.039   2.049   2.317
10064TIP3   OH251606   3.057   5.533  14.328
10064TIP3    H151607   3.117   5.607  14.327
10064TIP3    H251608   3.099   5.467  14.272
10065TIP3   OH251609   4.782   3.079  11.321
10065TIP3    H151610   4.845   3.040  11.261
10065TIP3    H251611   4.721   3.127  11.264
10066TIP3   OH251612   3.219   2.174  14.451
10066TIP3    H151613   3.258   2.144  14.369
10066TIP3    H251614   3.219   2.269  14.445
10067TIP3   OH251615   1.002   3.295  12.716
10067TIP3    H151616   0.999   3.379  12.761
10067TIP3    H251617   1.005   3.230  12.786
10068TIP3   OH251618   2.479   0.771  16.242
10068TIP3    H151619   2.454   0.854  16.201
10068TIP3    H251620   2.570   0.757  16.212
10069TIP3   OH251621   3.081   1.250   1.912
10069TIP3    H151622   3.020   1.184   1.879
10069TIP3    H251623   3.049   1.270   2.000
10070TIP3   OH251624   0.537   2.678   1.550
10070TIP3    H151625   0.545   2.692   1.456
10070TIP3    H251626   0.445   2.696   1.570
10071TIP3   OH251627   6.267   6.259  11.372
10071TIP3    H151628   6.221   6.176  11.388
10071TIP3    H251629   6.326   6.240  11.299
10072TIP3   OH251630   5.343   6.306   3.391
10072TIP3    H151631   5.316   6.378   3.447
10072TIP3    H251632   5.287   6.233   3.418
10073TIP3   OH251633   1.786   1.418   1.183
10073TIP3    H151634   1.798   1.501   1.230
10073TIP3    H251635   1.875   1.391   1.160
10074TIP3   OH251636   4.551   5.283  10.575
10074TIP3    H151637   4.560   5.249  10.664
10074TIP3    H251638   4.518   5.208  10.525
10075TIP3   OH251639   0.921   3.366   1.520
10075TIP3    H151640   0.853   3.411   1.470
10075TIP3    H251641   0.917   3.407   1.607
10076TIP3   OH251642   5.673   4.921   2.694
10076TIP3    H151643   5.720   4.838   2.686
10076TIP3    H251644   5.581   4.896   2.706
10077TIP3   OH251645   0.326   6.301  14.362
10077TIP3    H151646   0.239   6.275  14.333
10077TIP3    H251647   0.370   6.219  14.382
10078TIP3   OH251648   6.330   6.270  15.781
10078TIP3    H151649   6.334   6.365  15.781
10078TIP3    H251650   6.398   6.243  15.721
10079TIP3   OH251651   2.769   4.168  12.974
10079TIP3    H151652   2.744   4.260  12.977
10079TIP3    H251653   2.776   4.148  12.880
10080TIP3   OH251654   4.661   3.812   4.268
10080TIP3    H151655   4.583   3.783   4.315
10080TIP3    H251656   4.695   3.885   4.321
10081TIP3   OH251657   5.680   2.480  14.705
10081TIP3    H151658   5.630   2.531  14.769
10081TIP3    H251659   5.628   2.484  14.625
10082TIP3   OH251660   1.495   6.495   6.463
10082TIP3    H151661   1.444   6.464   6.538
10082TIP3    H251662   1.586   6.491   6.492
10083TIP3   OH251663   3.108   5.703   5.318
10083TIP3    H151664   3.167   5.735   5.386
10083TIP3    H251665   3.161   5.700   5.238
10084TIP3   OH251666   5.864   1.469  12.209
10084TIP3    H151667   5.958   1.459  12.221
10084TIP3    H251668   5.840   1.541  12.266
10085TIP3   OH251669   4.000   4.511  12.876
10085TIP3    H151670   3.937   4.495  12.946
10085TIP3    H251671   4.082   4.531  12.922
10086TIP3   OH251672   2.137   1.874   3.850
10086TIP3    H151673   2.146   1.819   3.773
10086TIP3    H251674   2.065   1.933   3.830
10087TIP3   OH251675   2.262   6.089  13.617
10087TIP3    H151676   2.190   6.152  13.606
10087TIP3    H251677   2.220   6.004  13.612
10088TIP3   OH251678   4.586   4.391   2.609
10088TIP3    H151679   4.663   4.384   2.552
10088TIP3    H251680   4.612   4.348   2.690
10089TIP3   OH251681   2.521   5.506   4.636
10089TIP3    H151682   2.573   5.446   4.690
10089TIP3    H251683   2.477   5.563   4.699
10090TIP3   OH251684   3.813   2.314  12.905
10090TIP3    H151685   3.736   2.259  12.891
10090TIP3    H251686   3.838   2.299  12.996
10091TIP3   OH251687   4.187   4.446   1.092
10091TIP3    H151688   4.166   4.413   1.004
10091TIP3    H251689   4.279   4.423   1.104
10092TIP3   OH251690   3.765   4.181  13.597
10092TIP3    H151691   3.707   4.106  13.588
10092TIP3    H251692   3.707   4.256  13.610
10093TIP3   OH251693   3.487   0.174   3.930
10093TIP3    H151694   3.534   0.248   3.891
10093TIP3    H251695   3.395   0.192   3.910
10094TIP3   OH251696   0.032   0.812   5.714
10094TIP3    H151697   0.002   0.894   5.675
10094TIP3    H251698  -0.045   0.776   5.757
10095TIP3   OH251699   5.955   3.576  11.170
10095TIP3    H151700   5.879   3.612  11.216
10095TIP3    H251701   5.953   3.483  11.190
10096TIP3   OH251702   0.186   3.994  10.328
10096TIP3    H151703   0.109   4.039  10.295
10096TIP3    H251704   0.153   3.939  10.399
10097TIP3   OH251705   3.481   4.886   3.647
10097TIP3    H151706   3.438   4.832   3.580
10097TIP3    H251707   3.574   4.865   3.638
10098TIP3   OH251708   5.041   0.903   0.460
10098TIP3    H151709   4.974   0.843   0.427
10098TIP3    H251710   5.012   0.926   0.548
10099TIP3   OH251711   4.896   6.390  11.778
10099TIP3    H151712   4.834   6.340  11.832
10099TIP3    H251713   4.841   6.450  11.728
10100TIP3   OH251714   2.149   4.899  13.308
10100TIP3    H151715   2.168   4.973  13.250
10100TIP3    H251716   2.137   4.824  13.249
10101TIP3   OH251717   1.965   5.623  11.623
10101TIP3    H151718   1.968   5.538  11.668
10101TIP3    H251719   2.057   5.646  11.611
10102TIP3   OH251720   1.585   5.020  14.742
10102TIP3    H151721   1.636   5.097  14.767
10102TIP3    H251722   1.642   4.945  14.762
10103TIP3   OH251723   5.538   0.591   3.854
10103TIP3    H151724   5.464   0.615   3.798
10103TIP3    H251725   5.503   0.595   3.943
10104TIP3   OH251726   1.019   2.284  11.283
10104TIP3    H151727   0.925   2.286  11.301
10104TIP3    H251728   1.025   2.297  11.188
10105TIP3   OH251729   1.674   0.811  11.157
10105TIP3    H151730   1.661   0.831  11.065
10105TIP3    H251731   1.676   0.715  11.161
10106TIP3   OH251732   3.873   2.900   5.904
10106TIP3    H151733   3.874   2.815   5.947
10106TIP3    H251734   3.932   2.954   5.956
10107TIP3   OH251735   2.300   4.791  13.913
10107TIP3    H151736   2.358   4.819  13.984
10107TIP3    H251737   2.268   4.873  13.874
10108TIP3   OH251738   6.636   0.604  12.360
10108TIP3    H151739   6.711   0.578  12.306
10108TIP3    H251740   6.566   0.624  12.297
10109TIP3   OH251741   3.198   0.812   5.051
10109TIP3    H151742   3.279   0.831   5.004
10109TIP3    H251743   3.166   0.897   5.080
10110TIP3   OH251744   2.349   2.009   5.061
10110TIP3    H151745   2.254   1.999   5.052
10110TIP3    H251746   2.378   2.039   4.975
10111TIP3   OH251747   0.298   1.015  17.060
10111TIP3    H151748   0.347   1.036  16.981
10111TIP3    H251749   0.359   0.963  17.113
10112TIP3   OH251750   5.115   4.666   6.639
10112TIP3    H151751   5.114   4.579   6.599
10112TIP3    H251752   5.206   4.695   6.632
10113TIP3   OH251753   0.933   0.358  11.159
10113TIP3    H151754   0.941   0.276  11.208
10113TIP3    H251755   0.851   0.349  11.110
10114TIP3   OH251756   5.091   5.000   5.754
10114TIP3    H151757   5.147   5.061   5.706
10114TIP3    H251758   5.072   4.930   5.691
10115TIP3   OH251759   2.244   1.346   0.180
10115TIP3    H151760   2.295   1.267   0.195
10115TIP3    H251761   2.186   1.324   0.107
10116TIP3   OH251762   2.584   5.961   1.277
10116TIP3    H151763   2.550   6.049   1.293
10116TIP3    H251764   2.556   5.940   1.188
10117TIP3   OH251765   1.748   5.181   2.515
10117TIP3    H151766   1.658   5.200   2.540
10117TIP3    H251767   1.797   5.186   2.597
10118TIP3   OH251768   1.019   5.800  13.301
10118TIP3    H151769   0.966   5.845  13.236
10118TIP3    H251770   1.106   5.794  13.261
10119TIP3   OH251771   2.913   0.395   3.710
10119TIP3    H151772   2.829   0.436   3.730
10119TIP3    H251773   2.950   0.451   3.641
10120TIP3   OH251774   1.360   4.305  15.960
10120TIP3    H151775   1.347   4.331  15.869
10120TIP3    H251776   1.285   4.342  16.007
10121TIP3   OH251777   6.486   6.247  11.547
10121TIP3    H151778   6.453   6.246  11.637
10121TIP3    H251779   6.407   6.257  11.493
10122TIP3   OH251780   1.496   2.738  16.744
10122TIP3    H151781   1.530   2.765  16.659
10122TIP3    H251782   1.573   2.731  16.800
10123TIP3   OH251783   2.943   2.600   5.755
10123TIP3    H151784   2.937   2.517   5.708
10123TIP3    H251785   3.036   2.619   5.759
10124TIP3   OH251786   0.488   1.586   1.355
10124TIP3    H151787   0.448   1.502   1.334
10124TIP3    H251788   0.454   1.608   1.442
10125TIP3   OH251789   5.001   5.956   0.157
10125TIP3    H151790   4.926   5.897   0.161
10125TIP3    H251791   5.010   5.975   0.064
10126TIP3   OH251792   4.985   1.866  13.810
10126TIP3    H151793   4.922   1.799  13.784
10126TIP3    H251794   5.006   1.845  13.901
10127TIP3   OH251795   6.083   5.742  13.145
10127TIP3    H151796   6.051   5.711  13.060
10127TIP3    H251797   6.138   5.670  13.177
10128TIP3   OH251798   4.716   0.386   5.893
10128TIP3    H151799   4.764   0.465   5.914
10128TIP3    H251800   4.640   0.387   5.951
10129TIP3   OH251801   2.561   1.959   1.729
10129TIP3    H151802   2.476   1.956   1.772
10129TIP3    H251803   2.583   1.868   1.713
10130TIP3   OH251804   1.149   5.935  13.894
10130TIP3    H151805   1.187   5.877  13.960
10130TIP3    H251806   1.098   5.877  13.837
10131TIP3   OH251807   6.218   3.661   0.090
10131TIP3    H151808   6.185   3.653   0.000
10131TIP3    H251809   6.225   3.571   0.122
10132TIP3   OH251810   0.908   6.630   3.467
10132TIP3    H151811   0.927   6.613   3.559
10132TIP3    H251812   0.825   6.678   3.468
10133TIP3   OH251813   4.385   2.309   5.726
10133TIP3    H151814   4.341   2.392   5.748
10133TIP3    H251815   4.427   2.327   5.642
10134TIP3   OH251816   1.635   1.748  15.198
10134TIP3    H151817   1.705   1.706  15.248
10134TIP3    H251818   1.681   1.795  15.128
10135TIP3   OH251819   5.436   4.790   3.329
10135TIP3    H151820   5.510   4.850   3.323
10135TIP3    H251821   5.463   4.725   3.393
10136TIP3   OH251822   3.900   3.354   5.970
10136TIP3    H151823   3.983   3.392   5.996
10136TIP3    H251824   3.888   3.279   6.029
10137TIP3   OH251825   3.997   6.186   4.849
10137TIP3    H151826   4.058   6.163   4.779
10137TIP3    H251827   3.910   6.184   4.807
10138TIP3   OH251828   1.473   1.876  14.636
10138TIP3    H151829   1.558   1.843  14.606
10138TIP3    H251830   1.421   1.797  14.651
10139TIP3   OH251831   1.810   5.471   0.706
10139TIP3    H151832   1.780   5.551   0.663
10139TIP3    H251833   1.772   5.400   0.655
10140TIP3   OH251834   5.335   3.045  13.617
10140TIP3    H151835   5.270   3.025  13.549
10140TIP3    H251836   5.407   2.985  13.599
10141TIP3   OH251837   3.349   6.554  12.579
10141TIP3    H151838   3.335   6.492  12.508
10141TIP3    H251839   3.435   6.592  12.562
10142TIP3   OH251840   0.907   2.242   1.021
10142TIP3    H151841   0.878   2.299   0.950
10142TIP3    H251842   0.915   2.300   1.097
10143TIP3   OH251843   3.382   3.813   4.485
10143TIP3    H151844   3.400   3.898   4.523
10143TIP3    H251845   3.454   3.757   4.514
10144TIP3   OH251846   4.519   2.631  12.556
10144TIP3    H151847   4.430   2.598  12.565
10144TIP3    H251848   4.524   2.664  12.466
10145TIP3   OH251849   3.457   3.508   1.851
10145TIP3    H151850   3.525   3.477   1.792
10145TIP3    H251851   3.375   3.485   1.808
10146TIP3   OH251852   6.210   2.981  13.815
10146TIP3    H151853   6.123   2.946  13.794
10146TIP3    H251854   6.209   3.071  13.781
10147TIP3   OH251855   5.732   2.302   1.014
10147TIP3    H151856   5.708   2.393   1.032
10147TIP3    H251857   5.810   2.308   0.960
10148TIP3   OH251858   4.754   5.577   4.419
10148TIP3    H151859   4.840   5.536   4.408
10148TIP3    H251860   4.772   5.671   4.419
10149TIP3   OH251861   3.530   0.864  15.978
10149TIP3    H151862   3.495   0.901  15.897
10149TIP3    H251863   3.518   0.770  15.969
10150TIP3   OH251864   2.286   4.621   0.877
10150TIP3    H151865   2.198   4.638   0.910
10150TIP3    H251866   2.336   4.699   0.900
10151TIP3   OH251867   5.374   3.920  11.481
10151TIP3    H151868   5.362   3.923  11.576
10151TIP3    H251869   5.467   3.900  11.469
10152TIP3   OH251870   5.127   0.507  11.871
10152TIP3    H151871   5.209   0.538  11.833
10152TIP3    H251872   5.118   0.557  11.952
10153TIP3   OH251873   5.875   5.788   1.922
10153TIP3    H151874   5.934   5.753   1.989
10153TIP3    H251875   5.819   5.849   1.969
10154TIP3   OH251876   1.546   1.372  13.698
10154TIP3    H151877   1.521   1.283  13.671
10154TIP3    H251878   1.596   1.359  13.778
10155TIP3   OH251879   5.401   2.099   1.745
10155TIP3    H151880   5.371   2.060   1.662
10155TIP3    H251881   5.329   2.083   1.806
10156TIP3   OH251882   1.560   5.060  16.467
10156TIP3    H151883   1.620   5.055  16.392
10156TIP3    H251884   1.488   5.114  16.436
10157TIP3   OH251885   3.455   6.402  13.366
10157TIP3    H151886   3.467   6.316  13.407
10157TIP3    H251887   3.539   6.446  13.378
10158TIP3   OH251888   5.004   4.085   5.768
10158TIP3    H151889   5.060   4.037   5.829
10158TIP3    H251890   4.944   4.019   5.734
10159TIP3   OH251891   4.759   1.303  14.319
10159TIP3    H151892   4.703   1.244  14.269
10159TIP3    H251893   4.798   1.361  14.254
10160TIP3   OH251894   1.034   4.896  14.232
10160TIP3    H151895   1.114   4.939  14.261
10160TIP3    H251896   1.040   4.807  14.267
10161TIP3   OH251897   0.643   0.599  15.956
10161TIP3    H151898   0.575   0.666  15.969
10161TIP3    H251899   0.665   0.606  15.863
10162TIP3   OH251900   6.763   5.212   5.060
10162TIP3    H151901   6.679   5.221   5.106
10162TIP3    H251902   6.773   5.118   5.046
10163TIP3   OH251903   1.377   1.608   6.115
10163TIP3    H151904   1.375   1.550   6.191
10163TIP3    H251905   1.306   1.670   6.130
10164TIP3   OH251906   5.075   6.597  13.618
10164TIP3    H151907   5.133   6.578  13.692
10164TIP3    H251908   5.095   6.687  13.593
10165TIP3   OH251909   4.282   0.697  15.252
10165TIP3    H151910   4.219   0.732  15.314
10165TIP3    H251911   4.367   0.712  15.293
10166TIP3   OH251912   2.965   6.403  13.357
10166TIP3    H151913   2.886   6.415  13.305
10166TIP3    H251914   2.935   6.358  13.436
10167TIP3   OH251915   3.287   0.753  11.297
10167TIP3    H151916   3.379   0.730  11.302
10167TIP3    H251917   3.251   0.696  11.229
10168TIP3   OH251918   4.184   2.759   5.821
10168TIP3    H151919   4.200   2.836   5.876
10168TIP3    H251920   4.124   2.791   5.753
10169TIP3   OH251921   1.324   6.089   1.588
10169TIP3    H151922   1.388   6.035   1.542
10169TIP3    H251923   1.327   6.059   1.678
10170TIP3   OH251924   6.252   2.409   3.213
10170TIP3    H151925   6.206   2.378   3.291
10170TIP3    H251926   6.268   2.330   3.162
10171TIP3   OH251927   0.474   3.865  13.137
10171TIP3    H151928   0.524   3.945  13.121
10171TIP3    H251929   0.500   3.839  13.225
10172TIP3   OH251930   0.345   2.480   3.219
10172TIP3    H151931   0.429   2.460   3.260
10172TIP3    H251932   0.292   2.402   3.235
10173TIP3   OH251933   0.310   3.667   1.238
10173TIP3    H151934   0.366   3.658   1.316
10173TIP3    H251935   0.346   3.743   1.193
10174TIP3   OH251936   5.089   3.029  15.156
10174TIP3    H151937   5.139   3.015  15.237
10174TIP3    H251938   5.156   3.037  15.088
10175TIP3   OH251939   3.461   4.555   3.337
10175TIP3    H151940   3.422   4.495   3.401
10175TIP3    H251941   3.473   4.501   3.258
10176TIP3   OH251942   2.314   2.916   5.835
10176TIP3    H151943   2.264   2.851   5.885
10176TIP3    H251944   2.392   2.933   5.888
10177TIP3   OH251945   5.993   3.993   6.272
10177TIP3    H151946   6.066   4.050   6.248
10177TIP3    H251947   5.966   4.022   6.359
10178TIP3   OH251948   5.422   0.774  16.105
10178TIP3    H151949   5.417   0.808  16.195
10178TIP3    H251950   5.354   0.707  16.101
10179TIP3   OH251951   0.214   0.123   0.327
10179TIP3    H151952   0.255   0.037   0.333
10179TIP3    H251953   0.272   0.181   0.376
10180TIP3   OH251954   2.865   4.392   4.801
10180TIP3    H151955   2.856   4.431   4.888
10180TIP3    H251956   2.899   4.304   4.819
10181TIP3   OH251957   4.961   5.617   3.555
10181TIP3    H151958   4.953   5.522   3.568
10181TIP3    H251959   5.032   5.644   3.613
10182TIP3   OH251960   0.499   0.809  16.255
10182TIP3    H151961   0.450   0.728  16.242
10182TIP3    H251962   0.519   0.840  16.167
10183TIP3   OH251963   1.401   3.769   5.891
10183TIP3    H151964   1.399   3.827   5.967
10183TIP3    H251965   1.311   3.741   5.879
10184TIP3   OH251966   4.268   2.088   5.449
10184TIP3    H151967   4.356   2.123   5.439
10184TIP3    H251968   4.250   2.094   5.543
10185TIP3   OH251969   4.806   1.714  15.872
10185TIP3    H151970   4.830   1.626  15.899
10185TIP3    H251971   4.889   1.755  15.847
10186TIP3   OH251972   3.499   0.149   3.332
10186TIP3    H151973   3.511   0.233   3.289
10186TIP3    H251974   3.517   0.166   3.425
10187TIP3   OH251975   6.336   0.954   1.093
10187TIP3    H151976   6.285   1.013   1.149
10187TIP3    H251977   6.272   0.888   1.064
10188TIP3   OH251978   3.440   2.831   1.197
10188TIP3    H151979   3.378   2.819   1.269
10188TIP3    H251980   3.522   2.855   1.240
10189TIP3   OH251981   1.006   1.915  11.838
10189TIP3    H151982   1.037   2.000  11.808
10189TIP3    H251983   0.970   1.932  11.925
10190TIP3   OH251984   0.387   0.715  14.275
10190TIP3    H151985   0.298   0.734  14.304
10190TIP3    H251986   0.385   0.624  14.246
10191TIP3   OH251987   3.148   0.547   5.714
10191TIP3    H151988   3.203   0.542   5.792
10191TIP3    H251989   3.156   0.638   5.685
10192TIP3   OH251990   4.325   0.854  14.372
10192TIP3    H151991   4.345   0.793  14.443
10192TIP3    H251992   4.242   0.895  14.398
10193TIP3   OH251993   1.109   2.131  10.471
10193TIP3    H151994   1.178   2.100  10.529
10193TIP3    H251995   1.131   2.222  10.453
10194TIP3   OH251996   0.137   6.254  12.547
10194TIP3    H151997   0.228   6.236  12.523
10194TIP3    H251998   0.112   6.178  12.600
10195TIP3   OH251999   6.743   5.487   1.495
10195TIP3    H152000   6.690   5.544   1.438
10195TIP3    H252001   6.686   5.414   1.515
10196TIP3   OH252002   5.169   4.811   2.940
10196TIP3    H152003   5.130   4.826   3.026
10196TIP3    H252004   5.248   4.760   2.958
10197TIP3   OH252005   4.231   4.774  10.476
10197TIP3    H152006   4.154   4.718  10.467
10197TIP3    H252007   4.284   4.732  10.544
10198TIP3   OH252008   0.771   2.388   1.789
10198TIP3    H152009   0.844   2.374   1.850
10198TIP3    H252010   0.712   2.315   1.806
10199TIP3   OH252011   0.855   1.974   5.497
10199TIP3    H152012   0.838   1.952   5.405
10199TIP3    H252013   0.780   1.937   5.544
10200TIP3   OH252014   0.272   5.271   2.871
10200TIP3    H152015   0.228   5.261   2.786
10200TIP3    H252016   0.333   5.198   2.876
10201TIP3   OH252017   4.743   6.272   0.127
10201TIP3    H152018   4.683   6.344   0.105
10201TIP3    H252019   4.826   6.316   0.147
10202TIP3   OH252020   6.716   1.824  15.416
10202TIP3    H152021   6.714   1.915  15.443
10202TIP3    H252022   6.651   1.781  15.471
10203TIP3   OH252023   6.625   3.249   6.068
10203TIP3    H152024   6.683   3.174   6.056
10203TIP3    H252025   6.588   3.238   6.155
10204TIP3   OH252026   0.763   5.303  14.044
10204TIP3    H152027   0.841   5.280  14.094
10204TIP3    H252028   0.690   5.263  14.092
10205TIP3   OH252029   1.615   0.743  17.009
10205TIP3    H152030   1.676   0.706  16.945
10205TIP3    H252031   1.534   0.695  16.996
10206TIP3   OH252032   2.738   4.898   5.095
10206TIP3    H152033   2.822   4.851   5.100
10206TIP3    H252034   2.705   4.896   5.185
10207TIP3   OH252035   6.179   6.493   3.082
10207TIP3    H152036   6.182   6.408   3.125
10207TIP3    H252037   6.217   6.478   2.995
10208TIP3   OH252038   4.286   5.816   2.718
10208TIP3    H152039   4.381   5.820   2.724
10208TIP3    H252040   4.269   5.766   2.638
10209TIP3   OH252041   4.579   2.538  14.821
10209TIP3    H152042   4.612   2.530  14.732
10209TIP3    H252043   4.528   2.619  14.821
10210TIP3   OH252044   5.242   6.253   5.986
10210TIP3    H152045   5.228   6.341   6.022
10210TIP3    H252046   5.326   6.225   6.022
10211TIP3   OH252047   6.363   3.399  17.072
10211TIP3    H152048   6.294   3.338  17.046
10211TIP3    H252049   6.324   3.486  17.061
10212TIP3   OH252050   4.515   2.437  11.514
10212TIP3    H152051   4.504   2.519  11.563
10212TIP3    H252052   4.542   2.465  11.427
10213TIP3   OH252053   4.650   5.663  12.273
10213TIP3    H152054   4.603   5.690  12.194
10213TIP3    H252055   4.714   5.599  12.242
10214TIP3   OH252056   3.105   2.662   1.156
10214TIP3    H152057   3.112   2.619   1.241
10214TIP3    H252058   3.015   2.692   1.151
10215TIP3   OH252059   3.205   2.171   0.236
10215TIP3    H152060   3.241   2.116   0.306
10215TIP3    H252061   3.282   2.211   0.195
10216TIP3   OH252062   4.132   4.679   2.321
10216TIP3    H152063   4.068   4.685   2.251
10216TIP3    H252064   4.206   4.633   2.282
10217TIP3   OH252065   0.793   4.678  12.564
10217TIP3    H152066   0.702   4.654  12.546
10217TIP3    H252067   0.816   4.628  12.643
10218TIP3   OH252068   4.436   3.849  11.579
10218TIP3    H152069   4.410   3.929  11.625
10218TIP3    H252070   4.422   3.869  11.486
10219TIP3   OH252071   3.905   3.291  15.321
10219TIP3    H152072   3.837   3.232  15.354
10219TIP3    H252073   3.895   3.286  15.225
10220TIP3   OH252074   4.583   3.808   6.649
10220TIP3    H152075   4.600   3.731   6.703
10220TIP3    H252076   4.553   3.773   6.566
10221TIP3   OH252077   3.577   6.333   4.850
10221TIP3    H152078   3.492   6.373   4.870
10221TIP3    H252079   3.560   6.275   4.777
10222TIP3   OH252080   3.224   4.795  14.044
10222TIP3    H152081   3.304   4.744  14.030
10222TIP3    H252082   3.171   4.741  14.102
10223TIP3   OH252083   5.630   1.074   0.726
10223TIP3    H152084   5.577   1.116   0.659
10223TIP3    H252085   5.699   1.028   0.678
10224TIP3   OH252086   5.490   3.657  15.122
10224TIP3    H152087   5.578   3.640  15.155
10224TIP3    H252088   5.502   3.669  15.028
10225TIP3   OH252089   2.055   4.391  13.823
10225TIP3    H152090   2.015   4.356  13.902
10225TIP3    H252091   1.982   4.415  13.767
10226TIP3   OH252092   1.226   3.327  12.562
10226TIP3    H152093   1.154   3.307  12.622
10226TIP3    H252094   1.255   3.415  12.587
10227TIP3   OH252095   4.917   0.076   3.385
10227TIP3    H152096   4.838   0.024   3.371
10227TIP3    H252097   4.954   0.089   3.298
10228TIP3   OH252098   3.988   5.506  12.821
10228TIP3    H152099   3.928   5.567  12.864
10228TIP3    H252100   3.940   5.423  12.817
10229TIP3   OH252101   0.368   5.888  14.648
10229TIP3    H152102   0.396   5.976  14.673
10229TIP3    H252103   0.429   5.863  14.578
10230TIP3   OH252104   1.008   2.526  13.644
10230TIP3    H152105   1.053   2.451  13.681
10230TIP3    H252106   0.963   2.567  13.718
10231TIP3   OH252107   2.537   0.934   3.386
10231TIP3    H152108   2.505   1.007   3.334
10231TIP3    H252109   2.475   0.863   3.368
10232TIP3   OH252110   0.623   4.149  11.541
10232TIP3    H152111   0.637   4.235  11.502
10232TIP3    H252112   0.651   4.158  11.632
10233TIP3   OH252113   6.524   4.344  16.613
10233TIP3    H152114   6.591   4.277  16.598
10233TIP3    H252115   6.509   4.382  16.526
10234TIP3   OH252116   5.836   4.562   5.404
10234TIP3    H152117   5.828   4.591   5.313
10234TIP3    H252118   5.818   4.468   5.401
10235TIP3   OH252119   2.550   4.372  16.931
10235TIP3    H152120   2.611   4.299  16.917
10235TIP3    H252121   2.522   4.362  17.022
10236TIP3   OH252122   0.486   2.629  14.211
10236TIP3    H152123   0.511   2.631  14.303
10236TIP3    H252124   0.517   2.543  14.180
10237TIP3   OH252125   5.265   6.428  10.969
10237TIP3    H152126   5.199   6.444  11.036
10237TIP3    H252127   5.275   6.333  10.965
10238TIP3   OH252128   0.480   3.565  16.373
10238TIP3    H152129   0.437   3.516  16.443
10238TIP3    H252130   0.566   3.524  16.365
10239TIP3   OH252131   1.848   0.942  16.781
10239TIP3    H152132   1.796   1.012  16.822
10239TIP3    H252133   1.882   0.892  16.855
10240TIP3   OH252134   6.312   2.633  11.905
10240TIP3    H152135   6.378   2.575  11.866
10240TIP3    H252136   6.269   2.578  11.971
10241TIP3   OH252137   2.214   4.615  15.357
10241TIP3    H152138   2.263   4.595  15.437
10241TIP3    H252139   2.271   4.589  15.286
10242TIP3   OH252140   5.642   1.331  16.742
10242TIP3    H152141   5.675   1.405  16.793
10242TIP3    H252142   5.691   1.256  16.774
10243TIP3   OH252143   4.418   3.946  13.936
10243TIP3    H152144   4.502   3.975  13.970
10243TIP3    H252145   4.415   3.852  13.956
10244TIP3   OH252146   1.617   0.035   1.508
10244TIP3    H152147   1.683   0.102   1.529
10244TIP3    H252148   1.592   0.053   1.418
10245TIP3   OH252149   1.153   2.223  12.020
10245TIP3    H152150   1.138   2.310  12.055
10245TIP3    H252151   1.117   2.225  11.932
10246TIP3   OH252152   4.423   5.286  11.050
10246TIP3    H152153   4.403   5.307  10.958
10246TIP3    H252154   4.425   5.191  11.053
10247TIP3   OH252155   2.544   3.556   3.044
10247TIP3    H152156   2.591   3.479   3.075
10247TIP3    H252157   2.519   3.535   2.954
10248TIP3   OH252158   6.005   0.743   3.663
10248TIP3    H152159   5.990   0.731   3.569
10248TIP3    H252160   5.917   0.751   3.700
10249TIP3   OH252161   5.985   6.284   5.466
10249TIP3    H152162   6.062   6.236   5.495
10249TIP3    H252163   5.963   6.245   5.381
10250TIP3   OH252164   1.274   6.497  13.091
10250TIP3    H152165   1.298   6.440  13.163
10250TIP3    H252166   1.262   6.438  13.016
10251TIP3   OH252167   4.114   6.612  13.627
10251TIP3    H152168   4.200   6.569  13.623
10251TIP3    H252169   4.126   6.693  13.577
10252TIP3   OH252170   0.931   2.922   6.135
10252TIP3    H152171   0.985   3.002   6.135
10252TIP3    H252172   0.841   2.954   6.132
10253TIP3   OH252173   0.008   3.136   4.156
10253TIP3    H152174  -0.081   3.116   4.186
10253TIP3    H252175  -0.004   3.170   4.068
10254TIP3   OH252176   0.686   3.321   3.386
10254TIP3    H152177   0.704   3.240   3.435
10254TIP3    H252178   0.608   3.357   3.428
10255TIP3   OH252179   2.872   2.440  17.014
10255TIP3    H152180   2.917   2.524  17.028
10255TIP3    H252181   2.921   2.398  16.944
10256TIP3   OH252182   3.146   2.728   0.649
10256TIP3    H152183   3.170   2.690   0.564
10256TIP3    H252184   3.054   2.750   0.640
10257TIP3   OH252185   2.839   3.162   2.153
10257TIP3    H152186   2.916   3.111   2.179
10257TIP3    H252187   2.805   3.197   2.235
10258TIP3   OH252188   2.865   3.218   1.145
10258TIP3    H152189   2.894   3.307   1.164
10258TIP3    H252190   2.793   3.203   1.206
10259TIP3   OH252191   3.356   6.697  15.836
10259TIP3    H152192   3.442   6.658  15.826
10259TIP3    H252193   3.344   6.749  15.756
10260TIP3   OH252194   2.009   4.817   3.038
10260TIP3    H152195   1.941   4.755   3.061
10260TIP3    H252196   1.978   4.858   2.957
10261TIP3   OH252197   0.379   1.566   4.122
10261TIP3    H152198   0.318   1.544   4.052
10261TIP3    H252199   0.362   1.658   4.141
10262TIP3   OH252200   3.928   1.743  12.796
10262TIP3    H152201   3.862   1.709  12.856
10262TIP3    H252202   4.007   1.752  12.850
10263TIP3   OH252203   3.129   0.867   3.046
10263TIP3    H152204   3.177   0.919   3.110
10263TIP3    H252205   3.057   0.828   3.095
10264TIP3   OH252206   5.420   5.564   5.339
10264TIP3    H152207   5.415   5.607   5.424
10264TIP3    H252208   5.403   5.472   5.356
10265TIP3   OH252209   1.703   3.640   5.540
10265TIP3    H152210   1.715   3.546   5.533
10265TIP3    H252211   1.614   3.651   5.575
10266TIP3   OH252212   0.620   1.446   3.881
10266TIP3    H152213   0.666   1.513   3.831
10266TIP3    H252214   0.629   1.473   3.973
10267TIP3   OH252215   4.532   4.829   4.126
10267TIP3    H152216   4.579   4.860   4.049
10267TIP3    H252217   4.477   4.903   4.152
10268TIP3   OH252218   2.969   4.203  11.399
10268TIP3    H152219   3.001   4.215  11.488
10268TIP3    H252220   2.899   4.138  11.406
10269TIP3   OH252221   5.359   0.958   0.880
10269TIP3    H152222   5.434   0.985   0.827
10269TIP3    H252223   5.303   1.036   0.884
10270TIP3   OH252224   1.593   5.429   0.463
10270TIP3    H152225   1.610   5.378   0.384
10270TIP3    H252226   1.502   5.459   0.453
10271TIP3   OH252227   3.848   2.804   1.847
10271TIP3    H152228   3.857   2.848   1.932
10271TIP3    H252229   3.782   2.856   1.801
10272TIP3   OH252230   1.554   2.494  14.011
10272TIP3    H152231   1.558   2.417  13.954
10272TIP3    H252232   1.630   2.546  13.987
10273TIP3   OH252233   3.287   4.255  12.756
10273TIP3    H152234   3.375   4.264  12.718
10273TIP3    H252235   3.277   4.161  12.771
10274TIP3   OH252236   6.213   1.610   5.275
10274TIP3    H152237   6.256   1.676   5.329
10274TIP3    H252238   6.168   1.660   5.206
10275TIP3   OH252239   5.966   1.778  12.873
10275TIP3    H152240   6.000   1.836  12.804
10275TIP3    H252241   5.894   1.828  12.913
10276TIP3   OH252242   5.891   0.543   2.870
10276TIP3    H152243   5.804   0.533   2.909
10276TIP3    H252244   5.889   0.487   2.792
10277TIP3   OH252245   2.990   3.741   2.275
10277TIP3    H152246   2.959   3.829   2.255
10277TIP3    H252247   2.939   3.684   2.218
10278TIP3   OH252248   1.359   2.607   5.772
10278TIP3    H152249   1.407   2.681   5.735
10278TIP3    H252250   1.285   2.647   5.819
10279TIP3   OH252251   0.296   2.567  13.648
10279TIP3    H152252   0.375   2.618  13.628
10279TIP3    H252253   0.254   2.555  13.562
10280TIP3   OH252254   0.781   6.382   1.437
10280TIP3    H152255   0.843   6.311   1.449
10280TIP3    H252256   0.834   6.458   1.414
10281TIP3   OH252257   0.667   2.532  11.462
10281TIP3    H152258   0.637   2.448  11.497
10281TIP3    H252259   0.598   2.557  11.401
10282TIP3   OH252260   4.357   4.131  15.051
10282TIP3    H152261   4.426   4.194  15.073
10282TIP3    H252262   4.352   4.074  15.128
10283TIP3   OH252263   2.304   5.218   0.931
10283TIP3    H152264   2.307   5.313   0.931
10283TIP3    H252265   2.396   5.191   0.922
10284TIP3   OH252266   6.565   5.931   0.604
10284TIP3    H152267   6.470   5.922   0.591
10284TIP3    H252268   6.586   6.017   0.568
10285TIP3   OH252269   1.641   4.224  15.639
10285TIP3    H152270   1.720   4.173  15.658
10285TIP3    H252271   1.619   4.267  15.721
10286TIP3   OH252272   2.413   5.878   2.577
10286TIP3    H152273   2.469   5.947   2.541
10286TIP3    H252274   2.456   5.796   2.552
10287TIP3   OH252275   1.267   0.832   2.874
10287TIP3    H152276   1.193   0.827   2.813
10287TIP3    H252277   1.247   0.766   2.940
10288TIP3   OH252278   1.218   5.493   3.018
10288TIP3    H152279   1.155   5.563   3.035
10288TIP3    H252280   1.262   5.480   3.101
10289TIP3   OH252281   4.516   5.214   0.044
10289TIP3    H152282   4.467   5.216   0.126
10289TIP3    H252283   4.568   5.294   0.045
10290TIP3   OH252284   3.173   3.453  15.229
10290TIP3    H152285   3.127   3.457  15.145
10290TIP3    H252286   3.105   3.470  15.294
10291TIP3   OH252287   0.844   1.509   6.110
10291TIP3    H152288   0.864   1.494   6.202
10291TIP3    H252289   0.864   1.602   6.095
10292TIP3   OH252290   6.060   2.694  14.160
10292TIP3    H152291   6.064   2.691  14.256
10292TIP3    H252292   6.098   2.778  14.137
10293TIP3   OH252293   0.791   3.399  11.246
10293TIP3    H152294   0.727   3.335  11.277
10293TIP3    H252295   0.739   3.476  11.224
10294TIP3   OH252296   4.834   0.499   3.947
10294TIP3    H152297   4.893   0.479   3.874
10294TIP3    H252298   4.842   0.424   4.005
10295TIP3   OH252299   0.214   5.584  16.345
10295TIP3    H152300   0.297   5.564  16.386
10295TIP3    H252301   0.187   5.503  16.303
10296TIP3   OH252302   1.698   0.916   0.024
10296TIP3    H152303   1.605   0.927   0.003
10296TIP3    H252304   1.708   0.821   0.038
10297TIP3   OH252305   0.790   0.398   3.919
10297TIP3    H152306   0.806   0.332   3.987
10297TIP3    H252307   0.695   0.404   3.913
10298TIP3   OH252308   3.730   0.902  16.331
10298TIP3    H152309   3.634   0.898  16.337
10298TIP3    H252310   3.753   0.833  16.269
10299TIP3   OH252311   2.797   3.786  11.438
10299TIP3    H152312   2.740   3.710  11.429
10299TIP3    H252313   2.874   3.754  11.485
10300TIP3   OH252314   0.286   1.055   0.699
10300TIP3    H152315   0.366   1.075   0.651
10300TIP3    H252316   0.244   0.986   0.647
10301TIP3   OH252317   4.455   0.188   4.119
10301TIP3    H152318   4.446   0.113   4.060
10301TIP3    H252319   4.532   0.168   4.172
10302TIP3   OH252320   1.307   4.601   2.120
10302TIP3    H152321   1.305   4.679   2.065
10302TIP3    H252322   1.226   4.555   2.099
10303TIP3   OH252323   2.536   0.583   0.527
10303TIP3    H152324   2.472   0.636   0.478
10303TIP3    H252325   2.570   0.522   0.462
10304TIP3   OH252326   3.059   2.208  10.465
10304TIP3    H152327   3.115   2.285  10.460
10304TIP3    H252328   2.998   2.228  10.536
10305TIP3   OH252329   5.727   0.304   4.082
10305TIP3    H152330   5.805   0.257   4.110
10305TIP3    H252331   5.700   0.260   4.001
10306TIP3   OH252332   0.129   1.241   5.084
10306TIP3    H152333   0.086   1.310   5.033
10306TIP3    H252334   0.194   1.204   5.024
10307TIP3   OH252335   2.449   5.010   5.060
10307TIP3    H152336   2.451   5.074   5.132
10307TIP3    H252337   2.532   5.024   5.014
10308TIP3   OH252338   6.786   1.206  11.842
10308TIP3    H152339   6.799   1.117  11.810
10308TIP3    H252340   6.744   1.195  11.927
10309TIP3   OH252341   2.045   3.634  14.196
10309TIP3    H152342   1.975   3.570  14.187
10309TIP3    H252343   2.000   3.717  14.213
10310TIP3   OH252344   3.586   0.716   2.002
10310TIP3    H152345   3.493   0.733   2.016
10310TIP3    H252346   3.603   0.750   1.914
10311TIP3   OH252347   6.771   4.060   5.642
10311TIP3    H152348   6.764   4.126   5.573
10311TIP3    H252349   6.842   4.004   5.614
10312TIP3   OH252350   1.428   6.730  13.410
10312TIP3    H152351   1.503   6.676  13.432
10312TIP3    H252352   1.464   6.818  13.397
10313TIP3   OH252353   4.065   2.411  17.090
10313TIP3    H152354   3.973   2.422  17.113
10313TIP3    H252355   4.108   2.487  17.130
10314TIP3   OH252356   5.226   4.500   3.938
10314TIP3    H152357   5.166   4.435   3.903
10314TIP3    H252358   5.182   4.584   3.926
10315TIP3   OH252359   3.682   5.710   5.262
10315TIP3    H152360   3.741   5.698   5.187
10315TIP3    H252361   3.705   5.796   5.296
10316TIP3   OH252362   1.869   6.277   3.209
10316TIP3    H152363   1.931   6.205   3.225
10316TIP3    H252364   1.879   6.297   3.116
10317TIP3   OH252365   0.396   5.854   2.955
10317TIP3    H152366   0.374   5.822   2.867
10317TIP3    H252367   0.344   5.934   2.965
10318TIP3   OH252368   4.480   5.127   1.089
10318TIP3    H152369   4.505   5.121   0.997
10318TIP3    H252370   4.439   5.214   1.097
10319TIP3   OH252371   2.766   1.071  14.750
10319TIP3    H152372   2.853   1.071  14.790
10319TIP3    H252373   2.777   1.121  14.669
10320TIP3   OH252374   1.267   6.631  14.823
10320TIP3    H152375   1.279   6.724  14.844
10320TIP3    H252376   1.179   6.611  14.855
10321TIP3   OH252377   0.670   2.359  15.481
10321TIP3    H152378   0.756   2.367  15.521
10321TIP3    H252379   0.647   2.449  15.455
10322TIP3   OH252380   5.755   0.129   0.154
10322TIP3    H152381   5.792   0.045   0.182
10322TIP3    H252382   5.661   0.113   0.146
10323TIP3   OH252383   1.003   3.006   2.091
10323TIP3    H152384   0.924   3.009   2.145
10323TIP3    H252385   0.983   2.942   2.022
10324TIP3   OH252386   0.088   2.253   3.786
10324TIP3    H152387   0.168   2.224   3.743
10324TIP3    H252388   0.115   2.323   3.845
10325TIP3   OH252389   6.248   1.771  13.475
10325TIP3    H152390   6.322   1.810  13.429
10325TIP3    H252391   6.204   1.845  13.518
10326TIP3   OH252392   5.413   3.760   3.139
10326TIP3    H152393   5.441   3.852   3.134
10326TIP3    H252394   5.404   3.744   3.233
10327TIP3   OH252395   2.752   2.206  13.580
10327TIP3    H152396   2.815   2.163  13.637
10327TIP3    H252397   2.793   2.204  13.493
10328TIP3   OH252398   6.667   3.310  11.670
10328TIP3    H152399   6.630   3.227  11.702
10328TIP3    H252400   6.596   3.352  11.623
10329TIP3   OH252401   5.035   0.557  14.056
10329TIP3    H152402   5.067   0.585  14.142
10329TIP3    H252403   4.984   0.478  14.074
10330TIP3   OH252404   1.691   5.446   2.481
10330TIP3    H152405   1.666   5.459   2.389
10330TIP3    H252406   1.723   5.355   2.485
10331TIP3   OH252407   1.206   5.021   5.351
10331TIP3    H152408   1.130   4.966   5.333
10331TIP3    H252409   1.280   4.960   5.346
10332TIP3   OH252410   6.511   3.346   2.566
10332TIP3    H152411   6.430   3.296   2.579
10332TIP3    H252412   6.485   3.437   2.578
10333TIP3   OH252413   1.577   0.692  11.749
10333TIP3    H152414   1.562   0.784  11.730
10333TIP3    H252415   1.558   0.683  11.842
10334TIP3   OH252416   3.573   2.028  13.504
10334TIP3    H152417   3.642   2.087  13.533
10334TIP3    H252418   3.596   2.008  13.413
10335TIP3   OH252419   1.742   5.893  11.418
10335TIP3    H152420   1.735   5.814  11.365
10335TIP3    H252421   1.828   5.886  11.461
10336TIP3   OH252422   1.285   2.685   0.175
10336TIP3    H152423   1.336   2.628   0.232
10336TIP3    H252424   1.334   2.686   0.093
10337TIP3   OH252425   4.475   0.543  13.992
10337TIP3    H152426   4.458   0.480  14.062
10337TIP3    H252427   4.434   0.505  13.914
10338TIP3   OH252428   1.240   5.356  13.899
10338TIP3    H152429   1.144   5.356  13.900
10338TIP3    H252430   1.264   5.406  13.821
10339TIP3   OH252431   0.613   6.262   0.410
10339TIP3    H152432   0.675   6.219   0.351
10339TIP3    H252433   0.557   6.191   0.442
10340TIP3   OH252434   3.848   5.408   5.392
10340TIP3    H152435   3.772   5.392   5.335
10340TIP3    H252436   3.813   5.402   5.481
10341TIP3   OH252437   4.742   6.343   6.097
10341TIP3    H152438   4.678   6.408   6.127
10341TIP3    H252439   4.699   6.259   6.111
10342TIP3   OH252440   5.058   1.831   4.314
10342TIP3    H152441   4.997   1.805   4.383
10342TIP3    H252442   5.081   1.750   4.270
10343TIP3   OH252443   1.260   1.144  12.803
10343TIP3    H152444   1.218   1.117  12.885
10343TIP3    H252445   1.322   1.074  12.783
10344TIP3   OH252446   5.372   2.846  12.527
10344TIP3    H152447   5.317   2.885  12.595
10344TIP3    H252448   5.407   2.767  12.566
10345TIP3   OH252449   1.194   5.599   2.721
10345TIP3    H152450   1.201   5.507   2.748
10345TIP3    H252451   1.247   5.647   2.785
10346TIP3   OH252452   5.901   1.985  14.150
10346TIP3    H152453   5.926   2.046  14.219
10346TIP3    H252454   5.848   1.919  14.194
10347TIP3   OH252455   6.470   3.208   1.013
10347TIP3    H152456   6.396   3.240   0.962
10347TIP3    H252457   6.448   3.117   1.033
10348TIP3   OH252458   4.490   5.617  14.007
10348TIP3    H152459   4.516   5.705  14.034
10348TIP3    H252460   4.496   5.564  14.086
10349TIP3   OH252461   4.245   0.130  12.083
10349TIP3    H152462   4.239   0.069  12.010
10349TIP3    H252463   4.338   0.154  12.088
10350TIP3   OH252464   3.598   3.475   5.646
10350TIP3    H152465   3.657   3.413   5.604
10350TIP3    H252466   3.599   3.450   5.738
10351TIP3   OH252467   1.132   5.293   3.255
10351TIP3    H152468   1.113   5.339   3.337
10351TIP3    H252469   1.227   5.293   3.249
10352TIP3   OH252470   2.977   6.138  11.255
10352TIP3    H152471   3.073   6.132  11.259
10352TIP3    H252472   2.957   6.140  11.162
10353TIP3   OH252473   3.968   5.883  16.010
10353TIP3    H152474   3.899   5.942  16.041
10353TIP3    H252475   4.002   5.924  15.931
10354TIP3   OH252476   1.731   1.159   0.217
10354TIP3    H152477   1.683   1.112   0.149
10354TIP3    H252478   1.716   1.251   0.198
10355TIP3   OH252479   3.052   1.058   1.488
10355TIP3    H152480   3.022   1.148   1.492
10355TIP3    H252481   2.996   1.016   1.423
10356TIP3   OH252482   6.756   5.354  14.349
10356TIP3    H152483   6.773   5.268  14.388
10356TIP3    H252484   6.664   5.372  14.371
10357TIP3   OH252485   2.738   3.324   4.424
10357TIP3    H152486   2.662   3.326   4.366
10357TIP3    H252487   2.710   3.273   4.500
10358TIP3   OH252488   5.238   6.044  13.844
10358TIP3    H152489   5.261   6.136  13.842
10358TIP3    H252490   5.216   6.022  13.753
10359TIP3   OH252491   3.714   0.427   4.989
10359TIP3    H152492   3.636   0.379   4.961
10359TIP3    H252493   3.758   0.449   4.907
10360TIP3   OH252494   2.310   6.566   0.163
10360TIP3    H152495   2.356   6.529   0.238
10360TIP3    H252496   2.219   6.535   0.173
10361TIP3   OH252497   5.540   3.079   6.591
10361TIP3    H152498   5.505   3.031   6.516
10361TIP3    H252499   5.635   3.078   6.578
10362TIP3   OH252500   5.730   1.977   3.510
10362TIP3    H152501   5.700   1.891   3.480
10362TIP3    H252502   5.654   2.016   3.552
10363TIP3   OH252503   1.840   0.659  11.748
10363TIP3    H152504   1.867   0.668  11.839
10363TIP3    H252505   1.745   0.652  11.751
10364TIP3   OH252506   1.902   2.462  17.056
10364TIP3    H152507   1.964   2.396  17.087
10364TIP3    H252508   1.955   2.540  17.041
10365TIP3   OH252509   2.965   4.699  13.203
10365TIP3    H152510   2.972   4.607  13.178
10365TIP3    H252511   3.010   4.747  13.133
10366TIP3   OH252512   2.015   6.657  14.359
10366TIP3    H152513   1.953   6.677  14.429
10366TIP3    H252514   1.961   6.649  14.280
10367TIP3   OH252515   0.024   2.217   2.624
10367TIP3    H152516   0.022   2.141   2.566
10367TIP3    H252517   0.108   2.210   2.670
10368TIP3   OH252518   2.754   0.844  15.581
10368TIP3    H152519   2.777   0.851  15.674
10368TIP3    H252520   2.836   0.823  15.537
10369TIP3   OH252521   5.370   3.319  16.979
10369TIP3    H152522   5.277   3.339  16.984
10369TIP3    H252523   5.414   3.402  16.997
10370TIP3   OH252524   1.037   3.088  15.353
10370TIP3    H152525   1.097   3.027  15.309
10370TIP3    H252526   1.026   3.159  15.289
10371TIP3   OH252527   1.800   2.537   4.585
10371TIP3    H152528   1.892   2.563   4.581
10371TIP3    H252529   1.771   2.565   4.672
10372TIP3   OH252530   5.235   0.604   2.487
10372TIP3    H152531   5.177   0.680   2.483
10372TIP3    H252532   5.196   0.547   2.554
10373TIP3   OH252533   0.699   1.694  15.505
10373TIP3    H152534   0.767   1.718  15.441
10373TIP3    H252535   0.655   1.777  15.524
10374TIP3   OH252536   4.267   2.138   4.929
10374TIP3    H152537   4.251   2.089   5.010
10374TIP3    H252538   4.301   2.072   4.868
10375TIP3   OH252539   5.766   1.647   4.037
10375TIP3    H152540   5.673   1.656   4.055
10375TIP3    H252541   5.805   1.622   4.120
10376TIP3   OH252542   4.448   6.622  11.917
10376TIP3    H152543   4.470   6.715  11.909
10376TIP3    H252544   4.482   6.597  12.003
10377TIP3   OH252545   4.815   4.818  13.739
10377TIP3    H152546   4.791   4.895  13.790
10377TIP3    H252547   4.910   4.816  13.743
10378TIP3   OH252548   6.048   0.428   6.024
10378TIP3    H152549   6.110   0.358   6.046
10378TIP3    H252550   6.101   0.508   6.028
10379TIP3   OH252551   0.098   5.252   4.090
10379TIP3    H152552   0.147   5.331   4.113
10379TIP3    H252553   0.007   5.272   4.113
10380TIP3   OH252554   1.325   0.758  12.152
10380TIP3    H152555   1.282   0.824  12.098
10380TIP3    H252556   1.381   0.808  12.211
10381TIP3   OH252557   5.672   6.390   5.416
10381TIP3    H152558   5.595   6.373   5.362
10381TIP3    H252559   5.676   6.315   5.475
10382TIP3   OH252560   3.778   5.351   0.308
10382TIP3    H152561   3.703   5.395   0.268
10382TIP3    H252562   3.818   5.418   0.364
10383TIP3   OH252563   4.476   4.043  17.007
10383TIP3    H152564   4.388   4.070  16.982
10383TIP3    H252565   4.463   3.976  17.074
10384TIP3   OH252566   0.152   1.998  14.871
10384TIP3    H152567   0.065   1.982  14.835
10384TIP3    H252568   0.161   2.093  14.869
10385TIP3   OH252569   1.051   5.294  11.236
10385TIP3    H152570   1.056   5.368  11.175
10385TIP3    H252571   0.960   5.293  11.265
10386TIP3   OH252572   4.598   5.949   5.338
10386TIP3    H152573   4.683   5.973   5.302
10386TIP3    H252574   4.618   5.886   5.407
10387TIP3   OH252575   3.620   6.600   0.216
10387TIP3    H152576   3.704   6.592   0.262
10387TIP3    H252577   3.645   6.604   0.123
10388TIP3   OH252578   0.373   0.332   1.181
10388TIP3    H152579   0.451   0.301   1.226
10388TIP3    H252580   0.405   0.370   1.099
10389TIP3   OH252581   5.772   0.106   2.909
10389TIP3    H152582   5.704   0.144   2.965
10389TIP3    H252583   5.852   0.154   2.933
10390TIP3   OH252584   2.793   1.752  15.616
10390TIP3    H152585   2.774   1.734  15.708
10390TIP3    H252586   2.852   1.827  15.618
10391TIP3   OH252587   5.039   4.112   5.287
10391TIP3    H152588   5.023   4.168   5.210
10391TIP3    H252589   5.012   4.166   5.361
10392TIP3   OH252590   0.615   5.203  11.196
10392TIP3    H152591   0.686   5.221  11.258
10392TIP3    H252592   0.659   5.186  11.113
10393TIP3   OH252593   1.821   4.255  13.245
10393TIP3    H152594   1.847   4.327  13.188
10393TIP3    H252595   1.828   4.291  13.334
10394TIP3   OH252596   4.163   3.121   0.710
10394TIP3    H152597   4.070   3.135   0.724
10394TIP3    H252598   4.202   3.208   0.711
10395TIP3   OH252599   2.207   0.947  12.160
10395TIP3    H152600   2.191   1.038  12.186
10395TIP3    H252601   2.140   0.897  12.206
10396TIP3   OH252602   1.357   1.514  13.011
10396TIP3    H152603   1.267   1.480  13.014
10396TIP3    H252604   1.407   1.443  12.970
10397TIP3   OH252605   5.767   2.326  15.999
10397TIP3    H152606   5.702   2.286  15.941
10397TIP3    H252607   5.829   2.255  16.016
10398TIP3   OH252608   0.219   2.887  14.247
10398TIP3    H152609   0.267   2.927  14.320
10398TIP3    H252610   0.244   2.938  14.171
10399TIP3   OH252611   0.900   2.347   1.520
10399TIP3    H152612   0.948   2.420   1.559
10399TIP3    H252613   0.895   2.281   1.589
10400TIP3   OH252614   5.162   5.781   0.758
10400TIP3    H152615   5.224   5.784   0.831
10400TIP3    H252616   5.185   5.857   0.705
10401TIP3   OH252617   3.290   6.231   3.045
10401TIP3    H152618   3.274   6.301   2.982
10401TIP3    H252619   3.380   6.203   3.028
10402TIP3   OH252620   6.750   0.486   3.292
10402TIP3    H152621   6.764   0.564   3.344
10402TIP3    H252622   6.680   0.438   3.338
10403TIP3   OH252623   1.214   3.277  15.091
10403TIP3    H152624   1.278   3.278  15.019
10403TIP3    H252625   1.129   3.288  15.048
10404TIP3   OH252626   1.588   0.900   1.187
10404TIP3    H152627   1.561   0.865   1.272
10404TIP3    H252628   1.588   0.824   1.129
10405TIP3   OH252629   6.339   5.182   5.703
10405TIP3    H152630   6.419   5.220   5.738
10405TIP3    H252631   6.352   5.087   5.712
10406TIP3   OH252632   4.343   6.333  16.325
10406TIP3    H152633   4.292   6.414  16.327
10406TIP3    H252634   4.294   6.275  16.268
10407TIP3   OH252635   0.599   5.080   1.233
10407TIP3    H152636   0.547   5.158   1.252
10407TIP3    H252637   0.587   5.067   1.139
10408TIP3   OH252638   1.407   5.976  13.381
10408TIP3    H152639   1.314   5.960  13.368
10408TIP3    H252640   1.450   5.931  13.308
10409TIP3   OH252641   5.337   1.935   2.735
10409TIP3    H152642   5.320   1.870   2.804
10409TIP3    H252643   5.270   2.002   2.748
10410TIP3   OH252644   1.034   5.555   0.960
10410TIP3    H152645   1.025   5.504   0.880
10410TIP3    H252646   1.124   5.537   0.990
10411TIP3   OH252647   1.965   1.485   6.010
10411TIP3    H152648   1.971   1.403   6.059
10411TIP3    H252649   1.990   1.461   5.921
10412TIP3   OH252650   5.316   6.651  14.600
10412TIP3    H152651   5.346   6.588  14.666
10412TIP3    H252652   5.338   6.610  14.517
10413TIP3   OH252653   3.876   4.926  14.541
10413TIP3    H152654   3.850   4.950  14.452
10413TIP3    H252655   3.794   4.910  14.587
10414TIP3   OH252656   3.528   0.498  13.428
10414TIP3    H152657   3.499   0.413  13.462
10414TIP3    H252658   3.590   0.530  13.494
10415TIP3   OH252659   1.653   4.872   3.143
10415TIP3    H152660   1.713   4.938   3.178
10415TIP3    H252661   1.696   4.788   3.162
10416TIP3   OH252662   1.549   1.548  16.160
10416TIP3    H152663   1.642   1.545  16.137
10416TIP3    H252664   1.506   1.495  16.092
10417TIP3   OH252665   3.041   3.992   0.376
10417TIP3    H152666   3.031   3.899   0.395
10417TIP3    H252667   3.125   3.999   0.331
10418TIP3   OH252668   1.143   4.919   4.032
10418TIP3    H152669   1.231   4.882   4.027
10418TIP3    H252670   1.131   4.940   4.125
10419TIP3   OH252671   3.026   0.278   4.139
10419TIP3    H152672   3.005   0.196   4.183
10419TIP3    H252673   2.941   0.314   4.115
10420TIP3   OH252674   1.082   2.479  12.084
10420TIP3    H152675   1.088   2.530  12.004
10420TIP3    H252676   1.081   2.544  12.154
10421TIP3   OH252677   5.682   0.404  11.076
10421TIP3    H152678   5.612   0.378  11.137
10421TIP3    H252679   5.648   0.381  10.989
10422TIP3   OH252680   4.851   0.974   3.401
10422TIP3    H152681   4.823   0.899   3.349
10422TIP3    H252682   4.836   0.947   3.492
10423TIP3   OH252683   5.678   0.980  12.230
10423TIP3    H152684   5.657   1.048  12.167
10423TIP3    H252685   5.599   0.925  12.234
10424TIP3   OH252686   4.843   0.721  16.094
10424TIP3    H152687   4.934   0.747  16.097
10424TIP3    H252688   4.803   0.763  16.171
10425TIP3   OH252689   5.986   1.260   1.386
10425TIP3    H152690   6.004   1.321   1.314
10425TIP3    H252691   5.982   1.316   1.464
10426TIP3   OH252692   1.084   3.204   3.219
10426TIP3    H152693   1.109   3.115   3.192
10426TIP3    H252694   1.090   3.202   3.314
10427TIP3   OH252695   6.085   4.605  13.318
10427TIP3    H152696   6.117   4.539  13.380
10427TIP3    H252697   6.014   4.562  13.271
10428TIP3   OH252698   6.687   6.021  16.948
10428TIP3    H152699   6.691   5.978  16.862
10428TIP3    H252700   6.728   5.958  17.008
10429TIP3   OH252701   5.149   1.955  11.678
10429TIP3    H152702   5.226   1.899  11.687
10429TIP3    H252703   5.123   1.946  11.586
10430TIP3   OH252704   3.023   4.098  14.175
10430TIP3    H152705   3.085   4.118  14.245
10430TIP3    H252706   3.028   4.174  14.117
10431TIP3   OH252707   6.748   4.131  16.643
10431TIP3    H152708   6.799   4.062  16.684
10431TIP3    H252709   6.724   4.189  16.715
10432TIP3   OH252710   2.773   6.341  12.977
10432TIP3    H152711   2.687   6.335  12.934
10432TIP3    H252712   2.834   6.300  12.915
10433TIP3   OH252713   2.130   2.409  13.248
10433TIP3    H152714   2.040   2.396  13.278
10433TIP3    H252715   2.170   2.463  13.316
10434TIP3   OH252716   2.385   3.393   3.379
10434TIP3    H152717   2.367   3.330   3.448
10434TIP3    H252718   2.324   3.465   3.396
10435TIP3   OH252719   5.244   2.640  11.364
10435TIP3    H152720   5.186   2.615  11.292
10435TIP3    H252721   5.294   2.714  11.331
10436TIP3   OH252722   0.321   3.078  12.705
10436TIP3    H152723   0.391   3.020  12.675
10436TIP3    H252724   0.304   3.136  12.631
10437TIP3   OH252725   2.932   4.683  11.991
10437TIP3    H152726   2.967   4.683  11.902
10437TIP3    H252727   2.911   4.591  12.009
10438TIP3   OH252728   1.566   3.172   4.021
10438TIP3    H152729   1.557   3.146   3.929
10438TIP3    H252730   1.576   3.089   4.068
10439TIP3   OH252731   3.702   0.082   4.912
10439TIP3    H152732   3.705   0.127   4.997
10439TIP3    H252733   3.693   0.152   4.848
10440TIP3   OH252734   6.514   3.499   4.239
10440TIP3    H152735   6.420   3.478   4.237
10440TIP3    H252736   6.547   3.457   4.318
10441TIP3   OH252737   5.433   0.345  11.170
10441TIP3    H152738   5.368   0.278  11.148
10441TIP3    H252739   5.381   0.419  11.201
10442TIP3   OH252740   2.499   4.888  17.069
10442TIP3    H152741   2.591   4.905  17.049
10442TIP3    H252742   2.500   4.808  17.120
10443TIP3   OH252743   1.464   3.794   5.615
10443TIP3    H152744   1.370   3.780   5.606
10443TIP3    H252745   1.473   3.849   5.694
10444TIP3   OH252746   6.639   3.596  14.557
10444TIP3    H152747   6.592   3.515  14.538
10444TIP3    H252748   6.578   3.666  14.531
10445TIP3   OH252749   2.920   0.745  11.963
10445TIP3    H152750   2.892   0.804  12.033
10445TIP3    H252751   3.001   0.784  11.929
10446TIP3   OH252752   4.478   4.469   3.230
10446TIP3    H152753   4.574   4.471   3.224
10446TIP3    H252754   4.459   4.387   3.276
10447TIP3   OH252755   3.700   6.097  14.997
10447TIP3    H152756   3.627   6.074  15.055
10447TIP3    H252757   3.666   6.081  14.909
10448TIP3   OH252758   0.329   0.310   1.757
10448TIP3    H152759   0.277   0.367   1.700
10448TIP3    H252760   0.419   0.339   1.743
10449TIP3   OH252761   5.103   4.760  13.723
10449TIP3    H152762   5.196   4.758  13.701
10449TIP3    H252763   5.064   4.694  13.666
10450TIP3   OH252764   4.637   5.464   5.388
10450TIP3    H152765   4.544   5.476   5.371
10450TIP3    H252766   4.679   5.536   5.342
10451TIP3   OH252767   6.579   0.893   3.821
10451TIP3    H152768   6.528   0.850   3.890
10451TIP3    H252769   6.652   0.934   3.868
10452TIP3   OH252770   5.353   3.207   6.382
10452TIP3    H152771   5.332   3.148   6.455
10452TIP3    H252772   5.269   3.243   6.355
10453TIP3   OH252773   5.731   3.479  16.369
10453TIP3    H152774   5.752   3.521  16.453
10453TIP3    H252775   5.778   3.396  16.372
10454TIP3   OH252776   5.750   5.949   3.616
10454TIP3    H152777   5.668   5.999   3.617
10454TIP3    H252778   5.779   5.951   3.707
10455TIP3   OH252779   5.824   0.605  13.995
10455TIP3    H152780   5.789   0.521  14.024
10455TIP3    H252781   5.898   0.622  14.053
10456TIP3   OH252782   3.477   2.352  15.743
10456TIP3    H152783   3.555   2.336  15.690
10456TIP3    H252784   3.432   2.424  15.698
10457TIP3   OH252785   3.444   5.640   3.092
10457TIP3    H152786   3.400   5.666   3.011
10457TIP3    H252787   3.533   5.618   3.064
10458TIP3   OH252788   6.200   3.113  16.621
10458TIP3    H152789   6.125   3.072  16.664
10458TIP3    H252790   6.177   3.116  16.528
10459TIP3   OH252791   4.058   5.761  12.681
10459TIP3    H152792   4.070   5.705  12.758
10459TIP3    H252793   4.120   5.833  12.693
10460TIP3   OH252794   1.801   3.296  15.538
10460TIP3    H152795   1.777   3.341  15.457
10460TIP3    H252796   1.731   3.318  15.600
10461TIP3   OH252797   4.263   6.763  17.105
10461TIP3    H152798   4.293   6.702  17.173
10461TIP3    H252799   4.179   6.727  17.076
10462TIP3   OH252800   6.678   0.167  15.385
10462TIP3    H152801   6.657   0.243  15.331
10462TIP3    H252802   6.770   0.180  15.410
10463TIP3   OH252803   6.347   6.024   4.227
10463TIP3    H152804   6.376   6.064   4.309
10463TIP3    H252805   6.257   6.054   4.216
10464TIP3   OH252806   1.713   6.291  12.446
10464TIP3    H152807   1.758   6.330  12.521
10464TIP3    H252808   1.694   6.364  12.388
10465TIP3   OH252809   6.650   0.158   3.002
10465TIP3    H152810   6.711   0.168   2.929
10465TIP3    H252811   6.583   0.098   2.970
10466TIP3   OH252812   6.671   0.666   5.918
10466TIP3    H152813   6.685   0.573   5.933
10466TIP3    H252814   6.578   0.674   5.900
10467TIP3   OH252815   2.138   5.708  12.177
10467TIP3    H152816   2.107   5.641  12.237
10467TIP3    H252817   2.222   5.676  12.146
10468TIP3   OH252818   6.234   3.449   4.225
10468TIP3    H152819   6.167   3.502   4.269
10468TIP3    H252820   6.196   3.429   4.139
10469TIP3   OH252821   2.560   3.784  11.967
10469TIP3    H152822   2.466   3.786  11.983
10469TIP3    H252823   2.571   3.818  11.878
10470TIP3   OH252824   1.852   0.995   5.729
10470TIP3    H152825   1.921   0.937   5.762
10470TIP3    H252826   1.897   1.053   5.668
10471TIP3   OH252827   2.039   3.255   1.498
10471TIP3    H152828   2.134   3.260   1.509
10471TIP3    H252829   2.026   3.252   1.403
10472TIP3   OH252830   3.857   5.000  15.319
10472TIP3    H152831   3.925   5.067  15.325
10472TIP3    H252832   3.865   4.951  15.401
10473TIP3   OH252833   1.976   3.224  11.976
10473TIP3    H152834   1.919   3.169  12.030
10473TIP3    H252835   2.049   3.167  11.953
10474TIP3   OH252836   3.961   1.188   3.405
10474TIP3    H152837   3.964   1.115   3.344
10474TIP3    H252838   4.037   1.242   3.381
10475TIP3   OH252839   5.647   0.497   0.911
10475TIP3    H152840   5.583   0.507   0.982
10475TIP3    H252841   5.731   0.494   0.956
10476TIP3   OH252842   5.187   6.178  17.035
10476TIP3    H152843   5.119   6.113  17.052
10476TIP3    H252844   5.269   6.132  17.048
10477TIP3   OH252845   3.036   4.208   2.346
10477TIP3    H152846   2.979   4.284   2.353
10477TIP3    H252847   2.999   4.144   2.408
10478TIP3   OH252848   2.222   4.430  14.170
10478TIP3    H152849   2.306   4.460  14.204
10478TIP3    H252850   2.159   4.498  14.195
10479TIP3   OH252851   5.862   6.246   1.660
10479TIP3    H152852   5.794   6.279   1.602
10479TIP3    H252853   5.912   6.324   1.685
10480TIP3   OH252854   4.904   1.248   2.053
10480TIP3    H152855   4.923   1.178   2.115
10480TIP3    H252856   4.971   1.314   2.069
10481TIP3   OH252857   6.653   0.511   2.780
10481TIP3    H152858   6.639   0.562   2.860
10481TIP3    H252859   6.568   0.513   2.736
10482TIP3   OH252860   3.782   6.315   2.762
10482TIP3    H152861   3.702   6.263   2.754
10482TIP3    H252862   3.774   6.383   2.695
10483TIP3   OH252863   4.250   5.344  15.840
10483TIP3    H152864   4.176   5.338  15.900
10483TIP3    H252865   4.301   5.265  15.856
10484TIP3   OH252866   0.537   4.493  15.786
10484TIP3    H152867   0.475   4.421  15.772
10484TIP3    H252868   0.605   4.455  15.842
10485TIP3   OH252869   6.083   3.728  12.288
10485TIP3    H152870   6.103   3.743  12.381
10485TIP3    H252871   6.169   3.728  12.245
10486TIP3   OH252872   6.239   6.509   5.489
10486TIP3    H152873   6.162   6.524   5.433
10486TIP3    H252874   6.295   6.452   5.436
10487TIP3   OH252875   2.360   1.370  13.075
10487TIP3    H152876   2.276   1.325  13.063
10487TIP3    H252877   2.423   1.317  13.026
10488TIP3   OH252878   2.411   1.817   1.274
10488TIP3    H152879   2.491   1.775   1.239
10488TIP3    H252880   2.442   1.899   1.312
10489TIP3   OH252881   3.845   1.784   0.102
10489TIP3    H152882   3.803   1.777   0.016
10489TIP3    H252883   3.927   1.736   0.093
10490TIP3   OH252884   2.447   6.225  15.976
10490TIP3    H152885   2.454   6.318  15.954
10490TIP3    H252886   2.437   6.181  15.892
10491TIP3   OH252887   2.798   6.412  15.456
10491TIP3    H152888   2.702   6.418  15.456
10491TIP3    H252889   2.822   6.420  15.363
10492TIP3   OH252890   3.839   2.562   6.498
10492TIP3    H152891   3.760   2.603   6.464
10492TIP3    H252892   3.911   2.617   6.466
10493TIP3   OH252893   0.786   5.948  16.003
10493TIP3    H152894   0.795   5.939  16.098
10493TIP3    H252895   0.696   5.921  15.985
10494TIP3   OH252896   3.152   0.754  10.311
10494TIP3    H152897   3.125   0.832  10.262
10494TIP3    H252898   3.129   0.773  10.402
10495TIP3   OH252899   0.638   5.239  14.816
10495TIP3    H152900   0.574   5.283  14.871
10495TIP3    H252901   0.720   5.243  14.866
10496TIP3   OH252902   6.396   0.562  16.874
10496TIP3    H152903   6.415   0.539  16.965
10496TIP3    H252904   6.334   0.495  16.844
10497TIP3   OH252905   6.542   3.058  12.887
10497TIP3    H152906   6.608   2.989  12.878
10497TIP3    H252907   6.567   3.104  12.967
10498TIP3   OH252908   2.312   3.816   5.362
10498TIP3    H152909   2.348   3.755   5.426
10498TIP3    H252910   2.222   3.833   5.392
10499TIP3   OH252911   1.922   3.937  14.700
10499TIP3    H152912   1.831   3.915  14.722
10499TIP3    H252913   1.966   3.943  14.785
10500TIP3   OH252914   0.166   5.900  13.992
10500TIP3    H152915   0.184   5.993  13.977
10500TIP3    H252916   0.168   5.861  13.905
10501TIP3   OH252917   3.910   2.030   4.437
10501TIP3    H152918   3.840   2.004   4.378
10501TIP3    H252919   3.881   2.000   4.523
10502TIP3   OH252920   2.496   6.366   2.012
10502TIP3    H152921   2.441   6.409   2.077
10502TIP3    H252922   2.571   6.333   2.061
10503TIP3   OH252923   0.159   4.119   1.112
10503TIP3    H152924   0.242   4.165   1.095
10503TIP3    H252925   0.145   4.128   1.206
10504TIP3   OH252926   2.312   2.279  11.274
10504TIP3    H152927   2.234   2.331  11.294
10504TIP3    H252928   2.323   2.222  11.350
10505TIP3   OH252929   5.430   5.930   3.010
10505TIP3    H152930   5.509   5.982   2.999
10505TIP3    H252931   5.392   5.925   2.922
10506TIP3   OH252932   5.345   0.327   0.182
10506TIP3    H152933   5.365   0.234   0.179
10506TIP3    H252934   5.372   0.355   0.270
10507TIP3   OH252935   1.800   2.361  12.621
10507TIP3    H152936   1.760   2.352  12.534
10507TIP3    H252937   1.746   2.306  12.678
10508TIP3   OH252938   5.556   5.921  13.715
10508TIP3    H152939   5.508   5.866  13.778
10508TIP3    H252940   5.611   5.977  13.769
10509TIP3   OH252941   0.581   0.335  11.791
10509TIP3    H152942   0.590   0.306  11.882
10509TIP3    H252943   0.669   0.327  11.754
10510TIP3   OH252944   2.595   2.037   6.005
10510TIP3    H152945   2.674   2.043   6.058
10510TIP3    H252946   2.624   2.054   5.916
10511TIP3   OH252947   3.725   6.215  17.008
10511TIP3    H152948   3.798   6.256  16.962
10511TIP3    H252949   3.731   6.249  17.098
10512TIP3   OH252950   3.896   2.639   5.721
10512TIP3    H152951   3.922   2.623   5.812
10512TIP3    H252952   3.875   2.732   5.718
10513TIP3   OH252953   2.354   1.178   0.487
10513TIP3    H152954   2.265   1.204   0.512
10513TIP3    H252955   2.355   1.083   0.499
10514TIP3   OH252956   5.155   6.595   2.587
10514TIP3    H152957   5.089   6.535   2.623
10514TIP3    H252958   5.189   6.549   2.510
10515TIP3   OH252959   1.203   6.417   4.095
10515TIP3    H152960   1.111   6.437   4.082
10515TIP3    H252961   1.210   6.399   4.189
10516TIP3   OH252962   2.250   4.919   0.804
10516TIP3    H152963   2.197   4.879   0.873
10516TIP3    H252964   2.268   5.008   0.835
10517TIP3   OH252965   3.093   4.130   5.516
10517TIP3    H152966   3.179   4.155   5.484
10517TIP3    H252967   3.095   4.152   5.609
10518TIP3   OH252968   6.469   4.303  13.099
10518TIP3    H152969   6.424   4.387  13.107
10518TIP3    H252970   6.490   4.279  13.190
10519TIP3   OH252971   4.290   0.105  14.578
10519TIP3    H152972   4.212   0.161  14.581
10519TIP3    H252973   4.283   0.060  14.494
10520TIP3   OH252974   1.957   6.147   1.523
10520TIP3    H152975   1.956   6.109   1.611
10520TIP3    H252976   1.893   6.217   1.526
10521TIP3   OH252977   4.809   1.605   0.167
10521TIP3    H152978   4.751   1.530   0.154
10521TIP3    H252979   4.751   1.678   0.187
10522TIP3   OH252980   4.745   2.279  16.244
10522TIP3    H152981   4.764   2.365  16.208
10522TIP3    H252982   4.651   2.281  16.265
10523TIP3   OH252983   1.924   1.816  14.212
10523TIP3    H152984   1.952   1.893  14.162
10523TIP3    H252985   1.996   1.754  14.204
10524TIP3   OH252986   6.204   4.830  13.231
10524TIP3    H152987   6.154   4.766  13.281
10524TIP3    H252988   6.274   4.857  13.290
10525TIP3   OH252989   4.283   1.430  10.646
10525TIP3    H152990   4.263   1.485  10.722
10525TIP3    H252991   4.378   1.421  10.646
10526TIP3   OH252992   1.957   5.644  10.770
10526TIP3    H152993   1.942   5.580  10.839
10526TIP3    H252994   1.904   5.613  10.696
10527TIP3   OH252995   2.517   0.459  15.029
10527TIP3    H152996   2.473   0.491  14.950
10527TIP3    H252997   2.464   0.492  15.101
10528TIP3   OH252998   3.734   0.105  16.939
10528TIP3    H152999   3.820   0.146  16.944
10528TIP3    H253000   3.751   0.018  16.902
10529TIP3   OH253001   0.049   1.465  14.194
10529TIP3    H153002  -0.025   1.465  14.254
10529TIP3    H253003   0.012   1.437  14.110
10530TIP3   OH253004   4.810   6.086  13.353
10530TIP3    H153005   4.848   6.166  13.389
10530TIP3    H253006   4.861   6.068  13.274
10531TIP3   OH253007   2.028   2.791  14.257
10531TIP3    H153008   2.093   2.728  14.287
10531TIP3    H253009   2.050   2.872  14.302
10532TIP3   OH253010   0.535   1.616   1.625
10532TIP3    H153011   0.589   1.584   1.697
10532TIP3    H253012   0.534   1.711   1.636
10533TIP3   OH253013   4.277   5.320   2.661
10533TIP3    H153014   4.215   5.299   2.732
10533TIP3    H253015   4.224   5.365   2.596
10534TIP3   OH253016   5.080   3.475   3.117
10534TIP3    H153017   5.125   3.407   3.068
10534TIP3    H253018   5.142   3.500   3.186
10535TIP3   OH253019   3.374   4.579   2.391
10535TIP3    H153020   3.406   4.610   2.307
10535TIP3    H253021   3.376   4.483   2.383
10536TIP3   OH253022   2.706   4.897   4.226
10536TIP3    H153023   2.738   4.983   4.197
10536TIP3    H253024   2.614   4.912   4.248
10537TIP3   OH253025   5.943   2.596  12.225
10537TIP3    H153026   5.942   2.565  12.134
10537TIP3    H253027   5.865   2.557  12.264
10538TIP3   OH253028   0.322   0.959  12.307
10538TIP3    H153029   0.300   0.923  12.393
10538TIP3    H253030   0.254   0.925  12.249
10539TIP3   OH253031   2.531   2.037   1.397
10539TIP3    H153032   2.591   1.984   1.450
10539TIP3    H253033   2.490   2.096   1.460
10540TIP3   OH253034   4.601   5.721   9.938
10540TIP3    H153035   4.643   5.803   9.912
10540TIP3    H253036   4.655   5.689  10.010
10541TIP3   OH253037   4.263   6.164   1.395
10541TIP3    H153038   4.227   6.178   1.307
10541TIP3    H253039   4.290   6.251   1.423
10542TIP3   OH253040   5.141   0.280   2.322
10542TIP3    H153041   5.123   0.321   2.406
10542TIP3    H253042   5.187   0.199   2.344
10543TIP3   OH253043   5.328   2.015   1.092
10543TIP3    H153044   5.381   1.935   1.094
10543TIP3    H253045   5.387   2.082   1.057
10544TIP3   OH253046   2.830   0.564  16.916
10544TIP3    H153047   2.840   0.627  16.845
10544TIP3    H253048   2.912   0.570  16.965
10545TIP3   OH253049   4.710   1.085  12.151
10545TIP3    H153050   4.701   1.168  12.198
10545TIP3    H253051   4.754   1.109  12.069
10546TIP3   OH253052   3.270   4.334   3.886
10546TIP3    H153053   3.263   4.428   3.873
10546TIP3    H253054   3.352   4.321   3.933
10547TIP3   OH253055   4.460   6.729  16.925
10547TIP3    H153056   4.403   6.788  16.975
10547TIP3    H253057   4.472   6.773  16.841
10548TIP3   OH253058   1.033   4.832   5.621
10548TIP3    H153059   1.113   4.795   5.583
10548TIP3    H253060   0.969   4.831   5.550
10549TIP3   OH253061   4.120   1.487  16.257
10549TIP3    H153062   4.147   1.548  16.326
10549TIP3    H253063   4.200   1.442  16.232
10550TIP3   OH253064   1.761   6.081  13.631
10550TIP3    H153065   1.671   6.061  13.656
10550TIP3    H253066   1.803   6.110  13.711
10551TIP3   OH253067   1.365   2.571  14.937
10551TIP3    H153068   1.426   2.525  14.879
10551TIP3    H253069   1.368   2.522  15.019
10552TIP3   OH253070   1.330   5.240  15.825
10552TIP3    H153071   1.404   5.229  15.764
10552TIP3    H253072   1.327   5.334  15.842
10553TIP3   OH253073   5.465   3.772   1.098
10553TIP3    H153074   5.502   3.716   1.166
10553TIP3    H253075   5.491   3.861   1.124
10554TIP3   OH253076   3.231   0.416  15.106
10554TIP3    H153077   3.206   0.469  15.182
10554TIP3    H253078   3.153   0.364  15.087
10555TIP3   OH253079   1.065   2.992   5.285
10555TIP3    H153080   1.036   3.079   5.257
10555TIP3    H253081   0.983   2.942   5.294
10556TIP3   OH253082   3.093   0.501  15.782
10556TIP3    H153083   3.043   0.508  15.864
10556TIP3    H253084   3.038   0.544  15.717
10557TIP3   OH253085   6.091   5.423  16.839
10557TIP3    H153086   6.098   5.472  16.921
10557TIP3    H253087   6.179   5.388  16.824
10558TIP3   OH253088   6.110   6.749  11.678
10558TIP3    H153089   6.152   6.717  11.599
10558TIP3    H253090   6.124   6.680  11.743
10559TIP3   OH253091   3.915   6.005   1.643
10559TIP3    H153092   3.854   6.025   1.572
10559TIP3    H253093   3.974   5.940   1.607
10560TIP3   OH253094   6.540   0.226   1.354
10560TIP3    H153095   6.590   0.283   1.411
10560TIP3    H253096   6.562   0.254   1.265
10561TIP3   OH253097   2.120   4.045  12.298
10561TIP3    H153098   2.130   4.139  12.281
10561TIP3    H253099   2.057   4.041  12.370
10562TIP3   OH253100   1.706   2.292   0.264
10562TIP3    H153101   1.779   2.230   0.253
10562TIP3    H253102   1.741   2.360   0.322
10563TIP3   OH253103   5.820   3.258  13.080
10563TIP3    H153104   5.800   3.231  13.169
10563TIP3    H253105   5.904   3.215  13.060
10564TIP3   OH253106   3.912   6.018  12.563
10564TIP3    H153107   3.953   6.098  12.532
10564TIP3    H253108   3.985   5.956  12.575
10565TIP3   OH253109   1.236   0.412   1.988
10565TIP3    H153110   1.170   0.372   1.931
10565TIP3    H253111   1.212   0.504   1.992
10566TIP3   OH253112   3.632   1.862   0.464
10566TIP3    H153113   3.693   1.791   0.484
10566TIP3    H253114   3.558   1.847   0.522
10567TIP3   OH253115   0.063   0.397   4.637
10567TIP3    H153116   0.017   0.349   4.568
10567TIP3    H253117   0.140   0.343   4.657
10568TIP3   OH253118   6.133   2.643   0.750
10568TIP3    H153119   6.163   2.611   0.835
10568TIP3    H253120   6.166   2.579   0.687
10569TIP3   OH253121   1.477   6.776   4.753
10569TIP3    H153122   1.537   6.846   4.728
10569TIP3    H253123   1.534   6.702   4.772
10570TIP3   OH253124   6.655   3.066   2.312
10570TIP3    H153125   6.613   3.028   2.388
10570TIP3    H253126   6.737   3.018   2.302
10571TIP3   OH253127   5.384   3.089  11.537
10571TIP3    H153128   5.324   3.114  11.466
10571TIP3    H253129   5.333   3.103  11.617
10572TIP3   OH253130   5.218   2.001  10.856
10572TIP3    H153131   5.124   1.987  10.865
10572TIP3    H253132   5.227   2.094  10.837
10573TIP3   OH253133   2.268   6.285  14.049
10573TIP3    H153134   2.352   6.331  14.057
10573TIP3    H253135   2.284   6.217  13.984
10574TIP3   OH253136   0.466   3.798  12.086
10574TIP3    H153137   0.415   3.825  12.010
10574TIP3    H253138   0.476   3.878  12.138
10575TIP3   OH253139   1.053   1.969  10.793
10575TIP3    H153140   0.976   2.018  10.765
10575TIP3    H253141   1.043   1.960  10.888
10576TIP3   OH253142   4.109   5.289  13.076
10576TIP3    H153143   4.109   5.364  13.017
10576TIP3    H253144   4.034   5.303  13.133
10577TIP3   OH253145   3.884   6.713   4.727
10577TIP3    H153146   3.979   6.707   4.733
10577TIP3    H253147   3.860   6.782   4.790
10578TIP3   OH253148   5.904   1.696   0.993
10578TIP3    H153149   5.966   1.763   0.964
10578TIP3    H253150   5.892   1.713   1.087
10579TIP3   OH253151   5.001   0.775   4.012
10579TIP3    H153152   4.943   0.713   4.057
10579TIP3    H253153   4.985   0.759   3.919
10580TIP3   OH253154   6.135   5.695  15.802
10580TIP3    H153155   6.047   5.733  15.803
10580TIP3    H253156   6.187   5.755  15.854
10581TIP3   OH253157   5.935   5.566  12.985
10581TIP3    H153158   5.986   5.553  12.905
10581TIP3    H253159   5.902   5.480  13.007
10582TIP3   OH253160   2.064   5.342  15.551
10582TIP3    H153161   2.118   5.389  15.614
10582TIP3    H253162   2.101   5.254  15.548
10583TIP3   OH253163   5.492   3.891  15.432
10583TIP3    H153164   5.529   3.805  15.408
10583TIP3    H253165   5.422   3.905  15.368
10584TIP3   OH253166   4.442   5.782   2.989
10584TIP3    H153167   4.463   5.742   3.073
10584TIP3    H253168   4.501   5.857   2.983
10585TIP3   OH253169   3.936   4.243  13.815
10585TIP3    H153170   3.919   4.258  13.722
10585TIP3    H253171   4.015   4.294  13.833
10586TIP3   OH253172   4.917   6.402   2.649
10586TIP3    H153173   4.832   6.397   2.605
10586TIP3    H253174   4.899   6.378   2.740
10587TIP3   OH253175   2.946   1.436  15.619
10587TIP3    H153176   3.035   1.424  15.585
10587TIP3    H253177   2.898   1.474  15.545
10588TIP3   OH253178   6.168   4.870  10.416
10588TIP3    H153179   6.208   4.935  10.475
10588TIP3    H253180   6.242   4.830  10.371
10589TIP3   OH253181   1.700   3.148   1.187
10589TIP3    H153182   1.675   3.114   1.273
10589TIP3    H253183   1.693   3.073   1.128
10590TIP3   OH253184   6.418   0.510   2.589
10590TIP3    H153185   6.365   0.499   2.510
10590TIP3    H253186   6.390   0.594   2.625
10591TIP3   OH253187   3.791   6.076   2.563
10591TIP3    H153188   3.816   6.032   2.482
10591TIP3    H253189   3.805   6.169   2.546
10592TIP3   OH253190   6.570   5.722   4.216
10592TIP3    H153191   6.495   5.731   4.158
10592TIP3    H253192   6.630   5.664   4.168
10593TIP3   OH253193   3.255   5.164   0.756
10593TIP3    H153194   3.164   5.142   0.772
10593TIP3    H253195   3.303   5.122   0.828
10594TIP3   OH253196   0.065   0.752   2.129
10594TIP3    H153197   0.046   0.819   2.064
10594TIP3    H253198   0.149   0.777   2.166
10595TIP3   OH253199   6.180   4.314   0.344
10595TIP3    H153200   6.169   4.320   0.249
10595TIP3    H253201   6.274   4.318   0.358
10596TIP3   OH253202   0.950   3.178   3.923
10596TIP3    H153203   0.984   3.258   3.962
10596TIP3    H253204   1.028   3.126   3.901
10597TIP3   OH253205   1.503   3.801  13.114
10597TIP3    H153206   1.475   3.892  13.101
10597TIP3    H253207   1.586   3.808  13.162
10598TIP3   OH253208   4.455   4.785   0.320
10598TIP3    H153209   4.385   4.785   0.254
10598TIP3    H253210   4.409   4.771   0.403
10599TIP3   OH253211   0.249   6.639   5.483
10599TIP3    H153212   0.322   6.635   5.546
10599TIP3    H253213   0.290   6.621   5.398
10600TIP3   OH253214   4.172   2.970  13.489
10600TIP3    H153215   4.131   3.055  13.509
10600TIP3    H253216   4.266   2.987  13.495
10601TIP3   OH253217   0.127   1.054  16.606
10601TIP3    H153218   0.141   1.131  16.551
10601TIP3    H253219   0.214   1.035  16.643
10602TIP3   OH253220   3.619   1.669  11.614
10602TIP3    H153221   3.639   1.697  11.525
10602TIP3    H253222   3.525   1.653  11.614
10603TIP3   OH253223   3.210   1.916  14.036
10603TIP3    H153224   3.259   1.941  13.958
10603TIP3    H253225   3.208   1.821  14.034
10604TIP3   OH253226   6.197   6.121   5.370
10604TIP3    H153227   6.276   6.147   5.324
10604TIP3    H253228   6.135   6.097   5.300
10605TIP3   OH253229   4.364   1.411  14.599
10605TIP3    H153230   4.348   1.317  14.604
10605TIP3    H253231   4.446   1.420  14.550
10606TIP3   OH253232   4.209   5.983  12.739
10606TIP3    H153233   4.255   5.968  12.822
10606TIP3    H253234   4.229   6.074  12.717
10607TIP3   OH253235   4.240   3.619   4.774
10607TIP3    H153236   4.237   3.624   4.678
10607TIP3    H253237   4.331   3.639   4.796
10608TIP3   OH253238   5.884   1.613   1.441
10608TIP3    H153239   5.898   1.539   1.500
10608TIP3    H253240   5.966   1.621   1.393
10609TIP3   OH253241   1.456   4.774  14.201
10609TIP3    H153242   1.539   4.732  14.226
10609TIP3    H253243   1.454   4.766  14.106
10610TIP3   OH253244   0.244   0.418   3.311
10610TIP3    H153245   0.150   0.415   3.290
10610TIP3    H253246   0.280   0.479   3.246
10611TIP3   OH253247   1.730   6.268  14.038
10611TIP3    H153248   1.755   6.330  14.106
10611TIP3    H253249   1.807   6.211  14.029
10612TIP3   OH253250   6.342   4.972  15.413
10612TIP3    H153251   6.358   4.912  15.341
10612TIP3    H253252   6.264   4.937  15.457
10613TIP3   OH253253   1.046   1.565  12.867
10613TIP3    H153254   1.052   1.520  12.951
10613TIP3    H253255   0.979   1.516  12.819
10614TIP3   OH253256   3.058   6.477   1.412
10614TIP3    H153257   3.002   6.551   1.391
10614TIP3    H253258   3.027   6.407   1.354
10615TIP3   OH253259   2.324   5.187  14.066
10615TIP3    H153260   2.245   5.237  14.088
10615TIP3    H253261   2.316   5.168  13.973
10616TIP3   OH253262   5.960   2.386  14.196
10616TIP3    H153263   6.051   2.414  14.187
10616TIP3    H253264   5.945   2.331  14.119
10617TIP3   OH253265   2.963   2.591  16.477
10617TIP3    H153266   2.907   2.534  16.425
10617TIP3    H253267   3.040   2.606  16.423
10618TIP3   OH253268   2.219   4.621   0.564
10618TIP3    H153269   2.195   4.529   0.576
10618TIP3    H253270   2.263   4.644   0.646
10619TIP3   OH253271   6.045   0.005   0.520
10619TIP3    H153272   5.975   0.023   0.583
10619TIP3    H253273   6.116   0.063   0.546
10620TIP3   OH253274   2.094   6.524  16.419
10620TIP3    H153275   2.084   6.499  16.511
10620TIP3    H253276   2.083   6.442  16.371
10621TIP3   OH253277   4.529   3.789   0.025
10621TIP3    H153278   4.539   3.711  -0.030
10621TIP3    H253279   4.464   3.843  -0.021
10622TIP3   OH253280   4.692   4.731  15.982
10622TIP3    H153281   4.711   4.772  15.897
10622TIP3    H253282   4.662   4.803  16.037
10623TIP3   OH253283   5.044   1.329   4.303
10623TIP3    H153284   5.105   1.256   4.292
10623TIP3    H253285   5.078   1.379   4.378
10624TIP3   OH253286   6.191   2.468   4.888
10624TIP3    H153287   6.250   2.412   4.937
10624TIP3    H253288   6.177   2.422   4.805
10625TIP3   OH253289   5.859   3.434   5.024
10625TIP3    H153290   5.840   3.370   5.093
10625TIP3    H253291   5.910   3.502   5.068
10626TIP3   OH253292   4.670   2.507   0.915
10626TIP3    H153293   4.681   2.561   0.993
10626TIP3    H253294   4.745   2.447   0.917
10627TIP3   OH253295   0.491   1.967  14.103
10627TIP3    H153296   0.502   1.968  14.198
10627TIP3    H253297   0.547   2.039  14.072
10628TIP3   OH253298   6.666   6.771   5.292
10628TIP3    H153299   6.695   6.689   5.331
10628TIP3    H253300   6.745   6.823   5.282
10629TIP3   OH253301   3.310   2.957   0.538
10629TIP3    H153302   3.269   2.910   0.465
10629TIP3    H253303   3.280   3.048   0.528
10630TIP3   OH253304   6.016   0.992   5.332
10630TIP3    H153305   5.952   0.988   5.261
10630TIP3    H253306   6.026   1.085   5.350
10631TIP3   OH253307   5.171   5.067   5.047
10631TIP3    H153308   5.179   5.082   5.141
10631TIP3    H253309   5.078   5.049   5.033
10632TIP3   OH253310   4.910   6.200  10.199
10632TIP3    H153311   4.983   6.154  10.157
10632TIP3    H253312   4.918   6.290  10.169
10633TIP3   OH253313   5.452   3.511   6.714
10633TIP3    H153314   5.467   3.475   6.801
10633TIP3    H253315   5.511   3.586   6.709
10634TIP3   OH253316   6.768   6.596   5.478
10634TIP3    H153317   6.861   6.578   5.489
10634TIP3    H253318   6.728   6.510   5.465
10635TIP3   OH253319   3.586   1.154   5.600
10635TIP3    H153320   3.608   1.112   5.683
10635TIP3    H253321   3.657   1.130   5.541
10636TIP3   OH253322   5.132   3.154   4.971
10636TIP3    H153323   5.227   3.157   4.966
10636TIP3    H253324   5.114   3.114   5.056
10637TIP3   OH253325   0.819   2.234   4.624
10637TIP3    H153326   0.750   2.194   4.572
10637TIP3    H253327   0.864   2.293   4.564
10638TIP3   OH253328   4.106   4.266  15.873
10638TIP3    H153329   4.048   4.341  15.888
10638TIP3    H253330   4.153   4.287  15.793
10639TIP3   OH253331   1.100   5.387   5.879
10639TIP3    H153332   1.075   5.330   5.952
10639TIP3    H253333   1.191   5.363   5.860
10640TIP3   OH253334   1.103   3.787  15.887
10640TIP3    H153335   1.131   3.695  15.894
10640TIP3    H253336   1.111   3.821  15.976
10641TIP3   OH253337   5.377   0.808  14.262
10641TIP3    H153338   5.393   0.719  14.232
10641TIP3    H253339   5.365   0.859  14.182
10642TIP3   OH253340   3.630   6.593   4.696
10642TIP3    H153341   3.706   6.651   4.701
10642TIP3    H253342   3.637   6.538   4.775
10643TIP3   OH253343   4.553   3.558  14.872
10643TIP3    H153344   4.520   3.549  14.783
10643TIP3    H253345   4.647   3.537  14.865
10644TIP3   OH253346   0.355   4.267   0.658
10644TIP3    H153347   0.308   4.197   0.614
10644TIP3    H253348   0.388   4.323   0.587
10645TIP3   OH253349   0.719   1.703  16.897
10645TIP3    H153350   0.657   1.702  16.970
10645TIP3    H253351   0.712   1.616  16.858
10646TIP3   OH253352   1.694   1.201  14.800
10646TIP3    H153353   1.640   1.217  14.878
10646TIP3    H253354   1.646   1.135  14.751
10647TIP3   OH253355   2.248   0.839   1.957
10647TIP3    H153356   2.171   0.889   1.984
10647TIP3    H253357   2.215   0.775   1.893
10648TIP3   OH253358   4.412   0.585  12.979
10648TIP3    H153359   4.432   0.651  13.045
10648TIP3    H253360   4.336   0.621  12.932
10649TIP3   OH253361   5.750   3.716  11.776
10649TIP3    H153362   5.705   3.746  11.854
10649TIP3    H253363   5.765   3.622  11.791
10650TIP3   OH253364   5.898   3.026   0.783
10650TIP3    H153365   5.950   3.106   0.788
10650TIP3    H253366   5.807   3.056   0.773
10651TIP3   OH253367   5.906   1.774  14.441
10651TIP3    H153368   5.887   1.680  14.431
10651TIP3    H253369   5.950   1.780  14.525
10652TIP3   OH253370   0.631   0.921   0.786
10652TIP3    H153371   0.609   0.873   0.866
10652TIP3    H253372   0.599   0.865   0.715
10653TIP3   OH253373   1.547   4.243  13.699
10653TIP3    H153374   1.619   4.244  13.761
10653TIP3    H253375   1.487   4.177  13.732
10654TIP3   OH253376   0.217   3.917   5.123
10654TIP3    H153377   0.216   3.912   5.027
10654TIP3    H253378   0.125   3.911   5.148
10655TIP3   OH253379   0.122   0.641  12.245
10655TIP3    H153380   0.106   0.727  12.206
10655TIP3    H253381   0.218   0.632  12.244
10656TIP3   OH253382   1.120   5.408  15.614
10656TIP3    H153383   1.203   5.373  15.582
10656TIP3    H253384   1.138   5.433  15.705
10657TIP3   OH253385   3.707   5.811   0.123
10657TIP3    H153386   3.758   5.853   0.193
10657TIP3    H253387   3.773   5.777   0.063
10658TIP3   OH253388   2.033   6.278  13.504
10658TIP3    H153389   1.945   6.272  13.467
10658TIP3    H253390   2.064   6.365  13.478
10659TIP3   OH253391   1.990   3.271   3.899
10659TIP3    H153392   2.079   3.236   3.908
10659TIP3    H253393   1.952   3.220   3.828
10660TIP3   OH253394   3.111   1.183  16.740
10660TIP3    H153395   3.146   1.116  16.799
10660TIP3    H253396   3.018   1.161  16.732
10661TIP3   OH253397   4.851   5.797  14.074
10661TIP3    H153398   4.840   5.850  13.995
10661TIP3    H253399   4.863   5.861  14.144
10662TIP3   OH253400   4.131   2.498  14.670
10662TIP3    H153401   4.060   2.514  14.732
10662TIP3    H253402   4.150   2.583  14.632
10663TIP3   OH253403   4.654   3.455   1.503
10663TIP3    H153404   4.748   3.474   1.504
10663TIP3    H253405   4.642   3.390   1.573
10664TIP3   OH253406   5.592   5.697   3.071
10664TIP3    H153407   5.542   5.779   3.072
10664TIP3    H253408   5.578   5.660   3.159
10665TIP3   OH253409   1.096   3.208   3.505
10665TIP3    H153410   1.147   3.179   3.580
10665TIP3    H253411   1.023   3.146   3.500
10666TIP3   OH253412   1.757   0.478  11.440
10666TIP3    H153413   1.748   0.480  11.345
10666TIP3    H253414   1.668   0.463  11.472
10667TIP3   OH253415   3.036   0.494   3.479
10667TIP3    H153416   2.979   0.496   3.401
10667TIP3    H253417   3.083   0.578   3.476
10668TIP3   OH253418   3.117   5.474   0.883
10668TIP3    H153419   3.136   5.528   0.806
10668TIP3    H253420   3.196   5.423   0.897
10669TIP3   OH253421   3.799   0.158   3.946
10669TIP3    H153422   3.886   0.124   3.967
10669TIP3    H253423   3.744   0.129   4.018
10670TIP3   OH253424   2.029   5.292   4.183
10670TIP3    H153425   2.118   5.260   4.200
10670TIP3    H253426   1.974   5.245   4.246
10671TIP3   OH253427   5.359   5.243   0.555
10671TIP3    H153428   5.316   5.229   0.639
10671TIP3    H253429   5.352   5.158   0.511
10672TIP3   OH253430   2.722   6.203   2.779
10672TIP3    H153431   2.746   6.161   2.862
10672TIP3    H253432   2.780   6.162   2.714
10673TIP3   OH253433   3.757   4.380   2.097
10673TIP3    H153434   3.810   4.395   2.019
10673TIP3    H253435   3.671   4.356   2.063
10674TIP3   OH253436   0.315   3.325  16.554
10674TIP3    H153437   0.342   3.340  16.644
10674TIP3    H253438   0.222   3.306  16.559
10675TIP3   OH253439   1.130   0.623  11.593
10675TIP3    H153440   1.039   0.650  11.605
10675TIP3    H253441   1.159   0.595  11.679
10676TIP3   OH253442   0.851   1.528  15.701
10676TIP3    H153443   0.909   1.598  15.671
10676TIP3    H253444   0.769   1.543  15.654
10677TIP3   OH253445   5.225   4.551  16.248
10677TIP3    H153446   5.276   4.477  16.217
10677TIP3    H253447   5.151   4.511  16.294
10678TIP3   OH253448   1.559   0.846   2.245
10678TIP3    H153449   1.605   0.841   2.329
10678TIP3    H253450   1.471   0.875   2.268
10679TIP3   OH253451   2.023   5.787  16.583
10679TIP3    H153452   2.071   5.804  16.664
10679TIP3    H253453   2.075   5.721  16.537
10680TIP3   OH253454   3.926   4.724  13.510
10680TIP3    H153455   3.839   4.733  13.472
10680TIP3    H253456   3.940   4.804  13.560
10681TIP3   OH253457   3.848   4.367  12.417
10681TIP3    H153458   3.861   4.403  12.505
10681TIP3    H253459   3.930   4.321  12.398
10682TIP3   OH253460   6.156   3.544   5.070
10682TIP3    H153461   6.167   3.629   5.028
10682TIP3    H253462   6.227   3.490   5.034
10683TIP3   OH253463   3.333   1.157   0.303
10683TIP3    H153464   3.277   1.123   0.373
10683TIP3    H253465   3.422   1.134   0.330
10684TIP3   OH253466   2.100   2.871  15.301
10684TIP3    H153467   2.085   2.777  15.287
10684TIP3    H253468   2.179   2.890  15.252
10685TIP3   OH253469   5.551   3.596  16.202
10685TIP3    H153470   5.600   3.541  16.263
10685TIP3    H253471   5.617   3.656  16.166
10686TIP3   OH253472   4.116   4.279   5.461
10686TIP3    H153473   4.070   4.195   5.471
10686TIP3    H253474   4.066   4.341   5.513
10687TIP3   OH253475   0.247   5.614   5.297
10687TIP3    H153476   0.338   5.608   5.326
10687TIP3    H253477   0.252   5.635   5.204
10688TIP3   OH253478   4.840   3.074  16.420
10688TIP3    H153479   4.795   3.156  16.399
10688TIP3    H253480   4.884   3.092  16.504
10689TIP3   OH253481   2.985   0.353  13.223
10689TIP3    H153482   2.963   0.397  13.141
10689TIP3    H253483   3.080   0.353  13.226
10690TIP3   OH253484   6.756   4.280   6.697
10690TIP3    H153485   6.812   4.206   6.673
10690TIP3    H253486   6.814   4.339   6.746
10691TIP3   OH253487   5.243   3.230  16.719
10691TIP3    H153488   5.255   3.253  16.811
10691TIP3    H253489   5.265   3.310  16.671
10692TIP3   OH253490   1.221   2.433   2.653
10692TIP3    H153491   1.168   2.385   2.590
10692TIP3    H253492   1.285   2.480   2.600
10693TIP3   OH253493   2.183   6.009   6.064
10693TIP3    H153494   2.171   5.914   6.065
10693TIP3    H253495   2.203   6.032   6.155
10694TIP3   OH253496   3.050   4.405   6.746
10694TIP3    H153497   3.015   4.335   6.801
10694TIP3    H253498   2.976   4.464   6.732
10695TIP3   OH253499   5.010   6.569  12.507
10695TIP3    H153500   5.096   6.541  12.476
10695TIP3    H253501   4.983   6.637  12.445
10696TIP3   OH253502   1.184   3.239   0.059
10696TIP3    H153503   1.113   3.304   0.066
10696TIP3    H253504   1.241   3.274  -0.009
10697TIP3   OH253505   2.847   1.873   5.843
10697TIP3    H153506   2.901   1.920   5.906
10697TIP3    H253507   2.813   1.798   5.892
10698TIP3   OH253508   6.409   5.083   2.190
10698TIP3    H153509   6.356   5.118   2.263
10698TIP3    H253510   6.345   5.054   2.125
10699TIP3   OH253511   5.832   2.414   4.415
10699TIP3    H153512   5.912   2.466   4.424
10699TIP3    H253513   5.832   2.357   4.492
10700TIP3   OH253514   4.259   1.532   5.951
10700TIP3    H153515   4.297   1.444   5.953
10700TIP3    H253516   4.277   1.564   5.862
10701TIP3   OH253517   6.240   5.595  14.721
10701TIP3    H153518   6.323   5.547  14.726
10701TIP3    H253519   6.238   5.631  14.633
10702TIP3   OH253520   3.781   4.024   0.863
10702TIP3    H153521   3.762   4.047   0.953
10702TIP3    H253522   3.781   4.108   0.816
10703TIP3   OH253523   3.984   1.821  16.409
10703TIP3    H153524   4.068   1.780  16.427
10703TIP3    H253525   3.968   1.878  16.484
10704TIP3   OH253526   4.947   1.883  12.540
10704TIP3    H153527   4.945   1.834  12.622
10704TIP3    H253528   4.890   1.959  12.556
10705TIP3   OH253529   4.965   1.447   0.442
10705TIP3    H153530   5.008   1.481   0.520
10705TIP3    H253531   5.037   1.423   0.383
10706TIP3   OH253532   2.948   0.807  16.798
10706TIP3    H153533   3.019   0.839  16.742
10706TIP3    H253534   2.968   0.842  16.884
10707TIP3   OH253535   3.786   1.466   0.816
10707TIP3    H153536   3.875   1.454   0.848
10707TIP3    H253537   3.783   1.557   0.786
10708TIP3   OH253538   6.590   1.588  16.352
10708TIP3    H153539   6.582   1.672  16.396
10708TIP3    H253540   6.502   1.568  16.321
10709TIP3   OH253541   0.137   1.752  16.936
10709TIP3    H153542   0.227   1.748  16.969
10709TIP3    H253543   0.142   1.712  16.849
10710TIP3   OH253544   6.608   5.835   1.524
10710TIP3    H153545   6.523   5.800   1.496
10710TIP3    H253546   6.672   5.792   1.467
10711TIP3   OH253547   3.804   2.695  14.009
10711TIP3    H153548   3.807   2.668  14.101
10711TIP3    H253549   3.896   2.705  13.985
10712TIP3   OH253550   4.978   0.231  15.730
10712TIP3    H153551   4.959   0.318  15.766
10712TIP3    H253552   4.957   0.171  15.802
10713TIP3   OH253553   4.197   3.942   3.613
10713TIP3    H153554   4.279   3.898   3.637
10713TIP3    H253555   4.131   3.905   3.673
10714TIP3   OH253556   3.619   6.215  11.246
10714TIP3    H153557   3.534   6.194  11.207
10714TIP3    H253558   3.653   6.130  11.275
10715TIP3   OH253559   5.401   3.940   5.947
10715TIP3    H153560   5.411   3.854   5.987
10715TIP3    H253561   5.309   3.944   5.921
10716TIP3   OH253562   3.636   0.983  12.353
10716TIP3    H153563   3.720   0.944  12.377
10716TIP3    H253564   3.598   0.921  12.291
10717TIP3   OH253565   3.726   6.769  10.766
10717TIP3    H153566   3.677   6.736  10.841
10717TIP3    H253567   3.662   6.774  10.695
10718TIP3   OH253568   4.527   0.656   3.173
10718TIP3    H153569   4.484   0.572   3.186
10718TIP3    H253570   4.614   0.645   3.213
10719TIP3   OH253571   1.900   1.102  11.437
10719TIP3    H153572   1.841   1.125  11.365
10719TIP3    H253573   1.981   1.076  11.394
10720TIP3   OH253574   0.561   0.037   1.660
10720TIP3    H153575   0.581   0.076   1.745
10720TIP3    H253576   0.548  -0.056   1.679
10721TIP3   OH253577   3.914   1.130  17.160
10721TIP3    H153578   3.903   1.090  17.246
10721TIP3    H253579   3.989   1.188  17.169
10722TIP3   OH253580   0.237   3.103   3.468
10722TIP3    H153581   0.194   3.018   3.473
10722TIP3    H253582   0.200   3.145   3.390
10723TIP3   OH253583   4.729   4.919   6.275
10723TIP3    H153584   4.641   4.949   6.296
10723TIP3    H253585   4.772   4.995   6.237
10724TIP3   OH253586   5.941   1.211   4.142
10724TIP3    H153587   6.026   1.252   4.123
10724TIP3    H253588   5.886   1.235   4.068
10725TIP3   OH253589   1.233   3.096   4.041
10725TIP3    H153590   1.219   3.082   4.135
10725TIP3    H253591   1.328   3.098   4.031
10726TIP3   OH253592   2.314   6.299  16.453
10726TIP3    H153593   2.234   6.266  16.493
10726TIP3    H253594   2.309   6.272  16.362
10727TIP3   OH253595   3.797   6.032   3.574
10727TIP3    H153596   3.752   5.953   3.543
10727TIP3    H253597   3.889   6.006   3.580
10728TIP3   OH253598   6.035   0.500   0.854
10728TIP3    H153599   6.005   0.475   0.766
10728TIP3    H253600   6.064   0.418   0.893
10729TIP3   OH253601   6.495   5.433  14.413
10729TIP3    H153602   6.447   5.399  14.337
10729TIP3    H253603   6.451   5.515  14.434
10730TIP3   OH253604   1.667   4.811  16.790
10730TIP3    H153605   1.670   4.834  16.882
10730TIP3    H253606   1.595   4.748  16.784
10731TIP3   OH253607   0.491   1.136   5.662
10731TIP3    H153608   0.404   1.101   5.643
10731TIP3    H253609   0.535   1.067   5.710
10732TIP3   OH253610   4.191   3.578   0.826
10732TIP3    H153611   4.173   3.526   0.747
10732TIP3    H253612   4.124   3.646   0.825
10733TIP3   OH253613   2.489   2.775   5.498
10733TIP3    H153614   2.514   2.793   5.407
10733TIP3    H253615   2.560   2.814   5.550
10734TIP3   OH253616   4.010   4.183   2.727
10734TIP3    H153617   4.041   4.269   2.701
10734TIP3    H253618   4.059   4.121   2.673
10735TIP3   OH253619   5.516   1.983   5.299
10735TIP3    H153620   5.532   1.903   5.350
10735TIP3    H253621   5.586   1.984   5.234
10736TIP3   OH253622   0.711   1.640  16.025
10736TIP3    H153623   0.656   1.573  15.984
10736TIP3    H253624   0.666   1.722  16.008
10737TIP3   OH253625   2.249   2.173  13.315
10737TIP3    H153626   2.345   2.170  13.310
10737TIP3    H253627   2.224   2.232  13.244
10738TIP3   OH253628   2.722   5.085  10.841
10738TIP3    H153629   2.720   5.008  10.898
10738TIP3    H253630   2.795   5.138  10.873
10739TIP3   OH253631   4.716   5.830  10.549
10739TIP3    H153632   4.795   5.868  10.511
10739TIP3    H253633   4.645   5.859  10.491
10740TIP3   OH253634   0.364   3.213  11.906
10740TIP3    H153635   0.431   3.144  11.912
10740TIP3    H253636   0.282   3.166  11.898
10741TIP3   OH253637   0.734   2.708  13.468
10741TIP3    H153638   0.778   2.785  13.503
10741TIP3    H253639   0.643   2.735  13.456
10742TIP3   OH253640   1.294   3.411  16.117
10742TIP3    H153641   1.256   3.323  16.113
10742TIP3    H253642   1.226   3.465  16.156
10743TIP3   OH253643   6.081   3.973   4.908
10743TIP3    H153644   6.029   4.043   4.947
10743TIP3    H253645   6.136   4.017   4.843
10744TIP3   OH253646   3.288   5.671  12.372
10744TIP3    H153647   3.238   5.752  12.380
10744TIP3    H253648   3.227   5.608  12.334
10745TIP3   OH253649   2.012   2.401   1.571
10745TIP3    H153650   2.106   2.390   1.580
10745TIP3    H253651   1.974   2.325   1.614
10746TIP3   OH253652   1.408   0.258   4.919
10746TIP3    H153653   1.500   0.230   4.918
10746TIP3    H253654   1.406   0.331   4.981
10747TIP3   OH253655   2.292   3.861  13.033
10747TIP3    H153656   2.385   3.859  13.011
10747TIP3    H253657   2.248   3.828  12.954
10748TIP3   OH253658   6.421   2.419   6.611
10748TIP3    H153659   6.348   2.447   6.557
10748TIP3    H253660   6.397   2.332   6.642
10749TIP3   OH253661   6.464   2.463   5.574
10749TIP3    H153662   6.458   2.533   5.509
10749TIP3    H253663   6.448   2.506   5.657
10750TIP3   OH253664   1.699   6.735  14.989
10750TIP3    H153665   1.647   6.800  15.034
10750TIP3    H253666   1.779   6.727  15.042
10751TIP3   OH253667   3.269   2.147   4.305
10751TIP3    H153668   3.309   2.212   4.247
10751TIP3    H253669   3.194   2.192   4.343
10752TIP3   OH253670   4.324   0.437   5.375
10752TIP3    H153671   4.316   0.517   5.427
10752TIP3    H253672   4.245   0.387   5.397
10753TIP3   OH253673   3.462   6.430   3.687
10753TIP3    H153674   3.429   6.350   3.728
10753TIP3    H253675   3.388   6.465   3.638
10754TIP3   OH253676   3.123   0.722   2.800
10754TIP3    H153677   3.135   0.787   2.869
10754TIP3    H253678   3.147   0.639   2.841
10755TIP3   OH253679   1.447   2.582   0.386
10755TIP3    H153680   1.468   2.493   0.358
10755TIP3    H253681   1.465   2.583   0.480
10756TIP3   OH253682   2.035   4.676   3.750
10756TIP3    H153683   1.975   4.725   3.806
10756TIP3    H253684   1.992   4.591   3.738
10757TIP3   OH253685   4.489   1.992  12.572
10757TIP3    H153686   4.560   2.033  12.521
10757TIP3    H253687   4.415   1.987  12.512
10758TIP3   OH253688   2.564   1.157  16.003
10758TIP3    H153689   2.506   1.083  15.987
10758TIP3    H253690   2.617   1.163  15.923
10759TIP3   OH253691   2.892   1.770  11.846
10759TIP3    H153692   2.829   1.838  11.823
10759TIP3    H253693   2.937   1.750  11.764
10760TIP3   OH253694   1.459   0.228  13.118
10760TIP3    H153695   1.422   0.220  13.206
10760TIP3    H253696   1.458   0.138  13.084
10761TIP3   OH253697   4.338   3.961  11.342
10761TIP3    H153698   4.343   3.897  11.272
10761TIP3    H253699   4.346   4.046  11.298
10762TIP3   OH253700   3.498   1.192  13.615
10762TIP3    H153701   3.409   1.163  13.635
10762TIP3    H253702   3.554   1.133  13.665
10763TIP3   OH253703   0.341   0.033  17.060
10763TIP3    H153704   0.278  -0.026  17.018
10763TIP3    H253705   0.308   0.121  17.040
10764TIP3   OH253706   6.173   4.448  13.974
10764TIP3    H153707   6.236   4.379  13.952
10764TIP3    H253708   6.114   4.451  13.899
10765TIP3   OH253709   0.737   5.969  16.280
10765TIP3    H153710   0.752   6.007  16.367
10765TIP3    H253711   0.782   5.884  16.283
10766TIP3   OH253712   5.133   3.909   5.954
10766TIP3    H153713   5.161   3.925   6.044
10766TIP3    H253714   5.152   3.816   5.939
10767TIP3   OH253715   2.574   2.979  12.349
10767TIP3    H153716   2.549   3.069  12.328
10767TIP3    H253717   2.598   2.941  12.265
10768TIP3   OH253718   4.420   2.218  17.092
10768TIP3    H153719   4.341   2.176  17.057
10768TIP3    H253720   4.481   2.219  17.018
10769TIP3   OH253721   0.230   4.357  15.118
10769TIP3    H153722   0.237   4.262  15.118
10769TIP3    H253723   0.318   4.388  15.096
10770TIP3   OH253724   3.520   5.226  13.907
10770TIP3    H153725   3.531   5.195  13.997
10770TIP3    H253726   3.436   5.271  13.908
10771TIP3   OH253727   5.397   2.897   0.997
10771TIP3    H153728   5.456   2.836   0.953
10771TIP3    H253729   5.455   2.953   1.049
10772TIP3   OH253730   3.392   6.732   1.587
10772TIP3    H153731   3.330   6.672   1.628
10772TIP3    H253732   3.454   6.754   1.657
10773TIP3   OH253733   2.976   2.729   1.791
10773TIP3    H153734   2.943   2.688   1.871
10773TIP3    H253735   2.941   2.675   1.720
10774TIP3   OH253736   6.718   1.531   2.029
10774TIP3    H153737   6.809   1.531   2.000
10774TIP3    H253738   6.705   1.616   2.070
10775TIP3   OH253739   3.463   2.208  11.430
10775TIP3    H153740   3.373   2.209  11.399
10775TIP3    H253741   3.460   2.156  11.510
10776TIP3   OH253742   4.607   4.262   0.174
10776TIP3    H153743   4.655   4.289   0.252
10776TIP3    H253744   4.543   4.332   0.161
10777TIP3   OH253745   2.218   5.082   3.705
10777TIP3    H153746   2.204   5.112   3.795
10777TIP3    H253747   2.223   4.986   3.712
10778TIP3   OH253748   4.717   5.392   5.648
10778TIP3    H153749   4.720   5.384   5.553
10778TIP3    H253750   4.623   5.390   5.669
10779TIP3   OH253751   2.819   6.174  11.877
10779TIP3    H153752   2.739   6.133  11.845
10779TIP3    H253753   2.866   6.104  11.922
10780TIP3   OH253754   0.566   2.182  12.622
10780TIP3    H153755   0.643   2.126  12.634
10780TIP3    H253756   0.495   2.135  12.666
10781TIP3   OH253757   5.751   2.177  11.279
10781TIP3    H153758   5.800   2.133  11.349
10781TIP3    H253759   5.661   2.177  11.310
10782TIP3   OH253760   6.127   1.133   0.667
10782TIP3    H153761   6.143   1.057   0.611
10782TIP3    H253762   6.213   1.173   0.677
10783TIP3   OH253763   0.067   2.026   0.848
10783TIP3    H153764   0.133   2.057   0.786
10783TIP3    H253765   0.000   2.095   0.848
10784TIP3   OH253766   3.129   3.721   1.709
10784TIP3    H153767   3.178   3.769   1.642
10784TIP3    H253768   3.148   3.629   1.692
10785TIP3   OH253769   2.479   2.166   2.152
10785TIP3    H153770   2.404   2.222   2.135
10785TIP3    H253771   2.468   2.138   2.243
10786TIP3   OH253772   1.465   4.370   5.580
10786TIP3    H153773   1.421   4.286   5.597
10786TIP3    H253774   1.550   4.361   5.623
10787TIP3   OH253775   4.851   3.536   4.919
10787TIP3    H153776   4.764   3.554   4.883
10787TIP3    H253777   4.871   3.447   4.891
10788TIP3   OH253778   2.186   0.032  16.005
10788TIP3    H153779   2.231  -0.025  16.067
10788TIP3    H253780   2.151   0.103  16.059
10789TIP3   OH253781   3.995   4.462  10.878
10789TIP3    H153782   3.996   4.550  10.915
10789TIP3    H253783   4.067   4.461  10.816
10790TIP3   OH253784   3.373   2.212  16.877
10790TIP3    H153785   3.352   2.293  16.830
10790TIP3    H253786   3.455   2.182  16.837
10791TIP3   OH253787   2.113   5.692   4.484
10791TIP3    H153788   2.194   5.642   4.477
10791TIP3    H253789   2.043   5.627   4.476
10792TIP3   OH253790   4.102   6.634   0.187
10792TIP3    H153791   4.115   6.727   0.202
10792TIP3    H253792   4.177   6.608   0.133
10793TIP3   OH253793   1.271   0.990   5.184
10793TIP3    H153794   1.274   0.968   5.091
10793TIP3    H253795   1.356   1.030   5.202
10794TIP3   OH253796   3.337   1.658   1.598
10794TIP3    H153797   3.428   1.644   1.623
10794TIP3    H253798   3.299   1.570   1.597
10795TIP3   OH253799   1.228   1.319   4.352
10795TIP3    H153800   1.268   1.406   4.357
10795TIP3    H253801   1.148   1.326   4.404
10796TIP3   OH253802   4.734   0.352   5.391
10796TIP3    H153803   4.683   0.310   5.461
10796TIP3    H253804   4.678   0.422   5.358
10797TIP3   OH253805   6.329   2.432   2.143
10797TIP3    H153806   6.289   2.460   2.060
10797TIP3    H253807   6.408   2.484   2.151
10798TIP3   OH253808   4.792   6.005   3.132
10798TIP3    H153809   4.872   6.043   3.168
10798TIP3    H253810   4.763   6.068   3.066
10799TIP3   OH253811   3.545   3.090   3.770
10799TIP3    H153812   3.591   3.016   3.730
10799TIP3    H253813   3.598   3.167   3.748
10800TIP3   OH253814   1.692   6.456  12.673
10800TIP3    H153815   1.632   6.515  12.718
10800TIP3    H253816   1.722   6.396  12.742
10801TIP3   OH253817   1.244   2.493  14.654
10801TIP3    H153818   1.329   2.452  14.667
10801TIP3    H253819   1.196   2.431  14.599
10802TIP3   OH253820   3.336   1.428  12.914
10802TIP3    H153821   3.291   1.510  12.895
10802TIP3    H253822   3.349   1.387  12.828
10803TIP3   OH253823   6.249   5.756  12.208
10803TIP3    H153824   6.221   5.844  12.181
10803TIP3    H253825   6.260   5.708  12.125
10804TIP3   OH253826   4.294   5.154  14.864
10804TIP3    H153827   4.305   5.249  14.862
10804TIP3    H253828   4.204   5.141  14.894
10805TIP3   OH253829   2.472   0.705   5.559
10805TIP3    H153830   2.520   0.717   5.640
10805TIP3    H253831   2.382   0.732   5.579
10806TIP3   OH253832   3.594   5.046   1.967
10806TIP3    H153833   3.548   5.067   2.049
10806TIP3    H253834   3.669   4.994   1.995
10807TIP3   OH253835   4.263   3.706  11.711
10807TIP3    H153836   4.332   3.686  11.774
10807TIP3    H253837   4.303   3.768  11.650
10808TIP3   OH253838   3.815   3.705   5.620
10808TIP3    H153839   3.751   3.769   5.590
10808TIP3    H253840   3.897   3.733   5.579
10809TIP3   OH253841   1.400   5.418   3.485
10809TIP3    H153842   1.462   5.428   3.557
10809TIP3    H253843   1.426   5.336   3.443
10810TIP3   OH253844   3.937   1.966   2.915
10810TIP3    H153845   3.879   1.988   2.842
10810TIP3    H253846   3.898   2.010   2.991
10811TIP3   OH253847   4.177   3.022   1.697
10811TIP3    H153848   4.132   3.038   1.780
10811TIP3    H253849   4.210   2.933   1.705
10812TIP3   OH253850   6.253   5.733  14.971
10812TIP3    H153851   6.248   5.676  14.893
10812TIP3    H253852   6.328   5.700  15.020
10813TIP3   OH253853   0.520   0.984   5.133
10813TIP3    H153854   0.518   1.050   5.203
10813TIP3    H253855   0.478   1.027   5.059
10814TIP3   OH253856   5.455   2.897   6.332
10814TIP3    H153857   5.370   2.917   6.372
10814TIP3    H253858   5.454   2.802   6.322
10815TIP3   OH253859   1.747   1.595   0.724
10815TIP3    H153860   1.778   1.635   0.643
10815TIP3    H253861   1.715   1.509   0.698
10816TIP3   OH253862   1.144   6.310   2.789
10816TIP3    H153863   1.107   6.282   2.873
10816TIP3    H253864   1.224   6.259   2.780
10817TIP3   OH253865   1.082   2.546  16.758
10817TIP3    H153866   1.042   2.625  16.723
10817TIP3    H253867   1.082   2.559  16.853
10818TIP3   OH253868   5.434   4.656   4.886
10818TIP3    H153869   5.393   4.638   4.971
10818TIP3    H253870   5.446   4.750   4.885
10819TIP3   OH253871   2.396   2.845  15.164
10819TIP3    H153872   2.398   2.825  15.071
10819TIP3    H253873   2.400   2.941  15.168
10820TIP3   OH253874   5.988   5.017   1.692
10820TIP3    H153875   5.897   5.023   1.665
10820TIP3    H253876   6.031   5.091   1.650
10821TIP3   OH253877   1.027   3.967   0.329
10821TIP3    H153878   0.995   3.900   0.270
10821TIP3    H253879   1.122   3.962   0.322
10822TIP3   OH253880   2.120   2.196   1.342
10822TIP3    H153881   2.210   2.225   1.326
10822TIP3    H253882   2.070   2.227   1.267
10823TIP3   OH253883   4.633   5.152   4.020
10823TIP3    H153884   4.715   5.111   4.047
10823TIP3    H253885   4.572   5.132   4.091
10824TIP3   OH253886   2.469   3.801  13.315
10824TIP3    H153887   2.386   3.848  13.320
10824TIP3    H253888   2.457   3.724  13.369
10825TIP3   OH253889   4.957   2.137  13.386
10825TIP3    H153890   4.917   2.050  13.380
10825TIP3    H253891   4.885   2.194  13.413
10826TIP3   OH253892   2.259   5.824   2.241
10826TIP3    H153893   2.263   5.910   2.282
10826TIP3    H253894   2.203   5.836   2.164
10827TIP3   OH253895   3.508   4.273  16.190
10827TIP3    H153896   3.443   4.314  16.246
10827TIP3    H253897   3.541   4.199  16.241
10828TIP3   OH253898   4.722   4.716  10.772
10828TIP3    H153899   4.795   4.778  10.770
10828TIP3    H253900   4.764   4.630  10.774
10829TIP3   OH253901   6.422   6.463  15.386
10829TIP3    H153902   6.429   6.554  15.416
10829TIP3    H253903   6.345   6.463  15.329
10830TIP3   OH253904   6.055   1.509  17.035
10830TIP3    H153905   6.049   1.514  17.131
10830TIP3    H253906   6.005   1.431  17.012
10831TIP3   OH253907   1.021   1.469   3.024
10831TIP3    H153908   0.927   1.468   3.008
10831TIP3    H253909   1.030   1.516   3.108
10832TIP3   OH253910   5.309   3.264  15.075
10832TIP3    H153911   5.393   3.290  15.112
10832TIP3    H253912   5.316   3.286  14.982
10833TIP3   OH253913   2.053   2.376   6.388
10833TIP3    H153914   2.032   2.296   6.436
10833TIP3    H253915   2.064   2.443   6.455
10834TIP3   OH253916   3.348   4.433   5.771
10834TIP3    H153917   3.433   4.445   5.728
10834TIP3    H253918   3.369   4.390   5.854
10835TIP3   OH253919   0.618   2.841   4.352
10835TIP3    H153920   0.581   2.927   4.337
10835TIP3    H253921   0.676   2.826   4.277
10836TIP3   OH253922   5.096   6.214  12.079
10836TIP3    H153923   5.115   6.216  12.173
10836TIP3    H253924   5.020   6.156  12.072
10837TIP3   OH253925   2.130   3.225   4.375
10837TIP3    H153926   2.168   3.138   4.381
10837TIP3    H253927   2.206   3.284   4.379
10838TIP3   OH253928   5.642   3.070  10.904
10838TIP3    H153929   5.693   2.997  10.940
10838TIP3    H253930   5.666   3.145  10.958
10839TIP3   OH253931   5.693   2.947   6.223
10839TIP3    H153932   5.629   2.889   6.263
10839TIP3    H253933   5.772   2.893   6.215
10840TIP3   OH253934   3.061   3.756  11.276
10840TIP3    H153935   3.005   3.695  11.229
10840TIP3    H253936   3.045   3.737  11.368
10841TIP3   OH253937   5.047   3.120  13.113
10841TIP3    H153938   5.062   3.195  13.055
10841TIP3    H253939   5.028   3.047  13.053
10842TIP3   OH253940   6.750   5.685  16.487
10842TIP3    H153941   6.732   5.768  16.444
10842TIP3    H253942   6.827   5.651  16.440
10843TIP3   OH253943   6.429   1.424   6.389
10843TIP3    H153944   6.519   1.455   6.385
10843TIP3    H253945   6.434   1.333   6.360
10844TIP3   OH253946   4.085   5.953   2.165
10844TIP3    H153947   4.116   6.040   2.192
10844TIP3    H253948   4.136   5.933   2.086
10845TIP3   OH253949   5.797   4.011   3.826
10845TIP3    H153950   5.878   4.057   3.801
10845TIP3    H253951   5.775   4.048   3.912
10846TIP3   OH253952   4.470   4.396   1.115
10846TIP3    H153953   4.483   4.367   1.025
10846TIP3    H253954   4.527   4.339   1.167
10847TIP3   OH253955   0.044   6.055   2.669
10847TIP3    H153956   0.104   6.027   2.599
10847TIP3    H253957   0.049   6.151   2.667
10848TIP3   OH253958   2.151   4.974  11.973
10848TIP3    H153959   2.185   4.942  12.057
10848TIP3    H253960   2.144   4.895  11.919
10849TIP3   OH253961   2.449   3.532   5.403
10849TIP3    H153962   2.367   3.541   5.451
10849TIP3    H253963   2.516   3.529   5.470
10850TIP3   OH253964   0.041   0.074  13.110
10850TIP3    H153965   0.074  -0.013  13.132
10850TIP3    H253966   0.095   0.102  13.036
10851TIP3   OH253967   2.504   1.146  13.657
10851TIP3    H153968   2.483   1.193  13.577
10851TIP3    H253969   2.420   1.135  13.701
10852TIP3   OH253970   5.580   4.434   5.271
10852TIP3    H153971   5.588   4.529   5.266
10852TIP3    H253972   5.507   4.413   5.213
10853TIP3   OH253973   1.677   5.514   1.674
10853TIP3    H153974   1.648   5.592   1.722
10853TIP3    H253975   1.694   5.449   1.742
10854TIP3   OH253976   2.653   2.456  13.137
10854TIP3    H153977   2.590   2.527  13.131
10854TIP3    H253978   2.738   2.498  13.120
10855TIP3   OH253979   6.619   3.552  13.789
10855TIP3    H153980   6.615   3.636  13.836
10855TIP3    H253981   6.709   3.522  13.802
10856TIP3   OH253982   6.312   6.133  13.990
10856TIP3    H153983   6.222   6.102  13.995
10856TIP3    H253984   6.338   6.149  14.081
10857TIP3   OH253985   5.466   6.019  14.241
10857TIP3    H153986   5.378   6.007  14.204
10857TIP3    H253987   5.458   5.983  14.330
10858TIP3   OH253988   2.130   3.109   3.187
10858TIP3    H153989   2.123   3.197   3.149
10858TIP3    H253990   2.184   3.121   3.265
10859TIP3   OH253991   6.595   3.038   4.379
10859TIP3    H153992   6.554   2.992   4.306
10859TIP3    H253993   6.643   2.970   4.427
10860TIP3   OH253994   2.466   1.607  12.193
10860TIP3    H153995   2.375   1.628  12.171
10860TIP3    H253996   2.512   1.611  12.109
10861TIP3   OH253997   3.396   4.772   4.293
10861TIP3    H153998   3.482   4.809   4.274
10861TIP3    H253999   3.398   4.755   4.387
10862TIP3   OH254000   0.079   4.468  15.496
10862TIP3    H154001  -0.003   4.489  15.453
10862TIP3    H254002   0.147   4.505  15.440
10863TIP3   OH254003   1.262   0.276  13.658
10863TIP3    H154004   1.316   0.322  13.723
10863TIP3    H254005   1.197   0.229  13.710
10864TIP3   OH254006   1.501   6.660   2.699
10864TIP3    H154007   1.475   6.570   2.719
10864TIP3    H254008   1.516   6.700   2.785
10865TIP3   OH254009   1.131   2.969  12.440
10865TIP3    H154010   1.101   3.059  12.443
10865TIP3    H254011   1.066   2.924  12.384
10866TIP3   OH254012   0.168   2.887   0.737
10866TIP3    H154013   0.215   2.945   0.677
10866TIP3    H254014   0.089   2.863   0.689
10867TIP3   OH254015   1.225   1.172  11.718
10867TIP3    H154016   1.250   1.102  11.658
10867TIP3    H254017   1.223   1.251  11.664
10868TIP3   OH254018   0.453   0.316  16.293
10868TIP3    H154019   0.413   0.264  16.363
10868TIP3    H254020   0.493   0.252  16.235
10869TIP3   OH254021   4.349   5.790  12.424
10869TIP3    H154022   4.423   5.738  12.455
10869TIP3    H254023   4.381   5.881  12.425
10870TIP3   OH254024   0.072   3.169  15.173
10870TIP3    H154025   0.042   3.161  15.264
10870TIP3    H254026   0.136   3.240  15.175
10871TIP3   OH254027   3.630   2.208  17.170
10871TIP3    H154028   3.666   2.296  17.173
10871TIP3    H254029   3.703   2.151  17.195
10872TIP3   OH254030   6.306   6.506  14.627
10872TIP3    H154031   6.386   6.532  14.674
10872TIP3    H254032   6.236   6.556  14.670
10873TIP3   OH254033   6.740   1.056   0.167
10873TIP3    H154034   6.744   1.141   0.209
10873TIP3    H254035   6.655   1.055   0.123
10874TIP3   OH254036   4.567   1.950  10.906
10874TIP3    H154037   4.613   1.983  10.828
10874TIP3    H254038   4.561   1.855  10.892
10875TIP3   OH254039   4.217   0.858  12.328
10875TIP3    H154040   4.265   0.926  12.281
10875TIP3    H254041   4.260   0.853  12.413
10876TIP3   OH254042   6.368   4.819  16.126
10876TIP3    H154043   6.301   4.843  16.190
10876TIP3    H254044   6.410   4.741  16.164
10877TIP3   OH254045   0.649   4.198   2.839
10877TIP3    H154046   0.638   4.280   2.790
10877TIP3    H254047   0.733   4.207   2.883
10878TIP3   OH254048   3.546   3.608   1.494
10878TIP3    H154049   3.465   3.625   1.447
10878TIP3    H254050   3.596   3.551   1.436
10879TIP3   OH254051   6.069   3.381  16.783
10879TIP3    H154052   6.069   3.287  16.765
10879TIP3    H254053   6.099   3.388  16.874
10880TIP3   OH254054   1.089   0.050   5.394
10880TIP3    H154055   1.087   0.102   5.314
10880TIP3    H254056   0.998   0.049   5.425
10881TIP3   OH254057   6.473   4.969  13.079
10881TIP3    H154058   6.495   5.052  13.037
10881TIP3    H254059   6.388   4.984  13.119
10882TIP3   OH254060   2.630   4.220  15.758
10882TIP3    H154061   2.559   4.169  15.797
10882TIP3    H254062   2.591   4.305  15.738
10883TIP3   OH254063   1.800   5.947  13.275
10883TIP3    H154064   1.750   6.027  13.293
10883TIP3    H254065   1.848   5.967  13.194
10884TIP3   OH254066   0.419   0.667   5.087
10884TIP3    H154067   0.441   0.745   5.036
10884TIP3    H254068   0.430   0.594   5.026
10885TIP3   OH254069   1.318   3.305  11.061
10885TIP3    H154070   1.399   3.352  11.081
10885TIP3    H254071   1.273   3.361  10.997
10886TIP3   OH254072   2.071   1.320  10.456
10886TIP3    H154073   2.102   1.408  10.477
10886TIP3    H254074   2.146   1.278  10.414
10887TIP3   OH254075   6.395   4.626   4.292
10887TIP3    H154076   6.362   4.585   4.372
10887TIP3    H254077   6.389   4.558   4.225
10888TIP3   OH254078   2.943   6.037   0.288
10888TIP3    H154079   2.945   6.112   0.347
10888TIP3    H254080   2.968   6.073   0.203
10889TIP3   OH254081   2.062   6.307   5.868
10889TIP3    H154082   2.003   6.380   5.849
10889TIP3    H254083   2.005   6.232   5.878
10890TIP3   OH254084   6.233   6.575   1.814
10890TIP3    H154085   6.295   6.555   1.744
10890TIP3    H254086   6.282   6.630   1.875
10891TIP3   OH254087   1.524   4.308   4.981
10891TIP3    H154088   1.570   4.240   4.931
10891TIP3    H254089   1.529   4.278   5.072
10892TIP3   OH254090   5.508   3.505   3.279
10892TIP3    H154091   5.537   3.428   3.328
10892TIP3    H254092   5.531   3.485   3.188
10893TIP3   OH254093   6.686   4.674   4.157
10893TIP3    H154094   6.718   4.704   4.071
10893TIP3    H254095   6.606   4.725   4.172
10894TIP3   OH254096   4.547   6.742  15.556
10894TIP3    H154097   4.513   6.697  15.633
10894TIP3    H254098   4.563   6.673  15.492
10895TIP3   OH254099   1.475   0.525  13.780
10895TIP3    H154100   1.427   0.604  13.804
10895TIP3    H254101   1.480   0.474  13.861
10896TIP3   OH254102   6.705   2.374   6.512
10896TIP3    H154103   6.727   2.466   6.523
10896TIP3    H254104   6.625   2.362   6.563
10897TIP3   OH254105   6.501   0.600   3.426
10897TIP3    H154106   6.462   0.609   3.340
10897TIP3    H254107   6.440   0.644   3.485
10898TIP3   OH254108   1.807   1.530   2.481
10898TIP3    H154109   1.720   1.490   2.489
10898TIP3    H254110   1.867   1.456   2.484
10899TIP3   OH254111   3.052   5.444   1.513
10899TIP3    H154112   3.097   5.528   1.508
10899TIP3    H254113   2.965   5.465   1.546
10900TIP3   OH254114   6.744   2.652   6.577
10900TIP3    H154115   6.778   2.739   6.555
10900TIP3    H254116   6.657   2.668   6.613
10901TIP3   OH254117   5.737   3.830  16.492
10901TIP3    H154118   5.709   3.881  16.416
10901TIP3    H254119   5.804   3.770  16.458
10902TIP3   OH254120   4.233   4.196  14.128
10902TIP3    H154121   4.171   4.129  14.098
10902TIP3    H254122   4.182   4.250  14.188
10903TIP3   OH254123   3.007   3.711   6.068
10903TIP3    H154124   3.027   3.699   6.161
10903TIP3    H254125   3.012   3.806   6.055
10904TIP3   OH254126   2.443   6.746   4.125
10904TIP3    H154127   2.447   6.652   4.142
10904TIP3    H254128   2.468   6.755   4.033
10905TIP3   OH254129   1.331   0.691  15.441
10905TIP3    H154130   1.390   0.623  15.407
10905TIP3    H254131   1.280   0.718  15.365
10906TIP3   OH254132   4.328   1.155  12.997
10906TIP3    H154133   4.380   1.185  13.072
10906TIP3    H254134   4.387   1.159  12.923
10907TIP3   OH254135   0.822   4.671  11.516
10907TIP3    H154136   0.751   4.725  11.482
10907TIP3    H254137   0.874   4.731  11.570
10908TIP3   OH254138   0.021   3.351  17.032
10908TIP3    H154139   0.053   3.349  17.122
10908TIP3    H254140   0.075   3.286  16.986
10909TIP3   OH254141   3.546   0.277  16.234
10909TIP3    H154142   3.463   0.237  16.209
10909TIP3    H254143   3.556   0.350  16.173
10910TIP3   OH254144   6.618   3.695   0.911
10910TIP3    H154145   6.579   3.611   0.936
10910TIP3    H254146   6.632   3.741   0.994
10911TIP3   OH254147   6.198   4.222   2.450
10911TIP3    H154148   6.283   4.259   2.474
10911TIP3    H254149   6.153   4.210   2.534
10912TIP3   OH254150   4.108   3.469  17.014
10912TIP3    H154151   4.133   3.429  17.098
10912TIP3    H254152   4.155   3.417  16.948
10913TIP3   OH254153   6.455   6.301  16.690
10913TIP3    H154154   6.482   6.295  16.781
10913TIP3    H254155   6.518   6.361  16.650
10914TIP3   OH254156   4.804   2.331   5.700
10914TIP3    H154157   4.898   2.345   5.693
10914TIP3    H254158   4.769   2.415   5.730
10915TIP3   OH254159   0.836   0.003  15.054
10915TIP3    H154160   0.881  -0.080  15.070
10915TIP3    H254161   0.764  -0.020  14.995
10916TIP3   OH254162   4.524   3.268  13.061
10916TIP3    H154163   4.458   3.317  13.011
10916TIP3    H254164   4.553   3.329  13.129
10917TIP3   OH254165   0.421   2.022   1.417
10917TIP3    H154166   0.467   2.026   1.501
10917TIP3    H254167   0.469   1.957   1.366
10918TIP3   OH254168   2.760   2.840  13.388
10918TIP3    H154169   2.803   2.875  13.466
10918TIP3    H254170   2.785   2.748  13.387
10919TIP3   OH254171   5.144   6.448  16.551
10919TIP3    H154172   5.178   6.411  16.632
10919TIP3    H254173   5.060   6.402  16.537
10920TIP3   OH254174   1.661   4.924   4.943
10920TIP3    H154175   1.672   5.003   4.891
10920TIP3    H254176   1.588   4.944   5.002
10921TIP3   OH254177   5.335   4.890   3.909
10921TIP3    H154178   5.343   4.961   3.973
10921TIP3    H254179   5.404   4.908   3.845
10922TIP3   OH254180   3.392   4.356   3.617
10922TIP3    H154181   3.336   4.373   3.693
10922TIP3    H254182   3.332   4.320   3.551
10923TIP3   OH254183   0.781   2.929  15.057
10923TIP3    H154184   0.752   2.839  15.066
10923TIP3    H254185   0.827   2.932  14.974
10924TIP3   OH254186   4.668   6.491  16.114
10924TIP3    H154187   4.656   6.483  16.209
10924TIP3    H254188   4.715   6.574  16.103
10925TIP3   OH254189   2.409   6.312   4.518
10925TIP3    H154190   2.369   6.272   4.441
10925TIP3    H254191   2.377   6.402   4.519
10926TIP3   OH254192   0.429   2.329   4.367
10926TIP3    H154193   0.439   2.234   4.372
10926TIP3    H254194   0.460   2.361   4.452
10927TIP3   OH254195   5.315   1.607   1.458
10927TIP3    H154196   5.272   1.592   1.374
10927TIP3    H254197   5.339   1.520   1.489
10928TIP3   OH254198   4.415   2.298  13.287
10928TIP3    H154199   4.346   2.361  13.309
10928TIP3    H254200   4.416   2.295  13.192
10929TIP3   OH254201   1.129   0.376  16.646
10929TIP3    H154202   1.065   0.342  16.709
10929TIP3    H254203   1.122   0.471  16.654
10930TIP3   OH254204   2.227   2.158  13.928
10930TIP3    H154205   2.230   2.169  13.833
10930TIP3    H254206   2.298   2.096  13.947
10931TIP3   OH254207   5.021   3.892   4.474
10931TIP3    H154208   5.081   3.899   4.400
10931TIP3    H254209   5.020   3.798   4.494
10932TIP3   OH254210   6.173   3.207   1.499
10932TIP3    H154211   6.234   3.277   1.522
10932TIP3    H254212   6.165   3.155   1.579
10933TIP3   OH254213   1.768   2.924   3.387
10933TIP3    H154214   1.802   2.995   3.332
10933TIP3    H254215   1.777   2.845   3.333
10934TIP3   OH254216   4.447   1.334   5.888
10934TIP3    H154217   4.452   1.323   5.793
10934TIP3    H254218   4.537   1.351   5.916
10935TIP3   OH254219   6.301   0.761  15.014
10935TIP3    H154220   6.328   0.673  15.038
10935TIP3    H254221   6.309   0.811  15.096
10936TIP3   OH254222   2.151   6.727   4.513
10936TIP3    H154223   2.221   6.793   4.512
10936TIP3    H254224   2.070   6.777   4.506
10937TIP3   OH254225   2.395   2.272  17.180
10937TIP3    H154226   2.471   2.257  17.236
10937TIP3    H254227   2.432   2.298  17.096
10938TIP3   OH254228   6.400   3.300   0.424
10938TIP3    H154229   6.420   3.347   0.505
10938TIP3    H254230   6.475   3.242   0.410
10939TIP3   OH254231   1.350   3.740   4.425
10939TIP3    H154232   1.399   3.755   4.506
10939TIP3    H254233   1.346   3.645   4.416
10940TIP3   OH254234   0.854   2.106   5.124
10940TIP3    H154235   0.841   2.181   5.065
10940TIP3    H254236   0.804   2.129   5.203
10941TIP3   OH254237   0.732   3.633   2.002
10941TIP3    H154238   0.754   3.695   2.071
10941TIP3    H254239   0.722   3.686   1.923
10942TIP3   OH254240   6.141   3.570  12.591
10942TIP3    H154241   6.064   3.602  12.639
10942TIP3    H254242   6.180   3.649  12.553
10943TIP3   OH254243   0.497   1.481  15.924
10943TIP3    H154244   0.415   1.499  15.971
10943TIP3    H254245   0.473   1.489  15.832
10944TIP3   OH254246   4.047   2.446  14.352
10944TIP3    H154247   4.098   2.433  14.431
10944TIP3    H254248   4.048   2.360  14.308
10945TIP3   OH254249   2.588   4.147   1.433
10945TIP3    H154250   2.512   4.198   1.461
10945TIP3    H254251   2.653   4.213   1.407
10946TIP3   OH254252   5.372   4.300  17.064
10946TIP3    H154253   5.305   4.284  16.997
10946TIP3    H254254   5.446   4.334  17.015
10947TIP3   OH254255   6.688   2.122  14.200
10947TIP3    H154256   6.633   2.168  14.137
10947TIP3    H254257   6.777   2.151  14.179
10948TIP3   OH254258   4.723   0.151  12.568
10948TIP3    H154259   4.754   0.078  12.622
10948TIP3    H254260   4.804   0.194  12.538
10949TIP3   OH254261   2.403   6.103  11.328
10949TIP3    H154262   2.365   6.165  11.391
10949TIP3    H254263   2.413   6.154  11.248
10950TIP3   OH254264   4.368   4.217  12.555
10950TIP3    H154265   4.296   4.162  12.525
10950TIP3    H254266   4.326   4.297  12.586
10951TIP3   OH254267   5.672   3.066  14.822
10951TIP3    H154268   5.758   3.023  14.826
10951TIP3    H254269   5.667   3.118  14.902
10952TIP3   OH254270   0.421   5.341   3.328
10952TIP3    H154271   0.419   5.360   3.234
10952TIP3    H254272   0.329   5.328   3.352
10953TIP3   OH254273   1.150   1.614   5.837
10953TIP3    H154274   1.208   1.538   5.840
10953TIP3    H254275   1.201   1.684   5.877
10954TIP3   OH254276   4.340   0.032   5.844
10954TIP3    H154277   4.389   0.091   5.786
10954TIP3    H254278   4.340   0.077   5.929
10955TIP3   OH254279   6.771   2.530  11.745
10955TIP3    H154280   6.685   2.497  11.772
10955TIP3    H254281   6.768   2.527  11.649
10956TIP3   OH254282   2.271   6.734  15.168
10956TIP3    H154283   2.256   6.757  15.076
10956TIP3    H254284   2.288   6.818  15.211
10957TIP3   OH254285   3.541   4.022  13.155
10957TIP3    H154286   3.621   4.042  13.203
10957TIP3    H254287   3.518   4.103  13.111
10958TIP3   OH254288   6.311   5.106   2.801
10958TIP3    H154289   6.347   5.022   2.830
10958TIP3    H254290   6.225   5.112   2.842
10959TIP3   OH254291   5.968   3.631   0.950
10959TIP3    H154292   5.957   3.546   0.907
10959TIP3    H254293   5.907   3.689   0.903
10960TIP3   OH254294   3.544   1.972  16.544
10960TIP3    H154295   3.462   2.014  16.518
10960TIP3    H254296   3.541   1.885  16.504
10961TIP3   OH254297   4.078   6.116   5.093
10961TIP3    H154298   4.164   6.076   5.089
10961TIP3    H254299   4.065   6.154   5.006
10962TIP3   OH254300   1.502   1.653  15.858
10962TIP3    H154301   1.529   1.742  15.882
10962TIP3    H254302   1.419   1.641  15.905
10963TIP3   OH254303   2.185   2.320  14.382
10963TIP3    H154304   2.195   2.412  14.358
10963TIP3    H254305   2.260   2.276  14.342
10964TIP3   OH254306   6.716   2.875   5.850
10964TIP3    H154307   6.660   2.927   5.792
10964TIP3    H254308   6.727   2.929   5.928
10965TIP3   OH254309   5.144   5.710  14.750
10965TIP3    H154310   5.148   5.644  14.820
10965TIP3    H254311   5.066   5.762  14.770
10966TIP3   OH254312   3.531   5.430  13.424
10966TIP3    H154313   3.592   5.502  13.441
10966TIP3    H254314   3.463   5.469  13.370
10967TIP3   OH254315   2.042   6.511  15.998
10967TIP3    H154316   2.129   6.549  16.000
10967TIP3    H254317   1.988   6.571  16.049
10968TIP3   OH254318   6.043   5.993  11.190
10968TIP3    H154319   6.009   6.082  11.186
10968TIP3    H254320   6.027   5.957  11.103
10969TIP3   OH254321   6.435   2.345  12.987
10969TIP3    H154322   6.481   2.400  13.050
10969TIP3    H254323   6.351   2.326  13.029
10970TIP3   OH254324   5.045   5.643   5.737
10970TIP3    H154325   5.116   5.585   5.764
10970TIP3    H254326   4.994   5.658   5.817
10971TIP3   OH254327   4.035   5.391   5.076
10971TIP3    H154328   4.007   5.482   5.079
10971TIP3    H254329   3.955   5.340   5.088
10972TIP3   OH254330   3.037   1.921   1.340
10972TIP3    H154331   2.979   1.886   1.272
10972TIP3    H254332   3.043   1.852   1.406
10973TIP3   OH254333   4.581   3.084   6.376
10973TIP3    H154334   4.565   3.033   6.455
10973TIP3    H254335   4.600   3.173   6.408
10974TIP3   OH254336   3.388   2.744   4.952
10974TIP3    H154337   3.402   2.717   5.042
10974TIP3    H254338   3.472   2.779   4.924
10975TIP3   OH254339   0.938   4.047  13.298
10975TIP3    H154340   1.002   4.043  13.370
10975TIP3    H254341   0.856   4.071  13.340
10976TIP3   OH254342   0.939   1.692   4.775
10976TIP3    H154343   0.980   1.746   4.843
10976TIP3    H254344   0.860   1.658   4.816
10977TIP3   OH254345   6.077   3.319  13.544
10977TIP3    H154346   6.020   3.340  13.618
10977TIP3    H254347   6.162   3.300  13.583
10978TIP3   OH254348   2.324   4.871  12.217
10978TIP3    H154349   2.404   4.841  12.176
10978TIP3    H254350   2.337   4.855  12.310
10979TIP3   OH254351   3.878   1.818   0.831
10979TIP3    H154352   3.956   1.773   0.799
10979TIP3    H254353   3.885   1.907   0.796
10980TIP3   OH254354   2.837   2.403   4.457
10980TIP3    H154355   2.925   2.408   4.420
10980TIP3    H254356   2.848   2.427   4.549
10981TIP3   OH254357   6.398   3.500  12.755
10981TIP3    H154358   6.388   3.479  12.848
10981TIP3    H254359   6.489   3.478  12.735
10982TIP3   OH254360   0.860   2.616   2.589
10982TIP3    H154361   0.914   2.628   2.667
10982TIP3    H254362   0.857   2.703   2.548
10983TIP3   OH254363   0.724   5.934  14.955
10983TIP3    H154364   0.724   5.842  14.981
10983TIP3    H254365   0.724   5.932  14.859
10984TIP3   OH254366   4.423   4.677  14.628
10984TIP3    H154367   4.459   4.595  14.664
10984TIP3    H254368   4.350   4.648  14.572
10985TIP3   OH254369   3.980   5.044   2.545
10985TIP3    H154370   3.942   5.088   2.620
10985TIP3    H254371   3.905   5.020   2.490
10986TIP3   OH254372   3.004   3.470   1.222
10986TIP3    H154373   3.016   3.482   1.316
10986TIP3    H254374   3.072   3.407   1.198
10987TIP3   OH254375   0.034   0.994  14.197
10987TIP3    H154376   0.049   1.053  14.271
10987TIP3    H254377   0.048   1.048  14.120
10988TIP3   OH254378   3.410   1.912  10.920
10988TIP3    H154379   3.434   2.000  10.948
10988TIP3    H254380   3.480   1.856  10.952
10989TIP3   OH254381   4.067   3.709   3.796
10989TIP3    H154382   3.998   3.665   3.748
10989TIP3    H254383   4.022   3.772   3.852
10990TIP3   OH254384   3.398   2.597   3.432
10990TIP3    H154385   3.311   2.616   3.468
10990TIP3    H254386   3.430   2.524   3.484
10991TIP3   OH254387   2.267   3.861  13.742
10991TIP3    H154388   2.205   3.793  13.718
10991TIP3    H254389   2.351   3.816  13.747
10992TIP3   OH254390   6.045   4.533   1.376
10992TIP3    H154391   6.091   4.464   1.329
10992TIP3    H254392   6.059   4.511   1.468
10993TIP3   OH254393   3.848   2.610  13.357
10993TIP3    H154394   3.937   2.638  13.338
10993TIP3    H254395   3.804   2.613  13.272
10994TIP3   OH254396   5.179   5.485   6.101
10994TIP3    H154397   5.226   5.522   6.025
10994TIP3    H254398   5.155   5.561   6.154
10995TIP3   OH254399   4.773   2.510  16.131
10995TIP3    H154400   4.712   2.550  16.068
10995TIP3    H254401   4.842   2.575  16.142
10996TIP3   OH254402   1.392   5.096  13.150
10996TIP3    H154403   1.380   5.142  13.233
10996TIP3    H254404   1.325   5.027  13.151
10997TIP3   OH254405   4.496   2.671   5.899
10997TIP3    H154406   4.456   2.710   5.822
10997TIP3    H254407   4.541   2.744   5.942
10998TIP3   OH254408   6.144   0.063   6.476
10998TIP3    H154409   6.209   0.035   6.413
10998TIP3    H254410   6.126  -0.014   6.530
10999TIP3   OH254411   3.026   3.280   4.389
10999TIP3    H154412   2.934   3.292   4.410
10999TIP3    H254413   3.065   3.367   4.398
11000TIP3   OH254414   6.692   6.033  11.223
11000TIP3    H154415   6.653   5.955  11.263
11000TIP3    H254416   6.763   5.999  11.169
11001TIP3   OH254417   2.830   0.334  11.473
11001TIP3    H154418   2.739   0.361  11.461
11001TIP3    H254419   2.851   0.359  11.564
11002TIP3   OH254420   4.689   2.167   2.744
11002TIP3    H154421   4.728   2.168   2.657
11002TIP3    H254422   4.620   2.100   2.737
11003TIP3   OH254423   1.351   6.330  14.285
11003TIP3    H154424   1.433   6.377  14.297
11003TIP3    H254425   1.321   6.311  14.374
11004TIP3   OH254426   1.243   5.098  16.379
11004TIP3    H154427   1.154   5.069  16.360
11004TIP3    H254428   1.239   5.134  16.467
11005TIP3   OH254429   3.824   0.624   5.178
11005TIP3    H154430   3.765   0.564   5.133
11005TIP3    H254431   3.857   0.575   5.252
11006TIP3   OH254432   2.579   0.291  15.252
11006TIP3    H154433   2.541   0.332  15.174
11006TIP3    H254434   2.604   0.204  15.223
11007TIP3   OH254435   2.004   1.090  15.461
11007TIP3    H154436   2.059   1.168  15.465
11007TIP3    H254437   2.021   1.045  15.544
11008TIP3   OH254438   2.202   0.245   1.225
11008TIP3    H154439   2.256   0.324   1.219
11008TIP3    H254440   2.186   0.234   1.319
11009TIP3   OH254441   6.564   1.264   3.365
11009TIP3    H154442   6.540   1.288   3.276
11009TIP3    H254443   6.561   1.169   3.366
11010TIP3   OH254444   2.619   2.481  15.674
11010TIP3    H154445   2.658   2.564  15.701
11010TIP3    H254446   2.658   2.415  15.732
11011TIP3   OH254447   5.009   5.030  14.890
11011TIP3    H154448   5.075   5.096  14.913
11011TIP3    H254449   5.019   5.019  14.795
11012TIP3   OH254450   0.038   3.940   1.624
11012TIP3    H154451   0.088   4.010   1.581
11012TIP3    H254452  -0.051   3.974   1.628
11013TIP3   OH254453   5.851   4.230   4.387
11013TIP3    H154454   5.900   4.216   4.468
11013TIP3    H254455   5.853   4.325   4.373
11014TIP3   OH254456   1.972   1.812  17.150
11014TIP3    H154457   2.018   1.831  17.068
11014TIP3    H254458   1.893   1.766  17.123
11015TIP3   OH254459   6.182   4.474   2.299
11015TIP3    H154460   6.226   4.405   2.349
11015TIP3    H254461   6.135   4.526   2.364
11016TIP3   OH254462   6.729   0.422   4.252
11016TIP3    H154463   6.669   0.350   4.236
11016TIP3    H254464   6.689   0.497   4.208
11017TIP3   OH254465   1.442   0.727   5.797
11017TIP3    H154466   1.480   0.803   5.840
11017TIP3    H254467   1.388   0.686   5.865
11018TIP3   OH254468   1.069   5.506   0.449
11018TIP3    H154469   0.996   5.557   0.484
11018TIP3    H254470   1.028   5.428   0.411
11019TIP3   OH254471   2.961   5.824  14.639
11019TIP3    H154472   2.955   5.887  14.710
11019TIP3    H254473   2.884   5.769  14.649
11020TIP3   OH254474   6.464   6.229   2.669
11020TIP3    H154475   6.552   6.251   2.700
11020TIP3    H254476   6.426   6.178   2.741
11021TIP3   OH254477   4.153   0.930  16.420
11021TIP3    H154478   4.116   1.003  16.371
11021TIP3    H254479   4.151   0.856  16.359
11022TIP3   OH254480   3.619   2.992  11.381
11022TIP3    H154481   3.580   2.909  11.353
11022TIP3    H254482   3.671   3.020  11.305
11023TIP3   OH254483   2.375   4.259  14.694
11023TIP3    H154484   2.365   4.211  14.776
11023TIP3    H254485   2.386   4.190  14.628
11024TIP3   OH254486   3.069   1.646  14.909
11024TIP3    H154487   3.013   1.574  14.938
11024TIP3    H254488   3.115   1.611  14.833
11025TIP3   OH254489   0.666   1.472   5.826
11025TIP3    H154490   0.724   1.395   5.821
11025TIP3    H254491   0.724   1.543   5.853
11026TIP3   OH254492   3.723   3.527  16.184
11026TIP3    H154493   3.640   3.546  16.140
11026TIP3    H254494   3.720   3.579  16.264
11027TIP3   OH254495   1.640   6.251   1.806
11027TIP3    H154496   1.632   6.346   1.816
11027TIP3    H254497   1.550   6.219   1.816
11028TIP3   OH254498   2.055   2.065   6.044
11028TIP3    H154499   1.979   2.037   6.095
11028TIP3    H254500   2.077   1.990   5.989
11029TIP3   OH254501   1.244   4.873  12.312
11029TIP3    H154502   1.166   4.925  12.294
11029TIP3    H254503   1.297   4.929  12.369
11030TIP3   OH254504   0.057   6.491  15.650
11030TIP3    H154505   0.038   6.541  15.729
11030TIP3    H254506   0.055   6.400  15.679
11031TIP3   OH254507   3.219   3.174  15.230
11031TIP3    H154508   3.144   3.135  15.186
11031TIP3    H254509   3.211   3.268  15.213
11032TIP3   OH254510   6.321   5.878  15.914
11032TIP3    H154511   6.403   5.916  15.882
11032TIP3    H254512   6.346   5.832  15.994
11033TIP3   OH254513   2.915   1.074  13.289
11033TIP3    H154514   2.960   0.990  13.279
11033TIP3    H254515   2.930   1.099  13.380
11034TIP3   OH254516   0.431   1.250  11.567
11034TIP3    H154517   0.359   1.305  11.599
11034TIP3    H254518   0.507   1.307  11.570
11035TIP3   OH254519   0.725   5.487   2.574
11035TIP3    H154520   0.743   5.549   2.644
11035TIP3    H254521   0.718   5.402   2.618
11036TIP3   OH254522   0.750   5.435   3.721
11036TIP3    H154523   0.772   5.362   3.663
11036TIP3    H254524   0.683   5.484   3.674
11037TIP3   OH254525   6.492   4.583  13.434
11037TIP3    H154526   6.471   4.503  13.481
11037TIP3    H254527   6.467   4.565  13.343
11038TIP3   OH254528   0.031   3.067   2.020
11038TIP3    H154529  -0.038   3.130   2.044
11038TIP3    H254530  -0.016   2.998   1.972
11039TIP3   OH254531   2.784   3.494  14.884
11039TIP3    H154532   2.735   3.508  14.802
11039TIP3    H254533   2.759   3.569  14.939
11040TIP3   OH254534   3.980   4.024  13.533
11040TIP3    H154535   3.995   3.990  13.621
11040TIP3    H254536   3.911   4.090  13.545
11041TIP3   OH254537   3.623   1.590   0.112
11041TIP3    H154538   3.689   1.659   0.116
11041TIP3    H254539   3.541   1.633   0.137
11042TIP3   OH254540   5.155   3.532   6.210
11042TIP3    H154541   5.176   3.443   6.240
11042TIP3    H254542   5.101   3.569   6.279
11043TIP3   OH254543   4.361   1.730  15.132
11043TIP3    H154544   4.437   1.788  15.145
11043TIP3    H254545   4.376   1.658  15.193
11044TIP3   OH254546   1.576   0.507   1.811
11044TIP3    H154547   1.531   0.545   1.887
11044TIP3    H254548   1.631   0.577   1.778
11045TIP3   OH254549   4.555   5.491   0.264
11045TIP3    H154550   4.530   5.582   0.279
11045TIP3    H254551   4.476   5.440   0.281
11046TIP3   OH254552   4.454   0.037  12.883
11046TIP3    H154553   4.537   0.047  12.929
11046TIP3    H254554   4.388   0.059  12.949
11047TIP3   OH254555   5.613   5.280   3.927
11047TIP3    H154556   5.600   5.186   3.940
11047TIP3    H254557   5.584   5.297   3.838
11048TIP3   OH254558   1.259   3.154  15.543
11048TIP3    H154559   1.211   3.195  15.615
11048TIP3    H254560   1.192   3.137  15.476
11049TIP3   OH254561   4.037   3.710  17.221
11049TIP3    H154562   4.047   3.730  17.128
11049TIP3    H254563   4.120   3.736  17.260
11050TIP3   OH254564   2.748   2.902   3.067
11050TIP3    H154565   2.735   2.887   3.161
11050TIP3    H254566   2.767   2.815   3.031
11051TIP3   OH254567   1.181   0.357   0.744
11051TIP3    H154568   1.263   0.311   0.757
11051TIP3    H254569   1.118   0.289   0.720
11052TIP3   OH254570   3.873   3.616   2.094
11052TIP3    H154571   3.885   3.677   2.167
11052TIP3    H254572   3.960   3.609   2.054
11053TIP3   OH254573   5.358   4.163  11.984
11053TIP3    H154574   5.311   4.110  12.048
11053TIP3    H254575   5.443   4.121  11.976
11054TIP3   OH254576   2.782   0.145   3.867
11054TIP3    H154577   2.829   0.199   3.931
11054TIP3    H254578   2.689   0.166   3.881
11055TIP3   OH254579   3.926   3.149  13.989
11055TIP3    H154580   3.868   3.077  13.966
11055TIP3    H254581   4.014   3.115  13.973
11056TIP3   OH254582   6.575   3.700  16.345
11056TIP3    H154583   6.500   3.689  16.404
11056TIP3    H254584   6.582   3.617  16.298
11057TIP3   OH254585   0.903   4.538  16.340
11057TIP3    H154586   0.920   4.546  16.434
11057TIP3    H254587   0.917   4.445  16.321
11058TIP3   OH254588   3.767   5.272  12.787
11058TIP3    H154589   3.829   5.220  12.736
11058TIP3    H254590   3.784   5.247  12.878
11059TIP3   OH254591   2.798   5.161  14.648
11059TIP3    H154592   2.722   5.121  14.691
11059TIP3    H254593   2.770   5.176  14.558
11060TIP3   OH254594   2.242   2.125   5.467
11060TIP3    H154595   2.197   2.207   5.489
11060TIP3    H254596   2.323   2.153   5.423
11061TIP3   OH254597   2.896   3.691  15.769
11061TIP3    H154598   2.867   3.615  15.719
11061TIP3    H254599   2.943   3.744  15.705
11062TIP3   OH254600   2.303   4.550  12.118
11062TIP3    H154601   2.256   4.581  12.040
11062TIP3    H254602   2.394   4.579  12.105
11063TIP3   OH254603   5.678   0.659  12.268
11063TIP3    H154604   5.767   0.671  12.235
11063TIP3    H254605   5.622   0.695  12.199
11064TIP3   OH254606   1.640   4.175  12.603
11064TIP3    H154607   1.565   4.118  12.585
11064TIP3    H254608   1.648   4.174  12.699
11065TIP3   OH254609   4.908   3.618   1.496
11065TIP3    H154610   4.951   3.676   1.559
11065TIP3    H254611   4.834   3.670   1.464
11066TIP3   OH254612   2.288   2.390   4.440
11066TIP3    H154613   2.361   2.369   4.382
11066TIP3    H254614   2.327   2.393   4.528
11067TIP3   OH254615   1.865   5.920  14.599
11067TIP3    H154616   1.859   5.942  14.505
11067TIP3    H254617   1.786   5.870  14.616
11068TIP3   OH254618   6.145   0.206  14.836
11068TIP3    H154619   6.074   0.145  14.856
11068TIP3    H254620   6.115   0.253  14.758
11069TIP3   OH254621   5.026   0.005   2.491
11069TIP3    H154622   5.065   0.009   2.404
11069TIP3    H254623   5.080  -0.057   2.540
11070TIP3   OH254624   0.293   4.489   1.743
11070TIP3    H154625   0.351   4.432   1.693
11070TIP3    H254626   0.230   4.522   1.678
11071TIP3   OH254627   6.279   4.859   4.596
11071TIP3    H154628   6.367   4.885   4.624
11071TIP3    H254629   6.291   4.772   4.558
11072TIP3   OH254630   6.452   1.661   2.314
11072TIP3    H154631   6.365   1.625   2.331
11072TIP3    H254632   6.438   1.729   2.248
11073TIP3   OH254633   0.547   5.798   5.131
11073TIP3    H154634   0.521   5.710   5.161
11073TIP3    H254635   0.519   5.801   5.040
11074TIP3   OH254636   4.696   3.004  12.727
11074TIP3    H154637   4.701   2.908  12.731
11074TIP3    H254638   4.629   3.026  12.792
11075TIP3   OH254639   4.291   1.047  16.920
11075TIP3    H154640   4.301   1.141  16.933
11075TIP3    H254641   4.370   1.009  16.960
11076TIP3   OH254642   6.783   3.438  15.770
11076TIP3    H154643   6.724   3.413  15.841
11076TIP3    H254644   6.769   3.532  15.760
11077TIP3   OH254645   5.398   5.503   4.430
11077TIP3    H154646   5.331   5.451   4.474
11077TIP3    H254647   5.473   5.502   4.489
11078TIP3   OH254648   5.656   0.900   5.647
11078TIP3    H154649   5.665   0.807   5.669
11078TIP3    H254650   5.563   0.918   5.659
11079TIP3   OH254651   4.170   0.499   1.646
11079TIP3    H154652   4.087   0.493   1.599
11079TIP3    H254653   4.235   0.467   1.583
11080TIP3   OH254654   5.916   1.485   3.707
11080TIP3    H154655   5.854   1.519   3.642
11080TIP3    H254656   5.976   1.430   3.656
11081TIP3   OH254657   2.764   2.459   4.206
11081TIP3    H154658   2.758   2.479   4.299
11081TIP3    H254659   2.710   2.381   4.194
11082TIP3   OH254660   1.697   3.784   3.989
11082TIP3    H154661   1.790   3.806   3.988
11082TIP3    H254662   1.694   3.693   3.959
11083TIP3   OH254663   2.167   2.748  14.651
11083TIP3    H154664   2.170   2.725  14.743
11083TIP3    H254665   2.087   2.800  14.642
11084TIP3   OH254666   4.443   3.760   3.941
11084TIP3    H154667   4.440   3.695   4.011
11084TIP3    H254668   4.368   3.817   3.959
11085TIP3   OH254669   1.081   3.234  11.847
11085TIP3    H154670   1.039   3.311  11.810
11085TIP3    H254671   1.011   3.168  11.847
11086TIP3   OH254672   2.774   4.451   3.505
11086TIP3    H154673   2.747   4.474   3.416
11086TIP3    H254674   2.733   4.365   3.520
11087TIP3   OH254675   1.797   2.124  11.514
11087TIP3    H154676   1.891   2.139  11.499
11087TIP3    H254677   1.786   2.029  11.504
11088TIP3   OH254678   4.133   3.992   4.929
11088TIP3    H154679   4.140   3.992   5.025
11088TIP3    H254680   4.087   4.073   4.908
11089TIP3   OH254681   1.700   2.933   4.133
11089TIP3    H154682   1.761   2.965   4.200
11089TIP3    H254683   1.713   2.838   4.132
11090TIP3   OH254684   4.353   4.443  12.824
11090TIP3    H154685   4.319   4.476  12.907
11090TIP3    H254686   4.376   4.352  12.842
11091TIP3   OH254687   1.053   0.782  14.066
11091TIP3    H154688   0.959   0.776  14.079
11091TIP3    H254689   1.081   0.855  14.121
11092TIP3   OH254690   4.174   3.688   4.513
11092TIP3    H154691   4.105   3.745   4.547
11092TIP3    H254692   4.171   3.701   4.418
11093TIP3   OH254693   6.060   6.774   2.606
11093TIP3    H154694   6.019   6.706   2.659
11093TIP3    H254695   6.086   6.730   2.525
11094TIP3   OH254696   3.401   6.735   0.806
11094TIP3    H154697   3.451   6.754   0.885
11094TIP3    H254698   3.321   6.788   0.814
11095TIP3   OH254699   6.309   2.082  15.354
11095TIP3    H154700   6.380   2.130  15.397
11095TIP3    H254701   6.300   2.002  15.406
11096TIP3   OH254702   0.074   5.564  13.946
11096TIP3    H154703   0.045   5.485  13.990
11096TIP3    H254704   0.165   5.545  13.920
11097TIP3   OH254705   2.231   2.491  11.543
11097TIP3    H154706   2.265   2.574  11.512
11097TIP3    H254707   2.275   2.476  11.627
11098TIP3   OH254708   5.005   5.993  13.174
11098TIP3    H154709   5.031   5.909  13.135
11098TIP3    H254710   5.011   6.056  13.101
11099TIP3   OH254711   4.661   4.880  11.609
11099TIP3    H154712   4.576   4.876  11.567
11099TIP3    H254713   4.722   4.845  11.544
11100TIP3   OH254714   0.235   5.835  14.239
11100TIP3    H154715   0.206   5.858  14.151
11100TIP3    H254716   0.215   5.742  14.247
11101TIP3   OH254717   3.090   1.741   0.637
11101TIP3    H154718   3.148   1.669   0.660
11101TIP3    H254719   3.103   1.806   0.707
11102TIP3   OH254720   2.964   1.930  16.018
11102TIP3    H154721   2.931   1.861  15.960
11102TIP3    H254722   3.025   1.980  15.964
11103TIP3   OH254723   2.811   5.796  15.039
11103TIP3    H154724   2.786   5.886  15.061
11103TIP3    H254725   2.774   5.782  14.952
11104TIP3   OH254726   6.404   0.103  15.284
11104TIP3    H154727   6.374   0.076  15.198
11104TIP3    H254728   6.492   0.138  15.270
11105TIP3   OH254729   1.405   3.485  15.653
11105TIP3    H154730   1.472   3.535  15.607
11105TIP3    H254731   1.367   3.428  15.587
11106TIP3   OH254732   4.196   4.044  16.942
11106TIP3    H154733   4.160   4.130  16.923
11106TIP3    H254734   4.213   4.005  16.856
11107TIP3   OH254735   6.525   4.437  16.009
11107TIP3    H154736   6.439   4.449  15.970
11107TIP3    H254737   6.507   4.415  16.101
11108TIP3   OH254738   4.148   1.473  13.316
11108TIP3    H154739   4.117   1.383  13.322
11108TIP3    H254740   4.163   1.487  13.223
11109TIP3   OH254741   0.193   2.565   4.725
11109TIP3    H154742   0.145   2.482   4.723
11109TIP3    H254743   0.181   2.603   4.638
11110TIP3   OH254744   0.970   2.271   2.012
11110TIP3    H154745   0.944   2.208   2.080
11110TIP3    H254746   0.989   2.216   1.936
11111TIP3   OH254747   0.713   4.473   5.126
11111TIP3    H154748   0.770   4.425   5.066
11111TIP3    H254749   0.674   4.405   5.180
11112TIP3   OH254750   1.812   4.315   4.704
11112TIP3    H154751   1.716   4.311   4.697
11112TIP3    H254752   1.830   4.408   4.719
11113TIP3   OH254753   5.942   1.011  12.123
11113TIP3    H154754   5.939   1.078  12.055
11113TIP3    H254755   5.850   0.998  12.147
11114TIP3   OH254756   0.612   5.148   3.745
11114TIP3    H154757   0.668   5.165   3.670
11114TIP3    H254758   0.655   5.192   3.818
11115TIP3   OH254759   0.991   3.960  15.716
11115TIP3    H154760   1.042   3.906  15.777
11115TIP3    H254761   0.975   4.041  15.764
11116TIP3   OH254762   6.350   0.043  12.107
11116TIP3    H154763   6.278   0.099  12.136
11116TIP3    H254764   6.376  -0.006  12.184
11117TIP3   OH254765   5.384   0.139  11.752
11117TIP3    H154766   5.374   0.232  11.732
11117TIP3    H254767   5.424   0.137  11.839
11118TIP3   OH254768   2.202   0.567   1.224
11118TIP3    H154769   2.228   0.630   1.157
11118TIP3    H254770   2.208   0.616   1.306
11119TIP3   OH254771   6.176   4.211   4.198
11119TIP3    H154772   6.117   4.136   4.190
11119TIP3    H254773   6.191   4.220   4.292
11120TIP3   OH254774   5.125   4.099  14.668
11120TIP3    H154775   5.204   4.092  14.723
11120TIP3    H254776   5.094   4.188  14.684
11121TIP3   OH254777   1.999   5.144   5.845
11121TIP3    H154778   2.005   5.061   5.891
11121TIP3    H254779   2.060   5.136   5.772
11122TIP3   OH254780   2.784   3.141  15.859
11122TIP3    H154781   2.730   3.065  15.878
11122TIP3    H254782   2.850   3.109  15.797
11123TIP3   OH254783   1.766   3.589   2.343
11123TIP3    H154784   1.786   3.508   2.391
11123TIP3    H254785   1.848   3.612   2.299
11124TIP3   OH254786   6.214   1.277  14.825
11124TIP3    H154787   6.140   1.217  14.831
11124TIP3    H254788   6.188   1.353  14.877
11125TIP3   OH254789   1.176   6.708   5.647
11125TIP3    H154790   1.218   6.766   5.583
11125TIP3    H254791   1.087   6.742   5.656
11126TIP3   OH254792   5.067   1.024   1.901
11126TIP3    H154793   5.137   1.067   1.950
11126TIP3    H254794   5.105   1.008   1.814
11127TIP3   OH254795   2.251   5.619  16.272
11127TIP3    H154796   2.265   5.710  16.247
11127TIP3    H254797   2.182   5.587  16.214
11128TIP3   OH254798   5.073   4.371   0.586
11128TIP3    H154799   5.088   4.427   0.509
11128TIP3    H254800   5.101   4.284   0.557
11129TIP3   OH254801   4.630   0.645  15.912
11129TIP3    H154802   4.695   0.708  15.944
11129TIP3    H254803   4.560   0.647  15.978
11130TIP3   OH254804   3.421   1.933   3.192
11130TIP3    H154805   3.502   1.899   3.153
11130TIP3    H254806   3.376   1.855   3.226
11131TIP3   OH254807   6.198   2.240  11.649
11131TIP3    H154808   6.140   2.305  11.688
11131TIP3    H254809   6.185   2.249  11.555
11132TIP3   OH254810   2.155   5.868   1.938
11132TIP3    H154811   2.230   5.875   1.880
11132TIP3    H254812   2.081   5.848   1.881
11133TIP3   OH254813   5.148   1.292  13.569
11133TIP3    H154814   5.220   1.324  13.623
11133TIP3    H254815   5.073   1.288  13.628
11134TIP3   OH254816   0.573   6.214  12.984
11134TIP3    H154817   0.588   6.300  13.022
11134TIP3    H254818   0.594   6.153  13.055
11135TIP3   OH254819   5.871   2.586  11.680
11135TIP3    H154820   5.908   2.500  11.664
11135TIP3    H254821   5.828   2.610  11.598
11136TIP3   OH254822   6.464   4.455   2.834
11136TIP3    H154823   6.493   4.514   2.903
11136TIP3    H254824   6.371   4.476   2.822
11137TIP3   OH254825   3.717   1.835  11.793
11137TIP3    H154826   3.737   1.806  11.882
11137TIP3    H254827   3.721   1.754  11.741
11138TIP3   OH254828   0.118   3.978  12.756
11138TIP3    H154829   0.164   4.046  12.707
11138TIP3    H254830   0.158   3.980  12.843
11139TIP3   OH254831   1.753   3.502  11.394
11139TIP3    H154832   1.761   3.419  11.443
11139TIP3    H254833   1.803   3.487  11.314
11140TIP3   OH254834   0.877   1.690   5.853
11140TIP3    H154835   0.962   1.665   5.815
11140TIP3    H254836   0.898   1.720   5.941
11141TIP3   OH254837   2.297   6.217   2.518
11141TIP3    H154838   2.386   6.190   2.539
11141TIP3    H254839   2.298   6.228   2.423
11142TIP3   OH254840   4.376   2.200  11.501
11142TIP3    H154841   4.392   2.228  11.411
11142TIP3    H254842   4.424   2.262  11.555
11143TIP3   OH254843   5.416   4.696   4.126
11143TIP3    H154844   5.394   4.733   4.040
11143TIP3    H254845   5.362   4.745   4.188
11144TIP3   OH254846   5.332   0.381  13.551
11144TIP3    H154847   5.307   0.474  13.558
11144TIP3    H254848   5.301   0.355  13.464
11145TIP3   OH254849   0.746   1.403  13.086
11145TIP3    H154850   0.654   1.380  13.102
11145TIP3    H254851   0.790   1.319  13.076
11146TIP3   OH254852   6.216   2.359   2.731
11146TIP3    H154853   6.172   2.416   2.669
11146TIP3    H254854   6.211   2.405   2.815
11147TIP3   OH254855   3.784   1.124  11.780
11147TIP3    H154856   3.865   1.171  11.798
11147TIP3    H254857   3.729   1.141  11.855
11148TIP3   OH254858   3.126   6.518  13.665
11148TIP3    H154859   3.040   6.562  13.663
11148TIP3    H254860   3.145   6.507  13.758
11149TIP3   OH254861   3.619   3.056   2.462
11149TIP3    H154862   3.626   3.150   2.476
11149TIP3    H254863   3.702   3.021   2.492
11150TIP3   OH254864   2.851   0.140  16.272
11150TIP3    H154865   2.756   0.135  16.275
11150TIP3    H254866   2.878   0.059  16.230
11151TIP3   OH254867   6.000   0.048  11.318
11151TIP3    H154868   6.052   0.100  11.380
11151TIP3    H254869   5.965   0.113  11.257
11152TIP3   OH254870   1.042   4.199   1.302
11152TIP3    H154871   0.968   4.159   1.346
11152TIP3    H254872   1.119   4.164   1.347
11153TIP3   OH254873   3.962   0.077  15.380
11153TIP3    H154874   3.868   0.058  15.379
11153TIP3    H254875   3.967   0.172  15.368
11154TIP3   OH254876   1.262   5.292  11.433
11154TIP3    H154877   1.215   5.258  11.356
11154TIP3    H254878   1.194   5.337  11.484
11155TIP3   OH254879   0.014   4.994  15.756
11155TIP3    H154880   0.046   4.904  15.744
11155TIP3    H254881  -0.067   4.984  15.805
11156TIP3   OH254882   4.404   6.650   3.755
11156TIP3    H154883   4.324   6.606   3.727
11156TIP3    H254884   4.433   6.600   3.832
11157TIP3   OH254885   6.514   6.425   4.580
11157TIP3    H154886   6.510   6.508   4.532
11157TIP3    H254887   6.450   6.434   4.650
11158TIP3   OH254888   2.908   0.173  12.388
11158TIP3    H154889   2.984   0.166  12.331
11158TIP3    H254890   2.913   0.096  12.445
11159TIP3   OH254891   5.950   3.341   4.239
11159TIP3    H154892   5.890   3.291   4.184
11159TIP3    H254893   6.025   3.283   4.253
11160TIP3   OH254894   5.922   0.971  13.775
11160TIP3    H154895   5.858   1.012  13.834
11160TIP3    H254896   5.974   0.914  13.831
11161TIP3   OH254897   6.471   0.573   4.364
11161TIP3    H154898   6.383   0.608   4.350
11161TIP3    H254899   6.499   0.611   4.447
11162TIP3   OH254900   5.425   5.540   0.697
11162TIP3    H154901   5.442   5.622   0.744
11162TIP3    H254902   5.408   5.476   0.766
11163TIP3   OH254903   5.666   0.652   1.918
11163TIP3    H154904   5.645   0.562   1.944
11163TIP3    H254905   5.725   0.684   1.986
11164TIP3   OH254906   4.605   4.264   1.719
11164TIP3    H154907   4.596   4.309   1.635
11164TIP3    H254908   4.697   4.278   1.742
11165TIP3   OH254909   3.039   3.018  11.684
11165TIP3    H154910   3.058   3.085  11.750
11165TIP3    H254911   2.951   2.987  11.706
11166TIP3   OH254912   5.222   2.310  15.185
11166TIP3    H154913   5.301   2.349  15.223
11166TIP3    H254914   5.232   2.322  15.091
11167TIP3   OH254915   0.699   1.715   3.895
11167TIP3    H154916   0.677   1.801   3.859
11167TIP3    H254917   0.736   1.734   3.981
11168TIP3   OH254918   2.890   3.999   2.210
11168TIP3    H154919   2.814   3.995   2.151
11168TIP3    H254920   2.853   4.024   2.295
11169TIP3   OH254921   5.880   4.329  17.229
11169TIP3    H154922   5.815   4.305  17.162
11169TIP3    H254923   5.964   4.311  17.188
11170TIP3   OH254924   4.404   0.956  12.133
11170TIP3    H154925   4.447   0.889  12.080
11170TIP3    H254926   4.475   1.014  12.160
11171TIP3   OH254927   0.848   2.720   5.588
11171TIP3    H154928   0.841   2.689   5.678
11171TIP3    H254929   0.899   2.801   5.595
11172TIP3   OH254930   5.727   0.673   4.453
11172TIP3    H154931   5.710   0.647   4.544
11172TIP3    H254932   5.706   0.594   4.402
11173TIP3   OH254933   2.860   0.690   5.444
11173TIP3    H154934   2.904   0.610   5.415
11173TIP3    H254935   2.807   0.717   5.369
11174TIP3   OH254936   5.137   3.639   4.908
11174TIP3    H154937   5.099   3.573   4.850
11174TIP3    H254938   5.186   3.697   4.850
11175TIP3   OH254939   2.458   2.575  13.419
11175TIP3    H154940   2.533   2.538  13.467
11175TIP3    H254941   2.388   2.581  13.485
11176TIP3   OH254942   3.154   2.733   3.065
11176TIP3    H154943   3.127   2.793   3.134
11176TIP3    H254944   3.071   2.704   3.025
11177TIP3   OH254945   4.098   5.654  16.036
11177TIP3    H154946   4.034   5.592  16.000
11177TIP3    H254947   4.052   5.738  16.037
11178TIP3   OH254948   3.117   3.128  15.527
11178TIP3    H154949   3.155   3.207  15.490
11178TIP3    H254950   3.060   3.093  15.458
11179TIP3   OH254951   5.641   4.693  17.230
11179TIP3    H154952   5.622   4.786  17.228
11179TIP3    H254953   5.682   4.675  17.145
11180TIP3   OH254954   1.381   6.526   6.076
11180TIP3    H154955   1.335   6.588   6.019
11180TIP3    H254956   1.416   6.460   6.016
11181TIP3   OH254957   2.204   4.758   1.885
11181TIP3    H154958   2.295   4.782   1.903
11181TIP3    H254959   2.206   4.719   1.798
11182TIP3   OH254960   1.385   3.826  17.122
11182TIP3    H154961   1.451   3.875  17.073
11182TIP3    H254962   1.312   3.816  17.062
11183TIP3   OH254963   1.602   1.188   1.552
11183TIP3    H154964   1.580   1.199   1.460
11183TIP3    H254965   1.609   1.277   1.586
11184TIP3   OH254966   4.487   5.480  15.477
11184TIP3    H154967   4.502   5.386  15.487
11184TIP3    H254968   4.434   5.488  15.398
11185TIP3   OH254969   2.562   0.386  11.467
11185TIP3    H154970   2.495   0.421  11.526
11185TIP3    H254971   2.529   0.300  11.442
11186TIP3   OH254972   1.205   5.865  11.065
11186TIP3    H154973   1.232   5.938  11.009
11186TIP3    H254974   1.173   5.798  11.004
11187TIP3   OH254975   5.052   1.073   1.076
11187TIP3    H154976   5.102   1.133   1.131
11187TIP3    H254977   5.039   0.996   1.130
11188TIP3   OH254978   0.124   2.009  15.246
11188TIP3    H154979   0.159   1.978  15.329
11188TIP3    H254980   0.080   1.932  15.209
11189TIP3   OH254981   1.955   5.652  12.785
11189TIP3    H154982   1.925   5.571  12.745
11189TIP3    H254983   2.003   5.698  12.716
11190TIP3   OH254984   6.696   5.608   0.432
11190TIP3    H154985   6.787   5.635   0.435
11190TIP3    H254986   6.700   5.514   0.411
11191TIP3   OH254987   0.627   2.058   2.633
11191TIP3    H154988   0.574   2.022   2.562
11191TIP3    H254989   0.606   2.003   2.709
11192TIP3   OH254990   2.441   5.836  14.525
11192TIP3    H154991   2.477   5.755  14.489
11192TIP3    H254992   2.518   5.888  14.549
11193TIP3   OH254993   0.534   4.140  16.768
11193TIP3    H154994   0.479   4.215  16.790
11193TIP3    H254995   0.604   4.143  16.834
11194TIP3   OH254996   1.131   4.739   1.915
11194TIP3    H154997   1.078   4.748   1.995
11194TIP3    H254998   1.136   4.827   1.880
11195TIP3   OH254999   2.029   5.630  16.894
11195TIP3    H155000   2.087   5.556  16.877
11195TIP3    H255001   2.080   5.707  16.869
11196TIP3   OH255002   3.932   4.754   5.550
11196TIP3    H155003   3.859   4.792   5.599
11196TIP3    H255004   4.010   4.793   5.590
11197TIP3   OH255005   0.556   1.490  14.456
11197TIP3    H155006   0.615   1.487  14.381
11197TIP3    H255007   0.469   1.504  14.417
11198TIP3   OH255008   3.872   1.740   4.180
11198TIP3    H155009   3.789   1.696   4.160
11198TIP3    H255010   3.855   1.832   4.160
11199TIP3   OH255011   0.954   0.843   2.775
11199TIP3    H155012   0.862   0.850   2.801
11199TIP3    H255013   0.980   0.756   2.806
11200TIP3   OH255014   4.439   0.522   0.716
11200TIP3    H155015   4.411   0.611   0.740
11200TIP3    H255016   4.404   0.466   0.785
11201TIP3   OH255017   1.869   6.190  15.622
11201TIP3    H155018   1.843   6.278  15.649
11201TIP3    H255019   1.944   6.169  15.678
11202TIP3   OH255020   1.375   3.882   1.559
11202TIP3    H155021   1.351   3.871   1.651
11202TIP3    H255022   1.375   3.793   1.524
11203TIP3   OH255023   2.368   0.417   1.880
11203TIP3    H155024   2.304   0.347   1.893
11203TIP3    H255025   2.400   0.437   1.968
11204TIP3   OH255026   2.577   2.363   0.955
11204TIP3    H155027   2.510   2.295   0.948
11204TIP3    H255028   2.656   2.324   0.918
11205TIP3   OH255029   6.336   0.083  13.185
11205TIP3    H155030   6.416   0.046  13.224
11205TIP3    H255031   6.291   0.008  13.146
11206TIP3   OH255032   1.328   2.090  14.083
11206TIP3    H155033   1.403   2.058  14.134
11206TIP3    H255034   1.294   2.012  14.039
11207TIP3   OH255035   5.423   4.057   1.816
11207TIP3    H155036   5.444   4.148   1.795
11207TIP3    H255037   5.436   4.051   1.911
11208TIP3   OH255038   5.558   0.830  10.774
11208TIP3    H155039   5.651   0.806  10.775
11208TIP3    H255040   5.512   0.747  10.758
11209TIP3   OH255041   1.387   4.034  15.792
11209TIP3    H155042   1.354   4.059  15.705
11209TIP3    H255043   1.388   4.116  15.841
11210TIP3   OH255044   1.959   2.225  13.357
11210TIP3    H155045   1.926   2.159  13.419
11210TIP3    H255046   2.051   2.202  13.346
11211TIP3   OH255047   2.328   6.193   4.274
11211TIP3    H155048   2.302   6.188   4.182
11211TIP3    H255049   2.343   6.101   4.299
11212TIP3   OH255050   3.127   0.536   5.136
11212TIP3    H155051   3.163   0.614   5.094
11212TIP3    H255052   3.044   0.521   5.092
11213TIP3   OH255053   3.529   0.835  10.588
11213TIP3    H155054   3.487   0.918  10.567
11213TIP3    H255055   3.622   0.851  10.576
11214TIP3   OH255056   6.740   4.771  12.377
11214TIP3    H155057   6.744   4.839  12.444
11214TIP3    H255058   6.766   4.815  12.296
11215TIP3   OH255059   5.426   4.626   3.027
11215TIP3    H155060   5.352   4.592   2.977
11215TIP3    H255061   5.426   4.575   3.108
11216TIP3   OH255062   6.615   2.181  11.385
11216TIP3    H155063   6.527   2.204  11.414
11216TIP3    H255064   6.632   2.096  11.425
11217TIP3   OH255065   0.437   4.991  12.348
11217TIP3    H155066   0.360   5.047  12.344
11217TIP3    H255067   0.440   4.948  12.262
11218TIP3   OH255068   2.569   6.618  16.421
11218TIP3    H155069   2.570   6.561  16.344
11218TIP3    H255070   2.498   6.584  16.476
11219TIP3   OH255071   4.573   2.523  15.590
11219TIP3    H155072   4.581   2.440  15.636
11219TIP3    H255073   4.555   2.499  15.499
11220TIP3   OH255074   0.779   2.590   2.907
11220TIP3    H155075   0.862   2.611   2.865
11220TIP3    H255076   0.804   2.533   2.980
11221TIP3   OH255077   4.216   2.893   4.031
11221TIP3    H155078   4.283   2.893   4.100
11221TIP3    H255079   4.150   2.831   4.062
11222TIP3   OH255080   4.918   1.723   5.198
11222TIP3    H155081   4.883   1.729   5.287
11222TIP3    H255082   4.894   1.806   5.157
11223TIP3   OH255083   6.247   4.052   5.777
11223TIP3    H155084   6.250   4.044   5.872
11223TIP3    H255085   6.325   4.007   5.746
11224TIP3   OH255086   4.363   5.391   1.153
11224TIP3    H155087   4.383   5.466   1.209
11224TIP3    H255088   4.268   5.394   1.143
11225TIP3   OH255089   0.550   5.654  13.797
11225TIP3    H155090   0.595   5.629  13.716
11225TIP3    H255091   0.616   5.640  13.866
11226TIP3   OH255092   1.049   2.398  15.062
11226TIP3    H155093   1.036   2.315  15.109
11226TIP3    H255094   0.999   2.462  15.111
11227TIP3   OH255095   4.889   0.580   3.495
11227TIP3    H155096   4.794   0.581   3.507
11227TIP3    H255097   4.903   0.515   3.426
11228TIP3   OH255098   2.272   0.048  11.033
11228TIP3    H155099   2.363   0.048  11.063
11228TIP3    H255100   2.262   0.129  10.984
11229TIP3   OH255101   3.719   5.340   2.364
11229TIP3    H155102   3.667   5.416   2.335
11229TIP3    H255103   3.737   5.358   2.457
11230TIP3   OH255104   0.106   4.636  15.002
11230TIP3    H155105   0.099   4.541  14.988
11230TIP3    H255106   0.049   4.653  15.077
11231TIP3   OH255107   2.595   4.404   6.408
11231TIP3    H155108   2.520   4.446   6.365
11231TIP3    H255109   2.558   4.362   6.485
11232TIP3   OH255110   5.453   1.088   4.977
11232TIP3    H155111   5.492   1.059   4.895
11232TIP3    H255112   5.508   1.162   5.005
11233TIP3   OH255113   0.669   0.518  11.209
11233TIP3    H155114   0.659   0.475  11.124
11233TIP3    H255115   0.755   0.560  11.205
11234TIP3   OH255116   3.817   1.699  14.981
11234TIP3    H155117   3.800   1.731  14.892
11234TIP3    H255118   3.900   1.738  15.006
11235TIP3   OH255119   4.825   6.079  15.819
11235TIP3    H155120   4.731   6.080  15.831
11235TIP3    H255121   4.842   6.149  15.757
11236TIP3   OH255122   4.488   6.463   6.185
11236TIP3    H155123   4.420   6.527   6.204
11236TIP3    H255124   4.442   6.389   6.146
11237TIP3   OH255125   3.249   2.694   2.675
11237TIP3    H155126   3.291   2.621   2.721
11237TIP3    H255127   3.321   2.737   2.630
11238TIP3   OH255128   4.208   4.468   4.489
11238TIP3    H155129   4.249   4.437   4.408
11238TIP3    H255130   4.148   4.538   4.461
11239TIP3   OH255131   0.909   1.032   4.741
11239TIP3    H155132   0.980   1.095   4.749
11239TIP3    H255133   0.901   1.017   4.647
11240TIP3   OH255134   4.093   0.204  14.998
11240TIP3    H155135   4.156   0.153  14.947
11240TIP3    H255136   4.008   0.184  14.958
11241TIP3   OH255137   2.653   3.219  14.669
11241TIP3    H155138   2.564   3.250  14.685
11241TIP3    H255139   2.654   3.192  14.577
11242TIP3   OH255140   2.865   0.421   2.732
11242TIP3    H155141   2.774   0.390   2.737
11242TIP3    H255142   2.911   0.368   2.797
11243TIP3   OH255143   4.571   6.106  15.891
11243TIP3    H155144   4.528   6.092  15.975
11243TIP3    H255145   4.545   6.194  15.865
11244TIP3   OH255146   2.446   3.036  16.445
11244TIP3    H155147   2.405   3.100  16.505
11244TIP3    H255148   2.382   3.026  16.375
11245TIP3   OH255149   5.379   3.867   4.950
11245TIP3    H155150   5.414   3.936   4.894
11245TIP3    H255151   5.378   3.905   5.037
11246TIP3   OH255152   1.431   1.078  13.758
11246TIP3    H155153   1.432   1.064  13.664
11246TIP3    H255154   1.512   1.039  13.789
11247TIP3   OH255155   3.628   5.501   0.734
11247TIP3    H155156   3.568   5.570   0.763
11247TIP3    H255157   3.572   5.427   0.714
11248TIP3   OH255158   5.263   3.721  12.034
11248TIP3    H155159   5.197   3.732  11.966
11248TIP3    H255160   5.336   3.678  11.990
11249TIP3   OH255161   4.666   2.289  13.689
11249TIP3    H155162   4.748   2.254  13.654
11249TIP3    H255163   4.693   2.353  13.755
11250TIP3   OH255164   3.083   1.766   1.711
11250TIP3    H155165   3.144   1.735   1.644
11250TIP3    H255166   3.139   1.785   1.787
11251TIP3   OH255167   1.892   0.763  12.103
11251TIP3    H155168   1.842   0.826  12.051
11251TIP3    H255169   1.890   0.799  12.191
11252TIP3   OH255170   0.601   3.422  16.089
11252TIP3    H155171   0.556   3.454  16.011
11252TIP3    H255172   0.531   3.389  16.145
11253TIP3   OH255173   0.373   4.718   3.080
11253TIP3    H155174   0.358   4.642   3.023
11253TIP3    H255175   0.341   4.793   3.030
11254TIP3   OH255176   5.073   5.869   1.806
11254TIP3    H155177   5.135   5.922   1.756
11254TIP3    H255178   5.117   5.852   1.889
11255TIP3   OH255179   0.044   3.762  17.218
11255TIP3    H155180   0.044   3.828  17.287
11255TIP3    H255181  -0.043   3.722  17.222
11256TIP3   OH255182   1.716   5.238   5.456
11256TIP3    H155183   1.796   5.224   5.404
11256TIP3    H255184   1.646   5.198   5.403
11257TIP3   OH255185   0.876   4.307  16.737
11257TIP3    H155186   0.819   4.353  16.675
11257TIP3    H255187   0.825   4.302  16.818
11258TIP3   OH255188   3.903   4.660  14.370
11258TIP3    H155189   3.908   4.694  14.281
11258TIP3    H255190   3.993   4.659  14.401
11259TIP3   OH255191   6.285   5.635  10.890
11259TIP3    H155192   6.326   5.632  10.976
11259TIP3    H255193   6.278   5.728  10.869
11260TIP3   OH255194   4.566   6.719   5.333
11260TIP3    H155195   4.631   6.751   5.271
11260TIP3    H255196   4.482   6.749   5.298
11261TIP3   OH255197   6.114   3.044   3.553
11261TIP3    H155198   6.143   3.101   3.481
11261TIP3    H255199   6.025   3.074   3.572
11262TIP3   OH255200   5.929   3.010   2.726
11262TIP3    H155201   5.900   3.072   2.793
11262TIP3    H255202   5.904   2.924   2.760
11263TIP3   OH255203   4.706   4.228  11.669
11263TIP3    H155204   4.644   4.196  11.603
11263TIP3    H255205   4.708   4.322  11.657
11264TIP3   OH255206   2.697   6.408   1.047
11264TIP3    H155207   2.620   6.387   1.100
11264TIP3    H255208   2.685   6.500   1.024
11265TIP3   OH255209   1.434   2.801  15.051
11265TIP3    H155210   1.408   2.727  14.997
11265TIP3    H255211   1.506   2.768  15.105
11266TIP3   OH255212   0.329   3.645   2.482
11266TIP3    H155213   0.352   3.658   2.390
11266TIP3    H255214   0.360   3.557   2.503
11267TIP3   OH255215   6.301   2.186   6.712
11267TIP3    H155216   6.239   2.126   6.753
11267TIP3    H255217   6.339   2.136   6.640
11268TIP3   OH255218   6.632   1.524  13.035
11268TIP3    H155219   6.639   1.477  12.952
11268TIP3    H255220   6.561   1.480  13.081
11269TIP3   OH255221   6.106   0.972   4.858
11269TIP3    H155222   6.123   0.928   4.775
11269TIP3    H255223   6.111   1.065   4.838
11270TIP3   OH255224   1.010   1.189   3.829
11270TIP3    H155225   0.937   1.247   3.805
11270TIP3    H255226   1.018   1.197   3.924
11271TIP3   OH255227   6.354   1.972  15.911
11271TIP3    H155228   6.364   2.028  15.988
11271TIP3    H255229   6.430   1.993  15.856
11272TIP3   OH255230   4.358   0.492  15.523
11272TIP3    H155231   4.386   0.425  15.461
11272TIP3    H255232   4.437   0.515  15.571
11273TIP3   OH255233   1.617   4.772   2.083
11273TIP3    H155234   1.662   4.825   2.017
11273TIP3    H255235   1.524   4.778   2.059
11274TIP3   OH255236   3.001   6.336   3.724
11274TIP3    H155237   3.049   6.253   3.719
11274TIP3    H255238   2.911   6.314   3.701
11275TIP3   OH255239   4.832   0.749   2.174
11275TIP3    H155240   4.915   0.751   2.128
11275TIP3    H255241   4.842   0.812   2.245
11276TIP3   OH255242   2.387   0.894  14.977
11276TIP3    H155243   2.476   0.915  14.950
11276TIP3    H255244   2.334   0.966  14.941
11277TIP3   OH255245   1.170   1.116   1.223
11277TIP3    H155246   1.263   1.139   1.214
11277TIP3    H255247   1.123   1.196   1.200
11278TIP3   OH255248   4.175   4.700   0.294
11278TIP3    H155249   4.142   4.654   0.217
11278TIP3    H255250   4.216   4.631   0.347
11279TIP3   OH255251   5.208   6.020  16.014
11279TIP3    H155252   5.159   6.099  15.992
11279TIP3    H255253   5.300   6.045  16.002
11280TIP3   OH255254   2.767   1.492   5.708
11280TIP3    H155255   2.747   1.500   5.614
11280TIP3    H255256   2.688   1.454   5.746
11281TIP3   OH255257   4.509   5.858  14.447
11281TIP3    H155258   4.588   5.909  14.461
11281TIP3    H255259   4.447   5.890  14.512
11282TIP3   OH255260   5.127   0.351   2.598
11282TIP3    H155261   5.127   0.402   2.680
11282TIP3    H255262   5.215   0.314   2.593
11283TIP3   OH255263   2.217   1.026  14.295
11283TIP3    H155264   2.160   0.951  14.313
11283TIP3    H255265   2.156   1.095  14.269
11284TIP3   OH255266   5.281   4.049   4.048
11284TIP3    H155267   5.356   3.993   4.070
11284TIP3    H255268   5.286   4.059   3.953
11285TIP3   OH255269   2.056   5.166   0.829
11285TIP3    H155270   2.145   5.166   0.864
11285TIP3    H255271   2.025   5.256   0.843
11286TIP3   OH255272   1.611   3.397  16.024
11286TIP3    H155273   1.575   3.333  15.962
11286TIP3    H255274   1.546   3.401  16.095
11287TIP3   OH255275   2.069   2.937   3.691
11287TIP3    H155276   2.016   2.858   3.695
11287TIP3    H255277   2.150   2.910   3.648
11288TIP3   OH255278   1.080   5.789  12.683
11288TIP3    H155279   1.064   5.745  12.600
11288TIP3    H255280   1.090   5.881  12.661
11289TIP3   OH255281   3.060   2.152   1.042
11289TIP3    H155282   3.064   2.063   1.077
11289TIP3    H255283   3.108   2.148   0.960
11290TIP3   OH255284   5.683   4.975   4.734
11290TIP3    H155285   5.602   4.982   4.683
11290TIP3    H255286   5.654   4.958   4.823
11291TIP3   OH255287   4.157   6.279   0.138
11291TIP3    H155288   4.157   6.189   0.104
11291TIP3    H255289   4.205   6.273   0.220
11292TIP3   OH255290   2.528   0.855   2.449
11292TIP3    H155291   2.460   0.788   2.457
11292TIP3    H255292   2.505   0.904   2.371
11293TIP3   OH255293   1.120   3.662   5.900
11293TIP3    H155294   1.104   3.581   5.851
11293TIP3    H255295   1.060   3.657   5.975
11294TIP3   OH255296   4.550   0.055  14.651
11294TIP3    H155297   4.471   0.081  14.605
11294TIP3    H255298   4.543   0.097  14.737
11295TIP3   OH255299   6.507   4.491   5.122
11295TIP3    H155300   6.544   4.558   5.179
11295TIP3    H255301   6.476   4.423   5.181
11296TIP3   OH255302   0.989   2.886  13.339
11296TIP3    H155303   0.924   2.922  13.278
11296TIP3    H255304   0.997   2.794  13.314
11297TIP3   OH255305   4.274   0.778  10.956
11297TIP3    H155306   4.187   0.777  10.996
11297TIP3    H255307   4.257   0.790  10.862
11298TIP3   OH255308   2.061   6.619  10.407
11298TIP3    H155309   2.093   6.530  10.421
11298TIP3    H255310   1.988   6.608  10.345
11299TIP3   OH255311   2.852   6.680  15.509
11299TIP3    H155312   2.799   6.712  15.583
11299TIP3    H255313   2.821   6.590  15.495
11300TIP3   OH255314   6.509   0.633   5.059
11300TIP3    H155315   6.419   0.623   5.089
11300TIP3    H255316   6.521   0.565   4.993
11301TIP3   OH255317   3.713   1.736   1.021
11301TIP3    H155318   3.676   1.821   1.043
11301TIP3    H255319   3.772   1.754   0.947
11302TIP3   OH255320   1.464   0.265   2.070
11302TIP3    H155321   1.384   0.314   2.057
11302TIP3    H255322   1.534   0.326   2.050
11303TIP3   OH255323   4.345   4.717   3.320
11303TIP3    H155324   4.412   4.658   3.285
11303TIP3    H255325   4.385   4.752   3.400
11304TIP3   OH255326   4.994   1.439  17.023
11304TIP3    H155327   4.985   1.528  17.056
11304TIP3    H255328   4.984   1.383  17.100
11305TIP3   OH255329   0.933   3.061   1.468
11305TIP3    H155330   0.896   3.063   1.379
11305TIP3    H255331   0.955   3.152   1.487
11306TIP3   OH255332   2.942   2.074   0.668
11306TIP3    H155333   2.899   2.142   0.618
11306TIP3    H255334   2.982   2.120   0.742
11307TIP3   OH255335   2.626   3.234  12.207
11307TIP3    H155336   2.703   3.275  12.166
11307TIP3    H255337   2.591   3.302  12.265
11308TIP3   OH255338   0.091   2.801  11.864
11308TIP3    H155339   0.104   2.741  11.937
11308TIP3    H255340   0.037   2.753  11.802
11309TIP3   OH255341   1.501   6.146  12.515
11309TIP3    H155342   1.547   6.066  12.541
11309TIP3    H255343   1.571   6.205  12.484
11310TIP3   OH255344   1.617   1.666  13.313
11310TIP3    H155345   1.525   1.655  13.336
11310TIP3    H255346   1.624   1.757  13.283
11311TIP3   OH255347   1.375   6.734  15.196
11311TIP3    H155348   1.359   6.734  15.102
11311TIP3    H255349   1.437   6.806  15.209
11312TIP3   OH255350   0.701   6.224   2.523
11312TIP3    H155351   0.744   6.156   2.575
11312TIP3    H255352   0.773   6.273   2.483
11313TIP3   OH255353   0.240   4.112   4.071
11313TIP3    H155354   0.182   4.104   3.996
11313TIP3    H255355   0.185   4.151   4.140
11314TIP3   OH255356   0.500   4.349  16.226
11314TIP3    H155357   0.523   4.403  16.151
11314TIP3    H255358   0.584   4.320  16.261
11315TIP3   OH255359   3.698   0.325  15.638
11315TIP3    H155360   3.736   0.401  15.593
11315TIP3    H255361   3.643   0.363  15.706
11316TIP3   OH255362   0.966   0.386   5.120
11316TIP3    H155363   0.921   0.436   5.189
11316TIP3    H255364   0.911   0.398   5.043
11317TIP3   OH255365   3.017   0.725   6.243
11317TIP3    H155366   2.967   0.769   6.312
11317TIP3    H255367   3.107   0.724   6.277
11318TIP3   OH255368   0.123   6.008  15.253
11318TIP3    H155369   0.058   5.967  15.310
11318TIP3    H255370   0.197   5.948  15.254
11319TIP3   OH255371   0.390   4.854   2.650
11319TIP3    H155372   0.388   4.949   2.638
11319TIP3    H255373   0.308   4.823   2.611
11320TIP3   OH255374   5.222   0.872  14.757
11320TIP3    H155375   5.225   0.839  14.847
11320TIP3    H255376   5.142   0.924  14.753
11321TIP3   OH255377   1.272   0.692   5.558
11321TIP3    H155378   1.237   0.604   5.576
11321TIP3    H255379   1.330   0.710   5.633
11322TIP3   OH255380   4.765   6.479   5.185
11322TIP3    H155381   4.841   6.485   5.127
11322TIP3    H255382   4.690   6.489   5.128
11323TIP3   OH255383   5.551   2.528   1.158
11323TIP3    H155384   5.575   2.600   1.217
11323TIP3    H255385   5.518   2.572   1.079
11324TIP3   OH255386   5.445   5.330  16.273
11324TIP3    H155387   5.438   5.325  16.368
11324TIP3    H255388   5.373   5.276  16.241
11325TIP3   OH255389   2.191   5.571  12.436
11325TIP3    H155390   2.135   5.493  12.439
11325TIP3    H255391   2.263   5.552  12.497
11326TIP3   OH255392   6.745   2.339   6.142
11326TIP3    H155393   6.689   2.276   6.186
11326TIP3    H255394   6.688   2.414   6.124
11327TIP3   OH255395   1.780   0.049   2.352
11327TIP3    H155396   1.795   0.047   2.447
11327TIP3    H255397   1.694   0.009   2.340
11328TIP3   OH255398   4.718   4.676  12.621
11328TIP3    H155399   4.804   4.639  12.601
11328TIP3    H255400   4.656   4.608  12.594
11329TIP3   OH255401   0.697   0.558   2.174
11329TIP3    H155402   0.656   0.644   2.169
11329TIP3    H255403   0.785   0.570   2.137
11330TIP3   OH255404   4.154   3.647   1.506
11330TIP3    H155405   4.163   3.742   1.503
11330TIP3    H255406   4.232   3.615   1.460
11331TIP3   OH255407   6.041   4.427  11.406
11331TIP3    H155408   6.092   4.502  11.377
11331TIP3    H255409   6.030   4.440  11.501
11332TIP3   OH255410   5.225   1.379  11.328
11332TIP3    H155411   5.153   1.339  11.279
11332TIP3    H255412   5.280   1.305  11.354
11333TIP3   OH255413   3.476   1.059   2.461
11333TIP3    H155414   3.429   1.037   2.541
11333TIP3    H255415   3.408   1.071   2.395
11334TIP3   OH255416   0.686   5.559  11.717
11334TIP3    H155417   0.775   5.567  11.752
11334TIP3    H255418   0.698   5.515  11.632
11335TIP3   OH255419   6.454   5.666   2.584
11335TIP3    H155420   6.459   5.751   2.539
11335TIP3    H255421   6.509   5.678   2.662
11336TIP3   OH255422   4.405   6.070   3.310
11336TIP3    H155423   4.346   6.092   3.237
11336TIP3    H255424   4.454   5.995   3.279
11337TIP3   OH255425   3.382   6.196   5.347
11337TIP3    H155426   3.302   6.237   5.382
11337TIP3    H255427   3.453   6.250   5.383
11338TIP3   OH255428   0.788   4.982   1.867
11338TIP3    H155429   0.861   5.007   1.811
11338TIP3    H255430   0.784   4.887   1.861
11339TIP3   OH255431   6.312   3.565   2.811
11339TIP3    H155432   6.289   3.475   2.835
11339TIP3    H255433   6.327   3.609   2.894
11340TIP3   OH255434   5.158   0.428   4.181
11340TIP3    H155435   5.221   0.393   4.118
11340TIP3    H255436   5.125   0.507   4.140
11341TIP3   OH255437   2.765   6.688  12.894
11341TIP3    H155438   2.846   6.644  12.919
11341TIP3    H255439   2.765   6.770  12.944
11342TIP3   OH255440   6.505   1.733  13.648
11342TIP3    H155441   6.421   1.708  13.611
11342TIP3    H255442   6.495   1.826  13.669
11343TIP3   OH255443   3.457   0.190   5.339
11343TIP3    H155444   3.440   0.274   5.297
11343TIP3    H255445   3.486   0.213   5.428
11344TIP3   OH255446   2.151   4.427  11.220
11344TIP3    H155447   2.181   4.341  11.249
11344TIP3    H255448   2.229   4.469  11.186
11345TIP3   OH255449   0.811   5.102   4.795
11345TIP3    H155450   0.857   5.108   4.879
11345TIP3    H255451   0.755   5.180   4.794
11346TIP3   OH255452   3.588   5.770  11.534
11346TIP3    H155453   3.519   5.739  11.475
11346TIP3    H255454   3.590   5.865  11.520
11347TIP3   OH255455   2.907   3.810   5.544
11347TIP3    H155456   2.978   3.748   5.562
11347TIP3    H255457   2.928   3.848   5.459
11348TIP3   OH255458   2.385   6.110  15.396
11348TIP3    H155459   2.398   6.125  15.302
11348TIP3    H255460   2.467   6.069  15.425
11349TIP3   OH255461   3.862   2.091  12.666
11349TIP3    H155462   3.812   2.086  12.747
11349TIP3    H255463   3.802   2.059  12.599
11350TIP3   OH255464   4.426   1.717   2.135
11350TIP3    H155465   4.345   1.667   2.142
11350TIP3    H255466   4.494   1.658   2.170
11351TIP3   OH255467   2.800   5.334  15.077
11351TIP3    H155468   2.821   5.245  15.107
11351TIP3    H255469   2.793   5.385  15.158
11352TIP3   OH255470   4.232   3.881  15.252
11352TIP3    H155471   4.290   3.848  15.184
11352TIP3    H255472   4.144   3.858  15.223
11353TIP3   OH255473   1.476   4.608   0.600
11353TIP3    H155474   1.571   4.616   0.597
11353TIP3    H255475   1.459   4.559   0.681
11354TIP3   OH255476   1.528   5.456   5.442
11354TIP3    H155477   1.547   5.362   5.445
11354TIP3    H255478   1.542   5.480   5.351
11355TIP3   OH255479   6.613   0.729  10.715
11355TIP3    H155480   6.663   0.772  10.645
11355TIP3    H255481   6.626   0.635  10.699
11356TIP3   OH255482   0.557   5.806  14.299
11356TIP3    H155483   0.528   5.719  14.271
11356TIP3    H255484   0.625   5.789  14.364
11357TIP3   OH255485   3.478   4.512  11.396
11357TIP3    H155486   3.544   4.459  11.351
11357TIP3    H255487   3.443   4.454  11.463
11358TIP3   OH255488   3.664   5.658   3.662
11358TIP3    H155489   3.688   5.604   3.586
11358TIP3    H255490   3.623   5.736   3.624
11359TIP3   OH255491   6.183   6.470  11.527
11359TIP3    H155492   6.136   6.414  11.588
11359TIP3    H255493   6.220   6.410  11.462
11360TIP3   OH255494   5.447   1.296   4.182
11360TIP3    H155495   5.442   1.387   4.154
11360TIP3    H255496   5.383   1.251   4.127
11361TIP3   OH255497   5.141   2.270  16.618
11361TIP3    H155498   5.062   2.253  16.567
11361TIP3    H255499   5.139   2.205  16.688
11362TIP3   OH255500   0.146   5.191   2.091
11362TIP3    H155501   0.095   5.264   2.126
11362TIP3    H255502   0.149   5.128   2.163
11363TIP3   OH255503   3.268   0.658  10.998
11363TIP3    H155504   3.203   0.614  10.944
11363TIP3    H255505   3.333   0.590  11.017
11364TIP3   OH255506   6.588   2.392  12.092
11364TIP3    H155507   6.536   2.401  12.173
11364TIP3    H255508   6.678   2.388  12.122
11365TIP3   OH255509   3.272   4.605  12.782
11365TIP3    H155510   3.349   4.559  12.749
11365TIP3    H255511   3.199   4.570  12.730
11366TIP3   OH255512   2.843   1.845   0.516
11366TIP3    H155513   2.916   1.800   0.557
11366TIP3    H255514   2.793   1.881   0.590
11367TIP3   OH255515   2.955   3.150   4.012
11367TIP3    H155516   2.924   3.072   4.058
11367TIP3    H255517   2.945   3.128   3.919
11368TIP3   OH255518   4.913   2.980   5.518
11368TIP3    H155519   4.857   3.057   5.512
11368TIP3    H255520   4.864   2.912   5.472
11369TIP3   OH255521   1.356   3.061  15.827
11369TIP3    H155522   1.327   3.057  15.919
11369TIP3    H255523   1.288   3.111  15.783
11370TIP3   OH255524   0.253   4.017  13.797
11370TIP3    H155525   0.176   4.074  13.785
11370TIP3    H255526   0.268   4.017  13.891
11371TIP3   OH255527   0.113   6.713  15.861
11371TIP3    H155528   0.184   6.776  15.875
11371TIP3    H255529   0.090   6.684  15.949
11372TIP3   OH255530   3.495   3.308  15.216
11372TIP3    H155531   3.538   3.235  15.172
11372TIP3    H255532   3.472   3.368  15.145
11373TIP3   OH255533   4.251   1.968  11.426
11373TIP3    H155534   4.311   1.894  11.436
11373TIP3    H255535   4.305   2.046  11.441
11374TIP3   OH255536   6.383   4.183   2.767
11374TIP3    H155537   6.459   4.156   2.715
11374TIP3    H255538   6.390   4.279   2.770
11375TIP3   OH255539   6.659   3.530  12.859
11375TIP3    H155540   6.702   3.599  12.810
11375TIP3    H255541   6.730   3.469  12.881
11376TIP3   OH255542   6.702   1.390  13.925
11376TIP3    H155543   6.776   1.356  13.873
11376TIP3    H255544   6.654   1.446  13.864
11377TIP3   OH255545   3.234   4.461  15.472
11377TIP3    H155546   3.253   4.435  15.562
11377TIP3    H255547   3.314   4.504  15.442
11378TIP3   OH255548   3.258   0.430  13.171
11378TIP3    H155549   3.309   0.504  13.137
11378TIP3    H255550   3.304   0.352  13.138
11379TIP3   OH255551   3.216   2.770   1.962
11379TIP3    H155552   3.184   2.795   1.875
11379TIP3    H255553   3.232   2.676   1.955
11380TIP3   OH255554   5.847   4.187   4.950
11380TIP3    H155555   5.771   4.227   4.908
11380TIP3    H255556   5.874   4.250   5.017
11381TIP3   OH255557   3.773   2.835  11.822
11381TIP3    H155558   3.831   2.911  11.808
11381TIP3    H255559   3.807   2.794  11.902
11382TIP3   OH255560   1.918   0.743   4.088
11382TIP3    H155561   1.948   0.660   4.051
11382TIP3    H255562   1.869   0.719   4.167
11383TIP3   OH255563   0.419   5.294  13.247
11383TIP3    H155564   0.469   5.343  13.312
11383TIP3    H255565   0.459   5.207  13.245
11384TIP3   OH255566   2.454   3.278  15.569
11384TIP3    H155567   2.512   3.312  15.637
11384TIP3    H255568   2.400   3.353  15.544
11385TIP3   OH255569   1.584   2.465   3.147
11385TIP3    H155570   1.634   2.394   3.186
11385TIP3    H255571   1.638   2.543   3.159
11386TIP3   OH255572   2.711   1.067  12.335
11386TIP3    H155573   2.733   1.003  12.403
11386TIP3    H255574   2.619   1.051  12.315
11387TIP3   OH255575   6.710   1.588   2.341
11387TIP3    H155576   6.624   1.631   2.333
11387TIP3    H255577   6.702   1.510   2.285
11388TIP3   OH255578   3.554   2.736   1.548
11388TIP3    H155579   3.627   2.780   1.592
11388TIP3    H255580   3.575   2.742   1.455
11389TIP3   OH255581   4.435   2.389   4.287
11389TIP3    H155582   4.510   2.448   4.286
11389TIP3    H255583   4.401   2.394   4.376
11390TIP3   OH255584   5.458   1.566   3.850
11390TIP3    H155585   5.479   1.476   3.871
11390TIP3    H255586   5.399   1.594   3.921
11391TIP3   OH255587   3.536   1.651  14.106
11391TIP3    H155588   3.546   1.558  14.126
11391TIP3    H255589   3.456   1.655  14.053
11392TIP3   OH255590   2.755   1.557   2.895
11392TIP3    H155591   2.745   1.640   2.941
11392TIP3    H255592   2.849   1.541   2.895
11393TIP3   OH255593   5.470   6.259   2.371
11393TIP3    H155594   5.528   6.310   2.428
11393TIP3    H255595   5.501   6.169   2.379
11394TIP3   OH255596   6.000   2.312  17.008
11394TIP3    H155597   6.031   2.242  17.065
11394TIP3    H255598   5.978   2.384  17.068
11395TIP3   OH255599   0.335   0.928   5.344
11395TIP3    H155600   0.414   0.914   5.293
11395TIP3    H255601   0.279   0.853   5.323
11396TIP3   OH255602   3.789   3.241   0.860
11396TIP3    H155603   3.749   3.203   0.939
11396TIP3    H255604   3.827   3.323   0.890
11397TIP3   OH255605   5.056   6.217  16.260
11397TIP3    H155606   5.003   6.224  16.181
11397TIP3    H255607   4.998   6.175  16.324
11398TIP3   OH255608   6.761   4.667  12.992
11398TIP3    H155609   6.845   4.702  12.963
11398TIP3    H255610   6.774   4.650  13.085
11399TIP3   OH255611   3.699   2.060  12.109
11399TIP3    H155612   3.780   2.016  12.083
11399TIP3    H255613   3.639   1.990  12.130
11400TIP3   OH255614   2.285   0.726   1.469
11400TIP3    H155615   2.242   0.789   1.527
11400TIP3    H255616   2.304   0.651   1.525
11401TIP3   OH255617   2.750   2.685  12.309
11401TIP3    H155618   2.704   2.612  12.267
11401TIP3    H255619   2.686   2.724  12.368
11402TIP3   OH255620   0.371   4.042  15.939
11402TIP3    H155621   0.368   4.099  16.016
11402TIP3    H255622   0.301   3.979  15.953
11403TIP3   OH255623   3.755   2.392   3.316
11403TIP3    H155624   3.741   2.370   3.409
11403TIP3    H255625   3.812   2.323   3.284
11404TIP3   OH255626   3.288   1.307   2.551
11404TIP3    H155627   3.242   1.351   2.623
11404TIP3    H255628   3.378   1.299   2.582
11405TIP3   OH255629   3.040   2.042   6.497
11405TIP3    H155630   3.005   2.131   6.489
11405TIP3    H255631   2.995   2.006   6.574
11406TIP3   OH255632   4.316   0.524  11.754
11406TIP3    H155633   4.389   0.474  11.790
11406TIP3    H255634   4.350   0.612  11.744
11407TIP3   OH255635   1.267   2.948  17.116
11407TIP3    H155636   1.310   2.866  17.140
11407TIP3    H255637   1.233   2.982  17.199
11408TIP3   OH255638   5.629   0.460   2.928
11408TIP3    H155639   5.576   0.423   2.857
11408TIP3    H255640   5.631   0.392   2.995
11409TIP3   OH255641   4.741   1.586   5.805
11409TIP3    H155642   4.737   1.599   5.710
11409TIP3    H255643   4.834   1.594   5.826
11410TIP3   OH255644   2.388   3.131  15.158
11410TIP3    H155645   2.438   3.116  15.238
11410TIP3    H255646   2.439   3.196  15.110
11411TIP3   OH255647   5.479   0.969  14.692
11411TIP3    H155648   5.414   0.900  14.705
11411TIP3    H255649   5.533   0.938  14.620
11412TIP3   OH255650   1.422   3.750  13.810
11412TIP3    H155651   1.465   3.664  13.815
11412TIP3    H255652   1.333   3.730  13.782
11413TIP3   OH255653   1.875   5.656  15.254
11413TIP3    H155654   1.804   5.607  15.213
11413TIP3    H255655   1.838   5.743  15.271
11414TIP3   OH255656   6.153   3.126   2.620
11414TIP3    H155657   6.171   3.093   2.532
11414TIP3    H255658   6.074   3.078   2.647
11415TIP3   OH255659   2.933   1.864   4.374
11415TIP3    H155660   3.015   1.828   4.406
11415TIP3    H255661   2.936   1.956   4.397
11416TIP3   OH255662   0.136   0.834   3.312
11416TIP3    H155663   0.126   0.917   3.358
11416TIP3    H255664   0.107   0.768   3.376
11417TIP3   OH255665   0.995   0.557   5.780
11417TIP3    H155666   0.992   0.544   5.685
11417TIP3    H255667   1.007   0.468   5.815
11418TIP3   OH255668   1.449   5.707   4.626
11418TIP3    H155669   1.488   5.770   4.686
11418TIP3    H255670   1.463   5.743   4.539
11419TIP3   OH255671   3.255   3.187   4.932
11419TIP3    H155672   3.195   3.249   4.974
11419TIP3    H255673   3.201   3.110   4.916
11420TIP3   OH255674   0.544   3.360   5.794
11420TIP3    H155675   0.454   3.388   5.780
11420TIP3    H255676   0.589   3.385   5.713
11421TIP3   OH255677   4.388   4.611   1.421
11421TIP3    H155678   4.378   4.678   1.353
11421TIP3    H255679   4.397   4.661   1.502
11422TIP3   OH255680   1.644   6.346   0.038
11422TIP3    H155681   1.645   6.388  -0.048
11422TIP3    H255682   1.733   6.358   0.072
11423TIP3   OH255683   1.898   2.752  13.735
11423TIP3    H155684   1.899   2.822  13.800
11423TIP3    H255685   1.866   2.795  13.655
11424TIP3   OH255686   1.094   5.033  11.601
11424TIP3    H155687   1.088   5.097  11.672
11424TIP3    H255688   1.029   5.063  11.537
11425TIP3   OH255689   4.043   4.629   2.854
11425TIP3    H155690   4.045   4.631   2.949
11425TIP3    H255691   4.057   4.720   2.827
11426TIP3   OH255692   1.453   2.077  11.273
11426TIP3    H155693   1.514   2.112  11.209
11426TIP3    H255694   1.487   2.107  11.358
11427TIP3   OH255695   2.893   0.143  14.152
11427TIP3    H155696   2.814   0.090  14.149
11427TIP3    H255697   2.958   0.092  14.103
11428TIP3   OH255698   1.507   2.502  15.755
11428TIP3    H155699   1.552   2.425  15.791
11428TIP3    H255700   1.550   2.577  15.797
11429TIP3   OH255701   0.321   4.584  16.864
11429TIP3    H155702   0.399   4.529  16.855
11429TIP3    H255703   0.282   4.556  16.947
11430TIP3   OH255704   4.281   3.251  12.719
11430TIP3    H155705   4.289   3.220  12.629
11430TIP3    H255706   4.299   3.345  12.714
11431TIP3   OH255707   5.566   5.376  14.480
11431TIP3    H155708   5.529   5.342  14.561
11431TIP3    H255709   5.504   5.442  14.451
11432TIP3   OH255710   5.257   6.140   3.080
11432TIP3    H155711   5.327   6.174   3.135
11432TIP3    H255712   5.302   6.081   3.018
11433TIP3   OH255713   3.561   0.264  10.672
11433TIP3    H155714   3.556   0.358  10.688
11433TIP3    H255715   3.510   0.250  10.593
11434TIP3   OH255716   0.576   1.703  16.599
11434TIP3    H155717   0.665   1.732  16.619
11434TIP3    H255718   0.520   1.752  16.659
11435TIP3   OH255719   5.407   0.022   4.106
11435TIP3    H155720   5.474  -0.041   4.135
11435TIP3    H255721   5.457   0.095   4.069
11436TIP3   OH255722   1.063   3.742  11.435
11436TIP3    H155723   1.101   3.678  11.375
11436TIP3    H255724   1.124   3.744  11.509
11437TIP3   OH255725   3.114   6.006  15.430
11437TIP3    H155726   3.190   5.959  15.394
11437TIP3    H255727   3.039   5.969  15.384
11438TIP3   OH255728   1.836   2.303  16.400
11438TIP3    H155729   1.805   2.229  16.453
11438TIP3    H255730   1.931   2.296  16.402
11439TIP3   OH255731   6.045   6.585  13.432
11439TIP3    H155732   5.976   6.521  13.449
11439TIP3    H255733   6.127   6.538  13.450
11440TIP3   OH255734   6.768   2.053   5.589
11440TIP3    H155735   6.739   1.994   5.659
11440TIP3    H255736   6.826   2.115   5.632
11441TIP3   OH255737   5.784   2.545   0.771
11441TIP3    H155738   5.839   2.485   0.821
11441TIP3    H255739   5.845   2.612   0.739
11442TIP3   OH255740   5.874   4.746   6.337
11442TIP3    H155741   5.931   4.698   6.397
11442TIP3    H255742   5.901   4.838   6.347
11443TIP3   OH255743   4.412   0.962  14.681
11443TIP3    H155744   4.464   0.882  14.675
11443TIP3    H255745   4.438   1.001  14.764
11444TIP3   OH255746   0.604   4.130  12.505
11444TIP3    H155747   0.648   4.067  12.448
11444TIP3    H255748   0.545   4.076  12.558
11445TIP3   OH255749   2.236   5.583  12.883
11445TIP3    H155750   2.242   5.548  12.972
11445TIP3    H255751   2.150   5.626  12.880
11446TIP3   OH255752   4.013   3.040   6.106
11446TIP3    H155753   3.998   2.982   6.180
11446TIP3    H255754   3.979   3.125   6.134
11447TIP3   OH255755   0.267   5.872   6.343
11447TIP3    H155756   0.319   5.922   6.279
11447TIP3    H255757   0.331   5.845   6.409
11448TIP3   OH255758   5.800   4.336  16.649
11448TIP3    H155759   5.861   4.339  16.575
11448TIP3    H255760   5.730   4.278  16.620
11449TIP3   OH255761   6.172   4.717   1.147
11449TIP3    H155762   6.175   4.652   1.217
11449TIP3    H255763   6.251   4.770   1.161
11450TIP3   OH255764   1.738   6.606  15.363
11450TIP3    H155765   1.725   6.554  15.283
11450TIP3    H255766   1.823   6.648  15.350
11451TIP3   OH255767   1.744   3.211  12.417
11451TIP3    H155768   1.650   3.217  12.432
11451TIP3    H255769   1.763   3.117  12.420
11452TIP3   OH255770   2.805   0.849  16.553
11452TIP3    H155771   2.732   0.891  16.598
11452TIP3    H255772   2.874   0.843  16.619
11453TIP3   OH255773   5.655   3.733  14.474
11453TIP3    H155774   5.713   3.758  14.402
11453TIP3    H255775   5.713   3.709  14.546
11454TIP3   OH255776   2.995   2.824   3.490
11454TIP3    H155777   3.035   2.904   3.523
11454TIP3    H255778   3.033   2.813   3.403
11455TIP3   OH255779   0.339   3.131   3.701
11455TIP3    H155780   0.288   3.121   3.620
11455TIP3    H255781   0.310   3.215   3.737
11456TIP3   OH255782   0.843   4.987  15.030
11456TIP3    H155783   0.818   4.934  15.107
11456TIP3    H255784   0.819   4.932  14.955
11457TIP3   OH255785   2.835   0.757  13.257
11457TIP3    H155786   2.780   0.769  13.180
11457TIP3    H255787   2.789   0.805  13.326
11458TIP3   OH255788   4.600   6.615  10.748
11458TIP3    H155789   4.541   6.611  10.672
11458TIP3    H255790   4.688   6.614  10.710
11459TIP3   OH255791   5.989   4.568  12.072
11459TIP3    H155792   6.045   4.624  12.018
11459TIP3    H255793   5.902   4.607  12.065
11460TIP3   OH255794   4.621   3.551  16.916
11460TIP3    H155795   4.553   3.587  16.973
11460TIP3    H255796   4.701   3.597  16.943
11461TIP3   OH255797   1.985   3.885  10.976
11461TIP3    H155798   1.915   3.933  10.932
11461TIP3    H255799   1.984   3.798  10.936
11462TIP3   OH255800   3.290   0.768  12.309
11462TIP3    H155801   3.330   0.756  12.395
11462TIP3    H255802   3.331   0.848  12.274
11463TIP3   OH255803   5.988   4.940  11.269
11463TIP3    H155804   5.927   5.013  11.264
11463TIP3    H255805   6.065   4.977  11.313
11464TIP3   OH255806   6.606   1.153   1.328
11464TIP3    H155807   6.695   1.141   1.294
11464TIP3    H255808   6.574   1.063   1.341
11465TIP3   OH255809   6.043   4.848  12.602
11465TIP3    H155810   6.082   4.814  12.683
11465TIP3    H255811   6.111   4.836  12.536
11466TIP3   OH255812   2.721   3.991  16.290
11466TIP3    H155813   2.697   4.084  16.286
11466TIP3    H255814   2.643   3.948  16.324
11467TIP3   OH255815   0.719   6.276   0.935
11467TIP3    H155816   0.757   6.316   0.857
11467TIP3    H255817   0.752   6.187   0.935
11468TIP3   OH255818   4.984   0.579  11.111
11468TIP3    H155819   4.961   0.604  11.021
11468TIP3    H255820   4.942   0.494  11.123
11469TIP3   OH255821   1.890   5.424  15.781
11469TIP3    H155822   1.843   5.496  15.824
11469TIP3    H255823   1.853   5.421  15.692
11470TIP3   OH255824   3.989   6.367   1.750
11470TIP3    H155825   4.023   6.282   1.778
11470TIP3    H255826   3.898   6.351   1.727
11471TIP3   OH255827   1.116   2.388  16.542
11471TIP3    H155828   1.121   2.441  16.622
11471TIP3    H255829   1.116   2.452  16.471
11472TIP3   OH255830   5.673   0.625   4.719
11472TIP3    H155831   5.604   0.670   4.768
11472TIP3    H255832   5.644   0.534   4.714
11473TIP3   OH255833   3.027   3.416  15.002
11473TIP3    H155834   2.935   3.439  14.989
11473TIP3    H255835   3.059   3.394  14.915
11474TIP3   OH255836   5.801   5.386   4.089
11474TIP3    H155837   5.722   5.350   4.049
11474TIP3    H255838   5.856   5.411   4.014
11475TIP3   OH255839   1.293   6.567  14.566
11475TIP3    H155840   1.387   6.567  14.548
11475TIP3    H255841   1.286   6.583  14.660
11476TIP3   OH255842   2.147   1.826   1.721
11476TIP3    H155843   2.102   1.761   1.668
11476TIP3    H255844   2.120   1.910   1.683
11477TIP3   OH255845   1.731   5.808  12.770
11477TIP3    H155846   1.805   5.748  12.761
11477TIP3    H255847   1.654   5.751  12.766
11478TIP3   OH255848   0.399   0.351  13.579
11478TIP3    H155849   0.399   0.369  13.673
11478TIP3    H255850   0.450   0.270  13.570
11479TIP3   OH255851   5.616   1.061  15.041
11479TIP3    H155852   5.612   0.972  15.007
11479TIP3    H255853   5.533   1.100  15.016
11480TIP3   OH255854   3.710   2.398   0.555
11480TIP3    H155855   3.798   2.364   0.566
11480TIP3    H255856   3.720   2.493   0.553
11481TIP3   OH255857   0.058   2.328   4.782
11481TIP3    H155858   0.139   2.295   4.820
11481TIP3    H255859   0.015   2.250   4.746
11482TIP3   OH255860   3.591   1.726  10.972
11482TIP3    H155861   3.601   1.720  10.877
11482TIP3    H255862   3.673   1.692  11.006
11483TIP3   OH255863   4.413   1.662   4.888
11483TIP3    H155864   4.387   1.592   4.828
11483TIP3    H255865   4.399   1.742   4.838
11484TIP3   OH255866   3.162   2.212  14.731
11484TIP3    H155867   3.110   2.136  14.760
11484TIP3    H255868   3.176   2.197  14.638
11485TIP3   OH255869   4.049   1.355  16.896
11485TIP3    H155870   3.970   1.301  16.901
11485TIP3    H255871   4.029   1.432  16.950
11486TIP3   OH255872   4.712   0.364   1.014
11486TIP3    H155873   4.797   0.362   1.060
11486TIP3    H255874   4.728   0.418   0.937
11487TIP3   OH255875   4.023   5.324  15.988
11487TIP3    H155876   3.931   5.337  16.014
11487TIP3    H255877   4.049   5.244  16.033
11488TIP3   OH255878   4.702   5.051  17.171
11488TIP3    H155879   4.644   5.089  17.237
11488TIP3    H255880   4.643   5.010  17.108
11489TIP3   OH255881   2.476   0.493  11.915
11489TIP3    H155882   2.479   0.540  11.998
11489TIP3    H255883   2.556   0.521  11.870
11490TIP3   OH255884   5.935   4.881   0.646
11490TIP3    H155885   5.997   4.810   0.630
11490TIP3    H255886   5.972   4.956   0.600
11491TIP3   OH255887   2.702   5.072   5.725
11491TIP3    H155888   2.732   5.099   5.638
11491TIP3    H255889   2.780   5.081   5.781
11492TIP3   OH255890   5.851   4.243   3.231
11492TIP3    H155891   5.796   4.280   3.163
11492TIP3    H255892   5.856   4.149   3.211
11493TIP3   OH255893   6.131   4.963   5.910
11493TIP3    H155894   6.225   4.950   5.925
11493TIP3    H255895   6.089   4.929   5.989
11494TIP3   OH255896   6.331   6.645   3.639
11494TIP3    H155897   6.391   6.584   3.681
11494TIP3    H255898   6.349   6.729   3.681
11495TIP3   OH255899   1.227   3.494  17.107
11495TIP3    H155900   1.140   3.476  17.145
11495TIP3    H255901   1.219   3.581  17.068
11496TIP3   OH255902   1.047   4.519  16.635
11496TIP3    H155903   1.024   4.609  16.658
11496TIP3    H255904   0.987   4.465  16.687
11497TIP3   OH255905   4.579   4.793   3.105
11497TIP3    H155906   4.635   4.841   3.165
11497TIP3    H255907   4.490   4.810   3.135
11498TIP3   OH255908   1.025   4.011  16.862
11498TIP3    H155909   0.984   4.087  16.820
11498TIP3    H255910   0.952   3.952  16.882
11499TIP3   OH255911   0.430   4.707  11.258
11499TIP3    H155912   0.451   4.799  11.267
11499TIP3    H255913   0.442   4.670  11.345
11500TIP3   OH255914   1.774   3.081  14.146
11500TIP3    H155915   1.681   3.101  14.134
11500TIP3    H255916   1.789   3.003  14.093
11501TIP3   OH255917   0.740   3.194  16.093
11501TIP3    H155918   0.684   3.125  16.058
11501TIP3    H255919   0.691   3.275  16.077
11502TIP3   OH255920   0.467   4.992  11.610
11502TIP3    H155921   0.431   5.068  11.654
11502TIP3    H255922   0.470   4.924  11.678
11503TIP3   OH255923   4.504   3.976   1.689
11503TIP3    H155924   4.544   4.057   1.657
11503TIP3    H255925   4.547   3.907   1.638
11504TIP3   OH255926   4.728   5.861  16.080
11504TIP3    H155927   4.682   5.779  16.062
11504TIP3    H255928   4.755   5.892  15.993
11505TIP3   OH255929   2.673   6.162   0.580
11505TIP3    H155930   2.645   6.139   0.492
11505TIP3    H255931   2.606   6.123   0.637
11506TIP3   OH255932   1.457   5.503  11.335
11506TIP3    H155933   1.414   5.511  11.250
11506TIP3    H255934   1.430   5.418  11.368
11507TIP3   OH255935   1.254   4.910   1.423
11507TIP3    H155936   1.188   4.958   1.373
11507TIP3    H255937   1.204   4.843   1.470
11508TIP3   OH255938   0.056   5.440   0.013
11508TIP3    H155939   0.005   5.361  -0.007
11508TIP3    H255940   0.021   5.507  -0.046
11509TIP3   OH255941   6.775   1.614   6.010
11509TIP3    H155942   6.816   1.531   6.035
11509TIP3    H255943   6.692   1.615   6.058
11510TIP3   OH255944   5.271   2.540  15.011
11510TIP3    H155945   5.199   2.513  14.954
11510TIP3    H255946   5.315   2.609  14.961
11511TIP3   OH255947   3.705   4.160  13.932
11511TIP3    H155948   3.691   4.251  13.958
11511TIP3    H255949   3.784   4.162  13.879
11512TIP3   OH255950   0.059   3.222  12.048
11512TIP3    H155951   0.135   3.204  12.104
11512TIP3    H255952   0.072   3.166  11.972
11513TIP3   OH255953   0.708   0.568   3.684
11513TIP3    H155954   0.680   0.480   3.711
11513TIP3    H255955   0.643   0.596   3.620
11514TIP3   OH255956   1.656   0.284  14.400
11514TIP3    H155957   1.619   0.280  14.312
11514TIP3    H255958   1.664   0.378  14.418
11515TIP3   OH255959   5.377   2.704  13.274
11515TIP3    H155960   5.349   2.618  13.242
11515TIP3    H255961   5.295   2.749  13.295
11516TIP3   OH255962   6.212   1.261   3.157
11516TIP3    H155963   6.282   1.318   3.125
11516TIP3    H255964   6.251   1.173   3.159
11517TIP3   OH255965   5.407   4.329   4.721
11517TIP3    H155966   5.358   4.324   4.803
11517TIP3    H255967   5.344   4.368   4.659
11518TIP3   OH255968   2.764   0.206   3.555
11518TIP3    H155969   2.754   0.142   3.626
11518TIP3    H255970   2.824   0.271   3.590
11519TIP3   OH255971   1.519   2.764   3.873
11519TIP3    H155972   1.582   2.820   3.828
11519TIP3    H255973   1.445   2.822   3.893
11520TIP3   OH255974   4.919   2.773  14.363
11520TIP3    H155975   4.999   2.721  14.368
11520TIP3    H255976   4.943   2.857  14.402
11521TIP3   OH255977   3.672   0.603  14.487
11521TIP3    H155978   3.708   0.541  14.424
11521TIP3    H255979   3.692   0.689  14.451
11522TIP3   OH255980   3.837   4.550   0.212
11522TIP3    H155981   3.873   4.625   0.165
11522TIP3    H255982   3.744   4.550   0.191
11523TIP3   OH255983   6.772   2.532  12.368
11523TIP3    H155984   6.845   2.516  12.308
11523TIP3    H255985   6.742   2.620  12.345
11524TIP3   OH255986   5.934   5.724   2.728
11524TIP3    H155987   5.901   5.650   2.779
11524TIP3    H255988   5.994   5.769   2.787
11525TIP3   OH255989   6.532   5.119  11.319
11525TIP3    H155990   6.626   5.122  11.333
11525TIP3    H255991   6.512   5.197  11.267
11526TIP3   OH255992   4.960   6.731  11.061
11526TIP3    H155993   4.917   6.782  11.129
11526TIP3    H255994   5.035   6.785  11.034
11527TIP3   OH255995   0.489   5.336   1.250
11527TIP3    H155996   0.481   5.402   1.319
11527TIP3    H255997   0.487   5.386   1.169
11528TIP3   OH255998   0.415   0.426  12.112
11528TIP3    H155999   0.386   0.491  12.049
11528TIP3    H256000   0.378   0.344  12.080
11529TIP3   OH256001   5.784   2.057   1.317
11529TIP3    H156002   5.781   1.970   1.277
11529TIP3    H256003   5.756   2.043   1.407
11530TIP3   OH256004   5.001   1.604   1.447
11530TIP3    H156005   5.010   1.545   1.522
11530TIP3    H256006   4.937   1.669   1.475
11531TIP3   OH256007   2.446   6.744   4.904
11531TIP3    H156008   2.458   6.677   4.971
11531TIP3    H256009   2.404   6.817   4.949
11532TIP3   OH256010   4.165   3.789  11.958
11532TIP3    H156011   4.249   3.796  11.913
11532TIP3    H256012   4.143   3.696  11.952
11533TIP3   OH256013   3.650   2.424   0.153
11533TIP3    H156014   3.564   2.382   0.155
11533TIP3    H256015   3.702   2.377   0.218
11534TIP3   OH256016   4.713   6.546   4.405
11534TIP3    H156017   4.728   6.480   4.338
11534TIP3    H256018   4.775   6.616   4.383
11535TIP3   OH256019   3.424   1.370   0.143
11535TIP3    H156020   3.410   1.319   0.223
11535TIP3    H256021   3.507   1.415   0.157
11536TIP3   OH256022   5.841   0.246   0.408
11536TIP3    H156023   5.769   0.244   0.344
11536TIP3    H256024   5.839   0.159   0.449
11537TIP3   OH256025   6.163   0.248   0.958
11537TIP3    H156026   6.183   0.154   0.952
11537TIP3    H256027   6.229   0.282   1.019
11538TIP3   OH256028   6.122   0.468  12.869
11538TIP3    H156029   6.192   0.491  12.930
11538TIP3    H256030   6.079   0.393  12.908
11539TIP3   OH256031   3.845   1.627   0.557
11539TIP3    H156032   3.852   1.696   0.490
11539TIP3    H256033   3.916   1.646   0.618
11540TIP3   OH256034   4.158   2.966   3.178
11540TIP3    H156035   4.112   3.037   3.134
11540TIP3    H256036   4.159   2.992   3.270
11541TIP3   OH256037   6.385   2.808   6.163
11541TIP3    H156038   6.436   2.741   6.209
11541TIP3    H256039   6.305   2.818   6.215
11542TIP3   OH256040   4.459   2.299  16.224
11542TIP3    H156041   4.428   2.219  16.266
11542TIP3    H256042   4.402   2.368  16.258
11543TIP3   OH256043   0.023   6.283  11.074
11543TIP3    H156044  -0.000   6.260  11.164
11543TIP3    H256045  -0.060   6.299  11.031
11544TIP3   OH256046   3.963   4.134   3.011
11544TIP3    H156047   3.966   4.125   2.916
11544TIP3    H256048   4.049   4.106   3.041
11545TIP3   OH256049   4.462   1.381   4.324
11545TIP3    H156050   4.380   1.407   4.283
11545TIP3    H256051   4.521   1.365   4.250
11546TIP3   OH256052   2.115   6.488   1.343
11546TIP3    H156053   2.119   6.429   1.418
11546TIP3    H256054   2.034   6.464   1.298
11547TIP3   OH256055   5.462   1.667  17.183
11547TIP3    H156056   5.521   1.728  17.138
11547TIP3    H256057   5.516   1.590  17.199
11548TIP3   OH256058   1.994   2.320   2.368
11548TIP3    H156059   2.027   2.299   2.455
11548TIP3    H256060   1.899   2.317   2.377
11549TIP3   OH256061   1.320   4.024   4.212
11549TIP3    H156062   1.298   3.948   4.158
11549TIP3    H256063   1.306   4.099   4.155
11550TIP3   OH256064   2.221   2.788   3.941
11550TIP3    H156065   2.185   2.760   4.025
11550TIP3    H256066   2.144   2.795   3.884
11551TIP3   OH256067   5.073   5.712  13.052
11551TIP3    H156068   5.010   5.682  12.986
11551TIP3    H256069   5.132   5.771  13.004
11552TIP3   OH256070   0.623   0.470  13.785
11552TIP3    H156071   0.706   0.495  13.825
11552TIP3    H256072   0.608   0.535  13.717
11553TIP3   OH256073   1.434   0.194  11.216
11553TIP3    H156074   1.440   0.285  11.185
11553TIP3    H256075   1.495   0.146  11.160
11554TIP3   OH256076   2.598   5.110  12.377
11554TIP3    H156077   2.551   5.149  12.304
11554TIP3    H256078   2.678   5.161  12.385
11555TIP3   OH256079   0.878   2.608   6.473
11555TIP3    H156080   0.896   2.515   6.460
11555TIP3    H256081   0.783   2.616   6.461
11556TIP3   OH256082   1.879   0.104  15.470
11556TIP3    H156083   1.795   0.072  15.502
11556TIP3    H256084   1.866   0.119  15.377
11557TIP3   OH256085   3.430   6.011  11.980
11557TIP3    H156086   3.376   6.041  11.907
11557TIP3    H256087   3.478   5.935  11.946
11558TIP3   OH256088   4.210   2.887  15.040
11558TIP3    H156089   4.233   2.928  14.958
11558TIP3    H256090   4.127   2.842  15.023
11559TIP3   OH256091   5.886   2.061   4.934
11559TIP3    H156092   5.939   2.129   4.973
11559TIP3    H256093   5.949   1.995   4.905
11560TIP3   OH256094   1.048   5.600  12.488
11560TIP3    H156095   1.074   5.520  12.533
11560TIP3    H256096   1.047   5.576  12.395
11561TIP3   OH256097   1.622   3.218   3.476
11561TIP3    H156098   1.588   3.137   3.438
11561TIP3    H256099   1.676   3.257   3.407
11562TIP3   OH256100   2.540   1.110  14.870
11562TIP3    H156101   2.616   1.105  14.812
11562TIP3    H256102   2.539   1.201  14.901
11563TIP3   OH256103   2.539   6.518  15.934
11563TIP3    H156104   2.503   6.514  15.846
11563TIP3    H256105   2.574   6.607  15.942
11564TIP3   OH256106   4.747   4.921   1.985
11564TIP3    H156107   4.789   4.886   1.906
11564TIP3    H256108   4.653   4.911   1.968
11565TIP3   OH256109   4.860   5.883  13.803
11565TIP3    H156110   4.766   5.879  13.785
11565TIP3    H256111   4.897   5.931  13.729
11566TIP3   OH256112   1.358   2.533   0.894
11566TIP3    H156113   1.429   2.504   0.951
11566TIP3    H256114   1.295   2.460   0.895
11567TIP3   OH256115   5.669   1.282  15.202
11567TIP3    H156116   5.761   1.293  15.179
11567TIP3    H256117   5.635   1.221  15.136
11568TIP3   OH256118   3.468   2.899  12.050
11568TIP3    H156119   3.529   2.826  12.060
11568TIP3    H256120   3.397   2.880  12.112
11569TIP3   OH256121   5.372   5.581   1.119
11569TIP3    H156122   5.293   5.558   1.167
11569TIP3    H256123   5.441   5.582   1.185
11570TIP3   OH256124   5.023   2.602  15.186
11570TIP3    H156125   5.098   2.561  15.142
11570TIP3    H256126   4.986   2.660  15.120
11571TIP3   OH256127   5.087   5.385  14.793
11571TIP3    H156128   4.999   5.413  14.770
11571TIP3    H256129   5.116   5.332  14.718
11572TIP3   OH256130   3.693   3.074  14.806
11572TIP3    H156131   3.625   3.051  14.870
11572TIP3    H256132   3.773   3.083  14.857
11573TIP3   OH256133   4.676   5.136  12.439
11573TIP3    H156134   4.757   5.131  12.389
11573TIP3    H256135   4.686   5.214  12.494
11574TIP3   OH256136   4.128   5.757   0.505
11574TIP3    H156137   4.161   5.668   0.495
11574TIP3    H256138   4.179   5.794   0.577
11575TIP3   OH256139   4.106   3.175  16.103
11575TIP3    H156140   4.179   3.114  16.113
11575TIP3    H256141   4.067   3.180  16.190
11576TIP3   OH256142   6.223   3.616  14.350
11576TIP3    H156143   6.272   3.537  14.370
11576TIP3    H256144   6.157   3.622  14.419
11577TIP3   OH256145   4.311   5.584  10.588
11577TIP3    H156146   4.306   5.677  10.566
11577TIP3    H256147   4.230   5.566  10.636
11578TIP3   OH256148   3.451   2.197  14.889
11578TIP3    H156149   3.500   2.124  14.851
11578TIP3    H256150   3.362   2.186  14.855
11579TIP3   OH256151   5.129   4.749   3.813
11579TIP3    H156152   5.147   4.795   3.731
11579TIP3    H256153   5.187   4.790   3.877
11580TIP3   OH256154   2.302   4.519  13.862
11580TIP3    H156155   2.303   4.609  13.830
11580TIP3    H256156   2.209   4.499  13.873
11581TIP3   OH256157   4.461   3.696  14.259
11581TIP3    H156158   4.413   3.779  14.258
11581TIP3    H256159   4.529   3.707  14.192
11582TIP3   OH256160   5.918   0.322  10.631
11582TIP3    H156161   5.972   0.320  10.552
11582TIP3    H256162   5.828   0.308  10.600
11583TIP3   OH256163   3.065   4.887   2.039
11583TIP3    H156164   2.972   4.880   2.018
11583TIP3    H256165   3.090   4.973   2.006
11584TIP3   OH256166   0.597   5.636  14.776
11584TIP3    H156167   0.567   5.594  14.856
11584TIP3    H256168   0.693   5.627  14.778
11585TIP3   OH256169   2.790   5.885   3.395
11585TIP3    H156170   2.813   5.834   3.318
11585TIP3    H256171   2.843   5.964   3.388
11586TIP3   OH256172   0.781   3.882  14.303
11586TIP3    H156173   0.810   3.897  14.393
11586TIP3    H256174   0.690   3.910  14.301
11587TIP3   OH256175   0.588   3.966   4.333
11587TIP3    H156176   0.495   3.956   4.353
11587TIP3    H256177   0.590   4.020   4.254
11588TIP3   OH256178   6.768   6.579  17.172
11588TIP3    H156179   6.751   6.487  17.151
11588TIP3    H256180   6.728   6.592  17.258
11589TIP3   OH256181   5.960   1.365  13.808
11589TIP3    H156182   6.035   1.309  13.793
11589TIP3    H256183   5.888   1.324  13.760
11590TIP3   OH256184   2.065   2.910   4.134
11590TIP3    H156185   2.116   2.978   4.091
11590TIP3    H256186   2.000   2.958   4.186
11591TIP3   OH256187   4.020   4.154  12.804
11591TIP3    H156188   3.960   4.086  12.775
11591TIP3    H256189   3.968   4.209  12.862
11592TIP3   OH256190   6.132   0.786   1.778
11592TIP3    H156191   6.064   0.724   1.753
11592TIP3    H256192   6.177   0.743   1.851
11593TIP3   OH256193   1.263   2.219  15.492
11593TIP3    H156194   1.309   2.155  15.438
11593TIP3    H256195   1.278   2.303  15.449
11594TIP3   OH256196   5.842   4.422   3.636
11594TIP3    H156197   5.779   4.452   3.701
11594TIP3    H256198   5.815   4.332   3.616
11595TIP3   OH256199   5.448   1.787   1.198
11595TIP3    H156200   5.374   1.729   1.178
11595TIP3    H256201   5.523   1.747   1.153
11596TIP3   OH256202   1.890   3.770  11.767
11596TIP3    H156203   1.824   3.705  11.791
11596TIP3    H256204   1.849   3.854  11.789
11597TIP3   OH256205   4.571   6.493   0.797
11597TIP3    H156206   4.647   6.464   0.847
11597TIP3    H256207   4.521   6.547   0.858
11598TIP3   OH256208   3.413   6.399  14.754
11598TIP3    H156209   3.480   6.342  14.717
11598TIP3    H256210   3.451   6.487  14.748
11599TIP3   OH256211   3.808   5.398  12.044
11599TIP3    H156212   3.772   5.345  12.116
11599TIP3    H256213   3.826   5.483  12.084
11600TIP3   OH256214   2.077   2.669   2.568
11600TIP3    H156215   2.083   2.604   2.498
11600TIP3    H256216   2.142   2.642   2.632
11601TIP3   OH256217   3.034   2.051   3.947
11601TIP3    H156218   3.077   1.974   3.986
11601TIP3    H256219   3.064   2.052   3.856
11602TIP3   OH256220   4.259   3.574   3.390
11602TIP3    H156221   4.284   3.554   3.480
11602TIP3    H256222   4.169   3.606   3.396
11603TIP3   OH256223   4.410   0.881   0.043
11603TIP3    H156224   4.315   0.885   0.053
11603TIP3    H256225   4.437   0.972   0.029
11604TIP3   OH256226   1.875   4.439  15.148
11604TIP3    H156227   1.892   4.515  15.204
11604TIP3    H256228   1.941   4.375  15.175
11605TIP3   OH256229   2.536   1.293  15.337
11605TIP3    H156230   2.463   1.286  15.275
11605TIP3    H256231   2.528   1.217  15.394
11606TIP3   OH256232   3.603   6.620  15.719
11606TIP3    H156233   3.683   6.597  15.767
11606TIP3    H256234   3.617   6.711  15.692
11607TIP3   OH256235   4.234   4.462  12.504
11607TIP3    H156236   4.225   4.436  12.413
11607TIP3    H256237   4.317   4.511  12.507
11608TIP3   OH256238   5.003   3.287   0.599
11608TIP3    H156239   5.002   3.284   0.504
11608TIP3    H256240   5.028   3.198   0.626
11609TIP3   OH256241   4.056   2.037   0.281
11609TIP3    H156242   4.000   2.108   0.250
11609TIP3    H256243   4.129   2.035   0.219
11610TIP3   OH256244   1.033   5.586  16.793
11610TIP3    H156245   1.042   5.681  16.778
11610TIP3    H256246   1.067   5.573  16.882
11611TIP3   OH256247   4.905   3.390   5.440
11611TIP3    H156248   4.959   3.341   5.502
11611TIP3    H256249   4.902   3.334   5.362
11612TIP3   OH256250   4.949   4.682   0.532
11612TIP3    H156251   4.957   4.746   0.462
11612TIP3    H256252   4.991   4.723   0.608
11613TIP3   OH256253   6.686   3.068  16.014
11613TIP3    H156254   6.626   3.034  15.947
11613TIP3    H256255   6.631   3.121  16.071
11614TIP3   OH256256   6.576   4.869   0.592
11614TIP3    H156257   6.628   4.789   0.580
11614TIP3    H256258   6.514   4.868   0.520
11615TIP3   OH256259   3.295   5.051  13.402
11615TIP3    H156260   3.354   5.074  13.474
11615TIP3    H256261   3.277   4.958  13.415
11616TIP3   OH256262   5.248   5.276   3.949
11616TIP3    H156263   5.250   5.317   4.035
11616TIP3    H256264   5.228   5.184   3.966
11617TIP3   OH256265   1.674   2.320  12.358
11617TIP3    H156266   1.631   2.406  12.351
11617TIP3    H256267   1.629   2.266  12.293
11618TIP3   OH256268   4.359   5.891  15.617
11618TIP3    H156269   4.351   5.986  15.600
11618TIP3    H256270   4.332   5.880  15.708
11619TIP3   OH256271   6.113   5.494  14.347
11619TIP3    H156272   6.148   5.447  14.423
11619TIP3    H256273   6.020   5.470  14.345
11620TIP3   OH256274   6.217   0.088  17.026
11620TIP3    H156275   6.214   0.046  16.940
11620TIP3    H256276   6.291   0.048  17.070
11621TIP3   OH256277   1.661   2.626  15.181
11621TIP3    H156278   1.576   2.590  15.206
11621TIP3    H256279   1.690   2.676  15.257
11622TIP3   OH256280   3.882   5.426  13.892
11622TIP3    H156281   3.837   5.489  13.949
11622TIP3    H256282   3.975   5.447  13.903
11623TIP3   OH256283   6.199   5.969   2.093
11623TIP3    H156284   6.204   6.065   2.101
11623TIP3    H256285   6.137   5.943   2.161
11624TIP3   OH256286   1.907   5.703   1.193
11624TIP3    H156287   1.954   5.693   1.275
11624TIP3    H256288   1.872   5.616   1.174
11625TIP3   OH256289   5.130   2.066  16.403
11625TIP3    H156290   5.048   2.112  16.422
11625TIP3    H256291   5.129   2.055  16.308
11626TIP3   OH256292   6.175   2.138  13.519
11626TIP3    H156293   6.106   2.072  13.527
11626TIP3    H256294   6.129   2.221  13.524
11627TIP3   OH256295   0.475   1.399  14.048
11627TIP3    H156296   0.467   1.491  14.022
11627TIP3    H256297   0.438   1.350  13.975
11628TIP3   OH256298   1.557   5.817  15.410
11628TIP3    H156299   1.470   5.777  15.418
11628TIP3    H256300   1.557   5.886  15.476
11629TIP3   OH256301   1.208   4.724  12.621
11629TIP3    H156302   1.238   4.740  12.532
11629TIP3    H256303   1.261   4.651  12.652
11630TIP3   OH256304   2.265   2.458   1.655
11630TIP3    H156305   2.355   2.444   1.684
11630TIP3    H256306   2.214   2.464   1.736
11631TIP3   OH256307   5.767   0.319   5.103
11631TIP3    H156308   5.786   0.260   5.176
11631TIP3    H256309   5.747   0.403   5.144
11632TIP3   OH256310   0.341   0.873   3.926
11632TIP3    H156311   0.349   0.969   3.928
11632TIP3    H256312   0.367   0.845   4.013
11633TIP3   OH256313   6.393   1.134  14.662
11633TIP3    H156314   6.328   1.195  14.697
11633TIP3    H256315   6.477   1.179  14.672
11634TIP3   OH256316   3.235   4.606   5.143
11634TIP3    H156317   3.225   4.624   5.236
11634TIP3    H256318   3.326   4.578   5.133
11635TIP3   OH256319   6.413   4.442   2.523
11635TIP3    H156320   6.499   4.421   2.559
11635TIP3    H256321   6.379   4.510   2.581
11636TIP3   OH256322   1.754   2.375   5.136
11636TIP3    H156323   1.808   2.326   5.073
11636TIP3    H256324   1.817   2.406   5.201
11637TIP3   OH256325   2.214   5.943  11.879
11637TIP3    H156326   2.153   5.916  11.948
11637TIP3    H256327   2.256   6.022  11.914
11638TIP3   OH256328   5.866   1.333  14.101
11638TIP3    H156329   5.921   1.411  14.096
11638TIP3    H256330   5.792   1.359  14.156
11639TIP3   OH256331   0.812   4.703   1.738
11639TIP3    H156332   0.775   4.649   1.669
11639TIP3    H256333   0.796   4.653   1.818
11640TIP3   OH256334   4.352   2.064  15.185
11640TIP3    H156335   4.321   2.036  15.099
11640TIP3    H256336   4.417   2.132  15.165
11641TIP3   OH256337   5.381   4.084  13.058
11641TIP3    H156338   5.446   4.074  12.988
11641TIP3    H256339   5.308   4.129  13.017
11642TIP3   OH256340   3.982   6.345  16.989
11642TIP3    H156341   3.989   6.363  17.083
11642TIP3    H256342   4.005   6.428  16.947
11643TIP3   OH256343   0.719   5.553  12.655
11643TIP3    H156344   0.680   5.556  12.743
11643TIP3    H256345   0.797   5.498  12.666
11644TIP3   OH256346   6.358   3.815   4.415
11644TIP3    H156347   6.340   3.813   4.509
11644TIP3    H256348   6.337   3.727   4.384
11645TIP3   OH256349   5.058   0.220   1.704
11645TIP3    H156350   4.985   0.234   1.764
11645TIP3    H256351   5.026   0.155   1.642
11646TIP3   OH256352   6.257   2.650  17.136
11646TIP3    H156353   6.348   2.679  17.133
11646TIP3    H256354   6.208   2.718  17.090
11647TIP3   OH256355   0.783   3.193   0.515
11647TIP3    H156356   0.810   3.158   0.430
11647TIP3    H256357   0.788   3.288   0.505
11648TIP3   OH256358   0.779   0.307  15.471
11648TIP3    H156359   0.784   0.229  15.416
11648TIP3    H256360   0.870   0.329  15.489
11649TIP3   OH256361   1.735   3.517  13.911
11649TIP3    H156362   1.827   3.511  13.886
11649TIP3    H256363   1.687   3.504  13.830
11650TIP3   OH256364   2.643   3.447   3.816
11650TIP3    H156365   2.586   3.447   3.893
11650TIP3    H256366   2.721   3.400   3.844
11651TIP3   OH256367   5.563   3.010   5.977
11651TIP3    H156368   5.591   2.993   6.067
11651TIP3    H256369   5.504   3.085   5.985
11652TIP3   OH256370   2.693   0.387  15.474
11652TIP3    H156371   2.671   0.346  15.390
11652TIP3    H256372   2.766   0.445  15.453
11653TIP3   OH256373   0.524   3.911  16.611
11653TIP3    H156374   0.498   3.984  16.667
11653TIP3    H256375   0.616   3.928  16.590
11654TIP3   OH256376   6.507   5.166  15.807
11654TIP3    H156377   6.445   5.238  15.803
11654TIP3    H256378   6.535   5.153  15.716
11655TIP3   OH256379   4.127   4.562   3.440
11655TIP3    H156380   4.167   4.478   3.462
11655TIP3    H256381   4.199   4.613   3.403
11656TIP3   OH256382   4.888   4.497  16.009
11656TIP3    H156383   4.935   4.513  15.928
11656TIP3    H256384   4.848   4.582  16.031
11657TIP3   OH256385   1.748   0.731  12.577
11657TIP3    H156386   1.766   0.647  12.619
11657TIP3    H256387   1.826   0.749  12.525
11658TIP3   OH256388   0.233   4.329   3.269
11658TIP3    H156389   0.319   4.319   3.309
11658TIP3    H256390   0.248   4.318   3.175
11659TIP3   OH256391   0.359   6.373   4.852
11659TIP3    H156392   0.294   6.441   4.870
11659TIP3    H256393   0.370   6.327   4.935
11660TIP3   OH256394   2.735   0.854   0.356
11660TIP3    H156395   2.647   0.816   0.366
11660TIP3    H256396   2.794   0.789   0.395
11661TIP3   OH256397   5.676   5.067  13.133
11661TIP3    H156398   5.691   5.124  13.209
11661TIP3    H256399   5.661   5.127  13.061
11662TIP3   OH256400   2.510   1.584   0.756
11662TIP3    H156401   2.591   1.597   0.708
11662TIP3    H256402   2.516   1.494   0.788
11663TIP3   OH256403   0.389   1.137   0.934
11663TIP3    H156404   0.367   1.229   0.950
11663TIP3    H256405   0.336   1.112   0.859
11664TIP3   OH256406   6.092   2.881   1.944
11664TIP3    H156407   6.080   2.844   1.857
11664TIP3    H256408   6.125   2.970   1.928
11665TIP3   OH256409   1.353   6.125   0.906
11665TIP3    H156410   1.276   6.174   0.936
11665TIP3    H256411   1.416   6.133   0.977
11666TIP3   OH256412   1.824   2.078  15.328
11666TIP3    H156413   1.904   2.072  15.275
11666TIP3    H256414   1.826   2.000  15.383
11667TIP3   OH256415   6.769   5.005  16.526
11667TIP3    H156416   6.774   5.034  16.435
11667TIP3    H256417   6.852   4.960  16.541
11668TIP3   OH256418   4.342   0.625   5.904
11668TIP3    H156419   4.402   0.689   5.942
11668TIP3    H256420   4.396   0.573   5.846
11669TIP3   OH256421   1.241   0.204   1.627
11669TIP3    H156422   1.216   0.152   1.703
11669TIP3    H256423   1.246   0.140   1.555
11670TIP3   OH256424   1.717   1.907  14.408
11670TIP3    H156425   1.758   1.993  14.400
11670TIP3    H256426   1.778   1.848  14.364
11671TIP3   OH256427   5.179   0.666  12.686
11671TIP3    H156428   5.166   0.724  12.761
11671TIP3    H256429   5.141   0.582  12.714
11672TIP3   OH256430   4.134   6.053  11.527
11672TIP3    H156431   4.070   6.039  11.597
11672TIP3    H256432   4.160   5.964  11.501
11673TIP3   OH256433   3.666   6.047   5.811
11673TIP3    H156434   3.576   6.027   5.786
11673TIP3    H256435   3.717   5.972   5.781
11674TIP3   OH256436   4.585   4.216   1.288
11674TIP3    H156437   4.562   4.283   1.353
11674TIP3    H256438   4.642   4.155   1.336
11675TIP3   OH256439   3.421   3.527   2.716
11675TIP3    H156440   3.362   3.579   2.770
11675TIP3    H256441   3.391   3.543   2.626
11676TIP3   OH256442   5.547   2.897   2.225
11676TIP3    H156443   5.536   2.812   2.183
11676TIP3    H256444   5.486   2.896   2.299
11677TIP3   OH256445   0.708   2.618  16.836
11677TIP3    H156446   0.791   2.632  16.881
11677TIP3    H256447   0.733   2.578  16.753
11678TIP3   OH256448   3.878   1.776   3.179
11678TIP3    H156449   3.878   1.681   3.173
11678TIP3    H256450   3.970   1.801   3.172
11679TIP3   OH256451   5.936   2.769  13.110
11679TIP3    H156452   5.878   2.827  13.159
11679TIP3    H256453   5.940   2.807  13.022
11680TIP3   OH256454   0.575   3.417  14.060
11680TIP3    H156455   0.530   3.499  14.040
11680TIP3    H256456   0.667   3.435  14.041
11681TIP3   OH256457   2.442   0.044  12.946
11681TIP3    H156458   2.532   0.034  12.976
11681TIP3    H256459   2.449   0.047  12.850
11682TIP3   OH256460   1.879   5.437   0.220
11682TIP3    H156461   1.868   5.521   0.177
11682TIP3    H256462   1.906   5.377   0.150
11683TIP3   OH256463   5.226   5.985  12.525
11683TIP3    H156464   5.203   5.894  12.545
11683TIP3    H256465   5.250   5.984  12.432
11684TIP3   OH256466   0.403   5.045   2.918
11684TIP3    H156467   0.491   5.018   2.890
11684TIP3    H256468   0.412   5.062   3.012
11685TIP3   OH256469   5.898   5.702   5.087
11685TIP3    H156470   5.821   5.737   5.044
11685TIP3    H256471   5.946   5.656   5.018
11686TIP3   OH256472   4.376   2.618   5.382
11686TIP3    H156473   4.447   2.564   5.347
11686TIP3    H256474   4.356   2.679   5.312
11687TIP3   OH256475   3.607   3.341  10.679
11687TIP3    H156476   3.583   3.294  10.599
11687TIP3    H256477   3.575   3.285  10.750
11688TIP3   OH256478   0.781   2.075  14.038
11688TIP3    H156479   0.807   2.102  14.125
11688TIP3    H256480   0.863   2.060  13.991
11689TIP3   OH256481   6.182   3.910  14.611
11689TIP3    H156482   6.157   3.818  14.610
11689TIP3    H256483   6.212   3.925  14.701
11690TIP3   OH256484   4.016   4.632  12.329
11690TIP3    H156485   4.046   4.572  12.398
11690TIP3    H256486   3.921   4.629  12.334
11691TIP3   OH256487   5.126   1.973   1.540
11691TIP3    H156488   5.103   2.047   1.484
11691TIP3    H256489   5.210   1.942   1.506
11692TIP3   OH256490   1.881   5.546   6.047
11692TIP3    H156491   1.853   5.461   6.014
11692TIP3    H256492   1.818   5.608   6.011
11693TIP3   OH256493   5.181   5.252   5.617
11693TIP3    H156494   5.222   5.338   5.603
11693TIP3    H256495   5.092   5.272   5.644
11694TIP3   OH256496   4.782   2.255  15.776
11694TIP3    H156497   4.772   2.206  15.857
11694TIP3    H256498   4.714   2.220  15.718
11695TIP3   OH256499   2.274   1.370   3.954
11695TIP3    H156500   2.329   1.442   3.922
11695TIP3    H256501   2.244   1.400   4.040
11696TIP3   OH256502   5.870   1.513   3.244
11696TIP3    H156503   5.781   1.504   3.279
11696TIP3    H256504   5.897   1.424   3.223
11697TIP3   OH256505   1.417   2.371  15.131
11697TIP3    H156506   1.399   2.316  15.054
11697TIP3    H256507   1.488   2.326  15.177
11698TIP3   OH256508   4.313   5.027  14.592
11698TIP3    H156509   4.269   5.090  14.534
11698TIP3    H256510   4.295   5.061  14.680
11699TIP3   OH256511   6.483   4.114  10.983
11699TIP3    H156512   6.394   4.092  10.957
11699TIP3    H256513   6.519   4.161  10.907
11700TIP3   OH256514   4.740   1.346   0.184
11700TIP3    H156515   4.815   1.296   0.217
11700TIP3    H256516   4.684   1.358   0.260
11701TIP3   OH256517   5.391   2.931   1.422
11701TIP3    H156518   5.370   2.933   1.516
11701TIP3    H256519   5.460   2.996   1.411
11702TIP3   OH256520   1.796   6.512  10.593
11702TIP3    H156521   1.758   6.438  10.545
11702TIP3    H256522   1.890   6.507  10.574
11703TIP3   OH256523   1.234   2.881   3.827
11703TIP3    H156524   1.200   2.802   3.868
11703TIP3    H256525   1.201   2.952   3.881
11704TIP3   OH256526   0.800   2.967  12.172
11704TIP3    H156527   0.714   2.929  12.185
11704TIP3    H256528   0.784   3.061  12.163
11705TIP3   OH256529   3.493   3.907   5.246
11705TIP3    H156530   3.465   3.889   5.335
11705TIP3    H256531   3.571   3.852   5.234
11706TIP3   OH256532   6.019   2.825  12.010
11706TIP3    H156533   5.937   2.841  12.057
11706TIP3    H256534   6.008   2.738  11.973
11707TIP3   OH256535   1.584   5.296  11.895
11707TIP3    H156536   1.543   5.211  11.911
11707TIP3    H256537   1.653   5.302  11.961
11708TIP3   OH256538   4.936   3.872   5.617
11708TIP3    H156539   4.934   3.888   5.523
11708TIP3    H256540   4.961   3.780   5.626
11709TIP3   OH256541   6.117   2.003   4.604
11709TIP3    H156542   6.145   2.087   4.639
11709TIP3    H256543   6.191   1.944   4.621
11710TIP3   OH256544   2.850   4.373   6.334
11710TIP3    H156545   2.754   4.378   6.338
11710TIP3    H256546   2.871   4.299   6.392
11711TIP3   OH256547   3.715   4.310  11.212
11711TIP3    H156548   3.800   4.279  11.181
11711TIP3    H256549   3.671   4.342  11.133
11712TIP3   OH256550   0.746   6.349   2.893
11712TIP3    H156551   0.668   6.309   2.932
11712TIP3    H256552   0.722   6.441   2.882
11713TIP3   OH256553   4.865   1.635   2.551
11713TIP3    H156554   4.932   1.587   2.601
11713TIP3    H256555   4.889   1.622   2.459
11714TIP3   OH256556   3.309   0.813   4.306
11714TIP3    H156557   3.398   0.825   4.274
11714TIP3    H256558   3.310   0.727   4.348
11715TIP3   OH256559   1.419   5.627   1.338
11715TIP3    H156560   1.362   5.685   1.389
11715TIP3    H256561   1.492   5.682   1.312
11716TIP3   OH256562   3.620   2.606   3.731
11716TIP3    H156563   3.708   2.570   3.725
11716TIP3    H256564   3.630   2.697   3.702
11717TIP3   OH256565   5.286   0.525  15.997
11717TIP3    H156566   5.216   0.480  16.044
11717TIP3    H256567   5.365   0.506  16.047
11718TIP3   OH256568   4.946   6.640   0.584
11718TIP3    H156569   4.864   6.652   0.535
11718TIP3    H256570   4.984   6.560   0.548
11719TIP3   OH256571   5.415   0.335  14.539
11719TIP3    H156572   5.341   0.318  14.480
11719TIP3    H256573   5.452   0.417  14.507
11720TIP3   OH256574   3.981   1.379  14.844
11720TIP3    H156575   4.026   1.430  14.777
11720TIP3    H256576   3.999   1.425  14.926
11721TIP3   OH256577   2.247   3.294   5.079
11721TIP3    H156578   2.321   3.354   5.088
11721TIP3    H256579   2.182   3.327   5.140
11722TIP3   OH256580   1.460   4.850  13.894
11722TIP3    H156581   1.489   4.929  13.939
11722TIP3    H256582   1.444   4.878  13.804
11723TIP3   OH256583   0.961   0.684  16.537
11723TIP3    H156584   0.913   0.674  16.455
11723TIP3    H256585   1.045   0.721  16.510
11724TIP3   OH256586   1.604   0.949   6.199
11724TIP3    H156587   1.643   1.022   6.248
11724TIP3    H256588   1.540   0.911   6.260
11725TIP3   OH256589   5.338   1.316   1.280
11725TIP3    H156590   5.282   1.242   1.301
11725TIP3    H256591   5.390   1.330   1.359
11726TIP3   OH256592   5.479   0.839  12.744
11726TIP3    H156593   5.423   0.861  12.669
11726TIP3    H256594   5.424   0.856  12.821
11727TIP3   OH256595   3.079   4.945   4.450
11727TIP3    H156596   3.092   4.865   4.501
11727TIP3    H256597   3.006   4.990   4.493
11728TIP3   OH256598   3.924   1.991  16.625
11728TIP3    H156599   4.009   2.006  16.667
11728TIP3    H256600   3.866   1.966  16.697
11729TIP3   OH256601   4.108   5.274   4.412
11729TIP3    H156602   4.096   5.289   4.318
11729TIP3    H256603   4.044   5.330   4.454
11730TIP3   OH256604   5.577   1.327   0.263
11730TIP3    H156605   5.527   1.289   0.191
11730TIP3    H256606   5.662   1.350   0.224
11731TIP3   OH256607   0.262   6.068  10.541
11731TIP3    H156608   0.215   6.146  10.570
11731TIP3    H256609   0.200   5.996  10.557
11732TIP3   OH256610   3.661   1.814   5.439
11732TIP3    H156611   3.720   1.870   5.490
11732TIP3    H256612   3.647   1.737   5.493
11733TIP3   OH256613   3.675   1.782  17.128
11733TIP3    H156614   3.642   1.701  17.090
11733TIP3    H256615   3.622   1.851  17.087
11734TIP3   OH256616   5.918   3.117  15.455
11734TIP3    H156617   5.848   3.098  15.392
11734TIP3    H256618   5.910   3.048  15.521
11735TIP3   OH256619   0.209   0.457  11.906
11735TIP3    H156620   0.125   0.492  11.874
11735TIP3    H256621   0.217   0.372  11.863
11736TIP3   OH256622   3.135   4.677  14.479
11736TIP3    H156623   3.159   4.605  14.538
11736TIP3    H256624   3.044   4.696  14.499
11737TIP3   OH256625   4.412   4.759   0.664
11737TIP3    H156626   4.464   4.685   0.632
11737TIP3    H256627   4.422   4.756   0.759
11738TIP3   OH256628   0.884   5.923  13.100
11738TIP3    H156629   0.822   5.850  13.102
11738TIP3    H256630   0.923   5.918  13.013
11739TIP3   OH256631   0.536   1.185  10.344
11739TIP3    H156632   0.625   1.189  10.379
11739TIP3    H256633   0.536   1.107  10.288
11740TIP3   OH256634   4.649   5.487   2.567
11740TIP3    H156635   4.726   5.467   2.620
11740TIP3    H256636   4.612   5.566   2.607
11741TIP3   OH256637   2.822   3.571  11.765
11741TIP3    H156638   2.903   3.611  11.733
11741TIP3    H256639   2.850   3.488  11.803
11742TIP3   OH256640   3.177   6.775  10.678
11742TIP3    H156641   3.245   6.770  10.744
11742TIP3    H256642   3.196   6.854  10.628
11743TIP3   OH256643   4.156   6.543   0.470
11743TIP3    H156644   4.100   6.582   0.403
11743TIP3    H256645   4.224   6.609   0.486
11744TIP3   OH256646   1.837   4.785   2.278
11744TIP3    H156647   1.817   4.875   2.302
11744TIP3    H256648   1.783   4.768   2.201
11745TIP3   OH256649   0.043   1.231  11.167
11745TIP3    H156650   0.047   1.324  11.144
11745TIP3    H256651   0.004   1.229  11.254
11746TIP3   OH256652   6.379   5.456  15.984
11746TIP3    H156653   6.372   5.541  16.027
11746TIP3    H256654   6.434   5.404  16.043
11747TIP3   OH256655   5.101   1.268   3.268
11747TIP3    H156656   5.181   1.216   3.274
11747TIP3    H256657   5.068   1.273   3.357
11748TIP3   OH256658   0.076   4.948   4.486
11748TIP3    H156659   0.069   4.880   4.552
11748TIP3    H256660   0.170   4.966   4.480
11749TIP3   OH256661   3.764   5.407  15.291
11749TIP3    H156662   3.819   5.486  15.287
11749TIP3    H256663   3.720   5.404  15.206
11750TIP3   OH256664   2.545   0.806  16.788
11750TIP3    H156665   2.456   0.840  16.783
11750TIP3    H256666   2.550   0.742  16.718
11751TIP3   OH256667   3.535   3.387  14.023
11751TIP3    H156668   3.604   3.335  14.063
11751TIP3    H256669   3.504   3.444  14.094
11752TIP3   OH256670   2.704   2.190   4.143
11752TIP3    H156671   2.743   2.208   4.058
11752TIP3    H256672   2.710   2.095   4.153
11753TIP3   OH256673   6.425   1.173  17.003
11753TIP3    H156674   6.464   1.190  17.088
11753TIP3    H256675   6.494   1.193  16.940
11754TIP3   OH256676   2.837   0.505  13.431
11754TIP3    H156677   2.861   0.581  13.379
11754TIP3    H256678   2.742   0.508  13.435
11755TIP3   OH256679   2.646   6.032  15.870
11755TIP3    H156680   2.715   6.091  15.842
11755TIP3    H256681   2.573   6.050  15.811
11756TIP3   OH256682   6.490   1.177   4.940
11756TIP3    H156683   6.482   1.133   4.855
11756TIP3    H256684   6.424   1.136   4.995
11757TIP3   OH256685   6.695   6.105  10.806
11757TIP3    H156686   6.630   6.174  10.822
11757TIP3    H256687   6.769   6.151  10.767
11758TIP3   OH256688   4.811   1.562   1.129
11758TIP3    H156689   4.753   1.489   1.151
11758TIP3    H256690   4.850   1.538   1.045
11759TIP3   OH256691   3.762   3.546  10.768
11759TIP3    H156692   3.831   3.494  10.809
11759TIP3    H256693   3.719   3.485  10.709
11760TIP3   OH256694   3.995   6.315   1.357
11760TIP3    H156695   4.032   6.350   1.438
11760TIP3    H256696   4.067   6.320   1.294
11761TIP3   OH256697   3.519   1.235  16.930
11761TIP3    H156698   3.454   1.180  16.974
11761TIP3    H256699   3.500   1.224  16.837
11762TIP3   OH256700   4.055   5.900   2.476
11762TIP3    H156701   4.130   5.945   2.514
11762TIP3    H256702   4.094   5.839   2.412
11763TIP3   OH256703   2.341   2.407   4.697
11763TIP3    H156704   2.404   2.460   4.745
11763TIP3    H256705   2.343   2.321   4.739
11764TIP3   OH256706   0.398   5.415  15.827
11764TIP3    H156707   0.311   5.384  15.849
11764TIP3    H256708   0.455   5.339  15.844
11765TIP3   OH256709   2.034   3.358   3.463
11765TIP3    H156710   2.024   3.321   3.375
11765TIP3    H256711   2.115   3.409   3.458
11766TIP3   OH256712   1.162   4.494  15.944
11766TIP3    H156713   1.131   4.534  16.025
11766TIP3    H256714   1.100   4.524  15.877
11767TIP3   OH256715   1.916   1.875  12.380
11767TIP3    H156716   1.906   1.848  12.289
11767TIP3    H256717   1.887   1.966  12.381
11768TIP3   OH256718   0.945   5.882   2.839
11768TIP3    H156719   0.857   5.919   2.835
11768TIP3    H256720   0.947   5.816   2.770
11769TIP3   OH256721   4.443   2.048   6.326
11769TIP3    H156722   4.489   2.038   6.409
11769TIP3    H256723   4.389   1.969   6.320
11770TIP3   OH256724   4.433   6.083  12.969
11770TIP3    H156725   4.480   6.166  12.964
11770TIP3    H256726   4.403   6.078  13.060
11771TIP3   OH256727   0.453   0.430   4.851
11771TIP3    H156728   0.429   0.375   4.925
11771TIP3    H256729   0.539   0.397   4.823
11772TIP3   OH256730   2.679   4.557  13.869
11772TIP3    H156731   2.680   4.599  13.956
11772TIP3    H256732   2.629   4.477  13.882
11773TIP3   OH256733   5.693   4.811  11.671
11773TIP3    H156734   5.640   4.746  11.716
11773TIP3    H256735   5.740   4.762  11.604
11774TIP3   OH256736   3.212   2.402   1.126
11774TIP3    H156737   3.230   2.346   1.050
11774TIP3    H256738   3.131   2.448   1.103
11775TIP3   OH256739   3.465   1.103   4.410
11775TIP3    H156740   3.423   1.090   4.326
11775TIP3    H256741   3.425   1.038   4.468
11776TIP3   OH256742   5.513   6.349   3.912
11776TIP3    H156743   5.504   6.310   3.999
11776TIP3    H256744   5.479   6.438   3.923
11777TIP3   OH256745   0.297   1.881   1.780
11777TIP3    H156746   0.378   1.877   1.730
11777TIP3    H256747   0.288   1.974   1.804
11778TIP3   OH256748   5.544   4.548   2.249
11778TIP3    H156749   5.554   4.572   2.341
11778TIP3    H256750   5.522   4.630   2.205
11779TIP3   OH256751   2.456   0.645   3.487
11779TIP3    H156752   2.389   0.586   3.452
11779TIP3    H256753   2.536   0.593   3.486
11780TIP3   OH256754   4.342   4.553   2.641
11780TIP3    H156755   4.418   4.498   2.620
11780TIP3    H256756   4.363   4.638   2.601
11781TIP3   OH256757   0.412   5.673   4.842
11781TIP3    H156758   0.392   5.586   4.805
11781TIP3    H256759   0.506   5.683   4.829
11782TIP3   OH256760   6.058   2.163   2.385
11782TIP3    H156761   6.062   2.259   2.394
11782TIP3    H256762   5.974   2.139   2.425
11783TIP3   OH256763   6.692   1.577  14.785
11783TIP3    H156764   6.619   1.582  14.846
11783TIP3    H256765   6.770   1.586  14.840
11784TIP3   OH256766   6.150   6.179   4.088
11784TIP3    H156767   6.079   6.187   4.024
11784TIP3    H256768   6.223   6.228   4.049
11785TIP3   OH256769   0.518   6.656  12.497
11785TIP3    H156770   0.597   6.616  12.531
11785TIP3    H256771   0.447   6.615  12.547
11786TIP3   OH256772   6.023   6.291   2.285
11786TIP3    H156773   6.008   6.196   2.285
11786TIP3    H256774   6.066   6.308   2.369
11787TIP3   OH256775   0.648   0.719   2.482
11787TIP3    H156776   0.671   0.804   2.446
11787TIP3    H256777   0.721   0.662   2.458
11788TIP3   OH256778   6.580   5.038  16.991
11788TIP3    H156779   6.658   5.043  16.937
11788TIP3    H256780   6.517   4.988  16.939
11789TIP3   OH256781   4.052   2.231  15.925
11789TIP3    H156782   3.962   2.207  15.948
11789TIP3    H256783   4.100   2.229  16.008
11790TIP3   OH256784   3.055   0.207  16.697
11790TIP3    H156785   3.000   0.176  16.769
11790TIP3    H256786   2.994   0.241  16.632
11791TIP3   OH256787   1.528   1.391  14.597
11791TIP3    H156788   1.585   1.343  14.537
11791TIP3    H256789   1.462   1.327  14.625
11792TIP3   OH256790   3.852   1.900  15.649
11792TIP3    H156791   3.912   1.851  15.592
11792TIP3    H256792   3.810   1.963  15.591
11793TIP3   OH256793   3.422   0.844  16.722
11793TIP3    H156794   3.388   0.854  16.811
11793TIP3    H256795   3.497   0.903  16.719
11794TIP3   OH256796   2.906   2.348  15.043
11794TIP3    H156797   2.911   2.305  14.958
11794TIP3    H256798   2.882   2.278  15.104
11795TIP3   OH256799   0.811   4.757   0.655
11795TIP3    H156800   0.822   4.693   0.726
11795TIP3    H256801   0.780   4.836   0.699
11796TIP3   OH256802   6.468   5.928   2.527
11796TIP3    H156803   6.513   6.012   2.540
11796TIP3    H256804   6.456   5.923   2.432
11797TIP3   OH256805   1.843   4.301   2.072
11797TIP3    H156806   1.794   4.382   2.080
11797TIP3    H256807   1.780   4.232   2.092
11798TIP3   OH256808   0.102   3.918  15.872
11798TIP3    H156809   0.046   3.856  15.827
11798TIP3    H256810   0.128   3.981  15.805
11799TIP3   OH256811   3.147   0.084  12.854
11799TIP3    H156812   3.075   0.143  12.832
11799TIP3    H256813   3.103   0.001  12.875
11800TIP3   OH256814   0.656   1.380   3.120
11800TIP3    H156815   0.671   1.407   3.211
11800TIP3    H256816   0.561   1.376   3.112
11801TIP3   OH256817   3.625   0.352   0.594
11801TIP3    H156818   3.678   0.362   0.673
11801TIP3    H256819   3.609   0.257   0.588
11802TIP3   OH256820   6.384   5.708  16.129
11802TIP3    H156821   6.445   5.775  16.161
11802TIP3    H256822   6.322   5.697  16.202
11803TIP3   OH256823   3.999   0.963   6.155
11803TIP3    H156824   3.938   0.890   6.148
11803TIP3    H256825   3.988   1.011   6.074
11804TIP3   OH256826   6.413   5.267   2.975
11804TIP3    H156827   6.381   5.350   2.940
11804TIP3    H256828   6.404   5.205   2.902
11805TIP3   OH256829   5.336   4.287  16.214
11805TIP3    H156830   5.335   4.225  16.141
11805TIP3    H256831   5.418   4.335  16.205
11806TIP3   OH256832   0.775   3.702  11.124
11806TIP3    H156833   0.846   3.673  11.065
11806TIP3    H256834   0.813   3.774  11.174
11807TIP3   OH256835   3.144   5.759   4.537
11807TIP3    H156836   3.055   5.731   4.513
11807TIP3    H256837   3.151   5.847   4.502
11808TIP3   OH256838   0.410   2.501   4.016
11808TIP3    H156839   0.489   2.470   4.061
11808TIP3    H256840   0.440   2.524   3.928
11809TIP3   OH256841   2.111   5.073   1.543
11809TIP3    H156842   2.117   5.118   1.627
11809TIP3    H256843   2.075   5.139   1.483
11810TIP3   OH256844   2.996   3.126   5.520
11810TIP3    H156845   2.979   3.158   5.431
11810TIP3    H256846   3.069   3.066   5.511
11811TIP3   OH256847   1.782   0.105  10.889
11811TIP3    H156848   1.851   0.115  10.824
11811TIP3    H256849   1.781   0.188  10.936
11812TIP3   OH256850   2.682   5.473  17.018
11812TIP3    H156851   2.686   5.504  16.927
11812TIP3    H256852   2.723   5.387  17.015
11813TIP3   OH256853   3.618   1.258  15.198
11813TIP3    H156854   3.551   1.223  15.257
11813TIP3    H256855   3.653   1.334  15.244
11814TIP3   OH256856   4.460   6.019  16.814
11814TIP3    H156857   4.498   5.973  16.888
11814TIP3    H256858   4.379   5.971  16.796
11815TIP3   OH256859   4.464   0.183  15.405
11815TIP3    H156860   4.375   0.187  15.372
11815TIP3    H256861   4.468   0.100  15.453
11816TIP3   OH256862   5.132   2.195  12.599
11816TIP3    H156863   5.153   2.269  12.656
11816TIP3    H256864   5.041   2.209  12.574
11817TIP3   OH256865   6.566   5.091  15.538
11817TIP3    H156866   6.644   5.073  15.484
11817TIP3    H256867   6.496   5.042  15.495
11818TIP3   OH256868   1.763   6.543  13.740
11818TIP3    H156869   1.700   6.482  13.777
11818TIP3    H256870   1.847   6.497  13.746
11819TIP3   OH256871   0.651   6.032   1.410
11819TIP3    H156872   0.731   6.034   1.358
11819TIP3    H256873   0.632   5.938   1.421
11820TIP3   OH256874   5.909   4.427  12.293
11820TIP3    H156875   5.941   4.487  12.226
11820TIP3    H256876   5.989   4.389  12.330
11821TIP3   OH256877   5.581   3.265   3.459
11821TIP3    H156878   5.633   3.276   3.539
11821TIP3    H256879   5.601   3.175   3.431
11822TIP3   OH256880   0.173   2.866   3.361
11822TIP3    H156881   0.223   2.840   3.283
11822TIP3    H256882   0.099   2.916   3.327
11823TIP3   OH256883   5.650   2.855  13.985
11823TIP3    H156884   5.736   2.811  13.987
11823TIP3    H256885   5.592   2.792  13.943
11824TIP3   OH256886   4.351   4.438   0.106
11824TIP3    H156887   4.377   4.518   0.061
11824TIP3    H256888   4.296   4.392   0.042
11825TIP3   OH256889   1.371   4.749   3.908
11825TIP3    H156890   1.313   4.697   3.853
11825TIP3    H256891   1.390   4.692   3.983
11826TIP3   OH256892   0.205   4.614  14.569
11826TIP3    H156893   0.136   4.610  14.502
11826TIP3    H256894   0.245   4.528  14.566
11827TIP3   OH256895   5.611   0.754  11.277
11827TIP3    H156896   5.565   0.731  11.196
11827TIP3    H256897   5.638   0.845  11.263
11828TIP3   OH256898   2.795   0.966  13.648
11828TIP3    H156899   2.828   0.878  13.667
11828TIP3    H256900   2.755   0.958  13.562
11829TIP3   OH256901   6.728   4.570   1.086
11829TIP3    H156902   6.822   4.581   1.103
11829TIP3    H256903   6.687   4.639   1.138
11830TIP3   OH256904   6.117   2.435   2.340
11830TIP3    H156905   6.189   2.461   2.283
11830TIP3    H256906   6.135   2.477   2.423
11831TIP3   OH256907   1.146   1.255  16.399
11831TIP3    H156908   1.189   1.325  16.351
11831TIP3    H256909   1.055   1.257  16.367
11832TIP3   OH256910   4.032   1.756  14.377
11832TIP3    H156911   4.126   1.754  14.398
11832TIP3    H256912   3.992   1.802  14.451
11833TIP3   OH256913   4.546   4.854   4.535
11833TIP3    H156914   4.601   4.916   4.487
11833TIP3    H256915   4.521   4.788   4.470
11834TIP3   OH256916   1.305   1.987   5.344
11834TIP3    H156917   1.253   1.986   5.264
11834TIP3    H256918   1.261   2.051   5.400
11835TIP3   OH256919   4.822   3.010   4.370
11835TIP3    H156920   4.785   2.976   4.289
11835TIP3    H256921   4.770   2.970   4.439
11836TIP3   OH256922   1.152   4.176  10.713
11836TIP3    H156923   1.197   4.161  10.630
11836TIP3    H256924   1.223   4.188  10.777
11837TIP3   OH256925   3.872   2.062  17.220
11837TIP3    H156926   3.956   2.079  17.178
11837TIP3    H256927   3.871   1.967  17.235
11838TIP3   OH256928   4.096   3.758  10.716
11838TIP3    H156929   4.098   3.845  10.675
11838TIP3    H256930   4.183   3.749  10.755
11839TIP3   OH256931   5.502   3.905   4.126
11839TIP3    H156932   5.537   3.821   4.094
11839TIP3    H256933   5.575   3.945   4.173
11840TIP3   OH256934   1.573   6.686  10.606
11840TIP3    H156935   1.662   6.651  10.609
11840TIP3    H256936   1.517   6.608  10.605
11841TIP3   OH256937   6.027   6.606  15.338
11841TIP3    H156938   6.047   6.699  15.324
11841TIP3    H256939   5.954   6.606  15.399
11842TIP3   OH256940   0.980   3.708  11.847
11842TIP3    H156941   1.014   3.743  11.929
11842TIP3    H256942   0.927   3.778  11.810
11843TIP3   OH256943   4.097   3.979  15.875
11843TIP3    H156944   4.048   3.901  15.848
11843TIP3    H256945   4.062   4.049  15.820
11844TIP3   OH256946   6.190   6.548   5.063
11844TIP3    H156947   6.152   6.577   5.146
11844TIP3    H256948   6.212   6.456   5.077
11845TIP3   OH256949   1.091   1.329   6.466
11845TIP3    H156950   1.051   1.254   6.510
11845TIP3    H256951   1.073   1.403   6.525
11846TIP3   OH256952   4.594   5.716   1.228
11846TIP3    H156953   4.673   5.761   1.259
11846TIP3    H256954   4.533   5.723   1.301
11847TIP3   OH256955   2.340   1.857   6.483
11847TIP3    H156956   2.279   1.884   6.413
11847TIP3    H256957   2.407   1.925   6.483
11848TIP3   OH256958   0.359   4.729   1.843
11848TIP3    H156959   0.306   4.721   1.922
11848TIP3    H256960   0.325   4.662   1.784
11849TIP3   OH256961   5.053   5.046  15.264
11849TIP3    H156962   4.958   5.032  15.271
11849TIP3    H256963   5.067   5.136  15.292
11850TIP3   OH256964   0.778   1.084  15.674
11850TIP3    H156965   0.727   1.163  15.694
11850TIP3    H256966   0.749   1.058  15.587
11851TIP3   OH256967   5.737   6.299  16.171
11851TIP3    H156968   5.689   6.217  16.167
11851TIP3    H256969   5.744   6.318  16.264
11852TIP3   OH256970   2.162   1.362  10.775
11852TIP3    H156971   2.150   1.289  10.715
11852TIP3    H256972   2.112   1.434  10.736
11853TIP3   OH256973   3.246   0.697   2.281
11853TIP3    H156974   3.256   0.721   2.189
11853TIP3    H256975   3.267   0.777   2.329
11854TIP3   OH256976   1.113   1.559   1.943
11854TIP3    H156977   1.109   1.648   1.907
11854TIP3    H256978   1.023   1.526   1.934
11855TIP3   OH256979   5.617   4.480  15.491
11855TIP3    H156980   5.614   4.540  15.416
11855TIP3    H256981   5.625   4.538  15.567
11856TIP3   OH256982   2.824   4.894   3.931
11856TIP3    H156983   2.883   4.834   3.977
11856TIP3    H256984   2.880   4.938   3.867
11857TIP3   OH256985   5.585   3.620  12.876
11857TIP3    H156986   5.583   3.713  12.897
11857TIP3    H256987   5.674   3.592  12.898
11858TIP3   OH256988   3.823   0.761  16.607
11858TIP3    H156989   3.762   0.772  16.534
11858TIP3    H256990   3.791   0.822  16.674
11859TIP3   OH256991   5.988   6.732   0.246
11859TIP3    H156992   6.061   6.756   0.189
11859TIP3    H256993   6.022   6.744   0.335
11860TIP3   OH256994   2.389   3.890   5.927
11860TIP3    H156995   2.303   3.891   5.969
11860TIP3    H256996   2.382   3.951   5.855
11861TIP3   OH256997   5.981   0.294   4.465
11861TIP3    H156998   6.010   0.309   4.555
11861TIP3    H256999   5.915   0.225   4.473
11862TIP3   OH257000   2.543   1.653  15.900
11862TIP3    H157001   2.475   1.631  15.835
11862TIP3    H257002   2.511   1.735  15.939
11863TIP3   OH257003   4.691   3.913   6.376
11863TIP3    H157004   4.767   3.911   6.318
11863TIP3    H257005   4.618   3.937   6.318
11864TIP3   OH257006   5.099   3.569  16.853
11864TIP3    H157007   5.121   3.496  16.911
11864TIP3    H257008   5.009   3.592  16.876
11865TIP3   OH257009   2.526   2.157  12.488
11865TIP3    H157010   2.494   2.239  12.450
11865TIP3    H257011   2.503   2.090  12.423
11866TIP3   OH257012   3.897   0.420  14.598
11866TIP3    H157013   3.881   0.440  14.505
11866TIP3    H257014   3.872   0.328  14.608
11867TIP3   OH257015   4.473   6.393   3.750
11867TIP3    H157016   4.492   6.304   3.781
11867TIP3    H257017   4.413   6.380   3.676
11868TIP3   OH257018   2.894   5.930  16.243
11868TIP3    H157019   2.974   5.880  16.227
11868TIP3    H257020   2.895   5.997  16.175
11869TIP3   OH257021   3.464   6.397   4.438
11869TIP3    H157022   3.373   6.381   4.412
11869TIP3    H257023   3.464   6.486   4.473
11870TIP3   OH257024   4.604   1.760   2.522
11870TIP3    H157025   4.573   1.691   2.464
11870TIP3    H257026   4.689   1.729   2.554
11871TIP3   OH257027   1.642   1.728   4.435
11871TIP3    H157028   1.688   1.647   4.414
11871TIP3    H257029   1.573   1.734   4.369
11872TIP3   OH257030   4.707   4.879   0.306
11872TIP3    H157031   4.612   4.877   0.295
11872TIP3    H257032   4.720   4.892   0.400
11873TIP3   OH257033   1.477   1.717   4.207
11873TIP3    H157034   1.408   1.666   4.164
11873TIP3    H257035   1.556   1.695   4.158
11874TIP3   OH257036   4.785   0.675   5.546
11874TIP3    H157037   4.786   0.748   5.485
11874TIP3    H257038   4.785   0.715   5.633
11875TIP3   OH257039   2.185   6.693  12.630
11875TIP3    H157040   2.214   6.621  12.574
11875TIP3    H257041   2.131   6.747  12.573
11876TIP3   OH257042   1.244   3.057  14.358
11876TIP3    H157043   1.186   3.040  14.283
11876TIP3    H257044   1.260   2.971  14.396
11877TIP3   OH257045   4.087   1.714   0.628
11877TIP3    H157046   4.177   1.684   0.638
11877TIP3    H257047   4.079   1.738   0.536
11878TIP3   OH257048   2.433   2.092   0.346
11878TIP3    H157049   2.528   2.085   0.342
11878TIP3    H257050   2.411   2.079   0.439
11879TIP3   OH257051   6.526   4.523   0.618
11879TIP3    H157052   6.500   4.560   0.703
11879TIP3    H257053   6.512   4.429   0.627
11880TIP3   OH257054   4.226   3.912   1.614
11880TIP3    H157055   4.319   3.923   1.634
11880TIP3    H257056   4.181   3.932   1.696
11881TIP3   OH257057   4.036   5.388  16.283
11881TIP3    H157058   4.029   5.311  16.226
11881TIP3    H257059   3.981   5.454  16.240
11882TIP3   OH257060   5.387   1.929   1.445
11882TIP3    H157061   5.417   1.913   1.355
11882TIP3    H257062   5.445   1.876   1.499
11883TIP3   OH257063   1.311   2.160   6.873
11883TIP3    H157064   1.252   2.230   6.901
11883TIP3    H257065   1.359   2.198   6.799
11884TIP3   OH257066   3.816   5.643  16.886
11884TIP3    H157067   3.732   5.673  16.921
11884TIP3    H257068   3.867   5.723  16.874
11885TIP3   OH257069   0.441   6.019  13.399
11885TIP3    H157070   0.406   6.089  13.453
11885TIP3    H257071   0.392   5.941  13.426
11886TIP3   OH257072   3.255   6.352   3.324
11886TIP3    H157073   3.256   6.355   3.229
11886TIP3    H257074   3.164   6.335   3.347
11887TIP3   OH257075   2.410   4.116   5.679
11887TIP3    H157076   2.326   4.129   5.635
11887TIP3    H257077   2.451   4.044   5.630
11888TIP3   OH257078   1.743   0.807  14.936
11888TIP3    H157079   1.813   0.750  14.967
11888TIP3    H257080   1.670   0.788  14.994
11889TIP3   OH257081   2.955   3.427   3.183
11889TIP3    H157082   2.913   3.359   3.129
11889TIP3    H257083   2.953   3.505   3.128
11890TIP3   OH257084   3.715   4.176   3.080
11890TIP3    H157085   3.806   4.172   3.051
11890TIP3    H257086   3.710   4.112   3.151
11891TIP3   OH257087   4.372   1.789   0.486
11891TIP3    H157088   4.398   1.740   0.408
11891TIP3    H257089   4.354   1.722   0.552
11892TIP3   OH257090   1.658   0.372  16.062
11892TIP3    H157091   1.687   0.394  16.151
11892TIP3    H257092   1.586   0.433  16.045
11893TIP3   OH257093   6.580   3.264   1.288
11893TIP3    H157094   6.589   3.214   1.369
11893TIP3    H257095   6.522   3.210   1.233
11894TIP3   OH257096   2.675   4.370   2.972
11894TIP3    H157097   2.752   4.425   2.983
11894TIP3    H257098   2.708   4.289   2.935
11895TIP3   OH257099   2.160   0.994   6.687
11895TIP3    H157100   2.130   1.067   6.741
11895TIP3    H257101   2.254   0.988   6.705
11896TIP3   OH257102   3.043   4.914   2.325
11896TIP3    H157103   2.999   4.921   2.240
11896TIP3    H257104   3.136   4.925   2.304
11897TIP3   OH257105   5.144   6.414   0.939
11897TIP3    H157106   5.163   6.366   1.019
11897TIP3    H257107   5.109   6.348   0.879
11898TIP3   OH257108   4.864   2.084   4.415
11898TIP3    H157109   4.945   2.035   4.406
11898TIP3    H257110   4.863   2.144   4.340
11899TIP3   OH257111   1.472   3.847  14.175
11899TIP3    H157112   1.489   3.754  14.159
11899TIP3    H257113   1.409   3.872  14.107
11900TIP3   OH257114   4.757   4.170   3.475
11900TIP3    H157115   4.847   4.137   3.480
11900TIP3    H257116   4.762   4.243   3.413
11901TIP3   OH257117   1.462   3.225  12.453
11901TIP3    H157118   1.385   3.169  12.444
11901TIP3    H257119   1.452   3.267  12.539
11902TIP3   OH257120   5.214   1.980  13.429
11902TIP3    H157121   5.298   1.938  13.411
11902TIP3    H257122   5.216   2.061  13.378
11903TIP3   OH257123   1.798   2.902  10.564
11903TIP3    H157124   1.884   2.897  10.606
11903TIP3    H257125   1.797   2.989  10.523
11904TIP3   OH257126   4.575   5.633  13.735
11904TIP3    H157127   4.639   5.567  13.708
11904TIP3    H257128   4.564   5.618  13.829
11905TIP3   OH257129   1.675   0.828  15.551
11905TIP3    H157130   1.627   0.903  15.587
11905TIP3    H257131   1.646   0.754  15.605
11906TIP3   OH257132   6.412   0.371   5.821
11906TIP3    H157133   6.401   0.323   5.903
11906TIP3    H257134   6.422   0.463   5.847
11907TIP3   OH257135   2.264   4.065   5.200
11907TIP3    H157136   2.284   3.982   5.242
11907TIP3    H257137   2.340   4.120   5.218
11908TIP3   OH257138   6.472   1.422   2.833
11908TIP3    H157139   6.525   1.353   2.873
11908TIP3    H257140   6.409   1.447   2.901
11909TIP3   OH257141   4.477   3.581  13.846
11909TIP3    H157142   4.471   3.608  13.937
11909TIP3    H257143   4.464   3.486  13.848
11910TIP3   OH257144   4.855   6.008   5.273
11910TIP3    H157145   4.905   5.980   5.196
11910TIP3    H257146   4.882   6.099   5.288
11911TIP3   OH257147   1.883   4.676   1.326
11911TIP3    H157148   1.968   4.637   1.307
11911TIP3    H257149   1.896   4.725   1.407
11912TIP3   OH257150   1.910   3.536  12.145
11912TIP3    H157151   1.882   3.616  12.099
11912TIP3    H257152   1.849   3.469  12.115
11913TIP3   OH257153   2.767   6.691  14.334
11913TIP3    H157154   2.753   6.611  14.283
11913TIP3    H257155   2.691   6.695  14.393
11914TIP3   OH257156   5.682   1.792   2.378
11914TIP3    H157157   5.599   1.775   2.423
11914TIP3    H257158   5.732   1.845   2.439
11915TIP3   OH257159   0.474   0.778   2.686
11915TIP3    H157160   0.536   0.758   2.616
11915TIP3    H257161   0.406   0.831   2.643
11916TIP3   OH257162   5.686   3.712   6.262
11916TIP3    H157163   5.658   3.665   6.184
11916TIP3    H257164   5.633   3.674   6.333
11917TIP3   OH257165   3.977   1.289  16.437
11917TIP3    H157166   3.968   1.227  16.366
11917TIP3    H257167   4.013   1.238  16.510
11918TIP3   OH257168   2.357   1.903   4.012
11918TIP3    H157169   2.332   1.829   4.067
11918TIP3    H257170   2.288   1.908   3.946
11919TIP3   OH257171   6.198   1.637   1.065
11919TIP3    H157172   6.284   1.679   1.064
11919TIP3    H257173   6.169   1.639   0.973
11920TIP3   OH257174   0.135   2.389   0.022
11920TIP3    H157175   0.146   2.484   0.027
11920TIP3    H257176   0.041   2.377   0.007
11921TIP3   OH257177   4.783   5.218  15.059
11921TIP3    H157178   4.782   5.247  15.150
11921TIP3    H257179   4.876   5.201  15.041
11922TIP3   OH257180   6.321   0.820  13.130
11922TIP3    H157181   6.267   0.756  13.176
11922TIP3    H257182   6.380   0.767  13.076
11923TIP3   OH257183   3.867   2.864   3.923
11923TIP3    H157184   3.781   2.847   3.885
11923TIP3    H257185   3.928   2.850   3.850
11924TIP3   OH257186   4.543   5.646  15.993
11924TIP3    H157187   4.579   5.563  15.961
11924TIP3    H257188   4.484   5.621  16.064
11925TIP3   OH257189   4.155   0.012  12.440
11925TIP3    H157190   4.231   0.066  12.417
11925TIP3    H257191   4.191  -0.074  12.458
11926TIP3   OH257192   5.734   5.432   4.856
11926TIP3    H157193   5.822   5.412   4.888
11926TIP3    H257194   5.685   5.459   4.934
11927TIP3   OH257195   4.906   0.966   6.101
11927TIP3    H157196   4.974   0.926   6.047
11927TIP3    H257197   4.851   0.893   6.129
11928TIP3   OH257198   0.862   1.377   6.338
11928TIP3    H157199   0.952   1.346   6.352
11928TIP3    H257200   0.807   1.300   6.351
11929TIP3   OH257201   6.115   1.408  12.235
11929TIP3    H157202   6.152   1.335  12.285
11929TIP3    H257203   6.187   1.471  12.228
11930TIP3   OH257204   2.506   1.799   6.770
11930TIP3    H157205   2.411   1.811   6.772
11930TIP3    H257206   2.518   1.705   6.764
11931TIP3   OH257207   6.751   5.771   6.158
11931TIP3    H157208   6.809   5.705   6.195
11931TIP3    H257209   6.722   5.823   6.233
11932TIP3   OH257210   4.387   2.049  14.346
11932TIP3    H157211   4.349   2.133  14.371
11932TIP3    H257212   4.479   2.055  14.371
11933TIP3   OH257213   5.144   1.393   2.165
11933TIP3    H157214   5.171   1.444   2.088
11933TIP3    H257215   5.192   1.432   2.238
11934TIP3   OH257216   2.079   6.101   2.036
11934TIP3    H157217   2.048   6.132   1.951
11934TIP3    H257218   2.112   6.013   2.019
11935TIP3   OH257219   3.900   1.948   2.081
11935TIP3    H157220   3.957   2.022   2.059
11935TIP3    H257221   3.956   1.890   2.132
11936TIP3   OH257222   1.137   5.019  13.189
11936TIP3    H157223   1.076   4.945  13.190
11936TIP3    H257224   1.080   5.096  13.197
11937TIP3   OH257225   1.976   0.649  15.529
11937TIP3    H157226   2.008   0.560  15.512
11937TIP3    H257227   1.890   0.652  15.487
11938TIP3   OH257228   3.925   2.011   3.396
11938TIP3    H157229   3.991   2.033   3.330
11938TIP3    H257230   3.974   1.973   3.468
11939TIP3   OH257231   5.091   5.293  10.938
11939TIP3    H157232   5.143   5.364  10.976
11939TIP3    H257233   5.149   5.217  10.939
11940TIP3   OH257234   3.804   0.586  11.694
11940TIP3    H157235   3.893   0.620  11.679
11940TIP3    H257236   3.814   0.525  11.767
11941TIP3   OH257237   1.416   4.715  14.847
11941TIP3    H157238   1.469   4.660  14.789
11941TIP3    H257239   1.406   4.663  14.927
11942TIP3   OH257240   0.765   2.481  12.137
11942TIP3    H157241   0.824   2.486  12.062
11942TIP3    H257242   0.776   2.392  12.171
11943TIP3   OH257243   3.181   6.392   0.907
11943TIP3    H157244   3.243   6.466   0.910
11943TIP3    H257245   3.199   6.342   0.986
11944TIP3   OH257246   2.336   1.111  15.649
11944TIP3    H157247   2.395   1.116  15.574
11944TIP3    H257248   2.309   1.020  15.653
11945TIP3   OH257249   3.546   1.122  14.459
11945TIP3    H157250   3.546   1.083  14.546
11945TIP3    H257251   3.538   1.048  14.399
11946TIP3   OH257252   2.616   0.535  13.985
11946TIP3    H157253   2.600   0.473  13.914
11946TIP3    H257254   2.694   0.501  14.030
11947TIP3   OH257255   6.074   4.027   1.817
11947TIP3    H157256   6.169   4.025   1.832
11947TIP3    H257257   6.061   4.096   1.752
11948TIP3   OH257258   3.855   2.416  16.689
11948TIP3    H157259   3.929   2.388  16.742
11948TIP3    H257260   3.847   2.350  16.621
11949TIP3   OH257261   2.017   6.157   2.531
11949TIP3    H157262   2.013   6.252   2.548
11949TIP3    H257263   2.109   6.140   2.512
11950TIP3   OH257264   2.953   0.110  16.937
11950TIP3    H157265   2.925   0.019  16.949
11950TIP3    H257266   2.915   0.157  17.012
11951TIP3   OH257267   1.455   3.351  16.981
11951TIP3    H157268   1.398   3.415  17.024
11951TIP3    H257269   1.521   3.403  16.936
11952TIP3   OH257270   5.177   5.982   3.754
11952TIP3    H157271   5.246   5.921   3.728
11952TIP3    H257272   5.128   5.935   3.821
11953TIP3   OH257273   0.434   3.922   0.553
11953TIP3    H157274   0.399   4.000   0.510
11953TIP3    H257275   0.492   3.882   0.487
11954TIP3   OH257276   5.042   4.320  12.463
11954TIP3    H157277   5.129   4.285  12.445
11954TIP3    H257278   4.997   4.320  12.378
11955TIP3   OH257279   3.336   3.093   6.034
11955TIP3    H157280   3.320   2.999   6.037
11955TIP3    H257281   3.282   3.125   5.961
11956TIP3   OH257282   0.422   3.374   3.477
11956TIP3    H157283   0.405   3.414   3.562
11956TIP3    H257284   0.336   3.359   3.439
11957TIP3   OH257285   1.767   5.020   0.389
11957TIP3    H157286   1.811   5.060   0.315
11957TIP3    H257287   1.673   5.033   0.373
11958TIP3   OH257288   4.078   5.779  15.029
11958TIP3    H157289   4.096   5.816  15.115
11958TIP3    H257290   4.094   5.685  15.040
11959TIP3   OH257291   2.872   5.629   5.466
11959TIP3    H157292   2.920   5.619   5.548
11959TIP3    H257293   2.939   5.645   5.400
11960TIP3   OH257294   6.336   2.595  13.352
11960TIP3    H157295   6.255   2.610  13.401
11960TIP3    H257296   6.389   2.672  13.370
11961TIP3   OH257297   6.413   0.843   0.639
11961TIP3    H157298   6.434   0.768   0.583
11961TIP3    H257299   6.332   0.878   0.603
11962TIP3   OH257300   4.131   6.225   2.270
11962TIP3    H157301   4.202   6.256   2.214
11962TIP3    H257302   4.092   6.305   2.306
11963TIP3   OH257303   1.615   2.964   1.017
11963TIP3    H157304   1.574   2.975   0.931
11963TIP3    H257305   1.671   2.887   1.008
11964TIP3   OH257306   2.192   4.705   6.007
11964TIP3    H157307   2.263   4.677   5.951
11964TIP3    H257308   2.166   4.626   6.055
11965TIP3   OH257309   0.141   3.772   3.891
11965TIP3    H157310   0.234   3.789   3.874
11965TIP3    H257311   0.141   3.721   3.972
11966TIP3   OH257312   2.363   3.914  11.771
11966TIP3    H157313   2.291   3.973  11.749
11966TIP3    H257314   2.333   3.868  11.849
11967TIP3   OH257315   0.926   4.495   3.528
11967TIP3    H157316   0.882   4.521   3.447
11967TIP3    H257317   0.854   4.481   3.590
11968TIP3   OH257318   0.895   2.891   4.503
11968TIP3    H157319   0.844   2.818   4.537
11968TIP3    H257320   0.877   2.890   4.409
11969TIP3   OH257321   2.947   3.945  13.654
11969TIP3    H157322   2.958   3.858  13.616
11969TIP3    H257323   2.974   3.936  13.745
11970TIP3   OH257324   6.625   3.788   1.167
11970TIP3    H157325   6.553   3.763   1.225
11970TIP3    H257326   6.625   3.883   1.169
11971TIP3   OH257327   3.646   5.784  12.719
11971TIP3    H157328   3.642   5.720  12.648
11971TIP3    H257329   3.724   5.837  12.700
11972TIP3   OH257330   3.758   0.747   2.953
11972TIP3    H157331   3.728   0.721   2.866
11972TIP3    H257332   3.839   0.697   2.967
11973TIP3   OH257333   2.697   3.925  12.566
11973TIP3    H157334   2.655   3.918  12.480
11973TIP3    H257335   2.639   3.981  12.617
11974TIP3   OH257336   3.279   4.309   3.031
11974TIP3    H157337   3.346   4.242   3.049
11974TIP3    H257338   3.330   4.386   3.006
11975TIP3   OH257339   2.575   3.676   5.947
11975TIP3    H157340   2.653   3.691   5.894
11975TIP3    H257341   2.534   3.761   5.955
11976TIP3   OH257342   5.300   2.564   0.013
11976TIP3    H157343   5.333   2.610  -0.065
11976TIP3    H257344   5.219   2.523  -0.016
11977TIP3   OH257345   6.279   5.271   1.942
11977TIP3    H157346   6.272   5.294   1.850
11977TIP3    H257347   6.299   5.177   1.942
11978TIP3   OH257348   3.002   4.455   5.865
11978TIP3    H157349   3.038   4.434   5.951
11978TIP3    H257350   2.907   4.444   5.875
11979TIP3   OH257351   2.178   1.790  11.760
11979TIP3    H157352   2.106   1.839  11.802
11979TIP3    H257353   2.205   1.846  11.687
11980TIP3   OH257354   1.194   1.477  12.209
11980TIP3    H157355   1.176   1.551  12.152
11980TIP3    H257356   1.275   1.500  12.254
11981TIP3   OH257357   2.931   3.657   6.340
11981TIP3    H157358   2.875   3.620   6.273
11981TIP3    H257359   2.879   3.727   6.379
11982TIP3   OH257360   5.010   3.847   3.105
11982TIP3    H157361   5.071   3.892   3.163
11982TIP3    H257362   4.926   3.852   3.150
11983TIP3   OH257363   1.858   6.747  16.107
11983TIP3    H157364   1.906   6.724  16.186
11983TIP3    H257365   1.775   6.700  16.114
11984TIP3   OH257366   0.495   3.781   1.637
11984TIP3    H157367   0.455   3.843   1.576
11984TIP3    H257368   0.423   3.752   1.693
11985TIP3   OH257369   3.135   1.954  12.800
11985TIP3    H157370   3.186   1.950  12.719
11985TIP3    H257371   3.057   2.004  12.778
11986TIP3   OH257372   0.983   0.484   0.548
11986TIP3    H157373   0.982   0.435   0.465
11986TIP3    H257374   1.064   0.456   0.591
11987TIP3   OH257375   2.848   5.462   0.676
11987TIP3    H157376   2.867   5.391   0.738
11987TIP3    H257377   2.880   5.541   0.719
11988TIP3   OH257378   6.474   1.779  15.521
11988TIP3    H157379   6.467   1.713  15.453
11988TIP3    H257380   6.398   1.835  15.508
11989TIP3   OH257381   2.358   5.233   5.865
11989TIP3    H157382   2.372   5.316   5.819
11989TIP3    H257383   2.446   5.198   5.878
11990TIP3   OH257384   4.920   3.234  15.301
11990TIP3    H157385   4.857   3.227  15.373
11990TIP3    H257386   4.875   3.194  15.227
11991TIP3   OH257387   5.355   5.277   1.715
11991TIP3    H157388   5.390   5.193   1.685
11991TIP3    H257389   5.421   5.310   1.776
11992TIP3   OH257390   0.815   2.895  13.947
11992TIP3    H157391   0.766   2.913  14.027
11992TIP3    H257392   0.833   2.981  13.909
11993TIP3   OH257393   3.130   5.445   1.241
11993TIP3    H157394   3.225   5.433   1.241
11993TIP3    H257395   3.106   5.445   1.333
11994TIP3   OH257396   1.287   5.353   2.794
11994TIP3    H157397   1.376   5.381   2.773
11994TIP3    H257398   1.277   5.372   2.887
11995TIP3   OH257399   3.950   0.924  12.616
11995TIP3    H157400   3.887   0.858  12.586
11995TIP3    H257401   3.904   0.972  12.684
11996TIP3   OH257402   3.343   3.565   3.105
11996TIP3    H157403   3.281   3.569   3.178
11996TIP3    H257404   3.360   3.656   3.083
11997TIP3   OH257405   1.883   0.542   1.247
11997TIP3    H157406   1.806   0.511   1.295
11997TIP3    H257407   1.947   0.471   1.256
11998TIP3   OH257408   1.233   2.274   0.521
11998TIP3    H157409   1.214   2.183   0.498
11998TIP3    H257410   1.301   2.300   0.459
11999TIP3   OH257411   2.979   1.495  15.255
11999TIP3    H157412   2.896   1.488  15.302
11999TIP3    H257413   2.956   1.481  15.163
12000TIP3   OH257414   2.859   6.553   5.886
12000TIP3    H157415   2.830   6.589   5.970
12000TIP3    H257416   2.908   6.624   5.845
12001TIP3   OH257417   0.191   0.367   6.503
12001TIP3    H157418   0.148   0.282   6.489
12001TIP3    H257419   0.262   0.347   6.564
12002TIP3   OH257420   6.164   1.824   1.765
12002TIP3    H157421   6.164   1.912   1.729
12002TIP3    H257422   6.245   1.818   1.816
12003TIP3   OH257423   3.488   2.296  12.050
12003TIP3    H157424   3.461   2.311  12.141
12003TIP3    H257425   3.557   2.230  12.056
12004TIP3   OH257426   1.960   1.600   1.601
12004TIP3    H157427   1.988   1.516   1.563
12004TIP3    H257428   1.926   1.576   1.687
12005TIP3   OH257429   3.169   5.820  13.625
12005TIP3    H157430   3.131   5.901  13.660
12005TIP3    H257431   3.097   5.780  13.576
12006TIP3   OH257432   2.079   0.480   4.370
12006TIP3    H157433   2.001   0.477   4.314
12006TIP3    H257434   2.142   0.422   4.327
12007TIP3   OH257435   1.970   3.573   0.246
12007TIP3    H157436   2.058   3.541   0.228
12007TIP3    H257437   1.927   3.577   0.160
12008TIP3   OH257438   4.953   0.587   4.947
12008TIP3    H157439   4.974   0.679   4.961
12008TIP3    H257440   4.992   0.542   5.021
12009TIP3   OH257441   5.937   1.544  14.685
12009TIP3    H157442   5.860   1.498  14.720
12009TIP3    H257443   5.969   1.487  14.615
12010TIP3   OH257444   4.634   5.126  10.814
12010TIP3    H157445   4.586   5.081  10.884
12010TIP3    H257446   4.641   5.060  10.744
12011TIP3   OH257447   4.461   3.403  16.613
12011TIP3    H157448   4.396   3.356  16.561
12011TIP3    H257449   4.451   3.495  16.587
12012TIP3   OH257450   5.757   3.957   6.115
12012TIP3    H157451   5.697   3.896   6.157
12012TIP3    H257452   5.825   3.973   6.180
12013TIP3   OH257453   2.380   1.293   5.000
12013TIP3    H157454   2.407   1.255   4.916
12013TIP3    H257455   2.296   1.250   5.019
12014TIP3   OH257456   5.349   1.553   4.127
12014TIP3    H157457   5.394   1.620   4.178
12014TIP3    H257458   5.258   1.582   4.123
12015TIP3   OH257459   2.995   1.996   1.683
12015TIP3    H157460   3.036   1.910   1.689
12015TIP3    H257461   3.068   2.057   1.674
12016TIP3   OH257462   4.772   3.255   2.697
12016TIP3    H157463   4.690   3.218   2.729
12016TIP3    H257464   4.837   3.186   2.712
12017TIP3   OH257465   4.753   4.180  15.230
12017TIP3    H157466   4.708   4.101  15.200
12017TIP3    H257467   4.773   4.163  15.322
12018TIP3   OH257468   4.194   5.259   4.127
12018TIP3    H157469   4.209   5.350   4.155
12018TIP3    H257470   4.101   5.244   4.146
12019TIP3   OH257471   4.876   5.813   4.210
12019TIP3    H157472   4.780   5.818   4.212
12019TIP3    H257473   4.899   5.814   4.117
12020TIP3   OH257474   2.453   6.401  12.005
12020TIP3    H157475   2.459   6.495  11.986
12020TIP3    H257476   2.359   6.383  12.009
12021TIP3   OH257477   0.722   0.641   2.819
12021TIP3    H157478   0.632   0.669   2.801
12021TIP3    H257479   0.763   0.637   2.733
12022TIP3   OH257480   4.765   4.329  12.159
12022TIP3    H157481   4.796   4.406  12.207
12022TIP3    H257482   4.673   4.320  12.186
12023TIP3   OH257483   0.062   4.893   5.031
12023TIP3    H157484   0.133   4.866   4.972
12023TIP3    H257485  -0.018   4.864   4.987
12024TIP3   OH257486   1.352   0.745   6.428
12024TIP3    H157487   1.431   0.695   6.446
12024TIP3    H257488   1.281   0.692   6.464
12025TIP3   OH257489   0.207   1.127  14.374
12025TIP3    H157490   0.269   1.184  14.421
12025TIP3    H257491   0.132   1.119  14.433
12026TIP3   OH257492   1.286   1.218  15.143
12026TIP3    H157493   1.229   1.294  15.134
12026TIP3    H257494   1.243   1.162  15.208
12027TIP3   OH257495   3.451   5.018  12.858
12027TIP3    H157496   3.489   4.995  12.942
12027TIP3    H257497   3.484   5.105  12.838
12028TIP3   OH257498   6.327   0.767  10.797
12028TIP3    H157499   6.405   0.736  10.752
12028TIP3    H257500   6.340   0.861  10.805
12029TIP3   OH257501   0.360   0.828   2.967
12029TIP3    H157502   0.397   0.806   2.881
12029TIP3    H257503   0.280   0.877   2.947
12030TIP3   OH257504   2.860   5.917  12.082
12030TIP3    H157505   2.884   5.996  12.131
12030TIP3    H257506   2.767   5.929  12.062
12031TIP3   OH257507   5.468   4.377   0.580
12031TIP3    H157508   5.440   4.459   0.541
12031TIP3    H257509   5.544   4.351   0.528
12032TIP3   OH257510   5.158   6.213  12.331
12032TIP3    H157511   5.250   6.189  12.323
12032TIP3    H257512   5.145   6.228  12.425
12033TIP3   OH257513   3.010   6.440  12.360
12033TIP3    H157514   2.967   6.461  12.278
12033TIP3    H257515   3.103   6.434  12.338
12034TIP3   OH257516   5.607   1.407  14.514
12034TIP3    H157517   5.536   1.356  14.553
12034TIP3    H257518   5.601   1.492  14.558
12035TIP3   OH257519   0.047   2.839   1.354
12035TIP3    H157520   0.046   2.887   1.437
12035TIP3    H257521   0.126   2.870   1.310
12036TIP3   OH257522   6.457   3.521   1.084
12036TIP3    H157523   6.385   3.490   1.139
12036TIP3    H257524   6.512   3.444   1.071
12037TIP3   OH257525   0.708   3.848  16.329
12037TIP3    H157526   0.777   3.824  16.391
12037TIP3    H257527   0.731   3.802  16.249
12038TIP3   OH257528   5.080   6.550  11.903
12038TIP3    H157529   5.107   6.509  11.985
12038TIP3    H257530   5.019   6.488  11.863
12039TIP3   OH257531   3.832   6.630   3.848
12039TIP3    H157532   3.902   6.636   3.914
12039TIP3    H257533   3.874   6.655   3.766
12040TIP3   OH257534   5.305   2.620   2.692
12040TIP3    H157535   5.284   2.538   2.737
12040TIP3    H257536   5.224   2.642   2.646
12041TIP3   OH257537   2.225   0.651  13.564
12041TIP3    H157538   2.267   0.575  13.523
12041TIP3    H257539   2.241   0.640  13.657
12042TIP3   OH257540   6.511   5.496  13.913
12042TIP3    H157541   6.520   5.533  13.825
12042TIP3    H257542   6.598   5.459  13.932
12043TIP3   OH257543   2.726   5.003   0.627
12043TIP3    H157544   2.771   4.923   0.597
12043TIP3    H257545   2.645   5.005   0.575
12044TIP3   OH257546   1.898   1.306  12.512
12044TIP3    H157547   1.854   1.269  12.589
12044TIP3    H257548   1.845   1.276  12.438
12045TIP3   OH257549   3.654   0.410   3.910
12045TIP3    H157550   3.717   0.340   3.922
12045TIP3    H257551   3.699   0.474   3.854
12046TIP3   OH257552   3.770   1.006   2.018
12046TIP3    H157553   3.729   1.081   2.062
12046TIP3    H257554   3.700   0.966   1.967
12047TIP3   OH257555   0.688   0.806  11.416
12047TIP3    H157556   0.605   0.765  11.393
12047TIP3    H257557   0.674   0.844  11.502
12048TIP3   OH257558   1.439   2.565   1.257
12048TIP3    H157559   1.424   2.498   1.190
12048TIP3    H257560   1.410   2.646   1.217
12049TIP3   OH257561   3.627   4.157  16.813
12049TIP3    H157562   3.718   4.138  16.836
12049TIP3    H257563   3.632   4.207  16.732
12050TIP3   OH257564   3.541   1.870   5.714
12050TIP3    H157565   3.596   1.849   5.790
12050TIP3    H257566   3.558   1.963   5.699
12051TIP3   OH257567   4.101   3.020  14.551
12051TIP3    H157568   4.039   2.999  14.481
12051TIP3    H257569   4.142   3.102  14.522
12052TIP3   OH257570   0.601   1.962  12.767
12052TIP3    H157571   0.649   1.918  12.836
12052TIP3    H257572   0.509   1.949  12.789
12053TIP3   OH257573   6.345   1.745   5.069
12053TIP3    H157574   6.414   1.790   5.020
12053TIP3    H257575   6.265   1.792   5.045
12054TIP3   OH257576   5.800   2.763  17.180
12054TIP3    H157577   5.727   2.806  17.225
12054TIP3    H257578   5.797   2.798  17.091
12055TIP3   OH257579   2.480   2.386   3.165
12055TIP3    H157580   2.386   2.401   3.172
12055TIP3    H257581   2.520   2.460   3.212
12056TIP3   OH257582   3.361   4.610   3.813
12056TIP3    H157583   3.360   4.611   3.909
12056TIP3    H257584   3.282   4.657   3.787
12057TIP3   OH257585   5.535   2.211  14.770
12057TIP3    H157586   5.567   2.227  14.681
12057TIP3    H257587   5.475   2.137  14.761
12058TIP3   OH257588   1.659   1.243  16.003
12058TIP3    H157589   1.677   1.204  16.089
12058TIP3    H257590   1.566   1.264  16.005
12059TIP3   OH257591   3.522   4.201   0.234
12059TIP3    H157592   3.500   4.291   0.207
12059TIP3    H257593   3.598   4.211   0.291
12060TIP3   OH257594   6.520   3.297   2.976
12060TIP3    H157595   6.515   3.226   2.913
12060TIP3    H257596   6.612   3.323   2.977
12061TIP3   OH257597   4.390   4.475  15.808
12061TIP3    H157598   4.430   4.391  15.785
12061TIP3    H257599   4.464   4.537  15.808
12062TIP3   OH257600   6.075   5.102   2.969
12062TIP3    H157601   6.044   5.032   2.912
12062TIP3    H257602   6.051   5.073   3.057
12063TIP3   OH257603   1.855   1.094   4.005
12063TIP3    H157604   1.936   1.084   3.955
12063TIP3    H257605   1.849   1.188   4.022
12064TIP3   OH257606   5.891   2.543   2.673
12064TIP3    H157607   5.912   2.608   2.741
12064TIP3    H257608   5.904   2.459   2.717
12065TIP3   OH257609   2.589   0.730   1.686
12065TIP3    H157610   2.600   0.705   1.777
12065TIP3    H257611   2.520   0.797   1.688
12066TIP3   OH257612   2.977   3.425  13.949
12066TIP3    H157613   3.069   3.439  13.970
12066TIP3    H257614   2.978   3.383  13.863
12067TIP3   OH257615   3.024   4.820  14.973
12067TIP3    H157616   2.999   4.902  14.932
12067TIP3    H257617   3.062   4.768  14.902
12068TIP3   OH257618   6.690   4.768  15.122
12068TIP3    H157619   6.680   4.863  15.123
12068TIP3    H257620   6.617   4.736  15.069
12069TIP3   OH257621   3.937   1.508   6.556
12069TIP3    H157622   3.945   1.453   6.634
12069TIP3    H257623   3.957   1.449   6.483
12070TIP3   OH257624   6.016   3.251   2.082
12070TIP3    H157625   6.013   3.258   2.178
12070TIP3    H257626   5.935   3.293   2.053
12071TIP3   OH257627   3.134   3.384   5.066
12071TIP3    H157628   3.078   3.441   5.013
12071TIP3    H257629   3.092   3.384   5.153
12072TIP3   OH257630   1.634   5.823   5.166
12072TIP3    H157631   1.561   5.798   5.222
12072TIP3    H257632   1.708   5.771   5.200
12073TIP3   OH257633   6.019   0.270   2.949
12073TIP3    H157634   5.999   0.336   3.015
12073TIP3    H257635   6.059   0.320   2.877
12074TIP3   OH257636   0.261   5.509  11.142
12074TIP3    H157637   0.315   5.436  11.113
12074TIP3    H257638   0.324   5.577  11.167
12075TIP3   OH257639   0.743   2.107   0.400
12075TIP3    H157640   0.767   2.039   0.463
12075TIP3    H257641   0.803   2.094   0.327
12076TIP3   OH257642   5.171   3.833   1.448
12076TIP3    H157643   5.126   3.832   1.533
12076TIP3    H257644   5.199   3.742   1.435
12077TIP3   OH257645   6.273   1.977  14.098
12077TIP3    H157646   6.290   1.963  14.191
12077TIP3    H257647   6.204   1.914  14.077
12078TIP3   OH257648   0.118   0.530   1.759
12078TIP3    H157649   0.182   0.586   1.802
12078TIP3    H257650   0.062   0.590   1.709
12079TIP3   OH257651   1.436   3.182  13.492
12079TIP3    H157652   1.370   3.113  13.500
12079TIP3    H257653   1.509   3.140  13.446
12080TIP3   OH257654   0.744   3.912  12.416
12080TIP3    H157655   0.689   3.835  12.427
12080TIP3    H257656   0.796   3.894  12.338
12081TIP3   OH257657   3.727   3.953  15.952
12081TIP3    H157658   3.763   3.994  15.874
12081TIP3    H257659   3.702   3.865  15.923
12082TIP3   OH257660   2.180   2.922   2.934
12082TIP3    H157661   2.195   2.947   3.025
12082TIP3    H257662   2.237   2.846   2.920
12083TIP3   OH257663   1.216   4.821  15.861
12083TIP3    H157664   1.183   4.895  15.810
12083TIP3    H257665   1.166   4.746  15.830
12084TIP3   OH257666   0.740   3.430  10.801
12084TIP3    H157667   0.746   3.525  10.787
12084TIP3    H257668   0.822   3.395  10.766
12085TIP3   OH257669   0.332   1.853  12.867
12085TIP3    H157670   0.315   1.942  12.899
12085TIP3    H257671   0.246   1.818  12.844
12086TIP3   OH257672   4.786   0.757   6.225
12086TIP3    H157673   4.863   0.722   6.269
12086TIP3    H257674   4.717   0.692   6.240
12087TIP3   OH257675   3.442   4.691  14.197
12087TIP3    H157676   3.460   4.785  14.194
12087TIP3    H257677   3.494   4.659  14.270
12088TIP3   OH257678   1.306   1.203  11.996
12088TIP3    H157679   1.350   1.125  12.030
12088TIP3    H257680   1.285   1.181  11.905
12089TIP3   OH257681   4.583   4.159  11.940
12089TIP3    H157682   4.639   4.191  11.869
12089TIP3    H257683   4.508   4.219  11.940
12090TIP3   OH257684   4.089   0.463  17.203
12090TIP3    H157685   4.046   0.487  17.285
12090TIP3    H257686   4.023   0.476  17.136
12091TIP3   OH257687   2.233   5.977  14.942
12091TIP3    H157688   2.230   6.004  15.034
12091TIP3    H257689   2.228   6.060  14.893
12092TIP3   OH257690   2.464   1.047  11.411
12092TIP3    H157691   2.515   1.053  11.330
12092TIP3    H257692   2.469   0.955  11.436
12093TIP3   OH257693   1.871   0.904  13.269
12093TIP3    H157694   1.910   0.890  13.355
12093TIP3    H257695   1.854   0.998  13.266
12094TIP3   OH257696   1.482   0.835  16.210
12094TIP3    H157697   1.422   0.906  16.234
12094TIP3    H257698   1.569   0.868  16.232
12095TIP3   OH257699   2.762   2.416  16.351
12095TIP3    H157700   2.788   2.327  16.377
12095TIP3    H257701   2.826   2.441  16.285
12096TIP3   OH257702   3.827   0.863   2.251
12096TIP3    H157703   3.799   0.924   2.182
12096TIP3    H257704   3.892   0.807   2.209
12097TIP3   OH257705   2.808   2.867   1.361
12097TIP3    H157706   2.887   2.918   1.378
12097TIP3    H257707   2.824   2.824   1.277
12098TIP3   OH257708   3.750   1.106   2.997
12098TIP3    H157709   3.734   1.053   2.920
12098TIP3    H257710   3.822   1.165   2.972
12099TIP3   OH257711   2.757   4.938  16.363
12099TIP3    H157712   2.778   4.847  16.386
12099TIP3    H257713   2.783   4.945  16.271
12100TIP3   OH257714   1.397   2.233  14.472
12100TIP3    H157715   1.447   2.313  14.456
12100TIP3    H257716   1.320   2.241  14.414
12101TIP3   OH257717   0.355   4.970   1.736
12101TIP3    H157718   0.354   4.881   1.773
12101TIP3    H257719   0.289   5.018   1.786
12102TIP3   OH257720   0.435   3.524  10.890
12102TIP3    H157721   0.456   3.604  10.842
12102TIP3    H257722   0.339   3.525  10.898
12103TIP3   OH257723   0.676   6.610  12.958
12103TIP3    H157724   0.593   6.657  12.959
12103TIP3    H257725   0.716   6.631  13.043
12104TIP3   OH257726   2.336   2.725   3.142
12104TIP3    H157727   2.311   2.768   3.224
12104TIP3    H257728   2.422   2.688   3.159
12105TIP3   OH257729   1.323   2.333   5.818
12105TIP3    H157730   1.349   2.350   5.909
12105TIP3    H257731   1.315   2.420   5.779
12106TIP3   OH257732   5.393   2.311   1.009
12106TIP3    H157733   5.427   2.227   0.976
12106TIP3    H257734   5.391   2.368   0.932
12107TIP3   OH257735   5.262   1.367  15.111
12107TIP3    H157736   5.307   1.355  15.027
12107TIP3    H257737   5.307   1.440  15.152
12108TIP3   OH257738   2.208   1.707  12.141
12108TIP3    H157739   2.255   1.765  12.082
12108TIP3    H257740   2.121   1.746  12.149
12109TIP3   OH257741   2.757   6.506  17.191
12109TIP3    H157742   2.672   6.507  17.234
12109TIP3    H257743   2.819   6.529  17.260
12110TIP3   OH257744   5.394   0.495   5.060
12110TIP3    H157745   5.327   0.515   4.995
12110TIP3    H257746   5.447   0.426   5.019
12111TIP3   OH257747   1.016   6.200   3.402
12111TIP3    H157748   1.080   6.264   3.434
12111TIP3    H257749   1.058   6.162   3.324
12112TIP3   OH257750   6.430   2.579  13.747
12112TIP3    H157751   6.517   2.550  13.771
12112TIP3    H257752   6.399   2.513  13.685
12113TIP3   OH257753   5.966   6.245   6.005
12113TIP3    H157754   6.051   6.215   6.038
12113TIP3    H257755   5.904   6.219   6.073
12114TIP3   OH257756   6.525   3.587   1.695
12114TIP3    H157757   6.595   3.562   1.634
12114TIP3    H257758   6.571   3.602   1.778
12115TIP3   OH257759   6.676   4.583  15.336
12115TIP3    H157760   6.705   4.662  15.292
12115TIP3    H257761   6.609   4.613  15.397
12116TIP3   OH257762   1.372   0.349  15.582
12116TIP3    H157763   1.390   0.281  15.648
12116TIP3    H257764   1.347   0.299  15.504
12117TIP3   OH257765   3.116   0.380   6.420
12117TIP3    H157766   3.198   0.346   6.386
12117TIP3    H257767   3.049   0.320   6.387
12118TIP3   OH257768   5.775   2.523   5.206
12118TIP3    H157769   5.850   2.555   5.256
12118TIP3    H257770   5.730   2.603   5.177
12119TIP3   OH257771   3.795   6.378   5.051
12119TIP3    H157772   3.739   6.362   4.976
12119TIP3    H257773   3.847   6.454   5.027
12120TIP3   OH257774   3.413   4.213   6.398
12120TIP3    H157775   3.344   4.252   6.453
12120TIP3    H257776   3.482   4.190   6.461
12121TIP3   OH257777   6.169   1.134   3.917
12121TIP3    H157778   6.087   1.084   3.923
12121TIP3    H257779   6.217   1.092   3.846
12122TIP3   OH257780   3.716   6.104  11.907
12122TIP3    H157781   3.724   6.009  11.912
12122TIP3    H257782   3.631   6.119  11.865
12123TIP3   OH257783   0.894   2.823  16.366
12123TIP3    H157784   0.843   2.742  16.365
12123TIP3    H257785   0.940   2.821  16.450
12124TIP3   OH257786   1.383   1.653   1.378
12124TIP3    H157787   1.435   1.596   1.435
12124TIP3    H257788   1.314   1.686   1.435
12125TIP3   OH257789   3.423   3.061  13.767
12125TIP3    H157790   3.340   3.041  13.722
12125TIP3    H257791   3.431   3.156  13.761
12126TIP3   OH257792   3.778   2.050  16.050
12126TIP3    H157793   3.815   1.988  16.112
12126TIP3    H257794   3.698   2.007  16.018
12127TIP3   OH257795   6.440   2.669   2.399
12127TIP3    H157796   6.475   2.752   2.431
12127TIP3    H257797   6.517   2.623   2.364
12128TIP3   OH257798   6.497   0.997  15.303
12128TIP3    H157799   6.542   0.956  15.377
12128TIP3    H257800   6.434   0.931  15.274
12129TIP3   OH257801   1.364   5.378  15.435
12129TIP3    H157802   1.410   5.452  15.475
12129TIP3    H257803   1.402   5.301  15.477
12130TIP3   OH257804   0.102   6.479   1.430
12130TIP3    H157805   0.098   6.524   1.514
12130TIP3    H257806   0.126   6.389   1.452
12131TIP3   OH257807   6.165   2.747   1.230
12131TIP3    H157808   6.145   2.839   1.241
12131TIP3    H257809   6.125   2.724   1.146
12132TIP3   OH257810   5.283   6.285   5.703
12132TIP3    H157811   5.356   6.223   5.694
12132TIP3    H257812   5.230   6.250   5.774
12133TIP3   OH257813   4.736   2.513  13.839
12133TIP3    H157814   4.810   2.479  13.889
12133TIP3    H257815   4.776   2.559  13.765
12134TIP3   OH257816   1.209   5.041   3.073
12134TIP3    H157817   1.238   4.978   3.139
12134TIP3    H257818   1.262   5.119   3.089
12135TIP3   OH257819   2.729   2.869  14.081
12135TIP3    H157820   2.759   2.900  14.167
12135TIP3    H257821   2.760   2.936  14.020
12136TIP3   OH257822   0.425   0.279   6.659
12136TIP3    H157823   0.501   0.295   6.716
12136TIP3    H257824   0.463   0.243   6.579
12137TIP3   OH257825   4.282   2.099  15.547
12137TIP3    H157826   4.326   2.043  15.484
12137TIP3    H257827   4.210   2.046  15.581
12138TIP3   OH257828   2.039   5.967  12.226
12138TIP3    H157829   2.094   5.888  12.225
12138TIP3    H257830   1.982   5.956  12.150
12139TIP3   OH257831   0.777   0.228   4.136
12139TIP3    H157832   0.808   0.142   4.166
12139TIP3    H257833   0.683   0.227   4.154
12140TIP3   OH257834   0.316   6.578  14.295
12140TIP3    H157835   0.277   6.590  14.209
12140TIP3    H257836   0.329   6.484  14.303
12141TIP3   OH257837   3.153   0.456   1.887
12141TIP3    H157838   3.136   0.499   1.803
12141TIP3    H257839   3.191   0.372   1.863
12142TIP3   OH257840   5.932   4.879  12.290
12142TIP3    H157841   6.000   4.814  12.308
12142TIP3    H257842   5.864   4.860  12.354
12143TIP3   OH257843   0.484   2.821  12.980
12143TIP3    H157844   0.445   2.908  12.968
12143TIP3    H257845   0.443   2.788  13.060
12144TIP3   OH257846   4.366   3.873   3.105
12144TIP3    H157847   4.306   3.875   3.031
12144TIP3    H257848   4.372   3.780   3.128
12145TIP3   OH257849   5.875   0.331  11.442
12145TIP3    H157850   5.867   0.423  11.419
12145TIP3    H257851   5.817   0.320  11.518
12146TIP3   OH257852   5.886   0.086   5.756
12146TIP3    H157853   5.957   0.093   5.820
12146TIP3    H257854   5.809   0.117   5.804
12147TIP3   OH257855   2.305   3.201  12.039
12147TIP3    H157856   2.282   3.128  11.983
12147TIP3    H257857   2.312   3.163  12.127
12148TIP3   OH257858   2.515   6.759   4.637
12148TIP3    H157859   2.531   6.844   4.597
12148TIP3    H257860   2.494   6.778   4.728
12149TIP3   OH257861   5.928   1.698   2.634
12149TIP3    H157862   5.999   1.759   2.615
12149TIP3    H257863   5.915   1.650   2.553
12150TIP3   OH257864   2.771   5.168  14.356
12150TIP3    H157865   2.691   5.220  14.350
12150TIP3    H257866   2.757   5.093  14.298
12151TIP3   OH257867   4.298   6.360   3.191
12151TIP3    H157868   4.377   6.328   3.234
12151TIP3    H257869   4.283   6.299   3.119
12152TIP3   OH257870   0.882   1.555  17.183
12152TIP3    H157871   0.959   1.608  17.203
12152TIP3    H257872   0.916   1.468  17.163
12153TIP3   OH257873   6.369   2.488   4.128
12153TIP3    H157874   6.443   2.521   4.179
12153TIP3    H257875   6.346   2.560   4.069
12154TIP3   OH257876   2.811   3.521   0.484
12154TIP3    H157877   2.741   3.579   0.514
12154TIP3    H257878   2.791   3.437   0.526
12155TIP3   OH257879   5.045   1.697   0.302
12155TIP3    H157880   4.969   1.659   0.260
12155TIP3    H257881   5.105   1.624   0.315
12156TIP3   OH257882   6.407   0.314   5.206
12156TIP3    H157883   6.348   0.368   5.153
12156TIP3    H257884   6.382   0.333   5.297
12157TIP3   OH257885   2.304   1.455  16.396
12157TIP3    H157886   2.329   1.547  16.391
12157TIP3    H257887   2.255   1.439  16.316
12158TIP3   OH257888   4.490   2.082   0.332
12158TIP3    H157889   4.394   2.078   0.334
12158TIP3    H257890   4.509   2.164   0.287
12159TIP3   OH257891   4.613   4.275  15.745
12159TIP3    H157892   4.612   4.296  15.838
12159TIP3    H257893   4.653   4.189  15.740
12160TIP3   OH257894   3.901   3.492   0.933
12160TIP3    H157895   3.993   3.515   0.923
12160TIP3    H257896   3.855   3.576   0.936
12161TIP3   OH257897   3.922   6.557   2.913
12161TIP3    H157898   3.964   6.498   2.976
12161TIP3    H257899   3.871   6.499   2.857
12162TIP3   OH257900   4.804   4.506  16.527
12162TIP3    H157901   4.731   4.562  16.553
12162TIP3    H257902   4.770   4.417  16.534
12163TIP3   OH257903   0.551   2.257  17.097
12163TIP3    H157904   0.632   2.302  17.124
12163TIP3    H257905   0.560   2.169  17.131
12164TIP3   OH257906   1.368   4.325  16.890
12164TIP3    H157907   1.298   4.344  16.827
12164TIP3    H257908   1.448   4.333  16.838
12165TIP3   OH257909   3.165   6.160   2.309
12165TIP3    H157910   3.233   6.206   2.261
12165TIP3    H257911   3.147   6.216   2.385
12166TIP3   OH257912   1.789   5.910  14.918
12166TIP3    H157913   1.816   5.978  14.857
12166TIP3    H257914   1.711   5.871  14.878
12167TIP3   OH257915   5.533   6.082   3.747
12167TIP3    H157916   5.545   6.086   3.842
12167TIP3    H257917   5.484   6.162   3.726
12168TIP3   OH257918   1.553   5.335   1.168
12168TIP3    H157919   1.559   5.288   1.251
12168TIP3    H257920   1.465   5.315   1.136
12169TIP3   OH257921   1.916   1.739  14.647
12169TIP3    H157922   1.843   1.691  14.686
12169TIP3    H257923   1.900   1.830  14.671
12170TIP3   OH257924   2.927   2.257  13.081
12170TIP3    H157925   2.940   2.274  12.988
12170TIP3    H257926   2.939   2.342  13.123
12171TIP3   OH257927   4.402   2.742  16.126
12171TIP3    H157928   4.333   2.809  16.122
12171TIP3    H257929   4.464   2.766  16.058
12172TIP3   OH257930   1.997   1.340   2.503
12172TIP3    H157931   2.068   1.374   2.449
12172TIP3    H257932   2.039   1.317   2.586
12173TIP3   OH257933   0.151   1.103  12.556
12173TIP3    H157934   0.128   1.178  12.500
12173TIP3    H257935   0.069   1.080  12.600
12174TIP3   OH257936   0.461   6.129   2.660
12174TIP3    H157937   0.480   6.155   2.570
12174TIP3    H257938   0.521   6.181   2.713
12175TIP3   OH257939   1.492   0.172   3.406
12175TIP3    H157940   1.535   0.116   3.472
12175TIP3    H257941   1.409   0.128   3.389
12176TIP3   OH257942   6.411   3.047  12.228
12176TIP3    H157943   6.381   3.003  12.149
12176TIP3    H257944   6.405   3.141  12.207
12177TIP3   OH257945   6.214   4.790   6.170
12177TIP3    H157946   6.125   4.799   6.135
12177TIP3    H257947   6.267   4.761   6.095
12178TIP3   OH257948   2.988   2.183  12.167
12178TIP3    H157949   2.954   2.140  12.088
12178TIP3    H257950   2.913   2.233  12.201
12179TIP3   OH257951   4.035   2.281   1.381
12179TIP3    H157952   4.097   2.339   1.424
12179TIP3    H257953   4.082   2.247   1.305
12180TIP3   OH257954   3.618   1.523  17.038
12180TIP3    H157955   3.597   1.457  16.972
12180TIP3    H257956   3.547   1.516  17.102
12181TIP3   OH257957   4.442   2.877  10.711
12181TIP3    H157958   4.509   2.920  10.764
12181TIP3    H257959   4.363   2.929  10.726
12182TIP3   OH257960   6.488   6.763   2.572
12182TIP3    H157961   6.498   6.840   2.628
12182TIP3    H257962   6.533   6.787   2.491
12183TIP3   OH257963   2.137   3.247   4.840
12183TIP3    H157964   2.158   3.337   4.816
12183TIP3    H257965   2.188   3.229   4.918
12184TIP3   OH257966   1.980   4.831   1.527
12184TIP3    H157967   2.009   4.768   1.593
12184TIP3    H257968   2.029   4.911   1.548
12185TIP3   OH257969   6.289   1.040  13.907
12185TIP3    H157970   6.344   1.086  13.969
12185TIP3    H257971   6.335   1.048  13.823
12186TIP3   OH257972   4.859   3.598  15.907
12186TIP3    H157973   4.933   3.637  15.861
12186TIP3    H257974   4.790   3.593  15.840
12187TIP3   OH257975   6.765   0.945   1.798
12187TIP3    H157976   6.826   0.968   1.728
12187TIP3    H257977   6.767   1.021   1.856
12188TIP3   OH257978   0.584   2.208   3.474
12188TIP3    H157979   0.519   2.259   3.520
12188TIP3    H257980   0.566   2.224   3.381
12189TIP3   OH257981   6.767   2.208   5.334
12189TIP3    H157982   6.858   2.180   5.324
12189TIP3    H257983   6.733   2.154   5.406
12190TIP3   OH257984   4.605   6.438  16.354
12190TIP3    H157985   4.590   6.344  16.367
12190TIP3    H257986   4.532   6.480  16.399
12191TIP3   OH257987   3.080   6.629  13.226
12191TIP3    H157988   3.035   6.569  13.287
12191TIP3    H257989   3.115   6.571  13.158
12192TIP3   OH257990   3.647   0.906  13.124
12192TIP3    H157991   3.586   0.849  13.170
12192TIP3    H257992   3.719   0.920  13.186
12193TIP3   OH257993   4.887   1.865   4.632
12193TIP3    H157994   4.829   1.837   4.703
12193TIP3    H257995   4.929   1.944   4.665
12194TIP3   OH257996   6.674   2.564   3.356
12194TIP3    H157997   6.591   2.593   3.394
12194TIP3    H257998   6.693   2.627   3.287
12195TIP3   OH257999   3.326   0.055  13.673
12195TIP3    H158000   3.237   0.041  13.706
12195TIP3    H258001   3.344  -0.021  13.618
12196TIP3   OH258002   0.326   0.978  11.350
12196TIP3    H158003   0.394   0.926  11.392
12196TIP3    H258004   0.289   1.031  11.421
12197TIP3   OH258005   3.312   0.024   4.204
12197TIP3    H158006   3.284   0.052   4.117
12197TIP3    H258007   3.331   0.106   4.250
12198TIP3   OH258008   3.322   6.061   0.988
12198TIP3    H158009   3.327   5.969   0.962
12198TIP3    H258010   3.412   6.083   1.013
12199TIP3   OH258011   1.541   3.109   3.730
12199TIP3    H158012   1.545   3.190   3.678
12199TIP3    H258013   1.601   3.050   3.685
12200TIP3   OH258014   5.612   5.114   2.970
12200TIP3    H158015   5.558   5.181   2.927
12200TIP3    H258016   5.667   5.079   2.901
12201TIP3   OH258017   3.343   5.827  14.223
12201TIP3    H158018   3.275   5.832  14.290
12201TIP3    H258019   3.408   5.891  14.250
12202TIP3   OH258020   0.777   2.272   4.896
12202TIP3    H158021   0.772   2.241   4.806
12202TIP3    H258022   0.804   2.364   4.888
12203TIP3   OH258023   6.762   4.361   6.401
12203TIP3    H158024   6.857   4.377   6.400
12203TIP3    H258025   6.754   4.266   6.403
12204TIP3   OH258026   6.278   4.592   5.616
12204TIP3    H158027   6.234   4.537   5.551
12204TIP3    H258028   6.208   4.624   5.672
12205TIP3   OH258029   6.426   4.878   2.956
12205TIP3    H158030   6.484   4.951   2.977
12205TIP3    H258031   6.485   4.804   2.941
12206TIP3   OH258032   2.058   3.397  15.588
12206TIP3    H158033   2.116   3.329  15.554
12206TIP3    H258034   1.981   3.393  15.531
12207TIP3   OH258035   1.370   6.230   3.334
12207TIP3    H158036   1.429   6.180   3.279
12207TIP3    H258037   1.324   6.289   3.273
12208TIP3   OH258038   5.560   6.321   5.709
12208TIP3    H158039   5.621   6.260   5.669
12208TIP3    H258040   5.579   6.315   5.803
12209TIP3   OH258041   5.847   3.794  10.620
12209TIP3    H158042   5.760   3.761  10.596
12209TIP3    H258043   5.889   3.814  10.537
12210TIP3   OH258044   0.872   1.171   4.309
12210TIP3    H158045   0.922   1.090   4.306
12210TIP3    H258046   0.917   1.224   4.375
12211TIP3   OH258047   1.207   4.568   3.774
12211TIP3    H158048   1.180   4.504   3.708
12211TIP3    H258049   1.126   4.607   3.805
12212TIP3   OH258050   4.835   3.000  13.858
12212TIP3    H158051   4.785   3.038  13.786
12212TIP3    H258052   4.920   2.978  13.819
12213TIP3   OH258053   5.462   6.663   2.850
12213TIP3    H158054   5.391   6.629   2.796
12213TIP3    H258055   5.422   6.733   2.901
12214TIP3   OH258056   2.520   2.915  12.628
12214TIP3    H158057   2.498   2.828  12.594
12214TIP3    H258058   2.554   2.962  12.552
12215TIP3   OH258059   5.754   6.321  16.443
12215TIP3    H158060   5.837   6.303  16.486
12215TIP3    H258061   5.727   6.406  16.477
12216TIP3   OH258062   2.013   2.750   4.394
12216TIP3    H158063   2.042   2.820   4.335
12216TIP3    H258064   1.969   2.796   4.465
12217TIP3   OH258065   1.101   6.033   2.980
12217TIP3    H158066   1.058   5.973   2.918
12217TIP3    H258067   1.181   6.060   2.935
12218TIP3   OH258068   1.936   1.003  14.902
12218TIP3    H158069   1.996   0.930  14.889
12218TIP3    H258070   1.849   0.965  14.892
12219TIP3   OH258071   4.863   2.131  15.176
12219TIP3    H158072   4.890   2.146  15.267
12219TIP3    H258073   4.934   2.168  15.123
12220TIP3   OH258074   0.797   2.634  13.903
12220TIP3    H158075   0.817   2.724  13.927
12220TIP3    H258076   0.882   2.591  13.898
12221TIP3   OH258077   4.097   1.638   1.608
12221TIP3    H158078   4.013   1.594   1.607
12221TIP3    H258079   4.100   1.684   1.692
12222TIP3   OH258080   3.546   4.255  15.086
12222TIP3    H158081   3.476   4.194  15.110
12222TIP3    H258082   3.601   4.260  15.164
12223TIP3   OH258083   0.596   1.363  11.863
12223TIP3    H158084   0.655   1.438  11.855
12223TIP3    H258085   0.515   1.399  11.898
12224TIP3   OH258086   3.037   6.063  10.969
12224TIP3    H158087   3.124   6.068  10.929
12224TIP3    H258088   3.023   5.970  10.984
12225TIP3   OH258089   6.589   4.082  15.695
12225TIP3    H158090   6.528   4.090  15.769
12225TIP3    H258091   6.655   4.149  15.712
12226TIP3   OH258092   3.978   5.643  13.656
12226TIP3    H158093   4.074   5.653  13.661
12226TIP3    H258094   3.965   5.563  13.606
12227TIP3   OH258095   0.052   2.145   1.224
12227TIP3    H158096   0.025   2.059   1.192
12227TIP3    H258097  -0.000   2.206   1.172
12228TIP3   OH258098   5.388   5.538  14.305
12228TIP3    H158099   5.315   5.531  14.367
12228TIP3    H258100   5.440   5.611  14.337
12229TIP3   OH258101   5.249   0.360   4.430
12229TIP3    H158102   5.205   0.369   4.345
12229TIP3    H258103   5.269   0.450   4.455
12230TIP3   OH258104   0.711   0.586   0.263
12230TIP3    H158105   0.770   0.651   0.299
12230TIP3    H258106   0.624   0.612   0.294
12231TIP3   OH258107   6.658   6.680  16.809
12231TIP3    H158108   6.631   6.771  16.823
12231TIP3    H258109   6.584   6.628  16.840
12232TIP3   OH258110   2.634   5.039  13.940
12232TIP3    H158111   2.598   5.121  13.906
12232TIP3    H258112   2.674   4.997  13.864
12233TIP3   OH258113   3.809   2.536  13.652
12233TIP3    H158114   3.893   2.530  13.698
12233TIP3    H258115   3.832   2.538  13.559
12234TIP3   OH258116   1.537   3.471  14.396
12234TIP3    H158117   1.480   3.546  14.414
12234TIP3    H258118   1.523   3.412  14.470
12235TIP3   OH258119   4.103   1.969   1.721
12235TIP3    H158120   4.198   1.962   1.734
12235TIP3    H258121   4.085   2.063   1.724
12236TIP3   OH258122   3.628   3.653  13.940
12236TIP3    H158123   3.583   3.702  13.871
12236TIP3    H258124   3.579   3.571  13.946
12237TIP3   OH258125   6.661   4.836   5.908
12237TIP3    H158126   6.751   4.849   5.877
12237TIP3    H258127   6.671   4.798   5.995
12238TIP3   OH258128   2.613   3.897  14.846
12238TIP3    H158129   2.645   3.899  14.756
12238TIP3    H258130   2.691   3.915  14.899
12239TIP3   OH258131   1.113   5.263   4.981
12239TIP3    H158132   1.024   5.286   5.008
12239TIP3    H258133   1.124   5.305   4.895
12240TIP3   OH258134   1.667   4.117   2.190
12240TIP3    H158135   1.612   4.039   2.181
12240TIP3    H258136   1.717   4.101   2.270
12241TIP3   OH258137   4.964   5.597   2.231
12241TIP3    H158138   5.032   5.564   2.289
12241TIP3    H258139   4.891   5.535   2.241
12242TIP3   OH258140   0.751   6.786   1.021
12242TIP3    H158141   0.698   6.726   1.072
12242TIP3    H258142   0.804   6.729   0.965
12243TIP3   OH258143   5.549   4.186  16.708
12243TIP3    H158144   5.575   4.170  16.617
12243TIP3    H258145   5.481   4.254  16.702
12244TIP3   OH258146   2.041   6.250  11.825
12244TIP3    H158147   2.028   6.276  11.916
12244TIP3    H258148   2.130   6.279  11.805
12245TIP3   OH258149   6.313   3.830  13.666
12245TIP3    H158150   6.253   3.791  13.602
12245TIP3    H258151   6.396   3.784  13.653
12246TIP3   OH258152   4.997   6.151   5.940
12246TIP3    H158153   5.090   6.170   5.945
12246TIP3    H258154   4.955   6.236   5.928
12247TIP3   OH258155   3.169   3.380   2.251
12247TIP3    H158156   3.107   3.331   2.306
12247TIP3    H258157   3.206   3.445   2.310
12248TIP3   OH258158   1.918   5.132   2.763
12248TIP3    H158159   1.933   5.135   2.857
12248TIP3    H258160   1.901   5.040   2.744
12249TIP3   OH258161   5.871   5.710   3.292
12249TIP3    H158162   5.929   5.643   3.330
12249TIP3    H258163   5.873   5.693   3.198
12250TIP3   OH258164   2.151   2.944   2.500
12250TIP3    H158165   2.157   2.852   2.526
12250TIP3    H258166   2.222   2.987   2.548
12251TIP3   OH258167   0.103   1.720   2.516
12251TIP3    H158168   0.051   1.650   2.475
12251TIP3    H258169   0.059   1.801   2.490
12252TIP3   OH258170   1.107   1.161  13.626
12252TIP3    H158171   1.118   1.082  13.678
12252TIP3    H258172   1.096   1.231  13.690
12253TIP3   OH258173   0.805   0.674   5.536
12253TIP3    H158174   0.887   0.720   5.551
12253TIP3    H258175   0.739   0.743   5.532
12254TIP3   OH258176   1.126   6.199   4.617
12254TIP3    H158177   1.148   6.106   4.621
12254TIP3    H258178   1.158   6.235   4.700
12255TIP3   OH258179   0.524   2.779   3.356
12255TIP3    H158180   0.495   2.867   3.381
12255TIP3    H258181   0.474   2.759   3.277
12256TIP3   OH258182   3.045   4.189   3.211
12256TIP3    H158183   3.020   4.111   3.261
12256TIP3    H258184   3.065   4.255   3.278
12257TIP3   OH258185   4.684   6.566  15.358
12257TIP3    H158186   4.714   6.503  15.423
12257TIP3    H258187   4.755   6.629  15.352
12258TIP3   OH258188   1.631   5.324  13.110
12258TIP3    H158189   1.725   5.324  13.093
12258TIP3    H258190   1.606   5.232  13.100
12259TIP3   OH258191   0.104   4.483   5.768
12259TIP3    H158192   0.116   4.474   5.862
12259TIP3    H258193   0.158   4.413   5.730
12260TIP3   OH258194   4.357   0.316   3.841
12260TIP3    H158195   4.351   0.314   3.936
12260TIP3    H258196   4.281   0.267   3.811
12261TIP3   OH258197   5.863   6.654   2.250
12261TIP3    H158198   5.909   6.593   2.192
12261TIP3    H258199   5.891   6.629   2.338
12262TIP3   OH258200   6.712   5.759   2.708
12262TIP3    H158201   6.744   5.846   2.734
12262TIP3    H258202   6.729   5.754   2.614
12263TIP3   OH258203   3.682   2.860   3.558
12263TIP3    H158204   3.770   2.823   3.564
12263TIP3    H258205   3.672   2.884   3.466
12264TIP3   OH258206   3.010   1.260   2.182
12264TIP3    H158207   2.924   1.235   2.217
12264TIP3    H258208   3.042   1.327   2.243
12265TIP3   OH258209   1.115   3.494   2.408
12265TIP3    H158210   1.162   3.413   2.429
12265TIP3    H258211   1.079   3.523   2.491
12266TIP3   OH258212   4.540   2.780  15.670
12266TIP3    H158213   4.452   2.777  15.708
12266TIP3    H258214   4.554   2.692  15.637
12267TIP3   OH258215   1.714   2.801  13.521
12267TIP3    H158216   1.618   2.807  13.521
12267TIP3    H258217   1.744   2.891  13.534
12268TIP3   OH258218   1.084   1.014  13.069
12268TIP3    H158219   1.084   0.930  13.114
12268TIP3    H258220   1.029   1.071  13.123
12269TIP3   OH258221   0.134   2.962   3.925
12269TIP3    H158222   0.116   2.912   4.004
12269TIP3    H258223   0.229   2.969   3.921
12270TIP3   OH258224   5.744   2.878  12.063
12270TIP3    H158225   5.671   2.940  12.070
12270TIP3    H258226   5.702   2.793  12.047
12271TIP3   OH258227   3.218   2.033  13.039
12271TIP3    H158228   3.181   2.012  12.953
12271TIP3    H258229   3.142   2.032  13.098
12272TIP3   OH258230   1.140   5.697  14.242
12272TIP3    H158231   1.061   5.693  14.190
12272TIP3    H258232   1.131   5.626  14.306
12273TIP3   OH258233   1.494   2.886  14.415
12273TIP3    H158234   1.522   2.826  14.345
12273TIP3    H258235   1.575   2.912  14.458
12274TIP3   OH258236   4.409   4.849   2.123
12274TIP3    H158237   4.440   4.863   2.034
12274TIP3    H258238   4.463   4.908   2.176
12275TIP3   OH258239   5.932   3.139   3.131
12275TIP3    H158240   5.999   3.171   3.192
12275TIP3    H258241   5.853   3.130   3.185
12276TIP3   OH258242   4.061   3.745  14.897
12276TIP3    H158243   3.985   3.699  14.863
12276TIP3    H258244   4.065   3.826  14.847
12277TIP3   OH258245   1.506   2.894  12.907
12277TIP3    H158246   1.504   2.985  12.878
12277TIP3    H258247   1.591   2.861  12.879
12278TIP3   OH258248   4.258   0.837   0.335
12278TIP3    H158249   4.231   0.892   0.261
12278TIP3    H258250   4.353   0.830   0.324
12279TIP3   OH258251   3.280   1.604   2.432
12279TIP3    H158252   3.325   1.684   2.405
12279TIP3    H258253   3.350   1.543   2.454
12280TIP3   OH258254   2.802   4.004   3.878
12280TIP3    H158255   2.796   4.098   3.893
12280TIP3    H258256   2.871   3.974   3.937
12281TIP3   OH258257   3.156   4.991   5.811
12281TIP3    H158258   3.180   5.000   5.719
12281TIP3    H258259   3.185   4.903   5.835
12282TIP3   OH258260   4.583   6.562   5.927
12282TIP3    H158261   4.534   6.498   5.875
12282TIP3    H258262   4.563   6.539   6.017
12283TIP3   OH258263   3.642   3.322  12.264
12283TIP3    H158264   3.710   3.376  12.224
12283TIP3    H258265   3.689   3.245  12.297
12284TIP3   OH258266   0.758   2.258  13.631
12284TIP3    H158267   0.834   2.266  13.574
12284TIP3    H258268   0.730   2.349  13.646
12285TIP3   OH258269   5.499   2.263   2.606
12285TIP3    H158270   5.409   2.235   2.594
12285TIP3    H258271   5.539   2.195   2.660
12286TIP3   OH258272   2.394   1.556   1.833
12286TIP3    H158273   2.468   1.495   1.830
12286TIP3    H258274   2.327   1.513   1.780
12287TIP3   OH258275   5.038   2.976  14.484
12287TIP3    H158276   5.108   2.986  14.418
12287TIP3    H258277   4.981   3.052  14.470
12288TIP3   OH258278   5.897   4.943   4.887
12288TIP3    H158279   5.968   4.911   4.831
12288TIP3    H258280   5.819   4.937   4.833
12289TIP3   OH258281   3.977   2.282   4.726
12289TIP3    H158282   4.055   2.337   4.734
12289TIP3    H258283   3.909   2.341   4.693
12290TIP3   OH258284   4.569   2.199   5.118
12290TIP3    H158285   4.596   2.146   5.043
12290TIP3    H258286   4.480   2.171   5.137
12291TIP3   OH258287   3.070   0.590  14.198
12291TIP3    H158288   3.145   0.536  14.222
12291TIP3    H258289   3.084   0.610  14.106
12292TIP3   OH258290   6.249   3.305   5.423
12292TIP3    H158291   6.338   3.270   5.432
12292TIP3    H258292   6.218   3.270   5.339
12293TIP3   OH258293   3.436   5.132   1.746
12293TIP3    H158294   3.455   5.155   1.837
12293TIP3    H258295   3.402   5.043   1.750
12294TIP3   OH258296   3.778   2.355  11.634
12294TIP3    H158297   3.758   2.272  11.677
12294TIP3    H258298   3.863   2.381  11.671
12295TIP3   OH258299   5.817   2.653   4.159
12295TIP3    H158300   5.783   2.648   4.248
12295TIP3    H258301   5.810   2.746   4.136
12296TIP3   OH258302   0.852   4.075   3.441
12296TIP3    H158303   0.910   4.120   3.503
12296TIP3    H258304   0.777   4.049   3.495
12297TIP3   OH258305   1.208   2.679  15.993
12297TIP3    H158306   1.175   2.702  15.906
12297TIP3    H258307   1.189   2.586  16.002
12298TIP3   OH258308   6.239   6.168   6.086
12298TIP3    H158309   6.265   6.170   6.179
12298TIP3    H258310   6.229   6.075   6.066
12299TIP3   OH258311   1.587   1.537  16.859
12299TIP3    H158312   1.497   1.518  16.834
12299TIP3    H258313   1.581   1.615  16.916
12300TIP3   OH258314   3.614   3.773   6.336
12300TIP3    H158315   3.654   3.799   6.419
12300TIP3    H258316   3.540   3.718   6.361
12301TIP3   OH258317   5.233   4.416   4.515
12301TIP3    H158318   5.245   4.503   4.477
12301TIP3    H258319   5.198   4.364   4.442
12302TIP3   OH258320   1.102   0.006   2.668
12302TIP3    H158321   1.164  -0.016   2.738
12302TIP3    H258322   1.027   0.044   2.713
12303TIP3   OH258323   6.630   1.856   2.689
12303TIP3    H158324   6.607   1.764   2.678
12303TIP3    H258325   6.699   1.872   2.624
12304TIP3   OH258326   2.718   1.563   0.596
12304TIP3    H158327   2.728   1.498   0.526
12304TIP3    H258328   2.742   1.646   0.555
12305TIP3   OH258329   5.606   0.487   2.499
12305TIP3    H158330   5.697   0.468   2.522
12305TIP3    H258331   5.592   0.578   2.527
12306TIP3   OH258332   2.823   0.447  12.333
12306TIP3    H158333   2.774   0.488  12.405
12306TIP3    H258334   2.833   0.356  12.360
12307TIP3   OH258335   3.736   4.501   5.370
12307TIP3    H158336   3.761   4.592   5.388
12307TIP3    H258337   3.808   4.449   5.406
12308TIP3   OH258338   5.311   6.291  13.869
12308TIP3    H158339   5.282   6.381  13.854
12308TIP3    H258340   5.388   6.300  13.926
12309TIP3   OH258341   1.527   4.067   0.868
12309TIP3    H158342   1.578   4.127   0.923
12309TIP3    H258343   1.464   4.027   0.928
12310TIP3   OH258344   4.001   0.419  13.825
12310TIP3    H158345   3.917   0.374  13.811
12310TIP3    H258346   4.005   0.483  13.754
12311TIP3   OH258347   3.227   1.862   1.972
12311TIP3    H158348   3.316   1.896   1.974
12311TIP3    H258349   3.172   1.937   1.951
12312TIP3   OH258350   2.715   6.199   3.313
12312TIP3    H158351   2.755   6.136   3.253
12312TIP3    H258352   2.680   6.267   3.256
12313TIP3   OH258353   2.801   2.175   3.896
12313TIP3    H158354   2.873   2.117   3.918
12313TIP3    H258355   2.723   2.119   3.897
12314TIP3   OH258356   1.321   4.864   2.756
12314TIP3    H158357   1.401   4.857   2.808
12314TIP3    H258358   1.259   4.912   2.812
12315TIP3   OH258359   1.532   1.483  16.432
12315TIP3    H158360   1.604   1.456  16.489
12315TIP3    H258361   1.574   1.520  16.355
12316TIP3   OH258362   1.977   2.991   6.014
12316TIP3    H158363   2.052   3.025   5.964
12316TIP3    H258364   2.009   2.986   6.104
12317TIP3   OH258365   2.648   0.792   5.254
12317TIP3    H158366   2.602   0.707   5.257
12317TIP3    H258367   2.578   0.856   5.243
12318TIP3   OH258368   0.177   0.491   0.723
12318TIP3    H158369   0.148   0.407   0.687
12318TIP3    H258370   0.234   0.528   0.656
12319TIP3   OH258371   4.754   6.172  12.192
12319TIP3    H158372   4.701   6.096  12.167
12319TIP3    H258373   4.798   6.146  12.273
12320TIP3   OH258374   5.900   4.018   1.570
12320TIP3    H158375   5.835   4.071   1.615
12320TIP3    H258376   5.918   3.945   1.629
12321TIP3   OH258377   5.660   1.858  12.600
12321TIP3    H158378   5.746   1.839  12.562
12321TIP3    H258379   5.646   1.951  12.583
12322TIP3   OH258380   6.326   5.232  14.972
12322TIP3    H158381   6.401   5.218  15.030
12322TIP3    H258382   6.279   5.305  15.011
12323TIP3   OH258383   0.284   3.144   1.881
12323TIP3    H158384   0.206   3.103   1.917
12323TIP3    H258385   0.264   3.159   1.789
12324TIP3   OH258386   2.696   1.021   2.950
12324TIP3    H158387   2.657   0.937   2.929
12324TIP3    H258388   2.659   1.044   3.035
12325TIP3   OH258389   0.346   1.574  11.918
12325TIP3    H158390   0.251   1.581  11.907
12325TIP3    H258391   0.366   1.636  11.989
12326TIP3   OH258392   6.173   5.085   1.001
12326TIP3    H158393   6.222   5.024   0.946
12326TIP3    H258394   6.083   5.081   0.967
12327TIP3   OH258395   3.585   5.832  11.803
12327TIP3    H158396   3.582   5.748  11.849
12327TIP3    H258397   3.580   5.808  11.710
12328TIP3   OH258398   2.007   0.761  12.422
12328TIP3    H158399   2.047   0.847  12.439
12328TIP3    H258400   2.081   0.701  12.416
12329TIP3   OH258401   0.779   3.552  15.765
12329TIP3    H158402   0.833   3.594  15.698
12329TIP3    H258403   0.841   3.517  15.828
12330TIP3   OH258404   0.483   0.418   5.949
12330TIP3    H158405   0.511   0.334   5.914
12330TIP3    H258406   0.513   0.483   5.885
12331TIP3   OH258407   4.827   5.011  13.476
12331TIP3    H158408   4.850   5.085  13.532
12331TIP3    H258409   4.765   5.047  13.412
12332TIP3   OH258410   2.859   4.685  15.882
12332TIP3    H158411   2.844   4.778  15.865
12332TIP3    H258412   2.819   4.670  15.968
12333TIP3   OH258413   1.810   4.565  13.084
12333TIP3    H158414   1.723   4.539  13.052
12333TIP3    H258415   1.794   4.592  13.174
12334TIP3   OH258416   3.356   0.537   3.869
12334TIP3    H158417   3.398   0.523   3.785
12334TIP3    H258418   3.427   0.564   3.927
12335TIP3   OH258419   0.375   2.278   2.097
12335TIP3    H158420   0.451   2.334   2.077
12335TIP3    H258421   0.413   2.192   2.113
12336TIP3   OH258422   6.403   4.772  16.833
12336TIP3    H158423   6.352   4.852  16.819
12336TIP3    H258424   6.452   4.789  16.913
12337TIP3   OH258425   3.019   0.508  11.144
12337TIP3    H158426   3.014   0.419  11.181
12337TIP3    H258427   3.083   0.501  11.074
12338TIP3   OH258428   3.831   6.128  16.006
12338TIP3    H158429   3.775   6.195  15.969
12338TIP3    H258430   3.809   6.127  16.099
12339TIP3   OH258431   4.676   1.203   5.025
12339TIP3    H158432   4.684   1.218   4.931
12339TIP3    H258433   4.723   1.276   5.066
12340TIP3   OH258434   0.031   0.622   5.521
12340TIP3    H158435  -0.017   0.691   5.565
12340TIP3    H258436   0.065   0.663   5.441
12341TIP3   OH258437   6.733   1.583   4.101
12341TIP3    H158438   6.781   1.503   4.120
12341TIP3    H258439   6.714   1.578   4.007
12342TIP3   OH258440   5.354   5.643   2.702
12342TIP3    H158441   5.422   5.599   2.753
12342TIP3    H258442   5.280   5.651   2.763
12343TIP3   OH258443   6.129   1.952  12.730
12343TIP3    H158444   6.087   2.026  12.687
12343TIP3    H258445   6.222   1.962  12.709
12344TIP3   OH258446   0.220   3.307   4.158
12344TIP3    H158447   0.195   3.298   4.067
12344TIP3    H258448   0.199   3.222   4.198
12345TIP3   OH258449   5.662   5.384   5.640
12345TIP3    H158450   5.739   5.408   5.691
12345TIP3    H258451   5.588   5.415   5.693
12346TIP3   OH258452   3.579   3.598   4.571
12346TIP3    H158453   3.551   3.583   4.661
12346TIP3    H258454   3.670   3.569   4.570
12347TIP3   OH258455   1.091   1.813  12.633
12347TIP3    H158456   1.097   1.863  12.714
12347TIP3    H258457   1.021   1.750  12.649
12348TIP3   OH258458   0.029   5.145   1.242
12348TIP3    H158459   0.091   5.092   1.193
12348TIP3    H258460   0.083   5.203   1.296
12349TIP3   OH258461   2.783   0.625   5.706
12349TIP3    H158462   2.841   0.688   5.749
12349TIP3    H258463   2.811   0.627   5.614
12350TIP3   OH258464   4.178   4.477  12.044
12350TIP3    H158465   4.186   4.420  12.121
12350TIP3    H258466   4.158   4.563  12.080
12351TIP3   OH258467   0.785   6.696  15.430
12351TIP3    H158468   0.756   6.766  15.372
12351TIP3    H258469   0.877   6.682  15.407
12352TIP3   OH258470   4.589   4.087  13.142
12352TIP3    H158471   4.624   4.030  13.073
12352TIP3    H258472   4.542   4.027  13.200
12353TIP3   OH258473   4.526   5.367  16.207
12353TIP3    H158474   4.594   5.378  16.140
12353TIP3    H258475   4.449   5.410  16.170
12354TIP3   OH258476   6.315   6.518   4.779
12354TIP3    H158477   6.380   6.584   4.801
12354TIP3    H258478   6.243   6.533   4.842
12355TIP3   OH258479   4.296   2.495   1.166
12355TIP3    H158480   4.280   2.423   1.104
12355TIP3    H258481   4.209   2.515   1.202
12356TIP3   OH258482   5.390   5.861  15.200
12356TIP3    H158483   5.361   5.951  15.216
12356TIP3    H258484   5.312   5.817  15.167
12357TIP3   OH258485   5.643   6.301  13.471
12357TIP3    H158486   5.605   6.214  13.485
12357TIP3    H258487   5.598   6.357  13.535
12358TIP3   OH258488   4.211   5.624  12.263
12358TIP3    H158489   4.265   5.694  12.300
12358TIP3    H258490   4.133   5.622  12.319
12359TIP3   OH258491   2.840   3.678   1.986
12359TIP3    H158492   2.746   3.657   1.985
12359TIP3    H258493   2.851   3.738   1.912
12360TIP3   OH258494   3.008   5.195  10.532
12360TIP3    H158495   3.046   5.243  10.606
12360TIP3    H258496   3.036   5.243  10.455
12361TIP3   OH258497   4.656   2.522   2.442
12361TIP3    H158498   4.595   2.580   2.397
12361TIP3    H258499   4.601   2.474   2.505
12362TIP3   OH258500   1.189   2.937   1.716
12362TIP3    H158501   1.208   2.885   1.794
12362TIP3    H258502   1.095   2.928   1.704
12363TIP3   OH258503   6.327   0.145   4.035
12363TIP3    H158504   6.346   0.226   3.988
12363TIP3    H258505   6.245   0.113   3.997
12364TIP3   OH258506   4.629   3.449   2.593
12364TIP3    H158507   4.689   3.384   2.631
12364TIP3    H258508   4.566   3.396   2.544
12365TIP3   OH258509   2.962   3.919  12.822
12365TIP3    H158510   3.055   3.897  12.824
12365TIP3    H258511   2.917   3.836  12.810
12366TIP3   OH258512   4.489   4.796   1.696
12366TIP3    H158513   4.504   4.737   1.771
12366TIP3    H258514   4.475   4.882   1.736
12367TIP3   OH258515   2.036   2.848  16.011
12367TIP3    H158516   2.025   2.942  15.996
12367TIP3    H258517   1.952   2.820  16.048
12368TIP3   OH258518   3.484   2.583  15.956
12368TIP3    H158519   3.419   2.653  15.963
12368TIP3    H258520   3.439   2.513  15.910
12369TIP3   OH258521   4.964   4.747  16.223
12369TIP3    H158522   5.043   4.704  16.257
12369TIP3    H258523   4.967   4.835  16.260
12370TIP3   OH258524   6.553   3.194  14.625
12370TIP3    H158525   6.475   3.225  14.578
12370TIP3    H258526   6.623   3.252  14.596
12371TIP3   OH258527   5.098   1.066   4.476
12371TIP3    H158528   5.190   1.070   4.500
12371TIP3    H258529   5.069   0.980   4.507
12372TIP3   OH258530   3.079   0.172   3.702
12372TIP3    H158531   3.019   0.098   3.694
12372TIP3    H258532   3.022   0.248   3.715
12373TIP3   OH258533   3.216   3.634  17.120
12373TIP3    H158534   3.150   3.702  17.109
12373TIP3    H258535   3.243   3.612  17.030
12374TIP3   OH258536   5.911   2.299   1.931
12374TIP3    H158537   6.003   2.295   1.958
12374TIP3    H258538   5.905   2.242   1.854
12375TIP3   OH258539   5.823   0.738  14.290
12375TIP3    H158540   5.763   0.791  14.238
12375TIP3    H258541   5.909   0.777  14.276
12376TIP3   OH258542   3.950   2.593  12.577
12376TIP3    H158543   3.883   2.524  12.575
12376TIP3    H258544   3.929   2.649  12.503
12377TIP3   OH258545   6.237   2.226  13.980
12377TIP3    H158546   6.236   2.287  14.055
12377TIP3    H258547   6.226   2.140  14.020
12378TIP3   OH258548   2.968   4.340  12.316
12378TIP3    H158549   2.884   4.338  12.270
12378TIP3    H258550   3.003   4.427  12.299
12379TIP3   OH258551   4.647   4.440   3.523
12379TIP3    H158552   4.610   4.409   3.441
12379TIP3    H258553   4.694   4.520   3.501
12380TIP3   OH258554   3.593   6.234   0.230
12380TIP3    H158555   3.537   6.169   0.187
12380TIP3    H258556   3.677   6.228   0.185
12381TIP3   OH258557   0.404   0.672  11.983
12381TIP3    H158558   0.321   0.686  11.936
12381TIP3    H258559   0.432   0.760  12.008
12382TIP3   OH258560   3.114   5.559   6.029
12382TIP3    H158561   3.148   5.506   5.957
12382TIP3    H258562   3.127   5.504   6.106
12383TIP3   OH258563   2.818   5.593   3.267
12383TIP3    H158564   2.823   5.523   3.203
12383TIP3    H258565   2.909   5.605   3.296
12384TIP3   OH258566   5.825   4.755   2.941
12384TIP3    H158567   5.741   4.713   2.927
12384TIP3    H258568   5.829   4.772   3.035
12385TIP3   OH258569   0.363   5.506   0.489
12385TIP3    H158570   0.315   5.520   0.571
12385TIP3    H258571   0.411   5.425   0.503
12386TIP3   OH258572   3.460   2.910   0.259
12386TIP3    H158573   3.389   2.895   0.196
12386TIP3    H258574   3.451   3.001   0.285
12387TIP3   OH258575   6.200   1.142  16.825
12387TIP3    H158576   6.138   1.207  16.792
12387TIP3    H258577   6.277   1.194  16.849
12388TIP3   OH258578   6.725   0.544   1.989
12388TIP3    H158579   6.774   0.512   1.913
12388TIP3    H258580   6.776   0.618   2.021
12389TIP3   OH258581   3.037   2.020  17.141
12389TIP3    H158582   3.006   1.982  17.059
12389TIP3    H258583   3.095   2.091  17.115
12390TIP3   OH258584   4.545   0.876   1.588
12390TIP3    H158585   4.540   0.962   1.631
12390TIP3    H258586   4.631   0.876   1.545
12391TIP3   OH258587   1.177   2.494  16.280
12391TIP3    H158588   1.228   2.575  16.281
12391TIP3    H258589   1.091   2.520  16.245
12392TIP3   OH258590   0.914   4.348  14.547
12392TIP3    H158591   0.887   4.409  14.615
12392TIP3    H258592   0.834   4.302  14.523
12393TIP3   OH258593   3.763   0.364   0.827
12393TIP3    H158594   3.806   0.419   0.893
12393TIP3    H258595   3.794   0.276   0.846
12394TIP3   OH258596   1.980   5.977  14.336
12394TIP3    H158597   2.002   6.012  14.250
12394TIP3    H258598   2.058   5.931  14.365
12395TIP3   OH258599   4.422   5.914   2.151
12395TIP3    H158600   4.510   5.918   2.113
12395TIP3    H258601   4.435   5.869   2.235
12396TIP3   OH258602   2.522   0.128   5.498
12396TIP3    H158603   2.523   0.111   5.592
12396TIP3    H258604   2.582   0.202   5.487
12397TIP3   OH258605   6.663   3.427   6.545
12397TIP3    H158606   6.753   3.462   6.543
12397TIP3    H258607   6.608   3.502   6.526
12398TIP3   OH258608   2.582   5.810  17.119
12398TIP3    H158609   2.632   5.829  17.040
12398TIP3    H258610   2.637   5.750  17.169
12399TIP3   OH258611   3.556   1.405   4.934
12399TIP3    H158612   3.546   1.496   4.906
12399TIP3    H258613   3.650   1.391   4.939
12400TIP3   OH258614   3.637   6.014   1.528
12400TIP3    H158615   3.643   6.108   1.548
12400TIP3    H258616   3.554   5.987   1.568
12401TIP3   OH258617   3.981   2.190   5.016
12401TIP3    H158618   3.892   2.190   4.981
12401TIP3    H258619   4.036   2.206   4.939
12402TIP3   OH258620   5.754   0.667  13.419
12402TIP3    H158621   5.784   0.596  13.476
12402TIP3    H258622   5.804   0.744  13.448
12403TIP3   OH258623   0.660   2.510  13.677
12403TIP3    H158624   0.692   2.587  13.631
12403TIP3    H258625   0.619   2.545  13.757
12404TIP3   OH258626   6.293   0.191  15.830
12404TIP3    H158627   6.227   0.223  15.769
12404TIP3    H258628   6.271   0.099  15.843
12405TIP3   OH258629   0.294   0.007   0.092
12405TIP3    H158630   0.284   0.094   0.130
12405TIP3    H258631   0.322   0.023   0.002
12406TIP3   OH258632   4.578   6.624  12.459
12406TIP3    H158633   4.596   6.592  12.548
12406TIP3    H258634   4.564   6.718  12.470
12407TIP3   OH258635   5.361   6.104  13.327
12407TIP3    H158636   5.307   6.159  13.270
12407TIP3    H258637   5.439   6.084  13.275
12408TIP3   OH258638   5.919   1.595   4.276
12408TIP3    H158639   5.855   1.589   4.346
12408TIP3    H258640   5.984   1.528   4.297
12409TIP3   OH258641   1.407   4.589  15.984
12409TIP3    H158642   1.428   4.550  16.069
12409TIP3    H258643   1.315   4.568  15.970
12410TIP3   OH258644   5.259   4.777  13.308
12410TIP3    H158645   5.200   4.722  13.256
12410TIP3    H258646   5.233   4.867  13.286
12411TIP3   OH258647   5.094   4.484  12.839
12411TIP3    H158648   5.060   4.553  12.896
12411TIP3    H258649   5.032   4.479  12.766
12412TIP3   OH258650   4.208   3.732   5.104
12412TIP3    H158651   4.185   3.824   5.115
12412TIP3    H258652   4.259   3.729   5.023
12413TIP3   OH258653   1.808   3.170   2.311
12413TIP3    H158654   1.813   3.202   2.221
12413TIP3    H258655   1.819   3.249   2.364
12414TIP3   OH258656   0.880   0.106  11.233
12414TIP3    H158657   0.901   0.017  11.260
12414TIP3    H258658   0.820   0.138  11.300
12415TIP3   OH258659   2.397   4.623   3.660
12415TIP3    H158660   2.456   4.645   3.732
12415TIP3    H258661   2.443   4.651   3.581
12416TIP3   OH258662   2.416   1.587   3.833
12416TIP3    H158663   2.401   1.529   3.759
12416TIP3    H258664   2.400   1.675   3.799
12417TIP3   OH258665   2.860   6.408  14.199
12417TIP3    H158666   2.791   6.397  14.264
12417TIP3    H258667   2.933   6.355  14.233
12418TIP3   OH258668   4.430   1.150   3.889
12418TIP3    H158669   4.476   1.209   3.829
12418TIP3    H258670   4.354   1.120   3.840
12419TIP3   OH258671   0.842   0.043   2.006
12419TIP3    H158672   0.905  -0.027   2.022
12419TIP3    H258673   0.861   0.109   2.073
12420TIP3   OH258674   6.657   6.730   4.603
12420TIP3    H158675   6.619   6.690   4.680
12420TIP3    H258676   6.715   6.798   4.637
12421TIP3   OH258677   0.379   0.254   2.403
12421TIP3    H158678   0.429   0.196   2.346
12421TIP3    H258679   0.444   0.313   2.440
12422TIP3   OH258680   0.468   1.656  11.620
12422TIP3    H158681   0.515   1.740  11.624
12422TIP3    H258682   0.384   1.678  11.580
12423TIP3   OH258683   1.657   4.792   2.703
12423TIP3    H158684   1.602   4.788   2.781
12423TIP3    H258685   1.613   4.854   2.645
12424TIP3   OH258686   5.598   5.886   4.295
12424TIP3    H158687   5.505   5.872   4.315
12424TIP3    H258688   5.644   5.842   4.366
12425TIP3   OH258689   6.623   2.145  13.092
12425TIP3    H158690   6.599   2.070  13.037
12425TIP3    H258691   6.572   2.218  13.057
12426TIP3   OH258692   6.397   1.329   1.336
12426TIP3    H158693   6.406   1.403   1.276
12426TIP3    H258694   6.462   1.266   1.305
12427TIP3   OH258695   6.375   3.895   1.334
12427TIP3    H158696   6.365   3.854   1.248
12427TIP3    H258697   6.432   3.970   1.318
12428TIP3   OH258698   4.362   0.423   4.276
12428TIP3    H158699   4.388   0.365   4.204
12428TIP3    H258700   4.307   0.368   4.332
12429TIP3   OH258701   0.954   4.441   1.387
12429TIP3    H158702   0.999   4.357   1.375
12429TIP3    H258703   1.019   4.497   1.431
12430TIP3   OH258704   3.055   1.832   5.054
12430TIP3    H158705   3.044   1.803   4.963
12430TIP3    H258706   3.136   1.790   5.083
12431TIP3   OH258707   1.337   1.356   6.743
12431TIP3    H158708   1.257   1.400   6.714
12431TIP3    H258709   1.407   1.420   6.727
12432TIP3   OH258710   1.690   4.573  15.932
12432TIP3    H158711   1.768   4.599  15.981
12432TIP3    H258712   1.652   4.656  15.903
12433TIP3   OH258713   0.753   1.014   3.109
12433TIP3    H158714   0.827   1.009   3.170
12433TIP3    H258715   0.730   0.922   3.092
12434TIP3   OH258716   0.487   4.433  11.593
12434TIP3    H158717   0.413   4.388  11.551
12434TIP3    H258718   0.495   4.392  11.679
12435TIP3   OH258719   2.637   6.114   0.907
12435TIP3    H158720   2.635   6.020   0.888
12435TIP3    H258721   2.697   6.122   0.981
12436TIP3   OH258722   4.463   3.099   1.014
12436TIP3    H158723   4.408   3.094   1.093
12436TIP3    H258724   4.435   3.024   0.961
12437TIP3   OH258725   1.878   3.454   4.061
12437TIP3    H158726   1.902   3.382   4.003
12437TIP3    H258727   1.793   3.483   4.029
12438TIP3   OH258728   4.317   4.730   2.893
12438TIP3    H158729   4.254   4.733   2.965
12438TIP3    H258730   4.264   4.733   2.814
12439TIP3   OH258731   4.637   2.606  13.115
12439TIP3    H158732   4.564   2.567  13.067
12439TIP3    H258733   4.711   2.548  13.097
12440TIP3   OH258734   0.016   6.757  13.631
12440TIP3    H158735  -0.061   6.813  13.627
12440TIP3    H258736   0.076   6.803  13.690
12441TIP3   OH258737   6.689   5.807   5.320
12441TIP3    H158738   6.659   5.796   5.410
12441TIP3    H258739   6.754   5.877   5.326
12442TIP3   OH258740   4.860   2.897  11.540
12442TIP3    H158741   4.867   2.934  11.452
12442TIP3    H258742   4.822   2.810  11.527
12443TIP3   OH258743   2.636   0.064  15.111
12443TIP3    H158744   2.584   0.001  15.161
12443TIP3    H258745   2.719   0.069  15.158
12444TIP3   OH258746   0.779   5.882  16.873
12444TIP3    H158747   0.753   5.973  16.861
12444TIP3    H258748   0.866   5.887  16.913
12445TIP3   OH258749   0.592   3.143   1.681
12445TIP3    H158750   0.636   3.119   1.763
12445TIP3    H258751   0.598   3.239   1.679
12446TIP3   OH258752   1.712   2.044   0.648
12446TIP3    H158753   1.700   2.138   0.634
12446TIP3    H258754   1.785   2.038   0.710
12447TIP3   OH258755   3.597   0.227   2.614
12447TIP3    H158756   3.576   0.256   2.526
12447TIP3    H258757   3.692   0.234   2.620
12448TIP3   OH258758   6.411   2.028  12.705
12448TIP3    H158759   6.376   2.117  12.707
12448TIP3    H258760   6.449   2.019  12.618
12449TIP3   OH258761   3.315   5.981   2.498
12449TIP3    H158762   3.311   5.885   2.497
12449TIP3    H258763   3.285   6.007   2.411
12450TIP3   OH258764   0.895   3.318   0.943
12450TIP3    H158765   0.890   3.258   0.869
12450TIP3    H258766   0.818   3.374   0.934
12451TIP3   OH258767   3.168   3.058   2.954
12451TIP3    H158768   3.083   3.090   2.984
12451TIP3    H258769   3.147   2.998   2.883
12452TIP3   OH258770   2.069   3.017   5.359
12452TIP3    H158771   2.165   3.013   5.355
12452TIP3    H258772   2.045   2.947   5.420
12453TIP3   OH258773   5.147   0.172   5.297
12453TIP3    H158774   5.069   0.119   5.280
12453TIP3    H258775   5.218   0.108   5.307
12454TIP3   OH258776   6.561   0.872  14.618
12454TIP3    H158777   6.513   0.932  14.562
12454TIP3    H258778   6.625   0.927  14.663
12455TIP3   OH258779   1.327   0.544   0.466
12455TIP3    H158780   1.373   0.624   0.439
12455TIP3    H258781   1.306   0.499   0.384
12456TIP3   OH258782   3.918   4.836   0.552
12456TIP3    H158783   3.945   4.886   0.474
12456TIP3    H258784   3.968   4.754   0.547
12457TIP3   OH258785   1.010   3.514  15.944
12457TIP3    H158786   1.047   3.525  16.032
12457TIP3    H258787   1.001   3.420  15.933
12458TIP3   OH258788   6.447   5.844  13.989
12458TIP3    H158789   6.500   5.837  14.069
12458TIP3    H258790   6.404   5.928  13.996
12459TIP3   OH258791   2.509   2.535  12.247
12459TIP3    H158792   2.456   2.459  12.270
12459TIP3    H258793   2.481   2.558  12.158
12460TIP3   OH258794   1.152   2.700   3.035
12460TIP3    H158795   1.196   2.783   3.053
12460TIP3    H258796   1.114   2.674   3.118
12461TIP3   OH258797   4.325   6.235  17.040
12461TIP3    H158798   4.309   6.328  17.026
12461TIP3    H258799   4.420   6.228  17.050
12462TIP3   OH258800   1.554   1.837   2.534
12462TIP3    H158801   1.536   1.921   2.577
12462TIP3    H258802   1.632   1.804   2.579
12463TIP3   OH258803   5.586   2.042  14.055
12463TIP3    H158804   5.660   2.080  14.103
12463TIP3    H258805   5.509   2.085  14.093
12464TIP3   OH258806   5.370   4.041   2.902
12464TIP3    H158807   5.437   4.006   2.843
12464TIP3    H258808   5.418   4.062   2.982
12465TIP3   OH258809   1.392   1.820  12.429
12465TIP3    H158810   1.440   1.893  12.467
12465TIP3    H258811   1.376   1.761  12.502
12466TIP3   OH258812   5.096   5.160  12.500
12466TIP3    H158813   5.074   5.139  12.591
12466TIP3    H258814   5.191   5.168  12.499
12467TIP3   OH258815   5.484   5.066  11.594
12467TIP3    H158816   5.428   5.046  11.669
12467TIP3    H258817   5.572   5.042  11.623
12468TIP3   OH258818   6.151   3.203  16.996
12468TIP3    H158819   6.116   3.128  16.947
12468TIP3    H258820   6.084   3.222  17.061
12469TIP3   OH258821   2.789   3.037  12.770
12469TIP3    H158822   2.840   2.957  12.783
12469TIP3    H258823   2.701   3.005  12.747
12470TIP3   OH258824   5.188   1.966   4.548
12470TIP3    H158825   5.200   2.053   4.512
12470TIP3    H258826   5.094   1.950   4.541
12471TIP3   OH258827   4.638   1.749   0.986
12471TIP3    H158828   4.574   1.679   0.972
12471TIP3    H258829   4.722   1.704   0.992
12472TIP3   OH258830   3.806   6.488  16.518
12472TIP3    H158831   3.887   6.533  16.494
12472TIP3    H258832   3.737   6.551  16.500
12473TIP3   OH258833   4.925   1.490  15.976
12473TIP3    H158834   5.007   1.458  16.013
12473TIP3    H258835   4.858   1.436  16.019
12474TIP3   OH258836   5.760   4.986  10.831
12474TIP3    H158837   5.763   5.074  10.868
12474TIP3    H258838   5.775   4.928  10.905
12475TIP3   OH258839   5.633   3.931  16.787
12475TIP3    H158840   5.603   4.022  16.780
12475TIP3    H258841   5.625   3.896  16.699
12476TIP3   OH258842   5.145   5.840   2.051
12476TIP3    H158843   5.096   5.910   2.094
12476TIP3    H258844   5.130   5.763   2.107
12477TIP3   OH258845   0.794   4.914  14.103
12477TIP3    H158846   0.872   4.929  14.156
12477TIP3    H258847   0.784   4.819  14.100
12478TIP3   OH258848   2.307   6.136   4.993
12478TIP3    H158849   2.304   6.148   4.898
12478TIP3    H258850   2.364   6.061   5.006
12479TIP3   OH258851   5.385   2.500   3.860
12479TIP3    H158852   5.394   2.494   3.765
12479TIP3    H258853   5.413   2.415   3.893
12480TIP3   OH258854   4.919   2.230  15.419
12480TIP3    H158855   5.013   2.228  15.438
12480TIP3    H258856   4.884   2.154  15.465
12481TIP3   OH258857   2.562   0.202   0.500
12481TIP3    H158858   2.494   0.188   0.565
12481TIP3    H258859   2.638   0.154   0.533
12482TIP3   OH258860   1.959   0.304  13.047
12482TIP3    H158861   1.975   0.277  12.956
12482TIP3    H258862   1.949   0.221  13.095
12483TIP3   OH258863   1.575   1.690  13.976
12483TIP3    H158864   1.519   1.685  14.054
12483TIP3    H258865   1.515   1.672  13.904
12484TIP3   OH258866   2.936   3.922   3.644
12484TIP3    H158867   2.870   3.948   3.708
12484TIP3    H258868   2.933   3.826   3.644
12485TIP3   OH258869   2.381   4.210   0.306
12485TIP3    H158870   2.403   4.175   0.220
12485TIP3    H258871   2.412   4.144   0.368
12486TIP3   OH258872   1.139   2.336  10.722
12486TIP3    H158873   1.145   2.431  10.719
12486TIP3    H258874   1.207   2.305  10.663
12487TIP3   OH258875   1.968   1.490  11.061
12487TIP3    H158876   1.924   1.479  11.146
12487TIP3    H258877   2.029   1.416  11.057
12488TIP3   OH258878   2.389   1.245   2.388
12488TIP3    H158879   2.324   1.175   2.384
12488TIP3    H258880   2.444   1.231   2.311
12489TIP3   OH258881   5.910   1.109   5.082
12489TIP3    H158882   5.874   1.135   4.998
12489TIP3    H258883   5.887   1.180   5.142
12490TIP3   OH258884   2.162   6.398  12.569
12490TIP3    H158885   2.145   6.406  12.663
12490TIP3    H258886   2.189   6.307  12.558
12491TIP3   OH258887   5.746   1.842   2.097
12491TIP3    H158888   5.699   1.919   2.067
12491TIP3    H258889   5.736   1.844   2.193
12492TIP3   OH258890   3.478   4.600   2.146
12492TIP3    H158891   3.491   4.520   2.094
12492TIP3    H258892   3.461   4.668   2.081
12493TIP3   OH258893   4.822   5.065  11.366
12493TIP3    H158894   4.732   5.039  11.346
12493TIP3    H258895   4.849   5.119  11.292
12494TIP3   OH258896   0.707   5.037   2.180
12494TIP3    H158897   0.752   5.038   2.095
12494TIP3    H258898   0.646   5.111   2.176
12495TIP3   OH258899   3.484   2.168   3.362
12495TIP3    H158900   3.426   2.244   3.362
12495TIP3    H258901   3.465   2.124   3.279
12496TIP3   OH258902   1.782   5.602   3.774
12496TIP3    H158903   1.873   5.624   3.792
12496TIP3    H258904   1.740   5.600   3.860
12497TIP3   OH258905   0.810   2.617  15.762
12497TIP3    H158906   0.767   2.672  15.697
12497TIP3    H258907   0.742   2.555  15.789
12498TIP3   OH258908   0.122   5.649   5.895
12498TIP3    H158909   0.206   5.608   5.916
12498TIP3    H258910   0.096   5.609   5.812
12499TIP3   OH258911   4.659   5.487   3.879
12499TIP3    H158912   4.660   5.583   3.876
12499TIP3    H258913   4.621   5.466   3.964
12500TIP3   OH258914   0.552   3.008  11.943
12500TIP3    H158915   0.521   2.945  11.877
12500TIP3    H258916   0.545   2.961  12.026
12501TIP3   OH258917   3.295   3.716   0.960
12501TIP3    H158918   3.223   3.659   0.931
12501TIP3    H258919   3.261   3.805   0.948
12502TIP3   OH258920   3.372   2.524   1.324
12502TIP3    H158921   3.304   2.505   1.389
12502TIP3    H258922   3.330   2.504   1.240
12503TIP3   OH258923   1.252   3.597  12.649
12503TIP3    H158924   1.243   3.588  12.744
12503TIP3    H258925   1.318   3.665  12.637
12504TIP3   OH258926   0.125   4.538  12.595
12504TIP3    H158927   0.138   4.632  12.581
12504TIP3    H258928   0.178   4.496  12.527
12505TIP3   OH258929   1.104   1.461   0.205
12505TIP3    H158930   1.197   1.439   0.205
12505TIP3    H258931   1.097   1.536   0.147
12506TIP3   OH258932   5.498   0.394   5.500
12506TIP3    H158933   5.488   0.372   5.592
12506TIP3    H258934   5.524   0.313   5.458
12507TIP3   OH258935   0.696   1.837   1.927
12507TIP3    H158936   0.679   1.882   1.845
12507TIP3    H258937   0.611   1.801   1.953
12508TIP3   OH258938   1.272   5.744  14.833
12508TIP3    H158939   1.291   5.741  14.927
12508TIP3    H258940   1.177   5.753  14.828
12509TIP3   OH258941   1.719   6.516   2.472
12509TIP3    H158942   1.672   6.596   2.449
12509TIP3    H258943   1.686   6.451   2.411
12510TIP3   OH258944   2.480   4.583  14.952
12510TIP3    H158945   2.461   4.676  14.939
12510TIP3    H258946   2.427   4.538  14.885
12511TIP3   OH258947   4.750   5.671   5.202
12511TIP3    H158948   4.768   5.765   5.209
12511TIP3    H258949   4.785   5.646   5.117
12512TIP3   OH258950   0.931   3.104   0.293
12512TIP3    H158951   0.931   3.008   0.297
12512TIP3    H258952   0.879   3.125   0.215
12513TIP3   OH258953   2.822   1.778  14.853
12513TIP3    H158954   2.734   1.742  14.858
12513TIP3    H258955   2.870   1.733  14.923
12514TIP3   OH258956   1.861   1.813   0.252
12514TIP3    H158957   1.900   1.741   0.204
12514TIP3    H258958   1.843   1.777   0.339
12515TIP3   OH258959   4.644   6.108   1.360
12515TIP3    H158960   4.706   6.037   1.342
12515TIP3    H258961   4.697   6.187   1.360
12516TIP3   OH258962   1.942   0.770   2.772
12516TIP3    H158963   2.030   0.777   2.810
12516TIP3    H258964   1.957   0.739   2.683
12517TIP3   OH258965   0.643   5.732  15.178
12517TIP3    H158966   0.703   5.671  15.136
12517TIP3    H258967   0.556   5.696  15.160
12518TIP3   OH258968   5.736   5.518   0.084
12518TIP3    H158969   5.778   5.496   0.001
12518TIP3    H258970   5.800   5.573   0.129
12519TIP3   OH258971   3.620   0.555  16.852
12519TIP3    H158972   3.584   0.637  16.887
12519TIP3    H258973   3.595   0.556  16.760
12520TIP3   OH258974   0.080   1.535  11.888
12520TIP3    H158975   0.059   1.509  11.978
12520TIP3    H258976  -0.005   1.539  11.844
12521TIP3   OH258977   3.251   5.790   5.935
12521TIP3    H158978   3.163   5.755   5.927
12521TIP3    H258979   3.307   5.713   5.941
12522TIP3   OH258980   0.341   1.227   0.157
12522TIP3    H158981   0.292   1.293   0.108
12522TIP3    H258982   0.432   1.256   0.152
12523TIP3   OH258983   1.640   2.184  13.519
12523TIP3    H158984   1.646   2.274  13.488
12523TIP3    H258985   1.604   2.135  13.444
12524TIP3   OH258986   4.049   3.795   5.500
12524TIP3    H158987   4.022   3.751   5.420
12524TIP3    H258988   4.138   3.764   5.517
12525TIP3   OH258989   3.367   4.032  14.106
12525TIP3    H158990   3.344   4.125  14.101
12525TIP3    H258991   3.425   4.026  14.183
12526TIP3   OH258992   2.869   2.189  15.659
12526TIP3    H158993   2.869   2.112  15.602
12526TIP3    H258994   2.917   2.255  15.609
12527TIP3   OH258995   2.877   3.047   3.772
12527TIP3    H158996   2.938   2.974   3.775
12527TIP3    H258997   2.889   3.085   3.685
12528TIP3   OH258998   2.459   6.434  14.732
12528TIP3    H158999   2.406   6.474  14.802
12528TIP3    H259000   2.398   6.376  14.687
12529TIP3   OH259001   5.824   6.079  13.407
12529TIP3    H159002   5.912   6.069  13.370
12529TIP3    H259003   5.813   6.003  13.464
12530TIP3   OH259004   5.609   5.069   2.235
12530TIP3    H159005   5.671   5.140   2.255
12530TIP3    H259006   5.627   5.002   2.301
12531TIP3   OH259007   1.038   3.419   0.345
12531TIP3    H159008   0.977   3.490   0.327
12531TIP3    H259009   1.118   3.462   0.376
12532TIP3   OH259010   2.465   0.560  12.914
12532TIP3    H159011   2.538   0.558  12.852
12532TIP3    H259012   2.444   0.653  12.923
12533TIP3   OH259013   4.796   1.292  12.871
12533TIP3    H159014   4.835   1.213  12.907
12533TIP3    H259015   4.855   1.363  12.898
12534TIP3   OH259016   5.162   4.814   1.608
12534TIP3    H159017   5.132   4.881   1.670
12534TIP3    H259018   5.095   4.811   1.541
12535TIP3   OH259019   0.268   1.465  11.657
12535TIP3    H159020   0.238   1.454  11.747
12535TIP3    H259021   0.359   1.493  11.665
12536TIP3   OH259022   1.068   3.704   5.292
12536TIP3    H159023   1.054   3.769   5.360
12536TIP3    H259024   1.163   3.697   5.285
12537TIP3   OH259025   1.787   1.737  15.740
12537TIP3    H159026   1.876   1.772  15.749
12537TIP3    H259027   1.737   1.780  15.809
12538TIP3   OH259028   0.920   5.636   4.693
12538TIP3    H159029   1.003   5.638   4.739
12538TIP3    H259030   0.876   5.557   4.724
12539TIP3   OH259031   3.933   3.745  15.847
12539TIP3    H159032   3.845   3.753  15.885
12539TIP3    H259033   3.918   3.726  15.755
12540TIP3   OH259034   6.628   6.254   1.094
12540TIP3    H159035   6.631   6.197   1.170
12540TIP3    H259036   6.584   6.202   1.027
12541TIP3   OH259037   2.427   2.855   1.897
12541TIP3    H159038   2.509   2.884   1.938
12541TIP3    H259039   2.416   2.913   1.822
12542TIP3   OH259040   2.310   3.722  14.534
12542TIP3    H159041   2.344   3.639  14.567
12542TIP3    H259042   2.354   3.734  14.450
12543TIP3   OH259043   4.907   3.223   4.522
12543TIP3    H159044   4.889   3.138   4.482
12543TIP3    H259045   4.915   3.283   4.448
12544TIP3   OH259046   5.395   4.748  15.771
12544TIP3    H159047   5.411   4.654  15.761
12544TIP3    H259048   5.389   4.761  15.866
12545TIP3   OH259049   4.426   4.454  16.835
12545TIP3    H159050   4.515   4.464  16.868
12545TIP3    H259051   4.383   4.538  16.853
12546TIP3   OH259052   5.620   2.007   0.092
12546TIP3    H159053   5.644   1.974   0.005
12546TIP3    H259054   5.548   1.951   0.120
12547TIP3   OH259055   1.160   0.079  11.186
12547TIP3    H159056   1.230   0.113  11.242
12547TIP3    H259057   1.084   0.135  11.205
12548TIP3   OH259058   5.315   0.669  11.732
12548TIP3    H159059   5.229   0.711  11.729
12548TIP3    H259060   5.350   0.677  11.643
12549TIP3   OH259061   6.164   0.886  13.431
12549TIP3    H159062   6.247   0.934  13.433
12549TIP3    H259063   6.185   0.800  13.467
12550TIP3   OH259064   4.083   1.194  13.297
12550TIP3    H159065   4.163   1.148  13.322
12550TIP3    H259066   4.026   1.187  13.374
12551TIP3   OH259067   2.765   3.570   0.876
12551TIP3    H159068   2.693   3.510   0.891
12551TIP3    H259069   2.726   3.645   0.832
12552TIP3   OH259070   6.676   2.922   4.969
12552TIP3    H159071   6.642   2.894   5.054
12552TIP3    H259072   6.709   2.841   4.929
12553TIP3   OH259073   3.541   6.203   2.676
12553TIP3    H159074   3.532   6.240   2.588
12553TIP3    H259075   3.453   6.171   2.697
12554TIP3   OH259076   0.427   0.621   6.112
12554TIP3    H159077   0.444   0.543   6.058
12554TIP3    H259078   0.507   0.673   6.105
12555TIP3   OH259079   3.972   4.048   5.498
12555TIP3    H159080   3.993   3.955   5.493
12555TIP3    H259081   3.901   4.054   5.562
12556TIP3   OH259082   2.580   0.474  13.212
12556TIP3    H159083   2.591   0.566  13.236
12556TIP3    H259084   2.514   0.474  13.144
12557TIP3   OH259085   1.880   4.068  16.561
12557TIP3    H159086   1.938   4.144  16.554
12557TIP3    H259087   1.917   4.005  16.499
12558TIP3   OH259088   0.071   5.917  13.570
12558TIP3    H159089  -0.008   5.886  13.613
12558TIP3    H259090   0.139   5.912  13.637
12559TIP3   OH259091   2.858   2.165  16.459
12559TIP3    H159092   2.798   2.093  16.442
12559TIP3    H259093   2.943   2.122  16.473
12560TIP3   OH259094   4.535   2.845  17.125
12560TIP3    H159095   4.555   2.927  17.080
12560TIP3    H259096   4.610   2.788  17.107
12561TIP3   OH259097   0.135   3.460   6.574
12561TIP3    H159098   0.225   3.449   6.544
12561TIP3    H259099   0.132   3.415   6.658
12562TIP3   OH259100   1.796   6.090   0.220
12562TIP3    H159101   1.809   6.154   0.150
12562TIP3    H259102   1.793   6.143   0.300
12563TIP3   OH259103   6.441   1.299  12.496
12563TIP3    H159104   6.454   1.205  12.507
12563TIP3    H259105   6.358   1.306  12.448
12564TIP3   OH259106   6.699   3.365   0.914
12564TIP3    H159107   6.663   3.385   0.828
12564TIP3    H259108   6.639   3.299   0.950
12565TIP3   OH259109   6.321   0.931  12.260
12565TIP3    H159110   6.226   0.926  12.273
12565TIP3    H259111   6.332   0.943  12.166
12566TIP3   OH259112   6.126   4.434  14.446
12566TIP3    H159113   6.129   4.371  14.374
12566TIP3    H259114   6.036   4.430  14.478
12567TIP3   OH259115   6.726   5.203  17.200
12567TIP3    H159116   6.807   5.168  17.162
12567TIP3    H259117   6.657   5.175  17.139
12568TIP3   OH259118   6.139   2.242   2.102
12568TIP3    H159119   6.136   2.250   2.198
12568TIP3    H259120   6.216   2.293   2.077
12569TIP3   OH259121   2.787   2.185   1.019
12569TIP3    H159122   2.767   2.211   1.109
12569TIP3    H259123   2.882   2.183   1.016
12570TIP3   OH259124   5.101   4.640  11.856
12570TIP3    H159125   5.122   4.689  11.776
12570TIP3    H259126   5.129   4.550  11.837
12571TIP3   OH259127   1.427   2.365   3.928
12571TIP3    H159128   1.359   2.303   3.957
12571TIP3    H259129   1.509   2.317   3.940
12572TIP3   OH259130   4.572   2.706   2.785
12572TIP3    H159131   4.567   2.611   2.777
12572TIP3    H259132   4.481   2.735   2.785
12573TIP3   OH259133   1.034   5.228  17.022
12573TIP3    H159134   0.983   5.249  17.101
12573TIP3    H259135   1.088   5.154  17.048
12574TIP3   OH259136   2.350   0.565   0.203
12574TIP3    H159137   2.404   0.495   0.239
12574TIP3    H259138   2.413   0.629   0.169
12575TIP3   OH259139   0.469   2.499  15.125
12575TIP3    H159140   0.420   2.423  15.155
12575TIP3    H259141   0.413   2.540  15.059
12576TIP3   OH259142   6.058   3.011   5.805
12576TIP3    H159143   5.982   3.029   5.860
12576TIP3    H259144   6.066   3.087   5.748
12577TIP3   OH259145   0.746   5.849  13.431
12577TIP3    H159146   0.831   5.805  13.424
12577TIP3    H259147   0.682   5.779  13.419
12578TIP3   OH259148   6.502   2.426  11.831
12578TIP3    H159149   6.518   2.426  11.925
12578TIP3    H259150   6.443   2.352  11.816
12579TIP3   OH259151   5.724   3.318  12.669
12579TIP3    H159152   5.813   3.290  12.689
12579TIP3    H259153   5.669   3.265  12.726
12580TIP3   OH259154   0.114   0.130   5.245
12580TIP3    H159155   0.131   0.056   5.188
12580TIP3    H259156   0.169   0.201   5.211
12581TIP3   OH259157   2.350   6.473   2.231
12581TIP3    H159158   2.372   6.557   2.269
12581TIP3    H259159   2.284   6.436   2.289
12582TIP3   OH259160   2.070   5.728   6.050
12582TIP3    H159161   2.010   5.661   6.018
12582TIP3    H259162   2.051   5.735   6.143
12583TIP3   OH259163   6.532   6.424  12.267
12583TIP3    H159164   6.445   6.416  12.306
12583TIP3    H259165   6.574   6.340  12.283
12584TIP3   OH259166   2.341   4.248   1.545
12584TIP3    H159167   2.339   4.311   1.473
12584TIP3    H259168   2.280   4.284   1.610
12585TIP3   OH259169   5.596   5.250  12.943
12585TIP3    H159170   5.611   5.309  13.017
12585TIP3    H259171   5.632   5.297  12.868
12586TIP3   OH259172   5.026   5.152  13.992
12586TIP3    H159173   5.064   5.239  13.980
12586TIP3    H259174   4.961   5.164  14.061
12587TIP3   OH259175   1.369   4.035  15.334
12587TIP3    H159176   1.383   4.128  15.348
12587TIP3    H259177   1.278   4.019  15.362
12588TIP3   OH259178   4.041   4.306   3.453
12588TIP3    H159179   4.004   4.355   3.380
12588TIP3    H259180   3.985   4.229   3.461
12589TIP3   OH259181   2.723   5.282  12.907
12589TIP3    H159182   2.721   5.196  12.948
12589TIP3    H259183   2.655   5.332  12.952
12590TIP3   OH259184   4.885   0.565   0.087
12590TIP3    H159185   4.978   0.587   0.095
12590TIP3    H259186   4.845   0.604   0.164
12591TIP3   OH259187   3.325   0.753  15.562
12591TIP3    H159188   3.307   0.668  15.522
12591TIP3    H259189   3.362   0.806  15.491
12592TIP3   OH259190   0.234   0.813  16.784
12592TIP3    H159191   0.248   0.762  16.864
12592TIP3    H259192   0.318   0.856  16.769
12593TIP3   OH259193   4.390   1.127   1.917
12593TIP3    H159194   4.327   1.193   1.946
12593TIP3    H259195   4.458   1.178   1.872
12594TIP3   OH259196   2.725   1.302   0.782
12594TIP3    H159197   2.667   1.305   0.858
12594TIP3    H259198   2.742   1.393   0.760
12595TIP3   OH259199   2.962   1.142   4.515
12595TIP3    H159200   2.896   1.140   4.446
12595TIP3    H259201   3.006   1.057   4.509
12596TIP3   OH259202   2.346   2.118  15.067
12596TIP3    H159203   2.434   2.106  15.103
12596TIP3    H259204   2.361   2.155  14.980
12597TIP3   OH259205   3.038   5.813   1.811
12597TIP3    H159206   2.946   5.825   1.832
12597TIP3    H259207   3.065   5.895   1.769
12598TIP3   OH259208   4.276   0.268  10.513
12598TIP3    H159209   4.367   0.297  10.521
12598TIP3    H259210   4.281   0.173  10.507
12599TIP3   OH259211   6.705   6.522  13.560
12599TIP3    H159212   6.616   6.514  13.593
12599TIP3    H259213   6.729   6.612  13.579
12600TIP3   OH259214   3.627   2.866   4.838
12600TIP3    H159215   3.713   2.867   4.882
12600TIP3    H259216   3.617   2.955   4.803
12601TIP3   OH259217   5.730   4.556   3.323
12601TIP3    H159218   5.683   4.473   3.333
12601TIP3    H259219   5.726   4.597   3.410
12602TIP3   OH259220   4.374   2.339  12.729
12602TIP3    H159221   4.335   2.343  12.641
12602TIP3    H259222   4.341   2.258  12.766
12603TIP3   OH259223   6.282   2.580   4.608
12603TIP3    H159224   6.209   2.558   4.551
12603TIP3    H259225   6.268   2.672   4.631
12604TIP3   OH259226   3.515   6.650   5.020
12604TIP3    H159227   3.602   6.653   5.058
12604TIP3    H259228   3.513   6.723   4.958
12605TIP3   OH259229   4.830   5.197   1.624
12605TIP3    H159230   4.784   5.185   1.541
12605TIP3    H259231   4.841   5.291   1.632
12606TIP3   OH259232   0.757   1.035  14.660
12606TIP3    H159233   0.723   1.040  14.571
12606TIP3    H259234   0.813   1.112  14.669
12607TIP3   OH259235   0.479   2.147   4.080
12607TIP3    H159236   0.537   2.083   4.122
12607TIP3    H259237   0.394   2.132   4.123
12608TIP3   OH259238   1.263   0.381   4.284
12608TIP3    H159239   1.178   0.359   4.244
12608TIP3    H259240   1.309   0.429   4.216
12609TIP3   OH259241   4.114   0.359   3.264
12609TIP3    H159242   4.063   0.356   3.183
12609TIP3    H259243   4.144   0.269   3.276
12610TIP3   OH259244   4.416   5.397  12.350
12610TIP3    H159245   4.471   5.416  12.426
12610TIP3    H259246   4.372   5.479  12.331
12611TIP3   OH259247   3.638   0.128   3.650
12611TIP3    H159248   3.726   0.141   3.686
12611TIP3    H259249   3.606   0.049   3.691
12612TIP3   OH259250   2.340   2.132  11.514
12612TIP3    H159251   2.396   2.164  11.585
12612TIP3    H259252   2.392   2.063  11.472
12613TIP3   OH259253   5.298   4.555   3.294
12613TIP3    H159254   5.320   4.647   3.279
12613TIP3    H259255   5.353   4.530   3.368
12614TIP3   OH259256   1.156   0.244   0.409
12614TIP3    H159257   1.093   0.180   0.376
12614TIP3    H259258   1.232   0.192   0.435
12615TIP3   OH259259   3.039   0.173  15.727
12615TIP3    H159260   3.095   0.106  15.689
12615TIP3    H259261   3.096   0.223  15.785
12616TIP3   OH259262   5.221   4.245  12.910
12616TIP3    H159263   5.169   4.325  12.903
12616TIP3    H259264   5.284   4.251  12.838
12617TIP3   OH259265   1.135   0.066   1.841
12617TIP3    H159266   1.128   0.061   1.936
12617TIP3    H259267   1.072   0.001   1.809
12618TIP3   OH259268   4.766   4.293   1.978
12618TIP3    H159269   4.793   4.202   1.989
12618TIP3    H259270   4.671   4.292   1.988
12619TIP3   OH259271   2.461   1.362  11.401
12619TIP3    H159272   2.371   1.380  11.430
12619TIP3    H259273   2.452   1.296  11.332
12620TIP3   OH259274   2.989   4.208  16.168
12620TIP3    H159275   2.985   4.303  16.182
12620TIP3    H259276   2.979   4.198  16.073
12621TIP3   OH259277   1.953   4.919   3.501
12621TIP3    H159278   1.957   4.917   3.405
12621TIP3    H259279   2.034   4.877   3.529
12622TIP3   OH259280   3.460   4.391   1.972
12622TIP3    H159281   3.507   4.351   1.898
12622TIP3    H259282   3.383   4.336   1.983
12623TIP3   OH259283   1.988   5.432   0.921
12623TIP3    H159284   1.923   5.455   0.854
12623TIP3    H259285   1.951   5.465   1.003
12624TIP3   OH259286   0.742   2.919   5.141
12624TIP3    H159287   0.671   2.950   5.085
12624TIP3    H259288   0.703   2.911   5.228
12625TIP3   OH259289   4.386   5.653  16.709
12625TIP3    H159290   4.395   5.664  16.804
12625TIP3    H259291   4.308   5.704  16.686
12626TIP3   OH259292   0.804   0.469   5.342
12626TIP3    H159293   0.735   0.413   5.379
12626TIP3    H259294   0.795   0.552   5.389
12627TIP3   OH259295   4.630   5.525  15.225
12627TIP3    H159296   4.725   5.524  15.235
12627TIP3    H259297   4.598   5.573  15.302
12628TIP3   OH259298   3.218   6.549   1.702
12628TIP3    H159299   3.168   6.537   1.782
12628TIP3    H259300   3.152   6.563   1.634
12629TIP3   OH259301   6.738   6.636  12.882
12629TIP3    H159302   6.708   6.651  12.793
12629TIP3    H259303   6.834   6.632  12.875
12630TIP3   OH259304   4.513   3.972  13.630
12630TIP3    H159305   4.566   4.027  13.687
12630TIP3    H259306   4.426   4.012  13.631
12631TIP3   OH259307   3.536   2.175   2.279
12631TIP3    H159308   3.530   2.173   2.374
12631TIP3    H259309   3.598   2.105   2.257
12632TIP3   OH259310   0.867   0.684   2.021
12632TIP3    H159311   0.810   0.696   1.944
12632TIP3    H259312   0.855   0.764   2.072
12633TIP3   OH259313   3.095   6.785   2.372
12633TIP3    H159314   3.115   6.691   2.370
12633TIP3    H259315   3.179   6.827   2.354
12634TIP3   OH259316   0.410   5.908  12.917
12634TIP3    H159317   0.458   5.890  12.836
12634TIP3    H259318   0.477   5.936  12.979
12635TIP3   OH259319   3.656   4.703  13.489
12635TIP3    H159320   3.676   4.730  13.399
12635TIP3    H259321   3.563   4.681  13.488
12636TIP3   OH259322   5.644   2.569  16.448
12636TIP3    H159323   5.635   2.514  16.369
12636TIP3    H259324   5.554   2.597  16.467
12637TIP3   OH259325   1.262   3.660   6.246
12637TIP3    H159326   1.289   3.576   6.284
12637TIP3    H259327   1.188   3.688   6.300
12638TIP3   OH259328   3.134   5.812  16.156
12638TIP3    H159329   3.100   5.724  16.170
12638TIP3    H259330   3.188   5.804  16.077
12639TIP3   OH259331   0.229   0.024   1.775
12639TIP3    H159332   0.289  -0.002   1.845
12639TIP3    H259333   0.277   0.088   1.724
12640TIP3   OH259334   4.350   1.892   3.282
12640TIP3    H159335   4.382   1.960   3.341
12640TIP3    H259336   4.426   1.835   3.269
12641TIP3   OH259337   5.126   2.864  17.145
12641TIP3    H159338   5.127   2.827  17.056
12641TIP3    H259339   5.042   2.837  17.181
12642TIP3   OH259340   1.814   6.394  15.081
12642TIP3    H159341   1.752   6.332  15.043
12642TIP3    H259342   1.818   6.371  15.174
12643TIP3   OH259343   1.107   4.724  13.291
12643TIP3    H159344   1.177   4.774  13.332
12643TIP3    H259345   1.040   4.717  13.359
12644TIP3   OH259346   5.553   1.023   2.645
12644TIP3    H159347   5.553   0.989   2.555
12644TIP3    H259348   5.615   0.966   2.692
12645TIP3   OH259349   0.104   4.805   3.350
12645TIP3    H159350   0.090   4.723   3.303
12645TIP3    H259351   0.131   4.867   3.282
12646TIP3   OH259352   4.970   3.800  13.396
12646TIP3    H159353   4.982   3.778  13.488
12646TIP3    H259354   4.877   3.821  13.388
12647TIP3   OH259355   5.938   3.958  12.226
12647TIP3    H159356   5.968   3.869  12.246
12647TIP3    H259357   6.014   4.001  12.186
12648TIP3   OH259358   0.454   0.104  11.711
12648TIP3    H159359   0.468   0.186  11.757
12648TIP3    H259360   0.376   0.066  11.752
12649TIP3   OH259361   4.097   4.189   5.948
12649TIP3    H159362   4.015   4.169   5.903
12649TIP3    H259363   4.107   4.119   6.012
12650TIP3   OH259364   2.651   5.765   2.182
12650TIP3    H159365   2.665   5.856   2.157
12650TIP3    H259366   2.721   5.717   2.139
12651TIP3   OH259367   6.468   5.480  16.411
12651TIP3    H159368   6.380   5.507  16.441
12651TIP3    H259369   6.452   5.401  16.358
12652TIP3   OH259370   3.230   6.305   0.587
12652TIP3    H159371   3.266   6.223   0.555
12652TIP3    H259372   3.282   6.373   0.543
12653TIP3   OH259373   1.681   5.159  12.187
12653TIP3    H159374   1.603   5.120  12.226
12653TIP3    H259375   1.719   5.089  12.134
12654TIP3   OH259376   5.016   0.820  11.736
12654TIP3    H159377   4.990   0.730  11.718
12654TIP3    H259378   4.955   0.850  11.803
12655TIP3   OH259379   1.581   3.269   4.299
12655TIP3    H159380   1.670   3.302   4.289
12655TIP3    H259381   1.541   3.281   4.212
12656TIP3   OH259382   3.707   2.426  16.320
12656TIP3    H159383   3.802   2.434  16.332
12656TIP3    H259384   3.681   2.359  16.384
12657TIP3   OH259385   3.678   2.574   1.112
12657TIP3    H159386   3.743   2.552   1.178
12657TIP3    H259387   3.680   2.670   1.107
12658TIP3   OH259388   6.209   0.494   0.371
12658TIP3    H159389   6.140   0.436   0.342
12658TIP3    H259390   6.213   0.482   0.466
12659TIP3   OH259391   6.140   6.193  13.394
12659TIP3    H159392   6.066   6.220  13.448
12659TIP3    H259393   6.169   6.111  13.433
12660TIP3   OH259394   4.400   5.587  15.068
12660TIP3    H159395   4.329   5.631  15.115
12660TIP3    H259396   4.471   5.581  15.132
12661TIP3   OH259397   4.151   6.175  16.190
12661TIP3    H159398   4.086   6.124  16.239
12661TIP3    H259399   4.227   6.118  16.184
12662TIP3   OH259400   6.174   3.835  12.518
12662TIP3    H159401   6.241   3.852  12.584
12662TIP3    H259402   6.109   3.903  12.532
12663TIP3   OH259403   3.001   1.617  11.596
12663TIP3    H159404   3.018   1.554  11.667
12663TIP3    H259405   3.073   1.602  11.535
12664TIP3   OH259406   4.521   2.208  16.835
12664TIP3    H159407   4.574   2.262  16.776
12664TIP3    H259408   4.585   2.151  16.878
12665TIP3   OH259409   5.852   5.309  13.293
12665TIP3    H159410   5.884   5.292  13.205
12665TIP3    H259411   5.918   5.267  13.350
12666TIP3   OH259412   6.346   1.940   1.120
12666TIP3    H159413   6.372   1.900   1.203
12666TIP3    H259414   6.356   1.870   1.055
12667TIP3   OH259415   4.256   6.292  11.100
12667TIP3    H159416   4.290   6.212  11.141
12667TIP3    H259417   4.229   6.265  11.013
12668TIP3   OH259418   0.145   1.460   5.685
12668TIP3    H159419   0.079   1.417   5.631
12668TIP3    H259420   0.222   1.404   5.678
12669TIP3   OH259421   5.105   2.597   1.429
12669TIP3    H159422   5.026   2.552   1.400
12669TIP3    H259423   5.173   2.571   1.367
12670TIP3   OH259424   2.646   1.660  11.637
12670TIP3    H159425   2.562   1.656  11.684
12670TIP3    H259426   2.622   1.650  11.545
12671TIP3   OH259427   4.396   6.097   4.716
12671TIP3    H159428   4.331   6.161   4.686
12671TIP3    H259429   4.449   6.080   4.638
12672TIP3   OH259430   3.365   5.574   4.864
12672TIP3    H159431   3.377   5.482   4.886
12672TIP3    H259432   3.346   5.574   4.770
12673TIP3   OH259433   4.610   4.291   5.194
12673TIP3    H159434   4.677   4.358   5.184
12673TIP3    H259435   4.559   4.296   5.113
12674TIP3   OH259436   0.545   3.313   4.956
12674TIP3    H159437   0.636   3.336   4.975
12674TIP3    H259438   0.512   3.388   4.906
12675TIP3   OH259439   1.918   2.893  14.616
12675TIP3    H159440   1.860   2.820  14.637
12675TIP3    H259441   1.860   2.970  14.616
12676TIP3   OH259442   1.023   0.671  12.073
12676TIP3    H159443   1.086   0.614  12.029
12676TIP3    H259444   1.049   0.760  12.046
12677TIP3   OH259445   0.682   1.220   2.911
12677TIP3    H159446   0.673   1.285   2.980
12677TIP3    H259447   0.725   1.146   2.953
12678TIP3   OH259448   2.607   0.066  16.249
12678TIP3    H159449   2.644  -0.016  16.282
12678TIP3    H259450   2.529   0.081  16.303
12679TIP3   OH259451   0.202   1.990  15.611
12679TIP3    H159452   0.129   2.006  15.670
12679TIP3    H259453   0.235   2.078  15.590
12680TIP3   OH259454   6.292   4.675   5.323
12680TIP3    H159455   6.265   4.679   5.415
12680TIP3    H259456   6.288   4.582   5.300
12681TIP3   OH259457   4.226   2.282  12.184
12681TIP3    H159458   4.233   2.190  12.158
12681TIP3    H259459   4.141   2.310  12.150
12682TIP3   OH259460   5.413   2.353  11.837
12682TIP3    H159461   5.491   2.318  11.881
12682TIP3    H259462   5.379   2.419  11.898
12683TIP3   OH259463   4.053   6.608  11.664
12683TIP3    H159464   4.101   6.526  11.651
12683TIP3    H259465   4.105   6.655  11.729
12684TIP3   OH259466   1.921   3.565   5.712
12684TIP3    H159467   1.940   3.480   5.671
12684TIP3    H259468   1.855   3.604   5.656
12685TIP3   OH259469   1.893   6.340   2.956
12685TIP3    H159470   1.870   6.282   2.884
12685TIP3    H259471   1.868   6.427   2.926
12686TIP3   OH259472   4.316   0.299   2.666
12686TIP3    H159473   4.361   0.248   2.599
12686TIP3    H259474   4.275   0.371   2.618
12687TIP3   OH259475   6.008   2.495   5.663
12687TIP3    H159476   6.073   2.468   5.728
12687TIP3    H259477   6.053   2.561   5.610
12688TIP3   OH259478   6.450   0.227  11.625
12688TIP3    H159479   6.399   0.198  11.701
12688TIP3    H259480   6.442   0.323  11.627
12689TIP3   OH259481   5.409   3.240  15.497
12689TIP3    H159482   5.408   3.273  15.407
12689TIP3    H259483   5.317   3.223  15.517
12690TIP3   OH259484   1.415   0.456  14.235
12690TIP3    H159485   1.482   0.475  14.301
12690TIP3    H259486   1.354   0.530  14.242
12691TIP3   OH259487   2.731   5.321   6.282
12691TIP3    H159488   2.684   5.388   6.330
12691TIP3    H259489   2.723   5.347   6.190
12692TIP3   OH259490   1.320   0.626   3.444
12692TIP3    H159491   1.374   0.620   3.523
12692TIP3    H259492   1.348   0.553   3.390
12693TIP3   OH259493   1.215   4.017   4.867
12693TIP3    H159494   1.305   4.003   4.897
12693TIP3    H259495   1.211   4.111   4.846
12694TIP3   OH259496   6.262   3.209  13.702
12694TIP3    H159497   6.316   3.201  13.623
12694TIP3    H259498   6.304   3.279  13.753
12695TIP3   OH259499   5.976   5.345   4.996
12695TIP3    H159500   5.946   5.256   4.976
12695TIP3    H259501   6.031   5.335   5.073
12696TIP3   OH259502   6.135   4.141  14.922
12696TIP3    H159503   6.153   4.104  14.836
12696TIP3    H259504   6.156   4.070  14.984
12697TIP3   OH259505   2.935   2.287  11.742
12697TIP3    H159506   2.969   2.368  11.703
12697TIP3    H259507   2.935   2.305  11.836
12698TIP3   OH259508   5.306   5.594  12.274
12698TIP3    H159509   5.373   5.548  12.224
12698TIP3    H259510   5.258   5.645  12.209
12699TIP3   OH259511   4.930   2.829  15.081
12699TIP3    H159512   5.009   2.871  15.115
12699TIP3    H259513   4.859   2.862  15.137
12700TIP3   OH259514   3.062   5.033  12.940
12700TIP3    H159515   3.112   4.985  12.873
12700TIP3    H259516   2.995   4.970  12.969
12701TIP3   OH259517   2.229   1.441   0.949
12701TIP3    H159518   2.233   1.374   0.880
12701TIP3    H259519   2.175   1.401   1.018
12702TIP3   OH259520   2.765   4.917  17.036
12702TIP3    H159521   2.823   4.887  17.107
12702TIP3    H259522   2.814   4.900  16.956
12703TIP3   OH259523   1.676   1.251   2.941
12703TIP3    H159524   1.745   1.287   2.997
12703TIP3    H259525   1.614   1.210   3.001
12704TIP3   OH259526   1.188   5.440   6.380
12704TIP3    H159527   1.239   5.402   6.451
12704TIP3    H259528   1.099   5.446   6.415
12705TIP3   OH259529   6.076   2.837   0.928
12705TIP3    H159530   5.981   2.835   0.939
12705TIP3    H259531   6.093   2.779   0.854
12706TIP3   OH259532   2.944   4.511  14.727
12706TIP3    H159533   2.897   4.473  14.800
12706TIP3    H259534   2.876   4.547  14.670
12707TIP3   OH259535   5.082   4.729  11.230
12707TIP3    H159536   5.135   4.660  11.190
12707TIP3    H259537   5.145   4.795  11.258
12708TIP3   OH259538   6.271   0.301  14.463
12708TIP3    H159539   6.201   0.306  14.529
12708TIP3    H259540   6.346   0.345  14.504
12709TIP3   OH259541   0.803   4.436  15.886
12709TIP3    H159542   0.876   4.494  15.911
12709TIP3    H259543   0.836   4.389  15.810
12710TIP3   OH259544   1.379   0.905   0.877
12710TIP3    H159545   1.360   0.814   0.855
12710TIP3    H259546   1.300   0.936   0.922
12711TIP3   OH259547   3.993   2.602   4.651
12711TIP3    H159548   4.056   2.595   4.579
12711TIP3    H259549   4.005   2.691   4.685
12712TIP3   OH259550   5.911   0.588  13.145
12712TIP3    H159551   5.849   0.658  13.161
12712TIP3    H259552   5.882   0.517  13.204
12713TIP3   OH259553   6.772   4.713  14.752
12713TIP3    H159554   6.815   4.727  14.837
12713TIP3    H259555   6.842   4.683  14.694
12714TIP3   OH259556   0.657   0.189   0.086
12714TIP3    H159557   0.668   0.251   0.014
12714TIP3    H259558   0.715   0.222   0.154
12715TIP3   OH259559   3.801   2.497   6.209
12715TIP3    H159560   3.843   2.432   6.264
12715TIP3    H259561   3.718   2.517   6.253
12716TIP3   OH259562   6.574   0.915  15.940
12716TIP3    H159563   6.650   0.973  15.940
12716TIP3    H259564   6.508   0.962  15.990
12717TIP3   OH259565   6.482   6.388   2.265
12717TIP3    H159566   6.439   6.396   2.181
12717TIP3    H259567   6.543   6.462   2.268
12718TIP3   OH259568   3.767   1.814   2.767
12718TIP3    H159569   3.729   1.844   2.685
12718TIP3    H259570   3.735   1.724   2.777
12719TIP3   OH259571   2.988   0.355  13.836
12719TIP3    H159572   3.055   0.404  13.788
12719TIP3    H259573   2.968   0.409  13.912
12720TIP3   OH259574   5.561   5.071  10.568
12720TIP3    H159575   5.630   5.132  10.592
12720TIP3    H259576   5.504   5.122  10.510
12721TIP3   OH259577   5.796   4.664  15.150
12721TIP3    H159578   5.850   4.730  15.106
12721TIP3    H259579   5.769   4.604  15.081
12722TIP3   OH259580   0.710   5.247  14.402
12722TIP3    H159581   0.672   5.311  14.462
12722TIP3    H259582   0.793   5.222  14.442
12723TIP3   OH259583   2.049   5.593   1.447
12723TIP3    H159584   2.114   5.523   1.445
12723TIP3    H259585   2.100   5.673   1.455
12724TIP3   OH259586   5.215   1.269   4.841
12724TIP3    H159587   5.281   1.202   4.821
12724TIP3    H259588   5.229   1.291   4.933
12725TIP3   OH259589   2.838   1.067  16.178
12725TIP3    H159590   2.771   1.081  16.111
12725TIP3    H259591   2.804   0.994  16.230
12726TIP3   OH259592   0.807   4.057   2.241
12726TIP3    H159593   0.720   4.056   2.200
12726TIP3    H259594   0.804   4.133   2.300
12727TIP3   OH259595   4.383   5.807  10.802
12727TIP3    H159596   4.350   5.722  10.772
12727TIP3    H259597   4.450   5.786  10.867
12728TIP3   OH259598   2.359   3.384   4.372
12728TIP3    H159599   2.386   3.475   4.384
12728TIP3    H259600   2.440   3.334   4.378
12729TIP3   OH259601   5.485   2.249   5.380
12729TIP3    H159602   5.422   2.226   5.448
12729TIP3    H259603   5.501   2.167   5.333
12730TIP3   OH259604   2.375   2.659  13.709
12730TIP3    H159605   2.286   2.630  13.730
12730TIP3    H259606   2.432   2.601  13.760
12731TIP3   OH259607   0.538   4.676  11.924
12731TIP3    H159608   0.622   4.630  11.928
12731TIP3    H259609   0.515   4.676  11.831
12732TIP3   OH259610   2.358   5.836  16.179
12732TIP3    H159611   2.355   5.831  16.083
12732TIP3    H259612   2.391   5.923  16.197
12733TIP3   OH259613   0.253   3.845   0.817
12733TIP3    H159614   0.327   3.787   0.835
12733TIP3    H259615   0.278   3.929   0.857
12734TIP3   OH259616   4.712   3.598  12.177
12734TIP3    H159617   4.750   3.528  12.230
12734TIP3    H259618   4.704   3.561  12.089
12735TIP3   OH259619   0.138   4.511   4.573
12735TIP3    H159620   0.093   4.525   4.490
12735TIP3    H259621   0.230   4.528   4.554
12736TIP3   OH259622   1.136   1.146  16.002
12736TIP3    H159623   1.071   1.149  16.072
12736TIP3    H259624   1.135   1.235  15.965
12737TIP3   OH259625   4.530   4.241  13.808
12737TIP3    H159626   4.517   4.225  13.902
12737TIP3    H259627   4.624   4.260  13.800
12738TIP3   OH259628   4.947   2.855   1.070
12738TIP3    H159629   4.902   2.939   1.070
12738TIP3    H259630   4.938   2.824   0.979
12739TIP3   OH259631   3.744   0.297   5.756
12739TIP3    H159632   3.763   0.307   5.663
12739TIP3    H259633   3.764   0.206   5.775
12740TIP3   OH259634   0.417   1.683   5.023
12740TIP3    H159635   0.397   1.591   5.006
12740TIP3    H259636   0.513   1.689   5.016
12741TIP3   OH259637   0.049   4.413  16.635
12741TIP3    H159638   0.092   4.331  16.612
12741TIP3    H259639   0.039   4.408  16.730
12742TIP3   OH259640   5.831   1.908   6.345
12742TIP3    H159641   5.843   1.823   6.388
12742TIP3    H259642   5.886   1.968   6.395
12743TIP3   OH259643   5.747   0.794   3.767
12743TIP3    H159644   5.732   0.708   3.807
12743TIP3    H259645   5.675   0.848   3.801
12744TIP3   OH259646   0.596   1.308  12.499
12744TIP3    H159647   0.683   1.278  12.472
12744TIP3    H259648   0.611   1.393  12.540
12745TIP3   OH259649   2.297   1.678  12.471
12745TIP3    H159650   2.208   1.658  12.502
12745TIP3    H259651   2.283   1.732  12.393
12746TIP3   OH259652   5.643   0.095  15.294
12746TIP3    H159653   5.582   0.024  15.275
12746TIP3    H259654   5.670   0.127  15.208
12747TIP3   OH259655   1.347   5.464   5.775
12747TIP3    H159656   1.360   5.543   5.827
12747TIP3    H259657   1.433   5.442   5.741
12748TIP3   OH259658   4.900   4.966  10.836
12748TIP3    H159659   4.871   5.038  10.780
12748TIP3    H259660   4.981   4.935  10.794
12749TIP3   OH259661   4.645   6.139   3.865
12749TIP3    H159662   4.738   6.150   3.885
12749TIP3    H259663   4.602   6.142   3.950
12750TIP3   OH259664   6.500   6.261  15.560
12750TIP3    H159665   6.589   6.237  15.533
12750TIP3    H259666   6.458   6.292  15.480
12751TIP3   OH259667   4.328   1.692   1.238
12751TIP3    H159668   4.409   1.698   1.187
12751TIP3    H259669   4.315   1.598   1.252
12752TIP3   OH259670   1.289   5.674  11.450
12752TIP3    H159671   1.359   5.615  11.421
12752TIP3    H259672   1.314   5.759  11.416
12753TIP3   OH259673   2.868   2.555  13.401
12753TIP3    H159674   2.835   2.519  13.319
12753TIP3    H259675   2.814   2.514  13.469
12754TIP3   OH259676   2.330   3.366  13.209
12754TIP3    H159677   2.292   3.454  13.218
12754TIP3    H259678   2.402   3.378  13.147
12755TIP3   OH259679   2.553   6.265  15.127
12755TIP3    H159680   2.599   6.326  15.069
12755TIP3    H259681   2.471   6.309  15.148
12756TIP3   OH259682   5.854   3.343  11.558
12756TIP3    H159683   5.864   3.340  11.463
12756TIP3    H259684   5.815   3.258  11.581
12757TIP3   OH259685   1.731   2.307   1.232
12757TIP3    H159686   1.803   2.366   1.257
12757TIP3    H259687   1.774   2.224   1.211
12758TIP3   OH259688   4.789   5.769   4.927
12758TIP3    H159689   4.762   5.678   4.911
12758TIP3    H259690   4.716   5.821   4.894
12759TIP3   OH259691   3.087   5.421  14.753
12759TIP3    H159692   3.069   5.393  14.843
12759TIP3    H259693   3.005   5.405  14.706
12760TIP3   OH259694   5.547   4.319   3.450
12760TIP3    H159695   5.614   4.279   3.505
12760TIP3    H259696   5.467   4.272   3.472
12761TIP3   OH259697   0.838   4.539  14.721
12761TIP3    H159698   0.857   4.499  14.806
12761TIP3    H259699   0.799   4.624  14.743
12762TIP3   OH259700   4.891   3.554   2.242
12762TIP3    H159701   4.928   3.475   2.281
12762TIP3    H259702   4.935   3.626   2.287
12763TIP3   OH259703   5.045   2.346   2.590
12763TIP3    H159704   4.991   2.424   2.604
12763TIP3    H259705   4.982   2.277   2.569
12764TIP3   OH259706   1.637   0.923  14.091
12764TIP3    H159707   1.667   0.953  14.005
12764TIP3    H259708   1.682   0.840  14.105
12765TIP3   OH259709   0.829   5.600  15.033
12765TIP3    H159710   0.885   5.561  15.100
12765TIP3    H259711   0.844   5.547  14.955
12766TIP3   OH259712   2.291   6.464   4.873
12766TIP3    H159713   2.328   6.460   4.962
12766TIP3    H259714   2.266   6.555   4.862
12767TIP3   OH259715   4.332   2.197   2.001
12767TIP3    H159716   4.377   2.119   2.031
12767TIP3    H259717   4.326   2.252   2.079
12768TIP3   OH259718   6.262   6.134   1.090
12768TIP3    H159719   6.330   6.069   1.075
12768TIP3    H259720   6.181   6.083   1.091
12769TIP3   OH259721   3.348   4.051   7.020
12769TIP3    H159722   3.371   4.073   6.929
12769TIP3    H259723   3.412   3.985   7.046
12770TIP3   OH259724   5.819   4.356  14.267
12770TIP3    H159725   5.782   4.339  14.354
12770TIP3    H259726   5.810   4.274  14.220
12771TIP3   OH259727   0.616   6.103  16.536
12771TIP3    H159728   0.542   6.079  16.592
12771TIP3    H259729   0.578   6.153  16.465
12772TIP3   OH259730   2.937   3.442  10.890
12772TIP3    H159731   2.979   3.529  10.894
12772TIP3    H259732   2.988   3.394  10.824
12773TIP3   OH259733   0.071   5.676   1.961
12773TIP3    H159734  -0.004   5.685   1.902
12773TIP3    H259735   0.139   5.635   1.908
12774TIP3   OH259736   2.521   5.493   3.304
12774TIP3    H159737   2.500   5.484   3.211
12774TIP3    H259738   2.603   5.543   3.305
12775TIP3   OH259739   4.854   2.136  12.792
12775TIP3    H159740   4.810   2.216  12.819
12775TIP3    H259741   4.849   2.136  12.696
12776TIP3   OH259742   2.147   2.590  15.243
12776TIP3    H159743   2.126   2.519  15.304
12776TIP3    H259744   2.241   2.581  15.227
12777TIP3   OH259745   1.645   4.861  13.403
12777TIP3    H159746   1.664   4.771  13.376
12777TIP3    H259747   1.729   4.907  13.392
12778TIP3   OH259748   4.141   6.443  15.728
12778TIP3    H159749   4.172   6.373  15.786
12778TIP3    H259750   4.180   6.523  15.764
12779TIP3   OH259751   4.279   0.446  16.445
12779TIP3    H159752   4.258   0.433  16.538
12779TIP3    H259753   4.201   0.414  16.399
12780TIP3   OH259754   4.759   3.826  16.778
12780TIP3    H159755   4.829   3.890  16.783
12780TIP3    H259756   4.787   3.765  16.711
12781TIP3   OH259757   1.613   6.426  11.716
12781TIP3    H159758   1.703   6.414  11.686
12781TIP3    H259759   1.562   6.365  11.662
12782TIP3   OH259760   3.817   1.100   5.971
12782TIP3    H159761   3.783   1.167   6.030
12782TIP3    H259762   3.739   1.059   5.934
12783TIP3   OH259763   4.161   2.246   1.774
12783TIP3    H159764   4.219   2.240   1.850
12783TIP3    H259765   4.128   2.336   1.776
12784TIP3   OH259766   6.685   5.027  12.546
12784TIP3    H159767   6.656   5.077  12.469
12784TIP3    H259768   6.672   5.086  12.619
12785TIP3   OH259769   4.086   4.002   6.146
12785TIP3    H159770   3.996   3.998   6.178
12785TIP3    H259771   4.140   3.991   6.224
12786TIP3   OH259772   3.679   2.792  15.878
12786TIP3    H159773   3.591   2.779  15.841
12786TIP3    H259774   3.681   2.738  15.956
12787TIP3   OH259775   3.281   3.958   2.389
12787TIP3    H159776   3.318   4.029   2.441
12787TIP3    H259777   3.195   3.943   2.427
12788TIP3   OH259778   6.607   4.930  15.984
12788TIP3    H159779   6.564   5.015  15.977
12788TIP3    H259780   6.537   4.869  16.007
12789TIP3   OH259781   1.438   2.696  17.153
12789TIP3    H159782   1.497   2.772  17.153
12789TIP3    H259783   1.487   2.626  17.111
12790TIP3   OH259784   2.613   5.831   0.803
12790TIP3    H159785   2.647   5.830   0.714
12790TIP3    H259786   2.574   5.744   0.814
12791TIP3   OH259787   0.240   2.280   2.350
12791TIP3    H159788   0.291   2.297   2.270
12791TIP3    H259789   0.304   2.285   2.421
12792TIP3   OH259790   4.642   4.653  12.898
12792TIP3    H159791   4.667   4.743  12.917
12792TIP3    H259792   4.640   4.649  12.802
12793TIP3   OH259793   1.036   4.026  13.613
12793TIP3    H159794   0.958   3.973  13.626
12793TIP3    H259795   1.063   4.052  13.701
12794TIP3   OH259796   1.285   5.787  16.455
12794TIP3    H159797   1.335   5.861  16.490
12794TIP3    H259798   1.343   5.749  16.388
12795TIP3   OH259799   3.679   4.782  16.854
12795TIP3    H159800   3.720   4.697  16.839
12795TIP3    H259801   3.715   4.838  16.785
12796TIP3   OH259802   0.384   3.598  12.261
12796TIP3    H159803   0.410   3.516  12.219
12796TIP3    H259804   0.398   3.665  12.193
12797TIP3   OH259805   5.361   1.959  14.577
12797TIP3    H159806   5.366   1.908  14.658
12797TIP3    H259807   5.324   1.898  14.513
12798TIP3   OH259808   1.349   2.825   1.187
12798TIP3    H159809   1.387   2.870   1.111
12798TIP3    H259810   1.256   2.818   1.165
12799TIP3   OH259811   5.930   0.012  16.641
12799TIP3    H159812   5.987  -0.020  16.711
12799TIP3    H259813   5.978   0.087  16.604
12800TIP3   OH259814   0.621   1.423  11.529
12800TIP3    H159815   0.714   1.432  11.552
12800TIP3    H259816   0.579   1.500  11.566
12801TIP3   OH259817   2.694   0.964   1.088
12801TIP3    H159818   2.671   0.994   1.000
12801TIP3    H259819   2.621   0.991   1.143
12802TIP3   OH259820   4.821   6.356  13.890
12802TIP3    H159821   4.872   6.297  13.945
12802TIP3    H259822   4.738   6.366  13.935
12803TIP3   OH259823   3.627   5.492  10.595
12803TIP3    H159824   3.698   5.486  10.658
12803TIP3    H259825   3.592   5.403  10.589
12804TIP3   OH259826   5.918   3.080   0.270
12804TIP3    H159827   5.889   2.994   0.299
12804TIP3    H259828   5.945   3.125   0.350
12805TIP3   OH259829   6.659   4.283   3.227
12805TIP3    H159830   6.631   4.268   3.137
12805TIP3    H259831   6.582   4.318   3.271
12806TIP3   OH259832   2.147   4.852  14.194
12806TIP3    H159833   2.147   4.896  14.109
12806TIP3    H259834   2.147   4.923  14.258
12807TIP3   OH259835   1.083   0.100   0.637
12807TIP3    H159836   1.142   0.040   0.591
12807TIP3    H259837   1.008   0.109   0.579
12808TIP3   OH259838   5.322   3.084   2.583
12808TIP3    H159839   5.417   3.072   2.576
12808TIP3    H259840   5.285   3.000   2.557
12809TIP3   OH259841   5.629   2.350  10.867
12809TIP3    H159842   5.584   2.305  10.939
12809TIP3    H259843   5.586   2.435  10.861
12810TIP3   OH259844   2.138   5.141   3.958
12810TIP3    H159845   2.158   5.086   4.034
12810TIP3    H259846   2.047   5.121   3.937
12811TIP3   OH259847   4.250   5.911  14.115
12811TIP3    H159848   4.315   5.843  14.131
12811TIP3    H259849   4.173   5.865  14.082
12812TIP3   OH259850   5.031   6.604  16.228
12812TIP3    H159851   5.038   6.549  16.307
12812TIP3    H259852   5.119   6.639  16.215
12813TIP3   OH259853   0.038   2.317  15.665
12813TIP3    H159854   0.101   2.363  15.721
12813TIP3    H259855  -0.046   2.358  15.685
12814TIP3   OH259856   3.680   5.913   4.342
12814TIP3    H159857   3.753   5.939   4.286
12814TIP3    H259858   3.722   5.873   4.419
12815TIP3   OH259859   5.161   3.465   0.368
12815TIP3    H159860   5.154   3.425   0.454
12815TIP3    H259861   5.245   3.512   0.370
12816TIP3   OH259862   0.715   1.870  15.095
12816TIP3    H159863   0.652   1.817  15.144
12816TIP3    H259864   0.773   1.907  15.162
12817TIP3   OH259865   1.488   3.310   2.573
12817TIP3    H159866   1.514   3.234   2.521
12817TIP3    H259867   1.571   3.350   2.600
12818TIP3   OH259868   0.368   3.061  13.012
12818TIP3    H159869   0.363   3.064  13.108
12818TIP3    H259870   0.276   3.061  12.984
12819TIP3   OH259871   3.989   2.808   2.284
12819TIP3    H159872   4.034   2.855   2.215
12819TIP3    H259873   4.016   2.851   2.365
12820TIP3   OH259874   3.384   6.584   4.106
12820TIP3    H159875   3.336   6.592   4.024
12820TIP3    H259876   3.350   6.655   4.161
12821TIP3   OH259877   0.340   1.607   2.508
12821TIP3    H159878   0.328   1.636   2.599
12821TIP3    H259879   0.260   1.636   2.463
12822TIP3   OH259880   3.806   6.234   0.020
12822TIP3    H159881   3.838   6.320   0.046
12822TIP3    H259882   3.883   6.176   0.026
12823TIP3   OH259883   5.833   6.517   4.593
12823TIP3    H159884   5.874   6.599   4.566
12823TIP3    H259885   5.875   6.496   4.677
12824TIP3   OH259886   4.296   6.125  15.903
12824TIP3    H159887   4.331   6.078  15.979
12824TIP3    H259888   4.201   6.122  15.915
12825TIP3   OH259889   1.164   5.580  14.635
12825TIP3    H159890   1.252   5.593  14.670
12825TIP3    H259891   1.178   5.570  14.541
12826TIP3   OH259892   0.506   4.568  16.049
12826TIP3    H159893   0.425   4.612  16.074
12826TIP3    H259894   0.499   4.557  15.954
12827TIP3   OH259895   0.296   5.317  16.364
12827TIP3    H159896   0.279   5.280  16.450
12827TIP3    H259897   0.210   5.325  16.323
12828TIP3   OH259898   3.035   0.563   2.556
12828TIP3    H159899   2.968   0.512   2.602
12828TIP3    H259900   3.056   0.635   2.616
12829TIP3   OH259901   1.536   6.764   2.136
12829TIP3    H159902   1.470   6.738   2.201
12829TIP3    H259903   1.520   6.857   2.122
12830TIP3   OH259904   4.291   0.737   0.955
12830TIP3    H159905   4.380   0.724   0.987
12830TIP3    H259906   4.239   0.668   0.997
12831TIP3   OH259907   3.466   0.465  11.960
12831TIP3    H159908   3.559   0.476  11.942
12831TIP3    H259909   3.461   0.462  12.056
12832TIP3   OH259910   1.106   5.836   6.052
12832TIP3    H159911   1.086   5.798   5.966
12832TIP3    H259912   1.081   5.928   6.044
12833TIP3   OH259913   5.487   3.204   1.418
12833TIP3    H159914   5.513   3.279   1.364
12833TIP3    H259915   5.565   3.149   1.423
12834TIP3   OH259916   0.884   6.621  16.863
12834TIP3    H159917   0.909   6.529  16.865
12834TIP3    H259918   0.793   6.622  16.894
12835TIP3   OH259919   6.662   4.070  14.110
12835TIP3    H159920   6.693   4.069  14.200
12835TIP3    H259921   6.568   4.088  14.117
12836TIP3   OH259922   2.311   4.369  16.145
12836TIP3    H159923   2.282   4.432  16.080
12836TIP3    H259924   2.364   4.420  16.207
12837TIP3   OH259925   0.409   6.762  15.915
12837TIP3    H159926   0.483   6.788  15.860
12837TIP3    H259927   0.364   6.844  15.935
12838TIP3   OH259928   4.896   2.218  16.454
12838TIP3    H159929   4.835   2.160  16.501
12838TIP3    H259930   4.845   2.252  16.381
12839TIP3   OH259931   1.361   2.084  11.709
12839TIP3    H159932   1.418   2.137  11.655
12839TIP3    H259933   1.275   2.125  11.701
12840TIP3   OH259934   5.803   4.173  15.835
12840TIP3    H159935   5.851   4.241  15.788
12840TIP3    H259936   5.807   4.097  15.777
12841TIP3   OH259937   3.645   6.752  11.651
12841TIP3    H159938   3.702   6.677  11.667
12841TIP3    H259939   3.680   6.822  11.707
12842TIP3   OH259940   4.148   4.972  13.265
12842TIP3    H159941   4.222   5.032  13.256
12842TIP3    H259942   4.073   5.029  13.282
12843TIP3   OH259943   3.092   1.852   0.374
12843TIP3    H159944   3.015   1.870   0.427
12843TIP3    H259945   3.150   1.801   0.431
12844TIP3   OH259946   5.324   0.276  14.095
12844TIP3    H159947   5.303   0.353  14.043
12844TIP3    H259948   5.412   0.250  14.065
12845TIP3   OH259949   6.427   3.477  12.268
12845TIP3    H159950   6.411   3.509  12.179
12845TIP3    H259951   6.460   3.553  12.316
12846TIP3   OH259952   4.148   2.658   4.428
12846TIP3    H159953   4.124   2.639   4.338
12846TIP3    H259954   4.129   2.752   4.438
12847TIP3   OH259955   0.436   1.657  13.038
12847TIP3    H159956   0.406   1.731  12.985
12847TIP3    H259957   0.462   1.696  13.121
12848TIP3   OH259958   3.542   1.684   3.253
12848TIP3    H159959   3.606   1.725   3.196
12848TIP3    H259960   3.545   1.591   3.229
12849TIP3   OH259961   0.176   2.509   3.493
12849TIP3    H159962   0.112   2.452   3.535
12849TIP3    H259963   0.134   2.536   3.411
12850TIP3   OH259964   5.734   0.215  14.641
12850TIP3    H159965   5.715   0.135  14.691
12850TIP3    H259966   5.661   0.222  14.580
12851TIP3   OH259967   4.707   2.642   5.512
12851TIP3    H159968   4.633   2.647   5.573
12851TIP3    H259969   4.689   2.710   5.447
12852TIP3   OH259970   1.516   4.413  13.491
12852TIP3    H159971   1.544   4.351  13.558
12852TIP3    H259972   1.540   4.371  13.408
12853TIP3   OH259973   0.652   3.254   5.256
12853TIP3    H159974   0.682   3.225   5.170
12853TIP3    H259975   0.610   3.339   5.239
12854TIP3   OH259976   6.669   4.164   4.887
12854TIP3    H159977   6.637   4.253   4.871
12854TIP3    H259978   6.739   4.174   4.951
12855TIP3   OH259979   6.208   2.932  14.596
12855TIP3    H159980   6.293   2.937  14.640
12855TIP3    H259981   6.145   2.920  14.667
12856TIP3   OH259982   5.719   3.871  12.981
12856TIP3    H159983   5.757   3.952  13.015
12856TIP3    H259984   5.757   3.802  13.036
12857TIP3   OH259985   1.012   1.112   2.870
12857TIP3    H159986   0.975   1.029   2.840
12857TIP3    H259987   1.031   1.097   2.963
12858TIP3   OH259988   1.610   3.022  10.770
12858TIP3    H159989   1.677   3.065  10.825
12858TIP3    H259990   1.657   2.950  10.728
12859TIP3   OH259991   5.796   3.140  15.050
12859TIP3    H159992   5.757   3.107  15.131
12859TIP3    H259993   5.884   3.166  15.075
12860TIP3   OH259994   5.619   3.618   5.982
12860TIP3    H159995   5.637   3.561   5.907
12860TIP3    H259996   5.589   3.558   6.051
12861TIP3   OH259997   5.282   3.817  14.903
12861TIP3    H159998   5.247   3.764  14.832
12861TIP3    H259999   5.276   3.761  14.980
12862TIP3   OH260000   6.317   1.872  12.020
12862TIP3    H160001   6.274   1.825  12.091
12862TIP3    H260002   6.407   1.838  12.018
12863TIP3   OH260003   0.847   4.149   5.373
12863TIP3    H160004   0.772   4.163   5.316
12863TIP3    H260005   0.809   4.133   5.460
12864TIP3   OH260006   5.346   3.843   6.289
12864TIP3    H160007   5.372   3.761   6.246
12864TIP3    H260008   5.284   3.816   6.357
12865TIP3   OH260009   0.871   1.660   3.239
12865TIP3    H160010   0.848   1.669   3.332
12865TIP3    H260011   0.789   1.672   3.192
12866TIP3   OH260012   5.033   6.508  14.074
12866TIP3    H160013   4.996   6.528  14.160
12866TIP3    H260014   4.973   6.444  14.036
12867TIP3   OH260015   0.834   0.592   4.459
12867TIP3    H160016   0.824   0.497   4.453
12867TIP3    H260017   0.898   0.604   4.530
12868TIP3   OH260018   3.381   1.093  17.236
12868TIP3    H160019   3.455   1.084  17.295
12868TIP3    H260020   3.330   1.166  17.273
12869TIP3   OH260021   2.533   1.814   3.705
12869TIP3    H160022   2.576   1.866   3.637
12869TIP3    H260023   2.557   1.858   3.787
12870TIP3   OH260024   1.138   2.738   5.859
12870TIP3    H160025   1.173   2.827   5.851
12870TIP3    H260026   1.108   2.732   5.949
12871TIP3   OH260027   2.875   0.851  14.066
12871TIP3    H160028   2.832   0.842  14.151
12871TIP3    H260029   2.814   0.813  14.003
12872TIP3   OH260030   0.335   1.796   5.263
12872TIP3    H160031   0.383   1.748   5.195
12872TIP3    H260032   0.258   1.741   5.280
12873TIP3   OH260033   0.996   3.506   5.685
12873TIP3    H160034   1.076   3.455   5.679
12873TIP3    H260035   0.926   3.441   5.680
12874TIP3   OH260036   6.094   3.534   3.184
12874TIP3    H160037   6.005   3.507   3.160
12874TIP3    H260038   6.122   3.590   3.111
12875TIP3   OH260039   5.048   5.772   2.775
12875TIP3    H160040   4.979   5.758   2.840
12875TIP3    H260041   5.088   5.686   2.764
12876TIP3   OH260042   4.652   6.541   2.775
12876TIP3    H160043   4.703   6.513   2.851
12876TIP3    H260044   4.636   6.461   2.725
12877TIP3   OH260045   3.730   0.677   2.674
12877TIP3    H160046   3.662   0.620   2.641
12877TIP3    H260047   3.725   0.755   2.620
12878TIP3   OH260048   4.069   0.079  13.807
12878TIP3    H160049   4.151   0.039  13.836
12878TIP3    H260050   4.089   0.116  13.721
12879TIP3   OH260051   5.158   2.839   5.494
12879TIP3    H160052   5.149   2.788   5.413
12879TIP3    H260053   5.073   2.881   5.505
12880TIP3   OH260054   2.332   1.556  14.894
12880TIP3    H160055   2.293   1.540  14.980
12880TIP3    H260056   2.263   1.597  14.843
12881TIP3   OH260057   5.664   0.686  13.789
12881TIP3    H160058   5.714   0.644  13.859
12881TIP3    H260059   5.686   0.636  13.710
12882TIP3   OH260060   1.861   2.370   0.904
12882TIP3    H160061   1.948   2.374   0.945
12882TIP3    H260062   1.832   2.280   0.918
12883TIP3   OH260063   6.551   5.755   5.571
12883TIP3    H160064   6.474   5.801   5.537
12883TIP3    H260065   6.516   5.695   5.636
12884TIP3   OH260066   2.881   5.614  12.070
12884TIP3    H160067   2.956   5.589  12.016
12884TIP3    H260068   2.853   5.698  12.033
12885TIP3   OH260069   1.790   4.012   0.457
12885TIP3    H160070   1.836   4.096   0.467
12885TIP3    H260071   1.717   4.018   0.519
12886TIP3   OH260072   4.814   5.022   1.109
12886TIP3    H160073   4.795   5.051   1.020
12886TIP3    H260074   4.830   4.928   1.102
12887TIP3   OH260075   1.324   6.309  15.268
12887TIP3    H160076   1.407   6.316  15.315
12887TIP3    H260077   1.270   6.251  15.322
12888TIP3   OH260078   6.264   5.441   0.518
12888TIP3    H160079   6.339   5.460   0.575
12888TIP3    H260080   6.248   5.523   0.471
12889TIP3   OH260081   1.792   5.292   3.448
12889TIP3    H160082   1.736   5.344   3.506
12889TIP3    H260083   1.860   5.257   3.506
12890TIP3   OH260084   2.500   5.045   0.402
12890TIP3    H160085   2.441   5.109   0.442
12890TIP3    H260086   2.511   5.076   0.312
12891TIP3   OH260087   5.642   3.936   1.312
12891TIP3    H160088   5.737   3.931   1.308
12891TIP3    H260089   5.624   3.990   1.389
12892TIP3   OH260090   3.926   5.888  16.823
12892TIP3    H160091   3.980   5.967  16.822
12892TIP3    H260092   3.837   5.921  16.807
12893TIP3   OH260093   0.339   0.249   2.039
12893TIP3    H160094   0.434   0.254   2.049
12893TIP3    H260095   0.325   0.237   1.946
12894TIP3   OH260096   6.271   0.014   4.967
12894TIP3    H160097   6.239  -0.076   4.974
12894TIP3    H260098   6.349   0.017   5.022
12895TIP3   OH260099   4.025   5.626  13.309
12895TIP3    H160100   4.115   5.609  13.337
12895TIP3    H260101   3.995   5.543  13.273
12896TIP3   OH260102   1.581   4.927   5.756
12896TIP3    H160103   1.668   4.910   5.793
12896TIP3    H260104   1.571   4.862   5.687
12897TIP3   OH260105   4.263   5.348   6.403
12897TIP3    H160106   4.285   5.290   6.476
12897TIP3    H260107   4.167   5.340   6.395
12898TIP3   OH260108   3.637   0.808  11.761
12898TIP3    H160109   3.574   0.802  11.688
12898TIP3    H260110   3.697   0.735  11.747
12899TIP3   OH260111   3.053   6.444  12.077
12899TIP3    H160112   2.997   6.520  12.094
12899TIP3    H260113   3.000   6.388  12.020
12900TIP3   OH260114   3.935   3.086  14.946
12900TIP3    H160115   3.997   3.047  15.008
12900TIP3    H260116   3.988   3.148  14.895
12901TIP3   OH260117   6.146   3.011  12.478
12901TIP3    H160118   6.131   2.936  12.421
12901TIP3    H260119   6.141   3.087  12.420
12902TIP3   OH260120   0.729   0.068   3.441
12902TIP3    H160121   0.780   0.123   3.381
12902TIP3    H260122   0.731   0.114   3.524
12903TIP3   OH260123   1.724   1.437   4.963
12903TIP3    H160124   1.647   1.402   4.918
12903TIP3    H260125   1.696   1.522   4.996
12904TIP3   OH260126   5.384   2.732  17.017
12904TIP3    H160127   5.402   2.772  16.932
12904TIP3    H260128   5.380   2.806  17.077
12905TIP3   OH260129   2.817   0.944  11.639
12905TIP3    H160130   2.911   0.924  11.630
12905TIP3    H260131   2.773   0.864  11.610
12906TIP3   OH260132   1.138   0.633  15.642
12906TIP3    H160133   1.090   0.550  15.641
12906TIP3    H260134   1.201   0.625  15.571
12907TIP3   OH260135   6.548   6.137   3.103
12907TIP3    H160136   6.579   6.102   3.020
12907TIP3    H260137   6.594   6.220   3.113
12908TIP3   OH260138   3.641   5.165  13.406
12908TIP3    H160139   3.591   5.139  13.484
12908TIP3    H260140   3.617   5.256  13.392
12909TIP3   OH260141   6.482   6.674   0.275
12909TIP3    H160142   6.402   6.652   0.227
12909TIP3    H260143   6.493   6.768   0.262
12910TIP3   OH260144   6.130   3.939  11.271
12910TIP3    H160145   6.197   3.902  11.214
12910TIP3    H260146   6.134   4.034  11.255
12911TIP3   OH260147   0.599   2.786  15.937
12911TIP3    H160148   0.534   2.753  15.875
12911TIP3    H260149   0.611   2.878  15.912
12912TIP3   OH260150   0.969   0.541   3.761
12912TIP3    H160151   0.914   0.501   3.829
12912TIP3    H260152   0.908   0.570   3.694
12913TIP3   OH260153   3.542   2.224   1.665
12913TIP3    H160154   3.491   2.274   1.601
12913TIP3    H260155   3.619   2.278   1.682
12914TIP3   OH260156   6.474   1.090   0.060
12914TIP3    H160157   6.428   1.168   0.028
12914TIP3    H260158   6.446   1.082   0.152
12915TIP3   OH260159   5.133   1.190  13.921
12915TIP3    H160160   5.154   1.116  13.865
12915TIP3    H260161   5.216   1.237  13.930
12916TIP3   OH260162   6.613   2.425  14.460
12916TIP3    H160163   6.635   2.460  14.546
12916TIP3    H260164   6.693   2.435  14.408
12917TIP3   OH260165   2.750   1.708  12.848
12917TIP3    H160166   2.672   1.761  12.834
12917TIP3    H260167   2.809   1.733  12.776
12918TIP3   OH260168   0.128   4.822  13.837
12918TIP3    H160169   0.076   4.771  13.898
12918TIP3    H260170   0.217   4.786  13.845
12919TIP3   OH260171   1.498   1.745   2.274
12919TIP3    H160172   1.544   1.667   2.244
12919TIP3    H260173   1.522   1.754   2.366
12920TIP3   OH260174   1.417   6.517   0.518
12920TIP3    H160175   1.416   6.473   0.433
12920TIP3    H260176   1.449   6.449   0.578
12921TIP3   OH260177   5.530   2.589  14.490
12921TIP3    H160178   5.447   2.638  14.482
12921TIP3    H260179   5.507   2.499  14.468
12922TIP3   OH260180   1.414   3.406   0.888
12922TIP3    H160181   1.463   3.461   0.827
12922TIP3    H260182   1.328   3.395   0.847
12923TIP3   OH260183   5.277   5.707  16.969
12923TIP3    H160184   5.342   5.650  17.009
12923TIP3    H260185   5.290   5.696  16.875
12924TIP3   OH260186   5.027   4.536  13.574
12924TIP3    H160187   5.069   4.451  13.558
12924TIP3    H260188   4.989   4.560  13.490
12925TIP3   OH260189   5.260   0.783   4.244
12925TIP3    H160190   5.177   0.740   4.265
12925TIP3    H260191   5.325   0.713   4.247
12926TIP3   OH260192   2.884   3.464   5.949
12926TIP3    H160193   2.893   3.460   5.854
12926TIP3    H260194   2.950   3.528   5.977
12927TIP3   OH260195   0.387   4.232  15.736
12927TIP3    H160196   0.371   4.175  15.811
12927TIP3    H260197   0.415   4.173  15.667
12928TIP3   OH260198   2.466   6.754   3.841
12928TIP3    H160199   2.409   6.828   3.863
12928TIP3    H260200   2.474   6.757   3.746
12929TIP3   OH260201   2.449   6.089   2.245
12929TIP3    H160202   2.488   6.095   2.332
12929TIP3    H260203   2.364   6.132   2.254
12930TIP3   OH260204   1.719   1.845  16.296
12930TIP3    H160205   1.714   1.754  16.268
12930TIP3    H260206   1.662   1.893  16.236
12931TIP3   OH260207   5.213   3.939  10.916
12931TIP3    H160208   5.141   3.884  10.886
12931TIP3    H260209   5.263   3.883  10.975
12932TIP3   OH260210   6.260   5.878  12.973
12932TIP3    H160211   6.290   5.788  12.961
12932TIP3    H260212   6.215   5.877  13.057
12933TIP3   OH260213   1.597   6.719  14.473
12933TIP3    H160214   1.605   6.765  14.556
12933TIP3    H260215   1.566   6.785  14.411
12934TIP3   OH260216   4.817   3.950   3.258
12934TIP3    H160217   4.791   3.910   3.341
12934TIP3    H260218   4.886   4.011   3.282
12935TIP3   OH260219   3.498   6.056  15.218
12935TIP3    H160220   3.473   6.131  15.271
12935TIP3    H260221   3.433   5.988  15.239
12936TIP3   OH260222   4.490   0.979   2.143
12936TIP3    H160223   4.426   1.019   2.084
12936TIP3    H260224   4.529   1.053   2.190
12937TIP3   OH260225   3.659   5.285   4.124
12937TIP3    H160226   3.569   5.317   4.109
12937TIP3    H260227   3.712   5.335   4.063
12938TIP3   OH260228   1.650   5.868   0.158
12938TIP3    H160229   1.708   5.937   0.190
12938TIP3    H260230   1.619   5.901   0.073
12939TIP3   OH260231   3.630   1.739   1.818
12939TIP3    H160232   3.720   1.705   1.814
12939TIP3    H260233   3.631   1.815   1.759
12940TIP3   OH260234   4.330   3.615  13.164
12940TIP3    H160235   4.309   3.577  13.250
12940TIP3    H260236   4.423   3.639  13.172
12941TIP3   OH260237   3.821   3.411  13.097
12941TIP3    H160238   3.885   3.481  13.087
12941TIP3    H260239   3.842   3.370  13.181
12942TIP3   OH260240   0.628   2.335   0.889
12942TIP3    H160241   0.622   2.282   0.968
12942TIP3    H260242   0.682   2.410   0.914
12943TIP3   OH260243   5.572   3.506   2.510
12943TIP3    H160244   5.665   3.483   2.520
12943TIP3    H260245   5.551   3.480   2.420
12944TIP3   OH260246   3.550   5.646  14.513
12944TIP3    H160247   3.499   5.683  14.585
12944TIP3    H260248   3.569   5.720  14.456
12945TIP3   OH260249   4.730   1.128   0.642
12945TIP3    H160250   4.820   1.097   0.636
12945TIP3    H260251   4.685   1.061   0.694
12946TIP3   OH260252   0.777   6.356  16.581
12946TIP3    H160253   0.728   6.404  16.514
12946TIP3    H260254   0.725   6.277  16.596
12947TIP3   OH260255   1.798   0.166  11.267
12947TIP3    H160256   1.741   0.193  11.339
12947TIP3    H260257   1.763   0.210  11.190
12948TIP3   OH260258   4.447   3.818  15.026
12948TIP3    H160259   4.410   3.816  14.937
12948TIP3    H260260   4.508   3.891  15.025
12949TIP3   OH260261   1.598   2.445   5.780
12949TIP3    H160262   1.525   2.494   5.817
12949TIP3    H260263   1.635   2.397   5.854
12950TIP3   OH260264   2.667   4.705   6.008
12950TIP3    H160265   2.620   4.632   6.049
12950TIP3    H260266   2.613   4.782   6.028
12951TIP3   OH260267   1.613   0.073   2.864
12951TIP3    H160268   1.612   0.010   2.936
12951TIP3    H260269   1.702   0.109   2.865
12952TIP3   OH260270   0.586   4.301   3.930
12952TIP3    H160271   0.527   4.361   3.884
12952TIP3    H260272   0.654   4.280   3.865
12953TIP3   OH260273   6.076   0.765  15.592
12953TIP3    H160274   6.073   0.834  15.525
12953TIP3    H260275   5.992   0.772  15.638
12954TIP3   OH260276   0.349   0.037   0.643
12954TIP3    H160277   0.325   0.044   0.736
12954TIP3    H260278   0.322  -0.052   0.619
12955TIP3   OH260279   5.717   4.755  14.389
12955TIP3    H160280   5.790   4.784  14.334
12955TIP3    H260281   5.755   4.688  14.446
12956TIP3   OH260282   0.060   1.141  17.140
12956TIP3    H160283   0.036   1.089  17.217
12956TIP3    H260284   0.154   1.124  17.129
12957TIP3   OH260285   3.309   4.444  17.228
12957TIP3    H160286   3.373   4.430  17.159
12957TIP3    H260287   3.265   4.525  17.205
12958TIP3   OH260288   2.862   0.330   3.220
12958TIP3    H160289   2.777   0.309   3.180
12958TIP3    H260290   2.914   0.365   3.148
12959TIP3   OH260291   5.992   0.140  13.804
12959TIP3    H160292   5.912   0.097  13.774
12959TIP3    H260293   5.978   0.233  13.785
12960TIP3   OH260294   4.208   0.660  13.845
12960TIP3    H160295   4.157   0.696  13.772
12960TIP3    H260296   4.198   0.724  13.915
12961TIP3   OH260297   5.857   5.164  15.313
12961TIP3    H160298   5.891   5.139  15.399
12961TIP3    H260299   5.934   5.183  15.261
12962TIP3   OH260300   1.984   1.918   2.625
12962TIP3    H160301   2.019   2.007   2.618
12962TIP3    H260302   2.019   1.885   2.707
12963TIP3   OH260303   0.894   6.012   0.053
12963TIP3    H160304   0.986   5.986   0.051
12963TIP3    H260305   0.892   6.096   0.008
12964TIP3   OH260306   4.486   4.851  14.380
12964TIP3    H160307   4.434   4.908  14.436
12964TIP3    H260308   4.432   4.772  14.369
12965TIP3   OH260309   5.449   5.001  13.950
12965TIP3    H160310   5.460   4.977  13.858
12965TIP3    H260311   5.524   5.059  13.968
12966TIP3   OH260312   1.374   5.111  10.989
12966TIP3    H160313   1.459   5.154  10.982
12966TIP3    H260314   1.311   5.176  10.958
12967TIP3   OH260315   6.312   3.111  14.073
12967TIP3    H160316   6.319   3.027  14.028
12967TIP3    H260317   6.385   3.162  14.038
12968TIP3   OH260318   5.959   0.948   2.052
12968TIP3    H160319   6.021   0.876   2.043
12968TIP3    H260320   5.997   1.019   2.000
12969TIP3   OH260321   6.170   2.485   5.207
12969TIP3    H160322   6.153   2.441   5.290
12969TIP3    H260323   6.236   2.431   5.164
12970TIP3   OH260324   2.834   3.297   2.644
12970TIP3    H160325   2.766   3.270   2.705
12970TIP3    H260326   2.906   3.326   2.700
12971TIP3   OH260327   3.215   1.767  15.661
12971TIP3    H160328   3.120   1.776  15.661
12971TIP3    H260329   3.240   1.772  15.753
12972TIP3   OH260330   6.488   4.762   3.810
12972TIP3    H160331   6.404   4.740   3.769
12972TIP3    H260332   6.477   4.852   3.840
12973TIP3   OH260333   5.511   0.136   0.876
12973TIP3    H160334   5.550   0.073   0.815
12973TIP3    H260335   5.495   0.086   0.956
12974TIP3   OH260336   4.031   3.851   6.488
12974TIP3    H160337   4.032   3.755   6.483
12974TIP3    H260338   4.123   3.876   6.478
12975TIP3   OH260339   0.549   2.634   2.476
12975TIP3    H160340   0.459   2.605   2.457
12975TIP3    H260341   0.577   2.678   2.395
12976TIP3   OH260342   1.375   4.114  13.453
12976TIP3    H160343   1.465   4.125  13.424
12976TIP3    H260344   1.347   4.031  13.414
12977TIP3   OH260345   2.360   1.073  15.382
12977TIP3    H160346   2.425   1.021  15.336
12977TIP3    H260347   2.327   1.134  15.316
12978TIP3   OH260348   0.613   6.712  14.901
12978TIP3    H160349   0.521   6.706  14.929
12978TIP3    H260350   0.618   6.795  14.853
12979TIP3   OH260351   4.195   0.707  15.586
12979TIP3    H160352   4.260   0.642  15.558
12979TIP3    H260353   4.191   0.697  15.682
12980TIP3   OH260354   4.792   1.998  17.149
12980TIP3    H160355   4.854   2.022  17.080
12980TIP3    H260356   4.741   2.077  17.165
12981TIP3   OH260357   2.776   0.670  14.841
12981TIP3    H160358   2.827   0.724  14.902
12981TIP3    H260359   2.718   0.732  14.797
12982TIP3   OH260360   1.250   1.579  16.279
12982TIP3    H160361   1.304   1.576  16.358
12982TIP3    H260362   1.287   1.650  16.227
12983TIP3   OH260363   4.533   5.563  11.373
12983TIP3    H160364   4.570   5.623  11.308
12983TIP3    H260365   4.549   5.607  11.457
12984TIP3   OH260366   0.798   0.596  16.747
12984TIP3    H160367   0.885   0.595  16.786
12984TIP3    H260368   0.793   0.681  16.702
12985TIP3   OH260369   4.465   5.809   0.918
12985TIP3    H160370   4.517   5.868   0.972
12985TIP3    H260371   4.482   5.722   0.953
12986TIP3   OH260372   2.002   2.346  11.610
12986TIP3    H160373   2.083   2.386  11.578
12986TIP3    H260374   1.945   2.419  11.632
12987TIP3   OH260375   1.384   0.167   0.770
12987TIP3    H160376   1.470   0.129   0.785
12987TIP3    H260377   1.337   0.100   0.720
12988TIP3   OH260378   5.870   4.572   6.131
12988TIP3    H160379   5.868   4.618   6.214
12988TIP3    H260380   5.870   4.480   6.154
12989TIP3   OH260381   2.067   3.619   2.138
12989TIP3    H160382   2.112   3.629   2.054
12989TIP3    H260383   2.079   3.526   2.160
12990TIP3   OH260384   1.381   6.407   3.560
12990TIP3    H160385   1.362   6.378   3.649
12990TIP3    H260386   1.382   6.327   3.508
12991TIP3   OH260387   1.170   0.877   1.073
12991TIP3    H160388   1.180   0.807   1.137
12991TIP3    H260389   1.147   0.954   1.125
12992TIP3   OH260390   1.322   0.109   0.159
12992TIP3    H160391   1.406   0.113   0.205
12992TIP3    H260392   1.275   0.038   0.202
12993TIP3   OH260393   0.527   3.569  15.848
12993TIP3    H160394   0.619   3.567  15.821
12993TIP3    H260395   0.518   3.651  15.896
12994TIP3   OH260396   3.308   5.701  11.800
12994TIP3    H160397   3.315   5.722  11.893
12994TIP3    H260398   3.356   5.619  11.790
12995TIP3   OH260399   4.763   5.045   5.390
12995TIP3    H160400   4.737   5.110   5.325
12995TIP3    H260401   4.766   5.093   5.473
12996TIP3   OH260402   6.268   6.078   4.574
12996TIP3    H160403   6.293   6.024   4.650
12996TIP3    H260404   6.352   6.111   4.540
12997TIP3   OH260405   0.452   4.034   0.042
12997TIP3    H160406   0.454   4.127   0.064
12997TIP3    H260407   0.543   4.005   0.054
12998TIP3   OH260408   4.061   6.432  16.045
12998TIP3    H160409   3.967   6.425  16.066
12998TIP3    H260410   4.100   6.353  16.082
12999TIP3   OH260411   1.144   2.372   0.967
12999TIP3    H160412   1.127   2.423   1.046
12999TIP3    H260413   1.060   2.333   0.945
13000TIP3   OH260414   5.194   4.175   1.097
13000TIP3    H160415   5.289   4.180   1.084
13000TIP3    H260416   5.161   4.258   1.063
13001TIP3   OH260417   0.864   6.557  16.275
13001TIP3    H160418   0.891   6.624  16.338
13001TIP3    H260419   0.772   6.542  16.292
13002TIP3   OH260420   3.732   0.878  14.536
13002TIP3    H160421   3.654   0.869  14.481
13002TIP3    H260422   3.705   0.936  14.607
13003TIP3   OH260423   4.177   2.647  17.226
13003TIP3    H160424   4.176   2.738  17.198
13003TIP3    H260425   4.198   2.651  17.319
13004TIP3   OH260426   1.544   6.058  14.066
13004TIP3    H160427   1.598   6.121  14.019
13004TIP3    H260428   1.536   5.984  14.006
13005TIP3   OH260429   3.825   2.132  13.978
13005TIP3    H160430   3.860   2.123  13.890
13005TIP3    H260431   3.838   2.224  14.000
13006TIP3   OH260432   6.647   1.630   3.843
13006TIP3    H160433   6.595   1.689   3.897
13006TIP3    H260434   6.607   1.636   3.756
13007TIP3   OH260435   2.416   6.088  13.077
13007TIP3    H160436   2.457   6.153  13.134
13007TIP3    H260437   2.488   6.053  13.024
13008TIP3   OH260438   1.142   5.979   1.184
13008TIP3    H160439   1.212   5.925   1.149
13008TIP3    H260440   1.134   6.051   1.121
13009TIP3   OH260441   0.117   6.594  13.172
13009TIP3    H160442   0.132   6.631  13.259
13009TIP3    H260443   0.142   6.502  13.180
13010TIP3   OH260444   3.398   3.477   3.407
13010TIP3    H160445   3.385   3.526   3.488
13010TIP3    H260446   3.312   3.439   3.387
13011TIP3   OH260447   1.944   5.897   2.206
13011TIP3    H160448   1.885   5.962   2.243
13011TIP3    H260449   1.960   5.926   2.116
13012TIP3   OH260450   6.330   0.374  13.063
13012TIP3    H160451   6.398   0.309  13.042
13012TIP3    H260452   6.273   0.329  13.125
13013TIP3   OH260453   4.688   1.629   5.527
13013TIP3    H160454   4.621   1.688   5.491
13013TIP3    H260455   4.771   1.668   5.500
13014TIP3   OH260456   4.024   0.216  12.843
13014TIP3    H160457   4.054   0.236  12.755
13014TIP3    H260458   4.004   0.123  12.842
13015TIP3   OH260459   2.683   0.514   3.729
13015TIP3    H160460   2.617   0.507   3.660
13015TIP3    H260461   2.637   0.555   3.802
13016TIP3   OH260462   1.050   5.568   5.150
13016TIP3    H160463   0.956   5.562   5.134
13016TIP3    H260464   1.060   5.555   5.244
13017TIP3   OH260465   1.593   0.425  13.459
13017TIP3    H160466   1.667   0.461  13.410
13017TIP3    H260467   1.632   0.391  13.539
13018TIP3   OH260468   6.303   2.833   4.697
13018TIP3    H160469   6.259   2.892   4.636
13018TIP3    H260470   6.395   2.858   4.693
13019TIP3   OH260471   5.237   5.391   4.616
13019TIP3    H160472   5.321   5.404   4.659
13019TIP3    H260473   5.209   5.304   4.642
13020TIP3   OH260474   3.724   1.757  12.046
13020TIP3    H160475   3.768   1.707  12.114
13020TIP3    H260476   3.645   1.706  12.025
13021TIP3   OH260477   5.723   1.163  15.441
13021TIP3    H160478   5.655   1.171  15.507
13021TIP3    H260479   5.681   1.189  15.359
13022TIP3   OH260480   3.729   2.986  15.708
13022TIP3    H160481   3.707   2.900  15.741
13022TIP3    H260482   3.683   3.047  15.766
13023TIP3   OH260483   6.342   4.794  10.673
13023TIP3    H160484   6.423   4.746  10.658
13023TIP3    H260485   6.347   4.868  10.613
13024TIP3   OH260486   3.185   3.991  13.194
13024TIP3    H160487   3.128   4.014  13.267
13024TIP3    H260488   3.220   3.905  13.217
13025TIP3   OH260489   4.608   1.317  10.961
13025TIP3    H160490   4.615   1.315  11.057
13025TIP3    H260491   4.572   1.232  10.937
13026TIP3   OH260492   5.816   6.588   5.302
13026TIP3    H160493   5.770   6.530   5.362
13026TIP3    H260494   5.856   6.530   5.238
13027TIP3   OH260495   0.461   5.519  15.227
13027TIP3    H160496   0.500   5.437  15.257
13027TIP3    H260497   0.372   5.517  15.262
13028TIP3   OH260498   4.748   4.686  12.012
13028TIP3    H160499   4.659   4.702  11.980
13028TIP3    H260500   4.741   4.695  12.108
13029TIP3   OH260501   1.264   4.353   3.589
13029TIP3    H160502   1.230   4.342   3.500
13029TIP3    H260503   1.356   4.326   3.583
13030TIP3   OH260504   2.709   1.725   4.594
13030TIP3    H160505   2.767   1.666   4.545
13030TIP3    H260506   2.621   1.692   4.576
13031TIP3   OH260507   1.341   4.877   0.150
13031TIP3    H160508   1.280   4.822   0.101
13031TIP3    H260509   1.291   4.909   0.224
13032TIP3   OH260510   2.178   1.304  11.048
13032TIP3    H160511   2.182   1.301  10.953
13032TIP3    H260512   2.242   1.240  11.078
13033TIP3   OH260513   0.065   2.908  12.658
13033TIP3    H160514  -0.008   2.960  12.626
13033TIP3    H260515   0.127   2.973  12.692
13034TIP3   OH260516   2.358   4.085  15.628
13034TIP3    H160517   2.352   4.104  15.722
13034TIP3    H260518   2.354   3.990  15.623
13035TIP3   OH260519   0.980   6.153   3.684
13035TIP3    H160520   0.976   6.154   3.588
13035TIP3    H260521   0.938   6.071   3.709
13036TIP3   OH260522   6.368   3.923  10.758
13036TIP3    H160523   6.354   3.835  10.794
13036TIP3    H260524   6.301   3.977  10.801
13037TIP3   OH260525   2.960   5.959   3.890
13037TIP3    H160526   3.015   6.001   3.955
13037TIP3    H260527   2.895   5.910   3.941
13038TIP3   OH260528   3.219   2.776   4.208
13038TIP3    H160529   3.152   2.812   4.267
13038TIP3    H260530   3.177   2.699   4.169
13039TIP3   OH260531   3.145   6.729  12.610
13039TIP3    H160532   3.192   6.797  12.658
13039TIP3    H260533   3.203   6.653  12.612
13040TIP3   OH260534   3.632   5.510   3.880
13040TIP3    H160535   3.628   5.558   3.797
13040TIP3    H260536   3.648   5.578   3.946
13041TIP3   OH260537   5.637   3.154  11.418
13041TIP3    H160538   5.554   3.126  11.458
13041TIP3    H260539   5.625   3.247  11.401
13042TIP3   OH260540   0.278   1.663   0.057
13042TIP3    H160541   0.237   1.741   0.019
13042TIP3    H260542   0.216   1.631   0.122
13043TIP3   OH260543   4.503   4.730  11.861
13043TIP3    H160544   4.550   4.699  11.784
13043TIP3    H260545   4.411   4.729  11.836
13044TIP3   OH260546   6.064   6.644  13.109
13044TIP3    H160547   6.022   6.572  13.062
13044TIP3    H260548   6.145   6.606  13.143
13045TIP3   OH260549   2.810   3.498   3.416
13045TIP3    H160550   2.768   3.571   3.460
13045TIP3    H260551   2.895   3.532   3.387
13046TIP3   OH260552   2.095   4.143   0.188
13046TIP3    H160553   2.173   4.173   0.236
13046TIP3    H260554   2.123   4.062   0.145
13047TIP3   OH260555   1.770   6.298   5.966
13047TIP3    H160556   1.836   6.265   6.026
13047TIP3    H260557   1.795   6.389   5.950
13048TIP3   OH260558   2.534   2.579  17.179
13048TIP3    H160559   2.504   2.538  17.260
13048TIP3    H260560   2.524   2.510  17.112
13049TIP3   OH260561   0.288   2.486   6.632
13049TIP3    H160562   0.224   2.493   6.562
13049TIP3    H260563   0.301   2.391   6.643
13050TIP3   OH260564   6.688   6.598  11.041
13050TIP3    H160565   6.693   6.524  10.980
13050TIP3    H260566   6.724   6.672  10.992
13051TIP3   OH260567   5.409   5.132   4.371
13051TIP3    H160568   5.378   5.102   4.285
13051TIP3    H260569   5.329   5.146   4.421
13052TIP3   OH260570   4.339   1.565   0.612
13052TIP3    H160571   4.368   1.526   0.695
13052TIP3    H260572   4.282   1.498   0.573
13053TIP3   OH260573   5.223   2.591  16.746
13053TIP3    H160574   5.271   2.645  16.809
13053TIP3    H260575   5.252   2.502  16.764
13054TIP3   OH260576   5.499   5.270  14.719
13054TIP3    H160577   5.537   5.252  14.806
13054TIP3    H260578   5.461   5.186  14.692
13055TIP3   OH260579   1.639   4.069   3.810
13055TIP3    H160580   1.727   4.096   3.782
13055TIP3    H260581   1.655   4.012   3.885
13056TIP3   OH260582   4.535   1.444  11.911
13056TIP3    H160583   4.606   1.478  11.857
13056TIP3    H260584   4.578   1.409  11.989
13057TIP3   OH260585   0.090   3.036   5.538
13057TIP3    H160586   0.174   3.051   5.581
13057TIP3    H260587   0.100   3.075   5.451
13058TIP3   OH260588   5.920   4.527   0.350
13058TIP3    H160589   5.852   4.580   0.309
13058TIP3    H260590   5.909   4.440   0.312
13059TIP3   OH260591   6.331   2.438  15.379
13059TIP3    H160592   6.404   2.377  15.368
13059TIP3    H260593   6.356   2.515  15.326
13060TIP3   OH260594   1.351   1.304  11.060
13060TIP3    H160595   1.282   1.258  11.012
13060TIP3    H260596   1.418   1.322  10.993
13061TIP3   OH260597   2.755   4.481  12.046
13061TIP3    H160598   2.752   4.404  12.103
13061TIP3    H260599   2.756   4.445  11.957
13062TIP3   OH260600   3.911   5.377  13.223
13062TIP3    H160601   3.824   5.412  13.205
13062TIP3    H260602   3.898   5.320  13.299
13063TIP3   OH260603   1.907   5.187  15.945
13063TIP3    H160604   1.914   5.274  15.905
13063TIP3    H260605   1.818   5.158  15.925
13064TIP3   OH260606   4.342   1.745  14.422
13064TIP3    H160607   4.412   1.750  14.357
13064TIP3    H260608   4.383   1.709  14.500
13065TIP3   OH260609   5.702   0.641   5.774
13065TIP3    H160610   5.615   0.605   5.789
13065TIP3    H260611   5.761   0.571   5.804
13066TIP3   OH260612   2.658   1.512  10.914
13066TIP3    H160613   2.714   1.448  10.870
13066TIP3    H260614   2.582   1.521  10.856
13067TIP3   OH260615   2.745   4.262  15.010
13067TIP3    H160616   2.720   4.293  14.923
13067TIP3    H260617   2.807   4.327  15.042
13068TIP3   OH260618   1.330   1.570   4.465
13068TIP3    H160619   1.380   1.632   4.412
13068TIP3    H260620   1.313   1.617   4.547
13069TIP3   OH260621   5.528   4.600  15.227
13069TIP3    H160622   5.465   4.597  15.156
13069TIP3    H260623   5.613   4.610  15.183
13070TIP3   OH260624   2.885   2.129  12.825
13070TIP3    H160625   2.938   2.171  12.756
13070TIP3    H260626   2.800   2.115  12.784
13071TIP3   OH260627   5.186   6.737  11.684
13071TIP3    H160628   5.223   6.817  11.722
13071TIP3    H260629   5.157   6.686  11.760
13072TIP3   OH260630   5.465   1.689   2.600
13072TIP3    H160631   5.440   1.596   2.607
13072TIP3    H260632   5.492   1.713   2.688
13073TIP3   OH260633   2.022   0.797   4.964
13073TIP3    H160634   1.994   0.836   5.046
13073TIP3    H260635   2.052   0.709   4.989
13074TIP3   OH260636   4.804   1.189   3.687
13074TIP3    H160637   4.790   1.094   3.677
13074TIP3    H260638   4.785   1.206   3.779
13075TIP3   OH260639   3.391   1.907   0.606
13075TIP3    H160640   3.343   1.918   0.688
13075TIP3    H260641   3.352   1.971   0.546
13076TIP3   OH260642   1.447   6.301   5.929
13076TIP3    H160643   1.470   6.253   5.849
13076TIP3    H260644   1.524   6.294   5.984
13077TIP3   OH260645   0.046   3.181  15.687
13077TIP3    H160646   0.023   3.271  15.710
13077TIP3    H260647   0.141   3.181  15.680
13078TIP3   OH260648   3.704   3.084  12.432
13078TIP3    H160649   3.683   3.157  12.490
13078TIP3    H260650   3.659   3.009  12.472
13079TIP3   OH260651   0.521   3.962  14.415
13079TIP3    H160652   0.439   4.000  14.384
13079TIP3    H260653   0.504   3.868  14.420
13080TIP3   OH260654   0.805   3.279  12.527
13080TIP3    H160655   0.761   3.360  12.553
13080TIP3    H260656   0.883   3.275  12.582
13081TIP3   OH260657   2.683   6.359  14.895
13081TIP3    H160658   2.609   6.398  14.847
13081TIP3    H260659   2.748   6.341  14.827
13082TIP3   OH260660   5.674   5.650   2.278
13082TIP3    H160661   5.768   5.632   2.277
13082TIP3    H260662   5.634   5.564   2.268
13083TIP3   OH260663   1.636   1.480   3.220
13083TIP3    H160664   1.730   1.479   3.199
13083TIP3    H260665   1.632   1.455   3.312
13084TIP3   OH260666   5.997   0.509  11.832
13084TIP3    H160667   5.992   0.428  11.781
13084TIP3    H260668   6.018   0.480  11.921
13085TIP3   OH260669   3.626   3.160   4.083
13085TIP3    H160670   3.685   3.194   4.015
13085TIP3    H260671   3.593   3.077   4.048
13086TIP3   OH260672   3.602   4.550  16.727
13086TIP3    H160673   3.680   4.540  16.782
13086TIP3    H260674   3.545   4.478  16.754
13087TIP3   OH260675   3.898   6.305  11.885
13087TIP3    H160676   3.822   6.254  11.912
13087TIP3    H260677   3.971   6.242  11.887
13088TIP3   OH260678   5.309   0.513  12.461
13088TIP3    H160679   5.369   0.482  12.529
13088TIP3    H260680   5.247   0.569  12.508
13089TIP3   OH260681   2.122   5.950  12.827
13089TIP3    H160682   2.038   5.925  12.787
13089TIP3    H260683   2.100   5.968  12.919
13090TIP3   OH260684   4.690   5.165   1.406
13090TIP3    H160685   4.663   5.101   1.341
13090TIP3    H260686   4.669   5.250   1.367
13091TIP3   OH260687   3.650   0.632  16.332
13091TIP3    H160688   3.614   0.575  16.264
13091TIP3    H260689   3.579   0.693  16.352
13092TIP3   OH260690   0.392   2.421  14.010
13092TIP3    H160691   0.480   2.392  13.986
13092TIP3    H260692   0.339   2.341  14.010
13093TIP3   OH260693   1.937   6.458   1.892
13093TIP3    H160694   2.025   6.477   1.860
13093TIP3    H260695   1.902   6.542   1.920
13094TIP3   OH260696   2.627   5.182   3.352
13094TIP3    H160697   2.720   5.168   3.369
13094TIP3    H260698   2.614   5.153   3.262
13095TIP3   OH260699   5.440   6.419   0.211
13095TIP3    H160700   5.441   6.409   0.116
13095TIP3    H260701   5.439   6.329   0.245
13096TIP3   OH260702   4.107   4.728  12.060
13096TIP3    H160703   4.045   4.767  11.998
13096TIP3    H260704   4.060   4.728  12.143
13097TIP3   OH260705   4.607   0.623   3.474
13097TIP3    H160706   4.515   0.605   3.453
13097TIP3    H260707   4.604   0.698   3.534
13098TIP3   OH260708   3.526   5.907   2.190
13098TIP3    H160709   3.571   5.832   2.151
13098TIP3    H260710   3.559   5.911   2.279
13099TIP3   OH260711   3.741   1.989   6.333
13099TIP3    H160712   3.717   1.896   6.335
13099TIP3    H260713   3.813   1.997   6.395
13100TIP3   OH260714   2.777   6.540   2.822
13100TIP3    H160715   2.808   6.629   2.808
13100TIP3    H260716   2.846   6.499   2.876
13101TIP3   OH260717   3.588   2.201  12.500
13101TIP3    H160718   3.519   2.207  12.434
13101TIP3    H260719   3.549   2.149  12.570
13102TIP3   OH260720   4.732   4.040   1.457
13102TIP3    H160721   4.821   4.051   1.489
13102TIP3    H260722   4.735   3.961   1.404
13103TIP3   OH260723   3.544   3.636   4.090
13103TIP3    H160724   3.508   3.549   4.071
13103TIP3    H260725   3.484   3.697   4.047
13104TIP3   OH260726   5.195   2.383  12.861
13104TIP3    H160727   5.124   2.446  12.874
13104TIP3    H260728   5.161   2.301  12.897
13105TIP3   OH260729   2.035   5.807  15.448
13105TIP3    H160730   2.105   5.872  15.449
13105TIP3    H260731   2.052   5.754  15.370
13106TIP3   OH260732   6.499   3.016   5.627
13106TIP3    H160733   6.412   2.997   5.593
13106TIP3    H260734   6.554   2.947   5.591
13107TIP3   OH260735   3.095   0.964  11.291
13107TIP3    H160736   3.145   0.886  11.315
13107TIP3    H260737   3.056   0.942  11.206
13108TIP3   OH260738   2.365   3.798  15.572
13108TIP3    H160739   2.277   3.795  15.535
13108TIP3    H260740   2.361   3.741  15.648
13109TIP3   OH260741   2.676   4.176   3.586
13109TIP3    H160742   2.619   4.227   3.645
13109TIP3    H260743   2.742   4.138   3.643
13110TIP3   OH260744   2.976   3.812  12.478
13110TIP3    H160745   2.889   3.845  12.497
13110TIP3    H260746   2.964   3.756  12.401
13111TIP3   OH260747   2.196   4.680   3.183
13111TIP3    H160748   2.266   4.668   3.118
13111TIP3    H260749   2.150   4.759   3.154
13112TIP3   OH260750   5.523   4.069   2.115
13112TIP3    H160751   5.601   4.118   2.089
13112TIP3    H260752   5.540   4.043   2.206
13113TIP3   OH260753   4.289   6.704  15.229
13113TIP3    H160754   4.284   6.797  15.207
13113TIP3    H260755   4.289   6.702  15.325
13114TIP3   OH260756   6.659   3.892  13.895
13114TIP3    H160757   6.652   3.914  13.988
13114TIP3    H260758   6.702   3.968  13.856
13115TIP3   OH260759   2.557   0.392   0.891
13115TIP3    H160760   2.546   0.374   0.984
13115TIP3    H260761   2.468   0.399   0.856
13116TIP3   OH260762   2.149   2.831   1.657
13116TIP3    H160763   2.102   2.906   1.619
13116TIP3    H260764   2.240   2.860   1.661
13117TIP3   OH260765   5.525   4.281  12.472
13117TIP3    H160766   5.496   4.366  12.438
13117TIP3    H260767   5.616   4.274  12.444
13118TIP3   OH260768   4.829   0.866  13.477
13118TIP3    H160769   4.921   0.892  13.485
13118TIP3    H260770   4.794   0.878  13.566
13119TIP3   OH260771   2.459   4.925  14.115
13119TIP3    H160772   2.415   5.010  14.118
13119TIP3    H260773   2.522   4.934  14.043
13120TIP3   OH260774   5.149   1.074  16.142
13120TIP3    H160775   5.153   0.999  16.083
13120TIP3    H260776   5.240   1.088  16.169
13121TIP3   OH260777   3.924   1.363  16.093
13121TIP3    H160778   3.989   1.419  16.134
13121TIP3    H260779   3.918   1.287  16.151
13122TIP3   OH260780   0.237   2.669  16.765
13122TIP3    H160781   0.217   2.591  16.714
13122TIP3    H260782   0.248   2.638  16.854
13123TIP3   OH260783   6.399   4.895  12.064
13123TIP3    H160784   6.369   4.873  12.152
13123TIP3    H260785   6.476   4.840  12.051
13124TIP3   OH260786   1.051   0.949   4.201
13124TIP3    H160787   1.116   0.948   4.131
13124TIP3    H260788   1.008   0.864   4.195
13125TIP3   OH260789   2.262   2.968  16.956
13125TIP3    H160790   2.180   3.018  16.957
13125TIP3    H260791   2.330   3.035  16.964
13126TIP3   OH260792   1.635   0.437   2.770
13126TIP3    H160793   1.608   0.403   2.855
13126TIP3    H260794   1.693   0.510   2.790
13127TIP3   OH260795   1.462   6.409   5.172
13127TIP3    H160796   1.426   6.443   5.253
13127TIP3    H260797   1.532   6.349   5.201
13128TIP3   OH260798   5.598   1.733   3.423
13128TIP3    H160799   5.622   1.755   3.333
13128TIP3    H260800   5.506   1.707   3.417
13129TIP3   OH260801   3.831   3.955   1.944
13129TIP3    H160802   3.762   4.002   1.990
13129TIP3    H260803   3.788   3.878   1.907
13130TIP3   OH260804   6.497   3.869  11.958
13130TIP3    H160805   6.587   3.875  11.991
13130TIP3    H260806   6.493   3.933  11.887
13131TIP3   OH260807   1.810   3.414  14.717
13131TIP3    H160808   1.890   3.414  14.663
13131TIP3    H260809   1.794   3.507  14.735
13132TIP3   OH260810   4.040   5.118  16.164
13132TIP3    H160811   4.120   5.095  16.212
13132TIP3    H260812   3.995   5.034  16.152
13133TIP3   OH260813   2.475   0.037  12.571
13133TIP3    H160814   2.389   0.077  12.581
13133TIP3    H260815   2.478   0.011  12.479
13134TIP3   OH260816   5.116   2.005   0.061
13134TIP3    H160817   5.026   2.024   0.033
13134TIP3    H260818   5.148   1.943  -0.004
13135TIP3   OH260819   3.176   2.056  15.909
13135TIP3    H160820   3.177   2.107  15.828
13135TIP3    H260821   3.259   2.008  15.908
13136TIP3   OH260822   3.146   2.044   5.511
13136TIP3    H160823   3.052   2.030   5.506
13136TIP3    H260824   3.159   2.098   5.589
13137TIP3   OH260825   4.146   5.167   0.423
13137TIP3    H160826   4.055   5.197   0.427
13137TIP3    H260827   4.144   5.094   0.361
13138TIP3   OH260828   1.519   4.776  15.786
13138TIP3    H160829   1.437   4.783  15.737
13138TIP3    H260830   1.494   4.737  15.869
13139TIP3   OH260831   4.168   3.484   6.009
13139TIP3    H160832   4.123   3.562   6.041
13139TIP3    H260833   4.212   3.513   5.928
13140TIP3   OH260834   0.155   2.420   4.406
13140TIP3    H160835   0.247   2.426   4.379
13140TIP3    H260836   0.153   2.345   4.466
13141TIP3   OH260837   0.147   5.304  15.920
13141TIP3    H160838   0.145   5.259  15.836
13141TIP3    H260839   0.056   5.332  15.934
13142TIP3   OH260840   0.822   6.747  17.156
13142TIP3    H160841   0.782   6.807  17.093
13142TIP3    H260842   0.826   6.663  17.109
13143TIP3   OH260843   5.719   3.074   5.439
13143TIP3    H160844   5.624   3.070   5.432
13143TIP3    H260845   5.736   3.157   5.485
13144TIP3   OH260846   4.836   3.870  11.113
13144TIP3    H160847   4.920   3.830  11.137
13144TIP3    H260848   4.836   3.871  11.017
13145TIP3   OH260849   2.720   0.612  11.823
13145TIP3    H160850   2.775   0.658  11.886
13145TIP3    H260851   2.713   0.672  11.749
13146TIP3   OH260852   0.008   1.604   0.630
13146TIP3    H160853   0.083   1.655   0.600
13146TIP3    H260854   0.046   1.531   0.679
13147TIP3   OH260855   1.848   3.312  13.589
13147TIP3    H160856   1.896   3.306  13.506
13147TIP3    H260857   1.904   3.267  13.652
13148TIP3   OH260858   3.539   6.150  13.441
13148TIP3    H160859   3.482   6.074  13.444
13148TIP3    H260860   3.625   6.117  13.466
13149TIP3   OH260861   3.633   4.015   3.280
13149TIP3    H160862   3.672   3.953   3.342
13149TIP3    H260863   3.549   4.038   3.320
13150TIP3   OH260864   1.491   2.233   4.337
13150TIP3    H160865   1.451   2.148   4.356
13150TIP3    H260866   1.585   2.216   4.340
13151TIP3   OH260867   4.801   2.376  12.026
13151TIP3    H160868   4.827   2.325  12.103
13151TIP3    H260869   4.882   2.419  11.998
13152TIP3   OH260870   1.232   6.000  15.735
13152TIP3    H160871   1.140   5.979  15.745
13152TIP3    H260872   1.276   5.915  15.731
13153TIP3   OH260873   1.712   2.706   2.348
13153TIP3    H160874   1.722   2.684   2.441
13153TIP3    H260875   1.791   2.756   2.327
13154TIP3   OH260876   6.479   3.839  14.584
13154TIP3    H160877   6.450   3.768  14.641
13154TIP3    H260878   6.398   3.887  14.564
13155TIP3   OH260879   0.421   4.488   2.018
13155TIP3    H160880   0.377   4.478   1.934
13155TIP3    H260881   0.366   4.440   2.080
13156TIP3   OH260882   5.340   6.630  12.827
13156TIP3    H160883   5.372   6.544  12.801
13156TIP3    H260884   5.250   6.615  12.855
13157TIP3   OH260885   6.004   6.520   2.455
13157TIP3    H160886   6.087   6.543   2.495
13157TIP3    H260887   6.028   6.470   2.377
13158TIP3   OH260888   4.370   3.137  12.207
13158TIP3    H160889   4.385   3.227  12.180
13158TIP3    H260890   4.342   3.092  12.127
13159TIP3   OH260891   0.727   2.841   2.822
13159TIP3    H160892   0.777   2.895   2.883
13159TIP3    H260893   0.740   2.751   2.853
13160TIP3   OH260894   5.319   3.555   0.712
13160TIP3    H160895   5.295   3.593   0.796
13160TIP3    H260896   5.397   3.604   0.685
13161TIP3   OH260897   5.745   2.353  12.999
13161TIP3    H160898   5.695   2.299  13.060
13161TIP3    H260899   5.681   2.412  12.959
13162TIP3   OH260900   6.618   1.336  13.404
13162TIP3    H160901   6.692   1.276  13.405
13162TIP3    H260902   6.573   1.319  13.486
13163TIP3   OH260903   6.318   5.331   0.895
13163TIP3    H160904   6.292   5.310   0.805
13163TIP3    H260905   6.278   5.262   0.948
13164TIP3   OH260906   0.239   1.319   6.820
13164TIP3    H160907   0.331   1.318   6.795
13164TIP3    H260908   0.199   1.250   6.767
13165TIP3   OH260909   3.919   6.471   2.186
13165TIP3    H160910   3.870   6.554   2.188
13165TIP3    H260911   4.007   6.495   2.213
13166TIP3   OH260912   2.452   3.620   6.396
13166TIP3    H160913   2.513   3.596   6.327
13166TIP3    H260914   2.368   3.633   6.351
13167TIP3   OH260915   4.525   5.445   0.617
13167TIP3    H160916   4.504   5.354   0.596
13167TIP3    H260917   4.515   5.450   0.712
13168TIP3   OH260918   2.137   6.400  12.055
13168TIP3    H160919   2.117   6.486  12.020
13168TIP3    H260920   2.123   6.408  12.149
13169TIP3   OH260921   0.337   4.452  12.384
13169TIP3    H160922   0.381   4.443  12.299
13169TIP3    H260923   0.269   4.385  12.382
13170TIP3   OH260924   0.691   5.318  11.992
13170TIP3    H160925   0.684   5.295  11.899
13170TIP3    H260926   0.779   5.290  12.017
13171TIP3   OH260927   1.803   2.768   5.066
13171TIP3    H160928   1.880   2.825   5.056
13171TIP3    H260929   1.731   2.827   5.086
13172TIP3   OH260930   2.043   3.356   6.140
13172TIP3    H160931   2.055   3.451   6.144
13172TIP3    H260932   1.948   3.345   6.138
13173TIP3   OH260933   6.610   3.902   6.422
13173TIP3    H160934   6.640   3.811   6.423
13173TIP3    H260935   6.541   3.904   6.489
13174TIP3   OH260936   5.379   4.724  13.557
13174TIP3    H160937   5.324   4.737  13.480
13174TIP3    H260938   5.442   4.657  13.531
13175TIP3   OH260939   5.979   3.442   5.873
13175TIP3    H160940   5.984   3.513   5.809
13175TIP3    H260941   5.885   3.430   5.888
13176TIP3   OH260942   5.190   1.810  13.662
13176TIP3    H160943   5.110   1.827  13.710
13176TIP3    H260944   5.178   1.856  13.579
13177TIP3   OH260945   6.013   5.101  16.557
13177TIP3    H160946   6.098   5.135  16.530
13177TIP3    H260947   6.001   5.136  16.646
13178TIP3   OH260948   0.736   1.151  11.725
13178TIP3    H160949   0.690   1.222  11.771
13178TIP3    H260950   0.825   1.155  11.758
13179TIP3   OH260951   6.330   4.601  14.505
13179TIP3    H160952   6.289   4.521  14.472
13179TIP3    H260953   6.258   4.664  14.509
13180TIP3   OH260954   4.739   3.237   6.202
13180TIP3    H160955   4.702   3.161   6.248
13180TIP3    H260956   4.810   3.201   6.149
13181TIP3   OH260957   1.636   1.315  11.751
13181TIP3    H160958   1.550   1.355  11.744
13181TIP3    H260959   1.645   1.262  11.672
13182TIP3   OH260960   0.162   0.828  13.205
13182TIP3    H160961   0.108   0.831  13.285
13182TIP3    H260962   0.182   0.735  13.193
13183TIP3   OH260963   2.318   3.494  15.469
13183TIP3    H160964   2.272   3.577  15.481
13183TIP3    H260965   2.290   3.464  15.382
13184TIP3   OH260966   1.012   1.710  15.955
13184TIP3    H160967   0.936   1.697  16.012
13184TIP3    H260968   0.974   1.723  15.868
13185TIP3   OH260969   6.383   4.272   5.705
13185TIP3    H160970   6.351   4.320   5.781
13185TIP3    H260971   6.340   4.186   5.712
13186TIP3   OH260972   1.085   0.019  11.790
13186TIP3    H160973   1.148   0.056  11.852
13186TIP3    H260974   1.002   0.019  11.838
13187TIP3   OH260975   5.795   6.105   4.254
13187TIP3    H160976   5.811   6.184   4.307
13187TIP3    H260977   5.735   6.053   4.307
13188TIP3   OH260978   6.121   6.196   2.533
13188TIP3    H160979   6.191   6.249   2.571
13188TIP3    H260980   6.164   6.113   2.512
13189TIP3   OH260981   4.883   5.198   0.734
13189TIP3    H160982   4.957   5.246   0.697
13189TIP3    H260983   4.851   5.253   0.805
13190TIP3   OH260984   2.485   3.408  13.737
13190TIP3    H160985   2.510   3.318  13.757
13190TIP3    H260986   2.567   3.458  13.743
13191TIP3   OH260987   3.586   3.394  15.747
13191TIP3    H160988   3.672   3.376  15.785
13191TIP3    H260989   3.593   3.362  15.657
13192TIP3   OH260990   1.359   5.123  13.768
13192TIP3    H160991   1.294   5.192  13.781
13192TIP3    H260992   1.443   5.167  13.786
13193TIP3   OH260993   5.133   5.198  11.549
13193TIP3    H160994   5.132   5.124  11.610
13193TIP3    H260995   5.172   5.164  11.469
13194TIP3   OH260996   1.061   0.346  15.550
13194TIP3    H160997   1.009   0.318  15.626
13194TIP3    H260998   1.145   0.372  15.587
13195TIP3   OH260999   4.717   3.465  14.204
13195TIP3    H161000   4.729   3.377  14.169
13195TIP3    H261001   4.804   3.494  14.230
13196TIP3   OH261002   4.120   6.464   4.495
13196TIP3    H161003   4.025   6.453   4.495
13196TIP3    H261004   4.135   6.535   4.558
13197TIP3   OH261005   4.268   0.713   6.728
13197TIP3    H161006   4.312   0.644   6.779
13197TIP3    H261007   4.337   0.777   6.712
13198TIP3   OH261008   2.995   1.461   1.778
13198TIP3    H161009   3.033   1.544   1.806
13198TIP3    H261010   3.014   1.400   1.849
13199TIP3   OH261011   3.366   5.645   2.042
13199TIP3    H161012   3.438   5.702   2.014
13199TIP3    H261013   3.298   5.705   2.072
13200TIP3   OH261014   2.198   6.492   4.146
13200TIP3    H161015   2.176   6.555   4.215
13200TIP3    H261016   2.286   6.463   4.167
13201TIP3   OH261017   4.050   5.968  13.688
13201TIP3    H161018   3.993   6.012  13.625
13201TIP3    H261019   4.126   5.942  13.636
13202TIP3   OH261020   2.333   6.770  14.818
13202TIP3    H161021   2.289   6.818  14.747
13202TIP3    H261022   2.261   6.734  14.870
13203TIP3   OH261023   0.499   5.439  14.955
13203TIP3    H161024   0.504   5.445  15.050
13203TIP3    H261025   0.420   5.388  14.938
13204TIP3   OH261026   1.980   4.641  12.727
13204TIP3    H161027   2.057   4.597  12.691
13204TIP3    H261028   2.016   4.700  12.793
13205TIP3   OH261029   6.657   3.237  12.265
13205TIP3    H161030   6.729   3.228  12.203
13205TIP3    H261031   6.585   3.274  12.213
13206TIP3   OH261032   5.914   1.541  11.532
13206TIP3    H161033   5.982   1.516  11.595
13206TIP3    H261034   5.880   1.458  11.499
13207TIP3   OH261035   5.609   1.080   4.062
13207TIP3    H161036   5.624   1.168   4.026
13207TIP3    H261037   5.589   1.026   3.986
13208TIP3   OH261038   2.080   6.213   6.391
13208TIP3    H161039   2.154   6.243   6.444
13208TIP3    H261040   2.078   6.118   6.404
13209TIP3   OH261041   6.046   2.219  15.955
13209TIP3    H161042   6.085   2.265  16.029
13209TIP3    H261043   6.067   2.274  15.879
13210TIP3   OH261044   0.017   1.086  14.572
13210TIP3    H161045   0.059   1.040  14.644
13210TIP3    H261046  -0.033   1.156  14.614
13211TIP3   OH261047   3.216   3.998   0.949
13211TIP3    H161048   3.300   4.017   0.907
13211TIP3    H261049   3.217   4.050   1.029
13212TIP3   OH261050   0.478   3.071   4.284
13212TIP3    H161051   0.391   3.033   4.291
13212TIP3    H261052   0.474   3.152   4.334
13213TIP3   OH261053   3.939   3.495   3.109
13213TIP3    H161054   4.004   3.527   3.046
13213TIP3    H261055   3.969   3.406   3.130
13214TIP3   OH261056   5.617   0.906  15.626
13214TIP3    H161057   5.640   0.989  15.667
13214TIP3    H261058   5.565   0.931  15.549
13215TIP3   OH261059   0.417   1.204  10.664
13215TIP3    H161060   0.471   1.185  10.587
13215TIP3    H261061   0.475   1.252  10.723
13216TIP3   OH261062   1.838   5.685   0.135
13216TIP3    H161063   1.757   5.732   0.155
13216TIP3    H261064   1.866   5.721   0.051
13217TIP3   OH261065   5.060   3.398  14.600
13217TIP3    H161066   4.991   3.332  14.606
13217TIP3    H261067   5.063   3.422  14.508
13218TIP3   OH261068   3.127   1.042  14.435
13218TIP3    H161069   3.041   1.010  14.407
13218TIP3    H261070   3.187   0.970  14.418
13219TIP3   OH261071   2.745   5.485  16.715
13219TIP3    H161072   2.738   5.434  16.634
13219TIP3    H261073   2.807   5.555  16.693
13220TIP3   OH261074   4.650   0.223   2.008
13220TIP3    H161075   4.639   0.312   2.042
13220TIP3    H261076   4.571   0.177   2.038
13221TIP3   OH261077   6.198   2.333  13.147
13221TIP3    H161078   6.128   2.325  13.083
13221TIP3    H261079   6.164   2.395  13.211
13222TIP3   OH261080   6.630   0.806  11.733
13222TIP3    H161081   6.683   0.880  11.703
13222TIP3    H261082   6.550   0.811  11.681
13223TIP3   OH261083   3.075   5.288   3.280
13223TIP3    H161084   3.043   5.361   3.228
13223TIP3    H261085   3.164   5.272   3.248
13224TIP3   OH261086   2.864   3.492  16.501
13224TIP3    H161087   2.886   3.560  16.437
13224TIP3    H261088   2.769   3.498  16.509
13225TIP3   OH261089   3.815   0.705  14.213
13225TIP3    H161090   3.884   0.686  14.149
13225TIP3    H261091   3.790   0.796  14.194
13226TIP3   OH261092   4.447   5.557   2.831
13226TIP3    H161093   4.421   5.592   2.746
13226TIP3    H261094   4.427   5.626   2.893
13227TIP3   OH261095   2.335   0.320  12.858
13227TIP3    H161096   2.303   0.268  12.932
13227TIP3    H261097   2.389   0.388  12.898
13228TIP3   OH261098   4.044   3.375  12.869
13228TIP3    H161099   4.069   3.333  12.787
13228TIP3    H261100   3.960   3.334  12.893
13229TIP3   OH261101   3.441   0.427  12.262
13229TIP3    H161102   3.445   0.459  12.352
13229TIP3    H261103   3.410   0.337  12.269
13230TIP3   OH261104   3.774   2.289   2.012
13230TIP3    H161105   3.712   2.219   1.991
13230TIP3    H261106   3.860   2.250   1.996
13231TIP3   OH261107   2.636   3.491  12.376
13231TIP3    H161108   2.719   3.470  12.419
13231TIP3    H261109   2.569   3.447  12.429
13232TIP3   OH261110   0.446   1.208  15.957
13232TIP3    H161111   0.450   1.151  16.034
13232TIP3    H261112   0.497   1.286  15.982
13233TIP3   OH261113   0.169   4.087   3.556
13233TIP3    H161114   0.150   4.181   3.547
13233TIP3    H261115   0.259   4.078   3.526
13234TIP3   OH261116   3.398   6.297  15.292
13234TIP3    H161117   3.395   6.387  15.326
13234TIP3    H261118   3.308   6.266  15.301
13235TIP3   OH261119   0.168   2.331   0.752
13235TIP3    H161120   0.247   2.361   0.796
13235TIP3    H261121   0.111   2.302   0.824
13236TIP3   OH261122   0.564   2.156   0.688
13236TIP3    H161123   0.638   2.095   0.694
13236TIP3    H261124   0.586   2.226   0.748
13237TIP3   OH261125   0.113   1.589   5.015
13237TIP3    H161126   0.083   1.680   5.022
13237TIP3    H261127   0.042   1.543   4.971
13238TIP3   OH261128   0.569   0.312   5.100
13238TIP3    H161129   0.608   0.376   5.159
13238TIP3    H261130   0.638   0.247   5.085
13239TIP3   OH261131   2.841   1.121  16.711
13239TIP3    H161132   2.786   1.087  16.641
13239TIP3    H261133   2.812   1.075  16.789
13240TIP3   OH261134   3.538   1.597   2.882
13240TIP3    H161135   3.483   1.529   2.920
13240TIP3    H261136   3.618   1.552   2.854
13241TIP3   OH261137   1.473   5.734   4.241
13241TIP3    H161138   1.385   5.696   4.252
13241TIP3    H261139   1.461   5.827   4.257
13242TIP3   OH261140   2.902   5.522   4.028
13242TIP3    H161141   2.886   5.480   4.112
13242TIP3    H261142   2.946   5.604   4.050
13243TIP3   OH261143   2.427   1.468  14.236
13243TIP3    H161144   2.504   1.510  14.197
13243TIP3    H261145   2.414   1.514  14.318
13244TIP3   OH261146   5.652   1.023   1.570
13244TIP3    H161147   5.587   1.017   1.501
13244TIP3    H261148   5.664   0.933   1.600
13245TIP3   OH261149   5.227   3.504   3.357
13245TIP3    H161150   5.225   3.425   3.411
13245TIP3    H261151   5.320   3.518   3.338
13246TIP3   OH261152   2.005   0.541   4.788
13246TIP3    H161153   2.091   0.509   4.817
13246TIP3    H261154   1.975   0.475   4.726
13247TIP3   OH261155   0.644   6.602  11.451
13247TIP3    H161156   0.580   6.660  11.410
13247TIP3    H261157   0.631   6.615  11.545
13248TIP3   OH261158   6.353   6.000  15.285
13248TIP3    H161159   6.309   6.002  15.200
13248TIP3    H261160   6.282   6.001  15.349
13249TIP3   OH261161   1.873   4.200  14.571
13249TIP3    H161162   1.842   4.125  14.621
13249TIP3    H261163   1.949   4.231  14.619
13250TIP3   OH261164   4.067   3.461   0.567
13250TIP3    H161165   4.142   3.400   0.564
13250TIP3    H261166   3.991   3.405   0.552
13251TIP3   OH261167   1.967   2.991   1.546
13251TIP3    H161168   1.982   3.085   1.532
13251TIP3    H261169   1.871   2.983   1.549
13252TIP3   OH261170   4.506   0.496   4.922
13252TIP3    H161171   4.591   0.463   4.893
13252TIP3    H261172   4.509   0.488   5.018
13253TIP3   OH261173   3.042   6.616  12.886
13253TIP3    H161174   3.048   6.585  12.795
13253TIP3    H261175   3.033   6.536  12.938
13254TIP3   OH261176   3.345   0.749   1.744
13254TIP3    H161177   3.436   0.778   1.741
13254TIP3    H261178   3.307   0.778   1.661
13255TIP3   OH261179   5.536   2.668   0.879
13255TIP3    H161180   5.452   2.636   0.846
13255TIP3    H261181   5.598   2.650   0.809
13256TIP3   OH261182   6.615   2.776  14.054
13256TIP3    H161183   6.654   2.847  14.004
13256TIP3    H261184   6.661   2.778  14.138
13257TIP3   OH261185   4.163   0.607   0.451
13257TIP3    H161186   4.184   0.591   0.543
13257TIP3    H261187   4.187   0.699   0.436
13258TIP3   OH261188   0.542   3.054   5.006
13258TIP3    H161189   0.453   3.024   4.988
13258TIP3    H261190   0.540   3.148   4.986
13259TIP3   OH261191   6.781   5.018   2.613
13259TIP3    H161192   6.720   5.029   2.540
13259TIP3    H261193   6.779   5.102   2.659
13260TIP3   OH261194   3.917   3.562  14.378
13260TIP3    H161195   3.853   3.603  14.437
13260TIP3    H261196   3.873   3.559  14.294
13261TIP3   OH261197   3.057   5.044   5.161
13261TIP3    H161198   3.143   5.022   5.197
13261TIP3    H261199   3.048   5.138   5.177
13262TIP3   OH261200   4.929   5.118  14.317
13262TIP3    H161201   4.852   5.125  14.260
13262TIP3    H261202   4.933   5.202  14.362
13263TIP3   OH261203   3.415   4.225   4.282
13263TIP3    H161204   3.408   4.318   4.304
13263TIP3    H261205   3.471   4.223   4.205
13264TIP3   OH261206   6.529   1.887  10.526
13264TIP3    H161207   6.529   1.967  10.579
13264TIP3    H261208   6.621   1.861  10.523
13265TIP3   OH261209   0.572   3.405  15.401
13265TIP3    H161210   0.657   3.437  15.430
13265TIP3    H261211   0.512   3.431  15.471
13266TIP3   OH261212   6.712   3.277   0.586
13266TIP3    H161213   6.646   3.319   0.641
13266TIP3    H261214   6.662   3.228   0.521
13267TIP3   OH261215   2.492   0.143  11.365
13267TIP3    H161216   2.443   0.101  11.436
13267TIP3    H261217   2.487   0.081  11.292
13268TIP3   OH261218   1.535   2.025  16.141
13268TIP3    H161219   1.512   2.117  16.125
13268TIP3    H261220   1.480   2.000  16.216
13269TIP3   OH261221   6.111   5.910  13.367
13269TIP3    H161222   6.108   5.856  13.288
13269TIP3    H261223   6.103   5.848  13.440
13270TIP3   OH261224   2.903   4.195  13.786
13270TIP3    H161225   2.855   4.248  13.721
13270TIP3    H261226   2.879   4.105  13.765
13271TIP3   OH261227   4.604   4.310   5.554
13271TIP3    H161228   4.585   4.236   5.612
13271TIP3    H261229   4.518   4.339   5.523
13272TIP3   OH261230   6.469   5.358   3.339
13272TIP3    H161231   6.516   5.285   3.298
13272TIP3    H261232   6.471   5.427   3.273
13273TIP3   OH261233   0.505   5.496   2.194
13273TIP3    H161234   0.545   5.583   2.196
13273TIP3    H261235   0.443   5.500   2.121
13274TIP3   OH261236   4.739   2.536  12.304
13274TIP3    H161237   4.770   2.627  12.307
13274TIP3    H261238   4.812   2.486  12.342
13275TIP3   OH261239   1.557   1.857   5.293
13275TIP3    H161240   1.466   1.885   5.287
13275TIP3    H261241   1.607   1.929   5.254
13276TIP3   OH261242   3.171   5.180  12.338
13276TIP3    H161243   3.186   5.133  12.420
13276TIP3    H261244   3.164   5.112  12.272
13277TIP3   OH261245   2.083   0.661   5.179
13277TIP3    H161246   2.008   0.602   5.182
13277TIP3    H261247   2.119   0.660   5.268
13278TIP3   OH261248   4.849   3.525  13.929
13278TIP3    H161249   4.831   3.435  13.957
13278TIP3    H261250   4.767   3.572  13.944
13279TIP3   OH261251   5.494   2.141  12.775
13279TIP3    H161252   5.502   2.199  12.850
13279TIP3    H261253   5.430   2.075  12.803
13280TIP3   OH261254   4.310   3.437   2.305
13280TIP3    H161255   4.378   3.401   2.361
13280TIP3    H261256   4.349   3.440   2.218
13281TIP3   OH261257   5.372   6.623  16.744
13281TIP3    H161258   5.375   6.690  16.675
13281TIP3    H261259   5.280   6.615  16.766
13282TIP3   OH261260   1.930   6.667   1.064
13282TIP3    H161261   1.970   6.580   1.065
13282TIP3    H261262   1.868   6.666   1.137
13283TIP3   OH261263   5.894   5.967   3.839
13283TIP3    H161264   5.853   5.929   3.916
13283TIP3    H261265   5.912   6.058   3.864
13284TIP3   OH261266   1.911   1.223  14.648
13284TIP3    H161267   1.846   1.210  14.717
13284TIP3    H261268   1.987   1.260  14.693
13285TIP3   OH261269   5.150   0.316  15.342
13285TIP3    H161270   5.124   0.307  15.250
13285TIP3    H261271   5.246   0.313  15.340
13286TIP3   OH261272   1.477   1.366  11.299
13286TIP3    H161273   1.440   1.314  11.227
13286TIP3    H261274   1.510   1.445  11.256
13287TIP3   OH261275   3.666   6.531   3.509
13287TIP3    H161276   3.736   6.593   3.489
13287TIP3    H261277   3.586   6.574   3.478
13288TIP3   OH261278   5.471   0.839   4.534
13288TIP3    H161279   5.548   0.784   4.519
13288TIP3    H261280   5.482   0.913   4.474
13289TIP3   OH261281   2.358   2.448  14.986
13289TIP3    H161282   2.440   2.400  14.974
13289TIP3    H261283   2.369   2.494  15.069
13290TIP3   OH261284   1.937   6.100  16.575
13290TIP3    H161285   1.934   6.055  16.491
13290TIP3    H261286   1.963   6.032  16.637
13291TIP3   OH261287   3.848   3.063   2.841
13291TIP3    H161288   3.867   3.070   2.748
13291TIP3    H261289   3.769   3.010   2.846
13292TIP3   OH261290   0.527   4.263   4.514
13292TIP3    H161291   0.590   4.203   4.553
13292TIP3    H261292   0.476   4.210   4.454
13293TIP3   OH261293   2.630   0.462   5.113
13293TIP3    H161294   2.689   0.415   5.172
13293TIP3    H261295   2.565   0.502   5.171
13294TIP3   OH261296   2.613   0.289   3.146
13294TIP3    H161297   2.594   0.225   3.078
13294TIP3    H261298   2.540   0.350   3.144
13295TIP3   OH261299   2.453   2.978   1.638
13295TIP3    H161300   2.519   2.995   1.571
13295TIP3    H261301   2.396   3.055   1.635
13296TIP3   OH261302   6.609   5.825   0.940
13296TIP3    H161303   6.596   5.912   0.901
13296TIP3    H261304   6.530   5.776   0.917
13297TIP3   OH261305   0.885   6.324   1.145
13297TIP3    H161306   0.814   6.308   1.083
13297TIP3    H261307   0.906   6.417   1.134
13298TIP3   OH261308   1.665   4.918   3.530
13298TIP3    H161309   1.636   4.853   3.594
13298TIP3    H261310   1.760   4.910   3.529
13299TIP3   OH261311   1.829   0.036   3.306
13299TIP3    H161312   1.797  -0.054   3.313
13299TIP3    H261313   1.920   0.026   3.276
13300TIP3   OH261314   6.275   0.160   0.587
13300TIP3    H161315   6.361   0.156   0.545
13300TIP3    H261316   6.260   0.253   0.604
13301TIP3   OH261317   5.096   3.862   0.154
13301TIP3    H161318   5.098   3.879   0.248
13301TIP3    H261319   5.015   3.904   0.124
13302TIP3   OH261320   6.357   6.494  13.935
13302TIP3    H161321   6.263   6.505  13.948
13302TIP3    H261322   6.380   6.419  13.990
13303TIP3   OH261323   1.903   2.302   2.644
13303TIP3    H161324   1.885   2.388   2.605
13303TIP3    H261325   1.850   2.300   2.723
13304TIP3   OH261326   3.982   5.382   5.915
13304TIP3    H161327   4.000   5.290   5.899
13304TIP3    H261328   3.929   5.383   5.995
13305TIP3   OH261329   1.998   3.400  15.298
13305TIP3    H161330   2.081   3.428  15.259
13305TIP3    H261331   1.995   3.306  15.280
13306TIP3   OH261332   6.035   3.893  16.074
13306TIP3    H161333   6.104   3.876  16.138
13306TIP3    H261334   6.075   3.953  16.011
13307TIP3   OH261335   6.743   2.600   2.321
13307TIP3    H161336   6.785   2.585   2.405
13307TIP3    H261337   6.733   2.513   2.283
13308TIP3   OH261338   5.189   5.856   5.668
13308TIP3    H161339   5.135   5.915   5.614
13308TIP3    H261340   5.127   5.790   5.700
13309TIP3   OH261341   2.582   4.750  15.446
13309TIP3    H161342   2.526   4.773  15.372
13309TIP3    H261343   2.597   4.656  15.437
13310TIP3   OH261344   3.048   0.500  10.862
13310TIP3    H161345   3.127   0.458  10.829
13310TIP3    H261346   2.980   0.433  10.854
13311TIP3   OH261347   4.982   3.367   3.785
13311TIP3    H161348   4.974   3.461   3.772
13311TIP3    H261349   4.894   3.333   3.771
13312TIP3   OH261350   1.734   1.501  14.766
13312TIP3    H161351   1.719   1.456  14.849
13312TIP3    H261352   1.654   1.488  14.716
13313TIP3   OH261353   4.454   4.678   4.325
13313TIP3    H161354   4.492   4.728   4.252
13313TIP3    H261355   4.375   4.638   4.288
13314TIP3   OH261356   0.346   3.431   5.280
13314TIP3    H161357   0.332   3.350   5.232
13314TIP3    H261358   0.259   3.454   5.314
13315TIP3   OH261359   4.026   0.007   4.441
13315TIP3    H161360   4.116  -0.015   4.419
13315TIP3    H261361   4.001  -0.056   4.508
13316TIP3   OH261362   1.372   1.143  15.761
13316TIP3    H161363   1.405   1.230  15.736
13316TIP3    H261364   1.283   1.159  15.793
13317TIP3   OH261365   4.445   2.765  11.585
13317TIP3    H161366   4.393   2.843  11.605
13317TIP3    H261367   4.505   2.794  11.517
13318TIP3   OH261368   5.835   0.202  16.232
13318TIP3    H161369   5.844   0.172  16.142
13318TIP3    H261370   5.866   0.292  16.231
13319TIP3   OH261371   1.777   0.784  16.568
13319TIP3    H161372   1.780   0.849  16.639
13319TIP3    H261373   1.856   0.731  16.581
13320TIP3   OH261374   1.395   2.537   3.509
13320TIP3    H161375   1.320   2.580   3.549
13320TIP3    H261376   1.471   2.581   3.547
13321TIP3   OH261377   4.238   5.724  13.646
13321TIP3    H161378   4.278   5.807  13.621
13321TIP3    H261379   4.308   5.659  13.633
13322TIP3   OH261380   2.316   3.843  16.666
13322TIP3    H161381   2.308   3.748  16.660
13322TIP3    H261382   2.355   3.858  16.752
13323TIP3   OH261383   0.921   0.561  16.013
13323TIP3    H161384   0.951   0.613  15.938
13323TIP3    H261385   0.825   0.563  16.006
13324TIP3   OH261386   3.883   1.275  10.426
13324TIP3    H161387   3.802   1.314  10.458
13324TIP3    H261388   3.926   1.241  10.505
13325TIP3   OH261389   1.056   4.317  16.213
13325TIP3    H161390   1.125   4.253  16.230
13325TIP3    H261391   1.102   4.393  16.177
13326TIP3   OH261392   0.171   0.901  12.913
13326TIP3    H161393   0.104   0.910  12.846
13326TIP3    H261394   0.131   0.846  12.980
13327TIP3   OH261395   0.640   2.280  13.916
13327TIP3    H161396   0.650   2.291  13.822
13327TIP3    H261397   0.690   2.201  13.937
13328TIP3   OH261398   0.755   4.725   5.576
13328TIP3    H161399   0.681   4.786   5.569
13328TIP3    H261400   0.771   4.719   5.670
13329TIP3   OH261401   0.664   2.342   6.328
13329TIP3    H161402   0.622   2.413   6.376
13329TIP3    H261403   0.739   2.318   6.382
13330TIP3   OH261404   4.864   1.855   5.458
13330TIP3    H161405   4.846   1.936   5.411
13330TIP3    H261406   4.937   1.877   5.517
13331TIP3   OH261407   2.198   4.467  14.987
13331TIP3    H161408   2.250   4.461  15.067
13331TIP3    H261409   2.179   4.561  14.978
13332TIP3   OH261410   5.894   2.462  12.666
13332TIP3    H161411   5.967   2.523  12.659
13332TIP3    H261412   5.839   2.499  12.735
13333TIP3   OH261413   5.985   4.599  15.617
13333TIP3    H161414   5.905   4.594  15.670
13333TIP3    H261415   5.957   4.639  15.535
13334TIP3   OH261416   3.049   3.169   6.185
13334TIP3    H161417   2.965   3.184   6.142
13334TIP3    H261418   3.078   3.084   6.153
13335TIP3   OH261419   6.731   5.715  11.737
13335TIP3    H161420   6.720   5.773  11.812
13335TIP3    H261421   6.784   5.765  11.676
13336TIP3   OH261422   6.572   2.853  15.651
13336TIP3    H161423   6.580   2.936  15.699
13336TIP3    H261424   6.506   2.870  15.584
13337TIP3   OH261425   0.562   6.709   3.652
13337TIP3    H161426   0.467   6.720   3.646
13337TIP3    H261427   0.595   6.798   3.667
13338TIP3   OH261428   1.851   4.023   5.766
13338TIP3    H161429   1.771   4.041   5.815
13338TIP3    H261430   1.847   4.083   5.691
13339TIP3   OH261431   2.917   1.150   3.492
13339TIP3    H161432   2.953   1.102   3.567
13339TIP3    H261433   2.992   1.198   3.457
13340TIP3   OH261434   0.356   4.219   2.951
13340TIP3    H161435   0.429   4.182   2.901
13340TIP3    H261436   0.299   4.145   2.969
13341TIP3   OH261437   6.622   5.126   3.374
13341TIP3    H161438   6.685   5.165   3.435
13341TIP3    H261439   6.562   5.077   3.430
13342TIP3   OH261440   5.811   5.968   0.844
13342TIP3    H161441   5.720   5.988   0.866
13342TIP3    H261442   5.860   6.047   0.868
13343TIP3   OH261443   0.680   4.083  15.301
13343TIP3    H161444   0.603   4.026  15.296
13343TIP3    H261445   0.644   4.171  15.309
13344TIP3   OH261446   4.997   4.140  13.091
13344TIP3    H161447   5.068   4.112  13.033
13344TIP3    H261448   4.920   4.146  13.035
13345TIP3   OH261449   2.772   5.421  16.076
13345TIP3    H161450   2.748   5.337  16.115
13345TIP3    H261451   2.703   5.481  16.102
13346TIP3   OH261452   5.644   5.746   5.501
13346TIP3    H161453   5.691   5.745   5.584
13346TIP3    H261454   5.552   5.737   5.526
13347TIP3   OH261455   6.168   2.200  16.446
13347TIP3    H161456   6.259   2.194  16.417
13347TIP3    H261457   6.134   2.111  16.435
13348TIP3   OH261458   5.622   1.836  12.301
13348TIP3    H161459   5.540   1.869  12.336
13348TIP3    H261460   5.649   1.768  12.363
13349TIP3   OH261461   0.235   6.410  15.431
13349TIP3    H161462   0.205   6.484  15.377
13349TIP3    H261463   0.180   6.414  15.509
13350TIP3   OH261464   3.684   4.537   3.010
13350TIP3    H161465   3.671   4.462   3.068
13350TIP3    H261466   3.595   4.571   2.995
13351TIP3   OH261467   5.759   5.526  14.215
13351TIP3    H161468   5.750   5.592  14.284
13351TIP3    H261469   5.784   5.446  14.261
13352TIP3   OH261470   3.303   4.877  11.890
13352TIP3    H161471   3.234   4.921  11.939
13352TIP3    H261472   3.265   4.791  11.867
13353TIP3   OH261473   3.447   5.602  12.573
13353TIP3    H161474   3.396   5.606  12.492
13353TIP3    H261475   3.388   5.560  12.636
13354TIP3   OH261476   5.409   1.484  13.483
13354TIP3    H161477   5.371   1.458  13.567
13354TIP3    H261478   5.503   1.492  13.500
13355TIP3   OH261479   2.257   6.459   3.858
13355TIP3    H161480   2.255   6.523   3.928
13355TIP3    H261481   2.296   6.381   3.898
13356TIP3   OH261482   3.767   2.110  11.791
13356TIP3    H161483   3.690   2.156  11.824
13356TIP3    H261484   3.736   2.022  11.771
13357TIP3   OH261485   2.445   4.419  16.405
13357TIP3    H161486   2.473   4.339  16.361
13357TIP3    H261487   2.524   4.454  16.446
13358TIP3   OH261488   3.035   5.086  14.784
13358TIP3    H161489   3.070   5.152  14.844
13358TIP3    H261490   2.960   5.130  14.742
13359TIP3   OH261491   1.081   5.079   2.776
13359TIP3    H161492   1.095   5.142   2.847
13359TIP3    H261493   0.990   5.051   2.786
13360TIP3   OH261494   4.028   6.306  12.529
13360TIP3    H161495   4.116   6.302  12.567
13360TIP3    H261496   3.994   6.391  12.555
13361TIP3   OH261497   0.155   1.600   5.320
13361TIP3    H161498   0.186   1.509   5.318
13361TIP3    H261499   0.059   1.593   5.323
13362TIP3   OH261500   4.599   0.738  14.640
13362TIP3    H161501   4.675   0.705  14.592
13362TIP3    H261502   4.523   0.706  14.590
13363TIP3   OH261503   2.919   6.451   5.313
13363TIP3    H161504   2.862   6.382   5.278
13363TIP3    H261505   2.866   6.495   5.379
13364TIP3   OH261506   6.008   4.655  17.196
13364TIP3    H161507   6.098   4.622  17.200
13364TIP3    H261508   5.953   4.579  17.217
13365TIP3   OH261509   3.695   4.884   0.941
13365TIP3    H161510   3.659   4.865   1.028
13365TIP3    H261511   3.749   4.808   0.920
13366TIP3   OH261512   4.300   1.465  16.766
13366TIP3    H161513   4.260   1.548  16.794
13366TIP3    H261514   4.255   1.398  16.817
13367TIP3   OH261515   5.088   5.213   3.363
13367TIP3    H161516   5.027   5.266   3.311
13367TIP3    H261517   5.154   5.275   3.393
13368TIP3   OH261518   5.050   3.935  16.818
13368TIP3    H161519   5.128   3.989  16.826
13368TIP3    H261520   5.078   3.860  16.764
13369TIP3   OH261521   0.887   4.276   5.719
13369TIP3    H161522   0.807   4.302   5.764
13369TIP3    H261523   0.882   4.180   5.715
13370TIP3   OH261524   5.724   1.432   2.669
13370TIP3    H161525   5.715   1.526   2.654
13370TIP3    H261526   5.804   1.423   2.722
13371TIP3   OH261527   0.146   6.138   0.364
13371TIP3    H161528   0.095   6.152   0.284
13371TIP3    H261529   0.193   6.220   0.377
13372TIP3   OH261530   0.366   3.867   4.048
13372TIP3    H161531   0.336   3.809   4.118
13372TIP3    H261532   0.324   3.951   4.066
13373TIP3   OH261533   4.632   4.236   2.816
13373TIP3    H161534   4.573   4.186   2.872
13373TIP3    H261535   4.702   4.174   2.793
13374TIP3   OH261536   2.857   3.116  13.972
13374TIP3    H161537   2.903   3.112  13.888
13374TIP3    H261538   2.900   3.188  14.019
13375TIP3   OH261539   1.997   2.675   3.107
13375TIP3    H161540   2.069   2.611   3.104
13375TIP3    H261541   2.020   2.740   3.041
13376TIP3   OH261542   1.277   3.099   4.334
13376TIP3    H161543   1.193   3.141   4.351
13376TIP3    H261544   1.330   3.119   4.412
13377TIP3   OH261545   4.806   4.002  16.413
13377TIP3    H161546   4.870   3.957  16.358
13377TIP3    H261547   4.775   3.935  16.474
13378TIP3   OH261548   2.303   5.150  14.746
13378TIP3    H161549   2.330   5.142  14.838
13378TIP3    H261550   2.376   5.194  14.703
13379TIP3   OH261551   1.978   5.569   4.199
13379TIP3    H161552   1.994   5.484   4.158
13379TIP3    H261553   1.938   5.548   4.283
13380TIP3   OH261554   2.795   1.528   0.928
13380TIP3    H161555   2.888   1.510   0.945
13380TIP3    H261556   2.796   1.609   0.877
13381TIP3   OH261557   0.802   5.260   2.832
13381TIP3    H161558   0.760   5.343   2.858
13381TIP3    H261559   0.892   5.268   2.864
13382TIP3   OH261560   0.775   5.357   4.342
13382TIP3    H161561   0.792   5.440   4.297
13382TIP3    H261562   0.706   5.316   4.290
13383TIP3   OH261563   3.745   4.535   1.153
13383TIP3    H161564   3.748   4.573   1.241
13383TIP3    H261565   3.798   4.456   1.160
13384TIP3   OH261566   5.526   3.959  13.471
13384TIP3    H161567   5.456   4.024  13.478
13384TIP3    H261568   5.509   3.913  13.389
13385TIP3   OH261569   4.069   4.602  14.859
13385TIP3    H161570   4.161   4.586  14.880
13385TIP3    H261571   4.072   4.677  14.799
13386TIP3   OH261572   1.402   5.415  14.107
13386TIP3    H161573   1.344   5.405  14.031
13386TIP3    H261574   1.443   5.330  14.118
13387TIP3   OH261575   5.722   0.538  12.936
13387TIP3    H161576   5.816   0.523  12.929
13387TIP3    H261577   5.713   0.597  13.011
13388TIP3   OH261578   0.702   0.381   4.723
13388TIP3    H161579   0.791   0.345   4.722
13388TIP3    H261580   0.673   0.374   4.632
13389TIP3   OH261581   0.288   4.006   2.545
13389TIP3    H161582   0.331   3.935   2.592
13389TIP3    H261583   0.222   4.039   2.607
13390TIP3   OH261584   5.400   1.255   3.127
13390TIP3    H161585   5.459   1.266   3.052
13390TIP3    H261586   5.391   1.161   3.137
13391TIP3   OH261587   5.418   6.753  13.660
13391TIP3    H161588   5.334   6.776  13.622
13391TIP3    H261589   5.408   6.773  13.753
13392TIP3   OH261590   3.523   4.082   5.015
13392TIP3    H161591   3.551   4.076   5.106
13392TIP3    H261592   3.601   4.058   4.965
13393TIP3   OH261593   4.761   4.829   5.600
13393TIP3    H161594   4.729   4.844   5.690
13393TIP3    H261595   4.728   4.904   5.551
13394TIP3   OH261596   1.038   1.310   2.700
13394TIP3    H161597   0.946   1.336   2.691
13394TIP3    H261598   1.040   1.255   2.778
13395TIP3   OH261599   4.147   1.066   3.969
13395TIP3    H161600   4.094   1.146   3.977
13395TIP3    H261601   4.213   1.075   4.038
13396TIP3   OH261602   6.016   1.529   5.719
13396TIP3    H161603   6.043   1.473   5.791
13396TIP3    H261604   6.066   1.497   5.643
13397TIP3   OH261605   5.393   1.341   6.671
13397TIP3    H161606   5.345   1.423   6.660
13397TIP3    H261607   5.380   1.294   6.589
13398TIP3   OH261608   5.603   2.077  13.531
13398TIP3    H161609   5.639   2.166  13.529
13398TIP3    H261610   5.655   2.029  13.466
13399TIP3   OH261611   2.666   2.578  16.036
13399TIP3    H161612   2.667   2.488  16.067
13399TIP3    H261613   2.701   2.629  16.109
13400TIP3   OH261614   4.635   4.533  15.627
13400TIP3    H161615   4.654   4.448  15.667
13400TIP3    H261616   4.631   4.514  15.533
13401TIP3   OH261617   3.752   1.659  10.407
13401TIP3    H161618   3.729   1.680  10.497
13401TIP3    H261619   3.669   1.653  10.361
13402TIP3   OH261620   6.566   1.204  12.768
13402TIP3    H161621   6.490   1.207  12.826
13402TIP3    H261622   6.566   1.289  12.724
13403TIP3   OH261623   5.846   6.291   0.242
13403TIP3    H161624   5.824   6.252   0.157
13403TIP3    H261625   5.832   6.384   0.230
13404TIP3   OH261626   1.157   3.878   5.514
13404TIP3    H161627   1.086   3.942   5.507
13404TIP3    H261628   1.116   3.801   5.554
13405TIP3   OH261629   0.486   3.855   2.302
13405TIP3    H161630   0.524   3.826   2.384
13405TIP3    H261631   0.557   3.905   2.259
13406TIP3   OH261632   3.879   1.978   2.542
13406TIP3    H161633   3.865   2.042   2.612
13406TIP3    H261634   3.927   1.907   2.584
13407TIP3   OH261635   4.102   4.432   2.675
13407TIP3    H161636   4.093   4.484   2.755
13407TIP3    H261637   4.193   4.444   2.648
13408TIP3   OH261638   3.717   5.649  12.456
13408TIP3    H161639   3.658   5.712  12.414
13408TIP3    H261640   3.663   5.571  12.469
13409TIP3   OH261641   0.040   2.523  15.916
13409TIP3    H161642   0.107   2.573  15.963
13409TIP3    H261643  -0.005   2.589  15.862
13410TIP3   OH261644   3.252   3.402   5.861
13410TIP3    H161645   3.189   3.446   5.919
13410TIP3    H261646   3.333   3.399   5.913
13411TIP3   OH261647   6.268   4.264  15.255
13411TIP3    H161648   6.299   4.202  15.188
13411TIP3    H261649   6.345   4.316  15.278
13412TIP3   OH261650   3.632   0.046   1.746
13412TIP3    H161651   3.727   0.037   1.753
13412TIP3    H261652   3.607   0.096   1.824
13413TIP3   OH261653   6.509   0.064   3.706
13413TIP3    H161654   6.554   0.039   3.787
13413TIP3    H261655   6.553   0.014   3.638
13414TIP3   OH261656   6.432   6.525  16.991
13414TIP3    H161657   6.483   6.444  16.997
13414TIP3    H261658   6.361   6.504  16.931
13415TIP3   OH261659   1.078   5.881   4.887
13415TIP3    H161660   1.118   5.884   4.800
13415TIP3    H261661   1.061   5.788   4.902
13416TIP3   OH261662   2.351   6.283  11.773
13416TIP3    H161663   2.413   6.343  11.816
13416TIP3    H261664   2.383   6.276  11.683
13417TIP3   OH261665   3.316   3.080   6.324
13417TIP3    H161666   3.292   3.097   6.233
13417TIP3    H261667   3.234   3.057   6.368
13418TIP3   OH261668   6.434   5.124  11.642
13418TIP3    H161669   6.482   5.202  11.612
13418TIP3    H261670   6.432   5.133  11.737
13419TIP3   OH261671   0.409   3.995  14.957
13419TIP3    H161672   0.501   3.995  14.933
13419TIP3    H261673   0.365   3.945  14.888
13420TIP3   OH261674   2.041   0.406  16.658
13420TIP3    H161675   1.952   0.378  16.678
13420TIP3    H261676   2.030   0.489  16.611
13421TIP3   OH261677   3.539   5.924   3.533
13421TIP3    H161678   3.501   6.012   3.526
13421TIP3    H261679   3.498   5.874   3.463
13422TIP3   OH261680   6.250   5.590  13.286
13422TIP3    H161681   6.222   5.597  13.377
13422TIP3    H261682   6.341   5.622  13.285
13423TIP3   OH261683   0.266   0.829   2.317
13423TIP3    H161684   0.232   0.851   2.404
13423TIP3    H261685   0.244   0.905   2.263
13424TIP3   OH261686   5.575   2.648  13.810
13424TIP3    H161687   5.510   2.586  13.841
13424TIP3    H261688   5.636   2.596  13.758
13425TIP3   OH261689   4.919   4.003  17.076
13425TIP3    H161690   4.972   4.047  17.143
13425TIP3    H261691   4.980   3.987  17.004
13426TIP3   OH261692   0.201   4.075   0.545
13426TIP3    H161693   0.220   3.987   0.577
13426TIP3    H261694   0.108   4.088   0.564
13427TIP3   OH261695   0.040   6.549   3.705
13427TIP3    H161696   0.135   6.546   3.691
13427TIP3    H261697   0.027   6.624   3.763
13428TIP3   OH261698   1.404   0.335  16.490
13428TIP3    H161699   1.404   0.326  16.586
13428TIP3    H261700   1.481   0.287  16.461
13429TIP3   OH261701   0.733   4.454   2.742
13429TIP3    H161702   0.678   4.533   2.745
13429TIP3    H261703   0.808   4.480   2.689
13430TIP3   OH261704   5.398   6.498  17.053
13430TIP3    H161705   5.464   6.471  16.989
13430TIP3    H261706   5.378   6.419  17.102
13431TIP3   OH261707   4.084   6.642   5.534
13431TIP3    H161708   4.096   6.675   5.623
13431TIP3    H261709   3.990   6.630   5.525
13432TIP3   OH261710   4.803   1.927  16.486
13432TIP3    H161711   4.894   1.898  16.496
13432TIP3    H261712   4.753   1.847  16.471
13433TIP3   OH261713   4.124   0.184   3.738
13433TIP3    H161714   4.099   0.104   3.692
13433TIP3    H261715   4.102   0.254   3.676
13434TIP3   OH261716   3.301   3.889   3.667
13434TIP3    H161717   3.322   3.935   3.748
13434TIP3    H261718   3.236   3.824   3.693
13435TIP3   OH261719   6.207   4.163   4.485
13435TIP3    H161720   6.179   4.071   4.488
13435TIP3    H261721   6.197   4.194   4.575
13436TIP3   OH261722   0.079   4.065   2.744
13436TIP3    H161723  -0.008   4.056   2.706
13436TIP3    H261724   0.071   4.137   2.806
13437TIP3   OH261725   5.443   5.374  11.625
13437TIP3    H161726   5.516   5.341  11.677
13437TIP3    H261727   5.453   5.331  11.540
13438TIP3   OH261728   0.644   0.222   6.512
13438TIP3    H161729   0.640   0.130   6.488
13438TIP3    H261730   0.678   0.223   6.601
13439TIP3   OH261731   0.447   4.904  12.071
13439TIP3    H161732   0.528   4.954  12.080
13439TIP3    H261733   0.473   4.823  12.028
13440TIP3   OH261734   2.234   5.739  14.175
13440TIP3    H161735   2.316   5.729  14.127
13440TIP3    H261736   2.239   5.827  14.213
13441TIP3   OH261737   0.421   4.589   4.927
13441TIP3    H161738   0.494   4.527   4.923
13441TIP3    H261739   0.343   4.536   4.914
13442TIP3   OH261740   5.216   5.722  13.733
13442TIP3    H161741   5.144   5.670  13.769
13442TIP3    H261742   5.295   5.683  13.769
13443TIP3   OH261743   1.103   5.822  12.146
13443TIP3    H161744   1.054   5.831  12.064
13443TIP3    H261745   1.138   5.733  12.143
13444TIP3   OH261746   2.429   5.760   0.178
13444TIP3    H161747   2.450   5.683   0.125
13444TIP3    H261748   2.370   5.812   0.124
13445TIP3   OH261749   1.285   6.314  12.894
13445TIP3    H161750   1.268   6.316  12.800
13445TIP3    H261751   1.342   6.237  12.907
13446TIP3   OH261752   5.445   4.902   4.600
13446TIP3    H161753   5.386   4.871   4.669
13446TIP3    H261754   5.391   4.904   4.521
13447TIP3   OH261755   5.531   5.758  12.959
13447TIP3    H161756   5.582   5.828  12.999
13447TIP3    H261757   5.483   5.800  12.888
13448TIP3   OH261758   4.211   5.788  11.554
13448TIP3    H161759   4.181   5.762  11.641
13448TIP3    H261760   4.210   5.707  11.503
13449TIP3   OH261761   5.502   2.832   2.772
13449TIP3    H161762   5.482   2.739   2.763
13449TIP3    H261763   5.533   2.841   2.862
13450TIP3   OH261764   2.175   3.404  14.315
13450TIP3    H161765   2.131   3.345  14.254
13450TIP3    H261766   2.152   3.492  14.284
13451TIP3   OH261767   5.787   1.354  14.791
13451TIP3    H161768   5.867   1.308  14.820
13451TIP3    H261769   5.734   1.286  14.749
13452TIP3   OH261770   2.100   3.747  11.565
13452TIP3    H161771   2.112   3.836  11.533
13452TIP3    H261772   2.048   3.757  11.645
13453TIP3   OH261773   5.155   5.407  13.019
13453TIP3    H161774   5.097   5.376  13.089
13453TIP3    H261775   5.154   5.502  13.028
13454TIP3   OH261776   5.327   1.533  12.370
13454TIP3    H161777   5.374   1.577  12.300
13454TIP3    H261778   5.335   1.592  12.445
13455TIP3   OH261779   5.678   0.988   1.244
13455TIP3    H161780   5.740   1.017   1.311
13455TIP3    H261781   5.657   1.067   1.195
13456TIP3   OH261782   5.579   0.163  13.070
13456TIP3    H161783   5.515   0.115  13.122
13456TIP3    H261784   5.651   0.101  13.059
13457TIP3   OH261785   2.848   1.879   1.977
13457TIP3    H161786   2.791   1.901   2.050
13457TIP3    H261787   2.828   1.787   1.958
13458TIP3   OH261788   1.056   6.451  14.529
13458TIP3    H161789   1.136   6.501  14.547
13458TIP3    H261790   1.002   6.463  14.607
13459TIP3   OH261791   0.309   2.674  14.972
13459TIP3    H161792   0.304   2.681  14.876
13459TIP3    H261793   0.293   2.763  15.003
13460TIP3   OH261794   0.877   1.609   2.807
13460TIP3    H161795   0.922   1.580   2.727
13460TIP3    H261796   0.948   1.641   2.863
13461TIP3   OH261797   3.558   6.564  16.901
13461TIP3    H161798   3.558   6.546  16.995
13461TIP3    H261799   3.488   6.510  16.865
13462TIP3   OH261800   0.163   3.527  12.614
13462TIP3    H161801   0.115   3.592  12.563
13462TIP3    H261802   0.103   3.453  12.622
13463TIP3   OH261803   4.753   4.522  14.211
13463TIP3    H161804   4.727   4.612  14.193
13463TIP3    H261805   4.714   4.502  14.296
13464TIP3   OH261806   3.267   5.076   3.225
13464TIP3    H161807   3.252   5.075   3.131
13464TIP3    H261808   3.362   5.072   3.234
13465TIP3   OH261809   5.525   2.841  11.511
13465TIP3    H161810   5.479   2.923  11.530
13465TIP3    H261811   5.488   2.811  11.428
13466TIP3   OH261812   4.835   3.516   0.665
13466TIP3    H161813   4.873   3.441   0.619
13466TIP3    H261814   4.908   3.577   0.676
13467TIP3   OH261815   2.611   1.732   3.204
13467TIP3    H161816   2.673   1.662   3.223
13467TIP3    H261817   2.655   1.812   3.235
13468TIP3   OH261818   2.412   6.274   3.183
13468TIP3    H161819   2.450   6.289   3.096
13468TIP3    H261820   2.320   6.252   3.165
13469TIP3   OH261821   6.708   4.897   5.268
13469TIP3    H161822   6.769   4.853   5.327
13469TIP3    H261823   6.743   4.879   5.180
13470TIP3   OH261824   6.577   6.029   4.799
13470TIP3    H161825   6.513   6.053   4.866
13470TIP3    H261826   6.656   6.079   4.821
13471TIP3   OH261827   1.879   2.098   1.215
13471TIP3    H161828   1.836   2.068   1.295
13471TIP3    H261829   1.945   2.031   1.196
13472TIP3   OH261830   2.344   1.432   3.093
13472TIP3    H161831   2.432   1.398   3.111
13472TIP3    H261832   2.354   1.482   3.012
13473TIP3   OH261833   3.746   3.759   5.207
13473TIP3    H161834   3.733   3.780   5.114
13473TIP3    H261835   3.840   3.746   5.216
13474TIP3   OH261836   3.309   2.095  13.541
13474TIP3    H161837   3.396   2.060  13.561
13474TIP3    H261838   3.287   2.148  13.618
13475TIP3   OH261839   6.073   6.599  14.717
13475TIP3    H161840   6.057   6.630  14.806
13475TIP3    H261841   5.991   6.557  14.692
13476TIP3   OH261842   4.248   5.253  12.026
13476TIP3    H161843   4.194   5.251  12.105
13476TIP3    H261844   4.194   5.300  11.962
13477TIP3   OH261845   6.180   0.463  12.385
13477TIP3    H161846   6.157   0.391  12.445
13477TIP3    H261847   6.275   0.461  12.381
13478TIP3   OH261848   4.667   0.146  13.567
13478TIP3    H161849   4.750   0.194  13.565
13478TIP3    H261850   4.613   0.189  13.501
13479TIP3   OH261851   3.901   6.452  14.374
13479TIP3    H161852   3.807   6.459  14.391
13479TIP3    H261853   3.914   6.362  14.345
13480TIP3   OH261854   1.477   0.604  16.043
13480TIP3    H161855   1.464   0.643  15.956
13480TIP3    H261856   1.517   0.674  16.095
13481TIP3   OH261857   5.756   4.266  15.056
13481TIP3    H161858   5.729   4.355  15.033
13481TIP3    H261859   5.777   4.270  15.149
13482TIP3   OH261860   3.869   1.737  14.154
13482TIP3    H161861   3.794   1.781  14.195
13482TIP3    H261862   3.938   1.740  14.220
13483TIP3   OH261863   1.413   5.374   4.923
13483TIP3    H161864   1.359   5.442   4.962
13483TIP3    H261865   1.418   5.306   4.989
13484TIP3   OH261866   0.596   4.943   5.806
13484TIP3    H161867   0.516   4.949   5.859
13484TIP3    H261868   0.641   4.866   5.840
13485TIP3   OH261869   0.448   6.211   6.028
13485TIP3    H161870   0.476   6.279   6.089
13485TIP3    H261871   0.365   6.243   5.993
13486TIP3   OH261872   3.935   0.042   2.938
13486TIP3    H161873   3.978   0.063   2.855
13486TIP3    H261874   3.924  -0.053   2.936
13487TIP3   OH261875   4.802   5.640  11.785
13487TIP3    H161876   4.794   5.545  11.782
13487TIP3    H261877   4.876   5.656  11.843
13488TIP3   OH261878   1.513   0.058  12.699
13488TIP3    H161879   1.510   0.014  12.784
13488TIP3    H261880   1.503  -0.012  12.635
13489TIP3   OH261881   2.407   3.174   0.961
13489TIP3    H161882   2.439   3.096   1.006
13489TIP3    H261883   2.376   3.142   0.876
13490TIP3   OH261884   5.960   5.040  13.837
13490TIP3    H161885   6.021   5.009  13.903
13490TIP3    H261886   5.901   4.966  13.822
13491TIP3   OH261887   0.095   6.128  13.404
13491TIP3    H161888   0.068   6.067  13.473
13491TIP3    H261889   0.133   6.071  13.337
13492TIP3   OH261890   5.261   5.348  15.014
13492TIP3    H161891   5.206   5.366  14.937
13492TIP3    H261892   5.233   5.412  15.079
13493TIP3   OH261893   2.034   4.855  12.239
13493TIP3    H161894   2.065   4.804  12.314
13493TIP3    H261895   2.096   4.927  12.231
13494TIP3   OH261896   6.251   5.927  11.885
13494TIP3    H161897   6.308   5.987  11.838
13494TIP3    H261898   6.259   5.953  11.977
13495TIP3   OH261899   4.677   4.688   6.390
13495TIP3    H161900   4.706   4.770   6.351
13495TIP3    H261901   4.582   4.697   6.398
13496TIP3   OH261902   6.047   0.633   2.042
13496TIP3    H161903   6.141   0.643   2.029
13496TIP3    H261904   6.039   0.562   2.106
13497TIP3   OH261905   6.687   6.378   3.088
13497TIP3    H161906   6.657   6.416   3.006
13497TIP3    H261907   6.642   6.429   3.156
13498TIP3   OH261908   1.622   2.466  10.753
13498TIP3    H161909   1.686   2.495  10.688
13498TIP3    H261910   1.537   2.481  10.711
13499TIP3   OH261911   6.572   5.599  14.160
13499TIP3    H161912   6.588   5.607  14.066
13499TIP3    H261913   6.521   5.518  14.169
13500TIP3   OH261914   6.058   3.423  14.621
13500TIP3    H161915   6.042   3.332  14.644
13500TIP3    H261916   6.033   3.429  14.529
13501TIP3   OH261917   3.228   1.294   3.640
13501TIP3    H161918   3.183   1.376   3.621
13501TIP3    H261919   3.243   1.297   3.735
13502TIP3   OH261920   3.931   2.930   6.339
13502TIP3    H161921   3.866   2.873   6.298
13502TIP3    H261922   3.996   2.871   6.375
13503TIP3   OH261923   1.922   1.260   4.999
13503TIP3    H161924   1.853   1.324   5.016
13503TIP3    H261925   1.904   1.189   5.061
13504TIP3   OH261926   6.132   3.342  14.016
13504TIP3    H161927   6.183   3.414  14.052
13504TIP3    H261928   6.182   3.264  14.038
13505TIP3   OH261929   1.045   5.564   1.862
13505TIP3    H161930   1.013   5.512   1.788
13505TIP3    H261931   1.127   5.602   1.831
13506TIP3   OH261932   6.281   0.491   0.072
13506TIP3    H161933   6.275   0.465   0.164
13506TIP3    H261934   6.192   0.478   0.038
13507TIP3   OH261935   3.205   4.224  15.302
13507TIP3    H161936   3.207   4.315  15.331
13507TIP3    H261937   3.116   4.194  15.321
13508TIP3   OH261938   6.253   4.089   3.647
13508TIP3    H161939   6.257   4.103   3.552
13508TIP3    H261940   6.162   4.066   3.664
13509TIP3   OH261941   6.123   4.214  11.257
13509TIP3    H161942   6.095   4.246  11.171
13509TIP3    H261943   6.119   4.292  11.314
13510TIP3   OH261944   6.003   4.985   1.994
13510TIP3    H161945   5.998   4.990   1.898
13510TIP3    H261946   5.922   4.940   2.020
13511TIP3   OH261947   5.825   3.613   5.664
13511TIP3    H161948   5.740   3.640   5.629
13511TIP3    H261949   5.826   3.647   5.753
13512TIP3   OH261950   2.563   4.211  12.449
13512TIP3    H161951   2.481   4.258  12.463
13512TIP3    H261952   2.616   4.230  12.526
13513TIP3   OH261953   0.063   2.725   3.028
13513TIP3    H161954   0.013   2.647   3.003
13513TIP3    H261955   0.011   2.765   3.098
13514TIP3   OH261956   6.069   1.597   2.407
13514TIP3    H161957   6.121   1.631   2.481
13514TIP3    H261958   6.086   1.659   2.336
13515TIP3   OH261959   4.687   3.890   3.900
13515TIP3    H161960   4.668   3.980   3.872
13515TIP3    H261961   4.601   3.853   3.919
13516TIP3   OH261962   5.842   1.860   4.706
13516TIP3    H161963   5.822   1.937   4.759
13516TIP3    H261964   5.880   1.896   4.626
13517TIP3   OH261965   5.035   1.871  14.339
13517TIP3    H161966   4.970   1.936  14.313
13517TIP3    H261967   4.985   1.805  14.387
13518TIP3   OH261968   0.596   0.194  15.781
13518TIP3    H161969   0.602   0.253  15.706
13518TIP3    H261970   0.617   0.108  15.745
13519TIP3   OH261971   4.123   5.510  15.636
13519TIP3    H161972   4.178   5.472  15.705
13519TIP3    H261973   4.170   5.491  15.555
13520TIP3   OH261974   3.180   5.518  11.097
13520TIP3    H161975   3.202   5.443  11.152
13520TIP3    H261976   3.097   5.494  11.055
13521TIP3   OH261977   2.968   5.541   0.110
13521TIP3    H161978   2.904   5.528   0.180
13521TIP3    H261979   2.968   5.458   0.062
13522TIP3   OH261980   3.580   3.600   6.078
13522TIP3    H161981   3.548   3.685   6.108
13522TIP3    H261982   3.638   3.621   6.005
13523TIP3   OH261983   5.413   0.251  16.717
13523TIP3    H161984   5.492   0.208  16.685
13523TIP3    H261985   5.354   0.179  16.741
13524TIP3   OH261986   3.472   6.478   1.811
13524TIP3    H161987   3.495   6.553   1.865
13524TIP3    H261988   3.376   6.481   1.806
13525TIP3   OH261989   0.539   2.008  12.389
13525TIP3    H161990   0.564   2.078  12.329
13525TIP3    H261991   0.539   2.050  12.476
13526TIP3   OH261992   2.072   5.012  14.943
13526TIP3    H161993   2.057   5.104  14.919
13526TIP3    H261994   2.145   5.016  15.005
13527TIP3   OH261995   0.751   0.886   1.459
13527TIP3    H161996   0.827   0.935   1.430
13527TIP3    H261997   0.751   0.896   1.554
13528TIP3   OH261998   2.141   5.875  15.727
13528TIP3    H161999   2.059   5.904  15.768
13528TIP3    H262000   2.166   5.945  15.668
13529TIP3   OH262001   0.880   1.765   2.334
13529TIP3    H162002   0.963   1.732   2.300
13529TIP3    H262003   0.899   1.790   2.425
13530TIP3   OH262004   4.481   3.429  14.343
13530TIP3    H162005   4.554   3.405  14.286
13530TIP3    H262006   4.448   3.511  14.307
13531TIP3   OH262007   5.396   4.784  10.571
13531TIP3    H162008   5.358   4.785  10.483
13531TIP3    H262009   5.460   4.713  10.569
13532TIP3   OH262010   2.011   3.493  16.979
13532TIP3    H162011   2.031   3.423  16.917
13532TIP3    H262012   1.951   3.551  16.931
13533TIP3   OH262013   5.369   6.188   0.345
13533TIP3    H162014   5.342   6.243   0.418
13533TIP3    H262015   5.447   6.143   0.376
13534TIP3   OH262016   2.741   5.713   0.073
13534TIP3    H162017   2.707   5.637   0.121
13534TIP3    H262018   2.836   5.702   0.073
13535TIP3   OH262019   3.574   1.832   2.546
13535TIP3    H162020   3.572   1.876   2.461
13535TIP3    H262021   3.617   1.748   2.528
13536TIP3   OH262022   0.996   1.564  13.837
13536TIP3    H162023   1.070   1.514  13.871
13536TIP3    H262024   0.941   1.580  13.913
13537TIP3   OH262025   0.270   1.569   0.480
13537TIP3    H162026   0.352   1.596   0.521
13537TIP3    H262027   0.267   1.474   0.491
13538TIP3   OH262028   2.938   5.680  13.838
13538TIP3    H162029   3.022   5.645  13.866
13538TIP3    H262030   2.873   5.635  13.893
13539TIP3   OH262031   3.838   0.449  14.305
13539TIP3    H162032   3.852   0.373  14.248
13539TIP3    H262033   3.849   0.524  14.247
13540TIP3   OH262034   0.840   5.934   4.784
13540TIP3    H162035   0.867   5.886   4.706
13540TIP3    H262036   0.922   5.962   4.825
13541TIP3   OH262037   0.435   6.708   1.948
13541TIP3    H162038   0.509   6.767   1.936
13541TIP3    H262039   0.386   6.746   2.022
13542TIP3   OH262040   1.184   6.192   1.401
13542TIP3    H162041   1.193   6.115   1.344
13542TIP3    H262042   1.239   6.171   1.477
13543TIP3   OH262043   2.956   5.328   5.845
13543TIP3    H162044   2.958   5.234   5.865
13543TIP3    H262045   2.954   5.370   5.931
13544TIP3   OH262046   0.802   4.502  14.057
13544TIP3    H162047   0.818   4.460  13.972
13544TIP3    H262048   0.729   4.561  14.042
13545TIP3   OH262049   1.780   0.161   1.913
13545TIP3    H162050   1.695   0.174   1.871
13545TIP3    H262051   1.836   0.126   1.844
13546TIP3   OH262052   4.219   6.578   1.783
13546TIP3    H162053   4.272   6.549   1.857
13546TIP3    H262054   4.156   6.639   1.820
13547TIP3   OH262055   6.456   1.188   0.304
13547TIP3    H162056   6.383   1.205   0.362
13547TIP3    H262057   6.532   1.227   0.348
13548TIP3   OH262058   0.095   4.564   3.194
13548TIP3    H162059   0.171   4.516   3.223
13548TIP3    H262060   0.053   4.507   3.130
13549TIP3   OH262061   1.814   0.980   2.882
13549TIP3    H162062   1.872   0.905   2.868
13549TIP3    H262063   1.855   1.028   2.954
13550TIP3   OH262064   2.090   3.071  16.629
13550TIP3    H162065   2.035   3.075  16.550
13550TIP3    H262066   2.078   2.982  16.661
13551TIP3   OH262067   0.172   5.582   0.325
13551TIP3    H162068   0.206   5.668   0.299
13551TIP3    H262069   0.241   5.545   0.381
13552TIP3   OH262070   3.109   0.897  13.398
13552TIP3    H162071   3.145   0.870  13.482
13552TIP3    H262072   3.071   0.817  13.361
13553TIP3   OH262073   1.632   5.902  11.884
13553TIP3    H162074   1.666   5.815  11.864
13553TIP3    H262075   1.701   5.962  11.855
13554TIP3   OH262076   2.008   2.034  15.781
13554TIP3    H162077   1.988   2.065  15.870
13554TIP3    H262078   1.960   2.094  15.724
13555TIP3   OH262079   6.308   3.466   1.536
13555TIP3    H162080   6.245   3.489   1.605
13555TIP3    H262081   6.394   3.479   1.577
13556TIP3   OH262082   2.177   1.457  11.372
13556TIP3    H162083   2.147   1.392  11.435
13556TIP3    H262084   2.192   1.406  11.291
13557TIP3   OH262085   5.576   1.748  14.365
13557TIP3    H162086   5.601   1.705  14.447
13557TIP3    H262087   5.488   1.715  14.348
13558TIP3   OH262088   4.344   0.533   3.401
13558TIP3    H162089   4.347   0.471   3.328
13558TIP3    H262090   4.272   0.502   3.455
13559TIP3   OH262091   3.978   1.096   0.239
13559TIP3    H162092   3.913   1.166   0.247
13559TIP3    H262093   4.007   1.079   0.328
13560TIP3   OH262094   2.062   0.163   3.542
13560TIP3    H162095   2.087   0.102   3.473
13560TIP3    H262096   1.989   0.120   3.586
13561TIP3   OH262097   5.214   0.975   5.143
13561TIP3    H162098   5.280   0.949   5.078
13561TIP3    H262099   5.132   0.939   5.110
13562TIP3   OH262100   3.289   4.778  12.311
13562TIP3    H162101   3.297   4.799  12.404
13562TIP3    H262102   3.195   4.781  12.293
13563TIP3   OH262103   1.069   6.677  10.961
13563TIP3    H162104   1.070   6.734  11.038
13563TIP3    H262105   0.984   6.633  10.966
13564TIP3   OH262106   3.431   0.473  14.938
13564TIP3    H162107   3.496   0.404  14.949
13564TIP3    H262108   3.359   0.446  14.995
13565TIP3   OH262109   3.975   4.476  11.777
13565TIP3    H162110   3.902   4.502  11.721
13565TIP3    H262111   4.051   4.521  11.739
13566TIP3   OH262112   4.481   3.372  15.611
13566TIP3    H162113   4.399   3.327  15.630
13566TIP3    H262114   4.511   3.405  15.696
13567TIP3   OH262115   6.206   5.210  14.039
13567TIP3    H162116   6.157   5.137  14.077
13567TIP3    H262117   6.144   5.252  13.979
13568TIP3   OH262118   2.024   0.660  12.831
13568TIP3    H162119   2.021   0.726  12.762
13568TIP3    H262120   1.967   0.695  12.899
13569TIP3   OH262121   4.841   5.460  16.468
13569TIP3    H162122   4.768   5.498  16.517
13569TIP3    H262123   4.889   5.408  16.532
13570TIP3   OH262124   1.766   1.672  13.548
13570TIP3    H162125   1.849   1.658  13.503
13570TIP3    H262126   1.713   1.722  13.486
13571TIP3   OH262127   5.503   6.160  15.324
13571TIP3    H162128   5.426   6.104  15.321
13571TIP3    H262129   5.576   6.099  15.334
13572TIP3   OH262130   5.107   0.205  11.310
13572TIP3    H162131   5.121   0.299  11.324
13572TIP3    H262132   5.139   0.188  11.222
13573TIP3   OH262133   5.380   1.683   4.890
13573TIP3    H162134   5.336   1.633   4.822
13573TIP3    H262135   5.313   1.698   4.957
13574TIP3   OH262136   1.498   6.419   0.257
13574TIP3    H162137   1.403   6.432   0.251
13574TIP3    H262138   1.526   6.399   0.168
13575TIP3   OH262139   2.314   2.880   6.239
13575TIP3    H162140   2.291   2.952   6.181
13575TIP3    H262141   2.372   2.824   6.188
13576TIP3   OH262142   6.564   1.628  14.321
13576TIP3    H162143   6.475   1.655  14.298
13576TIP3    H262144   6.620   1.693  14.279
13577TIP3   OH262145   4.115   5.640   6.172
13577TIP3    H162146   4.087   5.549   6.181
13577TIP3    H262147   4.177   5.653   6.244
13578TIP3   OH262148   1.794   5.045   3.308
13578TIP3    H162149   1.720   4.996   3.343
13578TIP3    H262150   1.798   5.125   3.360
13579TIP3   OH262151   0.235   0.147   3.858
13579TIP3    H162152   0.266   0.229   3.820
13579TIP3    H262153   0.162   0.173   3.914
13580TIP3   OH262154   1.883   0.898   4.730
13580TIP3    H162155   1.915   0.810   4.709
13580TIP3    H262156   1.925   0.920   4.813
13581TIP3   OH262157   6.217   2.147   3.121
13581TIP3    H162158   6.222   2.127   3.028
13581TIP3    H262159   6.263   2.075   3.163
13582TIP3   OH262160   6.432   6.762   2.964
13582TIP3    H162161   6.427   6.746   2.870
13582TIP3    H262162   6.341   6.771   2.992
13583TIP3   OH262163   1.345   0.583  14.622
13583TIP3    H162164   1.299   0.635  14.556
13583TIP3    H262165   1.351   0.641  14.698
13584TIP3   OH262166   2.366   0.517   1.630
13584TIP3    H162167   2.344   0.477   1.714
13584TIP3    H262168   2.441   0.574   1.650
13585TIP3   OH262169   1.430   6.428  10.872
13585TIP3    H162170   1.491   6.359  10.849
13585TIP3    H262171   1.374   6.438  10.794
13586TIP3   OH262172   0.719   4.834  15.207
13586TIP3    H162173   0.702   4.889  15.283
13586TIP3    H262174   0.653   4.765  15.212
13587TIP3   OH262175   5.609   6.097   2.626
13587TIP3    H162176   5.666   6.166   2.593
13587TIP3    H262177   5.654   6.016   2.605
13588TIP3   OH262178   2.735   2.807  16.204
13588TIP3    H162179   2.744   2.823  16.298
13588TIP3    H262180   2.647   2.839  16.183
13589TIP3   OH262181   0.831   6.734  11.925
13589TIP3    H162182   0.871   6.655  11.960
13589TIP3    H262183   0.761   6.703  11.868
13590TIP3   OH262184   1.388   1.424   0.269
13590TIP3    H162185   1.427   1.468   0.345
13590TIP3    H262186   1.410   1.331   0.282
13591TIP3   OH262187   4.808   4.165  15.480
13591TIP3    H162188   4.853   4.244  15.512
13591TIP3    H262189   4.773   4.124  15.559
13592TIP3   OH262190   0.464   0.011  14.594
13592TIP3    H162191   0.368   0.008  14.592
13592TIP3    H262192   0.485   0.058  14.674
13593TIP3   OH262193   3.495   1.138  16.666
13593TIP3    H162194   3.573   1.111  16.617
13593TIP3    H262195   3.443   1.188  16.602
13594TIP3   OH262196   4.131   3.843  13.356
13594TIP3    H162197   4.064   3.902  13.390
13594TIP3    H262198   4.158   3.792  13.432
13595TIP3   OH262199   6.561   3.617   0.412
13595TIP3    H162200   6.602   3.703   0.403
13595TIP3    H262201   6.530   3.615   0.503
13596TIP3   OH262202   3.233   0.146   2.067
13596TIP3    H162203   3.257   0.170   1.978
13596TIP3    H262204   3.139   0.162   2.071
13597TIP3   OH262205   6.313   0.672  16.341
13597TIP3    H162206   6.375   0.711  16.280
13597TIP3    H262207   6.292   0.587  16.304
13598TIP3   OH262208   1.951   5.407  12.494
13598TIP3    H162209   1.942   5.342  12.423
13598TIP3    H262210   1.928   5.358  12.573
13599TIP3   OH262211   0.361   1.099   3.609
13599TIP3    H162212   0.370   1.005   3.627
13599TIP3    H262213   0.442   1.138   3.643
13600TIP3   OH262214   1.225   6.442   0.300
13600TIP3    H162215   1.180   6.410   0.377
13600TIP3    H262216   1.170   6.513   0.267
13601TIP3   OH262217   0.807   5.095   5.674
13601TIP3    H162218   0.725   5.066   5.714
13601TIP3    H262219   0.781   5.127   5.587
13602TIP3   OH262220   6.278   1.531   1.964
13602TIP3    H162221   6.345   1.467   1.988
13602TIP3    H262222   6.320   1.616   1.980
13603TIP3   OH262223   3.222   0.861  17.022
13603TIP3    H162224   3.128   0.861  17.041
13603TIP3    H262225   3.246   0.954  17.020
13604TIP3   OH262226   5.951   0.349   4.903
13604TIP3    H162227   5.899   0.365   4.982
13604TIP3    H262228   5.890   0.363   4.830
13605TIP3   OH262229   4.969   4.406  15.507
13605TIP3    H162230   5.049   4.408  15.454
13605TIP3    H262231   4.978   4.480  15.567
13606TIP3   OH262232   6.143   4.956  11.919
13606TIP3    H162233   6.123   4.871  11.881
13606TIP3    H262234   6.209   4.938  11.986
13607TIP3   OH262235   5.431   4.346   2.095
13607TIP3    H162236   5.480   4.417   2.137
13607TIP3    H262237   5.453   4.269   2.147
13608TIP3   OH262238   0.003   5.487  15.532
13608TIP3    H162239   0.006   5.393  15.549
13608TIP3    H262240  -0.021   5.526  15.616
13609TIP3   OH262241   6.306   0.997   1.834
13609TIP3    H162242   6.380   0.943   1.863
13609TIP3    H262243   6.250   0.937   1.785
13610TIP3   OH262244   4.977   3.852  15.081
13610TIP3    H162245   5.034   3.907  15.026
13610TIP3    H262246   4.966   3.903  15.161
13611TIP3   OH262247   6.291   4.614  12.523
13611TIP3    H162248   6.308   4.525  12.553
13611TIP3    H262249   6.370   4.638  12.474
13612TIP3   OH262250   4.333   5.128   3.397
13612TIP3    H162251   4.295   5.089   3.476
13612TIP3    H262252   4.258   5.164   3.350
13613TIP3   OH262253   3.314   4.209   3.312
13613TIP3    H162254   3.244   4.259   3.353
13613TIP3    H262255   3.276   4.122   3.298
13614TIP3   OH262256   0.667   4.269  15.535
13614TIP3    H162257   0.621   4.260  15.618
13614TIP3    H262258   0.721   4.189  15.529
13615TIP3   OH262259   4.023   1.462  14.146
13615TIP3    H162260   4.114   1.451  14.173
13615TIP3    H262261   4.028   1.510  14.063
13616TIP3   OH262262   3.579   6.711  14.254
13616TIP3    H162263   3.483   6.704  14.256
13616TIP3    H262264   3.603   6.683  14.165
13617TIP3   OH262265   0.616   4.924  17.209
13617TIP3    H162266   0.615   4.993  17.142
13617TIP3    H262267   0.678   4.859  17.177
13618TIP3   OH262268   6.625   3.496   5.532
13618TIP3    H162269   6.621   3.489   5.627
13618TIP3    H262270   6.604   3.407   5.501
13619TIP3   OH262271   5.078   3.690   2.893
13619TIP3    H162272   5.024   3.611   2.894
13619TIP3    H262273   5.056   3.736   2.974
13620TIP3   OH262274   0.666   4.147  13.830
13620TIP3    H162275   0.741   4.205  13.816
13620TIP3    H262276   0.627   4.178  13.911
13621TIP3   OH262277   2.231   0.878  14.629
13621TIP3    H162278   2.159   0.923  14.586
13621TIP3    H262279   2.266   0.818  14.563
13622TIP3   OH262280   1.215   0.879   3.458
13622TIP3    H162281   1.220   0.923   3.542
13622TIP3    H262282   1.258   0.795   3.472
13623TIP3   OH262283   4.974   6.343  15.070
13623TIP3    H162284   4.883   6.367  15.053
13623TIP3    H262285   5.000   6.401  15.142
13624TIP3   OH262286   6.574   0.103  15.804
13624TIP3    H162287   6.484   0.132  15.790
13624TIP3    H262288   6.593   0.046  15.730
13625TIP3   OH262289   3.528   3.293   0.791
13625TIP3    H162290   3.623   3.289   0.794
13625TIP3    H262291   3.504   3.355   0.861
13626TIP3   OH262292   1.697   2.626   6.599
13626TIP3    H162293   1.669   2.717   6.607
13626TIP3    H262294   1.780   2.622   6.646
13627TIP3   OH262295   5.077   0.702  17.036
13627TIP3    H162296   5.118   0.634  17.088
13627TIP3    H262297   5.008   0.738  17.092
13628TIP3   OH262298   3.184   6.214  13.314
13628TIP3    H162299   3.217   6.223  13.403
13628TIP3    H262300   3.111   6.277  13.310
13629TIP3   OH262301   1.416   0.031  14.305
13629TIP3    H162302   1.329  -0.005  14.287
13629TIP3    H262303   1.401   0.124  14.320
13630TIP3   OH262304   0.083   3.504   4.734
13630TIP3    H162305   0.110   3.548   4.814
13630TIP3    H262306   0.032   3.570   4.686
13631TIP3   OH262307   6.336   2.214   1.861
13631TIP3    H162308   6.317   2.144   1.799
13631TIP3    H262309   6.430   2.227   1.855
13632TIP3   OH262310   5.179   5.286  14.544
13632TIP3    H162311   5.099   5.289  14.491
13632TIP3    H262312   5.219   5.372  14.531
13633TIP3   OH262313   5.167   6.786  12.021
13633TIP3    H162314   5.149   6.710  11.965
13633TIP3    H262315   5.260   6.778  12.042
13634TIP3   OH262316   6.533   3.746   0.132
13634TIP3    H162317   6.507   3.654   0.138
13634TIP3    H262318   6.539   3.775   0.223
13635TIP3   OH262319   2.212   4.392   2.609
13635TIP3    H162320   2.147   4.417   2.544
13635TIP3    H262321   2.204   4.459   2.678
13636TIP3   OH262322   0.847   0.590  17.057
13636TIP3    H162323   0.940   0.573  17.042
13636TIP3    H262324   0.820   0.639  16.979
13637TIP3   OH262325   0.105   6.569  16.668
13637TIP3    H162326   0.109   6.563  16.573
13637TIP3    H262327   0.011   6.573  16.688
13638TIP3   OH262328   2.094   1.653  14.079
13638TIP3    H162329   2.025   1.669  14.015
13638TIP3    H262330   2.168   1.621  14.027
13639TIP3   OH262331   1.158   0.549  12.911
13639TIP3    H162332   1.243   0.536  12.868
13639TIP3    H262333   1.109   0.604  12.851
13640TIP3   OH262334   0.870   5.315  14.943
13640TIP3    H162335   0.917   5.308  14.861
13640TIP3    H262336   0.936   5.303  15.011
13641TIP3   OH262337   1.573   5.038   1.719
13641TIP3    H162338   1.662   5.044   1.684
13641TIP3    H262339   1.518   5.073   1.649
13642TIP3   OH262340   5.864   1.002   0.594
13642TIP3    H162341   5.934   0.982   0.657
13642TIP3    H262342   5.848   0.918   0.550
13643TIP3   OH262343   5.932   0.420  12.212
13643TIP3    H162344   5.893   0.496  12.169
13643TIP3    H262345   5.997   0.456  12.271
13644TIP3   OH262346   2.306   1.697   4.193
13644TIP3    H162347   2.349   1.625   4.238
13644TIP3    H262348   2.260   1.744   4.261
13645TIP3   OH262349   4.152   4.241  11.369
13645TIP3    H162350   4.082   4.236  11.304
13645TIP3    H262351   4.229   4.267  11.319
13646TIP3   OH262352   2.489   6.235   3.843
13646TIP3    H162353   2.485   6.308   3.781
13646TIP3    H262354   2.561   6.180   3.813
13647TIP3   OH262355   2.769   4.529   2.032
13647TIP3    H162356   2.847   4.475   2.045
13647TIP3    H262357   2.703   4.468   1.999
13648TIP3   OH262358   6.711   1.098  12.349
13648TIP3    H162359   6.749   1.178  12.386
13648TIP3    H262360   6.633   1.082  12.402
13649TIP3   OH262361   6.127   1.058  14.542
13649TIP3    H162362   6.158   1.093  14.458
13649TIP3    H262363   6.208   1.044  14.592
13650TIP3   OH262364   3.427   0.749  16.417
13650TIP3    H162365   3.459   0.707  16.497
13650TIP3    H262366   3.335   0.724  16.413
13651TIP3   OH262367   4.256   1.749   5.470
13651TIP3    H162368   4.341   1.791   5.454
13651TIP3    H262369   4.194   1.822   5.470
13652TIP3   OH262370   4.767   3.097   1.071
13652TIP3    H162371   4.710   3.020   1.062
13652TIP3    H262372   4.733   3.143   1.147
13653TIP3   OH262373   3.111   1.337   0.274
13653TIP3    H162374   3.184   1.275   0.279
13653TIP3    H262375   3.145   1.411   0.225
13654TIP3   OH262376   3.950   6.696  12.857
13654TIP3    H162377   4.027   6.675  12.804
13654TIP3    H262378   3.895   6.618  12.852
13655TIP3   OH262379   1.257   0.030  13.954
13655TIP3    H162380   1.188   0.059  13.894
13655TIP3    H262381   1.213  -0.025  14.018
13656TIP3   OH262382   5.858   5.369  14.443
13656TIP3    H162383   5.897   5.346  14.527
13656TIP3    H262384   5.766   5.385  14.463
13657TIP3   OH262385   0.740   4.430  10.451
13657TIP3    H162386   0.678   4.357  10.453
13657TIP3    H262387   0.687   4.507  10.472
13658TIP3   OH262388   3.894   6.355  15.654
13658TIP3    H162389   3.983   6.383  15.676
13658TIP3    H262390   3.845   6.437  15.644
13659TIP3   OH262391   2.890   3.583   2.764
13659TIP3    H162392   2.920   3.507   2.814
13659TIP3    H262393   2.948   3.586   2.688
13660TIP3   OH262394   6.767   1.284   2.284
13660TIP3    H162395   6.789   1.305   2.193
13660TIP3    H262396   6.851   1.281   2.329
13661TIP3   OH262397   4.933   5.010  16.293
13661TIP3    H162398   5.009   4.999  16.350
13661TIP3    H262399   4.944   5.096  16.254
13662TIP3   OH262400   2.802   1.673   0.281
13662TIP3    H162401   2.856   1.614   0.334
13662TIP3    H262402   2.803   1.755   0.331
13663TIP3   OH262403   3.439   5.147  13.650
13663TIP3    H162404   3.485   5.159  13.733
13663TIP3    H262405   3.393   5.230  13.636
13664TIP3   OH262406   3.146   1.611   5.436
13664TIP3    H162407   3.070   1.634   5.491
13664TIP3    H262408   3.208   1.682   5.450
13665TIP3   OH262409   0.487   0.752   2.174
13665TIP3    H162410   0.477   0.657   2.173
13665TIP3    H262411   0.431   0.781   2.246
13666TIP3   OH262412   5.734   0.744  14.651
13666TIP3    H162413   5.803   0.688  14.614
13666TIP3    H262414   5.739   0.824  14.600
13667TIP3   OH262415   3.279   4.552  16.096
13667TIP3    H162416   3.203   4.510  16.055
13667TIP3    H262417   3.333   4.582  16.024
13668TIP3   OH262418   4.733   3.155   0.776
13668TIP3    H162419   4.808   3.184   0.827
13668TIP3    H262420   4.658   3.166   0.835
13669TIP3   OH262421   2.109   6.096  17.192
13669TIP3    H162422   2.157   6.120  17.271
13669TIP3    H262423   2.107   6.000  17.192
13670TIP3   OH262424   3.485   6.062  12.512
13670TIP3    H162425   3.569   6.103  12.495
13670TIP3    H262426   3.491   6.032  12.602
13671TIP3   OH262427   0.237   6.358   2.418
13671TIP3    H162428   0.330   6.344   2.436
13671TIP3    H262429   0.224   6.324   2.330
13672TIP3   OH262430   5.560   0.297   4.922
13672TIP3    H162431   5.504   0.225   4.952
13672TIP3    H262432   5.637   0.293   4.978
13673TIP3   OH262433   0.517   3.434  11.515
13673TIP3    H162434   0.561   3.512  11.548
13673TIP3    H262435   0.432   3.435  11.558
13674TIP3   OH262436   1.654   6.667  16.283
13674TIP3    H162437   1.564   6.677  16.314
13674TIP3    H262438   1.703   6.735  16.328
13675TIP3   OH262439   5.086   4.019  12.687
13675TIP3    H162440   5.155   3.953  12.687
13675TIP3    H262441   5.128   4.098  12.651
13676TIP3   OH262442   1.299   5.604  11.970
13676TIP3    H162443   1.343   5.564  11.895
13676TIP3    H262444   1.291   5.533  12.034
13677TIP3   OH262445   2.654   1.603   5.481
13677TIP3    H162446   2.607   1.687   5.481
13677TIP3    H262447   2.726   1.616   5.420
13678TIP3   OH262448   2.168   1.104  10.683
13678TIP3    H162449   2.168   1.068  10.594
13678TIP3    H262450   2.108   1.048  10.732
13679TIP3   OH262451   0.441   0.619  16.647
13679TIP3    H162452   0.349   0.611  16.621
13679TIP3    H262453   0.461   0.712  16.637
13680TIP3   OH262454   1.744   4.050  11.562
13680TIP3    H162455   1.746   3.993  11.485
13680TIP3    H262456   1.831   4.040  11.601
13681TIP3   OH262457   5.977   4.112   2.960
13681TIP3    H162458   6.040   4.077   3.022
13681TIP3    H262459   5.940   4.035   2.916
13682TIP3   OH262460   4.193   6.097   1.649
13682TIP3    H162461   4.182   6.143   1.566
13682TIP3    H262462   4.110   6.052   1.663
13683TIP3   OH262463   4.143   1.772   4.213
13683TIP3    H162464   4.055   1.746   4.240
13683TIP3    H262465   4.201   1.733   4.278
13684TIP3   OH262466   0.744   1.007  15.416
13684TIP3    H162467   0.809   0.937  15.422
13684TIP3    H262468   0.793   1.083  15.384
13685TIP3   OH262469   3.678   1.669  13.746
13685TIP3    H162470   3.615   1.653  13.676
13685TIP3    H262471   3.680   1.764  13.756
13686TIP3   OH262472   5.897   4.404   0.665
13686TIP3    H162473   5.980   4.357   0.675
13686TIP3    H262474   5.872   4.389   0.574
13687TIP3   OH262475   2.577   5.597  15.596
13687TIP3    H162476   2.504   5.571  15.540
13687TIP3    H262477   2.544   5.584  15.685
13688TIP3   OH262478   2.602   2.174   0.620
13688TIP3    H162479   2.574   2.112   0.687
13688TIP3    H262480   2.662   2.233   0.666
13689TIP3   OH262481   0.322   3.720  12.961
13689TIP3    H162482   0.345   3.630  12.987
13689TIP3    H262483   0.385   3.775  13.007
13690TIP3   OH262484   1.557   5.375   2.174
13690TIP3    H162485   1.606   5.457   2.167
13690TIP3    H262486   1.483   5.386   2.115
13691TIP3   OH262487   1.322   0.644   0.761
13691TIP3    H162488   1.296   0.583   0.692
13691TIP3    H262489   1.416   0.629   0.773
13692TIP3   OH262490   1.587   0.894   5.371
13692TIP3    H162491   1.522   0.827   5.350
13692TIP3    H262492   1.671   0.847   5.370
13693TIP3   OH262493   3.511   1.827   4.015
13693TIP3    H162494   3.583   1.886   4.037
13693TIP3    H262495   3.446   1.883   3.973
13694TIP3   OH262496   1.177   1.790   2.674
13694TIP3    H162497   1.210   1.742   2.598
13694TIP3    H262498   1.170   1.724   2.743
13695TIP3   OH262499   5.379   4.290   5.123
13695TIP3    H162500   5.331   4.311   5.044
13695TIP3    H262501   5.435   4.216   5.098
13696TIP3   OH262502   3.665   5.225  17.234
13696TIP3    H162503   3.757   5.208  17.215
13696TIP3    H262504   3.624   5.235  17.148
13697TIP3   OH262505   6.172   6.100  14.472
13697TIP3    H162506   6.148   6.050  14.393
13697TIP3    H262507   6.149   6.042  14.545
13698TIP3   OH262508   2.734   3.345  11.565
13698TIP3    H162509   2.778   3.341  11.650
13698TIP3    H262510   2.805   3.358  11.502
13699TIP3   OH262511   3.143   1.880  11.197
13699TIP3    H162512   3.104   1.949  11.251
13699TIP3    H262513   3.228   1.863  11.237
13700TIP3   OH262514   5.807   4.754  13.318
13700TIP3    H162515   5.712   4.761  13.307
13700TIP3    H262516   5.830   4.675  13.268
13701TIP3   OH262517   5.279   2.807   4.739
13701TIP3    H162518   5.227   2.872   4.692
13701TIP3    H262519   5.357   2.854   4.767
13702TIP3   OH262520   0.319   6.512  12.185
13702TIP3    H162521   0.379   6.438  12.195
13702TIP3    H262522   0.244   6.489  12.240
13703TIP3   OH262523   5.009   1.009   0.702
13703TIP3    H162524   5.067   1.078   0.734
13703TIP3    H262525   5.031   0.932   0.756
13704TIP3   OH262526   3.000   4.685   2.995
13704TIP3    H162527   2.989   4.591   3.009
13704TIP3    H262528   3.045   4.716   3.073
13705TIP3   OH262529   0.106   5.458  11.425
13705TIP3    H162530   0.175   5.458  11.359
13705TIP3    H262531   0.149   5.489  11.505
13706TIP3   OH262532   2.603   3.559  11.448
13706TIP3    H162533   2.518   3.536  11.410
13706TIP3    H262534   2.655   3.479  11.443
13707TIP3   OH262535   2.329   4.763  16.681
13707TIP3    H162536   2.382   4.843  16.686
13707TIP3    H262537   2.344   4.719  16.765
13708TIP3   OH262538   3.258   2.418   5.694
13708TIP3    H162539   3.215   2.333   5.700
13708TIP3    H262540   3.248   2.456   5.782
13709TIP3   OH262541   5.666   1.812   0.727
13709TIP3    H162542   5.748   1.797   0.680
13709TIP3    H262543   5.682   1.888   0.782
13710TIP3   OH262544   4.562   6.613  12.726
13710TIP3    H162545   4.517   6.538  12.765
13710TIP3    H262546   4.522   6.689  12.767
13711TIP3   OH262547   5.915   0.825   4.696
13711TIP3    H162548   5.990   0.765   4.701
13711TIP3    H262549   5.849   0.776   4.646
13712TIP3   OH262550   6.395   2.863   3.480
13712TIP3    H162551   6.356   2.814   3.407
13712TIP3    H262552   6.334   2.850   3.553
13713TIP3   OH262553   6.304   3.809   4.967
13713TIP3    H162554   6.354   3.876   5.015
13713TIP3    H262555   6.225   3.854   4.938
13714TIP3   OH262556   3.234   2.901   0.071
13714TIP3    H162557   3.296   2.856   0.013
13714TIP3    H262558   3.149   2.891   0.028
13715TIP3   OH262559   4.565   6.423   0.007
13715TIP3    H162560   4.612   6.496  -0.031
13715TIP3    H262561   4.573   6.353  -0.057
13716TIP3   OH262562   2.700   3.322   4.863
13716TIP3    H162563   2.766   3.255   4.845
13716TIP3    H262564   2.722   3.394   4.804
13717TIP3   OH262565   3.489   5.071   2.246
13717TIP3    H162566   3.559   5.094   2.308
13717TIP3    H262567   3.423   5.139   2.259
13718TIP3   OH262568   6.527   5.560   6.155
13718TIP3    H162569   6.572   5.638   6.123
13718TIP3    H262570   6.446   5.556   6.104
13719TIP3   OH262571   2.280   3.478   4.796
13719TIP3    H162572   2.285   3.514   4.708
13719TIP3    H262573   2.346   3.528   4.846
13720TIP3   OH262574   0.095   1.486   3.504
13720TIP3    H162575   0.018   1.509   3.453
13720TIP3    H262576   0.109   1.562   3.561
13721TIP3   OH262577   1.237   2.549   5.400
13721TIP3    H162578   1.234   2.633   5.446
13721TIP3    H262579   1.330   2.528   5.396
13722TIP3   OH262580   5.359   1.093  14.932
13722TIP3    H162581   5.313   1.012  14.954
13722TIP3    H262582   5.407   1.072  14.851
13723TIP3   OH262583   2.009   3.264  12.348
13723TIP3    H162584   1.915   3.279  12.353
13723TIP3    H262585   2.035   3.240  12.437
13724TIP3   OH262586   4.362   2.216   3.955
13724TIP3    H162587   4.367   2.301   3.998
13724TIP3    H262588   4.447   2.175   3.971
13725TIP3   OH262589   4.748   1.877  11.786
13725TIP3    H162590   4.807   1.947  11.814
13725TIP3    H262591   4.752   1.880  11.690
13726TIP3   OH262592   0.073   6.286  14.244
13726TIP3    H162593   0.016   6.361  14.261
13726TIP3    H262594   0.036   6.246  14.165
13727TIP3   OH262595   1.963   3.609   4.754
13727TIP3    H162596   1.985   3.701   4.738
13727TIP3    H262597   2.012   3.561   4.688
13728TIP3   OH262598   5.647   0.132  14.964
13728TIP3    H162599   5.587   0.072  15.008
13728TIP3    H262600   5.667   0.088  14.881
13729TIP3   OH262601   1.870   0.122  14.431
13729TIP3    H162602   1.830   0.208  14.446
13729TIP3    H262603   1.804   0.073  14.381
13730TIP3   OH262604   1.918   3.121   4.711
13730TIP3    H162605   1.974   3.177   4.764
13730TIP3    H262606   1.977   3.054   4.677
13731TIP3   OH262607   5.887   4.639   0.803
13731TIP3    H162608   5.861   4.716   0.753
13731TIP3    H262609   5.888   4.568   0.739
13732TIP3   OH262610   2.226   3.472  15.184
13732TIP3    H162611   2.195   3.560  15.159
13732TIP3    H262612   2.249   3.430  15.101
13733TIP3   OH262613   5.679   1.301  11.719
13733TIP3    H162614   5.652   1.346  11.639
13733TIP3    H262615   5.712   1.371  11.775
13734TIP3   OH262616   1.043   0.166   3.931
13734TIP3    H162617   1.081   0.133   3.849
13734TIP3    H262618   0.950   0.143   3.925
13735TIP3   OH262619   1.923   5.149  11.913
13735TIP3    H162620   1.864   5.076  11.897
13735TIP3    H262621   1.992   5.113  11.968
13736TIP3   OH262622   5.385   5.347  10.613
13736TIP3    H162623   5.467   5.350  10.564
13736TIP3    H262624   5.333   5.280  10.568
13737TIP3   OH262625   1.565   2.239  13.886
13737TIP3    H162626   1.633   2.172  13.885
13737TIP3    H262627   1.487   2.195  13.919
13738TIP3   OH262628   0.697   1.840   4.678
13738TIP3    H162629   0.675   1.888   4.757
13738TIP3    H262630   0.783   1.801   4.697
13739TIP3   OH262631   5.980   1.327  16.719
13739TIP3    H162632   6.016   1.371  16.642
13739TIP3    H262633   5.940   1.398  16.770
13740TIP3   OH262634   1.753   0.726  16.078
13740TIP3    H162635   1.839   0.698  16.110
13740TIP3    H262636   1.760   0.719  15.982
13741TIP3   OH262637   5.881   2.421  15.516
13741TIP3    H162638   5.789   2.398  15.501
13741TIP3    H262639   5.883   2.455  15.605
13742TIP3   OH262640   0.045   4.452  10.291
13742TIP3    H162641   0.100   4.528  10.273
13742TIP3    H262642  -0.006   4.477  10.368
13743TIP3   OH262643   0.728   0.862  17.004
13743TIP3    H162644   0.767   0.865  17.092
13743TIP3    H262645   0.696   0.951  16.989
13744TIP3   OH262646   4.530   0.859   0.735
13744TIP3    H162647   4.539   0.808   0.816
13744TIP3    H262648   4.616   0.852   0.693
13745TIP3   OH262649   1.009   2.535  11.782
13745TIP3    H162650   0.956   2.557  11.705
13745TIP3    H262651   1.082   2.484  11.747
13746TIP3   OH262652   0.253   5.846   5.496
13746TIP3    H162653   0.226   5.784   5.428
13746TIP3    H262654   0.331   5.889   5.461
13747TIP3   OH262655   2.019   1.112   0.232
13747TIP3    H162656   2.002   1.147   0.320
13747TIP3    H262657   1.942   1.137   0.181
13748TIP3   OH262658   6.183   0.595  12.048
13748TIP3    H162659   6.227   0.557  11.972
13748TIP3    H262660   6.251   0.598  12.116
13749TIP3   OH262661   1.203   6.667   6.435
13749TIP3    H162662   1.171   6.591   6.482
13749TIP3    H262663   1.288   6.640   6.400
13750TIP3   OH262664   4.505   2.875   4.068
13750TIP3    H162665   4.473   2.831   4.147
13750TIP3    H262666   4.548   2.955   4.101
13751TIP3   OH262667   1.676   2.627  14.533
13751TIP3    H162668   1.708   2.635  14.444
13751TIP3    H262669   1.755   2.627  14.587
13752TIP3   OH262670   4.428   6.535  10.548
13752TIP3    H162671   4.511   6.489  10.558
13752TIP3    H262672   4.389   6.498  10.468
13753TIP3   OH262673   3.925   2.649  15.588
13753TIP3    H162674   3.933   2.617  15.677
13753TIP3    H262675   3.833   2.635  15.566
13754TIP3   OH262676   3.570   2.938  14.617
13754TIP3    H162677   3.623   2.993  14.675
13754TIP3    H262678   3.561   2.855  14.665
13755TIP3   OH262679   4.798   2.917   2.654
13755TIP3    H162680   4.831   2.930   2.743
13755TIP3    H262681   4.719   2.864   2.666
13756TIP3   OH262682   1.202   6.646  14.241
13756TIP3    H162683   1.218   6.554  14.219
13756TIP3    H262684   1.172   6.643  14.332
13757TIP3   OH262685   3.968   3.202   1.378
13757TIP3    H162686   4.010   3.256   1.444
13757TIP3    H262687   4.018   3.217   1.298
13758TIP3   OH262688   2.599   5.920  12.053
13758TIP3    H162689   2.562   5.863  11.986
13758TIP3    H262690   2.529   5.983  12.073
13759TIP3   OH262691   2.198   5.221   2.507
13759TIP3    H162692   2.229   5.282   2.574
13759TIP3    H262693   2.118   5.183   2.544
13760TIP3   OH262694   3.679   3.595   2.998
13760TIP3    H162695   3.658   3.538   2.924
13760TIP3    H262696   3.727   3.540   3.060
13761TIP3   OH262697   4.313   5.472   2.114
13761TIP3    H162698   4.403   5.474   2.148
13761TIP3    H262699   4.288   5.380   2.120
13762TIP3   OH262700   4.463   3.066  12.895
13762TIP3    H162701   4.477   3.125  12.969
13762TIP3    H262702   4.369   3.074  12.875
13763TIP3   OH262703   3.289   3.530  12.119
13763TIP3    H162704   3.319   3.598  12.178
13763TIP3    H262705   3.361   3.466  12.117
13764TIP3   OH262706   1.005   5.043   3.383
13764TIP3    H162707   1.033   5.127   3.347
13764TIP3    H262708   1.077   5.016   3.441
13765TIP3   OH262709   3.745   1.341  13.758
13765TIP3    H162710   3.815   1.380  13.705
13765TIP3    H262711   3.677   1.408  13.762
13766TIP3   OH262712   1.104   4.058   1.774
13766TIP3    H162713   1.112   4.152   1.786
13766TIP3    H262714   1.155   4.020   1.846
13767TIP3   OH262715   0.263   1.180  15.337
13767TIP3    H162716   0.271   1.274  15.353
13767TIP3    H262717   0.173   1.169  15.306
13768TIP3   OH262718   2.982   4.028  14.600
13768TIP3    H162719   2.977   4.117  14.633
13768TIP3    H262720   3.028   3.979  14.669
13769TIP3   OH262721   6.709   2.829   5.488
13769TIP3    H162722   6.737   2.739   5.505
13769TIP3    H262723   6.789   2.881   5.501
13770TIP3   OH262724   2.241   3.934   1.362
13770TIP3    H162725   2.329   3.964   1.386
13770TIP3    H262726   2.251   3.901   1.272
13771TIP3   OH262727   5.380   0.426  15.720
13771TIP3    H162728   5.440   0.383  15.781
13771TIP3    H262729   5.326   0.482  15.775
13772TIP3   OH262730   3.828   1.270   1.080
13772TIP3    H162731   3.903   1.308   1.034
13772TIP3    H262732   3.760   1.261   1.013
13773TIP3   OH262733   2.240   1.323  16.617
13773TIP3    H162734   2.146   1.316  16.634
13773TIP3    H262735   2.245   1.367  16.532
13774TIP3   OH262736   1.464   3.296   2.162
13774TIP3    H162737   1.370   3.288   2.176
13774TIP3    H262738   1.484   3.387   2.183
13775TIP3   OH262739   2.960   1.033   2.879
13775TIP3    H162740   3.002   0.958   2.920
13775TIP3    H262741   2.868   1.025   2.904
13776TIP3   OH262742   4.145   3.129  12.977
13776TIP3    H162743   4.082   3.064  12.946
13776TIP3    H262744   4.168   3.179  12.899
13777TIP3   OH262745   4.177   2.312   0.464
13777TIP3    H162746   4.199   2.220   0.448
13777TIP3    H262747   4.251   2.361   0.429
13778TIP3   OH262748   2.145   1.232   0.788
13778TIP3    H162749   2.125   1.150   0.832
13778TIP3    H262750   2.063   1.258   0.746
13779TIP3   OH262751   6.563   4.399   4.849
13779TIP3    H162752   6.527   4.417   4.936
13779TIP3    H262753   6.638   4.459   4.842
13780TIP3   OH262754   6.399   0.170   3.230
13780TIP3    H162755   6.307   0.177   3.255
13780TIP3    H262756   6.409   0.230   3.157
13781TIP3   OH262757   2.642   5.783   4.468
13781TIP3    H162758   2.691   5.801   4.548
13781TIP3    H262759   2.564   5.737   4.496
13782TIP3   OH262760   6.155   6.534   4.030
13782TIP3    H162761   6.220   6.602   4.013
13782TIP3    H262762   6.192   6.455   3.990
13783TIP3   OH262763   3.977   1.514  11.959
13783TIP3    H162764   4.029   1.583  11.918
13783TIP3    H262765   3.887   1.535  11.935
13784TIP3   OH262766   1.659   5.001  11.741
13784TIP3    H162767   1.678   5.080  11.690
13784TIP3    H262768   1.592   5.028  11.804
13785TIP3   OH262769   3.030   3.716   0.444
13785TIP3    H162770   3.123   3.692   0.451
13785TIP3    H262771   2.989   3.674   0.520
13786TIP3   OH262772   2.643   2.557   1.133
13786TIP3    H162773   2.560   2.605   1.131
13786TIP3    H262774   2.635   2.492   1.063
13787TIP3   OH262775   1.043   0.980   1.978
13787TIP3    H162776   1.014   0.932   2.056
13787TIP3    H262777   0.965   0.984   1.922
13788TIP3   OH262778   4.823   4.334   2.500
13788TIP3    H162779   4.835   4.268   2.432
13788TIP3    H262780   4.909   4.374   2.510
13789TIP3   OH262781   3.946   5.498   6.454
13789TIP3    H162782   4.004   5.574   6.464
13789TIP3    H262783   3.867   5.523   6.503
13790TIP3   OH262784   2.966   0.115   3.378
13790TIP3    H162785   2.875   0.094   3.401
13790TIP3    H262786   2.959   0.195   3.326
13791TIP3   OH262787   0.148   0.186  15.084
13791TIP3    H162788   0.076   0.188  15.148
13791TIP3    H262789   0.104   0.189  14.999
13792TIP3   OH262790   1.005   4.921  12.608
13792TIP3    H162791   0.928   4.870  12.583
13792TIP3    H262792   1.078   4.860  12.599
13793TIP3   OH262793   1.444   5.416  12.778
13793TIP3    H162794   1.459   5.323  12.797
13793TIP3    H262795   1.410   5.416  12.688
13794TIP3   OH262796   1.569   5.101   5.290
13794TIP3    H162797   1.494   5.131   5.239
13794TIP3    H262798   1.544   5.013   5.320
13795TIP3   OH262799   1.367   6.205  16.379
13795TIP3    H162800   1.305   6.249  16.320
13795TIP3    H262801   1.453   6.236  16.351
13796TIP3   OH262802   6.590   5.896  14.249
13796TIP3    H162803   6.588   5.803  14.272
13796TIP3    H262804   6.672   5.928  14.286
13797TIP3   OH262805   6.349   2.394  13.554
13797TIP3    H162806   6.342   2.453  13.479
13797TIP3    H262807   6.389   2.315  13.518
13798TIP3   OH262808   5.292   5.549  11.008
13798TIP3    H162809   5.305   5.559  10.914
13798TIP3    H262810   5.306   5.637  11.044
13799TIP3   OH262811   1.355   3.892   6.124
13799TIP3    H162812   1.326   3.945   6.198
13799TIP3    H262813   1.346   3.801   6.155
13800TIP3   OH262814   1.499   1.714   3.173
13800TIP3    H162815   1.461   1.694   3.087
13800TIP3    H262816   1.558   1.641   3.190
13801TIP3   OH262817   2.298   2.323  13.664
13801TIP3    H162818   2.234   2.390  13.687
13801TIP3    H262819   2.282   2.304  13.572
13802TIP3   OH262820   3.566   2.199   1.115
13802TIP3    H162821   3.652   2.206   1.073
13802TIP3    H262822   3.511   2.156   1.049
13803TIP3   OH262823   2.025   1.547  12.555
13803TIP3    H162824   1.957   1.588  12.501
13803TIP3    H262825   2.013   1.453  12.542
13804TIP3   OH262826   4.215   3.352   3.082
13804TIP3    H162827   4.171   3.316   3.159
13804TIP3    H262828   4.187   3.296   3.010
13805TIP3   OH262829   5.723   4.229  14.795
13805TIP3    H162830   5.712   4.253  14.888
13805TIP3    H262831   5.813   4.255  14.775
13806TIP3   OH262832   5.716   1.074   1.963
13806TIP3    H162833   5.791   1.015   1.973
13806TIP3    H262834   5.651   1.039   2.024
13807TIP3   OH262835   1.347   2.268   0.803
13807TIP3    H162836   1.310   2.283   0.716
13807TIP3    H262837   1.277   2.294   0.863
13808TIP3   OH262838   3.508   4.078   4.535
13808TIP3    H162839   3.472   4.125   4.609
13808TIP3    H262840   3.494   4.136   4.460
13809TIP3   OH262841   1.591   3.994   4.334
13809TIP3    H162842   1.496   3.982   4.323
13809TIP3    H262843   1.628   3.907   4.323
13810TIP3   OH262844   3.479   4.513  15.386
13810TIP3    H162845   3.541   4.440  15.384
13810TIP3    H262846   3.484   4.550  15.298
13811TIP3   OH262847   0.892   5.944  12.835
13811TIP3    H162848   0.913   6.036  12.823
13811TIP3    H262849   0.958   5.897  12.784
13812TIP3   OH262850   2.127   2.047  17.151
13812TIP3    H162851   2.077   1.970  17.180
13812TIP3    H262852   2.192   2.061  17.220
13813TIP3   OH262853   4.223   5.736   3.791
13813TIP3    H162854   4.134   5.710   3.811
13813TIP3    H262855   4.225   5.744   3.696
13814TIP3   OH262856   3.914   2.095  13.194
13814TIP3    H162857   3.953   2.043  13.124
13814TIP3    H262858   3.989   2.139  13.236
13815TIP3   OH262859   3.306   1.673  14.599
13815TIP3    H162860   3.389   1.683  14.554
13815TIP3    H262861   3.313   1.591  14.647
13816TIP3   OH262862   1.180   0.373   3.632
13816TIP3    H162863   1.187   0.370   3.537
13816TIP3    H262864   1.124   0.448   3.651
13817TIP3   OH262865   4.277   4.204   4.050
13817TIP3    H162866   4.268   4.110   4.064
13817TIP3    H262867   4.189   4.238   4.062
13818TIP3   OH262868   1.261   2.608  12.661
13818TIP3    H162869   1.265   2.566  12.747
13818TIP3    H262870   1.221   2.542  12.604
13819TIP3   OH262871   5.761   5.064  11.719
13819TIP3    H162872   5.745   4.970  11.711
13819TIP3    H262873   5.856   5.072  11.729
13820TIP3   OH262874   0.620   5.460   2.978
13820TIP3    H162875   0.528   5.472   3.000
13820TIP3    H262876   0.667   5.498   3.052
13821TIP3   OH262877   2.232   0.272  14.675
13821TIP3    H162878   2.225   0.318  14.759
13821TIP3    H262879   2.312   0.307  14.636
13822TIP3   OH262880   0.819   1.432  16.849
13822TIP3    H162881   0.880   1.392  16.912
13822TIP3    H262882   0.875   1.460  16.776
13823TIP3   OH262883   6.554   4.256  14.933
13823TIP3    H162884   6.624   4.196  14.906
13823TIP3    H262885   6.513   4.212  15.007
13824TIP3   OH262886   0.050   3.231  16.605
13824TIP3    H162887  -0.010   3.156  16.612
13824TIP3    H262888   0.004   3.292  16.548
13825TIP3   OH262889   0.307   5.333   6.292
13825TIP3    H162890   0.324   5.357   6.201
13825TIP3    H262891   0.298   5.237   6.290
13826TIP3   OH262892   6.270   2.502   0.961
13826TIP3    H162893   6.272   2.406   0.961
13826TIP3    H262894   6.281   2.525   1.053
13827TIP3   OH262895   2.616   0.059   1.845
13827TIP3    H162896   2.638   0.079   1.754
13827TIP3    H262897   2.626  -0.036   1.852
13828TIP3   OH262898   2.875   1.474   4.077
13828TIP3    H162899   2.873   1.422   4.156
13828TIP3    H262900   2.784   1.478   4.047
13829TIP3   OH262901   6.085   2.723  14.440
13829TIP3    H162902   6.048   2.680  14.517
13829TIP3    H262903   6.134   2.797  14.476
13830TIP3   OH262904   6.598   2.760  10.931
13830TIP3    H162905   6.558   2.789  11.013
13830TIP3    H262906   6.580   2.832  10.870
13831TIP3   OH262907   3.993   5.649   5.348
13831TIP3    H162908   3.983   5.704   5.426
13831TIP3    H262909   3.911   5.599   5.343
13832TIP3   OH262910   1.453   1.153   3.055
13832TIP3    H162911   1.412   1.164   2.970
13832TIP3    H262912   1.416   1.072   3.090
13833TIP3   OH262913   2.635   3.348   2.038
13833TIP3    H162914   2.723   3.318   2.014
13833TIP3    H262915   2.637   3.355   2.133
13834TIP3   OH262916   0.105   2.715   4.478
13834TIP3    H162917   0.106   2.639   4.420
13834TIP3    H262918   0.198   2.737   4.489
13835TIP3   OH262919   6.277   5.076  16.069
13835TIP3    H162920   6.322   4.993  16.076
13835TIP3    H262921   6.326   5.136  16.125
13836TIP3   OH262922   3.507   5.683   4.284
13836TIP3    H162923   3.568   5.746   4.323
13836TIP3    H262924   3.533   5.599   4.320
13837TIP3   OH262925   1.004   4.692   2.381
13837TIP3    H162926   1.018   4.617   2.439
13837TIP3    H262927   1.063   4.760   2.414
13838TIP3   OH262928   5.297   6.641  16.128
13838TIP3    H162929   5.282   6.614  16.037
13838TIP3    H262930   5.357   6.575  16.162
13839TIP3   OH262931   1.545   3.571  15.135
13839TIP3    H162932   1.546   3.520  15.055
13839TIP3    H262933   1.585   3.514  15.201
13840TIP3   OH262934   5.877   5.884   0.599
13840TIP3    H162935   5.847   5.912   0.685
13840TIP3    H262936   5.841   5.949   0.538
13841TIP3   OH262937   1.836   6.321   1.281
13841TIP3    H162938   1.811   6.314   1.373
13841TIP3    H262939   1.767   6.274   1.234
13842TIP3   OH262940   0.489   6.365   3.384
13842TIP3    H162941   0.581   6.377   3.407
13842TIP3    H262942   0.459   6.293   3.440
13843TIP3   OH262943   4.405   4.085   0.240
13843TIP3    H162944   4.480   4.115   0.190
13843TIP3    H262945   4.419   4.119   0.328
13844TIP3   OH262946   4.206   1.968  13.650
13844TIP3    H162947   4.243   1.880  13.641
13844TIP3    H262948   4.281   2.023  13.670
13845TIP3   OH262949   5.797   1.111   5.526
13845TIP3    H162950   5.752   1.043   5.576
13845TIP3    H262951   5.877   1.130   5.576
13846TIP3   OH262952   0.189   4.558  13.334
13846TIP3    H162953   0.235   4.564  13.418
13846TIP3    H262954   0.104   4.599  13.349
13847TIP3   OH262955   5.603   5.495  13.980
13847TIP3    H162956   5.535   5.438  14.015
13847TIP3    H262957   5.628   5.551  14.054
13848TIP3   OH262958   4.257   2.027  14.923
13848TIP3    H162959   4.208   2.100  14.886
13848TIP3    H262960   4.321   2.004  14.857
13849TIP3   OH262961   5.620   5.110  12.034
13849TIP3    H162962   5.680   5.119  12.107
13849TIP3    H262963   5.656   5.040  11.980
13850TIP3   OH262964   0.546   6.642  14.070
13850TIP3    H162965   0.532   6.595  14.153
13850TIP3    H262966   0.474   6.705  14.066
13851TIP3   OH262967   2.768   3.245  11.188
13851TIP3    H162968   2.836   3.287  11.240
13851TIP3    H262969   2.760   3.157  11.225
13852TIP3   OH262970   0.459   3.925  16.265
13852TIP3    H162971   0.416   3.843  16.239
13852TIP3    H262972   0.540   3.897  16.307
13853TIP3   OH262973   5.608   4.542  13.492
13853TIP3    H162974   5.680   4.603  13.474
13853TIP3    H262975   5.640   4.489  13.566
13854TIP3   OH262976   3.172   6.427   5.200
13854TIP3    H162977   3.218   6.481   5.265
13854TIP3    H262978   3.079   6.437   5.223
13855TIP3   OH262979   0.355   2.171  15.479
13855TIP3    H162980   0.304   2.244  15.443
13855TIP3    H262981   0.409   2.142  15.405
13856TIP3   OH262982   6.575   1.535   3.455
13856TIP3    H162983   6.514   1.559   3.524
13856TIP3    H262984   6.546   1.449   3.425
13857TIP3   OH262985   5.702   2.901  16.667
13857TIP3    H162986   5.784   2.873  16.626
13857TIP3    H262987   5.674   2.977  16.617
13858TIP3   OH262988   5.164   0.419   3.580
13858TIP3    H162989   5.070   0.411   3.600
13858TIP3    H262990   5.169   0.402   3.486
13859TIP3   OH262991   3.025   4.428   3.056
13859TIP3    H162992   3.113   4.407   3.026
13859TIP3    H262993   3.001   4.357   3.115
13860TIP3   OH262994   3.073   4.896  12.507
13860TIP3    H162995   2.980   4.897  12.486
13860TIP3    H262996   3.077   4.893  12.603
13861TIP3   OH262997   4.291   0.772  14.982
13861TIP3    H162998   4.253   0.860  14.976
13861TIP3    H262999   4.287   0.750  15.075
13862TIP3   OH263000   3.679   5.161  15.164
13862TIP3    H163001   3.632   5.227  15.214
13862TIP3    H263002   3.715   5.102  15.229
13863TIP3   OH263003   1.569   6.446  13.280
13863TIP3    H163004   1.513   6.448  13.357
13863TIP3    H263005   1.586   6.353  13.264
13864TIP3   OH263006   3.970   0.007  11.438
13864TIP3    H163007   3.971  -0.063  11.372
13864TIP3    H263008   3.988  -0.037  11.521
13865TIP3   OH263009   4.531   1.576  13.037
13865TIP3    H163010   4.568   1.527  13.110
13865TIP3    H263011   4.457   1.624  13.075
13866TIP3   OH263012   0.457   3.956  11.658
13866TIP3    H163013   0.526   3.992  11.601
13866TIP3    H263014   0.376   3.969  11.610
13867TIP3   OH263015   1.618   0.435   1.318
13867TIP3    H163016   1.564   0.439   1.397
13867TIP3    H263017   1.628   0.342   1.300
13868TIP3   OH263018   4.114   0.599  14.858
13868TIP3    H163019   4.191   0.650  14.884
13868TIP3    H263020   4.039   0.654  14.884
13869TIP3   OH263021   1.830   4.669   2.544
13869TIP3    H163022   1.753   4.689   2.598
13869TIP3    H263023   1.821   4.726   2.467
13870TIP3   OH263024   1.750   0.918   3.258
13870TIP3    H163025   1.718   1.008   3.253
13870TIP3    H263026   1.699   0.871   3.191
13871TIP3   OH263027   4.919   2.689   5.720
13871TIP3    H163028   4.834   2.677   5.677
13871TIP3    H263029   4.939   2.782   5.707
13872TIP3   OH263030   1.406   6.676  15.494
13872TIP3    H163031   1.328   6.724  15.523
13872TIP3    H263032   1.409   6.691  15.399
13873TIP3   OH263033   1.996   6.746  15.786
13873TIP3    H163034   2.037   6.780  15.866
13873TIP3    H263035   1.993   6.822  15.727
13874TIP3   OH263036   5.669   2.253  14.527
13874TIP3    H163037   5.708   2.165  14.532
13874TIP3    H263038   5.744   2.312  14.525
13875TIP3   OH263039   1.793   1.775  16.815
13875TIP3    H163040   1.815   1.868  16.823
13875TIP3    H263041   1.762   1.750  16.902
13876TIP3   OH263042   2.516   3.062  15.386
13876TIP3    H163043   2.482   2.985  15.433
13876TIP3    H263044   2.518   3.131  15.452
13877TIP3   OH263045   2.097   5.692   2.466
13877TIP3    H163046   2.166   5.709   2.401
13877TIP3    H263047   2.105   5.764   2.529
13878TIP3   OH263048   0.244   0.305   6.047
13878TIP3    H163049   0.226   0.372   6.113
13878TIP3    H263050   0.326   0.332   6.006
13879TIP3   OH263051   6.780   5.187  13.031
13879TIP3    H163052   6.873   5.165  13.022
13879TIP3    H263053   6.754   5.217  12.944
13880TIP3   OH263054   5.729   5.722  14.394
13880TIP3    H163055   5.796   5.788  14.413
13880TIP3    H263056   5.650   5.755  14.436
13881TIP3   OH263057   0.633   0.022   5.288
13881TIP3    H163058   0.608   0.105   5.327
13881TIP3    H263059   0.666   0.045   5.201
13882TIP3   OH263060   0.983   3.247  15.938
13882TIP3    H163061   0.955   3.222  15.850
13882TIP3    H263062   0.910   3.222  15.994
13883TIP3   OH263063   4.377   4.650   6.099
13883TIP3    H163064   4.341   4.634   6.186
13883TIP3    H263065   4.468   4.623   6.105
13884TIP3   OH263066   3.745   3.531   0.144
13884TIP3    H163067   3.793   3.453   0.113
13884TIP3    H263068   3.724   3.579   0.065
13885TIP3   OH263069   6.714   4.195   0.992
13885TIP3    H163070   6.723   4.265   0.927
13885TIP3    H263071   6.804   4.176   1.019
13886TIP3   OH263072   4.175   5.429   2.427
13886TIP3    H163073   4.137   5.490   2.363
13886TIP3    H263074   4.149   5.343   2.395
13887TIP3   OH263075   3.216   2.905   1.445
13887TIP3    H163076   3.187   2.819   1.477
13887TIP3    H263077   3.148   2.932   1.384
13888TIP3   OH263078   3.879   0.079   3.212
13888TIP3    H163079   3.887   0.051   3.121
13888TIP3    H263080   3.967   0.066   3.248
13889TIP3   OH263081   2.582   3.448  12.784
13889TIP3    H163082   2.540   3.363  12.772
13889TIP3    H263083   2.522   3.510  12.743
13890TIP3   OH263084   3.435   5.393   5.675
13890TIP3    H163085   3.505   5.360   5.732
13890TIP3    H263086   3.466   5.374   5.586
13891TIP3   OH263087   6.056   5.709  16.925
13891TIP3    H163088   6.149   5.693  16.940
13891TIP3    H263089   6.055   5.780  16.860
13892TIP3   OH263090   1.888   4.277   1.005
13892TIP3    H163091   1.886   4.321   1.090
13892TIP3    H263092   1.982   4.269   0.985
13893TIP3   OH263093   5.347   4.513  15.517
13893TIP3    H163094   5.287   4.459  15.465
13893TIP3    H263095   5.429   4.464  15.516
13894TIP3   OH263096   5.761   5.142  13.640
13894TIP3    H163097   5.844   5.182  13.666
13894TIP3    H263098   5.787   5.063  13.592
13895TIP3   OH263099   4.033   4.622   6.242
13895TIP3    H163100   4.111   4.567   6.236
13895TIP3    H263101   4.042   4.685   6.170
13896TIP3   OH263102   2.118   3.959   5.695
13896TIP3    H163103   2.156   3.998   5.774
13896TIP3    H263104   2.033   3.924   5.723
13897TIP3   OH263105   6.587   3.488  11.003
13897TIP3    H163106   6.639   3.501  10.923
13897TIP3    H263107   6.530   3.414  10.982
13898TIP3   OH263108   6.098   4.804   2.258
13898TIP3    H163109   6.187   4.775   2.277
13898TIP3    H263110   6.105   4.856   2.178
13899TIP3   OH263111   4.985   0.725   1.695
13899TIP3    H163112   4.907   0.770   1.661
13899TIP3    H263113   5.058   0.782   1.671
13900TIP3   OH263114   3.024   5.271  16.634
13900TIP3    H163115   3.074   5.351  16.621
13900TIP3    H263116   3.089   5.201  16.634
13901TIP3   OH263117   3.450   2.410   2.125
13901TIP3    H163118   3.531   2.459   2.131
13901TIP3    H263119   3.469   2.326   2.169
13902TIP3   OH263120   3.098   6.071   1.533
13902TIP3    H163121   3.071   6.075   1.441
13902TIP3    H263122   3.181   6.022   1.531
13903TIP3   OH263123   1.562   2.622  10.990
13903TIP3    H163124   1.579   2.536  10.950
13903TIP3    H263125   1.521   2.673  10.920
13904TIP3   OH263126   0.217   1.059   4.746
13904TIP3    H163127   0.147   1.007   4.785
13904TIP3    H263128   0.232   1.020   4.660
13905TIP3   OH263129   5.935   0.792  16.330
13905TIP3    H163130   5.959   0.699  16.330
13905TIP3    H263131   5.858   0.796  16.387
13906TIP3   OH263132   4.316   2.914   0.593
13906TIP3    H163133   4.248   2.974   0.624
13906TIP3    H263134   4.364   2.964   0.527
13907TIP3   OH263135   1.100   4.554  11.749
13907TIP3    H163136   1.138   4.537  11.663
13907TIP3    H263137   1.050   4.635  11.737
13908TIP3   OH263138   6.459   2.982   3.079
13908TIP3    H163139   6.441   2.893   3.050
13908TIP3    H263140   6.376   3.028   3.069
13909TIP3   OH263141   0.536   6.186   0.095
13909TIP3    H163142   0.458   6.222   0.053
13909TIP3    H263143   0.502   6.121   0.156
13910TIP3   OH263144   6.214   5.332  13.207
13910TIP3    H163145   6.208   5.426  13.226
13910TIP3    H263146   6.221   5.291  13.293
13911TIP3   OH263147   1.932   2.209   4.952
13911TIP3    H163148   1.943   2.263   4.874
13911TIP3    H263149   1.992   2.136   4.939
13912TIP3   OH263150   3.759   6.657   5.103
13912TIP3    H163151   3.739   6.750   5.111
13912TIP3    H263152   3.852   6.655   5.077
13913TIP3   OH263153   0.772   2.482   5.231
13913TIP3    H163154   0.848   2.425   5.231
13913TIP3    H263155   0.721   2.455   5.308
13914TIP3   OH263156   3.667   5.448   4.779
13914TIP3    H163157   3.645   5.538   4.754
13914TIP3    H263158   3.587   5.398   4.760
13915TIP3   OH263159   4.942   5.793   0.456
13915TIP3    H163160   4.958   5.715   0.510
13915TIP3    H263161   5.028   5.813   0.418
13916TIP3   OH263162   3.234   3.087  13.288
13916TIP3    H163163   3.330   3.085  13.288
13916TIP3    H263164   3.213   3.172  13.250
13917TIP3   OH263165   1.608   3.638   4.940
13917TIP3    H163166   1.670   3.574   4.974
13917TIP3    H263167   1.599   3.703   5.010
13918TIP3   OH263168   0.454   2.831   2.281
13918TIP3    H163169   0.371   2.871   2.304
13918TIP3    H263170   0.516   2.904   2.280
13919TIP3   OH263171   1.156   3.156   1.147
13919TIP3    H163172   1.160   3.114   1.061
13919TIP3    H263173   1.244   3.145   1.183
13920TIP3   OH263174   3.046   6.689  16.450
13920TIP3    H163175   2.987   6.724  16.517
13920TIP3    H263176   3.044   6.594  16.463
13921TIP3   OH263177   0.902   6.730  15.975
13921TIP3    H163178   0.976   6.670  15.986
13921TIP3    H263179   0.901   6.781  16.056
13922TIP3   OH263180   4.722   2.977  15.233
13922TIP3    H163181   4.682   3.064  15.245
13922TIP3    H263182   4.728   2.941  15.322
13923TIP3   OH263183   1.919   1.050   6.250
13923TIP3    H163184   1.996   1.076   6.301
13923TIP3    H263185   1.846   1.094   6.293
13924TIP3   OH263186   2.503   4.876   5.705
13924TIP3    H163187   2.557   4.953   5.719
13924TIP3    H263188   2.413   4.909   5.702
13925TIP3   OH263189   4.356   0.702   2.297
13925TIP3    H163190   4.379   0.688   2.388
13925TIP3    H263191   4.333   0.795   2.292
13926TIP3   OH263192   4.452   0.389   3.160
13926TIP3    H163193   4.392   0.363   3.090
13926TIP3    H263194   4.518   0.320   3.161
13927TIP3   OH263195   5.390   4.193   5.405
13927TIP3    H163196   5.473   4.214   5.448
13927TIP3    H263197   5.396   4.235   5.319
13928TIP3   OH263198   3.122   5.962  16.908
13928TIP3    H163199   3.063   5.933  16.978
13928TIP3    H263200   3.147   6.050  16.933
13929TIP3   OH263201   2.271   1.533  15.148
13929TIP3    H163202   2.325   1.536  15.227
13929TIP3    H263203   2.200   1.473  15.171
13930TIP3   OH263204   1.777   5.953   0.616
13930TIP3    H163205   1.810   5.885   0.674
13930TIP3    H263206   1.704   5.912   0.570
13931TIP3   OH263207   1.872   4.548  13.667
13931TIP3    H163208   1.786   4.582  13.691
13931TIP3    H263209   1.930   4.623  13.671
13932TIP3   OH263210   6.203   1.511  15.765
13932TIP3    H163211   6.118   1.473  15.740
13932TIP3    H263212   6.181   1.599  15.797
13933TIP3   OH263213   5.058   5.104   2.815
13933TIP3    H163214   5.090   5.089   2.904
13933TIP3    H263215   5.134   5.137   2.767
13934TIP3   OH263216   0.454   6.303  16.741
13934TIP3    H163217   0.425   6.332  16.827
13934TIP3    H263218   0.447   6.381  16.686
13935TIP3   OH263219   5.959   0.566  10.742
13935TIP3    H163220   5.919   0.483  10.714
13935TIP3    H263221   5.998   0.601  10.662
13936TIP3   OH263222   3.665   2.555  15.465
13936TIP3    H163223   3.578   2.571  15.501
13936TIP3    H263224   3.656   2.575  15.371
13937TIP3   OH263225   4.794   4.706   3.491
13937TIP3    H163226   4.846   4.683   3.568
13937TIP3    H263227   4.841   4.664   3.418
13938TIP3   OH263228   1.293   5.640  13.815
13938TIP3    H163229   1.203   5.643  13.848
13938TIP3    H263230   1.284   5.645  13.720
13939TIP3   OH263231   1.316   3.893  13.302
13939TIP3    H163232   1.373   3.828  13.261
13939TIP3    H263233   1.305   3.961  13.236
13940TIP3   OH263234   1.215   6.196  13.217
13940TIP3    H163235   1.155   6.129  13.186
13940TIP3    H263236   1.300   6.170  13.183
13941TIP3   OH263237   4.036   4.444  14.623
13941TIP3    H163238   4.072   4.503  14.558
13941TIP3    H263239   4.043   4.491  14.706
13942TIP3   OH263240   3.939   0.653   2.440
13942TIP3    H163241   3.950   0.724   2.376
13942TIP3    H263242   3.928   0.697   2.524
13943TIP3   OH263243   0.654   1.807   2.197
13943TIP3    H163244   0.666   1.790   2.104
13943TIP3    H263245   0.739   1.787   2.237
13944TIP3   OH263246   1.997   3.654  14.593
13944TIP3    H163247   1.973   3.746  14.602
13944TIP3    H263248   1.927   3.616  14.540
13945TIP3   OH263249   0.169   3.185  14.869
13945TIP3    H163250   0.104   3.255  14.873
13945TIP3    H263251   0.148   3.137  14.789
13946TIP3   OH263252   6.093   1.823   4.913
13946TIP3    H163253   6.070   1.731   4.921
13946TIP3    H263254   6.143   1.828   4.831
13947TIP3   OH263255   4.656   2.886   4.881
13947TIP3    H163256   4.669   2.972   4.842
13947TIP3    H263257   4.617   2.833   4.811
13948TIP3   OH263258   3.580   3.073   1.497
13948TIP3    H163259   3.506   3.045   1.551
13948TIP3    H263260   3.608   2.993   1.452
13949TIP3   OH263261   4.287   6.269  12.642
13949TIP3    H163262   4.365   6.244  12.592
13949TIP3    H263263   4.321   6.316  12.718
13950TIP3   OH263264   1.379   3.995  16.716
13950TIP3    H163265   1.392   3.967  16.807
13950TIP3    H263266   1.461   3.973  16.672
13951TIP3   OH263267   4.112   3.842  15.606
13951TIP3    H163268   4.178   3.775  15.624
13951TIP3    H263269   4.159   3.909  15.556
13952TIP3   OH263270   1.197   5.794   5.234
13952TIP3    H163271   1.146   5.725   5.191
13952TIP3    H263272   1.227   5.755   5.315
13953TIP3   OH263273   0.548   0.814   5.522
13953TIP3    H163274   0.478   0.771   5.474
13953TIP3    H263275   0.511   0.832   5.609
13954TIP3   OH263276   5.641   3.681   1.454
13954TIP3    H163277   5.619   3.773   1.442
13954TIP3    H263278   5.675   3.654   1.368
13955TIP3   OH263279   0.260   5.772  15.764
13955TIP3    H163280   0.344   5.794  15.725
13955TIP3    H263281   0.280   5.751  15.855
13956TIP3   OH263282   1.318   2.935   6.086
13956TIP3    H163283   1.312   2.911   6.179
13956TIP3    H263284   1.375   2.868   6.048
13957TIP3   OH263285   5.153   5.156   4.713
13957TIP3    H163286   5.101   5.078   4.730
13957TIP3    H263287   5.225   5.152   4.776
13958TIP3   OH263288   4.769   4.240  16.581
13958TIP3    H163289   4.733   4.205  16.663
13958TIP3    H263290   4.806   4.164  16.537
13959TIP3   OH263291   2.130   3.253  13.071
13959TIP3    H163292   2.221   3.249  13.098
13959TIP3    H263293   2.126   3.325  13.008
13960TIP3   OH263294   0.336   2.515   1.861
13960TIP3    H163295   0.424   2.495   1.894
13960TIP3    H263296   0.311   2.595   1.906
13961TIP3   OH263297   5.640   2.270   5.048
13961TIP3    H163298   5.681   2.226   5.122
13961TIP3    H263299   5.655   2.364   5.064
13962TIP3   OH263300   2.038   6.428   6.183
13962TIP3    H163301   2.071   6.479   6.256
13962TIP3    H263302   1.949   6.461   6.168
13963TIP3   OH263303   1.898   2.618  14.711
13963TIP3    H163304   1.945   2.545  14.672
13963TIP3    H263305   1.945   2.637  14.793
13964TIP3   OH263306   3.286   6.545   2.296
13964TIP3    H163307   3.233   6.484   2.349
13964TIP3    H263308   3.313   6.494   2.221
13965TIP3   OH263309   3.139   4.952   4.173
13965TIP3    H163310   3.119   4.937   4.266
13965TIP3    H263311   3.231   4.978   4.172
13966TIP3   OH263312   2.464   6.265   5.241
13966TIP3    H163313   2.518   6.189   5.262
13966TIP3    H263314   2.423   6.243   5.158
13967TIP3   OH263315   1.580   6.184   3.149
13967TIP3    H163316   1.536   6.255   3.103
13967TIP3    H263317   1.669   6.216   3.166
13968TIP3   OH263318   1.537   1.521   6.695
13968TIP3    H163319   1.614   1.568   6.727
13968TIP3    H263320   1.573   1.444   6.650
13969TIP3   OH263321   5.542   2.873   3.053
13969TIP3    H163322   5.458   2.918   3.038
13969TIP3    H263323   5.517   2.788   3.091
13970TIP3   OH263324   5.774   0.866   5.983
13970TIP3    H163325   5.716   0.938   5.957
13970TIP3    H263326   5.740   0.790   5.938
13971TIP3   OH263327   0.728   3.631  11.555
13971TIP3    H163328   0.824   3.629  11.553
13971TIP3    H263329   0.704   3.686  11.481
13972TIP3   OH263330   0.826   3.784   2.413
13972TIP3    H163331   0.780   3.722   2.356
13972TIP3    H263332   0.764   3.803   2.483
13973TIP3   OH263333   3.761   6.718   2.210
13973TIP3    H163334   3.780   6.804   2.249
13973TIP3    H263335   3.671   6.699   2.237
13974TIP3   OH263336   4.253   1.580   5.672
13974TIP3    H163337   4.241   1.629   5.590
13974TIP3    H263338   4.246   1.488   5.646
13975TIP3   OH263339   3.291   5.005   6.215
13975TIP3    H163340   3.225   5.047   6.271
13975TIP3    H263341   3.337   4.945   6.273
13976TIP3   OH263342   4.244   0.172  11.267
13976TIP3    H163343   4.282   0.214  11.189
13976TIP3    H263344   4.305   0.193  11.337
13977TIP3   OH263345   3.893   2.976  12.226
13977TIP3    H163346   3.952   3.046  12.198
13977TIP3    H263347   3.826   3.020  12.277
13978TIP3   OH263348   3.518   0.108  10.389
13978TIP3    H163349   3.605   0.122  10.352
13978TIP3    H263350   3.471   0.190  10.373
13979TIP3   OH263351   1.449   1.003   1.662
13979TIP3    H163352   1.505   0.942   1.710
13979TIP3    H263353   1.510   1.068   1.626
13980TIP3   OH263354   0.645   0.819  12.690
13980TIP3    H163355   0.551   0.830  12.702
13980TIP3    H263356   0.684   0.892  12.738
13981TIP3   OH263357   5.387   5.706  12.515
13981TIP3    H163358   5.360   5.688  12.425
13981TIP3    H263359   5.385   5.621  12.558
13982TIP3   OH263360   3.757   1.424  11.324
13982TIP3    H163361   3.725   1.412  11.413
13982TIP3    H263362   3.822   1.494  11.331
13983TIP3   OH263363   5.559   3.942  15.962
13983TIP3    H163364   5.542   3.855  16.000
13983TIP3    H263365   5.652   3.957  15.980
13984TIP3   OH263366   4.028   1.561  11.226
13984TIP3    H163367   4.053   1.470  11.210
13984TIP3    H263368   4.111   1.607  11.239
13985TIP3   OH263369   1.396   6.364  11.540
13985TIP3    H163370   1.443   6.421  11.479
13985TIP3    H263371   1.341   6.309  11.484
13986TIP3   OH263372   4.662   4.592   0.189
13986TIP3    H163373   4.719   4.567   0.262
13986TIP3    H263374   4.611   4.666   0.222
13987TIP3   OH263375   0.486   1.960   3.443
13987TIP3    H163376   0.533   2.036   3.477
13987TIP3    H263377   0.394   1.988   3.442
13988TIP3   OH263378   6.661   2.863  16.625
13988TIP3    H163379   6.711   2.924  16.571
13988TIP3    H263380   6.611   2.811  16.563
13989TIP3   OH263381   0.183   4.269   0.222
13989TIP3    H163382   0.129   4.191   0.218
13989TIP3    H263383   0.261   4.242   0.271
13990TIP3   OH263384   5.952   1.251   3.200
13990TIP3    H163385   6.047   1.264   3.192
13990TIP3    H263386   5.943   1.169   3.247
13991TIP3   OH263387   6.559   5.744   5.910
13991TIP3    H163388   6.544   5.652   5.888
13991TIP3    H263389   6.471   5.782   5.910
13992TIP3   OH263390   1.053   2.198  11.723
13992TIP3    H163391   1.090   2.272  11.676
13992TIP3    H263392   0.962   2.221  11.738
13993TIP3   OH263393   5.411   6.273  12.172
13993TIP3    H163394   5.417   6.263  12.078
13993TIP3    H263395   5.401   6.368  12.186
13994TIP3   OH263396   0.972   2.366  14.140
13994TIP3    H163397   0.910   2.294  14.142
13994TIP3    H263398   0.974   2.394  14.049
13995TIP3   OH263399   5.052   2.596  11.157
13995TIP3    H163400   5.063   2.665  11.091
13995TIP3    H263401   4.960   2.571  11.152
13996TIP3   OH263402   3.318   4.405   0.908
13996TIP3    H163403   3.359   4.488   0.929
13996TIP3    H263404   3.376   4.339   0.944
13997TIP3   OH263405   2.443   1.452   4.294
13997TIP3    H163406   2.493   1.403   4.358
13997TIP3    H263407   2.509   1.498   4.242
13998TIP3   OH263408   0.266   0.071   2.951
13998TIP3    H163409   0.322  -0.003   2.975
13998TIP3    H263410   0.209   0.037   2.882
13999TIP3   OH263411   0.103   2.812  10.992
13999TIP3    H163412   0.021   2.780  10.955
13999TIP3    H263413   0.082   2.830  11.084
14000TIP3   OH263414   3.208   4.288  13.024
14000TIP3    H163415   3.242   4.310  12.938
14000TIP3    H263416   3.133   4.346  13.036
14001TIP3   OH263417   4.273   5.290   1.449
14001TIP3    H163418   4.220   5.320   1.376
14001TIP3    H263419   4.278   5.365   1.508
14002TIP3   OH263420   3.191   0.773  11.944
14002TIP3    H163421   3.251   0.845  11.924
14002TIP3    H263422   3.246   0.705  11.982
14003TIP3   OH263423   4.936   4.216  11.806
14003TIP3    H163424   4.860   4.198  11.751
14003TIP3    H263425   4.930   4.310  11.825
14004TIP3   OH263426   0.512   2.042  15.287
14004TIP3    H163427   0.567   2.108  15.245
14004TIP3    H263428   0.470   1.996  15.215
14005TIP3   OH263429   0.076   2.039   5.917
14005TIP3    H163430   0.097   2.020   6.008
14005TIP3    H263431  -0.013   2.005   5.905
14006TIP3   OH263432   0.749   3.812  12.704
14006TIP3    H163433   0.719   3.863  12.629
14006TIP3    H263434   0.735   3.869  12.780
14007TIP3   OH263435   4.792   5.228   4.242
14007TIP3    H163436   4.798   5.294   4.172
14007TIP3    H263437   4.827   5.271   4.319
14008TIP3   OH263438   2.895   0.558   5.007
14008TIP3    H163439   2.822   0.515   5.052
14008TIP3    H263440   2.880   0.652   5.021
14009TIP3   OH263441   5.869   5.597  13.521
14009TIP3    H163442   5.823   5.513  13.516
14009TIP3    H263443   5.800   5.662  13.532
14010TIP3   OH263444   4.508   0.252  12.715
14010TIP3    H163445   4.589   0.214  12.682
14010TIP3    H263446   4.467   0.181  12.766
14011TIP3   OH263447   4.721   1.829  15.359
14011TIP3    H163448   4.724   1.746  15.313
14011TIP3    H263449   4.757   1.810  15.446
14012TIP3   OH263450   2.314   2.596   2.415
14012TIP3    H163451   2.363   2.677   2.426
14012TIP3    H263452   2.289   2.595   2.323
14013TIP3   OH263453   4.030   3.441  15.544
14013TIP3    H163454   3.998   3.396  15.467
14013TIP3    H263455   4.122   3.461  15.525
14014TIP3   OH263456   3.682   6.439  11.453
14014TIP3    H163457   3.776   6.424  11.462
14014TIP3    H263458   3.649   6.362  11.407
14015TIP3   OH263459   5.754   3.445  11.793
14015TIP3    H163460   5.796   3.423  11.709
14015TIP3    H263461   5.823   3.434  11.858
14016TIP3   OH263462   6.311   6.371   2.035
14016TIP3    H163463   6.228   6.324   2.045
14016TIP3    H263464   6.311   6.398   1.943
14017TIP3   OH263465   6.386   0.639  14.487
14017TIP3    H163466   6.428   0.556  14.509
14017TIP3    H263467   6.303   0.638  14.535
14018TIP3   OH263468   3.296   4.286   2.460
14018TIP3    H163469   3.254   4.311   2.542
14018TIP3    H263470   3.238   4.220   2.422
14019TIP3   OH263471   3.196   2.154  11.104
14019TIP3    H163472   3.274   2.166  11.049
14019TIP3    H263473   3.153   2.077  11.067
14020TIP3   OH263474   1.917   6.696  15.169
14020TIP3    H163475   1.980   6.660  15.232
14020TIP3    H263476   1.968   6.757  15.117
14021TIP3   OH263477   5.234   6.455   3.605
14021TIP3    H163478   5.150   6.450   3.559
14021TIP3    H263479   5.214   6.503   3.685
14022TIP3   OH263480   1.501   5.855  13.128
14022TIP3    H163481   1.570   5.920  13.113
14022TIP3    H263482   1.547   5.772  13.140
14023TIP3   OH263483   4.681   2.505  14.574
14023TIP3    H163484   4.628   2.450  14.517
14023TIP3    H263485   4.671   2.593  14.539
14024TIP3   OH263486   4.271   3.031  14.761
14024TIP3    H163487   4.336   3.098  14.740
14024TIP3    H263488   4.201   3.044  14.697
14025TIP3   OH263489   6.462   3.108  11.211
14025TIP3    H163490   6.557   3.098  11.222
14025TIP3    H263491   6.446   3.200  11.230
14026TIP3   OH263492   3.608   4.983   0.138
14026TIP3    H163493   3.605   5.059   0.080
14026TIP3    H263494   3.592   5.019   0.225
14027TIP3   OH263495   0.022   1.311  10.865
14027TIP3    H163496  -0.059   1.357  10.889
14027TIP3    H263497   0.068   1.372  10.808
14028TIP3   OH263498   6.531   1.579   6.111
14028TIP3    H163499   6.468   1.513   6.082
14028TIP3    H263500   6.552   1.554   6.201
14029TIP3   OH263501   3.289   5.436  13.963
14029TIP3    H163502   3.245   5.519  13.983
14029TIP3    H263503   3.219   5.371  13.969
14030TIP3   OH263504   3.101   6.762   1.301
14030TIP3    H163505   3.085   6.698   1.231
14030TIP3    H263506   3.096   6.847   1.257
14031TIP3   OH263507   0.441   1.401   1.814
14031TIP3    H163508   0.500   1.469   1.847
14031TIP3    H263509   0.499   1.329   1.788
14032TIP3   OH263510   1.522   5.398   4.479
14032TIP3    H163511   1.517   5.493   4.465
14032TIP3    H263512   1.567   5.365   4.401
14033TIP3   OH263513   6.171   6.268   3.485
14033TIP3    H163514   6.121   6.309   3.415
14033TIP3    H263515   6.197   6.340   3.543
14034TIP3   OH263516   1.686   1.879   4.886
14034TIP3    H163517   1.636   1.860   4.807
14034TIP3    H263518   1.703   1.973   4.881
14035TIP3   OH263519   2.124   1.267  12.977
14035TIP3    H163520   2.170   1.223  12.906
14035TIP3    H263521   2.040   1.221  12.982
14036TIP3   OH263522   2.940   0.366   2.049
14036TIP3    H163523   2.946   0.432   2.118
14036TIP3    H263524   3.007   0.390   1.986
14037TIP3   OH263525   4.653   3.122   2.397
14037TIP3    H163526   4.637   3.068   2.475
14037TIP3    H263527   4.732   3.085   2.358
14038TIP3   OH263528   4.468   1.132  13.629
14038TIP3    H163529   4.555   1.126  13.668
14038TIP3    H263530   4.414   1.171  13.698
14039TIP3   OH263531   3.587   1.349  11.024
14039TIP3    H163532   3.625   1.436  11.039
14039TIP3    H263533   3.581   1.341  10.929
14040TIP3   OH263534   3.645   2.268   0.796
14040TIP3    H163535   3.550   2.264   0.809
14040TIP3    H263536   3.655   2.278   0.701
14041TIP3   OH263537   2.933   3.840  16.007
14041TIP3    H163538   2.926   3.778  15.934
14041TIP3    H263539   3.024   3.868  16.006
14042TIP3   OH263540   1.904   6.470  16.933
14042TIP3    H163541   1.812   6.443  16.937
14042TIP3    H263542   1.952   6.389  16.915
14043TIP3   OH263543   3.786   3.851  12.031
14043TIP3    H163544   3.813   3.783  11.969
14043TIP3    H263545   3.790   3.808  12.117
14044TIP3   OH263546   6.492   2.956   1.488
14044TIP3    H163547   6.457   2.868   1.473
14044TIP3    H263548   6.441   2.990   1.561
14045TIP3   OH263549   0.562   2.748   0.300
14045TIP3    H163550   0.507   2.722   0.374
14045TIP3    H263551   0.646   2.706   0.316
14046TIP3   OH263552   2.824   6.492   2.255
14046TIP3    H163553   2.803   6.564   2.194
14046TIP3    H263554   2.837   6.535   2.339
14047TIP3   OH263555   2.424   3.607  12.615
14047TIP3    H163556   2.385   3.617  12.528
14047TIP3    H263557   2.443   3.696  12.643
14048TIP3   OH263558   3.958   1.997   4.712
14048TIP3    H163559   4.026   1.958   4.767
14048TIP3    H263560   3.976   2.091   4.715
14049TIP3   OH263561   5.792   2.257   5.268
14049TIP3    H163562   5.755   2.345   5.263
14049TIP3    H263563   5.837   2.254   5.352
14050TIP3   OH263564   4.438   4.082   5.306
14050TIP3    H163565   4.501   4.149   5.280
14050TIP3    H263566   4.389   4.121   5.378
14051TIP3   OH263567   2.217   2.991  12.722
14051TIP3    H163568   2.276   3.057  12.687
14051TIP3    H263569   2.275   2.927  12.764
14052TIP3   OH263570   0.849   0.004  14.160
14052TIP3    H163571   0.829  -0.022  14.250
14052TIP3    H263572   0.789  -0.048  14.106
14053TIP3   OH263573   2.371   2.547   5.879
14053TIP3    H163574   2.422   2.587   5.950
14053TIP3    H263575   2.293   2.603   5.872
14054TIP3   OH263576   6.698   1.793   2.116
14054TIP3    H163577   6.654   1.864   2.162
14054TIP3    H263578   6.693   1.817   2.024
14055TIP3   OH263579   0.184   2.520  16.394
14055TIP3    H163580   0.218   2.440  16.434
14055TIP3    H263581   0.139   2.490  16.315
14056TIP3   OH263582   2.653   5.141   1.347
14056TIP3    H163583   2.626   5.064   1.397
14056TIP3    H263584   2.720   5.109   1.287
14057TIP3   OH263585   5.172   0.056  13.566
14057TIP3    H163586   5.152   0.092  13.480
14057TIP3    H263587   5.143   0.123  13.627
14058TIP3   OH263588   3.881   4.103  16.904
14058TIP3    H163589   3.901   4.171  16.968
14058TIP3    H263590   3.946   4.115  16.834
14059TIP3   OH263591   6.088   6.638   5.300
14059TIP3    H163592   5.997   6.638   5.331
14059TIP3    H263593   6.108   6.731   5.286
14060TIP3   OH263594   1.063   3.647   6.429
14060TIP3    H163595   1.009   3.583   6.382
14060TIP3    H263596   1.012   3.670   6.506
14061TIP3   OH263597   1.025   5.389   4.053
14061TIP3    H163598   0.994   5.477   4.073
14061TIP3    H263599   1.118   5.391   4.076
14062TIP3   OH263600   6.692   0.521   3.675
14062TIP3    H163601   6.707   0.486   3.763
14062TIP3    H263602   6.631   0.460   3.635
14063TIP3   OH263603   2.122   3.540  12.613
14063TIP3    H163604   2.079   3.582  12.539
14063TIP3    H263605   2.149   3.454  12.580
14064TIP3   OH263606   5.814   1.994  12.971
14064TIP3    H163607   5.881   2.010  13.037
14064TIP3    H263608   5.749   2.063  12.985
14065TIP3   OH263609   2.255   0.320   0.892
14065TIP3    H163610   2.282   0.307   0.983
14065TIP3    H263611   2.169   0.361   0.898
14066TIP3   OH263612   4.361   6.130  12.089
14066TIP3    H163613   4.316   6.107  12.009
14066TIP3    H263614   4.331   6.219  12.109
14067TIP3   OH263615   2.571   3.697   0.502
14067TIP3    H163616   2.510   3.651   0.559
14067TIP3    H263617   2.628   3.746   0.561
14068TIP3   OH263618   2.449   1.441   5.592
14068TIP3    H163619   2.502   1.449   5.512
14068TIP3    H263620   2.387   1.514   5.586
14069TIP3   OH263621   4.745   2.835  13.281
14069TIP3    H163622   4.683   2.778  13.236
14069TIP3    H263623   4.798   2.873  13.211
14070TIP3   OH263624   2.564   3.204   5.273
14070TIP3    H163625   2.602   3.236   5.354
14070TIP3    H263626   2.512   3.128   5.299
14071TIP3   OH263627   0.948   6.510   4.079
14071TIP3    H163628   0.977   6.543   3.994
14071TIP3    H263629   0.855   6.490   4.067
14072TIP3   OH263630   0.059   1.706  16.646
14072TIP3    H163631   0.134   1.759  16.623
14072TIP3    H263632   0.072   1.624  16.598
14073TIP3   OH263633   1.421   2.953   4.869
14073TIP3    H163634   1.416   2.861   4.843
14073TIP3    H263635   1.347   2.965   4.928
14074TIP3   OH263636   6.052   1.274  16.007
14074TIP3    H163637   6.008   1.189  16.000
14074TIP3    H263638   6.132   1.263  15.955
14075TIP3   OH263639   6.401   6.119  11.801
14075TIP3    H163640   6.471   6.116  11.867
14075TIP3    H263641   6.354   6.201  11.820
14076TIP3   OH263642   1.738   2.246   2.342
14076TIP3    H163643   1.646   2.245   2.316
14076TIP3    H263644   1.745   2.178   2.409
14077TIP3   OH263645   6.774   0.788  17.094
14077TIP3    H163646   6.683   0.805  17.119
14077TIP3    H263647   6.775   0.799  16.999
14078TIP3   OH263648   5.754   5.921   2.313
14078TIP3    H163649   5.751   5.828   2.337
14078TIP3    H263650   5.670   5.956   2.341
14079TIP3   OH263651   4.979   5.272  16.620
14079TIP3    H163652   4.958   5.192  16.668
14079TIP3    H263653   5.061   5.252  16.575
14080TIP3   OH263654   4.893   3.423   4.298
14080TIP3    H163655   4.980   3.425   4.259
14080TIP3    H263656   4.839   3.475   4.238
14081TIP3   OH263657   2.716   0.570  16.087
14081TIP3    H163658   2.701   0.494  16.031
14081TIP3    H263659   2.674   0.548  16.170
14082TIP3   OH263660   6.059   4.924  15.083
14082TIP3    H163661   6.143   4.903  15.123
14082TIP3    H263662   6.067   4.893  14.992
14083TIP3   OH263663   4.255   2.081   3.741
14083TIP3    H163664   4.310   2.141   3.792
14083TIP3    H263665   4.246   2.125   3.656
14084TIP3   OH263666   2.137   6.706  12.928
14084TIP3    H163667   2.045   6.686  12.908
14084TIP3    H263668   2.178   6.712  12.842
14085TIP3   OH263669   6.160   5.797   2.931
14085TIP3    H163670   6.131   5.749   3.009
14085TIP3    H263671   6.229   5.855   2.964
14086TIP3   OH263672   6.231   3.713   2.556
14086TIP3    H163673   6.237   3.634   2.610
14086TIP3    H263674   6.245   3.785   2.617
14087TIP3   OH263675   5.176   2.914   2.924
14087TIP3    H163676   5.166   2.992   2.869
14087TIP3    H263677   5.228   2.945   2.998
14088TIP3   OH263678   2.985   6.301   3.393
14088TIP3    H163679   2.964   6.287   3.486
14088TIP3    H263680   2.952   6.389   3.374
14089TIP3   OH263681   0.606   3.984   0.815
14089TIP3    H163682   0.649   3.914   0.765
14089TIP3    H263683   0.565   4.039   0.749
14090TIP3   OH263684   5.249   1.009  13.726
14090TIP3    H163685   5.283   1.058  13.652
14090TIP3    H263686   5.301   0.928  13.728
14091TIP3   OH263687   3.976   3.741  11.667
14091TIP3    H163688   4.055   3.752  11.719
14091TIP3    H263689   3.989   3.799  11.591
14092TIP3   OH263690   6.765   5.493  15.131
14092TIP3    H163691   6.695   5.471  15.069
14092TIP3    H263692   6.767   5.420  15.193
14093TIP3   OH263693   6.499   1.383   2.017
14093TIP3    H163694   6.502   1.332   1.937
14093TIP3    H263695   6.574   1.443   2.011
14094TIP3   OH263696   0.033   3.973  12.006
14094TIP3    H163697   0.013   3.986  11.914
14094TIP3    H263698   0.022   4.059  12.046
14095TIP3   OH263699   6.461   5.776  16.494
14095TIP3    H163700   6.427   5.823  16.419
14095TIP3    H263701   6.485   5.690  16.460
14096TIP3   OH263702   4.563   2.669   3.526
14096TIP3    H163703   4.636   2.696   3.582
14096TIP3    H263704   4.531   2.750   3.487
14097TIP3   OH263705   5.708   6.584  16.541
14097TIP3    H163706   5.781   6.637  16.509
14097TIP3    H263707   5.690   6.617  16.629
14098TIP3   OH263708   6.303   6.408   0.926
14098TIP3    H163709   6.351   6.476   0.972
14098TIP3    H263710   6.317   6.329   0.978
14099TIP3   OH263711   5.255   3.295   0.161
14099TIP3    H163712   5.225   3.349   0.234
14099TIP3    H263713   5.277   3.359   0.092
14100TIP3   OH263714   6.624   0.685   4.610
14100TIP3    H163715   6.623   0.633   4.690
14100TIP3    H263716   6.701   0.654   4.563
14101TIP3   OH263717   3.869   2.916  15.258
14101TIP3    H163718   3.962   2.934  15.274
14101TIP3    H263719   3.868   2.865  15.177
14102TIP3   OH263720   4.239   3.382  16.446
14102TIP3    H163721   4.287   3.411  16.368
14102TIP3    H263722   4.172   3.322  16.412
14103TIP3   OH263723   5.719   4.642  16.789
14103TIP3    H163724   5.782   4.656  16.860
14103TIP3    H263725   5.703   4.729  16.753
14104TIP3   OH263726   4.798   0.941   0.921
14104TIP3    H163727   4.882   0.986   0.909
14104TIP3    H263728   4.794   0.879   0.847
14105TIP3   OH263729   3.461   5.781   0.739
14105TIP3    H163730   3.552   5.813   0.737
14105TIP3    H263731   3.449   5.736   0.656
14106TIP3   OH263732   0.088   6.184   3.560
14106TIP3    H163733   0.019   6.216   3.502
14106TIP3    H263734   0.041   6.148   3.636
14107TIP3   OH263735   6.221   1.140   4.258
14107TIP3    H163736   6.249   1.049   4.254
14107TIP3    H263737   6.126   1.137   4.242
14108TIP3   OH263738   1.431   4.566   5.064
14108TIP3    H163739   1.338   4.583   5.049
14108TIP3    H263740   1.438   4.470   5.063
14109TIP3   OH263741   6.442   3.249  12.042
14109TIP3    H163742   6.481   3.289  11.965
14109TIP3    H263743   6.350   3.276  12.039
14110TIP3   OH263744   0.859   1.817  16.200
14110TIP3    H163745   0.898   1.753  16.260
14110TIP3    H263746   0.778   1.774  16.171
14111TIP3   OH263747   5.099   4.314   2.067
14111TIP3    H163748   5.127   4.362   1.989
14111TIP3    H263749   5.071   4.383   2.128
14112TIP3   OH263750   3.165   1.773   3.387
14112TIP3    H163751   3.207   1.846   3.433
14112TIP3    H263752   3.077   1.804   3.367
14113TIP3   OH263753   0.854   4.186  12.164
14113TIP3    H163754   0.787   4.245  12.130
14113TIP3    H263755   0.927   4.194  12.103
14114TIP3   OH263756   1.350   6.528  11.136
14114TIP3    H163757   1.361   6.501  11.045
14114TIP3    H263758   1.355   6.624  11.132
14115TIP3   OH263759   2.374   2.658   0.944
14115TIP3    H163760   2.327   2.652   1.028
14115TIP3    H263761   2.341   2.584   0.893
14116TIP3   OH263762   4.813   4.865  12.314
14116TIP3    H163763   4.722   4.835  12.315
14116TIP3    H263764   4.807   4.960  12.300
14117TIP3   OH263765   4.390   1.894   0.866
14117TIP3    H163766   4.415   1.852   0.784
14117TIP3    H263767   4.318   1.952   0.841
14118TIP3   OH263768   4.764   5.786   0.901
14118TIP3    H163769   4.784   5.741   0.983
14118TIP3    H263770   4.710   5.861   0.926
14119TIP3   OH263771   3.858   1.592   4.761
14119TIP3    H163772   3.862   1.635   4.676
14119TIP3    H263773   3.841   1.663   4.823
14120TIP3   OH263774   5.032   3.138   3.555
14120TIP3    H163775   5.096   3.204   3.526
14120TIP3    H263776   5.083   3.058   3.564
14121TIP3   OH263777   0.333   4.513   2.680
14121TIP3    H163778   0.370   4.501   2.592
14121TIP3    H263779   0.258   4.572   2.666
14122TIP3   OH263780   5.008   4.170   3.270
14122TIP3    H163781   4.988   4.262   3.286
14122TIP3    H263782   5.103   4.164   3.279
14123TIP3   OH263783   0.054   1.472  12.166
14123TIP3    H163784   0.094   1.533  12.228
14123TIP3    H263785   0.128   1.420  12.132
14124TIP3   OH263786   6.510   6.324  10.950
14124TIP3    H163787   6.438   6.383  10.927
14124TIP3    H263788   6.581   6.350  10.892
14125TIP3   OH263789   1.643   6.169  14.528
14125TIP3    H163790   1.550   6.149  14.529
14125TIP3    H263791   1.676   6.127  14.449
14126TIP3   OH263792   3.101   1.254   2.970
14126TIP3    H163793   3.067   1.294   3.050
14126TIP3    H263794   3.042   1.179   2.954
14127TIP3   OH263795   2.859   3.564  14.445
14127TIP3    H163796   2.888   3.531  14.359
14127TIP3    H263797   2.930   3.622  14.473
14128TIP3   OH263798   2.930   4.604  13.448
14128TIP3    H163799   2.909   4.625  13.357
14128TIP3    H263800   2.992   4.672  13.474
14129TIP3   OH263801   3.092   3.345   3.413
14129TIP3    H163802   3.040   3.385   3.344
14129TIP3    H263803   3.118   3.419   3.469
14130TIP3   OH263804   4.588   4.658  11.143
14130TIP3    H163805   4.601   4.689  11.054
14130TIP3    H263806   4.496   4.678  11.162
14131TIP3   OH263807   3.491   0.565   0.701
14131TIP3    H163808   3.493   0.471   0.679
14131TIP3    H263809   3.529   0.608   0.625
14132TIP3   OH263810   4.783   1.192  15.541
14132TIP3    H163811   4.864   1.145  15.560
14132TIP3    H263812   4.720   1.123  15.519
14133TIP3   OH263813   1.089   0.906   6.181
14133TIP3    H163814   1.099   0.811   6.175
14133TIP3    H263815   1.145   0.941   6.112
14134TIP3   OH263816   4.859   2.867  15.914
14134TIP3    H163817   4.804   2.790  15.932
14134TIP3    H263818   4.947   2.831  15.902
14135TIP3   OH263819   4.222   5.897   1.360
14135TIP3    H163820   4.221   5.991   1.378
14135TIP3    H263821   4.214   5.891   1.265
14136TIP3   OH263822   2.250   5.929   0.803
14136TIP3    H163823   2.286   5.858   0.750
14136TIP3    H263824   2.216   5.886   0.881
14137TIP3   OH263825   0.231   1.076   5.572
14137TIP3    H163826   0.137   1.094   5.570
14137TIP3    H263827   0.248   1.027   5.492
14138TIP3   OH263828   4.463   0.680  16.142
14138TIP3    H163829   4.399   0.610  16.126
14138TIP3    H263830   4.467   0.688  16.237
14139TIP3   OH263831   5.359   2.950  12.878
14139TIP3    H163832   5.339   2.994  12.795
14139TIP3    H263833   5.372   3.021  12.940
14140TIP3   OH263834   5.384   3.411  16.069
14140TIP3    H163835   5.323   3.413  16.142
14140TIP3    H263836   5.448   3.479  16.090
14141TIP3   OH263837   3.933   0.091  16.534
14141TIP3    H163838   3.968   0.141  16.608
14141TIP3    H263839   3.856   0.141  16.505
14142TIP3   OH263840   0.030   0.779  16.494
14142TIP3    H163841   0.075   0.845  16.545
14142TIP3    H263842   0.027   0.814  16.405
14143TIP3   OH263843   0.914   3.155  13.367
14143TIP3    H163844   0.926   3.240  13.327
14143TIP3    H263845   0.977   3.098  13.323
14144TIP3   OH263846   6.713   3.913  10.787
14144TIP3    H163847   6.626   3.927  10.824
14144TIP3    H263848   6.712   3.959  10.703
14145TIP3   OH263849   0.196   0.141  16.042
14145TIP3    H163850   0.190   0.139  16.138
14145TIP3    H263851   0.124   0.198  16.015
14146TIP3   OH263852   6.486   6.717  14.123
14146TIP3    H163853   6.489   6.768  14.204
14146TIP3    H263854   6.569   6.670  14.122
14147TIP3   OH263855   0.183   4.498   1.203
14147TIP3    H163856   0.242   4.521   1.131
14147TIP3    H263857   0.241   4.486   1.278
14148TIP3   OH263858   1.481   5.235   0.674
14148TIP3    H163859   1.410   5.197   0.622
14148TIP3    H263860   1.547   5.259   0.608
14149TIP3   OH263861   4.688   2.041  15.597
14149TIP3    H163862   4.677   1.969  15.659
14149TIP3    H263863   4.599   2.060  15.567
14150TIP3   OH263864   0.318   1.604  15.179
14150TIP3    H163865   0.331   1.676  15.241
14150TIP3    H263866   0.406   1.569  15.164
14151TIP3   OH263867   1.285   1.209   1.749
14151TIP3    H163868   1.283   1.141   1.816
14151TIP3    H263869   1.317   1.164   1.671
14152TIP3   OH263870   2.369   3.142   2.267
14152TIP3    H163871   2.345   3.235   2.264
14152TIP3    H263872   2.336   3.106   2.185
14153TIP3   OH263873   2.320   1.527  16.974
14153TIP3    H163874   2.326   1.599  17.036
14153TIP3    H263875   2.246   1.549  16.918
14154TIP3   OH263876   5.355   4.747   6.489
14154TIP3    H163877   5.442   4.709   6.470
14154TIP3    H263878   5.295   4.695   6.436
14155TIP3   OH263879   6.546   1.389  14.443
14155TIP3    H163880   6.497   1.327  14.389
14155TIP3    H263881   6.547   1.470  14.392
14156TIP3   OH263882   0.173   0.836  16.027
14156TIP3    H163883   0.216   0.854  16.111
14156TIP3    H263884   0.244   0.823  15.965
14157TIP3   OH263885   4.864   1.440   4.121
14157TIP3    H163886   4.906   1.418   4.204
14157TIP3    H263887   4.784   1.387   4.119
14158TIP3   OH263888   2.302   3.017  15.772
14158TIP3    H163889   2.224   2.963  15.756
14158TIP3    H263890   2.278   3.072  15.847
14159TIP3   OH263891   5.437   4.517   0.320
14159TIP3    H163892   5.342   4.527   0.320
14159TIP3    H263893   5.454   4.452   0.251
14160TIP3   OH263894   5.250   6.345  11.779
14160TIP3    H163895   5.160   6.360  11.808
14160TIP3    H263896   5.269   6.419  11.721
14161TIP3   OH263897   2.306   4.231   3.275
14161TIP3    H163898   2.250   4.299   3.237
14161TIP3    H263899   2.331   4.176   3.201
14162TIP3   OH263900   6.330   0.111  16.589
14162TIP3    H163901   6.382   0.191  16.592
14162TIP3    H263902   6.280   0.118  16.508
14163TIP3   OH263903   6.236   3.640  14.652
14163TIP3    H163904   6.292   3.604  14.722
14163TIP3    H263905   6.177   3.569  14.629
14164TIP3   OH263906   5.453   5.825  16.147
14164TIP3    H163907   5.397   5.756  16.184
14164TIP3    H263908   5.500   5.782  16.075
14165TIP3   OH263909   1.192   1.372  14.145
14165TIP3    H163910   1.248   1.406  14.215
14165TIP3    H263911   1.210   1.278  14.144
14166TIP3   OH263912   2.263   0.156   3.915
14166TIP3    H163913   2.220   0.225   3.865
14166TIP3    H263914   2.192   0.115   3.966
14167TIP3   OH263915   2.331   1.567   2.860
14167TIP3    H163916   2.332   1.564   2.764
14167TIP3    H263917   2.382   1.645   2.882
14168TIP3   OH263918   4.765   4.106  12.498
14168TIP3    H163919   4.838   4.076  12.443
14168TIP3    H263920   4.702   4.144  12.436
14169TIP3   OH263921   0.372   3.733   5.248
14169TIP3    H163922   0.299   3.672   5.254
14169TIP3    H263923   0.335   3.811   5.207
14170TIP3   OH263924   4.524   3.734   2.861
14170TIP3    H163925   4.594   3.719   2.798
14170TIP3    H263926   4.562   3.792   2.926
14171TIP3   OH263927   4.751   1.442   3.848
14171TIP3    H163928   4.785   1.530   3.861
14171TIP3    H263929   4.682   1.452   3.782
14172TIP3   OH263930   0.623   2.121   5.596
14172TIP3    H163931   0.538   2.077   5.593
14172TIP3    H263932   0.670   2.077   5.668
14173TIP3   OH263933   3.415   1.118  12.456
14173TIP3    H163934   3.483   1.097  12.391
14173TIP3    H263935   3.443   1.073  12.535
14174TIP3   OH263936   4.939   3.177  12.615
14174TIP3    H163937   4.896   3.157  12.532
14174TIP3    H263938   4.871   3.168  12.681
14175TIP3   OH263939   5.704   3.348  15.462
14175TIP3    H163940   5.798   3.354  15.474
14175TIP3    H263941   5.671   3.313  15.545
14176TIP3   OH263942   3.912   6.574  14.629
14176TIP3    H163943   3.904   6.533  14.543
14176TIP3    H263944   3.994   6.623  14.625
14177TIP3   OH263945   4.518   6.279  15.019
14177TIP3    H163946   4.600   6.329  15.026
14177TIP3    H263947   4.451   6.337  15.055
14178TIP3   OH263948   5.512   5.249  10.889
14178TIP3    H163949   5.440   5.202  10.931
14178TIP3    H263950   5.472   5.294  10.815
14179TIP3   OH263951   5.165   3.184   3.289
14179TIP3    H163952   5.166   3.247   3.217
14179TIP3    H263953   5.235   3.214   3.348
14180TIP3   OH263954   2.569   1.106   5.421
14180TIP3    H163955   2.542   1.196   5.403
14180TIP3    H263956   2.544   1.057   5.342
14181TIP3   OH263957   3.847   6.242  16.437
14181TIP3    H163958   3.922   6.226  16.495
14181TIP3    H263959   3.831   6.336  16.443
14182TIP3   OH263960   2.499   2.183  11.055
14182TIP3    H163961   2.452   2.236  11.120
14182TIP3    H263962   2.573   2.237  11.028
14183TIP3   OH263963   5.792   3.314   1.962
14183TIP3    H163964   5.751   3.231   1.987
14183TIP3    H263965   5.730   3.353   1.900
14184TIP3   OH263966   3.751   5.280  16.075
14184TIP3    H163967   3.733   5.187  16.089
14184TIP3    H263968   3.665   5.322  16.079
14185TIP3   OH263969   6.746   1.726   1.372
14185TIP3    H163970   6.740   1.679   1.289
14185TIP3    H263971   6.838   1.723   1.396
14186TIP3   OH263972   2.189   2.463   5.680
14186TIP3    H163973   2.163   2.415   5.759
14186TIP3    H263974   2.202   2.553   5.710
14187TIP3   OH263975   0.158   5.461  12.189
14187TIP3    H163976   0.247   5.454  12.155
14187TIP3    H263977   0.150   5.552  12.217
14188TIP3   OH263978   5.794   4.023  14.481
14188TIP3    H163979   5.888   4.019  14.466
14188TIP3    H263980   5.755   3.986  14.401
14189TIP3   OH263981   5.829   4.635   1.246
14189TIP3    H163982   5.906   4.599   1.290
14189TIP3    H263983   5.844   4.729   1.245
14190TIP3   OH263984   2.599   5.900  13.351
14190TIP3    H163985   2.571   5.991  13.337
14190TIP3    H263986   2.547   5.870  13.426
14191TIP3   OH263987   1.943   5.133  16.404
14191TIP3    H163988   1.936   5.038  16.404
14191TIP3    H263989   2.025   5.151  16.450
14192TIP3   OH263990   1.209   4.039   3.569
14192TIP3    H163991   1.224   4.019   3.476
14192TIP3    H263992   1.279   4.100   3.592
14193TIP3   OH263993   1.696   3.651   4.690
14193TIP3    H163994   1.785   3.617   4.697
14193TIP3    H263995   1.657   3.635   4.775
14194TIP3   OH263996   0.414   2.033  11.514
14194TIP3    H163997   0.468   1.999  11.442
14194TIP3    H263998   0.344   2.080  11.470
14195TIP3   OH263999   5.207   1.464   0.269
14195TIP3    H164000   5.286   1.503   0.307
14195TIP3    H264001   5.239   1.386   0.223
14196TIP3   OH264002   3.677   1.576   2.548
14196TIP3    H164003   3.691   1.559   2.641
14196TIP3    H264004   3.760   1.553   2.506
14197TIP3   OH264005   1.061   2.269   3.861
14197TIP3    H164006   1.056   2.267   3.765
14197TIP3    H264007   1.114   2.192   3.884
14198TIP3   OH264008   6.734   5.425  11.182
14198TIP3    H164009   6.733   5.508  11.134
14198TIP3    H264010   6.800   5.438  11.250
14199TIP3   OH264011   6.055   4.857   2.860
14199TIP3    H164012   6.103   4.828   2.937
14199TIP3    H264013   5.971   4.811   2.865
14200TIP3   OH264014   5.659   0.753  11.830
14200TIP3    H164015   5.607   0.714  11.761
14200TIP3    H264016   5.687   0.679  11.885
14201TIP3   OH264017   1.002   0.498  16.296
14201TIP3    H164018   0.995   0.524  16.204
14201TIP3    H264019   0.912   0.501  16.329
14202TIP3   OH264020   6.470   5.417   3.943
14202TIP3    H164021   6.488   5.511   3.953
14202TIP3    H264022   6.546   5.374   3.982
14203TIP3   OH264023   3.258   2.137   2.264
14203TIP3    H164024   3.226   2.186   2.339
14203TIP3    H264025   3.351   2.159   2.260
14204TIP3   OH264026   1.347   3.393   1.306
14204TIP3    H164027   1.270   3.353   1.346
14204TIP3    H264028   1.377   3.328   1.241
14205TIP3   OH264029   2.812   4.758   3.464
14205TIP3    H164030   2.766   4.697   3.407
14205TIP3    H264031   2.793   4.727   3.553
14206TIP3   OH264032   2.367   5.149  13.326
14206TIP3    H164033   2.409   5.069  13.293
14206TIP3    H264034   2.302   5.171  13.259
14207TIP3   OH264035   4.100   6.180   4.154
14207TIP3    H164036   4.160   6.253   4.170
14207TIP3    H264037   4.150   6.120   4.099
14208TIP3   OH264038   1.108   1.647  11.067
14208TIP3    H164039   1.076   1.716  11.125
14208TIP3    H264040   1.204   1.655  11.072
14209TIP3   OH264041   6.475   0.406  15.669
14209TIP3    H164042   6.381   0.389  15.654
14209TIP3    H264043   6.476   0.476  15.734
14210TIP3   OH264044   6.611   4.665  16.436
14210TIP3    H164045   6.656   4.719  16.371
14210TIP3    H264046   6.668   4.670  16.514
14211TIP3   OH264047   2.361   1.852  13.279
14211TIP3    H164048   2.347   1.913  13.206
14211TIP3    H264049   2.292   1.786  13.268
14212TIP3   OH264050   0.650   3.152   0.833
14212TIP3    H164051   0.605   3.226   0.874
14212TIP3    H264052   0.580   3.091   0.809
14213TIP3   OH264053   0.620   3.125   2.832
14213TIP3    H164054   0.643   3.062   2.901
14213TIP3    H264055   0.531   3.153   2.855
14214TIP3   OH264056   1.870   4.318  13.504
14214TIP3    H164057   1.817   4.244  13.533
14214TIP3    H264058   1.884   4.369  13.584
14215TIP3   OH264059   6.315   6.147   3.251
14215TIP3    H164060   6.405   6.174   3.231
14215TIP3    H264061   6.302   6.173   3.342
14216TIP3   OH264062   2.951   0.662   4.583
14216TIP3    H164063   2.975   0.643   4.492
14216TIP3    H264064   2.939   0.575   4.623
14217TIP3   OH264065   1.830   2.558  14.310
14217TIP3    H164066   1.780   2.568  14.229
14217TIP3    H264067   1.893   2.630  14.308
14218TIP3   OH264068   5.922   5.183  14.881
14218TIP3    H164069   5.910   5.267  14.836
14218TIP3    H264070   5.878   5.119  14.824
14219TIP3   OH264071   3.558   2.371  13.582
14219TIP3    H164072   3.645   2.398  13.611
14219TIP3    H264073   3.543   2.419  13.501
14220TIP3   OH264074   5.517   6.424  16.037
14220TIP3    H164075   5.587   6.406  16.100
14220TIP3    H264076   5.560   6.468  15.964
14221TIP3   OH264077   0.271   0.531   3.865
14221TIP3    H164078   0.258   0.543   3.771
14221TIP3    H264079   0.235   0.611   3.904
14222TIP3   OH264080   2.485   4.489   5.358
14222TIP3    H164081   2.563   4.468   5.409
14222TIP3    H264082   2.412   4.469   5.416
14223TIP3   OH264083   1.802   1.634   4.632
14223TIP3    H164084   1.719   1.607   4.671
14223TIP3    H264085   1.776   1.686   4.556
14224TIP3   OH264086   0.312   5.753   4.019
14224TIP3    H164087   0.283   5.685   4.079
14224TIP3    H264088   0.231   5.799   3.994
14225TIP3   OH264089   5.069   6.150  12.927
14225TIP3    H164090   5.091   6.237  12.893
14225TIP3    H264091   4.998   6.119  12.871
14226TIP3   OH264092   3.942   0.511   5.415
14226TIP3    H164093   3.859   0.555   5.433
14226TIP3    H264094   4.009   0.567   5.454
14227TIP3   OH264095   4.277   1.677   3.607
14227TIP3    H164096   4.359   1.670   3.558
14227TIP3    H264097   4.298   1.643   3.694
14228TIP3   OH264098   3.196   6.340   0.239
14228TIP3    H164099   3.230   6.373   0.322
14228TIP3    H264100   3.265   6.358   0.176
14229TIP3   OH264101   0.996   0.127   5.128
14229TIP3    H164102   0.945   0.087   5.058
14229TIP3    H264103   0.976   0.221   5.121
14230TIP3   OH264104   3.670   5.394  16.383
14230TIP3    H164105   3.733   5.431  16.321
14230TIP3    H264106   3.629   5.470  16.424
14231TIP3   OH264107   6.459   2.864   6.498
14231TIP3    H164108   6.531   2.925   6.517
14231TIP3    H264109   6.450   2.813   6.579
14232TIP3   OH264110   2.089   2.130   4.543
14232TIP3    H164111   2.164   2.154   4.597
14232TIP3    H264112   2.120   2.140   4.453
14233TIP3   OH264113   6.614   5.128   2.402
14233TIP3    H164114   6.521   5.109   2.390
14233TIP3    H264115   6.617   5.216   2.439
14234TIP3   OH264116   5.285   1.595   2.297
14234TIP3    H164117   5.282   1.673   2.352
14234TIP3    H264118   5.341   1.621   2.223
14235TIP3   OH264119   2.714   0.554   3.418
14235TIP3    H164120   2.777   0.485   3.397
14235TIP3    H264121   2.680   0.583   3.334
14236TIP3   OH264122   4.298   3.852   2.088
14236TIP3    H164123   4.282   3.921   2.153
14236TIP3    H264124   4.393   3.837   2.092
14237TIP3   OH264125   4.595   2.490  15.262
14237TIP3    H164126   4.682   2.526  15.275
14237TIP3    H264127   4.605   2.429  15.188
14238TIP3   OH264128   3.858   4.820  14.899
14238TIP3    H164129   3.821   4.778  14.820
14238TIP3    H264130   3.916   4.753  14.936
14239TIP3   OH264131   0.676   1.128  17.015
14239TIP3    H164132   0.614   1.153  17.084
14239TIP3    H264133   0.715   1.211  16.987
14240TIP3   OH264134   6.570   1.313   5.316
14240TIP3    H164135   6.494   1.355   5.275
14240TIP3    H264136   6.586   1.235   5.263
14241TIP3   OH264137   3.724   3.141   5.726
14241TIP3    H164138   3.694   3.183   5.807
14241TIP3    H264139   3.783   3.071   5.757
14242TIP3   OH264140   4.470   1.163  12.763
14242TIP3    H164141   4.489   1.245  12.718
14242TIP3    H264142   4.375   1.157  12.763
14243TIP3   OH264143   3.980   6.349  11.210
14243TIP3    H164144   4.044   6.331  11.141
14243TIP3    H264145   4.014   6.304  11.287
14244TIP3   OH264146   4.543   2.786   6.341
14244TIP3    H164147   4.632   2.773   6.372
14244TIP3    H264148   4.536   2.880   6.325
14245TIP3   OH264149   1.853   3.736  12.752
14245TIP3    H164150   1.855   3.716  12.659
14245TIP3    H264151   1.768   3.778  12.766
14246TIP3   OH264152   5.555   1.342   2.911
14246TIP3    H164153   5.549   1.344   2.815
14246TIP3    H264154   5.650   1.346   2.928
14247TIP3   OH264155   1.526   6.698   1.235
14247TIP3    H164156   1.562   6.615   1.205
14247TIP3    H264157   1.446   6.709   1.183
14248TIP3   OH264158   1.355   4.872  14.628
14248TIP3    H164159   1.357   4.815  14.704
14248TIP3    H264160   1.398   4.953  14.656
14249TIP3   OH264161   2.605   5.950  11.364
14249TIP3    H164162   2.525   6.004  11.363
14249TIP3    H264163   2.584   5.874  11.310
14250TIP3   OH264164   6.419   4.250  11.211
14250TIP3    H164165   6.428   4.184  11.142
14250TIP3    H264166   6.333   4.233  11.249
14251TIP3   OH264167   4.147   1.054  12.076
14251TIP3    H164168   4.231   1.008  12.082
14251TIP3    H264169   4.164   1.142  12.108
14252TIP3   OH264170   6.063   0.193  12.914
14252TIP3    H164171   6.007   0.237  12.977
14252TIP3    H264172   6.123   0.140  12.967
14253TIP3   OH264173   6.453   5.121   4.902
14253TIP3    H164174   6.388   5.149   4.966
14253TIP3    H264175   6.455   5.192   4.837
14254TIP3   OH264176   6.010   5.375   2.001
14254TIP3    H164177   6.041   5.324   1.926
14254TIP3    H264178   6.052   5.460   1.990
14255TIP3   OH264179   0.627   6.280  14.025
14255TIP3    H164180   0.577   6.270  14.106
14255TIP3    H264181   0.588   6.356  13.982
14256TIP3   OH264182   3.584   3.292  15.490
14256TIP3    H164183   3.560   3.299  15.398
14256TIP3    H264184   3.645   3.217  15.493
14257TIP3   OH264185   4.572   6.323  13.524
14257TIP3    H164186   4.548   6.277  13.604
14257TIP3    H264187   4.661   6.356  13.541
14258TIP3   OH264188   0.554   1.121  13.830
14258TIP3    H164189   0.582   1.127  13.739
14258TIP3    H264190   0.533   1.028  13.843
14259TIP3   OH264191   1.552   3.304   1.561
14259TIP3    H164192   1.484   3.358   1.520
14259TIP3    H264193   1.511   3.218   1.574
14260TIP3   OH264194   4.112   1.108   4.318
14260TIP3    H164195   4.096   1.202   4.324
14260TIP3    H264196   4.037   1.068   4.362
14261TIP3   OH264197   3.642   4.826   0.657
14261TIP3    H164198   3.712   4.860   0.602
14261TIP3    H264199   3.660   4.862   0.744
14262TIP3   OH264200   1.187   0.016   2.966
14262TIP3    H164201   1.234  -0.058   2.927
14262TIP3    H264202   1.127  -0.024   3.029
14263TIP3   OH264203   6.214   4.924   5.077
14263TIP3    H164204   6.191   4.871   5.154
14263TIP3    H264205   6.298   4.964   5.099
14264TIP3   OH264206   5.631   3.057   4.534
14264TIP3    H164207   5.623   3.028   4.443
14264TIP3    H264208   5.589   3.144   4.535
14265TIP3   OH264209   1.011   6.066   0.517
14265TIP3    H164210   1.075   5.998   0.498
14265TIP3    H264211   1.060   6.131   0.569
14266TIP3   OH264212   2.434   1.559   3.375
14266TIP3    H164213   2.439   1.541   3.281
14266TIP3    H264214   2.479   1.643   3.386
14267TIP3   OH264215   0.299   2.758   2.001
14267TIP3    H164216   0.277   2.823   2.067
14267TIP3    H264217   0.395   2.752   2.004
14268TIP3   OH264218   2.450   2.666  13.137
14268TIP3    H164219   2.512   2.738  13.129
14268TIP3    H264220   2.432   2.659  13.230
14269TIP3   OH264221   2.469   0.557   5.329
14269TIP3    H164222   2.392   0.500   5.340
14269TIP3    H264223   2.477   0.602   5.413
14270TIP3   OH264224   5.955   4.805   1.016
14270TIP3    H164225   5.942   4.749   0.939
14270TIP3    H264226   6.035   4.771   1.057
14271TIP3   OH264227   1.847   0.702   3.649
14271TIP3    H164228   1.798   0.622   3.667
14271TIP3    H264229   1.844   0.752   3.730
14272TIP3   OH264230   1.555   5.436   2.741
14272TIP3    H164231   1.556   5.509   2.802
14272TIP3    H264232   1.582   5.474   2.657
14273TIP3   OH264233   3.770   5.999  13.470
14273TIP3    H164234   3.861   6.001  13.439
14273TIP3    H264235   3.739   5.912  13.445
14274TIP3   OH264236   6.333   6.217  17.158
14274TIP3    H164237   6.361   6.254  17.241
14274TIP3    H264238   6.238   6.229  17.157
14275TIP3   OH264239   4.007   3.798   0.771
14275TIP3    H164240   4.001   3.781   0.677
14275TIP3    H264241   3.921   3.776   0.805
14276TIP3   OH264242   6.709   2.096  15.540
14276TIP3    H164243   6.744   2.169  15.590
14276TIP3    H264244   6.646   2.137  15.479
14277TIP3   OH264245   4.430   1.495   6.610
14277TIP3    H164246   4.413   1.577   6.657
14277TIP3    H264247   4.525   1.495   6.595
14278TIP3   OH264248   2.133   3.168   2.016
14278TIP3    H164249   2.106   3.098   1.957
14278TIP3    H264250   2.223   3.190   1.989
14279TIP3   OH264251   2.337   5.085   6.566
14279TIP3    H164252   2.262   5.144   6.569
14279TIP3    H264253   2.345   5.059   6.474
14280TIP3   OH264254   4.734   5.826   5.539
14280TIP3    H164255   4.810   5.769   5.543
14280TIP3    H264256   4.764   5.909   5.575
14281TIP3   OH264257   2.605   1.687  16.577
14281TIP3    H164258   2.645   1.618  16.631
14281TIP3    H264259   2.515   1.659  16.565
14282TIP3   OH264260   5.630   5.675   1.203
14282TIP3    H164261   5.657   5.701   1.115
14282TIP3    H264262   5.653   5.749   1.259
14283TIP3   OH264263   4.009   0.986  16.912
14283TIP3    H164264   3.969   1.043  16.979
14283TIP3    H264265   4.103   0.993  16.928
14284TIP3   OH264266   2.434   4.455   1.063
14284TIP3    H164267   2.491   4.390   1.020
14284TIP3    H264268   2.353   4.452   1.013
14285TIP3   OH264269   1.426   4.991   4.323
14285TIP3    H164270   1.415   4.896   4.326
14285TIP3    H264271   1.337   5.026   4.327
14286TIP3   OH264272   2.790   2.532  14.313
14286TIP3    H164273   2.836   2.536  14.397
14286TIP3    H264274   2.859   2.531  14.247
14287TIP3   OH264275   0.013   1.846  10.657
14287TIP3    H164276   0.036   1.930  10.697
14287TIP3    H264277   0.069   1.782  10.702
14288TIP3   OH264278   0.804   2.615   0.423
14288TIP3    H164279   0.777   2.677   0.491
14288TIP3    H264280   0.895   2.594   0.445
14289TIP3   OH264281   1.411   2.019   4.504
14289TIP3    H164282   1.411   1.991   4.596
14289TIP3    H264283   1.319   2.037   4.485
14290TIP3   OH264284   4.297   3.302   4.866
14290TIP3    H164285   4.257   3.384   4.896
14290TIP3    H264286   4.264   3.291   4.777
14291TIP3   OH264287   4.753   4.081   5.030
14291TIP3    H164288   4.693   4.076   5.104
14291TIP3    H264289   4.808   4.158   5.050
14292TIP3   OH264290   0.589   0.002  16.960
14292TIP3    H164291   0.582  -0.092  16.973
14292TIP3    H264292   0.507   0.038  16.993
14293TIP3   OH264293   2.797   5.775   1.104
14293TIP3    H164294   2.728   5.763   1.039
14293TIP3    H264295   2.870   5.721   1.073
14294TIP3   OH264296   6.086   5.169  15.180
14294TIP3    H164297   6.117   5.235  15.118
14294TIP3    H264298   6.096   5.086  15.133
14295TIP3   OH264299   5.886   2.922  15.653
14295TIP3    H164300   5.820   2.877  15.600
14295TIP3    H264301   5.965   2.869  15.642
14296TIP3   OH264302   4.749   4.126   3.777
14296TIP3    H164303   4.692   4.192   3.737
14296TIP3    H264304   4.783   4.168   3.856
14297TIP3   OH264305   4.080   0.852  13.300
14297TIP3    H164306   4.085   0.893  13.214
14297TIP3    H264307   4.163   0.874  13.343
14298TIP3   OH264308   2.087   4.451   3.278
14298TIP3    H164309   2.101   4.543   3.256
14298TIP3    H264310   2.134   4.439   3.361
14299TIP3   OH264311   5.535   6.383  14.627
14299TIP3    H164312   5.530   6.291  14.653
14299TIP3    H264313   5.516   6.432  14.707
14300TIP3   OH264314   3.369   5.969  16.303
14300TIP3    H164315   3.326   5.989  16.220
14300TIP3    H264316   3.462   5.975  16.283
14301TIP3   OH264317   5.099   3.499  11.857
14301TIP3    H164318   5.093   3.469  11.948
14301TIP3    H264319   5.160   3.438  11.815
14302TIP3   OH264320   2.261   4.711   4.211
14302TIP3    H164321   2.241   4.627   4.253
14302TIP3    H264322   2.268   4.690   4.118
14303TIP3   OH264323   1.041   6.621  13.718
14303TIP3    H164324   0.972   6.681  13.747
14303TIP3    H264325   1.073   6.660  13.637
14304TIP3   OH264326   0.297   3.301  12.447
14304TIP3    H164327   0.393   3.301  12.438
14304TIP3    H264328   0.280   3.366  12.515
14305TIP3   OH264329   0.811   4.764  13.723
14305TIP3    H164330   0.760   4.726  13.795
14305TIP3    H264331   0.851   4.842  13.761
14306TIP3   OH264332   0.392   6.764   4.075
14306TIP3    H164333   0.376   6.828   4.006
14306TIP3    H264334   0.394   6.680   4.030
14307TIP3   OH264335   0.919   2.254  16.815
14307TIP3    H164336   0.992   2.207  16.853
14307TIP3    H264337   0.855   2.186  16.793
14308TIP3   OH264338   3.429   6.684   1.993
14308TIP3    H164339   3.353   6.739   2.008
14308TIP3    H264340   3.482   6.693   2.072
14309TIP3   OH264341   6.077   6.552  12.142
14309TIP3    H164342   6.005   6.492  12.161
14309TIP3    H264343   6.106   6.583  12.228
14310TIP3   OH264344   5.191   3.632   4.039
14310TIP3    H164345   5.250   3.633   3.963
14310TIP3    H264346   5.185   3.724   4.065
14311TIP3   OH264347   4.523   3.040   2.657
14311TIP3    H164348   4.548   3.088   2.737
14311TIP3    H264349   4.462   2.974   2.688
14312TIP3   OH264350   3.092   2.949   4.918
14312TIP3    H164351   3.033   2.876   4.940
14312TIP3    H264352   3.161   2.908   4.866
14313TIP3   OH264353   2.479   6.708  12.279
14313TIP3    H164354   2.416   6.774  12.249
14313TIP3    H264355   2.428   6.628  12.288
14314TIP3   OH264356   3.146   5.071  11.686
14314TIP3    H164357   3.052   5.057  11.689
14314TIP3    H264358   3.174   5.072  11.777
14315TIP3   OH264359   4.147   3.589  16.656
14315TIP3    H164360   4.062   3.553  16.682
14315TIP3    H264361   4.192   3.517  16.613
14316TIP3   OH264362   4.917   5.013  16.673
14316TIP3    H164363   4.919   4.938  16.615
14316TIP3    H264364   4.849   4.993  16.738
14317TIP3   OH264365   2.786   2.367   0.730
14317TIP3    H164366   2.864   2.396   0.682
14317TIP3    H264367   2.737   2.448   0.745
14318TIP3   OH264368   4.856   5.940   1.523
14318TIP3    H164369   4.791   5.927   1.593
14318TIP3    H264370   4.939   5.950   1.570
14319TIP3   OH264371   0.185   1.763   3.600
14319TIP3    H164372   0.136   1.845   3.601
14319TIP3    H264373   0.201   1.744   3.692
14320TIP3   OH264374   0.477   1.196  16.519
14320TIP3    H164375   0.453   1.257  16.590
14320TIP3    H264376   0.543   1.139  16.558
14321TIP3   OH264377   2.644   3.585  14.635
14321TIP3    H164378   2.712   3.571  14.570
14321TIP3    H264379   2.645   3.680  14.651
14322TIP3   OH264380   0.264   6.160  10.997
14322TIP3    H164381   0.174   6.175  11.028
14322TIP3    H264382   0.303   6.248  10.994
14323TIP3   OH264383   2.498   6.352   2.879
14323TIP3    H164384   2.496   6.441   2.845
14323TIP3    H264385   2.584   6.318   2.854
14324TIP3   OH264386   3.881   5.488   0.540
14324TIP3    H164387   3.802   5.533   0.570
14324TIP3    H264388   3.951   5.525   0.594
14325TIP3   OH264389   3.595   0.997   0.140
14325TIP3    H164390   3.636   0.922   0.096
14325TIP3    H264391   3.534   0.957   0.202
14326TIP3   OH264392   6.023   5.916   5.290
14326TIP3    H164393   6.014   5.917   5.385
14326TIP3    H264394   5.991   5.830   5.263
14327TIP3   OH264395   6.065   5.972  11.689
14327TIP3    H164396   6.127   5.936  11.752
14327TIP3    H264397   5.979   5.953  11.727
14328TIP3   OH264398   3.559   3.344   3.194
14328TIP3    H164399   3.494   3.284   3.156
14328TIP3    H264400   3.511   3.390   3.263
14329TIP3   OH264401   1.863   0.977  10.758
14329TIP3    H164402   1.855   1.007  10.667
14329TIP3    H264403   1.831   0.887  10.756
14330TIP3   OH264404   4.695   4.975   4.735
14330TIP3    H164405   4.670   4.903   4.676
14330TIP3    H264406   4.647   4.958   4.816
14331TIP3   OH264407   6.161   5.133   5.407
14331TIP3    H164408   6.120   5.059   5.452
14331TIP3    H264409   6.255   5.118   5.420
14332TIP3   OH264410   3.674   3.106   0.488
14332TIP3    H164411   3.635   3.093   0.574
14332TIP3    H264412   3.607   3.152   0.438
14333TIP3   OH264413   0.163   3.588   5.569
14333TIP3    H164414   0.159   3.538   5.487
14333TIP3    H264415   0.083   3.563   5.617
14334TIP3   OH264416   4.454   3.253  14.746
14334TIP3    H164417   4.462   3.344  14.776
14334TIP3    H264418   4.528   3.241  14.687
14335TIP3   OH264419   3.434   4.695  13.882
14335TIP3    H164420   3.485   4.751  13.941
14335TIP3    H264421   3.468   4.715  13.795
14336TIP3   OH264422   6.311   1.344   0.105
14336TIP3    H164423   6.242   1.410   0.116
14336TIP3    H264424   6.332   1.317   0.194
14337TIP3   OH264425   0.024   0.573   6.497
14337TIP3    H164426   0.083   0.499   6.506
14337TIP3    H264427  -0.038   0.547   6.429
14338TIP3   OH264428   2.632   0.074  14.534
14338TIP3    H164429   2.593  -0.009  14.563
14338TIP3    H264430   2.586   0.141  14.585
14339TIP3   OH264431   1.032   6.736  12.257
14339TIP3    H164432   1.098   6.806  12.255
14339TIP3    H264433   0.949   6.781  12.271
14340TIP3   OH264434   2.899   5.746  13.576
14340TIP3    H164435   2.851   5.680  13.526
14340TIP3    H264436   2.897   5.715  13.666
14341TIP3   OH264437   0.335   4.446  14.268
14341TIP3    H164438   0.374   4.453  14.181
14341TIP3    H264439   0.381   4.511  14.320
14342TIP3   OH264440   0.698   4.978   4.532
14342TIP3    H164441   0.769   5.031   4.568
14342TIP3    H264442   0.737   4.892   4.518
14343TIP3   OH264443   1.938   1.143   2.288
14343TIP3    H164444   1.955   1.199   2.364
14343TIP3    H264445   1.883   1.196   2.231
14344TIP3   OH264446   6.373   5.748  13.689
14344TIP3    H164447   6.375   5.792  13.773
14344TIP3    H264448   6.433   5.798  13.633
14345TIP3   OH264449   0.239   1.424  13.359
14345TIP3    H164450   0.283   1.379  13.430
14345TIP3    H264451   0.240   1.516  13.384
14346TIP3   OH264452   4.334   3.174   1.314
14346TIP3    H164453   4.290   3.210   1.391
14346TIP3    H264454   4.415   3.224   1.306
14347TIP3   OH264455   2.080   1.377  15.256
14347TIP3    H164456   2.132   1.343  15.328
14347TIP3    H264457   1.993   1.390  15.292
14348TIP3   OH264458   4.980   4.173   0.865
14348TIP3    H164459   4.934   4.122   0.799
14348TIP3    H264460   5.067   4.187   0.829
14349TIP3   OH264461   6.292   4.095   4.744
14349TIP3    H164462   6.327   4.145   4.818
14349TIP3    H264463   6.366   4.087   4.683
14350TIP3   OH264464   2.662   4.245  16.262
14350TIP3    H164465   2.729   4.297  16.305
14350TIP3    H264466   2.650   4.286  16.177
14351TIP3   OH264467   1.630   4.967   0.136
14351TIP3    H164468   1.673   4.887   0.104
14351TIP3    H264469   1.539   4.940   0.151
14352TIP3   OH264470   5.002   5.640  13.871
14352TIP3    H164471   4.966   5.686  13.946
14352TIP3    H264472   4.943   5.660  13.799
14353TIP3   OH264473   0.110   6.740   2.772
14353TIP3    H164474   0.127   6.703   2.685
14353TIP3    H264475   0.040   6.686   2.808
14354TIP3   OH264476   2.894   3.436  12.414
14354TIP3    H164477   2.914   3.375  12.342
14354TIP3    H264478   2.901   3.382  12.493
14355TIP3   OH264479   6.456   6.009  15.665
14355TIP3    H164480   6.452   6.081  15.602
14355TIP3    H264481   6.372   5.965  15.657
14356TIP3   OH264482   1.671   5.935   1.630
14356TIP3    H164483   1.584   5.958   1.663
14356TIP3    H264484   1.699   5.862   1.685
14357TIP3   OH264485   5.375   2.307   4.693
14357TIP3    H164486   5.467   2.320   4.669
14357TIP3    H264487   5.378   2.269   4.780
14358TIP3   OH264488   1.214   0.017  15.911
14358TIP3    H164489   1.188  -0.062  15.959
14358TIP3    H264490   1.224   0.084  15.979
14359TIP3   OH264491   6.075   2.244  11.402
14359TIP3    H164492   5.986   2.208  11.400
14359TIP3    H264493   6.098   2.255  11.310
14360TIP3   OH264494   0.693   5.086   5.410
14360TIP3    H164495   0.652   5.155   5.358
14360TIP3    H264496   0.628   5.016   5.413
14361TIP3   OH264497   3.587   3.800  11.816
14361TIP3    H164498   3.651   3.840  11.758
14361TIP3    H264499   3.621   3.815  11.904
14362TIP3   OH264500   0.030   5.149  11.382
14362TIP3    H164501   0.014   5.239  11.411
14362TIP3    H264502   0.122   5.132  11.403
14363TIP3   OH264503   2.314   2.871   3.593
14363TIP3    H164504   2.279   2.792   3.553
14363TIP3    H264505   2.409   2.857   3.593
14364TIP3   OH264506   1.982   5.891  16.118
14364TIP3    H164507   2.027   5.974  16.133
14364TIP3    H264508   1.956   5.894  16.025
14365TIP3   OH264509   5.329   0.324   0.806
14365TIP3    H164510   5.372   0.242   0.832
14365TIP3    H264511   5.399   0.388   0.800
14366TIP3   OH264512   2.164   1.422   1.974
14366TIP3    H164513   2.181   1.406   2.067
14366TIP3    H264514   2.231   1.484   1.948
14367TIP3   OH264515   2.160   3.128   5.746
14367TIP3    H164516   2.209   3.047   5.761
14367TIP3    H264517   2.227   3.196   5.739
14368TIP3   OH264518   2.579   2.780  16.498
14368TIP3    H164519   2.527   2.857  16.477
14368TIP3    H264520   2.566   2.721  16.424
14369TIP3   OH264521   2.043   1.054  15.184
14369TIP3    H164522   1.996   1.093  15.257
14369TIP3    H264523   2.010   1.099  15.106
14370TIP3   OH264524   3.617   5.085   5.222
14370TIP3    H164525   3.558   5.038   5.163
14370TIP3    H264526   3.679   5.129   5.164
14371TIP3   OH264527   5.937   4.140  11.634
14371TIP3    H164528   5.933   4.052  11.597
14371TIP3    H264529   6.030   4.161  11.638
14372TIP3   OH264530   4.090   0.599  14.417
14372TIP3    H164531   4.044   0.668  14.465
14372TIP3    H264532   4.110   0.640  14.332
14373TIP3   OH264533   3.735   6.044  15.372
14373TIP3    H164534   3.777   6.130  15.368
14373TIP3    H264535   3.672   6.045  15.300
14374TIP3   OH264536   5.627   1.175  17.027
14374TIP3    H164537   5.539   1.162  16.992
14374TIP3    H264538   5.675   1.096  17.003
14375TIP3   OH264539   2.941   1.979   5.290
14375TIP3    H164540   2.978   1.949   5.207
14375TIP3    H264541   2.968   1.913   5.353
14376TIP3   OH264542   3.845   1.018  12.843
14376TIP3    H164543   3.783   0.946  12.858
14376TIP3    H264544   3.912   1.006  12.910
14377TIP3   OH264545   6.544   5.861  10.853
14377TIP3    H164546   6.477   5.874  10.920
14377TIP3    H264547   6.607   5.931  10.868
14378TIP3   OH264548   2.682   1.175   1.940
14378TIP3    H164549   2.620   1.102   1.949
14378TIP3    H264550   2.766   1.132   1.920
14379TIP3   OH264551   0.765   1.578   0.229
14379TIP3    H164552   0.688   1.616   0.187
14379TIP3    H264553   0.745   1.484   0.234
14380TIP3   OH264554   6.707   0.388   5.472
14380TIP3    H164555   6.753   0.353   5.396
14380TIP3    H264556   6.730   0.481   5.474
14381TIP3   OH264557   4.014   1.120  13.989
14381TIP3    H164558   3.971   1.038  14.012
14381TIP3    H264559   4.104   1.110  14.022
14382TIP3   OH264560   6.442   3.662   5.182
14382TIP3    H164561   6.375   3.686   5.119
14382TIP3    H264562   6.393   3.625   5.256
14383TIP3   OH264563   1.517   6.296   0.661
14383TIP3    H164564   1.464   6.221   0.688
14383TIP3    H264565   1.538   6.343   0.742
14384TIP3   OH264566   5.037   4.717  13.135
14384TIP3    H164567   5.001   4.647  13.079
14384TIP3    H264568   4.984   4.714  13.214
14385TIP3   OH264569   0.864   3.055   3.470
14385TIP3    H164570   0.887   2.967   3.498
14385TIP3    H264571   0.817   3.092   3.545
14386TIP3   OH264572   6.335   5.870   1.102
14386TIP3    H164573   6.326   5.818   1.022
14386TIP3    H264574   6.269   5.833   1.161
14387TIP3   OH264575   2.564   3.477   6.612
14387TIP3    H164576   2.482   3.479   6.662
14387TIP3    H264577   2.543   3.519   6.529
14388TIP3   OH264578   2.702   4.563   3.260
14388TIP3    H164579   2.628   4.623   3.256
14388TIP3    H264580   2.692   4.507   3.184
14389TIP3   OH264581   4.072   2.018  15.755
14389TIP3    H164582   3.995   1.962  15.744
14389TIP3    H264583   4.037   2.098  15.795
14390TIP3   OH264584   5.422   1.422  12.698
14390TIP3    H164585   5.451   1.505  12.660
14390TIP3    H264586   5.375   1.448  12.777
14391TIP3   OH264587   3.572   6.626  12.959
14391TIP3    H164588   3.582   6.709  12.913
14391TIP3    H264589   3.606   6.560  12.898
14392TIP3   OH264590   0.809   6.686  10.315
14392TIP3    H164591   0.744   6.688  10.386
14392TIP3    H264592   0.841   6.596  10.315
14393TIP3   OH264593   3.317   2.113  15.164
14393TIP3    H164594   3.333   2.040  15.222
14393TIP3    H264595   3.242   2.086  15.111
14394TIP3   OH264596   0.818   2.485  13.298
14394TIP3    H164597   0.818   2.557  13.360
14394TIP3    H264598   0.854   2.522  13.217
14395TIP3   OH264599   3.823   0.508  11.953
14395TIP3    H164600   3.805   0.467  12.037
14395TIP3    H264601   3.917   0.496  11.939
14396TIP3   OH264602   3.035   4.581   6.306
14396TIP3    H164603   2.955   4.533   6.325
14396TIP3    H264604   3.059   4.621   6.389
14397TIP3   OH264605   4.113   5.554  14.237
14397TIP3    H164606   4.196   5.580  14.277
14397TIP3    H264607   4.138   5.503  14.160
14398TIP3   OH264608   4.013   0.530   0.236
14398TIP3    H164609   3.923   0.546   0.266
14398TIP3    H264610   4.068   0.561   0.308
14399TIP3   OH264611   5.349   0.097   2.593
14399TIP3    H164612   5.384   0.012   2.568
14399TIP3    H264613   5.422   0.158   2.580
14400TIP3   OH264614   2.310   4.578  16.938
14400TIP3    H164615   2.387   4.574  16.994
14400TIP3    H264616   2.267   4.493  16.949
14401TIP3   OH264617   1.624   2.998   5.038
14401TIP3    H164618   1.558   2.998   4.969
14401TIP3    H264619   1.595   3.065   5.099
14402TIP3   OH264620   2.003   0.994  14.517
14402TIP3    H164621   1.940   0.973  14.449
14402TIP3    H264622   1.965   1.069  14.562
14403TIP3   OH264623   2.585   0.997  11.036
14403TIP3    H164624   2.636   1.042  10.969
14403TIP3    H264625   2.650   0.952  11.090
14404TIP3   OH264626   0.939   3.847   1.111
14404TIP3    H164627   0.951   3.806   1.025
14404TIP3    H264628   1.014   3.818   1.162
14405TIP3   OH264629   6.059   6.624  12.641
14405TIP3    H164630   6.126   6.688  12.662
14405TIP3    H264631   5.993   6.634  12.710
14406TIP3   OH264632   2.060   6.242   5.022
14406TIP3    H164633   2.013   6.204   5.096
14406TIP3    H264634   2.137   6.187   5.011
14407TIP3   OH264635   4.154   4.045  13.833
14407TIP3    H164636   4.067   4.051  13.873
14407TIP3    H264637   4.207   4.000  13.900
14408TIP3   OH264638   4.087   4.883   2.733
14408TIP3    H164639   4.064   4.918   2.647
14408TIP3    H264640   4.130   4.956   2.778
14409TIP3   OH264641   3.431   3.049   0.863
14409TIP3    H164642   3.524   3.029   0.876
14409TIP3    H264643   3.430   3.137   0.826
14410TIP3   OH264644   4.038   6.697  16.081
14410TIP3    H164645   4.060   6.606  16.064
14410TIP3    H264646   4.122   6.739  16.100
14411TIP3   OH264647   5.915   5.586  12.081
14411TIP3    H164648   5.906   5.553  12.170
14411TIP3    H264649   5.910   5.682  12.090
14412TIP3   OH264650   6.514   6.260  16.970
14412TIP3    H164651   6.551   6.173  16.956
14412TIP3    H264652   6.440   6.245  17.030
14413TIP3   OH264653   1.803   3.284  15.034
14413TIP3    H164654   1.867   3.349  15.004
14413TIP3    H264655   1.842   3.200  15.011
14414TIP3   OH264656   1.445   6.193  15.719
14414TIP3    H164657   1.433   6.254  15.646
14414TIP3    H264658   1.365   6.140  15.719
14415TIP3   OH264659   6.414   1.177   2.189
14415TIP3    H164660   6.424   1.261   2.144
14415TIP3    H264661   6.342   1.191   2.250
14416TIP3   OH264662   4.710   2.903   4.591
14416TIP3    H164663   4.669   2.817   4.584
14416TIP3    H264664   4.790   2.887   4.640
14417TIP3   OH264665   3.701   0.011  11.233
14417TIP3    H164666   3.738  -0.058  11.288
14417TIP3    H264667   3.710  -0.023  11.144
14418TIP3   OH264668   0.615   2.629  14.450
14418TIP3    H164669   0.709   2.642  14.457
14418TIP3    H264670   0.597   2.552  14.505
14419TIP3   OH264671   4.289   3.244  15.893
14419TIP3    H164672   4.211   3.245  15.948
14419TIP3    H264673   4.339   3.321  15.920
14420TIP3   OH264674   1.613   4.381   5.892
14420TIP3    H164675   1.696   4.429   5.889
14420TIP3    H264676   1.560   4.427   5.957
14421TIP3   OH264677   4.440   2.230   2.486
14421TIP3    H164678   4.390   2.168   2.540
14421TIP3    H264679   4.510   2.177   2.448
14422TIP3   OH264680   5.898   1.295  17.011
14422TIP3    H164681   5.804   1.276  17.021
14422TIP3    H264682   5.941   1.216  17.045
14423TIP3   OH264683   1.281   5.157  12.105
14423TIP3    H164684   1.279   5.095  12.178
14423TIP3    H264685   1.287   5.243  12.146
14424TIP3   OH264686   1.247   1.788  17.021
14424TIP3    H164687   1.273   1.833  16.941
14424TIP3    H264688   1.163   1.747  17.000
14425TIP3   OH264689   5.795   4.420  12.693
14425TIP3    H164690   5.825   4.484  12.758
14425TIP3    H264691   5.771   4.473  12.617
14426TIP3   OH264692   5.025   0.626  12.080
14426TIP3    H164693   5.002   0.708  12.123
14426TIP3    H264694   5.034   0.563  12.152
14427TIP3   OH264695   1.207   3.755   0.918
14427TIP3    H164696   1.127   3.704   0.934
14427TIP3    H264697   1.268   3.726   0.987
14428TIP3   OH264698   4.384   5.783  14.867
14428TIP3    H164699   4.307   5.750  14.820
14428TIP3    H264700   4.397   5.720  14.938
14429TIP3   OH264701   4.972   0.906   3.055
14429TIP3    H164702   5.050   0.917   3.110
14429TIP3    H264703   5.003   0.926   2.967
14430TIP3   OH264704   3.431   5.808  10.480
14430TIP3    H164705   3.408   5.717  10.499
14430TIP3    H264706   3.521   5.804  10.447
14431TIP3   OH264707   3.888   5.184  17.076
14431TIP3    H164708   3.973   5.157  17.041
14431TIP3    H264709   3.833   5.198  16.999
14432TIP3   OH264710   5.485   4.777   2.101
14432TIP3    H164711   5.502   4.861   2.060
14432TIP3    H264712   5.413   4.740   2.050
14433TIP3   OH264713   3.234   6.287   1.152
14433TIP3    H164714   3.261   6.212   1.099
14433TIP3    H264715   3.316   6.323   1.186
14434TIP3   OH264716   3.998   5.095   5.885
14434TIP3    H164717   3.922   5.037   5.880
14434TIP3    H264718   4.055   5.065   5.814
14435TIP3   OH264719   0.681   2.187   5.322
14435TIP3    H164720   0.697   2.193   5.416
14435TIP3    H264721   0.635   2.104   5.311
14436TIP3   OH264722   0.900   3.830   4.745
14436TIP3    H164723   0.995   3.840   4.742
14436TIP3    H264724   0.877   3.838   4.838
14437TIP3   OH264725   0.054   3.732  11.519
14437TIP3    H164726   0.060   3.724  11.614
14437TIP3    H264727   0.130   3.786  11.495
14438TIP3   OH264728   4.086   3.350   3.799
14438TIP3    H164729   4.026   3.399   3.855
14438TIP3    H264730   4.077   3.259   3.827
14439TIP3   OH264731   1.794   0.361  11.835
14439TIP3    H164732   1.730   0.293  11.854
14439TIP3    H264733   1.781   0.427  11.902
14440TIP3   OH264734   3.401   6.756  10.848
14440TIP3    H164735   3.437   6.709  10.773
14440TIP3    H264736   3.451   6.724  10.923
14441TIP3   OH264737   0.596   6.598   5.890
14441TIP3    H164738   0.558   6.540   5.825
14441TIP3    H264739   0.540   6.588   5.967
14442TIP3   OH264740   0.556   3.874   4.690
14442TIP3    H164741   0.553   3.913   4.778
14442TIP3    H264742   0.614   3.932   4.640
14443TIP3   OH264743   4.064   1.675   2.914
14443TIP3    H164744   4.140   1.679   2.973
14443TIP3    H264745   4.021   1.760   2.925
14444TIP3   OH264746   6.273   0.015  12.621
14444TIP3    H164747   6.349   0.070  12.600
14444TIP3    H264748   6.280  -0.003  12.714
14445TIP3   OH264749   4.514   2.604   6.663
14445TIP3    H164750   4.553   2.541   6.603
14445TIP3    H264751   4.589   2.636   6.715
14446TIP3   OH264752   4.446   4.322  13.222
14446TIP3    H164753   4.493   4.374  13.156
14446TIP3    H264754   4.482   4.234  13.212
14447TIP3   OH264755   6.637   6.118   1.376
14447TIP3    H164756   6.637   6.033   1.333
14447TIP3    H264757   6.642   6.098   1.469
14448TIP3   OH264758   2.092   1.126   3.892
14448TIP3    H164759   2.155   1.072   3.844
14448TIP3    H264760   2.128   1.215   3.888
14449TIP3   OH264761   5.573   5.235   1.028
14449TIP3    H164762   5.654   5.215   1.074
14449TIP3    H264763   5.597   5.237   0.936
14450TIP3   OH264764   0.324   5.477   5.952
14450TIP3    H164765   0.327   5.384   5.975
14450TIP3    H264766   0.409   5.511   5.979
14451TIP3   OH264767   1.893   3.723   0.507
14451TIP3    H164768   1.891   3.663   0.433
14451TIP3    H264769   1.886   3.810   0.467
14452TIP3   OH264770   2.331   3.901  14.879
14452TIP3    H164771   2.294   3.819  14.846
14452TIP3    H264772   2.421   3.900  14.848
14453TIP3   OH264773   5.384   0.678  13.798
14453TIP3    H164774   5.344   0.672  13.711
14453TIP3    H264775   5.476   0.696  13.781
14454TIP3   OH264776   3.352   1.729  12.265
14454TIP3    H164777   3.284   1.788  12.298
14454TIP3    H264778   3.397   1.779  12.198
14455TIP3   OH264779   1.029   2.014  14.453
14455TIP3    H164780   0.981   1.935  14.431
14455TIP3    H264781   1.101   1.985  14.508
14456TIP3   OH264782   3.229   4.206  14.333
14456TIP3    H164783   3.287   4.219  14.408
14456TIP3    H264784   3.210   4.294  14.302
14457TIP3   OH264785   5.453   2.550  11.028
14457TIP3    H164786   5.533   2.598  11.049
14457TIP3    H264787   5.447   2.481  11.095
14458TIP3   OH264788   0.619   4.713   2.756
14458TIP3    H164789   0.526   4.729   2.741
14458TIP3    H264790   0.661   4.798   2.741
14459TIP3   OH264791   3.697   5.677   6.384
14459TIP3    H164792   3.660   5.595   6.351
14459TIP3    H264793   3.758   5.705   6.316
14460TIP3   OH264794   3.223   1.314  15.020
14460TIP3    H164795   3.270   1.361  15.089
14460TIP3    H264796   3.264   1.227  15.017
14461TIP3   OH264797   2.412   1.542  15.397
14461TIP3    H164798   2.467   1.464  15.395
14461TIP3    H264799   2.474   1.615  15.399
14462TIP3   OH264800   6.423   3.667   3.599
14462TIP3    H164801   6.478   3.589   3.594
14462TIP3    H264802   6.350   3.649   3.540
14463TIP3   OH264803   6.608   5.027   5.651
14463TIP3    H164804   6.685   5.027   5.595
14463TIP3    H264805   6.558   5.104   5.623
14464TIP3   OH264806   4.695   0.897   4.726
14464TIP3    H164807   4.600   0.898   4.738
14464TIP3    H264808   4.731   0.927   4.809
14465TIP3   OH264809   0.846   1.872  13.386
14465TIP3    H164810   0.858   1.946  13.327
14465TIP3    H264811   0.842   1.795  13.329
14466TIP3   OH264812   2.216   0.406  15.009
14466TIP3    H164813   2.222   0.454  15.092
14466TIP3    H264814   2.127   0.423  14.978
14467TIP3   OH264815   0.820   5.912  11.664
14467TIP3    H164816   0.753   5.957  11.715
14467TIP3    H264817   0.879   5.875  11.730
14468TIP3   OH264818   3.540   5.866  10.993
14468TIP3    H164819   3.556   5.809  10.918
14468TIP3    H264820   3.479   5.932  10.961
14469TIP3   OH264821   0.609   3.279   6.155
14469TIP3    H164822   0.675   3.249   6.217
14469TIP3    H264823   0.544   3.209   6.152
14470TIP3   OH264824   2.833   0.288  16.503
14470TIP3    H164825   2.788   0.207  16.530
14470TIP3    H264826   2.886   0.262  16.428
14471TIP3   OH264827   4.245   0.962   5.033
14471TIP3    H164828   4.321   1.013   5.062
14471TIP3    H264829   4.282   0.891   4.982
14472TIP3   OH264830   4.692   5.018   2.904
14472TIP3    H164831   4.675   5.065   2.985
14472TIP3    H264832   4.779   5.045   2.878
14473TIP3   OH264833   4.334   1.953   5.746
14473TIP3    H164834   4.247   1.935   5.712
14473TIP3    H264835   4.380   1.870   5.739
14474TIP3   OH264836   0.495   4.328   3.360
14474TIP3    H164837   0.549   4.275   3.300
14474TIP3    H264838   0.549   4.405   3.378
14475TIP3   OH264839   3.704   2.872   1.350
14475TIP3    H164840   3.775   2.905   1.404
14475TIP3    H264841   3.747   2.837   1.272
14476TIP3   OH264842   3.838   4.120   3.427
14476TIP3    H164843   3.824   4.095   3.336
14476TIP3    H264844   3.758   4.167   3.451
14477TIP3   OH264845   0.236   4.006  16.695
14477TIP3    H164846   0.251   3.953  16.773
14477TIP3    H264847   0.251   3.946  16.622
14478TIP3   OH264848   0.452   3.671   4.988
14478TIP3    H164849   0.420   3.636   4.905
14478TIP3    H264850   0.381   3.652   5.051
14479TIP3   OH264851   2.185   5.364  16.191
14479TIP3    H164852   2.163   5.422  16.117
14479TIP3    H264853   2.199   5.278  16.150
14480TIP3   OH264854   5.029   1.364  13.027
14480TIP3    H164855   5.086   1.290  13.007
14480TIP3    H264856   5.019   1.362  13.122
14481TIP3   OH264857   5.530   4.634   2.527
14481TIP3    H164858   5.572   4.625   2.612
14481TIP3    H264859   5.438   4.647   2.547
14482TIP3   OH264860   5.808   3.733  15.543
14482TIP3    H164861   5.794   3.700  15.632
14482TIP3    H264862   5.839   3.823  15.554
14483TIP3   OH264863   3.616   3.445  11.004
14483TIP3    H164864   3.702   3.479  11.031
14483TIP3    H264865   3.610   3.466  10.911
14484TIP3   OH264866   2.534   5.606  15.862
14484TIP3    H164867   2.582   5.670  15.914
14484TIP3    H264868   2.443   5.615  15.890
14485TIP3   OH264869   1.571   6.541   1.558
14485TIP3    H164870   1.486   6.505   1.532
14485TIP3    H264871   1.561   6.636   1.548
14486TIP3   OH264872   6.142   1.806  15.799
14486TIP3    H164873   6.212   1.870  15.786
14486TIP3    H264874   6.069   1.839  15.748
14487TIP3   OH264875   1.959   6.096  10.743
14487TIP3    H164876   2.042   6.072  10.703
14487TIP3    H264877   1.969   6.073  10.835
14488TIP3   OH264878   6.218   3.433  15.947
14488TIP3    H164879   6.208   3.344  15.982
14488TIP3    H264880   6.213   3.490  16.024
14489TIP3   OH264881   1.138   1.659   0.008
14489TIP3    H164882   1.202   1.712   0.056
14489TIP3    H264883   1.172   1.655  -0.081
14490TIP3   OH264884   6.646   5.779   0.221
14490TIP3    H164885   6.686   5.734   0.296
14490TIP3    H264886   6.641   5.871   0.248
14491TIP3   OH264887   4.134   5.183  15.589
14491TIP3    H164888   4.101   5.221  15.507
14491TIP3    H264889   4.193   5.250  15.624
14492TIP3   OH264890   3.248   4.538   0.417
14492TIP3    H164891   3.207   4.603   0.360
14492TIP3    H264892   3.309   4.588   0.472
14493TIP3   OH264893   5.032   2.550  12.019
14493TIP3    H164894   4.947   2.595  12.011
14493TIP3    H264895   5.060   2.537  11.929
14494TIP3   OH264896   4.508   0.800   5.631
14494TIP3    H164897   4.501   0.721   5.683
14494TIP3    H264898   4.507   0.872   5.695
14495TIP3   OH264899   1.668   0.601   3.317
14495TIP3    H164900   1.628   0.516   3.337
14495TIP3    H264901   1.603   0.645   3.262
14496TIP3   OH264902   6.116   0.581   3.868
14496TIP3    H164903   6.087   0.629   3.790
14496TIP3    H264904   6.044   0.592   3.931
14497TIP3   OH264905   3.168   5.400  17.165
14497TIP3    H164906   3.257   5.429  17.148
14497TIP3    H264907   3.124   5.478  17.201
14498TIP3   OH264908   0.214   1.973   2.671
14498TIP3    H164909   0.168   1.960   2.754
14498TIP3    H264910   0.293   1.918   2.679
14499TIP3   OH264911   4.623   0.506  11.252
14499TIP3    H164912   4.704   0.462  11.227
14499TIP3    H264913   4.607   0.569  11.182
14500TIP3   OH264914   3.703   1.516   3.797
14500TIP3    H164915   3.727   1.436   3.750
14500TIP3    H264916   3.777   1.575   3.783
14501TIP3   OH264917   4.698   2.134   4.623
14501TIP3    H164918   4.618   2.138   4.570
14501TIP3    H264919   4.764   2.098   4.564
14502TIP3   OH264920   5.916   6.112  12.276
14502TIP3    H164921   5.906   6.019  12.299
14502TIP3    H264922   5.994   6.114  12.222
14503TIP3   OH264923   1.392   2.550   2.840
14503TIP3    H164924   1.315   2.538   2.785
14503TIP3    H264925   1.465   2.513   2.789
14504TIP3   OH264926   1.248   1.779   2.151
14504TIP3    H164927   1.241   1.860   2.101
14504TIP3    H264928   1.342   1.771   2.169
14505TIP3   OH264929   1.002   1.431   5.648
14505TIP3    H164930   1.016   1.473   5.733
14505TIP3    H264931   1.001   1.337   5.667
14506TIP3   OH264932   1.405   1.757  11.751
14506TIP3    H164933   1.366   1.844  11.742
14506TIP3    H264934   1.468   1.752  11.678
14507TIP3   OH264935   1.687   5.748   6.045
14507TIP3    H164936   1.623   5.755   6.115
14507TIP3    H264937   1.640   5.775   5.966
14508TIP3   OH264938   3.237   4.237   0.719
14508TIP3    H164939   3.313   4.183   0.743
14508TIP3    H264940   3.258   4.324   0.754
14509TIP3   OH264941   5.217   4.624  14.378
14509TIP3    H164942   5.179   4.649  14.294
14509TIP3    H264943   5.157   4.560  14.414
14510TIP3   OH264944   3.219   1.164  14.660
14510TIP3    H164945   3.303   1.119  14.652
14510TIP3    H264946   3.176   1.148  14.576
14511TIP3   OH264947   3.018   0.795  11.078
14511TIP3    H164948   3.104   0.757  11.060
14511TIP3    H264949   2.969   0.725  11.121
14512TIP3   OH264950   4.277   0.159  13.083
14512TIP3    H164951   4.246   0.223  13.018
14512TIP3    H264952   4.197   0.113  13.110
14513TIP3   OH264953   1.452   5.712  17.180
14513TIP3    H164954   1.398   5.652  17.233
14513TIP3    H264955   1.506   5.654  17.127
14514TIP3   OH264956   4.071   1.433   2.702
14514TIP3    H164957   4.074   1.337   2.696
14514TIP3    H264958   4.135   1.455   2.770
14515TIP3   OH264959   5.087   2.550   0.767
14515TIP3    H164960   5.035   2.629   0.784
14515TIP3    H264961   5.093   2.547   0.671
14516TIP3   OH264962   4.410   6.260   5.024
14516TIP3    H164963   4.474   6.233   4.959
14516TIP3    H264964   4.425   6.202   5.099
14517TIP3   OH264965   6.273   5.620  13.961
14517TIP3    H164966   6.318   5.705  13.955
14517TIP3    H264967   6.343   5.556  13.946
14518TIP3   OH264968   2.816   6.154   2.402
14518TIP3    H164969   2.816   6.206   2.322
14518TIP3    H264970   2.834   6.217   2.472
14519TIP3   OH264971   5.776   5.925  10.673
14519TIP3    H164972   5.803   6.011  10.706
14519TIP3    H264973   5.859   5.882  10.649
14520TIP3   OH264974   4.314   3.606   5.830
14520TIP3    H164975   4.249   3.662   5.788
14520TIP3    H264976   4.351   3.554   5.758
14521TIP3   OH264977   6.304   0.262   2.390
14521TIP3    H164978   6.266   0.223   2.311
14521TIP3    H264979   6.304   0.356   2.372
14522TIP3   OH264980   3.168   5.164  15.390
14522TIP3    H164981   3.211   5.089  15.433
14522TIP3    H264982   3.185   5.151  15.297
14523TIP3   OH264983   3.416   4.600   1.727
14523TIP3    H164984   3.485   4.543   1.764
14523TIP3    H264985   3.334   4.556   1.749
14524TIP3   OH264986   5.497   1.236   5.508
14524TIP3    H164987   5.550   1.157   5.511
14524TIP3    H264988   5.435   1.221   5.437
14525TIP3   OH264989   4.088   5.177  11.127
14525TIP3    H164990   4.078   5.082  11.117
14525TIP3    H264991   4.072   5.193  11.220
14526TIP3   OH264992   3.383   3.920  14.571
14526TIP3    H164993   3.303   3.921  14.519
14526TIP3    H264994   3.354   3.936  14.661
14527TIP3   OH264995   4.216   2.040   0.053
14527TIP3    H164996   4.299   2.087   0.046
14527TIP3    H264997   4.171   2.059  -0.030
14528TIP3   OH264998   4.079   1.768  12.247
14528TIP3    H164999   4.019   1.695  12.263
14528TIP3    H265000   4.102   1.799  12.335
14529TIP3   OH265001   0.381   4.102  11.150
14529TIP3    H165002   0.428   4.176  11.187
14529TIP3    H265003   0.418   4.090  11.063
14530TIP3   OH265004   4.506   2.249  11.256
14530TIP3    H165005   4.480   2.242  11.164
14530TIP3    H265006   4.544   2.337  11.264
14531TIP3   OH265007   1.970   0.268  11.563
14531TIP3    H165008   1.975   0.203  11.633
14531TIP3    H265009   1.932   0.221  11.489
14532TIP3   OH265010   6.112   2.966  13.508
14532TIP3    H165011   6.067   2.899  13.561
14532TIP3    H265012   6.089   3.049  13.550
14533TIP3   OH265013   4.573   0.681   0.105
14533TIP3    H165014   4.506   0.746   0.088
14533TIP3    H265015   4.617   0.711   0.185
14534TIP3   OH265016   6.433   1.856  13.263
14534TIP3    H165017   6.380   1.935  13.254
14534TIP3    H265018   6.448   1.827  13.173
14535TIP3   OH265019   2.710   2.596  11.026
14535TIP3    H165020   2.753   2.656  10.966
14535TIP3    H265021   2.748   2.615  11.112
14536TIP3   OH265022   3.398   4.737   5.650
14536TIP3    H165023   3.439   4.823   5.661
14536TIP3    H265024   3.351   4.722   5.732
14537TIP3   OH265025   4.185   5.023   4.390
14537TIP3    H165026   4.160   5.114   4.407
14537TIP3    H265027   4.220   4.992   4.474
14538TIP3   OH265028   2.997   5.190  15.833
14538TIP3    H165029   2.999   5.187  15.929
14538TIP3    H265030   3.056   5.262  15.810
14539TIP3   OH265031   2.136   0.173  16.494
14539TIP3    H165032   2.189   0.100  16.524
14539TIP3    H265033   2.059   0.173  16.551
14540TIP3   OH265034   5.273   1.887  15.799
14540TIP3    H165035   5.326   1.963  15.777
14540TIP3    H265036   5.332   1.829  15.847
14541TIP3   OH265037   3.959   5.960  11.069
14541TIP3    H165038   3.969   5.877  11.115
14541TIP3    H265039   4.046   5.978  11.032
14542TIP3   OH265040   6.391   4.925  12.546
14542TIP3    H165041   6.370   4.941  12.638
14542TIP3    H265042   6.480   4.958  12.535
14543TIP3   OH265043   0.285   6.257   2.840
14543TIP3    H165044   0.207   6.243   2.786
14543TIP3    H265045   0.252   6.291   2.923
14544TIP3   OH265046   1.211   5.061   4.786
14544TIP3    H165047   1.161   5.139   4.808
14544TIP3    H265048   1.196   5.047   4.693
14545TIP3   OH265049   6.065   6.524   0.053
14545TIP3    H165050   6.097   6.598   0.001
14545TIP3    H265051   5.982   6.554   0.091
14546TIP3   OH265052   0.317   4.963   0.786
14546TIP3    H165053   0.397   4.918   0.761
14546TIP3    H265054   0.259   4.956   0.710
14547TIP3   OH265055   4.933   5.902   3.928
14547TIP3    H165056   4.884   5.902   3.845
14547TIP3    H265057   4.946   5.995   3.947
14548TIP3   OH265058   2.614   1.667   1.121
14548TIP3    H165059   2.672   1.623   1.059
14548TIP3    H265060   2.562   1.597   1.160
14549TIP3   OH265061   1.374   0.272  13.391
14549TIP3    H165062   1.452   0.321  13.417
14549TIP3    H265063   1.336   0.241  13.473
14550TIP3   OH265064   1.767   0.266   3.171
14550TIP3    H165065   1.825   0.202   3.211
14550TIP3    H265066   1.695   0.275   3.233
14551TIP3   OH265067   0.102   4.306   2.903
14551TIP3    H165068   0.190   4.343   2.907
14551TIP3    H265069   0.062   4.345   2.826
14552TIP3   OH265070   1.307   0.794  13.602
14552TIP3    H165071   1.333   0.815  13.512
14552TIP3    H265072   1.248   0.719  13.593
14553TIP3   OH265073   6.378   0.925  11.938
14553TIP3    H165074   6.439   0.852  11.952
14553TIP3    H265075   6.326   0.898  11.862
14554TIP3   OH265076   3.231   3.208  14.923
14554TIP3    H165077   3.166   3.156  14.971
14554TIP3    H265078   3.309   3.153  14.922
14555TIP3   OH265079   1.179   4.869   2.494
14555TIP3    H165080   1.143   4.957   2.477
14555TIP3    H265081   1.233   4.881   2.572
14556TIP3   OH265082   3.124   4.403   4.681
14556TIP3    H165083   3.178   4.457   4.740
14556TIP3    H265084   3.042   4.392   4.728
14557TIP3   OH265085   0.896   0.267  14.401
14557TIP3    H165086   0.848   0.192  14.368
14557TIP3    H265087   0.980   0.264  14.355
14558TIP3   OH265088   4.358   1.374  16.195
14558TIP3    H165089   4.393   1.360  16.107
14558TIP3    H265090   4.337   1.286  16.226
14559TIP3   OH265091   0.139   0.409  13.878
14559TIP3    H165092   0.134   0.340  13.812
14559TIP3    H265093   0.049   0.440  13.889
14560TIP3   OH265094   0.497   3.707  14.019
14560TIP3    H165095   0.530   3.796  14.030
14560TIP3    H265096   0.446   3.689  14.098
14561TIP3   OH265097   6.504   0.861   2.519
14561TIP3    H165098   6.482   0.849   2.427
14561TIP3    H265099   6.436   0.813   2.567
14562TIP3   OH265100   6.637   6.425  16.558
14562TIP3    H165101   6.660   6.477  16.481
14562TIP3    H265102   6.715   6.371  16.574
14563TIP3   OH265103   3.679   4.759   3.455
14563TIP3    H165104   3.678   4.711   3.538
14563TIP3    H265105   3.682   4.691   3.388
14564TIP3   OH265106   6.000   3.890   0.587
14564TIP3    H165107   6.045   3.835   0.651
14564TIP3    H265108   6.037   3.865   0.502
14565TIP3   OH265109   1.341   4.447  12.039
14565TIP3    H165110   1.296   4.530  12.021
14565TIP3    H265111   1.410   4.443  11.972
14566TIP3   OH265112   6.138   4.981  13.002
14566TIP3    H165113   6.150   4.940  13.087
14566TIP3    H265114   6.043   4.981  12.988
14567TIP3   OH265115   4.098   5.322   5.339
14567TIP3    H165116   4.009   5.337   5.372
14567TIP3    H265117   4.092   5.345   5.246
14568TIP3   OH265118   1.684   0.492   5.637
14568TIP3    H165119   1.735   0.573   5.636
14568TIP3    H265120   1.596   0.519   5.610
14569TIP3   OH265121   4.432   0.122  11.441
14569TIP3    H165122   4.486   0.198  11.465
14569TIP3    H265123   4.488   0.047  11.458
14570TIP3   OH265124   3.576   0.541  15.815
14570TIP3    H165125   3.622   0.618  15.783
14570TIP3    H265126   3.484   0.558  15.796
14571TIP3   OH265127   3.514   0.772  14.836
14571TIP3    H165128   3.459   0.696  14.854
14571TIP3    H265129   3.567   0.782  14.915
14572TIP3   OH265130   6.377   0.535  11.314
14572TIP3    H165131   6.348   0.447  11.337
14572TIP3    H265132   6.297   0.587  11.312
14573TIP3   OH265133   2.213   3.144   6.122
14573TIP3    H165134   2.143   3.210   6.121
14573TIP3    H265135   2.293   3.194   6.106
14574TIP3   OH265136   6.087   4.602   6.445
14574TIP3    H165137   6.116   4.527   6.393
14574TIP3    H265138   6.167   4.639   6.482
14575TIP3   OH265139   4.032   0.382   4.162
14575TIP3    H165140   4.081   0.304   4.189
14575TIP3    H265141   3.941   0.351   4.156
14576TIP3   OH265142   2.600   4.254  15.250
14576TIP3    H165143   2.624   4.191  15.318
14576TIP3    H265144   2.661   4.236  15.178
14577TIP3   OH265145   0.879   5.067   1.299
14577TIP3    H165146   0.791   5.078   1.265
14577TIP3    H265147   0.878   5.112   1.384
14578TIP3   OH265148   0.111   6.571   1.149
14578TIP3    H165149   0.106   6.525   1.233
14578TIP3    H265150   0.113   6.664   1.173
14579TIP3   OH265151   5.032   6.364   5.583
14579TIP3    H165152   5.098   6.400   5.643
14579TIP3    H265153   4.961   6.428   5.585
14580TIP3   OH265154   5.878   1.436   5.472
14580TIP3    H165155   5.932   1.388   5.410
14580TIP3    H265156   5.901   1.400   5.558
14581TIP3   OH265157   6.316   1.065   5.590
14581TIP3    H165158   6.341   1.056   5.498
14581TIP3    H265159   6.327   1.158   5.609
14582TIP3   OH265160   3.647   6.614  14.736
14582TIP3    H165161   3.719   6.598  14.675
14582TIP3    H265162   3.662   6.551  14.807
14583TIP3   OH265163   1.689   5.934   1.023
14583TIP3    H165164   1.766   5.897   0.980
14583TIP3    H265165   1.623   5.939   0.954
14584TIP3   OH265166   0.208   2.351  12.544
14584TIP3    H165167   0.205   2.430  12.598
14584TIP3    H265168   0.233   2.282  12.606
14585TIP3   OH265169   3.358   5.184   6.024
14585TIP3    H165170   3.437   5.146   5.985
14585TIP3    H265171   3.312   5.109   6.063
14586TIP3   OH265172   5.762   1.243   2.462
14586TIP3    H165173   5.712   1.297   2.400
14586TIP3    H265174   5.759   1.292   2.544
14587TIP3   OH265175   5.856   5.891  16.748
14587TIP3    H165176   5.775   5.941  16.735
14587TIP3    H265177   5.896   5.889  16.662
14588TIP3   OH265178   5.471   3.941  16.537
14588TIP3    H165179   5.497   3.969  16.450
14588TIP3    H265180   5.452   3.847  16.527
14589TIP3   OH265181   4.500   1.235  11.228
14589TIP3    H165182   4.447   1.170  11.181
14589TIP3    H265183   4.471   1.228  11.319
14590TIP3   OH265184   3.268   4.279  14.048
14590TIP3    H165185   3.258   4.353  14.107
14590TIP3    H265186   3.203   4.294  13.979
14591TIP3   OH265187   1.696   4.856  14.445
14591TIP3    H165188   1.707   4.803  14.366
14591TIP3    H265189   1.677   4.793  14.514
14592TIP3   OH265190   5.528   2.708   4.238
14592TIP3    H165191   5.539   2.802   4.226
14592TIP3    H265192   5.577   2.688   4.318
14593TIP3   OH265193   3.844   0.971  13.299
14593TIP3    H165194   3.859   1.062  13.275
14593TIP3    H265195   3.931   0.932  13.304
14594TIP3   OH265196   1.248   3.865  14.029
14594TIP3    H165197   1.254   3.960  14.015
14594TIP3    H265198   1.286   3.827  13.950
14595TIP3   OH265199   3.395   0.261   5.616
14595TIP3    H165200   3.309   0.300   5.634
14595TIP3    H265201   3.425   0.230   5.701
14596TIP3   OH265202   3.461   2.367   5.499
14596TIP3    H165203   3.516   2.329   5.568
14596TIP3    H265204   3.405   2.430   5.544
14597TIP3   OH265205   1.940   2.869   2.334
14597TIP3    H165206   2.007   2.846   2.397
14597TIP3    H265207   1.943   2.965   2.330
14598TIP3   OH265208   2.330   6.235   6.530
14598TIP3    H165209   2.312   6.192   6.614
14598TIP3    H265210   2.415   6.202   6.503
14599TIP3   OH265211   1.725   0.417   2.463
14599TIP3    H165212   1.689   0.336   2.499
14599TIP3    H265213   1.692   0.421   2.373
14600TIP3   OH265214   4.431   4.054  16.170
14600TIP3    H165215   4.397   4.091  16.252
14600TIP3    H265216   4.422   4.125  16.106
14601TIP3   OH265217   2.273   5.494   2.272
14601TIP3    H165218   2.310   5.406   2.262
14601TIP3    H265219   2.179   5.479   2.283
14602TIP3   OH265220   2.645   1.423   1.823
14602TIP3    H165221   2.705   1.492   1.852
14602TIP3    H265222   2.668   1.347   1.877
14603TIP3   OH265223   5.078   2.957   5.204
14603TIP3    H165224   5.159   2.969   5.254
14603TIP3    H265225   5.098   2.887   5.142
14604TIP3   OH265226   1.873   0.039  11.705
14604TIP3    H165227   1.921   0.003  11.780
14604TIP3    H265228   1.785   0.002  11.714
14605TIP3   OH265229   6.034   0.314  10.386
14605TIP3    H165230   5.956   0.275  10.348
14605TIP3    H265231   6.081   0.241  10.427
14606TIP3   OH265232   3.991   2.448  11.767
14606TIP3    H165233   4.073   2.477  11.729
14606TIP3    H265234   4.017   2.384  11.833
14607TIP3   OH265235   5.705   4.136   1.748
14607TIP3    H165236   5.692   4.068   1.814
14607TIP3    H265237   5.741   4.210   1.797
14608TIP3   OH265238   3.761   1.609   3.438
14608TIP3    H165239   3.765   1.692   3.391
14608TIP3    H265240   3.817   1.622   3.515
14609TIP3   OH265241   5.300   6.478  12.445
14609TIP3    H165242   5.339   6.554  12.488
14609TIP3    H265243   5.295   6.411  12.513
14610TIP3   OH265244   3.006   1.796  15.298
14610TIP3    H165245   3.094   1.821  15.270
14610TIP3    H265246   3.009   1.702  15.311
14611TIP3   OH265247   2.993   4.238  11.682
14611TIP3    H165248   2.931   4.311  11.676
14611TIP3    H265249   3.030   4.245  11.770
14612TIP3   OH265250   5.225   1.994   2.096
14612TIP3    H165251   5.252   1.907   2.066
14612TIP3    H265252   5.196   2.039   2.016
14613TIP3   OH265253   0.219   4.442  15.745
14613TIP3    H165254   0.185   4.459  15.657
14613TIP3    H265255   0.267   4.359  15.737
14614TIP3   OH265256   0.339   3.740  12.697
14614TIP3    H165257   0.286   3.665  12.669
14614TIP3    H265258   0.344   3.733  12.792
14615TIP3   OH265259   6.675   3.447   1.914
14615TIP3    H165260   6.629   3.384   1.970
14615TIP3    H265261   6.710   3.512   1.975
14616TIP3   OH265262   2.724   1.183  15.790
14616TIP3    H165263   2.736   1.277  15.799
14616TIP3    H265264   2.710   1.169  15.697
14617TIP3   OH265265   4.113   4.254  16.779
14617TIP3    H165266   4.093   4.245  16.686
14617TIP3    H265267   4.130   4.348  16.791
14618TIP3   OH265268   2.533   4.456   6.076
14618TIP3    H165269   2.455   4.459   6.131
14618TIP3    H265270   2.529   4.372   6.031
14619TIP3   OH265271   0.750   5.032   3.215
14619TIP3    H165272   0.762   5.000   3.125
14619TIP3    H265273   0.839   5.036   3.250
14620TIP3   OH265274   2.687   5.032   2.234
14620TIP3    H165275   2.684   4.989   2.319
14620TIP3    H265276   2.748   4.980   2.182
14621TIP3   OH265277   6.731   3.579   5.794
14621TIP3    H165278   6.671   3.507   5.812
14621TIP3    H265279   6.690   3.655   5.833
14622TIP3   OH265280   2.239   6.091   0.208
14622TIP3    H165281   2.176   6.076   0.278
14622TIP3    H265282   2.322   6.060   0.243
14623TIP3   OH265283   6.307   0.788  15.310
14623TIP3    H165284   6.229   0.739  15.282
14623TIP3    H265285   6.320   0.762  15.401
14624TIP3   OH265286   3.825   3.866  13.970
14624TIP3    H165287   3.771   3.945  13.971
14624TIP3    H265288   3.763   3.795  13.951
14625TIP3   OH265289   5.664   5.094  12.307
14625TIP3    H165290   5.721   5.067  12.379
14625TIP3    H265291   5.688   5.185  12.291
14626TIP3   OH265292   1.389   0.911  11.018
14626TIP3    H165293   1.465   0.912  10.960
14626TIP3    H265294   1.409   0.978  11.084
14627TIP3   OH265295   3.656   2.980   1.743
14627TIP3    H165296   3.564   3.000   1.765
14627TIP3    H265297   3.687   3.058   1.697
14628TIP3   OH265298   4.062   0.241  11.913
14628TIP3    H165299   4.124   0.211  11.979
14628TIP3    H265300   4.068   0.336  11.916
14629TIP3   OH265301   4.069   6.488   0.773
14629TIP3    H165302   4.141   6.435   0.738
14629TIP3    H265303   4.103   6.578   0.772
14630TIP3   OH265304   0.184   1.997   0.057
14630TIP3    H165305   0.180   2.023  -0.035
14630TIP3    H265306   0.234   2.067   0.099
14631TIP3   OH265307   4.153   6.570   3.120
14631TIP3    H165308   4.062   6.548   3.141
14631TIP3    H265309   4.200   6.487   3.127
14632TIP3   OH265310   3.947   1.643   3.665
14632TIP3    H165311   4.013   1.709   3.643
14632TIP3    H265312   3.942   1.644   3.760
14633TIP3   OH265313   3.528   0.354  14.484
14633TIP3    H165314   3.587   0.404  14.542
14633TIP3    H265315   3.490   0.421  14.427
14634TIP3   OH265316   6.483   0.662  14.797
14634TIP3    H165317   6.528   0.714  14.730
14634TIP3    H265318   6.417   0.721  14.833
14635TIP3   OH265319   2.928   4.071   1.633
14635TIP3    H165320   2.942   4.056   1.539
14635TIP3    H265321   2.895   3.988   1.666
14636TIP3   OH265322   1.738   6.287   1.561
14636TIP3    H165323   1.710   6.376   1.582
14636TIP3    H265324   1.724   6.238   1.641
14637TIP3   OH265325   3.632   2.205   5.876
14637TIP3    H165326   3.697   2.181   5.809
14637TIP3    H265327   3.682   2.204   5.958
14638TIP3   OH265328   6.082   0.940   2.364
14638TIP3    H165329   5.988   0.945   2.381
14638TIP3    H265330   6.102   1.018   2.313
14639TIP3   OH265331   3.551   4.726  12.988
14639TIP3    H165332   3.623   4.776  12.949
14639TIP3    H265333   3.515   4.675  12.915
14640TIP3   OH265334   0.864   6.267  15.605
14640TIP3    H165335   0.950   6.309  15.612
14640TIP3    H265336   0.802   6.340  15.614
14641TIP3   OH265337   2.570   3.178  11.929
14641TIP3    H165338   2.536   3.258  11.887
14641TIP3    H265339   2.556   3.193  12.022
14642TIP3   OH265340   4.749   1.897  16.118
14642TIP3    H165341   4.765   1.886  16.025
14642TIP3    H265342   4.704   1.981  16.126
14643TIP3   OH265343   1.286   4.210   1.993
14643TIP3    H165344   1.347   4.280   1.969
14643TIP3    H265345   1.324   4.131   1.953
14644TIP3   OH265346   3.733   1.063   5.054
14644TIP3    H165347   3.717   0.968   5.049
14644TIP3    H265348   3.828   1.071   5.064
14645TIP3   OH265349   1.118   5.361   0.767
14645TIP3    H165350   1.154   5.295   0.708
14645TIP3    H265351   1.194   5.398   0.812
14646TIP3   OH265352   6.082   1.205  13.275
14646TIP3    H165353   6.013   1.141  13.260
14646TIP3    H265354   6.037   1.281  13.311
14647TIP3   OH265355   2.383   0.110  15.552
14647TIP3    H165356   2.363   0.046  15.620
14647TIP3    H265357   2.478   0.122  15.557
14648TIP3   OH265358   4.186   2.401   3.659
14648TIP3    H165359   4.150   2.383   3.572
14648TIP3    H265360   4.120   2.457   3.700
14649TIP3   OH265361   0.468   2.705   5.023
14649TIP3    H165362   0.399   2.766   5.044
14649TIP3    H265363   0.458   2.634   5.087
14650TIP3   OH265364   2.062   6.065   0.399
14650TIP3    H165365   2.045   5.982   0.444
14650TIP3    H265366   1.989   6.074   0.338
14651TIP3   OH265367   5.671   4.304   2.745
14651TIP3    H165368   5.608   4.233   2.735
14651TIP3    H265369   5.691   4.331   2.656
14652TIP3   OH265370   3.457   1.948  11.783
14652TIP3    H165371   3.503   2.025  11.817
14652TIP3    H265372   3.526   1.894  11.745
14653TIP3   OH265373   4.217   4.355  13.837
14653TIP3    H165374   4.238   4.266  13.865
14653TIP3    H265375   4.275   4.411  13.889
14654TIP3   OH265376   0.009   4.402  11.290
14654TIP3    H165377  -0.034   4.488  11.293
14654TIP3    H265378  -0.022   4.363  11.209
14655TIP3   OH265379   1.802   6.088  11.777
14655TIP3    H165380   1.868   6.151  11.808
14655TIP3    H265381   1.756   6.135  11.708
14656TIP3   OH265382   2.937   2.275   2.160
14656TIP3    H165383   2.927   2.229   2.244
14656TIP3    H265384   3.007   2.227   2.115
14657TIP3   OH265385   6.573   5.814  11.308
14657TIP3    H165386   6.620   5.749  11.360
14657TIP3    H265387   6.500   5.842  11.363
14658TIP3   OH265388   1.463   0.831  16.727
14658TIP3    H165389   1.476   0.889  16.651
14658TIP3    H265390   1.517   0.869  16.796
14659TIP3   OH265391   5.117   4.312   5.992
14659TIP3    H165392   5.154   4.392   5.955
14659TIP3    H265393   5.081   4.339   6.077
14660TIP3   OH265394   3.367   2.174  12.667
14660TIP3    H165395   3.390   2.174  12.760
14660TIP3    H265396   3.332   2.086  12.651
14661TIP3   OH265397   2.480   5.245   4.509
14661TIP3    H165398   2.394   5.207   4.490
14661TIP3    H265399   2.462   5.336   4.532
14662TIP3   OH265400   1.343   1.927  16.328
14662TIP3    H165401   1.256   1.932  16.288
14662TIP3    H265402   1.350   2.006  16.380
14663TIP3   OH265403   3.578   0.237  15.006
14663TIP3    H165404   3.578   0.170  14.939
14663TIP3    H265405   3.671   0.247  15.029
14664TIP3   OH265406   0.346   2.211   3.794
14664TIP3    H165407   0.379   2.123   3.811
14664TIP3    H265408   0.377   2.262   3.869
14665TIP3   OH265409   6.447   4.064   5.021
14665TIP3    H165410   6.512   4.080   4.953
14665TIP3    H265411   6.496   4.066   5.103
14666TIP3   OH265412   5.970   1.311  15.109
14666TIP3    H165413   5.992   1.387  15.055
14666TIP3    H265414   6.018   1.325  15.190
14667TIP3   OH265415   0.174   2.626  15.292
14667TIP3    H165416   0.195   2.626  15.385
14667TIP3    H265417   0.176   2.719  15.267
14668TIP3   OH265418   4.785   1.420   3.529
14668TIP3    H165419   4.803   1.359   3.601
14668TIP3    H265420   4.770   1.364   3.453
14669TIP3   OH265421   0.654   5.851  10.616
14669TIP3    H165422   0.587   5.897  10.566
14669TIP3    H265423   0.609   5.774  10.651
14670TIP3   OH265424   2.661   6.584   4.438
14670TIP3    H165425   2.600   6.638   4.488
14670TIP3    H265426   2.698   6.524   4.502
14671TIP3   OH265427   4.157   4.434  11.118
14671TIP3    H165428   4.167   4.498  11.048
14671TIP3    H265429   4.071   4.452  11.156
14672TIP3   OH265430   1.243   5.007   5.867
14672TIP3    H165431   1.268   5.073   5.932
14672TIP3    H265432   1.327   4.976   5.832
14673TIP3   OH265433   3.513   3.116  13.273
14673TIP3    H165434   3.557   3.134  13.190
14673TIP3    H265435   3.575   3.143  13.340
14674TIP3   OH265436   1.644   5.407  14.411
14674TIP3    H165437   1.626   5.442  14.324
14674TIP3    H265438   1.644   5.312  14.398
14675TIP3   OH265439   4.271   2.736  14.215
14675TIP3    H165440   4.349   2.729  14.161
14675TIP3    H265441   4.272   2.826  14.246
14676TIP3   OH265442   5.909   0.457   0.624
14676TIP3    H165443   5.873   0.538   0.588
14676TIP3    H265444   5.881   0.389   0.564
14677TIP3   OH265445   5.129   0.826  12.912
14677TIP3    H165446   5.204   0.816  12.971
14677TIP3    H265447   5.054   0.803  12.966
14678TIP3   OH265448   0.151   2.482  11.495
14678TIP3    H165449   0.156   2.387  11.484
14678TIP3    H265450   0.062   2.505  11.466
14679TIP3   OH265451   4.607   1.929  13.845
14679TIP3    H165452   4.564   1.986  13.781
14679TIP3    H265453   4.604   1.978  13.927
14680TIP3   OH265454   2.137   2.787  11.675
14680TIP3    H165455   2.167   2.861  11.623
14680TIP3    H265456   2.217   2.738  11.697
14681TIP3   OH265457   5.043   4.673  14.731
14681TIP3    H165458   4.973   4.736  14.714
14681TIP3    H265459   4.999   4.600  14.775
14682TIP3   OH265460   1.048   0.953   0.495
14682TIP3    H165461   1.074   1.031   0.544
14682TIP3    H265462   1.127   0.930   0.445
14683TIP3   OH265463   3.609   5.576  11.875
14683TIP3    H165464   3.617   5.496  11.822
14683TIP3    H265465   3.578   5.545  11.960
14684TIP3   OH265466   2.754   3.003   5.874
14684TIP3    H165467   2.774   3.085   5.919
14684TIP3    H265468   2.836   2.954   5.875
14685TIP3   OH265469   6.683   2.739   2.677
14685TIP3    H165470   6.603   2.708   2.718
14685TIP3    H265471   6.711   2.666   2.621
14686TIP3   OH265472   1.298   2.816   2.781
14686TIP3    H165473   1.355   2.876   2.828
14686TIP3    H265474   1.334   2.729   2.797
14687TIP3   OH265475   6.092   1.748   2.160
14687TIP3    H165476   6.040   1.674   2.129
14687TIP3    H265477   6.051   1.825   2.122
14688TIP3   OH265478   3.770   4.494  16.363
14688TIP3    H165479   3.685   4.509  16.322
14688TIP3    H265480   3.829   4.473  16.291
14689TIP3   OH265481   3.105   4.319   0.149
14689TIP3    H165482   3.173   4.358   0.094
14689TIP3    H265483   3.148   4.246   0.193
14690TIP3   OH265484   2.925   4.481   5.366
14690TIP3    H165485   3.012   4.512   5.392
14690TIP3    H265486   2.871   4.560   5.363
14691TIP3   OH265487   3.959   2.786   2.827
14691TIP3    H165488   4.004   2.806   2.745
14691TIP3    H265489   4.029   2.787   2.893
14692TIP3   OH265490   2.581   2.361  17.013
14692TIP3    H165491   2.675   2.382  17.011
14692TIP3    H265492   2.577   2.267  16.995
14693TIP3   OH265493   3.640   4.265  14.332
14693TIP3    H165494   3.641   4.319  14.253
14693TIP3    H265495   3.725   4.280  14.372
14694TIP3   OH265496   6.397   6.093  13.585
14694TIP3    H165497   6.397   6.142  13.502
14694TIP3    H265498   6.447   6.014  13.566
14695TIP3   OH265499   5.205   0.257   1.971
14695TIP3    H165500   5.178   0.234   1.883
14695TIP3    H265501   5.276   0.195   1.992
14696TIP3   OH265502   2.357   6.157   1.788
14696TIP3    H165503   2.451   6.167   1.803
14696TIP3    H265504   2.336   6.070   1.820
14697TIP3   OH265505   5.727   3.674  12.552
14697TIP3    H165506   5.784   3.733  12.601
14697TIP3    H265507   5.706   3.604  12.613
14698TIP3   OH265508   5.564   5.984  12.446
14698TIP3    H165509   5.487   5.981  12.389
14698TIP3    H265510   5.609   6.065  12.421
14699TIP3   OH265511   1.506   3.444   3.012
14699TIP3    H165512   1.602   3.439   3.020
14699TIP3    H265513   1.484   3.368   2.957
14700TIP3   OH265514   5.399   5.227  16.917
14700TIP3    H165515   5.322   5.228  16.974
14700TIP3    H265516   5.406   5.137  16.887
14701TIP3   OH265517   2.091   2.466  10.403
14701TIP3    H165518   2.171   2.477  10.352
14701TIP3    H265519   2.118   2.414  10.478
14702TIP3   OH265520   5.948   0.714  12.130
14702TIP3    H165521   6.036   0.696  12.097
14702TIP3    H265522   5.948   0.808  12.148
14703TIP3   OH265523   2.375   0.614  15.878
14703TIP3    H165524   2.438   0.686  15.891
14703TIP3    H265525   2.430   0.536  15.869
14704TIP3   OH265526   4.708   5.737  11.247
14704TIP3    H165527   4.706   5.786  11.329
14704TIP3    H265528   4.800   5.739  11.220
14705TIP3   OH265529   4.410   5.001   2.707
14705TIP3    H165530   4.340   5.064   2.722
14705TIP3    H265531   4.427   5.006   2.613
14706TIP3   OH265532   2.244   3.641  13.180
14706TIP3    H165533   2.197   3.662  13.261
14706TIP3    H265534   2.286   3.724  13.155
14707TIP3   OH265535   1.540   2.096  12.505
14707TIP3    H165536   1.475   2.130  12.567
14707TIP3    H265537   1.557   2.168  12.446
14708TIP3   OH265538   3.871   0.255  10.742
14708TIP3    H165539   3.778   0.233  10.737
14708TIP3    H265540   3.878   0.339  10.696
14709TIP3   OH265541   5.400   5.445  15.835
14709TIP3    H165542   5.316   5.465  15.793
14709TIP3    H265543   5.411   5.351  15.822
14710TIP3   OH265544   4.774   4.754  14.068
14710TIP3    H165545   4.702   4.798  14.022
14710TIP3    H265546   4.853   4.796  14.034
14711TIP3   OH265547   3.148   4.208   2.795
14711TIP3    H165548   3.155   4.265   2.718
14711TIP3    H265549   3.196   4.254   2.864
14712TIP3   OH265550   2.317   3.226   1.571
14712TIP3    H165551   2.388   3.278   1.609
14712TIP3    H265552   2.348   3.203   1.484
14713TIP3   OH265553   3.570   1.490  13.535
14713TIP3    H165554   3.665   1.486  13.523
14713TIP3    H265555   3.547   1.405  13.573
14714TIP3   OH265556   5.459   1.808  15.141
14714TIP3    H165557   5.528   1.743  15.129
14714TIP3    H265558   5.505   1.891  15.152
14715TIP3   OH265559   4.594   2.624   4.259
14715TIP3    H165560   4.687   2.606   4.274
14715TIP3    H265561   4.587   2.639   4.165
14716TIP3   OH265562   0.805   4.902  13.248
14716TIP3    H165563   0.787   4.902  13.154
14716TIP3    H265564   0.792   4.993  13.275
14717TIP3   OH265565   2.262   4.432   0.043
14717TIP3    H165566   2.347   4.389   0.032
14717TIP3    H265567   2.207   4.393  -0.025
14718TIP3   OH265568   3.361   6.489   0.401
14718TIP3    H165569   3.355   6.498   0.305
14718TIP3    H265570   3.452   6.465   0.418
14719TIP3   OH265571   6.691   6.067   1.631
14719TIP3    H165572   6.625   6.079   1.699
14719TIP3    H265573   6.672   5.981   1.594
14720TIP3   OH265574   0.222   3.687  15.945
14720TIP3    H165575   0.243   3.710  16.036
14720TIP3    H265576   0.174   3.763  15.912
14721TIP3   OH265577   5.968   1.513  16.111
14721TIP3    H165578   6.030   1.585  16.102
14721TIP3    H265579   6.005   1.443  16.057
14722TIP3   OH265580   2.714   3.175  13.152
14722TIP3    H165581   2.767   3.208  13.224
14722TIP3    H265582   2.653   3.246  13.133
14723TIP3   OH265583   0.960   1.398   2.240
14723TIP3    H165584   1.037   1.356   2.202
14723TIP3    H265585   0.995   1.475   2.285
14724TIP3   OH265586   5.840   2.555   1.776
14724TIP3    H165587   5.858   2.467   1.808
14724TIP3    H265588   5.745   2.559   1.770
14725TIP3   OH265589   4.477   3.833  16.716
14725TIP3    H165590   4.492   3.773  16.644
14725TIP3    H265591   4.560   3.834  16.765
14726TIP3   OH265592   5.153   2.042   1.829
14726TIP3    H165593   5.115   1.960   1.859
14726TIP3    H265594   5.134   2.043   1.735
14727TIP3   OH265595   0.801   4.720   4.500
14727TIP3    H165596   0.804   4.676   4.415
14727TIP3    H265597   0.870   4.678   4.551
14728TIP3   OH265598   5.090   4.422  14.529
14728TIP3    H165599   5.025   4.430  14.600
14728TIP3    H265600   5.038   4.398  14.452
14729TIP3   OH265601   5.245   0.252   3.231
14729TIP3    H165602   5.312   0.319   3.244
14729TIP3    H265603   5.172   0.281   3.286
14730TIP3   OH265604   4.497   2.926   3.799
14730TIP3    H165605   4.503   2.912   3.894
14730TIP3    H265606   4.587   2.936   3.771
14731TIP3   OH265607   1.847   3.876  13.815
14731TIP3    H165608   1.898   3.914  13.887
14731TIP3    H265609   1.771   3.836  13.859
14732TIP3   OH265610   0.322   4.155  16.167
14732TIP3    H165611   0.353   4.086  16.226
14732TIP3    H265612   0.382   4.228  16.184
14733TIP3   OH265613   2.918   5.262  16.890
14733TIP3    H165614   2.945   5.173  16.910
14733TIP3    H265615   2.944   5.276  16.799
14734TIP3   OH265616   4.851   0.503   3.165
14734TIP3    H165617   4.826   0.508   3.072
14734TIP3    H265618   4.821   0.586   3.202
14735TIP3   OH265619   4.290   0.460  15.107
14735TIP3    H165620   4.206   0.459  15.062
14735TIP3    H265621   4.277   0.521  15.180
14736TIP3   OH265622   0.356   3.133  15.336
14736TIP3    H165623   0.355   3.186  15.257
14736TIP3    H265624   0.403   3.053  15.312
14737TIP3   OH265625   6.560   0.799   1.214
14737TIP3    H165626   6.545   0.820   1.306
14737TIP3    H265627   6.563   0.884   1.170
14738TIP3   OH265628   5.660   4.650   6.663
14738TIP3    H165629   5.637   4.740   6.686
14738TIP3    H265630   5.753   4.643   6.683
14739TIP3   OH265631   2.919   5.293  11.683
14739TIP3    H165632   2.924   5.384  11.711
14739TIP3    H265633   2.907   5.297  11.588
14740TIP3   OH265634   0.856   1.914  15.716
14740TIP3    H165635   0.832   1.964  15.638
14740TIP3    H265636   0.938   1.953  15.745
14741TIP3   OH265637   4.109   4.596   5.816
14741TIP3    H165638   4.139   4.658   5.749
14741TIP3    H265639   4.067   4.650   5.882
14742TIP3   OH265640   5.364   6.449   1.490
14742TIP3    H165641   5.306   6.434   1.415
14742TIP3    H265642   5.452   6.429   1.458
14743TIP3   OH265643   2.179   4.118   0.713
14743TIP3    H165644   2.190   4.054   0.783
14743TIP3    H265645   2.255   4.104   0.656
14744TIP3   OH265646   6.741   1.016   2.338
14744TIP3    H165647   6.741   1.103   2.299
14744TIP3    H265648   6.806   1.021   2.409
14745TIP3   OH265649   3.604   5.330   5.881
14745TIP3    H165650   3.648   5.374   5.954
14745TIP3    H265651   3.606   5.237   5.904
14746TIP3   OH265652   1.700   6.124   6.331
14746TIP3    H165653   1.755   6.049   6.308
14746TIP3    H265654   1.610   6.093   6.319
14747TIP3   OH265655   0.742   0.757   3.336
14747TIP3    H165656   0.809   0.821   3.313
14747TIP3    H265657   0.675   0.768   3.268
14748TIP3   OH265658   4.713   3.483  13.109
14748TIP3    H165659   4.678   3.535  13.182
14748TIP3    H265660   4.803   3.465  13.134
14749TIP3   OH265661   0.170   0.253   1.406
14749TIP3    H165662   0.215   0.171   1.428
14749TIP3    H265663   0.226   0.294   1.340
14750TIP3   OH265664   3.146   4.165  16.878
14750TIP3    H165665   3.190   4.080  16.873
14750TIP3    H265666   3.092   4.160  16.957
14751TIP3   OH265667   5.508   2.287  15.933
14751TIP3    H165668   5.548   2.224  15.992
14751TIP3    H265669   5.415   2.287  15.958
14752TIP3   OH265670   6.595   3.107  13.770
14752TIP3    H165671   6.539   3.032  13.752
14752TIP3    H265672   6.547   3.158  13.836
14753TIP3   OH265673   4.562   6.391   3.380
14753TIP3    H165674   4.646   6.355   3.408
14753TIP3    H265675   4.575   6.411   3.287
14754TIP3   OH265676   3.896   3.265   6.234
14754TIP3    H165677   3.926   3.338   6.289
14754TIP3    H265678   3.801   3.263   6.247
14755TIP3   OH265679   1.079   0.049  15.301
14755TIP3    H165680   1.128   0.069  15.221
14755TIP3    H265681   1.062  -0.045  15.296
14756TIP3   OH265682   1.808   3.489  14.200
14756TIP3    H165683   1.725   3.482  14.247
14756TIP3    H265684   1.782   3.493  14.107
14757TIP3   OH265685   3.061   1.217  16.067
14757TIP3    H165686   3.105   1.262  16.139
14757TIP3    H265687   3.001   1.156  16.110
14758TIP3   OH265688   6.255   0.487   4.550
14758TIP3    H165689   6.245   0.392   4.557
14758TIP3    H265690   6.256   0.504   4.455
14759TIP3   OH265691   6.455   1.410  16.672
14759TIP3    H165692   6.409   1.348  16.616
14759TIP3    H265693   6.385   1.460  16.714
14760TIP3   OH265694   2.751   1.541   1.345
14760TIP3    H165695   2.749   1.453   1.308
14760TIP3    H265696   2.665   1.578   1.324
14761TIP3   OH265697   2.693   1.847  13.611
14761TIP3    H165698   2.681   1.801  13.528
14761TIP3    H265699   2.643   1.929  13.601
14762TIP3   OH265700   1.067   0.208  15.031
14762TIP3    H165701   0.997   0.148  15.054
14762TIP3    H265702   1.034   0.255  14.954
14763TIP3   OH265703   0.535   2.214  15.671
14763TIP3    H165704   0.455   2.191  15.624
14763TIP3    H265705   0.590   2.258  15.606
14764TIP3   OH265706   6.121   5.481  11.795
14764TIP3    H165707   6.054   5.424  11.834
14764TIP3    H265708   6.072   5.558  11.766
14765TIP3   OH265709   1.811   0.727   4.332
14765TIP3    H165710   1.746   0.673   4.377
14765TIP3    H265711   1.883   0.735   4.394
14766TIP3   OH265712   0.192   0.127  12.370
14766TIP3    H165713   0.140   0.116  12.449
14766TIP3    H265714   0.277   0.088  12.390
14767TIP3   OH265715   0.802   3.520  16.261
14767TIP3    H165716   0.775   3.429  16.275
14767TIP3    H265717   0.759   3.545  16.179
14768TIP3   OH265718   0.027   2.513   2.566
14768TIP3    H165719   0.117   2.533   2.592
14768TIP3    H265720   0.011   2.426   2.602
14769TIP3   OH265721   4.057   5.668   4.766
14769TIP3    H165722   4.144   5.646   4.798
14769TIP3    H265723   4.012   5.708   4.841
14770TIP3   OH265724   1.282   2.405  15.951
14770TIP3    H165725   1.345   2.357  16.003
14770TIP3    H265726   1.330   2.481  15.919
14771TIP3   OH265727   6.374   3.923   5.519
14771TIP3    H165728   6.413   3.921   5.606
14771TIP3    H265729   6.431   3.866   5.466
14772TIP3   OH265730   0.010   0.752  13.728
14772TIP3    H165731   0.010   0.656  13.731
14772TIP3    H265732   0.017   0.779  13.819
14773TIP3   OH265733   0.040   3.753   1.427
14773TIP3    H165734   0.065   3.814   1.496
14773TIP3    H265735  -0.002   3.680   1.473
14774TIP3   OH265736   6.640   2.338   0.082
14774TIP3    H165737   6.550   2.339   0.115
14774TIP3    H265738   6.630   2.341  -0.014
14775TIP3   OH265739   0.521   4.463   6.197
14775TIP3    H165740   0.528   4.532   6.263
14775TIP3    H265741   0.504   4.383   6.247
14776TIP3   OH265742   6.327   2.794  12.817
14776TIP3    H165743   6.419   2.769  12.831
14776TIP3    H265744   6.294   2.813  12.904
14777TIP3   OH265745   1.256   5.302  13.369
14777TIP3    H165746   1.239   5.390  13.333
14777TIP3    H265747   1.217   5.304  13.456
14778TIP3   OH265748   3.463   2.491  16.221
14778TIP3    H165749   3.530   2.482  16.289
14778TIP3    H265750   3.507   2.539  16.151
14779TIP3   OH265751   3.924   5.322   2.702
14779TIP3    H165752   3.878   5.369   2.633
14779TIP3    H265753   3.992   5.384   2.731
14780TIP3   OH265754   1.655   1.744  11.266
14780TIP3    H165755   1.562   1.768  11.264
14780TIP3    H265756   1.672   1.707  11.180
14781TIP3   OH265757   0.180   0.977   4.322
14781TIP3    H165758   0.263   0.964   4.277
14781TIP3    H265759   0.184   0.918   4.398
14782TIP3   OH265760   2.659   6.518  13.590
14782TIP3    H165761   2.596   6.455  13.556
14782TIP3    H265762   2.744   6.475  13.581
14783TIP3   OH265763   1.159   4.854   6.090
14783TIP3    H165764   1.251   4.832   6.075
14783TIP3    H265765   1.135   4.909   6.015
14784TIP3   OH265766   2.689   6.034  16.392
14784TIP3    H165767   2.728   5.993  16.469
14784TIP3    H265768   2.737   5.996  16.318
14785TIP3   OH265769   2.456   5.889   3.174
14785TIP3    H165770   2.445   5.974   3.132
14785TIP3    H265771   2.461   5.910   3.268
14786TIP3   OH265772   4.373   0.006   4.799
14786TIP3    H165773   4.369   0.022   4.704
14786TIP3    H265774   4.466   0.002   4.819
14787TIP3   OH265775   6.755   4.709  13.324
14787TIP3    H165776   6.730   4.801  13.322
14787TIP3    H265777   6.679   4.664  13.358
14788TIP3   OH265778   4.213   2.273  14.525
14788TIP3    H165779   4.273   2.340  14.558
14788TIP3    H265780   4.222   2.201  14.587
14789TIP3   OH265781   1.394   4.983  17.134
14789TIP3    H165782   1.484   4.952  17.131
14789TIP3    H265783   1.372   4.986  17.227
14790TIP3   OH265784   5.937   4.653   6.688
14790TIP3    H165785   5.996   4.609   6.749
14790TIP3    H265786   5.993   4.684   6.618
14791TIP3   OH265787   3.488   1.628  15.773
14791TIP3    H165788   3.407   1.593  15.733
14791TIP3    H265789   3.510   1.704  15.720
14792TIP3   OH265790   4.939   0.456  11.510
14792TIP3    H165791   4.844   0.459  11.517
14792TIP3    H265792   4.965   0.383  11.566
14793TIP3   OH265793   2.045   2.783  16.384
14793TIP3    H165794   2.130   2.762  16.423
14793TIP3    H265795   2.040   2.729  16.306
14794TIP3   OH265796   3.710   2.784   6.243
14794TIP3    H165797   3.666   2.772   6.159
14794TIP3    H265798   3.654   2.739   6.306
14795TIP3   OH265799   2.853   5.476   2.171
14795TIP3    H165800   2.938   5.489   2.214
14795TIP3    H265801   2.860   5.524   2.089
14796TIP3   OH265802   4.943   1.741  12.758
14796TIP3    H165803   4.988   1.656  12.754
14796TIP3    H265804   4.854   1.719  12.786
14797TIP3   OH265805   3.725   6.610  13.445
14797TIP3    H165806   3.746   6.635  13.355
14797TIP3    H265807   3.774   6.672  13.499
14798TIP3   OH265808   3.430   2.687   5.605
14798TIP3    H165809   3.359   2.700   5.668
14798TIP3    H265810   3.387   2.653   5.527
14799TIP3   OH265811   0.095   4.279  12.692
14799TIP3    H165812   0.103   4.363  12.648
14799TIP3    H265813   0.027   4.293  12.759
14800TIP3   OH265814   4.328   4.696  11.206
14800TIP3    H165815   4.289   4.663  11.125
14800TIP3    H265816   4.254   4.727  11.258
14801TIP3   OH265817   1.495   5.112  15.314
14801TIP3    H165818   1.584   5.077  15.311
14801TIP3    H265819   1.477   5.139  15.224
14802TIP3   OH265820   4.902   0.438  12.513
14802TIP3    H165821   4.887   0.454  12.606
14802TIP3    H265822   4.970   0.371  12.510
14803TIP3   OH265823   4.199   2.086   1.197
14803TIP3    H165824   4.227   2.143   1.126
14803TIP3    H265825   4.163   2.008   1.153
14804TIP3   OH265826   0.224   2.288   6.130
14804TIP3    H165827   0.239   2.203   6.171
14804TIP3    H265828   0.130   2.294   6.118
14805TIP3   OH265829   4.046   2.186   2.061
14805TIP3    H165830   4.123   2.185   2.004
14805TIP3    H265831   4.060   2.260   2.119
14806TIP3   OH265832   0.145   6.695  11.309
14806TIP3    H165833   0.240   6.686  11.303
14806TIP3    H265834   0.111   6.638  11.241
14807TIP3   OH265835   6.245   0.437  11.651
14807TIP3    H165836   6.219   0.353  11.613
14807TIP3    H265837   6.221   0.502  11.584
14808TIP3   OH265838   3.674   1.890  15.847
14808TIP3    H165839   3.682   1.801  15.880
14808TIP3    H265840   3.731   1.892  15.770
14809TIP3   OH265841   4.605   2.150  16.497
14809TIP3    H165842   4.562   2.090  16.558
14809TIP3    H265843   4.629   2.095  16.423
14810TIP3   OH265844   3.745   5.075  12.469
14810TIP3    H165845   3.828   5.101  12.510
14810TIP3    H265846   3.768   5.055  12.378
14811TIP3   OH265847   3.699   3.357   4.953
14811TIP3    H165848   3.608   3.366   4.982
14811TIP3    H265849   3.727   3.447   4.933
14812TIP3   OH265850   3.108   3.225  11.888
14812TIP3    H165851   3.151   3.310  11.884
14812TIP3    H265852   3.178   3.162  11.903
14813TIP3   OH265853   2.173   4.513   4.986
14813TIP3    H165854   2.108   4.451   5.018
14813TIP3    H265855   2.133   4.553   4.908
14814TIP3   OH265856   0.226   2.173   1.861
14814TIP3    H165857   0.152   2.229   1.841
14814TIP3    H265858   0.273   2.220   1.930
14815TIP3   OH265859   5.667   0.157  16.423
14815TIP3    H165860   5.703   0.179  16.509
14815TIP3    H265861   5.741   0.165  16.363
14816TIP3   OH265862   1.484   2.266   5.453
14816TIP3    H165863   1.413   2.247   5.514
14816TIP3    H265864   1.556   2.210   5.480
14817TIP3   OH265865   2.974   3.372   1.682
14817TIP3    H165866   2.954   3.375   1.775
14817TIP3    H265867   2.906   3.315   1.645
14818TIP3   OH265868   5.119   1.961   3.966
14818TIP3    H165869   5.031   1.967   4.004
14818TIP3    H265870   5.140   1.868   3.969
14819TIP3   OH265871   5.169   1.383   5.697
14819TIP3    H165872   5.108   1.323   5.655
14819TIP3    H265873   5.202   1.335   5.773
14820TIP3   OH265874   0.460   2.385   5.681
14820TIP3    H165875   0.367   2.367   5.669
14820TIP3    H265876   0.501   2.299   5.689
14821TIP3   OH265877   1.535   0.666  12.019
14821TIP3    H165878   1.462   0.704  12.068
14821TIP3    H265879   1.525   0.572  12.030
14822TIP3   OH265880   2.986   2.114  13.989
14822TIP3    H165881   3.036   2.169  13.928
14822TIP3    H265882   3.052   2.074  14.045
14823TIP3   OH265883   3.723   5.525   3.035
14823TIP3    H165884   3.792   5.469   3.001
14823TIP3    H265885   3.765   5.609   3.051
14824TIP3   OH265886   5.620   0.768   1.662
14824TIP3    H165887   5.555   0.702   1.637
14824TIP3    H265888   5.635   0.753   1.755
14825TIP3   OH265889   5.982   1.580  12.539
14825TIP3    H165890   5.941   1.665  12.529
14825TIP3    H265891   6.076   1.596  12.528
14826TIP3   OH265892   0.758   5.911  14.648
14826TIP3    H165893   0.730   5.972  14.579
14826TIP3    H265894   0.848   5.887  14.624
14827TIP3   OH265895   0.916   5.390   2.400
14827TIP3    H165896   0.873   5.454   2.456
14827TIP3    H265897   0.997   5.368   2.446
14828TIP3   OH265898   5.657   4.041  12.027
14828TIP3    H165899   5.746   4.040  11.992
14828TIP3    H265900   5.661   4.104  12.099
14829TIP3   OH265901   4.016   4.006  14.320
14829TIP3    H165902   4.058   4.037  14.400
14829TIP3    H265903   3.945   3.949  14.351
14830TIP3   OH265904   5.961   6.082   1.113
14830TIP3    H165905   5.956   6.165   1.065
14830TIP3    H265906   5.898   6.091   1.184
14831TIP3   OH265907   1.156   2.631   1.919
14831TIP3    H165908   1.249   2.644   1.901
14831TIP3    H265909   1.154   2.578   1.999
14832TIP3   OH265910   0.074   1.774   1.022
14832TIP3    H165911   0.106   1.848   0.971
14832TIP3    H265912   0.153   1.736   1.060
14833TIP3   OH265913   6.166   5.340   0.224
14833TIP3    H165914   6.157   5.377   0.136
14833TIP3    H265915   6.083   5.295   0.239
14834TIP3   OH265916   5.406   1.843   0.772
14834TIP3    H165917   5.486   1.806   0.735
14834TIP3    H265918   5.413   1.937   0.757
14835TIP3   OH265919   3.917   3.356   6.811
14835TIP3    H165920   3.888   3.414   6.740
14835TIP3    H265921   3.890   3.402   6.891
14836TIP3   OH265922   6.062   4.526   1.673
14836TIP3    H165923   6.011   4.532   1.754
14836TIP3    H265924   6.095   4.614   1.658
14837TIP3   OH265925   3.444   3.026  14.044
14837TIP3    H165926   3.525   3.075  14.056
14837TIP3    H265927   3.421   3.040  13.952
14838TIP3   OH265928   0.360   5.946  12.427
14838TIP3    H165929   0.315   5.897  12.496
14838TIP3    H265930   0.367   6.035  12.460
14839TIP3   OH265931   2.019   6.162  11.402
14839TIP3    H165932   2.097   6.216  11.409
14839TIP3    H265933   2.022   6.104  11.479
14840TIP3   OH265934   0.077   0.098  12.631
14840TIP3    H165935   0.114   0.113  12.718
14840TIP3    H265936  -0.017   0.091  12.646
14841TIP3   OH265937   1.061   0.653   4.598
14841TIP3    H165938   1.116   0.719   4.556
14841TIP3    H265939   1.068   0.672   4.692
14842TIP3   OH265940   1.563   5.834   5.788
14842TIP3    H165941   1.597   5.923   5.784
14842TIP3    H265942   1.636   5.779   5.759
14843TIP3   OH265943   3.527   1.777   2.055
14843TIP3    H165944   3.586   1.733   2.116
14843TIP3    H265945   3.562   1.759   1.968
14844TIP3   OH265946   4.074   3.112   5.232
14844TIP3    H165947   4.008   3.107   5.163
14844TIP3    H265948   4.024   3.131   5.312
14845TIP3   OH265949   1.337   0.736   5.298
14845TIP3    H165950   1.309   0.740   5.390
14845TIP3    H265951   1.303   0.816   5.259
14846TIP3   OH265952   6.283   4.880   1.384
14846TIP3    H165953   6.273   4.933   1.305
14846TIP3    H265954   6.341   4.931   1.440
14847TIP3   OH265955   5.987   3.997   4.226
14847TIP3    H165956   5.892   4.000   4.217
14847TIP3    H265957   6.002   3.986   4.320
14848TIP3   OH265958   5.457   6.741   1.172
14848TIP3    H165959   5.366   6.717   1.188
14848TIP3    H265960   5.475   6.811   1.234
14849TIP3   OH265961   2.479   5.085   5.468
14849TIP3    H165962   2.443   5.013   5.520
14849TIP3    H265963   2.494   5.155   5.532
14850TIP3   OH265964   4.046   2.537  13.148
14850TIP3    H165965   4.041   2.593  13.071
14850TIP3    H265966   3.958   2.499  13.157
14851TIP3   OH265967   6.393   6.752  16.130
14851TIP3    H165968   6.338   6.761  16.052
14851TIP3    H265969   6.349   6.806  16.196
14852TIP3   OH265970   3.785   5.159  13.032
14852TIP3    H165971   3.698   5.121  13.045
14852TIP3    H265972   3.831   5.142  13.114
14853TIP3   OH265973   6.428   0.651  12.204
14853TIP3    H165974   6.404   0.737  12.239
14853TIP3    H265975   6.464   0.670  12.118
14854TIP3   OH265976   5.181   3.490  14.093
14854TIP3    H165977   5.201   3.571  14.140
14854TIP3    H265978   5.267   3.455  14.069
14855TIP3   OH265979   5.900   3.108  16.119
14855TIP3    H165980   5.868   3.020  16.137
14855TIP3    H265981   5.906   3.112  16.023
14856TIP3   OH265982   0.957   4.682   3.856
14856TIP3    H165983   0.909   4.730   3.789
14856TIP3    H265984   0.889   4.635   3.905
14857TIP3   OH265985   2.942   1.402  11.361
14857TIP3    H165986   3.012   1.338  11.352
14857TIP3    H265987   2.925   1.432  11.272
14858TIP3   OH265988   4.122   1.479  14.636
14858TIP3    H165989   4.213   1.471  14.605
14858TIP3    H265990   4.072   1.422  14.578
14859TIP3   OH265991   3.596   0.049   1.005
14859TIP3    H165992   3.671   0.060   0.946
14859TIP3    H265993   3.562   0.138   1.017
14860TIP3   OH265994   6.127   6.149  12.643
14860TIP3    H165995   6.044   6.185  12.676
14860TIP3    H265996   6.190   6.164  12.713
14861TIP3   OH265997   4.294   1.675  15.562
14861TIP3    H165998   4.372   1.725  15.539
14861TIP3    H265999   4.289   1.606  15.496
14862TIP3   OH266000   4.326   4.105  12.197
14862TIP3    H166001   4.418   4.132  12.193
14862TIP3    H266002   4.329   4.015  12.230
14863TIP3   OH266003   0.594   4.768   5.079
14863TIP3    H166004   0.625   4.706   5.146
14863TIP3    H266005   0.517   4.725   5.041
14864TIP3   OH266006   5.403   3.787   1.751
14864TIP3    H166007   5.405   3.882   1.751
14864TIP3    H266008   5.483   3.761   1.796
14865TIP3   OH266009   5.203   3.945   3.509
14865TIP3    H166010   5.178   3.975   3.421
14865TIP3    H266011   5.186   3.851   3.507
14866TIP3   OH266012   1.983   1.557  10.693
14866TIP3    H166013   2.023   1.640  10.666
14866TIP3    H266014   1.898   1.583  10.729
14867TIP3   OH266015   0.862   4.332  13.832
14867TIP3    H166016   0.943   4.282  13.837
14867TIP3    H266017   0.874   4.392  13.759
14868TIP3   OH266018   3.944   2.544  12.852
14868TIP3    H166019   3.964   2.561  12.760
14868TIP3    H266020   3.913   2.453  12.853
14869TIP3   OH266021   2.646   4.623   2.646
14869TIP3    H166022   2.732   4.593   2.617
14869TIP3    H266023   2.661   4.656   2.735
14870TIP3   OH266024   4.923   2.166   3.452
14870TIP3    H166025   4.981   2.105   3.499
14870TIP3    H266026   4.972   2.188   3.372
14871TIP3   OH266027   5.635   0.503   1.387
14871TIP3    H166028   5.730   0.510   1.399
14871TIP3    H266029   5.599   0.511   1.475
14872TIP3   OH266030   5.282   1.383   5.082
14872TIP3    H166031   5.366   1.427   5.086
14872TIP3    H266032   5.226   1.433   5.142
14873TIP3   OH266033   1.888   2.705   3.683
14873TIP3    H166034   1.797   2.734   3.682
14873TIP3    H266035   1.901   2.663   3.597
14874TIP3   OH266036   3.223   2.993  14.343
14874TIP3    H166037   3.162   2.921  14.363
14874TIP3    H266038   3.216   3.003  14.248
14875TIP3   OH266039   0.606   1.123   4.246
14875TIP3    H166040   0.697   1.148   4.254
14875TIP3    H266041   0.570   1.132   4.334
14876TIP3   OH266042   2.135   6.339   0.486
14876TIP3    H166043   2.220   6.333   0.529
14876TIP3    H266044   2.110   6.249   0.469
14877TIP3   OH266045   0.386   2.269   0.450
14877TIP3    H166046   0.441   2.330   0.401
14877TIP3    H266047   0.448   2.212   0.495
14878TIP3   OH266048   0.181   0.919   2.589
14878TIP3    H166049   0.107   0.863   2.565
14878TIP3    H266050   0.155   0.960   2.671
14879TIP3   OH266051   5.010   5.661  17.150
14879TIP3    H166052   5.078   5.681  17.085
14879TIP3    H266053   5.054   5.603  17.213
14880TIP3   OH266054   6.550   0.345  14.915
14880TIP3    H166055   6.637   0.385  14.921
14880TIP3    H266056   6.491   0.412  14.949
14881TIP3   OH266057   3.346   0.394  14.227
14881TIP3    H166058   3.296   0.332  14.279
14881TIP3    H266059   3.397   0.339  14.168
14882TIP3   OH266060   1.026   3.498  11.698
14882TIP3    H166061   1.119   3.495  11.719
14882TIP3    H266062   0.994   3.577  11.741
14883TIP3   OH266063   4.830   1.401  14.059
14883TIP3    H166064   4.764   1.381  13.993
14883TIP3    H266065   4.910   1.360  14.025
14884TIP3   OH266066   1.146   2.659  13.238
14884TIP3    H166067   1.077   2.643  13.173
14884TIP3    H266068   1.227   2.652  13.189
14885TIP3   OH266069   5.437   0.625  14.827
14885TIP3    H166070   5.491   0.701  14.848
14885TIP3    H266071   5.499   0.558  14.801
14886TIP3   OH266072   1.226   3.347  10.360
14886TIP3    H166073   1.164   3.285  10.399
14886TIP3    H266074   1.213   3.336  10.265
14887TIP3   OH266075   0.422   1.762   2.755
14887TIP3    H166076   0.398   1.697   2.821
14887TIP3    H266077   0.517   1.763   2.755
14888TIP3   OH266078   0.154   2.714   4.964
14888TIP3    H166079   0.066   2.676   4.959
14888TIP3    H266080   0.199   2.675   4.889
14889TIP3   OH266081   1.298   2.179  12.950
14889TIP3    H166082   1.288   2.251  13.013
14889TIP3    H266083   1.342   2.111  13.000
14890TIP3   OH266084   3.261   0.148   3.191
14890TIP3    H166085   3.342   0.198   3.203
14890TIP3    H266086   3.268   0.075   3.254
14891TIP3   OH266087   4.025   0.926   4.779
14891TIP3    H166088   3.931   0.919   4.765
14891TIP3    H266089   4.043   0.871   4.855
14892TIP3   OH266090   6.122   1.084   1.212
14892TIP3    H166091   6.083   1.135   1.282
14892TIP3    H266092   6.087   1.123   1.132
14893TIP3   OH266093   4.209   2.495  13.385
14893TIP3    H166094   4.156   2.531  13.313
14893TIP3    H266095   4.233   2.572  13.437
14894TIP3   OH266096   6.513   2.989  16.231
14894TIP3    H166097   6.474   2.955  16.311
14894TIP3    H266098   6.572   2.920  16.201
14895TIP3   OH266099   4.775   4.784  15.691
14895TIP3    H166100   4.712   4.714  15.706
14895TIP3    H266101   4.822   4.758  15.611
14896TIP3   OH266102   1.606   1.745   6.043
14896TIP3    H166103   1.657   1.761   6.122
14896TIP3    H266104   1.532   1.692   6.073
14897TIP3   OH266105   3.300   0.069   1.093
14897TIP3    H166106   3.330   0.034   1.176
14897TIP3    H266107   3.352   0.148   1.080
14898TIP3   OH266108   0.304   6.161   5.048
14898TIP3    H166109   0.250   6.106   5.104
14898TIP3    H266110   0.387   6.113   5.040
14899TIP3   OH266111   3.495   4.616   1.069
14899TIP3    H166112   3.458   4.671   1.139
14899TIP3    H266113   3.580   4.588   1.104
14900TIP3   OH266114   0.303   5.700  14.839
14900TIP3    H166115   0.267   5.737  14.759
14900TIP3    H266116   0.394   5.731  14.841
14901TIP3   OH266117   1.973   3.875   4.730
14901TIP3    H166118   1.914   3.899   4.801
14901TIP3    H266119   2.045   3.938   4.736
14902TIP3   OH266120   2.845   2.052   5.653
14902TIP3    H166121   2.764   2.080   5.610
14902TIP3    H266122   2.818   1.982   5.712
14903TIP3   OH266123   3.986   5.694  11.161
14903TIP3    H166124   3.896   5.682  11.130
14903TIP3    H266125   4.033   5.618  11.128
14904TIP3   OH266126   4.177   6.217   4.607
14904TIP3    H166127   4.178   6.304   4.568
14904TIP3    H266128   4.164   6.158   4.532
14905TIP3   OH266129   3.692   2.072  15.490
14905TIP3    H166130   3.654   2.096  15.406
14905TIP3    H266131   3.709   2.156  15.534
14906TIP3   OH266132   2.129   4.289   4.581
14906TIP3    H166133   2.063   4.236   4.537
14906TIP3    H266134   2.089   4.313   4.665
14907TIP3   OH266135   5.104   4.547   0.250
14907TIP3    H166136   5.124   4.493   0.174
14907TIP3    H266137   5.018   4.515   0.279
14908TIP3   OH266138   0.918   1.620   5.191
14908TIP3    H166139   1.012   1.624   5.171
14908TIP3    H266140   0.915   1.606   5.286
14909TIP3   OH266141   4.794   0.280  10.460
14909TIP3    H166142   4.777   0.232  10.379
14909TIP3    H266143   4.859   0.228  10.506
14910TIP3   OH266144   0.534   6.558   0.765
14910TIP3    H166145   0.507   6.469   0.787
14910TIP3    H266146   0.497   6.574   0.679
14911TIP3   OH266147   1.243   1.848  15.998
14911TIP3    H166148   1.234   1.863  16.092
14911TIP3    H266149   1.157   1.814  15.972
14912TIP3   OH266150   3.716   5.087   5.507
14912TIP3    H166151   3.808   5.082   5.482
14912TIP3    H266152   3.670   5.102   5.424
14913TIP3   OH266153   0.106   2.225  16.931
14913TIP3    H166154   0.135   2.295  16.872
14913TIP3    H266155   0.174   2.223  16.999
14914TIP3   OH266156   4.970   5.332   5.782
14914TIP3    H166157   4.930   5.348   5.867
14914TIP3    H266158   4.908   5.368   5.718
14915TIP3   OH266159   2.554   0.640   1.372
14915TIP3    H166160   2.471   0.685   1.388
14915TIP3    H266161   2.588   0.622   1.460
14916TIP3   OH266162   2.675   1.858   2.224
14916TIP3    H166163   2.641   1.874   2.312
14916TIP3    H266164   2.621   1.787   2.189
14917TIP3   OH266165   4.109   0.965  13.041
14917TIP3    H166166   4.173   1.036  13.028
14917TIP3    H266167   4.138   0.896  12.981
14918TIP3   OH266168   4.256   4.464  13.365
14918TIP3    H166169   4.228   4.532  13.304
14918TIP3    H266170   4.333   4.425  13.323
14919TIP3   OH266171   2.918   2.791  16.016
14919TIP3    H166172   2.949   2.871  16.059
14919TIP3    H266173   2.830   2.777  16.053
14920TIP3   OH266174   5.363   1.268   0.996
14920TIP3    H166175   5.413   1.336   0.952
14920TIP3    H266176   5.389   1.273   1.088
14921TIP3   OH266177   6.476   2.918   4.132
14921TIP3    H166178   6.457   2.828   4.109
14921TIP3    H266179   6.404   2.945   4.189
14922TIP3   OH266180   0.881   4.085  14.125
14922TIP3    H166181   0.917   4.066  14.212
14922TIP3    H266182   0.848   4.174  14.132
14923TIP3   OH266183   4.055   6.608  16.949
14923TIP3    H166184   4.064   6.649  16.863
14923TIP3    H266185   3.982   6.655  16.990
14924TIP3   OH266186   3.577   2.763   6.007
14924TIP3    H166187   3.574   2.677   5.965
14924TIP3    H266188   3.485   2.784   6.025
14925TIP3   OH266189   2.604   3.086   3.473
14925TIP3    H166190   2.664   3.156   3.498
14925TIP3    H266191   2.611   3.022   3.544
14926TIP3   OH266192   1.117   4.593  13.947
14926TIP3    H166193   1.107   4.682  13.913
14926TIP3    H266194   1.033   4.573  13.989
14927TIP3   OH266195   3.583   5.896   2.503
14927TIP3    H166196   3.500   5.945   2.496
14927TIP3    H266197   3.641   5.956   2.550
14928TIP3   OH266198   0.180   5.431   2.354
14928TIP3    H166199   0.267   5.393   2.355
14928TIP3    H266200   0.192   5.521   2.384
14929TIP3   OH266201   5.473   0.554  14.190
14929TIP3    H166202   5.474   0.463  14.160
14929TIP3    H266203   5.551   0.561  14.246
14930TIP3   OH266204   0.513   4.551  10.757
14930TIP3    H166205   0.528   4.543  10.663
14930TIP3    H266206   0.528   4.644  10.776
14931TIP3   OH266207   5.561   3.643   5.588
14931TIP3    H166208   5.480   3.683   5.622
14931TIP3    H266209   5.566   3.673   5.497
14932TIP3   OH266210   3.322   1.630   6.300
14932TIP3    H166211   3.393   1.581   6.342
14932TIP3    H266212   3.257   1.563   6.277
14933TIP3   OH266213   2.481   4.184   2.195
14933TIP3    H166214   2.567   4.172   2.154
14933TIP3    H266215   2.419   4.145   2.133
14934TIP3   OH266216   1.479   3.831  15.954
14934TIP3    H166217   1.442   3.896  15.894
14934TIP3    H266218   1.427   3.752  15.939
14935TIP3   OH266219   5.979   3.129   3.846
14935TIP3    H166220   5.904   3.180   3.878
14935TIP3    H266221   5.944   3.040   3.836
14936TIP3   OH266222   6.772   1.560  15.384
14936TIP3    H166223   6.780   1.654  15.394
14936TIP3    H266224   6.808   1.523  15.464
14937TIP3   OH266225   1.397   1.623  14.732
14937TIP3    H166226   1.428   1.540  14.695
14937TIP3    H266227   1.373   1.602  14.822
14938TIP3   OH266228   0.333   5.843   1.920
14938TIP3    H166229   0.400   5.905   1.948
14938TIP3    H266230   0.250   5.886   1.941
14939TIP3   OH266231   1.752   1.276  12.759
14939TIP3    H166232   1.810   1.227  12.818
14939TIP3    H266233   1.741   1.361  12.801
14940TIP3   OH266234   6.660   0.503  13.958
14940TIP3    H166235   6.580   0.538  13.918
14940TIP3    H266236   6.630   0.424  14.004
14941TIP3   OH266237   4.453   0.711  12.448
14941TIP3    H166238   4.542   0.693  12.477
14941TIP3    H266239   4.405   0.631  12.466
14942TIP3   OH266240   3.900   3.689  15.561
14942TIP3    H166241   3.967   3.752  15.534
14942TIP3    H266242   3.941   3.604  15.547
14943TIP3   OH266243   4.447   3.269   2.458
14943TIP3    H166244   4.405   3.217   2.527
14943TIP3    H266245   4.512   3.211   2.419
14944TIP3   OH266246   2.896   3.376  15.911
14944TIP3    H166247   2.839   3.376  15.834
14944TIP3    H266248   2.915   3.283  15.927
14945TIP3   OH266249   2.178   6.659  11.296
14945TIP3    H166250   2.238   6.606  11.242
14945TIP3    H266251   2.125   6.707  11.233
14946TIP3   OH266252   0.263   5.936  16.452
14946TIP3    H166253   0.192   5.912  16.512
14946TIP3    H266254   0.279   6.029  16.470
14947TIP3   OH266255   1.982   1.385   5.413
14947TIP3    H166256   2.059   1.440   5.422
14947TIP3    H266257   1.933   1.423   5.339
14948TIP3   OH266258   5.616   4.666   4.533
14948TIP3    H166259   5.549   4.623   4.478
14948TIP3    H266260   5.586   4.757   4.540
14949TIP3   OH266261   6.421   1.154   0.633
14949TIP3    H166262   6.509   1.181   0.659
14949TIP3    H266263   6.421   1.059   0.644
14950TIP3   OH266264   2.384   3.786  14.281
14950TIP3    H166265   2.343   3.775  14.195
14950TIP3    H266266   2.478   3.784  14.263
14951TIP3   OH266267   6.521   2.689  14.539
14951TIP3    H166268   6.617   2.684  14.542
14951TIP3    H266269   6.499   2.764  14.594
14952TIP3   OH266270   5.219   1.629  15.661
14952TIP3    H166271   5.282   1.680  15.611
14952TIP3    H266272   5.193   1.686  15.733
14953TIP3   OH266273   1.886   4.303  12.197
14953TIP3    H166274   1.858   4.394  12.213
14953TIP3    H266275   1.834   4.251  12.258
14954TIP3   OH266276   3.006   1.037  12.731
14954TIP3    H166277   2.957   1.118  12.721
14954TIP3    H266278   3.076   1.042  12.666
14955TIP3   OH266279   3.109   0.588   4.015
14955TIP3    H166280   3.184   0.563   3.960
14955TIP3    H266281   3.038   0.603   3.953
14956TIP3   OH266282   5.653   0.806  14.907
14956TIP3    H166283   5.690   0.739  14.963
14956TIP3    H266284   5.692   0.790  14.821
14957TIP3   OH266285   6.476   1.029  12.467
14957TIP3    H166286   6.457   0.980  12.547
14957TIP3    H266287   6.420   0.989  12.400
14958TIP3   OH266288   2.159   6.288   4.714
14958TIP3    H166289   2.143   6.344   4.639
14958TIP3    H266290   2.220   6.338   4.769
14959TIP3   OH266291   0.307   1.470  16.109
14959TIP3    H166292   0.247   1.483  16.182
14959TIP3    H266293   0.375   1.413  16.144
14960TIP3   OH266294   3.223   5.050   2.556
14960TIP3    H166295   3.286   4.979   2.546
14960TIP3    H266296   3.277   5.127   2.574
14961TIP3   OH266297   0.879   5.906   3.772
14961TIP3    H166298   0.827   5.842   3.724
14961TIP3    H266299   0.829   5.922   3.852
14962TIP3   OH266300   5.316   4.519   5.556
14962TIP3    H166301   5.290   4.443   5.504
14962TIP3    H266302   5.240   4.537   5.611
14963TIP3   OH266303   3.072   2.798  14.451
14963TIP3    H166304   3.150   2.774  14.502
14963TIP3    H266305   3.005   2.737  14.480
14964TIP3   OH266306   0.604   1.884   1.165
14964TIP3    H166307   0.674   1.926   1.117
14964TIP3    H266308   0.524   1.907   1.117
14965TIP3   OH266309   4.469   2.207  14.662
14965TIP3    H166310   4.447   2.289  14.617
14965TIP3    H266311   4.439   2.222  14.752
14966TIP3   OH266312   1.184   0.200  12.855
14966TIP3    H166313   1.267   0.195  12.903
14966TIP3    H266314   1.125   0.246  12.915
14967TIP3   OH266315   5.613   1.756  13.913
14967TIP3    H166316   5.645   1.725  13.998
14967TIP3    H266317   5.518   1.754  13.921
14968TIP3   OH266318   4.448   3.729   0.866
14968TIP3    H166319   4.362   3.769   0.854
14968TIP3    H266320   4.449   3.656   0.803
14969TIP3   OH266321   4.469   4.035   5.983
14969TIP3    H166322   4.446   4.055   5.892
14969TIP3    H266323   4.561   4.012   5.981
14970TIP3   OH266324   3.776   4.041  13.319
14970TIP3    H166325   3.798   4.134  13.330
14970TIP3    H266326   3.747   4.013  13.406
14971TIP3   OH266327   2.995   3.408   4.743
14971TIP3    H166328   2.992   3.495   4.783
14971TIP3    H266329   2.994   3.347   4.817
14972TIP3   OH266330   1.453   2.855  11.753
14972TIP3    H166331   1.412   2.890  11.832
14972TIP3    H266332   1.448   2.926  11.689
14973TIP3   OH266333   5.415   0.693   2.135
14973TIP3    H166334   5.370   0.714   2.053
14973TIP3    H266335   5.443   0.602   2.125
14974TIP3   OH266336   1.497   0.966  11.623
14974TIP3    H166337   1.569   1.029  11.629
14974TIP3    H266338   1.440   1.000  11.554
14975TIP3   OH266339   4.792   5.485  13.682
14975TIP3    H166340   4.846   5.406  13.673
14975TIP3    H266341   4.839   5.552  13.633
14976TIP3   OH266342   2.816   6.061  11.577
14976TIP3    H166343   2.725   6.090  11.570
14976TIP3    H266344   2.867   6.140  11.562
14977TIP3   OH266345   0.226   6.621  12.905
14977TIP3    H166346   0.300   6.681  12.920
14977TIP3    H266347   0.178   6.621  12.988
14978TIP3   OH266348   0.287   3.378  11.681
14978TIP3    H166349   0.254   3.463  11.709
14978TIP3    H266350   0.311   3.333  11.762
14979TIP3   OH266351   5.823   0.593  11.411
14979TIP3    H166352   5.747   0.630  11.366
14979TIP3    H266353   5.827   0.641  11.494
14980TIP3   OH266354   0.145   3.827   2.166
14980TIP3    H166355   0.142   3.735   2.139
14980TIP3    H266356   0.158   3.875   2.084
14981TIP3   OH266357   3.074   2.913   3.240
14981TIP3    H166358   2.992   2.960   3.226
14981TIP3    H266359   3.137   2.980   3.265
14982TIP3   OH266360   0.246   2.253  14.759
14982TIP3    H166361   0.338   2.231  14.771
14982TIP3    H266362   0.222   2.213  14.675
14983TIP3   OH266363   6.320   2.614   0.370
14983TIP3    H166364   6.246   2.673   0.386
14983TIP3    H266365   6.292   2.562   0.294
14984TIP3   OH266366   4.343   2.041   2.959
14984TIP3    H166367   4.365   2.019   2.869
14984TIP3    H266368   4.409   1.996   3.012
14985TIP3   OH266369   4.994   1.398   0.076
14985TIP3    H166370   5.070   1.427   0.127
14985TIP3    H266371   4.928   1.465   0.091
14986TIP3   OH266372   4.207   1.922  10.812
14986TIP3    H166373   4.156   1.965  10.744
14986TIP3    H266374   4.292   1.966  10.809
14987TIP3   OH266375   6.727   5.243  15.294
14987TIP3    H166376   6.649   5.298  15.295
14987TIP3    H266377   6.748   5.230  15.387
14988TIP3   OH266378   1.627   4.112  13.375
14988TIP3    H166379   1.691   4.174  13.339
14988TIP3    H266380   1.639   4.032  13.322
14989TIP3   OH266381   6.577   0.130   2.005
14989TIP3    H166382   6.560   0.147   2.098
14989TIP3    H266383   6.666   0.162   1.991
14990TIP3   OH266384   3.775   3.235   3.859
14990TIP3    H166385   3.814   3.320   3.880
14990TIP3    H266386   3.817   3.208   3.778
14991TIP3   OH266387   3.523   0.887   2.982
14991TIP3    H166388   3.491   0.965   2.937
14991TIP3    H266389   3.613   0.875   2.951
14992TIP3   OH266390   0.544   1.918  15.591
14992TIP3    H166391   0.473   1.936  15.530
14992TIP3    H266392   0.593   2.000  15.596
14993TIP3   OH266393   6.292   5.804  11.253
14993TIP3    H166394   6.326   5.827  11.166
14993TIP3    H266395   6.253   5.885  11.286
14994TIP3   OH266396   3.469   6.542  15.459
14994TIP3    H166397   3.392   6.595  15.480
14994TIP3    H266398   3.525   6.550  15.537
14995TIP3   OH266399   4.305   2.930  11.356
14995TIP3    H166400   4.351   2.938  11.272
14995TIP3    H266401   4.364   2.973  11.419
14996TIP3   OH266402   1.717   1.881  14.971
14996TIP3    H166403   1.803   1.912  14.999
14996TIP3    H266404   1.718   1.892  14.876
14997TIP3   OH266405   0.499   5.363   2.447
14997TIP3    H166406   0.588   5.391   2.463
14997TIP3    H266407   0.469   5.418   2.374
14998TIP3   OH266408   4.620   1.941   1.753
14998TIP3    H166409   4.652   1.980   1.671
14998TIP3    H266410   4.526   1.961   1.754
14999TIP3   OH266411   4.102   3.257   1.143
14999TIP3    H166412   4.170   3.317   1.114
14999TIP3    H266413   4.021   3.293   1.105
15000TIP3   OH266414   2.082   1.205   0.481
15000TIP3    H166415   2.015   1.226   0.546
15000TIP3    H266416   2.076   1.110   0.470
15001TIP3   OH266417   1.077   4.469   2.058
15001TIP3    H166418   1.062   4.431   1.971
15001TIP3    H266419   1.015   4.541   2.064
15002TIP3   OH266420   0.372   4.463  12.105
15002TIP3    H166421   0.402   4.537  12.053
15002TIP3    H266422   0.308   4.419  12.048
15003TIP3   OH266423   1.580   0.123  15.270
15003TIP3    H166424   1.586   0.127  15.365
15003TIP3    H266425   1.669   0.138  15.239
15004TIP3   OH266426   3.015   2.040  11.399
15004TIP3    H166427   2.966   2.091  11.335
15004TIP3    H266428   2.954   2.027  11.471
15005TIP3   OH266429   0.228   0.491   3.588
15005TIP3    H166430   0.257   0.475   3.498
15005TIP3    H266431   0.136   0.518   3.579
15006TIP3   OH266432   1.801   6.599   2.893
15006TIP3    H166433   1.849   6.647   2.961
15006TIP3    H266434   1.715   6.582   2.931
15007TIP3   OH266435   0.977   1.110   2.410
15007TIP3    H166436   0.905   1.172   2.399
15007TIP3    H266437   1.034   1.151   2.475
15008TIP3   OH266438   2.536   5.253  16.762
15008TIP3    H166439   2.588   5.328  16.790
15008TIP3    H266440   2.581   5.221  16.684
15009TIP3   OH266441   0.586   5.151  15.879
15009TIP3    H166442   0.603   5.121  15.968
15009TIP3    H266443   0.497   5.122  15.860
15010TIP3   OH266444   1.217   4.604   0.297
15010TIP3    H166445   1.126   4.585   0.276
15010TIP3    H266446   1.261   4.612   0.213
15011TIP3   OH266447   3.050   5.812   1.365
15011TIP3    H166448   3.043   5.886   1.305
15011TIP3    H266449   3.136   5.775   1.348
15012TIP3   OH266450   3.774   3.689   5.906
15012TIP3    H166451   3.741   3.681   5.816
15012TIP3    H266452   3.843   3.755   5.901
15013TIP3   OH266453   1.770   1.118  13.550
15013TIP3    H166454   1.836   1.164  13.499
15013TIP3    H266455   1.687   1.143  13.510
15014TIP3   OH266456   6.469   0.863  11.269
15014TIP3    H166457   6.394   0.918  11.245
15014TIP3    H266458   6.512   0.843  11.186
15015TIP3   OH266459   2.291   5.263   3.496
15015TIP3    H166460   2.214   5.315   3.475
15015TIP3    H266461   2.266   5.213   3.573
15016TIP3   OH266462   3.686   6.493   5.316
15016TIP3    H166463   3.710   6.573   5.270
15016TIP3    H266464   3.704   6.423   5.253
15017TIP3   OH266465   3.518   1.126   1.126
15017TIP3    H166466   3.580   1.076   1.072
15017TIP3    H266467   3.506   1.209   1.079
15018TIP3   OH266468   0.350   1.439   5.015
15018TIP3    H166469   0.398   1.420   5.096
15018TIP3    H266470   0.258   1.443   5.042
15019TIP3   OH266471   0.873   4.204  12.480
15019TIP3    H166472   0.891   4.173  12.392
15019TIP3    H266473   0.780   4.189  12.493
15020TIP3   OH266474   4.259   4.703  12.748
15020TIP3    H166475   4.271   4.608  12.757
15020TIP3    H266476   4.320   4.740  12.812
15021TIP3   OH266477   0.253   3.315   4.578
15021TIP3    H166478   0.246   3.373   4.654
15021TIP3    H266479   0.162   3.296   4.554
15022TIP3   OH266480   2.808   5.090  13.494
15022TIP3    H166481   2.738   5.138  13.450
15022TIP3    H266482   2.889   5.130  13.462
15023TIP3   OH266483   6.039   5.143  13.423
15023TIP3    H166484   6.039   5.200  13.500
15023TIP3    H266485   6.090   5.066  13.449
15024TIP3   OH266486   2.291   1.924   3.176
15024TIP3    H166487   2.239   1.990   3.129
15024TIP3    H266488   2.369   1.972   3.205
15025TIP3   OH266489   6.107   2.267   4.676
15025TIP3    H166490   6.076   2.301   4.592
15025TIP3    H266491   6.027   2.237   4.720
15026TIP3   OH266492   4.427   0.283  11.054
15026TIP3    H166493   4.494   0.219  11.081
15026TIP3    H266494   4.468   0.332  10.983
15027TIP3   OH266495   4.134   0.072   3.311
15027TIP3    H166496   4.167   0.009   3.375
15027TIP3    H266497   4.174   0.044   3.228
15028TIP3   OH266498   0.836   3.820  16.938
15028TIP3    H166499   0.758   3.822  16.994
15028TIP3    H266500   0.873   3.733  16.952
15029TIP3   OH266501   0.461   4.203  12.230
15029TIP3    H166502   0.458   4.171  12.320
15029TIP3    H266503   0.529   4.151  12.188
15030TIP3   OH266504   2.131   5.896   2.626
15030TIP3    H166505   2.106   5.984   2.654
15030TIP3    H266506   2.227   5.896   2.629
15031TIP3   OH266507   1.594   5.641  15.127
15031TIP3    H166508   1.502   5.650  15.104
15031TIP3    H266509   1.597   5.655  15.222
15032TIP3   OH266510   4.843   0.232   0.240
15032TIP3    H166511   4.759   0.208   0.278
15032TIP3    H266512   4.862   0.164   0.176
15033TIP3   OH266513   2.318   6.371  15.158
15033TIP3    H166514   2.235   6.331  15.130
15033TIP3    H266515   2.324   6.451  15.106
15034TIP3   OH266516   4.956   4.239   1.288
15034TIP3    H166517   5.043   4.245   1.327
15034TIP3    H266518   4.944   4.145   1.271
15035TIP3   OH266519   1.982   3.820   1.443
15035TIP3    H166520   1.992   3.734   1.402
15035TIP3    H266521   2.066   3.864   1.427
15036TIP3   OH266522   6.569   6.496  11.354
15036TIP3    H166523   6.524   6.540  11.282
15036TIP3    H266524   6.502   6.488  11.422
15037TIP3   OH266525   6.564   0.096  12.942
15037TIP3    H166526   6.548   0.006  12.913
15037TIP3    H266527   6.640   0.090  12.999
15038TIP3   OH266528   2.849   5.330  13.231
15038TIP3    H166529   2.760   5.305  13.259
15038TIP3    H266530   2.898   5.248  13.232
15039TIP3   OH266531   0.063   4.444  14.231
15039TIP3    H166532   0.055   4.362  14.182
15039TIP3    H266533   0.157   4.458  14.240
15040TIP3   OH266534   0.947   6.049   5.711
15040TIP3    H166535   0.985   6.111   5.649
15040TIP3    H266536   0.945   6.095   5.794
15041TIP3   OH266537   5.081   1.818  11.914
15041TIP3    H166538   5.102   1.893  11.970
15041TIP3    H266539   5.074   1.855  11.826
15042TIP3   OH266540   3.259   0.757   1.107
15042TIP3    H166541   3.272   0.830   1.168
15042TIP3    H266542   3.176   0.719   1.134
15043TIP3   OH266543   0.990   5.579   5.431
15043TIP3    H166544   0.970   5.662   5.474
15043TIP3    H266545   0.941   5.513   5.480
15044TIP3   OH266546   3.299   2.501   5.986
15044TIP3    H166547   3.392   2.480   5.989
15044TIP3    H266548   3.295   2.596   5.999
15045TIP3   OH266549   5.939   0.603  14.527
15045TIP3    H166550   6.020   0.632  14.570
15045TIP3    H266551   5.936   0.651  14.445
15046TIP3   OH266552   4.450   2.524  12.907
15046TIP3    H166553   4.376   2.584  12.920
15046TIP3    H266554   4.413   2.453  12.854
15047TIP3   OH266555   1.710   3.920   3.010
15047TIP3    H166556   1.736   3.865   3.084
15047TIP3    H266557   1.788   3.973   2.991
15048TIP3   OH266558   6.531   3.336  10.448
15048TIP3    H166559   6.549   3.317  10.540
15048TIP3    H266560   6.597   3.287  10.399
15049TIP3   OH266561   6.430   6.703  12.337
15049TIP3    H166562   6.460   6.635  12.276
15049TIP3    H266563   6.511   6.745  12.368
15050TIP3   OH266564   6.787   1.224   2.645
15050TIP3    H166565   6.723   1.277   2.598
15050TIP3    H266566   6.865   1.227   2.591
15051TIP3   OH266567   6.154   6.625  12.384
15051TIP3    H166568   6.238   6.669  12.378
15051TIP3    H266569   6.134   6.624  12.478
15052TIP3   OH266570   2.329   0.477  13.384
15052TIP3    H166571   2.419   0.453  13.407
15052TIP3    H266572   2.338   0.556  13.331
15053TIP3   OH266573   1.067   2.926   0.914
15053TIP3    H166574   1.013   2.978   0.855
15053TIP3    H266575   1.156   2.961   0.903
15054TIP3   OH266576   4.754   2.854  14.113
15054TIP3    H166577   4.822   2.792  14.139
15054TIP3    H266578   4.799   2.914  14.053
15055TIP3   OH266579   4.275   2.905  17.130
15055TIP3    H166580   4.352   2.851  17.107
15055TIP3    H266581   4.281   2.981  17.073
15056TIP3   OH266582   5.204   4.845  15.162
15056TIP3    H166583   5.228   4.801  15.244
15056TIP3    H266584   5.137   4.909  15.188
15057TIP3   OH266585   1.785   2.224   4.257
15057TIP3    H166586   1.728   2.254   4.186
15057TIP3    H266587   1.819   2.140   4.226
15058TIP3   OH266588   6.081   4.870  14.802
15058TIP3    H166589   6.021   4.920  14.747
15058TIP3    H266590   6.167   4.883  14.762
15059TIP3   OH266591   5.328   2.309  11.587
15059TIP3    H166592   5.369   2.316  11.674
15059TIP3    H266593   5.245   2.263  11.603
15060TIP3   OH266594   4.240   1.822  11.191
15060TIP3    H166595   4.328   1.786  11.195
15060TIP3    H266596   4.249   1.911  11.226
15061TIP3   OH266597   1.235   2.367  17.223
15061TIP3    H166598   1.168   2.303  17.246
15061TIP3    H266599   1.314   2.315  17.208
15062TIP3   OH266600   2.284   0.109   2.701
15062TIP3    H166601   2.260   0.066   2.619
15062TIP3    H266602   2.219   0.178   2.711
15063TIP3   OH266603   2.343   1.120   2.896
15063TIP3    H166604   2.375   1.207   2.873
15063TIP3    H266605   2.409   1.060   2.862
15064TIP3   OH266606   3.614   4.862  13.987
15064TIP3    H166607   3.634   4.917  14.063
15064TIP3    H266608   3.674   4.894  13.919
15065TIP3   OH266609   6.223   5.635  15.533
15065TIP3    H166610   6.193   5.648  15.623
15065TIP3    H266611   6.298   5.576  15.541
15066TIP3   OH266612   2.291   3.683  12.378
15066TIP3    H166613   2.357   3.737  12.334
15066TIP3    H266614   2.260   3.623  12.311
15067TIP3   OH266615   2.555   1.620   4.081
15067TIP3    H166616   2.545   1.713   4.059
15067TIP3    H266617   2.519   1.573   4.006
15068TIP3   OH266618   6.436   0.777  11.537
15068TIP3    H166619   6.452   0.792  11.444
15068TIP3    H266620   6.346   0.744  11.541
15069TIP3   OH266621   4.860   2.542   4.333
15069TIP3    H166622   4.955   2.549   4.324
15069TIP3    H266623   4.845   2.454   4.366
15070TIP3   OH266624   6.581   2.806  13.414
15070TIP3    H166625   6.621   2.808  13.501
15070TIP3    H266626   6.628   2.738  13.367
15071TIP3   OH266627   3.963   5.528  11.389
15071TIP3    H166628   3.990   5.571  11.309
15071TIP3    H266629   3.938   5.599  11.448
15072TIP3   OH266630   2.296   2.758   2.151
15072TIP3    H166631   2.321   2.781   2.062
15072TIP3    H266632   2.201   2.746   2.147
15073TIP3   OH266633   0.585   6.587  16.685
15073TIP3    H166634   0.656   6.642  16.653
15073TIP3    H266635   0.621   6.543  16.762
15074TIP3   OH266636   0.234   2.620  14.120
15074TIP3    H166637   0.315   2.569  14.119
15074TIP3    H266638   0.252   2.693  14.179
15075TIP3   OH266639   5.246   6.044   1.551
15075TIP3    H166640   5.269   6.014   1.463
15075TIP3    H266641   5.315   6.106   1.574
15076TIP3   OH266642   3.657   5.405   5.192
15076TIP3    H166643   3.712   5.473   5.155
15076TIP3    H266644   3.613   5.365   5.117
15077TIP3   OH266645   2.523   3.542  12.113
15077TIP3    H166646   2.552   3.621  12.067
15077TIP3    H266647   2.579   3.538  12.190
15078TIP3   OH266648   0.078   5.010  11.139
15078TIP3    H166649   0.061   5.052  11.223
15078TIP3    H266650   0.170   5.028  11.121
15079TIP3   OH266651   0.936   3.588   6.086
15079TIP3    H166652   0.983   3.531   6.147
15079TIP3    H266653   0.875   3.530   6.040
15080TIP3   OH266654   6.444   6.185  11.175
15080TIP3    H166655   6.521   6.153  11.222
15080TIP3    H266656   6.480   6.224  11.094
15081TIP3   OH266657   2.939   5.179   3.884
15081TIP3    H166658   3.020   5.210   3.844
15081TIP3    H266659   2.886   5.148   3.810
15082TIP3   OH266660   4.900   3.856   4.966
15082TIP3    H166661   4.933   3.891   4.883
15082TIP3    H266662   4.818   3.902   4.981
15083TIP3   OH266663   5.252   2.147   2.518
15083TIP3    H166664   5.187   2.142   2.447
15083TIP3    H266665   5.204   2.183   2.592
15084TIP3   OH266666   0.640   3.148  10.707
15084TIP3    H166667   0.612   3.086  10.640
15084TIP3    H266668   0.735   3.140  10.709
15085TIP3   OH266669   4.338   1.536  12.128
15085TIP3    H166670   4.338   1.593  12.204
15085TIP3    H266671   4.419   1.486  12.134
15086TIP3   OH266672   2.437   1.697   5.110
15086TIP3    H166673   2.531   1.698   5.091
15086TIP3    H266674   2.411   1.789   5.112
15087TIP3   OH266675   1.340   4.183  10.913
15087TIP3    H166676   1.391   4.240  10.971
15087TIP3    H266677   1.399   4.110  10.894
15088TIP3   OH266678   3.265   4.611   4.098
15088TIP3    H166679   3.181   4.586   4.137
15088TIP3    H266680   3.305   4.670   4.162
15089TIP3   OH266681   5.872   4.337  16.096
15089TIP3    H166682   5.866   4.332  16.001
15089TIP3    H266683   5.957   4.378  16.113
15090TIP3   OH266684   1.031   3.534   2.662
15090TIP3    H166685   0.941   3.502   2.659
15090TIP3    H266686   1.053   3.537   2.755
15091TIP3   OH266687   0.118   5.175  16.966
15091TIP3    H166688   0.203   5.210  16.940
15091TIP3    H266689   0.115   5.087  16.929
15092TIP3   OH266690   1.701   6.727   0.506
15092TIP3    H166691   1.764   6.732   0.578
15092TIP3    H266692   1.733   6.654   0.452
15093TIP3   OH266693   1.757   0.411  16.333
15093TIP3    H166694   1.743   0.445  16.421
15093TIP3    H266695   1.836   0.456  16.302
15094TIP3   OH266696   5.298   1.429  10.523
15094TIP3    H166697   5.380   1.386  10.544
15094TIP3    H266698   5.322   1.497  10.460
15095TIP3   OH266699   4.037   0.457   0.725
15095TIP3    H166700   4.076   0.545   0.725
15095TIP3    H266701   3.955   0.468   0.678
15096TIP3   OH266702   1.217   2.257  14.896
15096TIP3    H166703   1.288   2.316  14.871
15096TIP3    H266704   1.153   2.313  14.940
15097TIP3   OH266705   4.951   6.304  10.818
15097TIP3    H166706   5.029   6.249  10.808
15097TIP3    H266707   4.937   6.342  10.731
15098TIP3   OH266708   2.906   0.704  13.645
15098TIP3    H166709   2.899   0.633  13.581
15098TIP3    H266710   2.996   0.701  13.675
15099TIP3   OH266711   1.010   0.568  14.445
15099TIP3    H166712   0.984   0.584  14.535
15099TIP3    H266713   0.973   0.482  14.425
15100TIP3   OH266714   5.636   1.426  17.187
15100TIP3    H166715   5.694   1.392  17.256
15100TIP3    H266716   5.590   1.349  17.154
15101TIP3   OH266717   1.884   4.346   3.110
15101TIP3    H166718   1.927   4.287   3.049
15101TIP3    H266719   1.955   4.387   3.159
15102TIP3   OH266720   5.437   6.209   1.667
15102TIP3    H166721   5.499   6.254   1.610
15102TIP3    H266722   5.405   6.277   1.726
15103TIP3   OH266723   1.325   2.769   5.496
15103TIP3    H166724   1.383   2.834   5.536
15103TIP3    H266725   1.356   2.761   5.406
15104TIP3   OH266726   2.035   3.983   2.734
15104TIP3    H166727   2.000   3.956   2.819
15104TIP3    H266728   2.120   4.021   2.754
15105TIP3   OH266729   6.256   3.888  14.867
15105TIP3    H166730   6.349   3.888  14.890
15105TIP3    H266731   6.242   3.802  14.828
15106TIP3   OH266732   4.592   2.475   5.250
15106TIP3    H166733   4.645   2.528   5.191
15106TIP3    H266734   4.608   2.385   5.222
15107TIP3   OH266735   4.867   5.804   2.412
15107TIP3    H166736   4.908   5.734   2.361
15107TIP3    H266737   4.937   5.868   2.424
15108TIP3   OH266738   4.541   3.008   0.427
15108TIP3    H166739   4.540   2.974   0.337
15108TIP3    H266740   4.574   3.097   0.419
15109TIP3   OH266741   5.578   3.321  14.544
15109TIP3    H166742   5.614   3.310  14.456
15109TIP3    H266743   5.581   3.233  14.582
15110TIP3   OH266744   1.513   5.028  11.961
15110TIP3    H166745   1.520   4.957  12.025
15110TIP3    H266746   1.421   5.026  11.933
15111TIP3   OH266747   5.022   4.966  11.716
15111TIP3    H166748   5.036   4.879  11.677
15111TIP3    H266749   4.952   5.005  11.664
15112TIP3   OH266750   1.322   0.031  11.587
15112TIP3    H166751   1.351   0.115  11.623
15112TIP3    H266752   1.379  -0.034  11.628
15113TIP3   OH266753   5.714   5.918  13.082
15113TIP3    H166754   5.754   5.854  13.141
15113TIP3    H266755   5.789   5.959  13.038
15114TIP3   OH266756   3.775   2.179   6.120
15114TIP3    H166757   3.756   2.117   6.191
15114TIP3    H266758   3.866   2.204   6.133
15115TIP3   OH266759   1.873   0.182   2.896
15115TIP3    H166760   1.960   0.216   2.876
15115TIP3    H266761   1.859   0.203   2.988
15116TIP3   OH266762   2.039   1.511   4.508
15116TIP3    H166763   1.958   1.559   4.520
15116TIP3    H266764   2.052   1.462   4.589
15117TIP3   OH266765   1.133   3.192   0.449
15117TIP3    H166766   1.118   3.281   0.416
15117TIP3    H266767   1.070   3.138   0.401
15118TIP3   OH266768   5.681   6.446   2.489
15118TIP3    H166769   5.737   6.372   2.509
15118TIP3    H266770   5.739   6.522   2.490
15119TIP3   OH266771   5.105   6.446   2.027
15119TIP3    H166772   5.030   6.398   1.992
15119TIP3    H266773   5.158   6.380   2.071
15120TIP3   OH266774   4.393   6.274  16.714
15120TIP3    H166775   4.341   6.317  16.782
15120TIP3    H266776   4.402   6.184  16.745
15121TIP3   OH266777   1.347   5.400  13.638
15121TIP3    H166778   1.435   5.366  13.626
15121TIP3    H266779   1.354   5.493  13.615
15122TIP3   OH266780   6.456   4.698   3.467
15122TIP3    H166781   6.362   4.690   3.477
15122TIP3    H266782   6.468   4.732   3.378
15123TIP3   OH266783   2.954   3.057   0.564
15123TIP3    H166784   3.001   3.096   0.490
15123TIP3    H266785   2.874   3.109   0.573
15124TIP3   OH266786   3.906   2.241   2.402
15124TIP3    H166787   3.902   2.312   2.467
15124TIP3    H266788   3.884   2.162   2.452
15125TIP3   OH266789   3.676   3.393   3.475
15125TIP3    H166790   3.581   3.395   3.486
15125TIP3    H266791   3.708   3.458   3.537
15126TIP3   OH266792   6.330   6.339  13.256
15126TIP3    H166793   6.406   6.323  13.313
15126TIP3    H266794   6.255   6.315  13.309
15127TIP3   OH266795   4.724   1.577  16.246
15127TIP3    H166796   4.686   1.621  16.170
15127TIP3    H266797   4.750   1.491  16.212
15128TIP3   OH266798   5.564   2.574  15.674
15128TIP3    H166799   5.604   2.647  15.627
15128TIP3    H266800   5.638   2.520  15.702
15129TIP3   OH266801   1.600   4.678   5.602
15129TIP3    H166802   1.651   4.611   5.648
15129TIP3    H266803   1.569   4.633   5.524
15130TIP3   OH266804   4.566   5.854   3.243
15130TIP3    H166805   4.578   5.807   3.325
15130TIP3    H266806   4.649   5.900   3.229
15131TIP3   OH266807   1.548   3.025   0.764
15131TIP3    H166808   1.543   2.985   0.678
15131TIP3    H266809   1.597   3.106   0.751
15132TIP3   OH266810   6.506   6.168  14.876
15132TIP3    H166811   6.601   6.180  14.883
15132TIP3    H266812   6.470   6.213  14.952
15133TIP3   OH266813   1.249   1.800   3.308
15133TIP3    H166814   1.314   1.838   3.250
15133TIP3    H266815   1.171   1.791   3.254
15134TIP3   OH266816   4.909   3.136  15.001
15134TIP3    H166817   4.909   3.230  15.020
15134TIP3    H266818   4.985   3.102  15.049
15135TIP3   OH266819   6.176   4.001  11.890
15135TIP3    H166820   6.114   3.933  11.863
15135TIP3    H266821   6.261   3.969  11.859
15136TIP3   OH266822   4.397   1.482  16.514
15136TIP3    H166823   4.352   1.468  16.598
15136TIP3    H266824   4.408   1.393  16.479
15137TIP3   OH266825   3.139   6.326   5.458
15137TIP3    H166826   3.150   6.398   5.519
15137TIP3    H266827   3.072   6.355   5.397
15138TIP3   OH266828   1.912   4.078  16.987
15138TIP3    H166829   1.898   4.155  16.932
15138TIP3    H266830   2.004   4.055  16.974
15139TIP3   OH266831   0.371   6.605   3.011
15139TIP3    H166832   0.316   6.532   3.038
15139TIP3    H266833   0.434   6.567   2.950
15140TIP3   OH266834   5.834   5.784  13.279
15140TIP3    H166835   5.916   5.768  13.232
15140TIP3    H266836   5.861   5.828  13.359
15141TIP3   OH266837   5.777   0.747  15.485
15141TIP3    H166838   5.789   0.787  15.399
15141TIP3    H266839   5.735   0.816  15.537
15142TIP3   OH266840   0.491   2.593   4.351
15142TIP3    H166841   0.566   2.643   4.321
15142TIP3    H266842   0.517   2.502   4.344
15143TIP3   OH266843   4.664   2.811  13.662
15143TIP3    H166844   4.745   2.813  13.610
15143TIP3    H266845   4.683   2.865  13.739
15144TIP3   OH266846   2.067   0.423  14.522
15144TIP3    H166847   2.135   0.488  14.506
15144TIP3    H266848   2.107   0.360  14.582
15145TIP3   OH266849   5.389   5.035  12.957
15145TIP3    H166850   5.369   5.100  13.024
15145TIP3    H266851   5.474   5.060  12.922
15146TIP3   OH266852   1.332   6.708   5.867
15146TIP3    H166853   1.267   6.719   5.798
15146TIP3    H266854   1.416   6.707   5.821
15147TIP3   OH266855   6.461   3.778  11.577
15147TIP3    H166856   6.514   3.801  11.500
15147TIP3    H266857   6.484   3.687  11.595
15148TIP3   OH266858   6.503   3.773   2.645
15148TIP3    H166859   6.422   3.725   2.663
15148TIP3    H266860   6.549   3.720   2.580
15149TIP3   OH266861   4.435   4.923   0.022
15149TIP3    H166862   4.381   4.998   0.044
15149TIP3    H266863   4.461   4.938  -0.069
15150TIP3   OH266864   1.170   1.441  11.236
15150TIP3    H166865   1.232   1.397  11.179
15150TIP3    H266866   1.126   1.505  11.180
15151TIP3   OH266867   1.955   1.766   4.818
15151TIP3    H166868   1.914   1.697   4.766
15151TIP3    H266869   1.882   1.810   4.861
15152TIP3   OH266870   5.591   5.988  14.887
15152TIP3    H166871   5.579   5.909  14.835
15152TIP3    H266872   5.679   6.018  14.867
15153TIP3   OH266873   0.298   6.208   4.635
15153TIP3    H166874   0.323   6.218   4.726
15153TIP3    H266875   0.224   6.269   4.623
15154TIP3   OH266876   0.379   1.633  16.982
15154TIP3    H166877   0.372   1.559  16.922
15154TIP3    H266878   0.461   1.618  17.029
15155TIP3   OH266879   4.339   3.970   6.724
15155TIP3    H166880   4.425   3.930   6.734
15155TIP3    H266881   4.317   3.955   6.632
15156TIP3   OH266882   3.844   4.418   0.447
15156TIP3    H166883   3.831   4.467   0.366
15156TIP3    H266884   3.788   4.461   0.511
15157TIP3   OH266885   4.562   4.417   1.496
15157TIP3    H166886   4.652   4.443   1.477
15157TIP3    H266887   4.510   4.496   1.482
15158TIP3   OH266888   1.855   3.182   2.853
15158TIP3    H166889   1.814   3.116   2.798
15158TIP3    H266890   1.925   3.135   2.899
15159TIP3   OH266891   4.628   2.067   5.459
15159TIP3    H166892   4.712   2.106   5.437
15159TIP3    H266893   4.633   2.049   5.553
15160TIP3   OH266894   4.258   2.411  15.550
15160TIP3    H166895   4.227   2.469  15.620
15160TIP3    H266896   4.341   2.377  15.584
15161TIP3   OH266897   5.757   2.115  16.917
15161TIP3    H166898   5.760   2.031  16.964
15161TIP3    H266899   5.686   2.163  16.961
15162TIP3   OH266900   4.528   2.698  14.091
15162TIP3    H166901   4.593   2.769  14.089
15162TIP3    H266902   4.581   2.619  14.097
15163TIP3   OH266903   3.458   4.777  16.618
15163TIP3    H166904   3.382   4.721  16.606
15163TIP3    H266905   3.523   4.721  16.662
15164TIP3   OH266906   4.782   3.839  15.624
15164TIP3    H166907   4.749   3.752  15.645
15164TIP3    H266908   4.867   3.844  15.668
15165TIP3   OH266909   6.427   4.817   1.109
15165TIP3    H166910   6.386   4.846   1.028
15165TIP3    H266911   6.520   4.810   1.087
15166TIP3   OH266912   3.581   2.042   5.140
15166TIP3    H166913   3.526   2.049   5.218
15166TIP3    H266914   3.612   1.952   5.141
15167TIP3   OH266915   2.394   2.199   1.565
15167TIP3    H166916   2.300   2.211   1.579
15167TIP3    H266917   2.433   2.219   1.650
15168TIP3   OH266918   0.796   4.265  16.146
15168TIP3    H166919   0.883   4.249  16.182
15168TIP3    H266920   0.811   4.307  16.062
15169TIP3   OH266921   1.389   4.519  15.730
15169TIP3    H166922   1.388   4.591  15.667
15169TIP3    H266923   1.397   4.562  15.815
15170TIP3   OH266924   1.313   5.635   6.122
15170TIP3    H166925   1.367   5.703   6.162
15170TIP3    H266926   1.289   5.671   6.037
15171TIP3   OH266927   5.555   2.255  17.075
15171TIP3    H166928   5.591   2.334  17.033
15171TIP3    H266929   5.513   2.287  17.155
15172TIP3   OH266930   1.443   3.166  12.161
15172TIP3    H166931   1.348   3.177  12.154
15172TIP3    H266932   1.462   3.176  12.254
15173TIP3   OH266933   6.512   2.473   6.046
15173TIP3    H166934   6.454   2.547   6.029
15173TIP3    H266935   6.457   2.396   6.035
15174TIP3   OH266936   3.880   5.370  15.666
15174TIP3    H166937   3.963   5.349  15.708
15174TIP3    H266938   3.891   5.459  15.633
15175TIP3   OH266939   1.730   3.223   0.750
15175TIP3    H166940   1.792   3.295   0.747
15175TIP3    H266941   1.781   3.148   0.781
15176TIP3   OH266942   6.464   0.190   1.664
15176TIP3    H166943   6.403   0.263   1.660
15176TIP3    H266944   6.551   0.231   1.674
15177TIP3   OH266945   4.227   3.257   1.568
15177TIP3    H166946   4.213   3.169   1.603
15177TIP3    H266947   4.235   3.313   1.645
15178TIP3   OH266948   6.420   3.939   3.390
15178TIP3    H166949   6.485   3.932   3.460
15178TIP3    H266950   6.348   3.884   3.419
15179TIP3   OH266951   5.939   0.794   4.297
15179TIP3    H166952   5.912   0.869   4.350
15179TIP3    H266953   5.863   0.736   4.297
15180TIP3   OH266954   3.787   0.545  10.692
15180TIP3    H166955   3.809   0.636  10.674
15180TIP3    H266956   3.815   0.531  10.782
15181TIP3   OH266957   2.073   1.468  12.248
15181TIP3    H166958   2.123   1.534  12.201
15181TIP3    H266959   1.993   1.512  12.274
15182TIP3   OH266960   6.017   5.582   4.866
15182TIP3    H166961   6.016   5.487   4.878
15182TIP3    H266962   6.025   5.594   4.772
15183TIP3   OH266963   1.410   3.393  13.335
15183TIP3    H166964   1.405   3.474  13.385
15183TIP3    H266965   1.432   3.326  13.399
15184TIP3   OH266966   5.322   1.528   1.962
15184TIP3    H166967   5.375   1.585   2.017
15184TIP3    H266968   5.385   1.481   1.908
15185TIP3   OH266969   3.392   1.400   4.255
15185TIP3    H166970   3.367   1.360   4.338
15185TIP3    H266971   3.449   1.335   4.213
15186TIP3   OH266972   1.083   4.926   0.597
15186TIP3    H166973   1.120   4.840   0.574
15186TIP3    H266974   1.066   4.920   0.691
15187TIP3   OH266975   6.658   3.075  12.504
15187TIP3    H166976   6.652   3.106  12.413
15187TIP3    H266977   6.582   3.018  12.514
15188TIP3   OH266978   0.286   6.745   3.667
15188TIP3    H166979   0.256   6.809   3.731
15188TIP3    H266980   0.225   6.754   3.593
15189TIP3   OH266981   2.950   2.942  10.953
15189TIP3    H166982   3.043   2.935  10.931
15189TIP3    H266983   2.922   3.025  10.915
15190TIP3   OH266984   6.309   4.332  12.224
15190TIP3    H166985   6.383   4.302  12.277
15190TIP3    H266986   6.339   4.414  12.185
15191TIP3   OH266987   0.277   3.022   0.513
15191TIP3    H166988   0.252   3.114   0.524
15191TIP3    H266989   0.372   3.022   0.522
15192TIP3   OH266990   0.861   6.599   0.448
15192TIP3    H166991   0.823   6.648   0.374
15192TIP3    H266992   0.848   6.507   0.425
15193TIP3   OH266993   6.332   4.711   6.487
15193TIP3    H166994   6.385   4.660   6.425
15193TIP3    H266995   6.325   4.798   6.445
15194TIP3   OH266996   0.482   6.592  13.494
15194TIP3    H166997   0.430   6.590  13.574
15194TIP3    H266998   0.427   6.639  13.431
15195TIP3   OH266999   3.482   3.855  17.075
15195TIP3    H167000   3.408   3.889  17.125
15195TIP3    H267001   3.542   3.929  17.066
15196TIP3   OH267002   1.179   5.705  11.765
15196TIP3    H167003   1.215   5.701  11.854
15196TIP3    H267004   1.249   5.745  11.713
15197TIP3   OH267005   3.858   2.401  15.299
15197TIP3    H167006   3.770   2.414  15.335
15197TIP3    H267007   3.910   2.372  15.373
15198TIP3   OH267008   3.316   4.246  14.849
15198TIP3    H167009   3.343   4.331  14.884
15198TIP3    H267010   3.331   4.185  14.922
15199TIP3   OH267011   2.653   3.975   5.300
15199TIP3    H167012   2.742   3.994   5.330
15199TIP3    H267013   2.665   3.932   5.215
15200TIP3   OH267014   2.744   2.288   3.428
15200TIP3    H167015   2.813   2.256   3.486
15200TIP3    H267016   2.663   2.259   3.469
15201TIP3   OH267017   6.455   4.916  16.552
15201TIP3    H167018   6.390   4.846  16.543
15201TIP3    H267019   6.536   4.870  16.575
15202TIP3   OH267020   2.789   6.642   5.076
15202TIP3    H167021   2.861   6.640   5.138
15202TIP3    H267022   2.736   6.717   5.102
15203TIP3   OH267023   5.784   2.994  13.477
15203TIP3    H167024   5.794   3.042  13.395
15203TIP3    H267025   5.715   3.042  13.524
15204TIP3   OH267026   3.953   5.615  15.357
15204TIP3    H167027   4.024   5.669  15.392
15204TIP3    H267028   3.874   5.667  15.372
15205TIP3   OH267029   2.786   5.591  13.387
15205TIP3    H167030   2.757   5.502  13.366
15205TIP3    H267031   2.839   5.617  13.311
15206TIP3   OH267032   5.347   5.262  13.142
15206TIP3    H167033   5.417   5.325  13.161
15206TIP3    H267034   5.293   5.306  13.077
15207TIP3   OH267035   3.979   6.464  15.132
15207TIP3    H167036   4.017   6.534  15.078
15207TIP3    H267037   3.961   6.394  15.069
15208TIP3   OH267038   4.485   2.258  15.674
15208TIP3    H167039   4.425   2.187  15.653
15208TIP3    H267040   4.459   2.285  15.763
15209TIP3   OH267041   3.857   4.691   5.020
15209TIP3    H167042   3.888   4.758   4.959
15209TIP3    H267043   3.909   4.704   5.099
15210TIP3   OH267044   2.909   2.417   0.473
15210TIP3    H167045   2.971   2.397   0.403
15210TIP3    H267046   2.895   2.512   0.467
15211TIP3   OH267047   6.604   6.638   3.870
15211TIP3    H167048   6.685   6.672   3.909
15211TIP3    H267049   6.618   6.544   3.865
15212TIP3   OH267050   4.753   1.328  16.133
15212TIP3    H167051   4.802   1.246  16.139
15212TIP3    H267052   4.681   1.309  16.074
15213TIP3   OH267053   0.890   4.775   1.349
15213TIP3    H167054   0.914   4.707   1.286
15213TIP3    H267055   0.856   4.846   1.295
15214TIP3   OH267056   2.070   2.262  16.041
15214TIP3    H167057   1.977   2.243  16.027
15214TIP3    H267058   2.079   2.269  16.136
15215TIP3   OH267059   1.181   6.251   5.629
15215TIP3    H167060   1.153   6.301   5.552
15215TIP3    H267061   1.176   6.159   5.601
15216TIP3   OH267062   3.690   5.710   4.068
15216TIP3    H167063   3.666   5.802   4.060
15216TIP3    H267064   3.627   5.675   4.132
15217TIP3   OH267065   5.769   1.011  11.750
15217TIP3    H167066   5.731   1.094  11.778
15217TIP3    H267067   5.721   0.945  11.800
15218TIP3   OH267068   0.525   1.928   2.428
15218TIP3    H167069   0.432   1.938   2.408
15218TIP3    H267070   0.565   1.908   2.344
15219TIP3   OH267071   4.526   4.930  16.976
15219TIP3    H167072   4.581   4.895  16.906
15219TIP3    H267073   4.481   5.005  16.937
15220TIP3   OH267074   5.243   1.578  14.829
15220TIP3    H167075   5.155   1.544  14.844
15220TIP3    H267076   5.301   1.505  14.852
15221TIP3   OH267077   1.250   5.401   4.514
15221TIP3    H167078   1.342   5.384   4.536
15221TIP3    H267079   1.252   5.481   4.461
15222TIP3   OH267080   4.142   0.350  14.320
15222TIP3    H167081   4.122   0.431  14.368
15222TIP3    H267082   4.117   0.280  14.380
15223TIP3   OH267083   2.438   3.573  16.943
15223TIP3    H167084   2.423   3.664  16.972
15223TIP3    H267085   2.383   3.521  17.001
15224TIP3   OH267086   0.304   4.507   5.322
15224TIP3    H167087   0.396   4.498   5.348
15224TIP3    H267088   0.305   4.573   5.253
15225TIP3   OH267089   0.007   1.128   0.490
15225TIP3    H167090  -0.022   1.037   0.494
15225TIP3    H267091  -0.010   1.155   0.400
15226TIP3   OH267092   5.013   0.694  10.658
15226TIP3    H167093   5.107   0.699  10.640
15226TIP3    H267094   4.990   0.783  10.684
15227TIP3   OH267095   3.667   4.271  16.565
15227TIP3    H167096   3.714   4.219  16.500
15227TIP3    H267097   3.716   4.353  16.570
15228TIP3   OH267098   4.533   0.320  16.033
15228TIP3    H167099   4.459   0.381  16.035
15228TIP3    H267100   4.608   0.373  16.059
15229TIP3   OH267101   1.860   2.191  13.101
15229TIP3    H167102   1.872   2.104  13.061
15229TIP3    H267103   1.910   2.187  13.182
15230TIP3   OH267104   2.094   5.415   3.392
15230TIP3    H167105   2.076   5.486   3.454
15230TIP3    H267106   2.119   5.461   3.312
15231TIP3   OH267107   5.724   6.688   5.656
15231TIP3    H167108   5.784   6.613   5.663
15231TIP3    H267109   5.782   6.764   5.659
15232TIP3   OH267110   0.349   4.474   1.418
15232TIP3    H167111   0.372   4.404   1.479
15232TIP3    H267112   0.352   4.554   1.471
15233TIP3   OH267113   2.262   0.254   1.496
15233TIP3    H167114   2.319   0.202   1.553
15233TIP3    H267115   2.286   0.345   1.514
15234TIP3   OH267116   6.007   0.107   5.063
15234TIP3    H167117   5.939   0.139   5.004
15234TIP3    H267118   6.053   0.039   5.012
15235TIP3   OH267119   1.924   1.944  13.304
15235TIP3    H167120   1.990   1.934  13.235
15235TIP3    H267121   1.972   1.928  13.386
15236TIP3   OH267122   5.849   3.751   5.908
15236TIP3    H167123   5.866   3.841   5.937
15236TIP3    H267124   5.762   3.731   5.943
15237TIP3   OH267125   3.549   5.246  12.617
15237TIP3    H167126   3.601   5.189  12.561
15237TIP3    H267127   3.609   5.272  12.687
15238TIP3   OH267128   0.452   1.193   0.464
15238TIP3    H167129   0.496   1.112   0.440
15238TIP3    H267130   0.496   1.261   0.412
15239TIP3   OH267131   1.586   6.411   2.821
15239TIP3    H167132   1.677   6.440   2.810
15239TIP3    H267133   1.576   6.340   2.758
15240TIP3   OH267134   3.263   0.432   4.657
15240TIP3    H167135   3.265   0.336   4.658
15240TIP3    H267136   3.176   0.455   4.691
15241TIP3   OH267137   2.568   0.408   2.668
15241TIP3    H167138   2.522   0.403   2.751
15241TIP3    H267139   2.595   0.500   2.661
15242TIP3   OH267140   6.445   1.851  17.175
15242TIP3    H167141   6.451   1.932  17.125
15242TIP3    H267142   6.463   1.878  17.266
15243TIP3   OH267143   1.303   6.178  11.171
15243TIP3    H167144   1.309   6.126  11.091
15243TIP3    H267145   1.225   6.233  11.157
15244TIP3   OH267146   3.240   1.531   4.652
15244TIP3    H167147   3.328   1.510   4.621
15244TIP3    H267148   3.216   1.458   4.709
15245TIP3   OH267149   5.569   3.917   2.762
15245TIP3    H167150   5.582   3.900   2.669
15245TIP3    H267151   5.614   3.845   2.806
15246TIP3   OH267152   6.333   2.907  12.015
15246TIP3    H167153   6.242   2.924  11.992
15246TIP3    H267154   6.351   2.819  11.981
15247TIP3   OH267155   6.100   5.252   3.577
15247TIP3    H167156   6.014   5.235   3.614
15247TIP3    H267157   6.150   5.290   3.649
15248TIP3   OH267158   3.626   2.620   2.138
15248TIP3    H167159   3.571   2.696   2.119
15248TIP3    H267160   3.676   2.645   2.216
15249TIP3   OH267161   0.923   5.532  11.886
15249TIP3    H167162   0.868   5.549  11.962
15249TIP3    H267163   1.008   5.508  11.923
15250TIP3   OH267164   2.837   4.818  16.664
15250TIP3    H167165   2.897   4.851  16.598
15250TIP3    H267166   2.753   4.811  16.619
15251TIP3   OH267167   2.170   3.625  15.760
15251TIP3    H167168   2.152   3.537  15.727
15251TIP3    H267169   2.092   3.676  15.737
15252TIP3   OH267170   2.100   3.624   5.005
15252TIP3    H167171   2.195   3.621   4.994
15252TIP3    H267172   2.066   3.588   4.923
15253TIP3   OH267173   0.869   2.558   2.321
15253TIP3    H167174   0.797   2.496   2.334
15253TIP3    H267175   0.897   2.581   2.410
15254TIP3   OH267176   4.493   0.516  13.618
15254TIP3    H167177   4.467   0.605  13.644
15254TIP3    H267178   4.440   0.459  13.673
15255TIP3   OH267179   0.635   0.471   0.955
15255TIP3    H167180   0.629   0.384   0.993
15255TIP3    H267181   0.688   0.459   0.875
15256TIP3   OH267182   3.924   3.545   4.826
15256TIP3    H167183   3.987   3.513   4.890
15256TIP3    H267184   3.962   3.626   4.793
15257TIP3   OH267185   0.553   3.030   0.532
15257TIP3    H167186   0.601   2.963   0.581
15257TIP3    H267187   0.620   3.091   0.502
15258TIP3   OH267188   2.553   0.679   3.911
15258TIP3    H167189   2.535   0.623   3.986
15258TIP3    H267190   2.491   0.751   3.920
15259TIP3   OH267191   1.562   1.078   1.953
15259TIP3    H167192   1.586   0.992   1.989
15259TIP3    H267193   1.466   1.078   1.955
15260TIP3   OH267194   3.631   4.302   3.486
15260TIP3    H167195   3.570   4.331   3.554
15260TIP3    H267196   3.702   4.366   3.488
15261TIP3   OH267197   6.403   0.678   0.418
15261TIP3    H167198   6.465   0.677   0.345
15261TIP3    H267199   6.335   0.615   0.392
15262TIP3   OH267200   4.065   1.045   0.479
15262TIP3    H167201   4.018   1.095   0.546
15262TIP3    H267202   4.150   1.027   0.518
15263TIP3   OH267203   5.343   2.692  14.754
15263TIP3    H167204   5.277   2.761  14.751
15263TIP3    H267205   5.296   2.612  14.732
15264TIP3   OH267206   6.125   4.134  13.523
15264TIP3    H167207   6.210   4.177  13.521
15264TIP3    H267208   6.106   4.115  13.431
15265TIP3   OH267209   5.441   1.383  14.917
15265TIP3    H167210   5.444   1.322  14.843
15265TIP3    H267211   5.522   1.433  14.909
15266TIP3   OH267212   0.725   6.506  15.992
15266TIP3    H167213   0.801   6.555  16.024
15266TIP3    H267214   0.669   6.496  16.069
15267TIP3   OH267215   3.636   1.127  15.945
15267TIP3    H167216   3.610   1.043  15.983
15267TIP3    H267217   3.732   1.125  15.947
15268TIP3   OH267218   5.750   0.233  15.660
15268TIP3    H167219   5.770   0.300  15.595
15268TIP3    H267220   5.835   0.200  15.689
15269TIP3   OH267221   4.034   1.179  16.689
15269TIP3    H167222   4.075   1.252  16.736
15269TIP3    H267223   4.010   1.117  16.757
15270TIP3   OH267224   4.477   1.234  11.532
15270TIP3    H167225   4.406   1.184  11.491
15270TIP3    H267226   4.434   1.282  11.603
15271TIP3   OH267227   1.275   4.067  16.283
15271TIP3    H167228   1.329   4.137  16.320
15271TIP3    H267229   1.338   3.998  16.262
15272TIP3   OH267230   2.633   5.658   5.161
15272TIP3    H167231   2.585   5.609   5.228
15272TIP3    H267232   2.722   5.622   5.163
15273TIP3   OH267233   2.943   5.420   5.041
15273TIP3    H167234   2.897   5.452   4.963
15273TIP3    H267235   3.027   5.389   5.007
15274TIP3   OH267236   4.168   1.674  13.915
15274TIP3    H167237   4.162   1.673  13.819
15274TIP3    H267238   4.108   1.744  13.942
15275TIP3   OH267239   1.561   1.425  11.993
15275TIP3    H167240   1.593   1.348  11.945
15275TIP3    H267241   1.466   1.421  11.983
15276TIP3   OH267242   5.878   6.148   5.214
15276TIP3    H167243   5.806   6.122   5.155
15276TIP3    H267244   5.916   6.065   5.243
15277TIP3   OH267245   1.359   4.604  13.214
15277TIP3    H167246   1.360   4.669  13.285
15277TIP3    H267247   1.276   4.619  13.169
15278TIP3   OH267248   2.651   0.656  14.497
15278TIP3    H167249   2.592   0.683  14.568
15278TIP3    H267250   2.676   0.737  14.455
15279TIP3   OH267251   4.463   4.620  13.137
15279TIP3    H167252   4.508   4.580  13.211
15279TIP3    H267253   4.533   4.650  13.079
15280TIP3   OH267254   2.474   4.526  13.105
15280TIP3    H167255   2.399   4.528  13.046
15280TIP3    H267256   2.476   4.437  13.139
15281TIP3   OH267257   0.531   2.443  15.876
15281TIP3    H167258   0.508   2.377  15.810
15281TIP3    H267259   0.519   2.526  15.831
15282TIP3   OH267260   6.409   6.212   5.000
15282TIP3    H167261   6.408   6.129   5.048
15282TIP3    H267262   6.331   6.257   5.031
15283TIP3   OH267263   1.234   2.010   1.992
15283TIP3    H167264   1.156   2.021   1.938
15283TIP3    H267265   1.300   2.065   1.950
15284TIP3   OH267266   5.729   4.255  13.270
15284TIP3    H167267   5.799   4.268  13.334
15284TIP3    H267268   5.649   4.256  13.323
15285TIP3   OH267269   0.590   3.943   5.084
15285TIP3    H167270   0.589   4.008   5.014
15285TIP3    H267271   0.531   3.874   5.053
15286TIP3   OH267272   0.110   3.962  10.983
15286TIP3    H167273   0.184   3.904  10.969
15286TIP3    H267274   0.037   3.919  10.939
15287TIP3   OH267275   0.019   4.497   6.123
15287TIP3    H167276  -0.058   4.513   6.070
15287TIP3    H267277   0.004   4.545   6.204
15288TIP3   OH267278   3.240   1.684  11.958
15288TIP3    H167279   3.149   1.654  11.953
15288TIP3    H267280   3.233   1.777  11.981
15289TIP3   OH267281   2.750   3.555  17.214
15289TIP3    H167282   2.815   3.492  17.246
15289TIP3    H267283   2.669   3.531  17.259
15290TIP3   OH267284   5.912   1.852  12.452
15290TIP3    H167285   5.882   1.899  12.374
15290TIP3    H267286   5.992   1.898  12.479
15291TIP3   OH267287   3.041   0.993   2.450
15291TIP3    H167288   3.030   1.084   2.476
15291TIP3    H267289   3.117   0.994   2.391
15292TIP3   OH267290   4.535   5.712   0.572
15292TIP3    H167291   4.505   5.762   0.648
15292TIP3    H267292   4.523   5.620   0.597
15293TIP3   OH267293   6.570   4.574  15.722
15293TIP3    H167294   6.478   4.594  15.704
15293TIP3    H267295   6.570   4.483  15.750
15294TIP3   OH267296   0.159   6.297   2.175
15294TIP3    H167297   0.148   6.367   2.110
15294TIP3    H267298   0.140   6.216   2.128
15295TIP3   OH267299   5.603   4.877  14.922
15295TIP3    H167300   5.648   4.839  14.846
15295TIP3    H267301   5.674   4.902  14.981
15296TIP3   OH267302   3.654   2.825  16.536
15296TIP3    H167303   3.727   2.787  16.584
15296TIP3    H267304   3.585   2.759  16.539
15297TIP3   OH267305   4.555   5.552   1.003
15297TIP3    H167306   4.560   5.590   1.091
15297TIP3    H267307   4.484   5.487   1.009
15298TIP3   OH267308   4.379   3.891   4.330
15298TIP3    H167309   4.382   3.842   4.412
15298TIP3    H267310   4.318   3.963   4.347
15299TIP3   OH267311   5.384   4.232  10.978
15299TIP3    H167312   5.360   4.234  11.071
15299TIP3    H267313   5.455   4.297  10.971
15300TIP3   OH267314   1.195   1.031   0.004
15300TIP3    H167315   1.264   1.091   0.032
15300TIP3    H267316   1.228   0.944   0.027
15301TIP3   OH267317   5.787   4.099   2.185
15301TIP3    H167318   5.841   4.043   2.129
15301TIP3    H267319   5.829   4.094   2.271
15302TIP3   OH267320   5.455   2.353   0.087
15302TIP3    H167321   5.371   2.313   0.107
15302TIP3    H267322   5.434   2.444   0.066
15303TIP3   OH267323   5.046   4.895   2.016
15303TIP3    H167324   5.085   4.982   2.012
15303TIP3    H267325   4.970   4.905   2.074
15304TIP3   OH267326   1.665   1.937   1.004
15304TIP3    H167327   1.620   1.913   1.085
15304TIP3    H267328   1.597   1.975   0.949
15305TIP3   OH267329   2.773   1.606  16.299
15305TIP3    H167330   2.725   1.563  16.228
15305TIP3    H267331   2.783   1.538  16.366
15306TIP3   OH267332   5.693   4.207  12.866
15306TIP3    H167333   5.766   4.248  12.820
15306TIP3    H267334   5.617   4.261  12.842
15307TIP3   OH267335   5.441   6.271   2.805
15307TIP3    H167336   5.519   6.306   2.848
15307TIP3    H267337   5.474   6.205   2.744
15308TIP3   OH267338   1.509   6.438   1.136
15308TIP3    H167339   1.414   6.432   1.148
15308TIP3    H267340   1.543   6.355   1.168
15309TIP3   OH267341   5.113   2.065   1.264
15309TIP3    H167342   5.081   1.975   1.266
15309TIP3    H267343   5.184   2.064   1.200
15310TIP3   OH267344   0.711   4.532   1.549
15310TIP3    H167345   0.646   4.568   1.488
15310TIP3    H267346   0.792   4.529   1.499
15311TIP3   OH267347   2.881   4.981  16.102
15311TIP3    H167348   2.904   5.073  16.108
15311TIP3    H267349   2.965   4.936  16.089
15312TIP3   OH267350   1.745   1.845   3.225
15312TIP3    H167351   1.731   1.770   3.283
15312TIP3    H267352   1.752   1.807   3.138
15313TIP3   OH267353   5.782   0.460  13.609
15313TIP3    H167354   5.709   0.407  13.639
15313TIP3    H267355   5.856   0.431  13.662
15314TIP3   OH267356   1.159   6.708  12.742
15314TIP3    H167357   1.156   6.798  12.774
15314TIP3    H267358   1.085   6.664  12.784
15315TIP3   OH267359   3.119   2.780  14.120
15315TIP3    H167360   3.068   2.733  14.186
15315TIP3    H267361   3.132   2.715  14.051
15316TIP3   OH267362   4.159   0.333  11.610
15316TIP3    H167363   4.216   0.409  11.623
15316TIP3    H267364   4.147   0.297  11.698
15317TIP3   OH267365   0.050   0.521   3.017
15317TIP3    H167366  -0.007   0.467   3.073
15317TIP3    H267367   0.033   0.611   3.046
15318TIP3   OH267368   3.011   6.388   2.858
15318TIP3    H167369   3.089   6.435   2.886
15318TIP3    H267370   3.021   6.300   2.895
15319TIP3   OH267371   0.202   3.297   0.517
15319TIP3    H167372   0.107   3.303   0.521
15319TIP3    H267373   0.228   3.367   0.458
15320TIP3   OH267374   1.373   4.613   2.631
15320TIP3    H167375   1.399   4.637   2.542
15320TIP3    H267376   1.337   4.694   2.668
15321TIP3   OH267377   2.045   3.842  12.104
15321TIP3    H167378   1.951   3.826  12.099
15321TIP3    H267379   2.061   3.861  12.196
15322TIP3   OH267380   5.119   4.562  15.721
15322TIP3    H167381   5.101   4.468  15.722
15322TIP3    H267382   5.203   4.570  15.675
15323TIP3   OH267383   2.384   0.578   5.880
15323TIP3    H167384   2.313   0.603   5.822
15323TIP3    H267385   2.411   0.491   5.850
15324TIP3   OH267386   0.827   3.549   3.644
15324TIP3    H167387   0.792   3.619   3.698
15324TIP3    H267388   0.846   3.478   3.706
15325TIP3   OH267389   6.004   0.440  13.758
15325TIP3    H167390   6.057   0.443  13.837
15325TIP3    H267391   6.040   0.507  13.701
15326TIP3   OH267392   0.854   5.157  15.268
15326TIP3    H167393   0.780   5.118  15.316
15326TIP3    H267394   0.821   5.170  15.180
15327TIP3   OH267395   1.835   5.251  17.226
15327TIP3    H167396   1.848   5.315  17.156
15327TIP3    H267397   1.801   5.173  17.182
15328TIP3   OH267398   6.560   5.751  12.253
15328TIP3    H167399   6.568   5.743  12.348
15328TIP3    H267400   6.466   5.751  12.236
15329TIP3   OH267401   1.890   3.837   0.086
15329TIP3    H167402   1.861   3.767   0.027
15329TIP3    H267403   1.822   3.840   0.153
15330TIP3   OH267404   0.429   4.407  15.451
15330TIP3    H167405   0.509   4.370  15.486
15330TIP3    H267406   0.371   4.332  15.436
15331TIP3   OH267407   1.107   0.865   2.545
15331TIP3    H167408   1.054   0.876   2.624
15331TIP3    H267409   1.046   0.878   2.473
15332TIP3   OH267410   1.158   4.700  16.293
15332TIP3    H167411   1.067   4.678  16.272
15332TIP3    H267412   1.188   4.753  16.220
15333TIP3   OH267413   5.912   1.464   0.811
15333TIP3    H167414   6.006   1.480   0.815
15333TIP3    H267415   5.873   1.552   0.815
15334TIP3   OH267416   0.785   2.085  15.494
15334TIP3    H167417   0.740   2.089  15.409
15334TIP3    H267418   0.838   2.164  15.497
15335TIP3   OH267419   0.652   1.381   2.069
15335TIP3    H167420   0.634   1.453   2.130
15335TIP3    H267421   0.681   1.424   1.989
15336TIP3   OH267422   1.387   3.498   5.886
15336TIP3    H167423   1.418   3.588   5.883
15336TIP3    H267424   1.457   3.450   5.931
15337TIP3   OH267425   3.600   6.451  12.421
15337TIP3    H167426   3.627   6.365  12.454
15337TIP3    H267427   3.682   6.496  12.404
15338TIP3   OH267428   0.245   4.314  13.602
15338TIP3    H167429   0.281   4.227  13.585
15338TIP3    H267430   0.158   4.312  13.562
15339TIP3   OH267431   6.450   0.411   5.566
15339TIP3    H167432   6.542   0.399   5.544
15339TIP3    H267433   6.446   0.403   5.662
15340TIP3   OH267434   4.550   1.404  12.206
15340TIP3    H167435   4.513   1.342  12.268
15340TIP3    H267436   4.642   1.379  12.197
15341TIP3   OH267437   2.992   5.567  16.139
15341TIP3    H167438   2.919   5.521  16.099
15341TIP3    H267439   3.021   5.509  16.210
15342TIP3   OH267440   2.016   0.063   0.033
15342TIP3    H167441   2.106   0.060   0.064
15342TIP3    H267442   1.965   0.093   0.108
15343TIP3   OH267443   4.329   2.574   3.206
15343TIP3    H167444   4.244   2.536   3.183
15343TIP3    H267445   4.393   2.512   3.170
15344TIP3   OH267446   5.435   0.311  16.450
15344TIP3    H167447   5.510   0.261  16.417
15344TIP3    H267448   5.436   0.297  16.544
15345TIP3   OH267449   3.395   2.026   3.888
15345TIP3    H167450   3.472   2.082   3.894
15345TIP3    H267451   3.329   2.079   3.843
15346TIP3   OH267452   5.394   3.143  13.069
15346TIP3    H167453   5.302   3.157  13.091
15346TIP3    H267454   5.441   3.170  13.148
15347TIP3   OH267455   0.651   2.991   6.053
15347TIP3    H167456   0.604   3.061   6.006
15347TIP3    H267457   0.681   2.932   5.983
15348TIP3   OH267458   6.568   3.315   4.445
15348TIP3    H167459   6.601   3.319   4.535
15348TIP3    H267460   6.568   3.222   4.423
15349TIP3   OH267461   5.436   2.645   3.194
15349TIP3    H167462   5.511   2.587   3.204
15349TIP3    H267463   5.376   2.597   3.137
15350TIP3   OH267464   2.742   0.297   4.117
15350TIP3    H167465   2.691   0.346   4.182
15350TIP3    H267466   2.680   0.282   4.045
15351TIP3   OH267467   0.585   0.551  13.439
15351TIP3    H167468   0.538   0.529  13.359
15351TIP3    H267469   0.526   0.523  13.509
15352TIP3   OH267470   4.140   4.618   1.300
15352TIP3    H167471   4.159   4.578   1.215
15352TIP3    H267472   4.194   4.568   1.362
15353TIP3   OH267473   4.920   3.532  13.289
15353TIP3    H167474   4.924   3.608  13.348
15353TIP3    H267475   4.997   3.541  13.233
15354TIP3   OH267476   1.272   6.589   2.327
15354TIP3    H167477   1.277   6.538   2.246
15354TIP3    H267478   1.192   6.559   2.370
15355TIP3   OH267479   2.639   1.638  11.946
15355TIP3    H167480   2.554   1.625  11.903
15355TIP3    H267481   2.702   1.638  11.874
15356TIP3   OH267482   0.989   4.969  12.219
15356TIP3    H167483   0.973   5.044  12.161
15356TIP3    H267484   0.913   4.966  12.276
15357TIP3   OH267485   6.279   3.277   0.752
15357TIP3    H167486   6.196   3.315   0.780
15357TIP3    H267487   6.256   3.188   0.724
15358TIP3   OH267488   2.807   3.004  11.338
15358TIP3    H167489   2.812   2.966  11.250
15358TIP3    H267490   2.897   3.026  11.360
15359TIP3   OH267491   2.077   0.079   4.104
15359TIP3    H167492   2.005   0.125   4.062
15359TIP3    H267493   2.036   0.013   4.160
15360TIP3   OH267494   3.631   1.014   0.911
15360TIP3    H167495   3.547   0.972   0.891
15360TIP3    H267496   3.628   1.097   0.862
15361TIP3   OH267497   3.794   0.800   6.093
15361TIP3    H167498   3.788   0.791   5.998
15361TIP3    H267499   3.772   0.713   6.127
15362TIP3   OH267500   1.427   2.861  15.648
15362TIP3    H167501   1.402   2.923  15.717
15362TIP3    H267502   1.446   2.780  15.695
15363TIP3   OH267503   4.654   1.549  10.465
15363TIP3    H167504   4.592   1.545  10.539
15363TIP3    H267505   4.624   1.481  10.405
15364TIP3   OH267506   1.310   1.508   3.652
15364TIP3    H167507   1.298   1.458   3.571
15364TIP3    H267508   1.352   1.589   3.624
15365TIP3   OH267509   3.922   1.032  11.554
15365TIP3    H167510   3.904   1.113  11.507
15365TIP3    H267511   3.885   1.046  11.641
15366TIP3   OH267512   4.001   3.237  12.571
15366TIP3    H167513   3.929   3.187  12.532
15366TIP3    H267514   4.079   3.204  12.526
15367TIP3   OH267515   6.745   6.277  11.354
15367TIP3    H167516   6.697   6.197  11.337
15367TIP3    H267517   6.681   6.336  11.395
15368TIP3   OH267518   4.224   1.674   0.927
15368TIP3    H167519   4.282   1.607   0.893
15368TIP3    H267520   4.276   1.755   0.924
15369TIP3   OH267521   2.766   5.120   3.646
15369TIP3    H167522   2.814   5.106   3.564
15369TIP3    H267523   2.686   5.165   3.619
15370TIP3   OH267524   3.070   1.633   2.035
15370TIP3    H167525   3.110   1.720   2.036
15370TIP3    H267526   3.073   1.604   2.126
15371TIP3   OH267527   5.156   2.067  12.031
15371TIP3    H167528   5.160   2.113  12.115
15371TIP3    H267529   5.070   2.089  11.995
15372TIP3   OH267530   3.048   0.210  15.424
15372TIP3    H167531   3.025   0.187  15.514
15372TIP3    H267532   3.107   0.140  15.396
15373TIP3   OH267533   3.434   0.520   2.845
15373TIP3    H167534   3.420   0.425   2.844
15373TIP3    H267535   3.432   0.546   2.753
15374TIP3   OH267536   3.910   4.669   3.765
15374TIP3    H167537   3.831   4.723   3.758
15374TIP3    H267538   3.948   4.694   3.850
15375TIP3   OH267539   1.836   3.856   4.386
15375TIP3    H167540   1.916   3.825   4.343
15375TIP3    H267541   1.826   3.800   4.463
15376TIP3   OH267542   0.602   2.282  11.515
15376TIP3    H167543   0.544   2.205  11.515
15376TIP3    H267544   0.669   2.261  11.450
15377TIP3   OH267545   5.977   3.467  15.533
15377TIP3    H167546   5.922   3.542  15.509
15377TIP3    H267547   6.009   3.489  15.621
15378TIP3   OH267548   2.175   1.392   2.283
15378TIP3    H167549   2.253   1.340   2.305
15378TIP3    H267550   2.208   1.481   2.272
15379TIP3   OH267551   5.419   3.202   1.973
15379TIP3    H167552   5.399   3.294   1.959
15379TIP3    H267553   5.362   3.176   2.045
15380TIP3   OH267554   1.230   2.989  13.422
15380TIP3    H167555   1.283   3.012  13.345
15380TIP3    H267556   1.161   2.933  13.388
15381TIP3   OH267557   4.516   0.476   5.722
15381TIP3    H167558   4.469   0.396   5.696
15381TIP3    H267559   4.598   0.444   5.760
15382TIP3   OH267560   6.100   5.363   5.247
15382TIP3    H167561   6.083   5.444   5.296
15382TIP3    H267562   6.094   5.294   5.314
15383TIP3   OH267563   1.081   3.203   5.109
15383TIP3    H167564   1.075   3.290   5.147
15383TIP3    H267565   1.120   3.217   5.023
15384TIP3   OH267566   2.288   1.746  16.387
15384TIP3    H167567   2.229   1.791  16.448
15384TIP3    H267568   2.279   1.793  16.305
15385TIP3   OH267569   1.718   2.669   0.222
15385TIP3    H167570   1.644   2.622   0.183
15385TIP3    H267571   1.739   2.620   0.301
15386TIP3   OH267572   3.145   1.168  15.527
15386TIP3    H167573   3.149   1.171  15.622
15386TIP3    H267574   3.167   1.256  15.498
15387TIP3   OH267575   2.412   2.443   0.171
15387TIP3    H167576   2.371   2.360   0.145
15387TIP3    H267577   2.478   2.418   0.234
15388TIP3   OH267578   3.450   4.627   0.815
15388TIP3    H167579   3.484   4.645   0.903
15388TIP3    H267580   3.523   4.647   0.757
15389TIP3   OH267581   3.118   3.304  13.126
15389TIP3    H167582   3.081   3.313  13.038
15389TIP3    H267583   3.213   3.313  13.112
15390TIP3   OH267584   5.363   5.264  12.530
15390TIP3    H167585   5.444   5.245  12.579
15390TIP3    H267586   5.393   5.287  12.443
15391TIP3   OH267587   3.690   5.930  14.761
15391TIP3    H167588   3.701   5.845  14.803
15391TIP3    H267589   3.773   5.947  14.717
15392TIP3   OH267590   1.163   2.339   4.341
15392TIP3    H167591   1.160   2.270   4.407
15392TIP3    H267592   1.071   2.363   4.327
15393TIP3   OH267593   3.825   0.238   4.426
15393TIP3    H167594   3.850   0.171   4.362
15393TIP3    H267595   3.858   0.204   4.509
15394TIP3   OH267596   3.325   4.379  15.715
15394TIP3    H167597   3.300   4.441  15.783
15394TIP3    H267598   3.397   4.328  15.755
15395TIP3   OH267599   6.057   1.092  14.072
15395TIP3    H167600   5.979   1.147  14.077
15395TIP3    H267601   6.074   1.083  13.978
15396TIP3   OH267602   2.617   1.205   2.526
15396TIP3    H167603   2.534   1.219   2.480
15396TIP3    H267604   2.595   1.148   2.599
15397TIP3   OH267605   5.226   6.291   0.530
15397TIP3    H167606   5.173   6.226   0.577
15397TIP3    H267607   5.275   6.335   0.599
15398TIP3   OH267608   2.600   4.767  16.567
15398TIP3    H167609   2.525   4.814  16.532
15398TIP3    H267610   2.564   4.712  16.637
15399TIP3   OH267611   2.669   0.215   2.471
15399TIP3    H167612   2.765   0.222   2.475
15399TIP3    H267613   2.637   0.293   2.515
15400TIP3   OH267614   0.646   4.078  13.202
15400TIP3    H167615   0.639   4.114  13.291
15400TIP3    H267616   0.709   4.135  13.158
15401TIP3   OH267617   0.331   6.429  13.225
15401TIP3    H167618   0.400   6.376  13.267
15401TIP3    H267619   0.352   6.519  13.249
15402TIP3   OH267620   3.307   5.108   2.033
15402TIP3    H167621   3.227   5.077   1.990
15402TIP3    H267622   3.329   5.188   1.987
15403TIP3   OH267623   6.282   4.977   1.938
15403TIP3    H167624   6.187   4.964   1.935
15403TIP3    H267625   6.314   4.941   1.855
15404TIP3   OH267626   5.709   2.226   2.391
15404TIP3    H167627   5.742   2.308   2.352
15404TIP3    H267628   5.635   2.254   2.446
15405TIP3   OH267629   3.658   4.900   4.279
15405TIP3    H167630   3.685   4.883   4.369
15405TIP3    H267631   3.650   4.996   4.273
15406TIP3   OH267632   1.090   2.679   6.119
15406TIP3    H167633   1.127   2.653   6.203
15406TIP3    H267634   1.048   2.764   6.136
15407TIP3   OH267635   4.173   5.189  14.434
15407TIP3    H167636   4.184   5.153  14.347
15407TIP3    H267637   4.079   5.189  14.450
15408TIP3   OH267638   2.088   1.970   5.086
15408TIP3    H167639   2.071   2.055   5.127
15408TIP3    H267640   2.014   1.915   5.113
15409TIP3   OH267641   0.293   0.771   1.770
15409TIP3    H167642   0.352   0.827   1.822
15409TIP3    H267643   0.244   0.832   1.716
15410TIP3   OH267644   5.784   3.188   5.178
15410TIP3    H167645   5.816   3.248   5.246
15410TIP3    H267646   5.763   3.108   5.225
15411TIP3   OH267647   2.108   3.462  11.906
15411TIP3    H167648   2.045   3.401  11.945
15411TIP3    H267649   2.081   3.469  11.814
15412TIP3   OH267650   5.184   5.267  15.408
15412TIP3    H167651   5.202   5.347  15.358
15412TIP3    H267652   5.262   5.213  15.394
15413TIP3   OH267653   3.118   5.204  13.713
15413TIP3    H167654   3.186   5.270  13.705
15413TIP3    H267655   3.163   5.125  13.742
15414TIP3   OH267656   2.272   3.769   1.682
15414TIP3    H167657   2.304   3.857   1.699
15414TIP3    H267658   2.256   3.767   1.588
15415TIP3   OH267659   6.598   3.498  16.930
15415TIP3    H167660   6.537   3.438  16.972
15415TIP3    H267661   6.683   3.475  16.965
15416TIP3   OH267662   0.810   4.482  13.027
15416TIP3    H167663   0.827   4.399  13.072
15416TIP3    H267664   0.888   4.497  12.974
15417TIP3   OH267665   5.927   6.499   5.665
15417TIP3    H167666   5.924   6.443   5.742
15417TIP3    H267667   5.935   6.437   5.592
15418TIP3   OH267668   4.615   4.890  13.021
15418TIP3    H167669   4.564   4.892  13.101
15418TIP3    H267670   4.556   4.924  12.954
15419TIP3   OH267671   5.719   2.737   5.446
15419TIP3    H167672   5.755   2.678   5.381
15419TIP3    H267673   5.784   2.738   5.516
15420TIP3   OH267674   4.292   6.146  15.617
15420TIP3    H167675   4.339   6.226  15.595
15420TIP3    H267676   4.302   6.137  15.712
15421TIP3   OH267677   2.239   2.713   1.189
15421TIP3    H167678   2.312   2.767   1.217
15421TIP3    H267679   2.168   2.735   1.250
15422TIP3   OH267680   5.467   5.771  14.501
15422TIP3    H167681   5.374   5.793  14.489
15422TIP3    H267682   5.475   5.751  14.594
15423TIP3   OH267683   2.478   5.781  15.118
15423TIP3    H167684   2.452   5.777  15.026
15423TIP3    H267685   2.517   5.868  15.128
15424TIP3   OH267686   5.974   5.137  14.563
15424TIP3    H167687   5.916   5.101  14.630
15424TIP3    H267688   5.927   5.122  14.481
15425TIP3   OH267689   4.532   4.727   3.510
15425TIP3    H167690   4.530   4.654   3.572
15425TIP3    H267691   4.623   4.754   3.507
15426TIP3   OH267692   2.438   2.058  13.037
15426TIP3    H167693   2.525   2.088  13.062
15426TIP3    H267694   2.453   1.978  12.988
15427TIP3   OH267695   3.040   2.647  10.959
15427TIP3    H167696   3.129   2.673  10.937
15427TIP3    H267697   3.034   2.661  11.054
15428TIP3   OH267698   5.248   4.799   5.054
15428TIP3    H167699   5.205   4.762   5.131
15428TIP3    H267700   5.218   4.889   5.050
15429TIP3   OH267701   5.049   6.060   2.174
15429TIP3    H167702   5.094   6.010   2.243
15429TIP3    H267703   5.011   6.134   2.220
15430TIP3   OH267704   1.550   4.485   4.667
15430TIP3    H167705   1.587   4.546   4.603
15430TIP3    H267706   1.562   4.530   4.751
15431TIP3   OH267707   6.539   4.680   0.133
15431TIP3    H167708   6.563   4.597   0.092
15431TIP3    H267709   6.466   4.658   0.191
15432TIP3   OH267710   5.414   1.347   2.600
15432TIP3    H167711   5.405   1.274   2.661
15432TIP3    H267712   5.489   1.324   2.545
15433TIP3   OH267713   6.274   2.692  11.208
15433TIP3    H167714   6.183   2.712  11.231
15433TIP3    H267715   6.271   2.603  11.173
15434TIP3   OH267716   4.550   1.194  14.633
15434TIP3    H167717   4.597   1.176  14.552
15434TIP3    H267718   4.482   1.127  14.637
15435TIP3   OH267719   4.755   0.209   3.701
15435TIP3    H167720   4.747   0.159   3.620
15435TIP3    H267721   4.669   0.248   3.714
15436TIP3   OH267722   1.332   1.020   2.289
15436TIP3    H167723   1.283   0.986   2.364
15436TIP3    H267724   1.396   1.079   2.327
15437TIP3   OH267725   4.957   5.431   4.749
15437TIP3    H167726   4.909   5.351   4.729
15437TIP3    H267727   5.024   5.404   4.812
15438TIP3   OH267728   6.030   2.011   1.453
15438TIP3    H167729   5.960   2.055   1.404
15438TIP3    H267730   6.012   1.917   1.441
15439TIP3   OH267731   0.792   6.560   5.266
15439TIP3    H167732   0.761   6.646   5.294
15439TIP3    H267733   0.815   6.515   5.347
15440TIP3   OH267734   2.799   0.328   4.442
15440TIP3    H167735   2.843   0.246   4.422
15440TIP3    H267736   2.862   0.396   4.416
15441TIP3   OH267737   1.595   6.247  15.342
15441TIP3    H167738   1.688   6.252  15.364
15441TIP3    H267739   1.594   6.214  15.252
15442TIP3   OH267740   4.367   1.082  15.325
15442TIP3    H167741   4.288   1.028  15.330
15442TIP3    H267742   4.346   1.150  15.261
15443TIP3   OH267743   1.355   5.499  15.783
15443TIP3    H167744   1.419   5.501  15.712
15443TIP3    H267745   1.298   5.574  15.765
15444TIP3   OH267746   1.748   6.569  14.793
15444TIP3    H167747   1.751   6.650  14.843
15444TIP3    H267748   1.664   6.529  14.816
15445TIP3   OH267749   1.786   1.222   1.920
15445TIP3    H167750   1.702   1.176   1.916
15445TIP3    H267751   1.779   1.278   1.997
15446TIP3   OH267752   5.567   5.979   0.450
15446TIP3    H167753   5.610   5.907   0.403
15446TIP3    H267754   5.623   6.055   0.433
15447TIP3   OH267755   3.277   2.700  14.640
15447TIP3    H167756   3.217   2.647  14.694
15447TIP3    H267757   3.347   2.725  14.700
15448TIP3   OH267758   1.762   4.954   1.923
15448TIP3    H167759   1.849   4.950   1.964
15448TIP3    H267760   1.775   5.009   1.846
15449TIP3   OH267761   0.592   4.523  11.049
15449TIP3    H167762   0.538   4.468  10.993
15449TIP3    H267763   0.529   4.583  11.090
15450TIP3   OH267764   5.994   1.152   0.961
15450TIP3    H167765   6.058   1.152   0.889
15450TIP3    H267766   5.909   1.165   0.918
15451TIP3   OH267767   3.605   4.354   1.754
15451TIP3    H167768   3.613   4.305   1.672
15451TIP3    H267769   3.658   4.432   1.742
15452TIP3   OH267770   5.274   4.766  15.419
15452TIP3    H167771   5.306   4.848  15.456
15452TIP3    H267772   5.330   4.699  15.458
15453TIP3   OH267773   4.488   0.486  14.929
15453TIP3    H167774   4.416   0.482  14.992
15453TIP3    H267775   4.553   0.542  14.971
15454TIP3   OH267776   6.124   4.011   5.396
15454TIP3    H167777   6.105   4.063   5.474
15454TIP3    H267778   6.198   3.956   5.422
15455TIP3   OH267779   0.693   4.428  11.423
15455TIP3    H167780   0.623   4.442  11.487
15455TIP3    H267781   0.764   4.484  11.452
15456TIP3   OH267782   1.264   1.696   4.701
15456TIP3    H167783   1.226   1.656   4.780
15456TIP3    H267784   1.258   1.790   4.716
15457TIP3   OH267785   3.671   5.413  10.927
15457TIP3    H167786   3.743   5.459  10.883
15457TIP3    H267787   3.708   5.329  10.951
15458TIP3   OH267788   1.178   0.046   2.107
15458TIP3    H167789   1.196   0.128   2.154
15458TIP3    H267790   1.194  -0.023   2.172
15459TIP3   OH267791   3.208   5.350   2.249
15459TIP3    H167792   3.274   5.343   2.180
15459TIP3    H267793   3.190   5.443   2.257
15460TIP3   OH267794   5.056   2.413   1.037
15460TIP3    H167795   4.992   2.368   0.981
15460TIP3    H267796   5.092   2.482   0.981
15461TIP3   OH267797   5.439   2.517   5.308
15461TIP3    H167798   5.362   2.524   5.363
15461TIP3    H267799   5.458   2.423   5.305
15462TIP3   OH267800   6.209   1.307   4.715
15462TIP3    H167801   6.282   1.256   4.681
15462TIP3    H267802   6.211   1.292   4.810
15463TIP3   OH267803   2.091   4.917  11.689
15463TIP3    H167804   2.082   5.003  11.649
15463TIP3    H267805   2.008   4.902  11.734
15464TIP3   OH267806   2.272   6.710  13.988
15464TIP3    H167807   2.326   6.717  14.067
15464TIP3    H267808   2.207   6.779  13.997
15465TIP3   OH267809   3.997   5.412   3.793
15465TIP3    H167810   4.035   5.455   3.716
15465TIP3    H267811   4.065   5.351   3.822
15466TIP3   OH267812   3.050   2.717  15.681
15466TIP3    H167813   3.117   2.691  15.618
15466TIP3    H267814   2.967   2.706  15.634
15467TIP3   OH267815   4.164   6.040   3.913
15467TIP3    H167816   4.238   6.068   3.860
15467TIP3    H267817   4.178   5.947   3.928
15468TIP3   OH267818   1.070   2.504   1.631
15468TIP3    H167819   1.109   2.573   1.577
15468TIP3    H267820   1.050   2.546   1.714
15469TIP3   OH267821   2.931   0.019   4.197
15469TIP3    H167822   2.984  -0.060   4.203
15469TIP3    H267823   2.843  -0.013   4.174
15470TIP3   OH267824   6.611   1.231   6.148
15470TIP3    H167825   6.645   1.188   6.226
15470TIP3    H267826   6.526   1.267   6.176
15471TIP3   OH267827   0.581   4.584  15.272
15471TIP3    H167828   0.497   4.561  15.311
15471TIP3    H267829   0.622   4.500  15.252
15472TIP3   OH267830   4.213   5.638   5.518
15472TIP3    H167831   4.126   5.640   5.558
15472TIP3    H267832   4.196   5.648   5.424
15473TIP3   OH267833   0.139   0.970   3.557
15473TIP3    H167834   0.208   1.034   3.576
15473TIP3    H267835   0.058   1.020   3.566
15474TIP3   OH267836   6.129   3.991  16.387
15474TIP3    H167837   6.142   4.036  16.470
15474TIP3    H267838   6.158   4.053  16.321
15475TIP3   OH267839   6.424   1.288  12.988
15475TIP3    H167840   6.458   1.307  13.076
15475TIP3    H267841   6.371   1.209  13.000
15476TIP3   OH267842   2.824   1.630   5.263
15476TIP3    H167843   2.773   1.685   5.204
15476TIP3    H267844   2.898   1.600   5.210
15477TIP3   OH267845   5.939   3.855   2.263
15477TIP3    H167846   5.912   3.870   2.173
15477TIP3    H267847   5.958   3.762   2.268
15478TIP3   OH267848   3.155   5.321  11.354
15478TIP3    H167849   3.063   5.301  11.373
15478TIP3    H267850   3.204   5.247  11.391
15479TIP3   OH267851   4.961   4.530   2.732
15479TIP3    H167852   4.919   4.491   2.808
15479TIP3    H267853   4.926   4.619   2.728
15480TIP3   OH267854   2.946   3.387   3.774
15480TIP3    H167855   2.929   3.402   3.867
15480TIP3    H267856   3.041   3.378   3.768
15481TIP3   OH267857   1.405   5.981  16.060
15481TIP3    H167858   1.327   5.936  16.025
15481TIP3    H267859   1.404   6.067  16.017
15482TIP3   OH267860   4.658   3.922  12.924
15482TIP3    H167861   4.725   3.854  12.930
15482TIP3    H267862   4.705   4.000  12.894
15483TIP3   OH267863   3.678   2.052  12.875
15483TIP3    H167864   3.591   2.079  12.904
15483TIP3    H267865   3.679   1.957  12.886
15484TIP3   OH267866   1.307   5.710  15.460
15484TIP3    H167867   1.266   5.721  15.373
15484TIP3    H267868   1.234   5.720  15.521
15485TIP3   OH267869   1.516   1.629  13.672
15485TIP3    H167870   1.508   1.534  13.683
15485TIP3    H267871   1.609   1.645  13.659
15486TIP3   OH267872   0.739   4.080   4.567
15486TIP3    H167873   0.701   4.048   4.485
15486TIP3    H267874   0.833   4.081   4.551
15487TIP3   OH267875   3.636   4.261   0.955
15487TIP3    H167876   3.722   4.265   0.913
15487TIP3    H267877   3.655   4.253   1.049
15488TIP3   OH267878   3.676   3.323   1.428
15488TIP3    H167879   3.771   3.333   1.428
15488TIP3    H267880   3.660   3.241   1.475
15489TIP3   OH267881   1.245   3.443  15.332
15489TIP3    H167882   1.333   3.481  15.322
15489TIP3    H267883   1.242   3.372  15.268
15490TIP3   OH267884   0.255   1.601   1.666
15490TIP3    H167885   0.202   1.611   1.746
15490TIP3    H267886   0.345   1.594   1.698
15491TIP3   OH267887   2.956   5.806   5.810
15491TIP3    H167888   2.909   5.791   5.892
15491TIP3    H267889   2.975   5.719   5.776
15492TIP3   OH267890   4.334   4.258   3.313
15492TIP3    H167891   4.241   4.250   3.292
15492TIP3    H267892   4.357   4.173   3.349
15493TIP3   OH267893   2.607   1.705  13.383
15493TIP3    H167894   2.540   1.768  13.355
15493TIP3    H267895   2.579   1.622  13.344
15494TIP3   OH267896   2.250   1.928  12.770
15494TIP3    H167897   2.228   1.909  12.679
15494TIP3    H267898   2.208   2.013  12.787
15495TIP3   OH267899   4.554   3.543  15.159
15495TIP3    H167900   4.536   3.525  15.067
15495TIP3    H267901   4.516   3.630  15.175
15496TIP3   OH267902   3.972   4.816  15.515
15496TIP3    H167903   4.042   4.844  15.573
15496TIP3    H267904   3.900   4.793  15.574
15497TIP3   OH267905   4.858   4.740  11.392
15497TIP3    H167906   4.818   4.774  11.312
15497TIP3    H267907   4.950   4.726  11.368
15498TIP3   OH267908   3.082   1.974   3.682
15498TIP3    H167909   3.158   2.003   3.631
15498TIP3    H267910   3.099   1.881   3.699
15499TIP3   OH267911   4.390   5.027   3.095
15499TIP3    H167912   4.393   5.060   3.185
15499TIP3    H267913   4.443   5.090   3.045
15500TIP3   OH267914   6.455   0.431  14.651
15500TIP3    H167915   6.490   0.361  14.706
15500TIP3    H267916   6.471   0.511  14.700
15501TIP3   OH267917   1.046   5.296   2.962
15501TIP3    H167918   1.102   5.371   2.981
15501TIP3    H267919   1.036   5.252   3.047
15502TIP3   OH267920   6.098   4.397   5.459
15502TIP3    H167921   6.007   4.428   5.463
15502TIP3    H267922   6.094   4.307   5.492
15503TIP3   OH267923   0.554   4.912  12.588
15503TIP3    H167924   0.526   4.957  12.508
15503TIP3    H267925   0.527   4.821  12.575
15504TIP3   OH267926   1.776   2.204  16.081
15504TIP3    H167927   1.732   2.222  15.998
15504TIP3    H267928   1.741   2.270  16.141
15505TIP3   OH267929   2.155   0.676  12.038
15505TIP3    H167930   2.067   0.684  12.076
15505TIP3    H267931   2.214   0.681  12.113
15506TIP3   OH267932   1.762   4.562  14.897
15506TIP3    H167933   1.845   4.544  14.942
15506TIP3    H267934   1.711   4.612  14.961
15507TIP3   OH267935   2.413   3.339  12.497
15507TIP3    H167936   2.374   3.420  12.530
15507TIP3    H267937   2.435   3.290  12.576
15508TIP3   OH267938   1.010   0.989   1.616
15508TIP3    H167939   0.945   0.984   1.686
15508TIP3    H267940   1.007   0.902   1.575
15509TIP3   OH267941   2.732   1.936   6.719
15509TIP3    H167942   2.650   1.893   6.740
15509TIP3    H267943   2.786   1.868   6.679
15510TIP3   OH267944   6.560   2.433  16.436
15510TIP3    H167945   6.639   2.458  16.485
15510TIP3    H267946   6.496   2.412  16.504
15511TIP3   OH267947   1.261   1.376   5.896
15511TIP3    H167948   1.177   1.350   5.934
15511TIP3    H267949   1.324   1.363   5.966
15512TIP3   OH267950   1.946   5.151   5.331
15512TIP3    H167951   2.027   5.193   5.361
15512TIP3    H267952   1.973   5.097   5.257
15513TIP3   OH267953   2.095   1.434  13.564
15513TIP3    H167954   2.023   1.401  13.618
15513TIP3    H267955   2.078   1.528  13.556
15514TIP3   OH267956   3.392   5.500  17.052
15514TIP3    H167957   3.453   5.467  16.985
15514TIP3    H267958   3.376   5.591  17.027
15515TIP3   OH267959   2.532   2.813  10.755
15515TIP3    H167960   2.587   2.880  10.715
15515TIP3    H267961   2.473   2.862  10.812
15516TIP3   OH267962   0.753   6.219  14.911
15516TIP3    H167963   0.715   6.143  14.953
15516TIP3    H267964   0.842   6.192  14.887
15517TIP3   OH267965   3.084   0.902  15.447
15517TIP3    H167966   3.090   0.978  15.505
15517TIP3    H267967   3.103   0.937  15.360
15518TIP3   OH267968   2.760   3.337  15.291
15518TIP3    H167969   2.718   3.403  15.347
15518TIP3    H267970   2.695   3.320  15.223
15519TIP3   OH267971   4.182   3.966   5.250
15519TIP3    H167972   4.268   4.002   5.266
15519TIP3    H267973   4.124   4.014   5.310
15520TIP3   OH267974   1.970   0.746  16.956
15520TIP3    H167975   1.978   0.662  17.002
15520TIP3    H267976   2.060   0.779  16.950
15521TIP3   OH267977   1.409   5.541   2.349
15521TIP3    H167978   1.410   5.457   2.305
15521TIP3    H267979   1.465   5.597   2.296
15522TIP3   OH267980   1.756   2.666   3.217
15522TIP3    H167981   1.840   2.664   3.171
15522TIP3    H267982   1.702   2.727   3.166
15523TIP3   OH267983   6.603   4.649   3.042
15523TIP3    H167984   6.667   4.669   3.110
15523TIP3    H267985   6.648   4.672   2.960
15524TIP3   OH267986   6.529   4.363   5.471
15524TIP3    H167987   6.509   4.363   5.565
15524TIP3    H267988   6.444   4.371   5.428
15525TIP3   OH267989   1.127   5.919   0.746
15525TIP3    H167990   1.202   5.875   0.706
15525TIP3    H267991   1.149   5.924   0.839
15526TIP3   OH267992   1.698   2.722  11.570
15526TIP3    H167993   1.703   2.753  11.660
15526TIP3    H267994   1.651   2.792  11.524
15527TIP3   OH267995   1.373   5.180   2.409
15527TIP3    H167996   1.419   5.153   2.489
15527TIP3    H267997   1.400   5.117   2.343
15528TIP3   OH267998   0.723   0.432  16.356
15528TIP3    H167999   0.720   0.524  16.329
15528TIP3    H268000   0.631   0.409  16.371
15529TIP3   OH268001   1.338   2.999  10.757
15529TIP3    H168002   1.426   3.037  10.754
15529TIP3    H268003   1.279   3.073  10.741
15530TIP3   OH268004   2.398   0.665   5.002
15530TIP3    H168005   2.354   0.731   5.054
15530TIP3    H268006   2.465   0.713   4.953
15531TIP3   OH268007   3.536   3.784  11.074
15531TIP3    H168008   3.445   3.756  11.065
15531TIP3    H268009   3.585   3.702  11.079
15532TIP3   OH268010   2.431   0.955  13.180
15532TIP3    H168011   2.353   0.940  13.126
15532TIP3    H268012   2.408   1.027  13.237
15533TIP3   OH268013   5.167   0.161  13.302
15533TIP3    H168014   5.254   0.128  13.324
15533TIP3    H268015   5.174   0.185  13.209
15534TIP3   OH268016   2.708   4.487  16.428
15534TIP3    H168017   2.709   4.514  16.520
15534TIP3    H268018   2.797   4.454  16.413
15535TIP3   OH268019   0.007   2.187  16.459
15535TIP3    H168020  -0.037   2.214  16.540
15535TIP3    H268021  -0.009   2.259  16.398
15536TIP3   OH268022   2.372   6.463  13.489
15536TIP3    H168023   2.367   6.425  13.576
15536TIP3    H268024   2.297   6.523  13.485
15537TIP3   OH268025   1.000   1.218  15.104
15537TIP3    H168026   1.052   1.156  15.155
15537TIP3    H268027   1.000   1.298  15.156
15538TIP3   OH268028   1.084   2.262  14.618
15538TIP3    H168029   1.056   2.190  14.562
15538TIP3    H268030   1.149   2.223  14.676
15539TIP3   OH268031   6.333   4.894  11.278
15539TIP3    H168032   6.429   4.897  11.268
15539TIP3    H268033   6.315   4.949  11.354
15540TIP3   OH268034   0.347   3.515   0.899
15540TIP3    H168035   0.375   3.531   0.810
15540TIP3    H268036   0.409   3.564   0.954
15541TIP3   OH268037   4.176   3.040  13.954
15541TIP3    H168038   4.205   3.010  14.040
15541TIP3    H268039   4.256   3.041  13.900
15542TIP3   OH268040   5.452   0.099  13.393
15542TIP3    H168041   5.546   0.118  13.394
15542TIP3    H268042   5.433   0.065  13.480
15543TIP3   OH268043   2.894   4.998  11.342
15543TIP3    H168044   2.978   4.971  11.304
15543TIP3    H268045   2.847   4.916  11.358
15544TIP3   OH268046   5.222   4.102   0.752
15544TIP3    H168047   5.291   4.110   0.818
15544TIP3    H268048   5.267   4.114   0.669
15545TIP3   OH268049   1.135   0.253  11.442
15545TIP3    H168050   1.047   0.236  11.473
15545TIP3    H268051   1.186   0.177  11.470
15546TIP3   OH268052   5.776   3.896   0.096
15546TIP3    H168053   5.706   3.845   0.138
15546TIP3    H268054   5.807   3.840   0.025
15547TIP3   OH268055   0.728   0.477  14.245
15547TIP3    H168056   0.776   0.399  14.270
15547TIP3    H268057   0.641   0.445  14.221
15548TIP3   OH268058   2.718   2.819   5.683
15548TIP3    H168059   2.700   2.905   5.720
15548TIP3    H268060   2.767   2.773   5.751
15549TIP3   OH268061   4.763   2.956   3.856
15549TIP3    H168062   4.762   2.967   3.951
15549TIP3    H268063   4.752   3.045   3.821
15550TIP3   OH268064   5.389   1.715  12.582
15550TIP3    H168065   5.338   1.797  12.580
15550TIP3    H268066   5.480   1.744  12.571
15551TIP3   OH268067   5.901   6.253  11.121
15551TIP3    H168068   5.973   6.286  11.067
15551TIP3    H268069   5.825   6.305  11.094
15552TIP3   OH268070   2.985   1.907   3.244
15552TIP3    H168071   2.903   1.952   3.262
15552TIP3    H268072   3.049   1.978   3.233
15553TIP3   OH268073   4.774   0.027  11.424
15553TIP3    H168074   4.866   0.003  11.441
15553TIP3    H268075   4.744   0.066  11.506
15554TIP3   OH268076   3.856   5.932  14.307
15554TIP3    H168077   3.863   5.915  14.401
15554TIP3    H268078   3.797   6.006  14.299
15555TIP3   OH268079   1.296   2.739  12.336
15555TIP3    H168080   1.371   2.797  12.323
15555TIP3    H268081   1.225   2.797  12.362
15556TIP3   OH268082   6.022   5.952   2.326
15556TIP3    H168083   5.926   5.951   2.324
15556TIP3    H268084   6.045   5.929   2.416
15557TIP3   OH268085   4.381   2.333   2.226
15557TIP3    H168086   4.292   2.365   2.235
15557TIP3    H268087   4.403   2.297   2.312
15558TIP3   OH268088   3.453   5.473  11.272
15558TIP3    H168089   3.501   5.479  11.355
15558TIP3    H268090   3.490   5.397  11.228
15559TIP3   OH268091   6.577   6.191   3.553
15559TIP3    H168092   6.569   6.286   3.556
15559TIP3    H268093   6.527   6.160   3.629
15560TIP3   OH268094   6.364   1.324   5.745
15560TIP3    H168095   6.447   1.368   5.763
15560TIP3    H268096   6.356   1.258   5.813
15561TIP3   OH268097   2.041   0.780  14.254
15561TIP3    H168098   2.096   0.702  14.245
15561TIP3    H268099   1.978   0.757  14.322
15562TIP3   OH268100   0.034   6.242  14.793
15562TIP3    H168101   0.122   6.207  14.807
15562TIP3    H268102   0.014   6.290  14.873
15563TIP3   OH268103   0.059   4.469   0.077
15563TIP3    H168104  -0.017   4.438   0.126
15563TIP3    H268105   0.133   4.424   0.118
15564TIP3   OH268106   6.217   3.077   3.025
15564TIP3    H168107   6.192   3.091   3.117
15564TIP3    H268108   6.163   3.004   2.996
15565TIP3   OH268109   4.886   6.026   1.870
15565TIP3    H168110   4.963   5.970   1.855
15565TIP3    H268111   4.922   6.113   1.885
15566TIP3   OH268112   6.325   1.119   5.960
15566TIP3    H168113   6.343   1.025   5.960
15566TIP3    H268114   6.249   1.129   6.018
15567TIP3   OH268115   5.897   2.540  16.111
15567TIP3    H168116   5.847   2.460  16.091
15567TIP3    H268117   5.988   2.512  16.110
15568TIP3   OH268118   5.929   0.566   0.211
15568TIP3    H168119   5.834   0.571   0.203
15568TIP3    H268120   5.961   0.564   0.121
15569TIP3   OH268121   5.754   1.774  11.525
15569TIP3    H168122   5.668   1.736  11.510
15569TIP3    H268123   5.810   1.699  11.546
15570TIP3   OH268124   3.976   4.192   2.146
15570TIP3    H168125   3.946   4.122   2.088
15570TIP3    H268126   3.900   4.248   2.158
15571TIP3   OH268127   5.595   4.595   2.826
15571TIP3    H168128   5.535   4.614   2.898
15571TIP3    H268129   5.591   4.500   2.816
15572TIP3   OH268130   6.294   1.732   5.504
15572TIP3    H168131   6.379   1.777   5.511
15572TIP3    H268132   6.272   1.710   5.595
15573TIP3   OH268133   6.170   4.900  13.942
15573TIP3    H168134   6.137   4.830  13.999
15573TIP3    H268135   6.249   4.931  13.986
15574TIP3   OH268136   4.259   2.936   6.031
15574TIP3    H168137   4.251   2.870   6.100
15574TIP3    H268138   4.177   2.986   6.036
15575TIP3   OH268139   0.285   5.157  13.015
15575TIP3    H168140   0.366   5.130  13.060
15575TIP3    H268141   0.291   5.252  13.010
15576TIP3   OH268142   1.395   6.577  13.965
15576TIP3    H168143   1.383   6.672  13.966
15576TIP3    H268144   1.433   6.557  14.051
15577TIP3   OH268145   1.034   1.265   1.501
15577TIP3    H168146   1.042   1.182   1.548
15577TIP3    H268147   1.116   1.273   1.452
15578TIP3   OH268148   4.685   0.699  15.173
15578TIP3    H168149   4.742   0.624  15.159
15578TIP3    H268150   4.641   0.712  15.089
15579TIP3   OH268151   5.983   4.007   0.227
15579TIP3    H168152   6.041   3.982   0.156
15579TIP3    H268153   5.895   3.991   0.193
15580TIP3   OH268154   1.900   3.525  13.275
15580TIP3    H168155   1.914   3.522  13.180
15580TIP3    H268156   1.985   3.504  13.312
15581TIP3   OH268157   0.805   0.297   5.742
15581TIP3    H168158   0.868   0.225   5.746
15581TIP3    H268159   0.719   0.254   5.742
15582TIP3   OH268160   6.540   0.921   6.416
15582TIP3    H168161   6.550   0.875   6.333
15582TIP3    H268162   6.561   0.855   6.482
15583TIP3   OH268163   5.820   4.509   4.378
15583TIP3    H168164   5.739   4.532   4.424
15583TIP3    H268165   5.883   4.575   4.407
15584TIP3   OH268166   6.086   4.509   3.563
15584TIP3    H168167   6.109   4.471   3.477
15584TIP3    H268168   5.993   4.490   3.574
15585TIP3   OH268169   4.959   3.241   0.976
15585TIP3    H168170   4.908   3.168   1.011
15585TIP3    H268171   4.962   3.305   1.047
15586TIP3   OH268172   0.672   4.572   4.118
15586TIP3    H168173   0.621   4.613   4.187
15586TIP3    H268174   0.671   4.635   4.046
15587TIP3   OH268175   5.000   0.077  14.674
15587TIP3    H168176   4.941   0.141  14.634
15587TIP3    H268177   5.034   0.026  14.600
15588TIP3   OH268178   4.949   6.305   2.254
15588TIP3    H168179   4.958   6.399   2.269
15588TIP3    H268180   4.995   6.264   2.327
15589TIP3   OH268181   1.675   4.335  12.377
15589TIP3    H168182   1.668   4.300  12.466
15589TIP3    H268183   1.596   4.303  12.333
15590TIP3   OH268184   3.156   4.478   1.732
15590TIP3    H168185   3.125   4.397   1.770
15590TIP3    H268186   3.096   4.545   1.765
15591TIP3   OH268187   0.486   4.486   5.909
15591TIP3    H168188   0.519   4.479   5.999
15591TIP3    H268189   0.396   4.452   5.915
15592TIP3   OH268190   5.885   2.532  13.247
15592TIP3    H168191   5.926   2.596  13.190
15592TIP3    H268192   5.857   2.583  13.323
15593TIP3   OH268193   0.325   0.849  14.879
15593TIP3    H168194   0.360   0.901  14.806
15593TIP3    H268195   0.395   0.848  14.944
15594TIP3   OH268196   1.133   1.797   4.963
15594TIP3    H168197   1.174   1.723   5.007
15594TIP3    H268198   1.159   1.873   5.015
15595TIP3   OH268199   1.659   3.024   4.504
15595TIP3    H168200   1.681   2.964   4.434
15595TIP3    H268201   1.696   2.985   4.583
15596TIP3   OH268202   5.869   2.036  11.495
15596TIP3    H168203   5.952   1.991  11.512
15596TIP3    H268204   5.802   1.969  11.507
15597TIP3   OH268205   3.069   2.609   1.427
15597TIP3    H168206   3.128   2.607   1.502
15597TIP3    H268207   2.994   2.556   1.454
15598TIP3   OH268208   0.807   0.833   1.170
15598TIP3    H168209   0.734   0.802   1.116
15598TIP3    H268210   0.849   0.901   1.118
15599TIP3   OH268211   2.375   2.207   4.131
15599TIP3    H168212   2.411   2.125   4.096
15599TIP3    H268213   2.321   2.180   4.206
15600TIP3   OH268214   6.522   6.494  14.803
15600TIP3    H168215   6.559   6.443  14.731
15600TIP3    H268216   6.575   6.470  14.879
15601TIP3   OH268217   0.238   2.519  14.483
15601TIP3    H168218   0.191   2.476  14.412
15601TIP3    H268219   0.196   2.605  14.491
15602TIP3   OH268220   4.218   2.383   4.794
15602TIP3    H168221   4.245   2.296   4.823
15602TIP3    H268222   4.267   2.443   4.851
15603TIP3   OH268223   1.405   5.804  12.097
15603TIP3    H168224   1.467   5.843  12.035
15603TIP3    H268225   1.370   5.728  12.052
15604TIP3   OH268226   2.166   4.708  11.862
15604TIP3    H168227   2.199   4.777  11.805
15604TIP3    H268228   2.123   4.646  11.803
15605TIP3   OH268229   5.556   3.994   1.566
15605TIP3    H168230   5.461   4.006   1.567
15605TIP3    H268231   5.584   4.016   1.655
15606TIP3   OH268232   0.930   6.118   2.654
15606TIP3    H168233   0.983   6.198   2.656
15606TIP3    H268234   0.988   6.050   2.690
15607TIP3   OH268235   1.011   0.318   2.449
15607TIP3    H168236   1.048   0.293   2.533
15607TIP3    H268237   1.077   0.292   2.385
15608TIP3   OH268238   5.895   6.352  14.648
15608TIP3    H168239   5.977   6.359  14.598
15608TIP3    H268240   5.827   6.377  14.586
15609TIP3   OH268241   4.281   4.682   3.718
15609TIP3    H168242   4.190   4.710   3.723
15609TIP3    H268243   4.282   4.593   3.754
15610TIP3   OH268244   3.466   0.448   1.773
15610TIP3    H168245   3.518   0.508   1.720
15610TIP3    H268246   3.396   0.503   1.809
15611TIP3   OH268247   2.788   5.220   5.463
15611TIP3    H168248   2.720   5.282   5.493
15611TIP3    H268249   2.862   5.236   5.522
15612TIP3   OH268250   3.019   0.015  11.478
15612TIP3    H168251   3.080   0.088  11.462
15612TIP3    H268252   3.063  -0.061  11.440
15613TIP3   OH268253   5.973   5.023  16.925
15613TIP3    H168254   5.938   5.099  16.878
15613TIP3    H268255   5.983   5.052  17.015
15614TIP3   OH268256   5.227   3.717   1.966
15614TIP3    H168257   5.237   3.721   1.871
15614TIP3    H268258   5.288   3.783   1.999
15615TIP3   OH268259   0.589   0.331  15.013
15615TIP3    H168260   0.529   0.300  15.080
15615TIP3    H268261   0.533   0.371  14.947
15616TIP3   OH268262   0.548   6.301   0.681
15616TIP3    H168263   0.493   6.228   0.653
15616TIP3    H268264   0.613   6.310   0.611
15617TIP3   OH268265   1.046   3.876   1.562
15617TIP3    H168266   1.084   3.821   1.630
15617TIP3    H268267   1.078   3.964   1.581
15618TIP3   OH268268   1.354   4.679   4.216
15618TIP3    H168269   1.371   4.591   4.248
15618TIP3    H268270   1.315   4.725   4.290
15619TIP3   OH268271   5.812   3.689   3.982
15619TIP3    H168272   5.855   3.768   3.949
15619TIP3    H268273   5.858   3.670   4.064
15620TIP3   OH268274   4.018   5.807   1.522
15620TIP3    H168275   4.016   5.712   1.536
15620TIP3    H268276   4.095   5.820   1.465
15621TIP3   OH268277   5.413   6.766  14.218
15621TIP3    H168278   5.368   6.850  14.222
15621TIP3    H268279   5.504   6.789  14.198
15622TIP3   OH268280   1.757   4.188   1.443
15622TIP3    H168281   1.829   4.158   1.387
15622TIP3    H268282   1.695   4.115   1.444
15623TIP3   OH268283   4.005   4.977   5.084
15623TIP3    H168284   4.084   4.932   5.115
15623TIP3    H268285   4.032   5.020   5.003
15624TIP3   OH268286   6.433   0.981  14.383
15624TIP3    H168287   6.384   1.036  14.444
15624TIP3    H268288   6.506   1.035  14.355
15625TIP3   OH268289   0.855   2.788   1.472
15625TIP3    H168290   0.889   2.877   1.488
15625TIP3    H268291   0.835   2.754   1.559
15626TIP3   OH268292   5.145   5.876   2.369
15626TIP3    H168293   5.194   5.806   2.326
15626TIP3    H268294   5.132   5.844   2.458
15627TIP3   OH268295   5.620   2.137  13.153
15627TIP3    H168296   5.639   2.085  13.231
15627TIP3    H268297   5.530   2.115  13.130
15628TIP3   OH268298   1.611   4.348  17.023
15628TIP3    H168299   1.629   4.344  17.117
15628TIP3    H268300   1.569   4.264  17.003
15629TIP3   OH268301   3.423   5.580   6.027
15629TIP3    H168302   3.494   5.595   5.965
15629TIP3    H268303   3.360   5.526   5.978
15630TIP3   OH268304   0.568   6.324  13.317
15630TIP3    H168305   0.653   6.360  13.342
15630TIP3    H268306   0.583   6.229  13.310
15631TIP3   OH268307   1.605   2.521   3.686
15631TIP3    H168308   1.595   2.586   3.755
15631TIP3    H268309   1.566   2.441   3.722
15632TIP3   OH268310   5.479   4.771   1.718
15632TIP3    H168311   5.472   4.788   1.812
15632TIP3    H268312   5.391   4.742   1.692
15633TIP3   OH268313   2.831   2.139  16.160
15633TIP3    H168314   2.859   2.056  16.123
15633TIP3    H268315   2.883   2.149  16.240
15634TIP3   OH268316   5.985   5.869   3.505
15634TIP3    H168317   6.000   5.775   3.497
15634TIP3    H268318   5.894   5.877   3.531
15635TIP3   OH268319   0.080   3.063   5.251
15635TIP3    H168320   0.062   3.146   5.206
15635TIP3    H268321   0.174   3.065   5.269
15636TIP3   OH268322   1.554   0.079  16.073
15636TIP3    H168323   1.606   0.105  16.149
15636TIP3    H268324   1.465   0.107  16.094
15637TIP3   OH268325   5.338   5.097  14.959
15637TIP3    H168326   5.305   5.181  14.991
15637TIP3    H268327   5.335   5.105  14.863
15638TIP3   OH268328   1.447   6.118  12.816
15638TIP3    H168329   1.464   6.168  12.736
15638TIP3    H268330   1.412   6.035  12.786
15639TIP3   OH268331   5.595   0.346  16.150
15639TIP3    H168332   5.644   0.275  16.193
15639TIP3    H268333   5.603   0.328  16.057
15640TIP3   OH268334   2.480   5.453   3.036
15640TIP3    H168335   2.451   5.430   2.948
15640TIP3    H268336   2.436   5.536   3.056
15641TIP3   OH268337   0.579   4.031   6.108
15641TIP3    H168338   0.657   4.015   6.161
15641TIP3    H268339   0.509   3.984   6.153
15642TIP3   OH268340   0.202   1.301  15.830
15642TIP3    H168341   0.179   1.366  15.897
15642TIP3    H268342   0.278   1.256  15.867
15643TIP3   OH268343   2.691   2.114  13.062
15643TIP3    H168344   2.749   2.190  13.052
15643TIP3    H268345   2.741   2.041  13.026
15644TIP3   OH268346   3.418   3.561  14.209
15644TIP3    H168347   3.335   3.566  14.161
15644TIP3    H268348   3.453   3.649  14.205
15645TIP3   OH268349   5.376   5.030  16.693
15645TIP3    H168350   5.428   5.041  16.613
15645TIP3    H268351   5.290   5.068  16.671
15646TIP3   OH268352   3.718   0.757   0.007
15646TIP3    H168353   3.764   0.781   0.088
15646TIP3    H268354   3.786   0.759  -0.060
15647TIP3   OH268355   3.870   4.256   4.261
15647TIP3    H168356   3.856   4.182   4.320
15647TIP3    H268357   3.839   4.332   4.311
15648TIP3   OH268358   5.806   6.212   3.496
15648TIP3    H168359   5.850   6.246   3.573
15648TIP3    H268360   5.810   6.117   3.507
15649TIP3   OH268361   5.022   4.983   5.322
15649TIP3    H168362   5.048   4.927   5.395
15649TIP3    H268363   4.940   5.024   5.350
15650TIP3   OH268364   1.599   0.956  15.797
15650TIP3    H168365   1.550   1.038  15.804
15650TIP3    H268366   1.536   0.888  15.818
15651TIP3   OH268367   4.619   5.186  11.571
15651TIP3    H168368   4.664   5.103  11.553
15651TIP3    H268369   4.543   5.185  11.513
15652TIP3   OH268370   1.122   6.403   3.083
15652TIP3    H168371   1.052   6.340   3.099
15652TIP3    H268372   1.082   6.488   3.099
15653TIP3   OH268373   0.785   0.884   0.042
15653TIP3    H168374   0.814   0.968   0.080
15653TIP3    H268375   0.797   0.821   0.113
15654TIP3   OH268376   0.842   1.606   2.038
15654TIP3    H168377   0.874   1.697   2.042
15654TIP3    H268378   0.890   1.561   2.107
15655TIP3   OH268379   3.840   5.223  14.124
15655TIP3    H168380   3.811   5.287  14.189
15655TIP3    H268381   3.859   5.275  14.046
15656TIP3   OH268382   2.104   2.327  17.164
15656TIP3    H168383   2.194   2.358  17.178
15656TIP3    H268384   2.097   2.249  17.220
15657TIP3   OH268385   5.617   5.723   3.360
15657TIP3    H168386   5.614   5.819   3.360
15657TIP3    H268387   5.710   5.702   3.371
15658TIP3   OH268388   5.861   5.591  12.654
15658TIP3    H168389   5.818   5.560  12.733
15658TIP3    H268390   5.805   5.662  12.622
15659TIP3   OH268391   6.465   2.067  13.902
15659TIP3    H168392   6.404   2.135  13.931
15659TIP3    H268393   6.441   1.990  13.952
15660TIP3   OH268394   3.558   1.652  16.074
15660TIP3    H168395   3.630   1.614  16.124
15660TIP3    H268396   3.516   1.713  16.135
15661TIP3   OH268397   6.376   4.619  11.838
15661TIP3    H168398   6.413   4.534  11.816
15661TIP3    H268399   6.440   4.682  11.806
15662TIP3   OH268400   6.562   1.571   5.120
15662TIP3    H168401   6.613   1.598   5.197
15662TIP3    H268402   6.501   1.644   5.106
15663TIP3   OH268403   4.362   4.375   5.411
15663TIP3    H168404   4.326   4.428   5.340
15663TIP3    H268405   4.285   4.344   5.459
15664TIP3   OH268406   0.110   0.720  11.854
15664TIP3    H168407   0.110   0.778  11.778
15664TIP3    H268408   0.019   0.694  11.864
15665TIP3   OH268409   0.550   4.106   2.112
15665TIP3    H168410   0.457   4.104   2.091
15665TIP3    H268411   0.559   4.178   2.175
15666TIP3   OH268412   0.040   5.519   2.643
15666TIP3    H168413   0.088   5.571   2.579
15666TIP3    H268414  -0.014   5.583   2.690
15667TIP3   OH268415   6.449   1.548   4.535
15667TIP3    H168416   6.364   1.533   4.493
15667TIP3    H268417   6.513   1.512   4.473
15668TIP3   OH268418   0.887   5.054   5.059
15668TIP3    H168419   0.877   4.999   5.137
15668TIP3    H268420   0.862   5.141   5.087
15669TIP3   OH268421   1.306   6.066  12.130
15669TIP3    H168422   1.369   5.998  12.154
15669TIP3    H268423   1.232   6.019  12.092
15670TIP3   OH268424   1.153   3.687  15.328
15670TIP3    H168425   1.191   3.599  15.322
15670TIP3    H268426   1.144   3.702  15.423
15671TIP3   OH268427   4.366   0.647  16.889
15671TIP3    H168428   4.450   0.607  16.913
15671TIP3    H268429   4.322   0.662  16.973
15672TIP3   OH268430   6.521   4.308   1.222
15672TIP3    H168431   6.427   4.316   1.203
15672TIP3    H268432   6.563   4.364   1.157
15673TIP3   OH268433   2.750   2.335  12.237
15673TIP3    H168434   2.669   2.300  12.201
15673TIP3    H268435   2.788   2.385  12.165
15674TIP3   OH268436   1.174   6.025   0.047
15674TIP3    H168437   1.230   6.013  -0.029
15674TIP3    H268438   1.224   5.991   0.121
15675TIP3   OH268439   5.757   4.630  15.768
15675TIP3    H168440   5.771   4.633  15.863
15675TIP3    H268441   5.672   4.588  15.757
15676TIP3   OH268442   1.583   0.572   6.107
15676TIP3    H168443   1.490   0.546   6.109
15676TIP3    H268444   1.630   0.491   6.126
15677TIP3   OH268445   6.517   4.136   5.289
15677TIP3    H168446   6.499   4.078   5.363
15677TIP3    H268447   6.544   4.219   5.328
15678TIP3   OH268448   6.730   3.905   4.869
15678TIP3    H168449   6.825   3.913   4.856
15678TIP3    H268450   6.699   3.996   4.874
15679TIP3   OH268451   5.117   2.567   3.371
15679TIP3    H168452   5.140   2.494   3.429
15679TIP3    H268453   5.188   2.631   3.384
15680TIP3   OH268454   0.035   2.654  14.604
15680TIP3    H168455   0.052   2.739  14.646
15680TIP3    H268456   0.074   2.590  14.662
15681TIP3   OH268457   4.315   1.567  12.571
15681TIP3    H168458   4.405   1.550  12.600
15681TIP3    H268459   4.288   1.485  12.529
15682TIP3   OH268460   2.589   0.791  15.959
15682TIP3    H168461   2.635   0.727  16.012
15682TIP3    H268462   2.658   0.836  15.910
15683TIP3   OH268463   0.858   0.762  15.394
15683TIP3    H168464   0.916   0.690  15.367
15683TIP3    H268465   0.774   0.719  15.414
15684TIP3   OH268466   2.421   4.370   4.918
15684TIP3    H168467   2.342   4.419   4.939
15684TIP3    H268468   2.393   4.279   4.913
15685TIP3   OH268469   5.569   6.449  15.283
15685TIP3    H168470   5.622   6.395  15.225
15685TIP3    H268471   5.498   6.392  15.311
15686TIP3   OH268472   3.272   0.968  15.220
15686TIP3    H168473   3.300   1.010  15.138
15686TIP3    H268474   3.258   0.876  15.196
15687TIP3   OH268475   0.602   0.283  12.544
15687TIP3    H168476   0.536   0.304  12.478
15687TIP3    H268477   0.680   0.259  12.494
15688TIP3   OH268478   1.302   4.605  16.542
15688TIP3    H168479   1.229   4.554  16.577
15688TIP3    H268480   1.266   4.647  16.464
15689TIP3   OH268481   4.322   6.356   0.755
15689TIP3    H168482   4.358   6.318   0.675
15689TIP3    H268483   4.382   6.427   0.778
15690TIP3   OH268484   2.975   2.781  14.819
15690TIP3    H168485   2.901   2.775  14.880
15690TIP3    H268486   2.961   2.710  14.757
15691TIP3   OH268487   1.243   6.358  12.180
15691TIP3    H168488   1.223   6.375  12.272
15691TIP3    H268489   1.235   6.263  12.172
15692TIP3   OH268490   4.291   1.970  12.148
15692TIP3    H168491   4.314   1.947  12.058
15692TIP3    H268492   4.290   1.886  12.194
15693TIP3   OH268493   0.212   1.775   2.175
15693TIP3    H168494   0.128   1.732   2.187
15693TIP3    H268495   0.211   1.848   2.237
15694TIP3   OH268496   4.489   2.941  12.347
15694TIP3    H168497   4.431   3.004  12.305
15694TIP3    H268498   4.435   2.864  12.362
15695TIP3   OH268499   4.334   0.053   0.600
15695TIP3    H168500   4.428   0.066   0.613
15695TIP3    H268501   4.297   0.141   0.596
15696TIP3   OH268502   1.698   6.118   3.535
15696TIP3    H168503   1.706   6.203   3.490
15696TIP3    H268504   1.652   6.062   3.472
15697TIP3   OH268505   4.011   6.079  15.837
15697TIP3    H168506   3.941   6.107  15.896
15697TIP3    H268507   3.988   6.120  15.753
15698TIP3   OH268508   4.882   4.574  14.934
15698TIP3    H168509   4.907   4.547  15.022
15698TIP3    H268510   4.891   4.670  14.935
15699TIP3   OH268511   2.697   0.612   2.243
15699TIP3    H168512   2.792   0.607   2.240
15699TIP3    H268513   2.679   0.687   2.300
15700TIP3   OH268514   2.438   3.563  13.472
15700TIP3    H168515   2.472   3.476  13.492
15700TIP3    H268516   2.449   3.612  13.553
15701TIP3   OH268517   2.788   3.263   3.561
15701TIP3    H168518   2.848   3.284   3.633
15701TIP3    H268519   2.785   3.343   3.508
15702TIP3   OH268520   0.775   1.334   2.654
15702TIP3    H168521   0.699   1.374   2.611
15702TIP3    H268522   0.737   1.281   2.725
15703TIP3   OH268523   3.258   0.159  11.292
15703TIP3    H168524   3.312   0.202  11.359
15703TIP3    H268525   3.317   0.095  11.252
15704TIP3   OH268526   3.368   2.306   5.097
15704TIP3    H168527   3.428   2.376   5.124
15704TIP3    H268528   3.334   2.271   5.179
15705TIP3   OH268529   3.585   5.614   1.269
15705TIP3    H168530   3.634   5.538   1.238
15705TIP3    H268531   3.652   5.678   1.294
15706TIP3   OH268532   5.614   1.393   3.287
15706TIP3    H168533   5.639   1.301   3.290
15706TIP3    H268534   5.519   1.391   3.274
15707TIP3   OH268535   5.124   6.503   5.225
15707TIP3    H168536   5.094   6.590   5.198
15707TIP3    H268537   5.172   6.518   5.306
15708TIP3   OH268538   3.896   5.638  16.608
15708TIP3    H168539   3.839   5.640  16.686
15708TIP3    H268540   3.942   5.554  16.615
15709TIP3   OH268541   6.433   4.623   1.352
15709TIP3    H168542   6.390   4.694   1.304
15709TIP3    H268543   6.466   4.565   1.283
15710TIP3   OH268544   5.426   6.584  14.004
15710TIP3    H168545   5.515   6.593  13.968
15710TIP3    H268546   5.422   6.648  14.075
15711TIP3   OH268547   0.856   0.801   4.904
15711TIP3    H168548   0.904   0.865   4.851
15711TIP3    H268549   0.852   0.841   4.991
15712TIP3   OH268550   4.941   5.304   5.464
15712TIP3    H168551   5.035   5.284   5.463
15712TIP3    H268552   4.918   5.316   5.372
15713TIP3   OH268553   4.924   2.332   5.230
15713TIP3    H168554   4.902   2.387   5.154
15713TIP3    H268555   4.942   2.395   5.300
15714TIP3   OH268556   1.369   0.778   0.278
15714TIP3    H168557   1.339   0.814   0.362
15714TIP3    H268558   1.463   0.768   0.288
15715TIP3   OH268559   4.708   0.472   1.845
15715TIP3    H168560   4.752   0.387   1.854
15715TIP3    H268561   4.685   0.478   1.753
15716TIP3   OH268562   4.105   4.808  14.640
15716TIP3    H168563   4.155   4.760  14.573
15716TIP3    H268564   4.041   4.859  14.591
15717TIP3   OH268565   2.877   0.395  11.736
15717TIP3    H168566   2.901   0.330  11.803
15717TIP3    H268567   2.834   0.464  11.785
15718TIP3   OH268568   2.305   4.759   2.330
15718TIP3    H168569   2.300   4.666   2.354
15718TIP3    H268570   2.356   4.799   2.399
15719TIP3   OH268571   0.939   5.304   0.308
15719TIP3    H168572   0.869   5.369   0.303
15719TIP3    H268573   0.900   5.230   0.355
15720TIP3   OH268574   4.075   5.502   1.512
15720TIP3    H168575   4.024   5.502   1.431
15720TIP3    H268576   4.033   5.435   1.567
15721TIP3   OH268577   4.525   0.172   1.043
15721TIP3    H168578   4.590   0.242   1.039
15721TIP3    H268579   4.577   0.092   1.054
15722TIP3   OH268580   1.821   2.665   4.165
15722TIP3    H168581   1.897   2.708   4.205
15722TIP3    H268582   1.851   2.641   4.077
15723TIP3   OH268583   5.576   4.314  11.724
15723TIP3    H168584   5.668   4.327  11.745
15723TIP3    H268585   5.575   4.239  11.664
15724TIP3   OH268586   5.008   1.305  16.791
15724TIP3    H168587   4.970   1.225  16.828
15724TIP3    H268588   5.005   1.368  16.862
15725TIP3   OH268589   5.794   1.841  13.721
15725TIP3    H168590   5.734   1.824  13.793
15725TIP3    H268591   5.746   1.814  13.643
15726TIP3   OH268592   2.825   0.012   2.738
15726TIP3    H168593   2.867   0.064   2.670
15726TIP3    H268594   2.734   0.002   2.708
15727TIP3   OH268595   5.133   5.574  15.803
15727TIP3    H168596   5.127   5.669  15.800
15727TIP3    H268597   5.110   5.551  15.893
15728TIP3   OH268598   6.492   0.774  16.175
15728TIP3    H168599   6.462   0.807  16.091
15728TIP3    H268600   6.588   0.781  16.171
15729TIP3   OH268601   1.479   5.963   5.484
15729TIP3    H168602   1.449   6.002   5.402
15729TIP3    H268603   1.573   5.949   5.471
15730TIP3   OH268604   4.303   1.166   3.018
15730TIP3    H168605   4.230   1.110   3.045
15730TIP3    H268606   4.328   1.133   2.932
15731TIP3   OH268607   1.417   3.567   6.456
15731TIP3    H168608   1.370   3.503   6.509
15731TIP3    H268609   1.500   3.525   6.433
15732TIP3   OH268610   5.486   2.522  11.457
15732TIP3    H168611   5.398   2.539  11.424
15732TIP3    H268612   5.473   2.491  11.546
15733TIP3   OH268613   5.117   2.199  11.781
15733TIP3    H168614   5.187   2.176  11.843
15733TIP3    H268615   5.081   2.115  11.754
15734TIP3   OH268616   2.947   4.590  11.692
15734TIP3    H168617   2.904   4.544  11.620
15734TIP3    H268618   3.041   4.581  11.673
15735TIP3   OH268619   3.871   4.446   6.070
15735TIP3    H168620   3.929   4.513   6.106
15735TIP3    H268621   3.851   4.389   6.144
15736TIP3   OH268622   4.685   3.743  14.056
15736TIP3    H168623   4.722   3.812  14.001
15736TIP3    H268624   4.727   3.755  14.141
15737TIP3   OH268625   3.141   2.726  15.039
15737TIP3    H168626   3.097   2.745  14.957
15737TIP3    H268627   3.205   2.659  15.017
15738TIP3   OH268628   3.714   5.075   3.227
15738TIP3    H168629   3.676   5.000   3.182
15738TIP3    H268630   3.808   5.065   3.216
15739TIP3   OH268631   3.510   0.315   0.987
15739TIP3    H168632   3.589   0.358   0.954
15739TIP3    H268633   3.451   0.387   1.011
15740TIP3   OH268634   4.704   2.142  16.006
15740TIP3    H168635   4.730   2.197  16.080
15740TIP3    H268636   4.615   2.170  15.985
15741TIP3   OH268637   3.994   3.035  16.971
15741TIP3    H168638   3.941   2.992  17.038
15741TIP3    H268639   4.062   3.081  17.021
15742TIP3   OH268640   0.423   6.139   3.228
15742TIP3    H168641   0.327   6.138   3.228
15742TIP3    H268642   0.446   6.228   3.255
15743TIP3   OH268643   6.676   3.580   3.126
15743TIP3    H168644   6.659   3.569   3.032
15743TIP3    H268645   6.682   3.675   3.137
15744TIP3   OH268646   4.792   4.593   3.112
15744TIP3    H168647   4.724   4.653   3.080
15744TIP3    H268648   4.788   4.518   3.051
15745TIP3   OH268649   2.525   2.596  14.356
15745TIP3    H168650   2.620   2.597  14.355
15745TIP3    H268651   2.502   2.559  14.441
15746TIP3   OH268652   2.065   0.903  17.162
15746TIP3    H168653   1.988   0.853  17.135
15746TIP3    H268654   2.089   0.953  17.084
15747TIP3   OH268655   5.107   6.216   1.687
15747TIP3    H168656   5.139   6.156   1.619
15747TIP3    H268657   5.155   6.189   1.766
15748TIP3   OH268658   2.989   3.362  14.722
15748TIP3    H168659   2.911   3.366  14.777
15748TIP3    H268660   2.958   3.383  14.634
15749TIP3   OH268661   0.091   5.747   2.444
15749TIP3    H168662   0.079   5.754   2.349
15749TIP3    H268663   0.141   5.826   2.467
15750TIP3   OH268664   3.689   6.024  16.806
15750TIP3    H168665   3.679   6.076  16.727
15750TIP3    H268666   3.707   6.088  16.875
15751TIP3   OH268667   2.618   4.042  13.295
15751TIP3    H168668   2.632   4.078  13.382
15751TIP3    H268669   2.594   3.950  13.310
15752TIP3   OH268670   6.249   3.719   2.292
15752TIP3    H168671   6.228   3.688   2.380
15752TIP3    H268672   6.170   3.701   2.241
15753TIP3   OH268673   4.767   0.018  13.012
15753TIP3    H168674   4.766   0.027  13.108
15753TIP3    H268675   4.799   0.103  12.981
15754TIP3   OH268676   3.764   1.475   1.587
15754TIP3    H168677   3.790   1.408   1.523
15754TIP3    H268678   3.735   1.549   1.534
15755TIP3   OH268679   4.234   4.034  15.467
15755TIP3    H168680   4.241   3.984  15.385
15755TIP3    H268681   4.276   4.117  15.448
15756TIP3   OH268682   6.446   1.415   4.237
15756TIP3    H168683   6.529   1.424   4.284
15756TIP3    H268684   6.432   1.501   4.198
15757TIP3   OH268685   5.675   1.457  13.521
15757TIP3    H168686   5.682   1.362  13.532
15757TIP3    H268687   5.758   1.482  13.480
15758TIP3   OH268688   1.993   0.594  14.970
15758TIP3    H168689   2.063   0.656  14.954
15758TIP3    H268690   1.969   0.607  15.062
15759TIP3   OH268691   6.621   2.091  10.690
15759TIP3    H168692   6.710   2.082  10.724
15759TIP3    H268693   6.607   2.185  10.684
15760TIP3   OH268694   4.901   5.322  15.318
15760TIP3    H168695   4.986   5.299  15.356
15760TIP3    H268696   4.906   5.417  15.307
15761TIP3   OH268697   3.422   0.853   5.964
15761TIP3    H168698   3.440   0.792   6.036
15761TIP3    H268699   3.341   0.897   5.990
15762TIP3   OH268700   1.873   1.666  13.833
15762TIP3    H168701   1.852   1.744  13.884
15762TIP3    H268702   1.831   1.680  13.748
15763TIP3   OH268703   0.185   4.846  17.173
15763TIP3    H168704   0.095   4.845  17.206
15763TIP3    H268705   0.230   4.911  17.227
15764TIP3   OH268706   0.082   5.185   4.618
15764TIP3    H168707   0.064   5.113   4.557
15764TIP3    H268708   0.155   5.153   4.671
15765TIP3   OH268709   6.559   0.861   0.887
15765TIP3    H168710   6.492   0.885   0.950
15765TIP3    H268711   6.510   0.833   0.809
15766TIP3   OH268712   2.399   2.124   4.783
15766TIP3    H168713   2.326   2.063   4.785
15766TIP3    H268714   2.471   2.075   4.744
15767TIP3   OH268715   4.671   2.841   0.936
15767TIP3    H168716   4.651   2.846   0.843
15767TIP3    H268717   4.586   2.840   0.979
15768TIP3   OH268718   2.311   2.691   4.467
15768TIP3    H168719   2.393   2.669   4.423
15768TIP3    H268720   2.332   2.686   4.561
15769TIP3   OH268721   3.790   1.181  11.159
15769TIP3    H168722   3.740   1.224  11.090
15769TIP3    H268723   3.789   1.244  11.232
15770TIP3   OH268724   6.623   1.773   3.111
15770TIP3    H168725   6.648   1.849   3.058
15770TIP3    H268726   6.650   1.697   3.059
15771TIP3   OH268727   2.718   6.034  10.766
15771TIP3    H168728   2.768   5.955  10.790
15771TIP3    H268729   2.785   6.100  10.750
15772TIP3   OH268730   6.385   0.839  12.635
15772TIP3    H168731   6.314   0.777  12.618
15772TIP3    H268732   6.345   0.906  12.690
15773TIP3   OH268733   0.372   6.516   5.174
15773TIP3    H168734   0.399   6.425   5.182
15773TIP3    H268735   0.430   6.553   5.107
15774TIP3   OH268736   0.852   3.243   3.033
15774TIP3    H168737   0.940   3.232   3.069
15774TIP3    H268738   0.831   3.335   3.048
15775TIP3   OH268739   1.925   6.428   6.497
15775TIP3    H168740   2.003   6.470   6.532
15775TIP3    H268741   1.958   6.349   6.454
15776TIP3   OH268742   2.894   5.668   5.154
15776TIP3    H168743   2.939   5.590   5.122
15776TIP3    H268744   2.950   5.701   5.225
15777TIP3   OH268745   4.920   5.395   2.550
15777TIP3    H168746   4.912   5.341   2.629
15777TIP3    H268747   4.990   5.456   2.570
15778TIP3   OH268748   5.035   2.739   2.072
15778TIP3    H168749   5.002   2.672   2.011
15778TIP3    H268750   4.980   2.815   2.055
15779TIP3   OH268751   5.525   6.236   0.002
15779TIP3    H168752   5.561   6.190  -0.074
15779TIP3    H268753   5.460   6.176   0.039
15780TIP3   OH268754   4.918   1.586  13.529
15780TIP3    H168755   4.926   1.589  13.624
15780TIP3    H268756   4.826   1.563  13.513
15781TIP3   OH268757   1.825   4.062   2.390
15781TIP3    H168758   1.888   4.133   2.404
15781TIP3    H268759   1.789   4.045   2.477
15782TIP3   OH268760   3.612   1.662  13.219
15782TIP3    H168761   3.642   1.631  13.304
15782TIP3    H268762   3.528   1.617  13.206
15783TIP3   OH268763   2.412   5.550   3.655
15783TIP3    H168764   2.399   5.507   3.739
15783TIP3    H268765   2.412   5.643   3.676
15784TIP3   OH268766   4.765   2.928  15.520
15784TIP3    H168767   4.695   2.896  15.577
15784TIP3    H268768   4.807   2.998  15.571
15785TIP3   OH268769   1.028   0.576   2.790
15785TIP3    H168770   1.116   0.580   2.826
15785TIP3    H268771   0.986   0.505   2.838
15786TIP3   OH268772   4.834   4.383   2.950
15786TIP3    H168773   4.886   4.303   2.951
15786TIP3    H268774   4.747   4.355   2.921
15787TIP3   OH268775   4.289   3.763   2.470
15787TIP3    H168776   4.309   3.718   2.552
15787TIP3    H268777   4.356   3.733   2.409
15788TIP3   OH268778   4.571   1.635  14.200
15788TIP3    H168779   4.529   1.655  14.116
15788TIP3    H268780   4.617   1.716  14.223
15789TIP3   OH268781   1.165   2.908   4.550
15789TIP3    H168782   1.139   2.844   4.617
15789TIP3    H268783   1.082   2.936   4.511
15790TIP3   OH268784   5.215   5.531  15.239
15790TIP3    H168785   5.194   5.568  15.325
15790TIP3    H268786   5.156   5.576  15.178
15791TIP3   OH268787   3.992   4.625  15.308
15791TIP3    H168788   3.980   4.687  15.380
15791TIP3    H268789   3.929   4.555  15.326
15792TIP3   OH268790   3.360   0.208   6.364
15792TIP3    H168791   3.426   0.164   6.417
15792TIP3    H268792   3.329   0.141   6.303
15793TIP3   OH268793   5.346   3.311  12.185
15793TIP3    H168794   5.337   3.402  12.213
15793TIP3    H268795   5.429   3.308  12.137
15794TIP3   OH268796   3.362   5.364  16.435
15794TIP3    H168797   3.381   5.409  16.518
15794TIP3    H268798   3.362   5.434  16.369
15795TIP3   OH268799   1.567   6.495   3.845
15795TIP3    H168800   1.491   6.553   3.856
15795TIP3    H268801   1.560   6.433   3.917
15796TIP3   OH268802   6.054   1.043  16.421
15796TIP3    H168803   5.994   1.111  16.453
15796TIP3    H268804   5.999   0.984  16.370
15797TIP3   OH268805   4.663   0.364   3.381
15797TIP3    H168806   4.614   0.294   3.423
15797TIP3    H268807   4.622   0.444   3.413
15798TIP3   OH268808   1.416   1.480  14.283
15798TIP3    H168809   1.454   1.568  14.281
15798TIP3    H268810   1.429   1.450  14.373
15799TIP3   OH268811   3.530   5.756   5.000
15799TIP3    H168812   3.533   5.775   5.093
15799TIP3    H268813   3.472   5.681   4.991
15800TIP3   OH268814   0.392   2.234  13.427
15800TIP3    H168815   0.412   2.235  13.521
15800TIP3    H268816   0.478   2.231  13.385
15801TIP3   OH268817   3.048   4.980  14.123
15801TIP3    H168818   3.107   4.918  14.080
15801TIP3    H268819   3.068   4.972  14.216
15802TIP3   OH268820   4.896   3.131  15.666
15802TIP3    H168821   4.893   3.168  15.754
15802TIP3    H268822   4.989   3.114  15.651
15803TIP3   OH268823   3.595   5.772  16.929
15803TIP3    H168824   3.503   5.745  16.937
15803TIP3    H268825   3.598   5.858  16.971
15804TIP3   OH268826   4.903   2.141  13.765
15804TIP3    H168827   4.918   2.063  13.818
15804TIP3    H268828   4.986   2.156  13.720
15805TIP3   OH268829   5.974   3.364  17.179
15805TIP3    H168830   6.026   3.427  17.129
15805TIP3    H268831   5.895   3.412  17.204
15806TIP3   OH268832   5.537   2.876  13.644
15806TIP3    H168833   5.516   2.799  13.696
15806TIP3    H268834   5.579   2.842  13.565
15807TIP3   OH268835   4.544   2.484  13.536
15807TIP3    H168836   4.598   2.455  13.610
15807TIP3    H268837   4.516   2.403  13.493
15808TIP3   OH268838   1.890   1.134  12.956
15808TIP3    H168839   1.838   1.146  13.036
15808TIP3    H268840   1.883   1.041  12.937
15809TIP3   OH268841   2.193   5.881  16.783
15809TIP3    H168842   2.278   5.875  16.739
15809TIP3    H268843   2.213   5.925  16.866
15810TIP3   OH268844   6.635   4.162  11.559
15810TIP3    H168845   6.638   4.126  11.470
15810TIP3    H268846   6.675   4.249  11.552
15811TIP3   OH268847   5.933   3.399   1.229
15811TIP3    H168848   5.933   3.353   1.313
15811TIP3    H268849   5.935   3.330   1.163
15812TIP3   OH268850   2.687   0.999  16.910
15812TIP3    H168851   2.665   0.913  16.875
15812TIP3    H268852   2.607   1.029  16.954
15813TIP3   OH268853   3.538   0.982  17.049
15813TIP3    H168854   3.552   0.895  17.087
15813TIP3    H268855   3.506   1.035  17.122
15814TIP3   OH268856   4.299   6.779  10.584
15814TIP3    H168857   4.205   6.764  10.569
15814TIP3    H268858   4.339   6.693  10.570
15815TIP3   OH268859   3.502   6.241   6.267
15815TIP3    H168860   3.467   6.285   6.344
15815TIP3    H268861   3.483   6.301   6.194
15816TIP3   OH268862   0.775   2.840   3.864
15816TIP3    H168863   0.717   2.770   3.895
15816TIP3    H268864   0.762   2.911   3.927
15817TIP3   OH268865   6.717   0.004   2.393
15817TIP3    H168866   6.768   0.043   2.464
15817TIP3    H268867   6.693   0.079   2.337
15818TIP3   OH268868   2.699   0.759  13.829
15818TIP3    H168869   2.749   0.723  13.756
15818TIP3    H268870   2.672   0.683  13.880
15819TIP3   OH268871   1.692   3.144  11.244
15819TIP3    H168872   1.602   3.109  11.243
15819TIP3    H268873   1.697   3.201  11.167
15820TIP3   OH268874   1.050   0.606   1.699
15820TIP3    H168875   0.992   0.660   1.753
15820TIP3    H268876   1.036   0.517   1.731
15821TIP3   OH268877   2.061   2.225   3.066
15821TIP3    H168878   2.088   2.146   3.020
15821TIP3    H268879   1.999   2.195   3.132
15822TIP3   OH268880   0.330   5.350  14.329
15822TIP3    H168881   0.307   5.348  14.422
15822TIP3    H268882   0.320   5.441  14.303
15823TIP3   OH268883   0.478   6.327  15.148
15823TIP3    H168884   0.569   6.350  15.169
15823TIP3    H268885   0.478   6.231  15.144
15824TIP3   OH268886   2.324   1.560   4.859
15824TIP3    H168887   2.369   1.476   4.855
15824TIP3    H268888   2.360   1.603   4.936
15825TIP3   OH268889   3.742   2.666  14.623
15825TIP3    H168890   3.812   2.731  14.630
15825TIP3    H268891   3.708   2.658  14.712
15826TIP3   OH268892   0.842   4.149   0.921
15826TIP3    H168893   0.885   4.067   0.896
15826TIP3    H268894   0.751   4.124   0.937
15827TIP3   OH268895   3.107   0.665  12.745
15827TIP3    H168896   3.182   0.690  12.800
15827TIP3    H268897   3.031   0.702  12.790
15828TIP3   OH268898   3.505   2.533  14.519
15828TIP3    H168899   3.583   2.570  14.560
15828TIP3    H268900   3.434   2.554  14.579
15829TIP3   OH268901   5.682   5.512  15.305
15829TIP3    H168902   5.773   5.535  15.291
15829TIP3    H268903   5.653   5.475  15.222
15830TIP3   OH268904   2.020   4.491   2.457
15830TIP3    H168905   2.033   4.519   2.367
15830TIP3    H268906   1.954   4.552   2.491
15831TIP3   OH268907   4.879   3.530  12.432
15831TIP3    H168908   4.915   3.617  12.416
15831TIP3    H268909   4.871   3.524  12.527
15832TIP3   OH268910   1.970   2.117   2.133
15832TIP3    H168911   1.993   2.025   2.129
15832TIP3    H268912   1.912   2.124   2.208
15833TIP3   OH268913   5.133   5.383  16.265
15833TIP3    H168914   5.126   5.460  16.208
15833TIP3    H268915   5.114   5.309  16.207
15834TIP3   OH268916   4.147   4.190   4.588
15834TIP3    H168917   4.179   4.279   4.571
15834TIP3    H268918   4.071   4.203   4.645
15835TIP3   OH268919   0.581   2.206  12.210
15835TIP3    H168920   0.524   2.267  12.162
15835TIP3    H268921   0.635   2.167  12.142
15836TIP3   OH268922   1.650   4.464   1.802
15836TIP3    H168923   1.696   4.489   1.882
15836TIP3    H268924   1.683   4.525   1.736
15837TIP3   OH268925   2.102   2.477   1.871
15837TIP3    H168926   2.069   2.436   1.950
15837TIP3    H268927   2.029   2.531   1.839
15838TIP3   OH268928   5.608   1.063   5.928
15838TIP3    H168929   5.523   1.088   5.963
15838TIP3    H268930   5.667   1.133   5.956
15839TIP3   OH268931   3.073   5.347   5.321
15839TIP3    H168932   3.025   5.301   5.390
15839TIP3    H268933   3.112   5.422   5.365
15840TIP3   OH268934   5.748   3.913   4.680
15840TIP3    H168935   5.767   3.829   4.640
15840TIP3    H268936   5.773   3.903   4.772
15841TIP3   OH268937   1.615   1.472  15.325
15841TIP3    H168938   1.634   1.486  15.417
15841TIP3    H268939   1.586   1.558  15.293
15842TIP3   OH268940   6.336   5.235  12.297
15842TIP3    H168941   6.277   5.167  12.264
15842TIP3    H268942   6.281   5.313  12.304
15843TIP3   OH268943   4.100   5.991   4.364
15843TIP3    H168944   4.079   6.050   4.292
15843TIP3    H268945   4.092   5.903   4.326
15844TIP3   OH268946   3.313   0.402  17.066
15844TIP3    H168947   3.403   0.424  17.089
15844TIP3    H268948   3.314   0.307  17.054
15845TIP3   OH268949   4.541   4.415   6.527
15845TIP3    H168950   4.551   4.395   6.433
15845TIP3    H268951   4.459   4.372   6.551
15846TIP3   OH268952   0.595   0.009   0.508
15846TIP3    H168953   0.507  -0.001   0.544
15846TIP3    H268954   0.589  -0.024   0.418
15847TIP3   OH268955   2.499   5.357   1.377
15847TIP3    H168956   2.543   5.277   1.348
15847TIP3    H268957   2.528   5.423   1.313
15848TIP3   OH268958   2.478   2.295   1.801
15848TIP3    H168959   2.463   2.377   1.846
15848TIP3    H268960   2.569   2.302   1.769
15849TIP3   OH268961   1.274   2.533   4.645
15849TIP3    H168962   1.186   2.569   4.658
15849TIP3    H268963   1.304   2.574   4.563
15850TIP3   OH268964   1.363   0.429  16.221
15850TIP3    H168965   1.419   0.422  16.298
15850TIP3    H268966   1.403   0.499  16.169
15851TIP3   OH268967   1.815   0.652   0.008
15851TIP3    H168968   1.873   0.615  -0.058
15851TIP3    H268969   1.769   0.576   0.045
15852TIP3   OH268970   0.485   3.046   3.363
15852TIP3    H168971   0.490   3.119   3.301
15852TIP3    H268972   0.410   3.067   3.419
15853TIP3   OH268973   6.337   2.897   1.002
15853TIP3    H168974   6.337   2.918   1.095
15853TIP3    H268975   6.246   2.910   0.974
15854TIP3   OH268976   6.009   5.491  12.401
15854TIP3    H168977   6.088   5.484  12.348
15854TIP3    H268978   6.033   5.550  12.473
15855TIP3   OH268979   0.625   3.706   4.074
15855TIP3    H168980   0.592   3.652   4.145
15855TIP3    H268981   0.552   3.763   4.051
15856TIP3   OH268982   4.790   2.971  13.047
15856TIP3    H168983   4.840   3.051  13.063
15856TIP3    H268984   4.788   2.963  12.952
15857TIP3   OH268985   2.582   4.106   2.664
15857TIP3    H168986   2.522   4.169   2.624
15857TIP3    H268987   2.634   4.158   2.725
15858TIP3   OH268988   4.460   2.999   5.211
15858TIP3    H168989   4.395   3.021   5.144
15858TIP3    H268990   4.489   3.084   5.245
15859TIP3   OH268991   6.172   6.004  11.424
15859TIP3    H168992   6.111   5.995  11.498
15859TIP3    H268993   6.119   5.986  11.347
15860TIP3   OH268994   2.057   2.032  14.378
15860TIP3    H168995   2.081   2.108  14.432
15860TIP3    H268996   2.041   2.069  14.292
15861TIP3   OH268997   4.808   5.924   5.985
15861TIP3    H168998   4.741   5.992   5.992
15861TIP3    H268999   4.891   5.972   5.989
15862TIP3   OH269000   0.142   5.884   0.404
15862TIP3    H169001   0.104   5.860   0.489
15862TIP3    H269002   0.139   5.979   0.403
15863TIP3   OH269003   5.261   5.152   3.036
15863TIP3    H169004   5.315   5.159   2.957
15863TIP3    H269005   5.323   5.163   3.108
15864TIP3   OH269006   6.439   5.256   1.240
15864TIP3    H169007   6.374   5.321   1.266
15864TIP3    H269008   6.512   5.307   1.205
15865TIP3   OH269009   1.837   0.568  13.066
15865TIP3    H169010   1.913   0.600  13.115
15865TIP3    H269011   1.832   0.475  13.087
15866TIP3   OH269012   3.256   5.176   4.355
15866TIP3    H169013   3.297   5.160   4.270
15866TIP3    H269014   3.214   5.094   4.378
15867TIP3   OH269015   3.704   1.274   3.383
15867TIP3    H169016   3.792   1.235   3.387
15867TIP3    H269017   3.672   1.270   3.473
15868TIP3   OH269018   5.441   3.004  14.133
15868TIP3    H169019   5.517   2.952  14.108
15868TIP3    H269020   5.422   3.058  14.056
15869TIP3   OH269021   6.753   3.187   3.604
15869TIP3    H169022   6.661   3.210   3.592
15869TIP3    H269023   6.753   3.091   3.611
15870TIP3   OH269024   3.998   4.762   5.986
15870TIP3    H169025   3.937   4.805   5.926
15870TIP3    H269026   4.040   4.835   6.033
15871TIP3   OH269027   1.692   0.098   4.340
15871TIP3    H169028   1.605   0.057   4.332
15871TIP3    H269029   1.677   0.190   4.317
15872TIP3   OH269030   2.550   5.748   3.872
15872TIP3    H169031   2.565   5.658   3.898
15872TIP3    H269032   2.628   5.773   3.823
15873TIP3   OH269033   2.647   5.240   2.456
15873TIP3    H169034   2.561   5.215   2.489
15873TIP3    H269035   2.649   5.207   2.366
15874TIP3   OH269036   3.856   0.833  11.370
15874TIP3    H169037   3.943   0.793  11.374
15874TIP3    H269038   3.856   0.898  11.440
15875TIP3   OH269039   5.229   2.912  15.388
15875TIP3    H169040   5.192   2.826  15.371
15875TIP3    H269041   5.166   2.955  15.446
15876TIP3   OH269042   5.621   5.379   1.634
15876TIP3    H169043   5.646   5.426   1.555
15876TIP3    H269044   5.583   5.297   1.603
15877TIP3   OH269045   6.752   0.356  13.648
15877TIP3    H169046   6.729   0.286  13.709
15877TIP3    H269047   6.669   0.385  13.611
15878TIP3   OH269048   4.127   3.663   1.826
15878TIP3    H169049   4.181   3.730   1.868
15878TIP3    H269050   4.060   3.712   1.779
15879TIP3   OH269051   1.882   6.130  14.795
15879TIP3    H169052   1.952   6.195  14.797
15879TIP3    H269053   1.894   6.084  14.712
15880TIP3   OH269054   5.760   3.330  13.448
15880TIP3    H169055   5.834   3.297  13.499
15880TIP3    H269056   5.725   3.402  13.501
15881TIP3   OH269057   2.297   2.733  11.396
15881TIP3    H169058   2.239   2.796  11.353
15881TIP3    H269059   2.364   2.714  11.330
15882TIP3   OH269060   0.205   6.084  11.474
15882TIP3    H169061   0.203   6.024  11.400
15882TIP3    H269062   0.133   6.056  11.530
15883TIP3   OH269063   5.704   3.302   0.313
15883TIP3    H169064   5.744   3.307   0.400
15883TIP3    H269065   5.763   3.246   0.263
15884TIP3   OH269066   2.397   3.954  16.048
15884TIP3    H169067   2.363   3.868  16.072
15884TIP3    H269068   2.491   3.940  16.035
15885TIP3   OH269069   2.058   3.956   3.510
15885TIP3    H169070   2.126   3.997   3.563
15885TIP3    H269071   2.031   3.880   3.561
15886TIP3   OH269072   3.609   6.314   3.146
15886TIP3    H169073   3.634   6.316   3.239
15886TIP3    H269074   3.569   6.228   3.134
15887TIP3   OH269075   0.578   4.283   0.811
15887TIP3    H169076   0.648   4.267   0.748
15887TIP3    H269077   0.498   4.286   0.759
15888TIP3   OH269078   4.820   4.714   1.150
15888TIP3    H169079   4.725   4.720   1.162
15888TIP3    H269080   4.831   4.664   1.069
15889TIP3   OH269081   4.419   3.552   4.450
15889TIP3    H169082   4.463   3.610   4.513
15889TIP3    H269083   4.327   3.575   4.456
15890TIP3   OH269084   3.239   6.116   4.861
15890TIP3    H169085   3.165   6.135   4.918
15890TIP3    H269086   3.289   6.049   4.908
15891TIP3   OH269087   4.826   5.450   1.710
15891TIP3    H169088   4.763   5.521   1.724
15891TIP3    H269089   4.905   5.495   1.678
15892TIP3   OH269090   2.301   3.164  12.313
15892TIP3    H169091   2.337   3.192  12.397
15892TIP3    H269092   2.208   3.183  12.320
15893TIP3   OH269093   1.137   1.456  15.140
15893TIP3    H169094   1.152   1.491  15.227
15893TIP3    H269095   1.057   1.500  15.110
15894TIP3   OH269096   2.521   0.436   1.181
15894TIP3    H169097   2.515   0.503   1.249
15894TIP3    H269098   2.582   0.371   1.216
15895TIP3   OH269099   3.413   6.412   0.082
15895TIP3    H169100   3.486   6.367   0.124
15895TIP3    H269101   3.413   6.380  -0.008
15896TIP3   OH269102   2.517   1.054   4.402
15896TIP3    H169103   2.579   1.123   4.376
15896TIP3    H269104   2.443   1.102   4.438
15897TIP3   OH269105   5.048   5.966  16.624
15897TIP3    H169106   5.079   6.039  16.677
15897TIP3    H269107   5.119   5.950  16.562
15898TIP3   OH269108   0.004   4.971  16.802
15898TIP3    H169109   0.009   4.877  16.783
15898TIP3    H269110  -0.027   5.010  16.720
15899TIP3   OH269111   6.544   1.935  16.347
15899TIP3    H169112   6.532   2.022  16.385
15899TIP3    H269113   6.600   1.949  16.271
15900TIP3   OH269114   1.256   1.331  15.537
15900TIP3    H169115   1.318   1.364  15.602
15900TIP3    H269116   1.306   1.267  15.487
15901TIP3   OH269117   2.049   6.659   3.876
15901TIP3    H169118   2.110   6.586   3.866
15901TIP3    H269119   2.073   6.700   3.959
15902TIP3   OH269120   0.425   5.253   5.697
15902TIP3    H169121   0.372   5.323   5.736
15902TIP3    H269122   0.464   5.208   5.773
15903TIP3   OH269123   0.815   5.194  16.195
15903TIP3    H169124   0.753   5.240  16.252
15903TIP3    H269125   0.826   5.253  16.120
15904TIP3   OH269126   2.304   6.659  16.562
15904TIP3    H169127   2.304   6.640  16.656
15904TIP3    H269128   2.236   6.603  16.526
15905TIP3   OH269129   1.216   3.245   2.848
15905TIP3    H169130   1.305   3.223   2.821
15905TIP3    H269131   1.187   3.169   2.898
15906TIP3   OH269132   4.483   3.328   0.376
15906TIP3    H169133   4.467   3.420   0.355
15906TIP3    H269134   4.572   3.327   0.410
15907TIP3   OH269135   4.722   3.800   1.268
15907TIP3    H169136   4.647   3.766   1.218
15907TIP3    H269137   4.797   3.785   1.211
15908TIP3   OH269138   4.518   1.542  15.255
15908TIP3    H169139   4.606   1.575  15.235
15908TIP3    H269140   4.517   1.533  15.350
15909TIP3   OH269141   4.810   1.966  13.183
15909TIP3    H169142   4.753   1.916  13.242
15909TIP3    H269143   4.763   1.965  13.099
15910TIP3   OH269144   5.986   2.660   5.316
15910TIP3    H169145   6.029   2.673   5.401
15910TIP3    H269146   6.055   2.630   5.258
15911TIP3   OH269147   2.922   3.636  13.558
15911TIP3    H169148   2.891   3.686  13.483
15911TIP3    H269149   3.010   3.668  13.574
15912TIP3   OH269150   0.531   5.056   5.046
15912TIP3    H169151   0.555   5.022   4.960
15912TIP3    H269152   0.510   4.978   5.097
15913TIP3   OH269153   4.374   2.821   3.351
15913TIP3    H169154   4.374   2.726   3.340
15913TIP3    H269155   4.281   2.846   3.350
15914TIP3   OH269156   6.384   4.312  13.896
15914TIP3    H169157   6.421   4.378  13.838
15914TIP3    H269158   6.355   4.241  13.838
15915TIP3   OH269159   5.636   0.182   2.568
15915TIP3    H169160   5.701   0.113   2.581
15915TIP3    H269161   5.638   0.199   2.474
15916TIP3   OH269162   6.532   0.810  13.663
15916TIP3    H169163   6.501   0.756  13.736
15916TIP3    H269164   6.627   0.798  13.664
15917TIP3   OH269165   1.603   1.492   0.974
15917TIP3    H169166   1.652   1.436   1.034
15917TIP3    H269167   1.670   1.547   0.932
15918TIP3   OH269168   0.524   2.755  16.663
15918TIP3    H169169   0.584   2.816  16.618
15918TIP3    H269170   0.571   2.728  16.741
15919TIP3   OH269171   5.863   6.054   0.369
15919TIP3    H169172   5.958   6.043   0.368
15919TIP3    H269173   5.847   6.129   0.312
15920TIP3   OH269174   1.229   3.294   0.685
15920TIP3    H169175   1.150   3.348   0.679
15920TIP3    H269176   1.238   3.255   0.599
15921TIP3   OH269177   4.939   0.649   1.088
15921TIP3    H169178   4.900   0.561   1.096
15921TIP3    H269179   4.938   0.666   0.994
15922TIP3   OH269180   5.583   1.462  16.036
15922TIP3    H169181   5.627   1.496  16.113
15922TIP3    H269182   5.496   1.499  16.039
15923TIP3   OH269183   6.737   0.389  14.690
15923TIP3    H169184   6.795   0.443  14.637
15923TIP3    H269185   6.758   0.413  14.781
15924TIP3   OH269186   4.045   4.199  16.509
15924TIP3    H169187   3.968   4.154  16.475
15924TIP3    H269188   4.118   4.166  16.457
15925TIP3   OH269189   3.229   2.561  12.256
15925TIP3    H169190   3.257   2.650  12.235
15925TIP3    H269191   3.238   2.514  12.173
15926TIP3   OH269192   5.410   0.151   2.210
15926TIP3    H169193   5.408   0.233   2.259
15926TIP3    H269194   5.502   0.140   2.186
15927TIP3   OH269195   1.965   1.312   2.842
15927TIP3    H169196   2.015   1.237   2.812
15927TIP3    H269197   1.878   1.277   2.861
15928TIP3   OH269198   4.305   0.666  13.276
15928TIP3    H169199   4.217   0.702  13.284
15928TIP3    H269200   4.362   0.742  13.264
15929TIP3   OH269201   3.413   5.057   4.145
15929TIP3    H169202   3.480   5.124   4.135
15929TIP3    H269203   3.425   4.999   4.070
15930TIP3   OH269204   1.915   0.301   0.460
15930TIP3    H169205   1.973   0.364   0.502
15930TIP3    H269206   1.971   0.224   0.444
15931TIP3   OH269207   4.078   3.506   5.030
15931TIP3    H169208   4.127   3.584   5.056
15931TIP3    H269209   4.109   3.437   5.090
15932TIP3   OH269210   1.136   3.221  16.857
15932TIP3    H169211   1.218   3.171  16.849
15932TIP3    H269212   1.160   3.310  16.830
15933TIP3   OH269213   2.305   2.327   1.196
15933TIP3    H169214   2.361   2.380   1.253
15933TIP3    H269215   2.310   2.370   1.110
15934TIP3   OH269216   1.492   5.750   3.943
15934TIP3    H169217   1.478   5.769   4.036
15934TIP3    H269218   1.586   5.767   3.930
15935TIP3   OH269219   5.843   1.193   3.564
15935TIP3    H169220   5.859   1.120   3.505
15935TIP3    H269221   5.930   1.233   3.577
15936TIP3   OH269222   1.374   4.036  13.750
15936TIP3    H169223   1.293   4.032  13.699
15936TIP3    H269224   1.393   3.944  13.770
15937TIP3   OH269225   4.855   0.337  15.451
15937TIP3    H169226   4.808   0.287  15.385
15937TIP3    H269227   4.948   0.324  15.430
15938TIP3   OH269228   1.782   2.780   5.396
15938TIP3    H169229   1.740   2.700   5.429
15938TIP3    H269230   1.855   2.749   5.343
15939TIP3   OH269231   6.034   4.178   5.634
15939TIP3    H169232   5.951   4.150   5.674
15939TIP3    H269233   6.101   4.144   5.693
15940TIP3   OH269234   6.708   0.875   0.548
15940TIP3    H169235   6.630   0.891   0.602
15940TIP3    H269236   6.696   0.787   0.513
15941TIP3   OH269237   1.580   2.837  13.850
15941TIP3    H169238   1.607   2.867  13.764
15941TIP3    H269239   1.501   2.888  13.870
15942TIP3   OH269240   1.239   6.364   4.386
15942TIP3    H169241   1.239   6.438   4.446
15942TIP3    H269242   1.331   6.340   4.378
15943TIP3   OH269243   4.845   3.638  12.733
15943TIP3    H169244   4.856   3.637  12.828
15943TIP3    H269245   4.833   3.730  12.711
15944TIP3   OH269246   1.886   0.784   1.402
15944TIP3    H169247   1.861   0.872   1.376
15944TIP3    H269248   1.923   0.745   1.323
15945TIP3   OH269249   1.729   4.713  16.253
15945TIP3    H169250   1.733   4.617  16.253
15945TIP3    H269251   1.642   4.733  16.289
15946TIP3   OH269252   3.077   2.997   0.806
15946TIP3    H169253   3.002   3.009   0.864
15946TIP3    H269254   3.041   3.003   0.718
15947TIP3   OH269255   0.824   3.819   5.006
15947TIP3    H169256   0.852   3.746   5.061
15947TIP3    H269257   0.751   3.859   5.053
15948TIP3   OH269258   1.864   3.160   3.676
15948TIP3    H169259   1.905   3.207   3.603
15948TIP3    H269260   1.883   3.068   3.659
15949TIP3   OH269261   4.782   4.263  17.169
15949TIP3    H169262   4.717   4.232  17.232
15949TIP3    H269263   4.802   4.186  17.116
15950TIP3   OH269264   5.344   5.169  15.835
15950TIP3    H169265   5.436   5.171  15.864
15950TIP3    H269266   5.340   5.096  15.774
15951TIP3   OH269267   2.180   6.623   5.842
15951TIP3    H169268   2.258   6.647   5.891
15951TIP3    H269269   2.212   6.607   5.753
15952TIP3   OH269270   6.698   5.454   6.341
15952TIP3    H169271   6.671   5.493   6.425
15952TIP3    H269272   6.637   5.491   6.277
15953TIP3   OH269273   4.703   1.506   3.188
15953TIP3    H169274   4.713   1.417   3.222
15953TIP3    H269275   4.612   1.510   3.158
15954TIP3   OH269276   4.555   4.955  15.731
15954TIP3    H169277   4.650   4.940  15.736
15954TIP3    H269278   4.524   4.891  15.666
15955TIP3   OH269279   1.059   3.288   4.373
15955TIP3    H169280   1.099   3.311   4.457
15955TIP3    H269281   0.966   3.309   4.384
15956TIP3   OH269282   0.018   4.338   1.361
15956TIP3    H169283  -0.056   4.304   1.311
15956TIP3    H269284   0.070   4.387   1.297
15957TIP3   OH269285   4.607   3.727  14.500
15957TIP3    H169286   4.587   3.666  14.571
15957TIP3    H269287   4.539   3.711  14.435
15958TIP3   OH269288   1.681   0.638   1.087
15958TIP3    H169289   1.643   0.598   1.165
15958TIP3    H269290   1.775   0.630   1.099
15959TIP3   OH269291   6.569   5.466   0.912
15959TIP3    H169292   6.492   5.408   0.912
15959TIP3    H269293   6.619   5.440   0.989
15960TIP3   OH269294   4.493   3.254   3.117
15960TIP3    H169295   4.508   3.264   3.211
15960TIP3    H269296   4.423   3.317   3.097
15961TIP3   OH269297   1.358   3.085  16.893
15961TIP3    H169298   1.393   3.168  16.924
15961TIP3    H269299   1.317   3.046  16.970
15962TIP3   OH269300   0.163   2.263   3.210
15962TIP3    H169301   0.191   2.179   3.247
15962TIP3    H269302   0.076   2.278   3.248
15963TIP3   OH269303   4.526   4.285   3.733
15963TIP3    H169304   4.565   4.317   3.651
15963TIP3    H269305   4.431   4.285   3.716
15964TIP3   OH269306   6.293   3.239  14.553
15964TIP3    H169307   6.257   3.201  14.473
15964TIP3    H269308   6.220   3.238  14.615
15965TIP3   OH269309   0.584   5.425  14.573
15965TIP3    H169310   0.507   5.370  14.579
15965TIP3    H269311   0.633   5.408  14.654
15966TIP3   OH269312   2.565   5.775  12.754
15966TIP3    H169313   2.504   5.756  12.683
15966TIP3    H269314   2.651   5.771  12.713
15967TIP3   OH269315   0.088   6.222  15.772
15967TIP3    H169316   0.157   6.179  15.823
15967TIP3    H269317   0.107   6.196  15.681
15968TIP3   OH269318   2.008   4.918   6.013
15968TIP3    H169319   2.037   4.939   6.101
15968TIP3    H269320   2.046   4.832   5.994
15969TIP3   OH269321   4.387   2.992  15.453
15969TIP3    H169322   4.331   3.052  15.502
15969TIP3    H269323   4.430   2.938  15.520
15970TIP3   OH269324   0.089   0.467   1.098
15970TIP3    H169325   0.032   0.509   1.034
15970TIP3    H269326   0.173   0.457   1.052
15971TIP3   OH269327   1.139   4.173   5.571
15971TIP3    H169328   1.095   4.247   5.530
15971TIP3    H269329   1.074   4.136   5.630
15972TIP3   OH269330   6.116   1.355   3.550
15972TIP3    H169331   6.167   1.330   3.473
15972TIP3    H269332   6.182   1.376   3.616
15973TIP3   OH269333   0.401   4.277   1.597
15973TIP3    H169334   0.446   4.220   1.660
15973TIP3    H269335   0.407   4.229   1.514
15974TIP3   OH269336   6.151   5.693  13.551
15974TIP3    H169337   6.205   5.719  13.625
15974TIP3    H269338   6.065   5.675  13.589
15975TIP3   OH269339   6.005   2.953  12.707
15975TIP3    H169340   5.992   3.041  12.742
15975TIP3    H269341   6.093   2.955  12.669
15976TIP3   OH269342   4.771   0.111  13.297
15976TIP3    H169343   4.711   0.104  13.371
15976TIP3    H269344   4.854   0.137  13.335
15977TIP3   OH269345   6.700   6.754   1.004
15977TIP3    H169346   6.762   6.694   1.044
15977TIP3    H269347   6.614   6.717   1.024
15978TIP3   OH269348   4.372   4.193   5.777
15978TIP3    H169349   4.319   4.213   5.854
15978TIP3    H269350   4.392   4.278   5.739
15979TIP3   OH269351   4.115   6.236   3.484
15979TIP3    H169352   4.099   6.144   3.505
15979TIP3    H269353   4.207   6.239   3.459
15980TIP3   OH269354   5.668   5.775  14.728
15980TIP3    H169355   5.743   5.735  14.773
15980TIP3    H269356   5.697   5.785  14.637
15981TIP3   OH269357   1.618   5.280   0.213
15981TIP3    H169358   1.608   5.185   0.202
15981TIP3    H269359   1.712   5.294   0.210
15982TIP3   OH269360   4.025   4.198   2.419
15982TIP3    H169361   3.986   4.183   2.333
15982TIP3    H269362   3.955   4.237   2.471
15983TIP3   OH269363   3.952   1.625   3.954
15983TIP3    H169364   3.954   1.673   4.037
15983TIP3    H269365   3.907   1.543   3.973
15984TIP3   OH269366   3.112   1.439  14.473
15984TIP3    H169367   3.168   1.513  14.495
15984TIP3    H269368   3.070   1.464  14.391
15985TIP3   OH269369   1.761   0.580   4.970
15985TIP3    H169370   1.843   0.563   4.923
15985TIP3    H269371   1.764   0.674   4.990
15986TIP3   OH269372   1.207   3.775   2.361
15986TIP3    H169373   1.188   3.681   2.367
15986TIP3    H269374   1.301   3.782   2.375
15987TIP3   OH269375   1.831   1.541  16.220
15987TIP3    H169376   1.885   1.521  16.297
15987TIP3    H269377   1.894   1.561  16.152
15988TIP3   OH269378   2.456   0.177   2.919
15988TIP3    H169379   2.394   0.165   2.847
15988TIP3    H269380   2.446   0.269   2.944
15989TIP3   OH269381   5.395   5.596  16.347
15989TIP3    H169382   5.315   5.596  16.400
15989TIP3    H269383   5.393   5.511  16.302
15990TIP3   OH269384   5.644   0.729   3.060
15990TIP3    H169385   5.723   0.736   3.113
15990TIP3    H269386   5.649   0.642   3.020
15991TIP3   OH269387   1.097   4.875   4.990
15991TIP3    H169388   1.129   4.950   4.941
15991TIP3    H269389   1.031   4.910   5.050
15992TIP3   OH269390   5.423   6.300  14.172
15992TIP3    H169391   5.452   6.211  14.192
15992TIP3    H269392   5.493   6.336  14.118
15993TIP3   OH269393   4.803   5.809   0.032
15993TIP3    H169394   4.813   5.745   0.103
15993TIP3    H269395   4.858   5.776  -0.039
15994TIP3   OH269396   4.577   3.951   0.977
15994TIP3    H169397   4.510   3.889   0.949
15994TIP3    H269398   4.643   3.898   1.022
15995TIP3   OH269399   3.687   2.820  10.980
15995TIP3    H169400   3.708   2.734  10.942
15995TIP3    H269401   3.616   2.854  10.925
15996TIP3   OH269402   6.578   3.330  16.466
15996TIP3    H169403   6.635   3.399  16.499
15996TIP3    H269404   6.500   3.334  16.521
15997TIP3   OH269405   5.293   3.374  14.344
15997TIP3    H169406   5.295   3.439  14.274
15997TIP3    H269407   5.383   3.370  14.376
15998TIP3   OH269408   1.497   0.130  15.808
15998TIP3    H169409   1.520   0.100  15.896
15998TIP3    H269410   1.403   0.144  15.811
15999TIP3   OH269411   0.555   0.172   0.923
15999TIP3    H169412   0.636   0.126   0.944
15999TIP3    H269413   0.485   0.113   0.950
16000TIP3   OH269414   2.314   5.123   1.827
16000TIP3    H169415   2.313   5.206   1.874
16000TIP3    H269416   2.324   5.057   1.896
16001TIP3   OH269417   0.730   6.039  11.270
16001TIP3    H169418   0.753   6.132  11.269
16001TIP3    H269419   0.815   5.994  11.270
16002TIP3   OH269420   6.483   2.371  16.831
16002TIP3    H169421   6.390   2.367  16.851
16002TIP3    H269422   6.494   2.451  16.780
16003TIP3   OH269423   3.859   5.072  13.279
16003TIP3    H169424   3.800   5.123  13.335
16003TIP3    H269425   3.849   4.982  13.310
16004TIP3   OH269426   4.556   0.027  10.456
16004TIP3    H169427   4.496   0.038  10.530
16004TIP3    H269428   4.632  -0.017  10.493
16005TIP3   OH269429   4.367   4.592   2.218
16005TIP3    H169430   4.455   4.563   2.242
16005TIP3    H269431   4.378   4.683   2.188
16006TIP3   OH269432   1.974   3.861  15.300
16006TIP3    H169433   1.998   3.905  15.218
16006TIP3    H269434   1.883   3.833  15.286
16007TIP3   OH269435   0.026   0.298  13.307
16007TIP3    H169436   0.002   0.239  13.236
16007TIP3    H269437  -0.055   0.341  13.332
16008TIP3   OH269438   2.692   0.232   6.416
16008TIP3    H169439   2.783   0.238   6.386
16008TIP3    H269440   2.640   0.227   6.335
16009TIP3   OH269441   1.982   5.628   2.126
16009TIP3    H169442   2.017   5.568   2.191
16009TIP3    H269443   1.989   5.715   2.166
16010TIP3   OH269444   6.694   2.783  16.143
16010TIP3    H169445   6.676   2.690  16.146
16010TIP3    H269446   6.787   2.789  16.122
16011TIP3   OH269447   1.956   6.047   5.876
16011TIP3    H169448   1.954   6.071   5.968
16011TIP3    H269449   2.041   6.006   5.864
16012TIP3   OH269450   5.838   0.201   1.416
16012TIP3    H169451   5.795   0.220   1.333
16012TIP3    H269452   5.766   0.182   1.476
16013TIP3   OH269453   0.489   3.705   0.693
16013TIP3    H169454   0.583   3.727   0.694
16013TIP3    H269455   0.449   3.775   0.641
16014TIP3   OH269456   2.051   0.408   2.154
16014TIP3    H169457   2.097   0.380   2.233
16014TIP3    H269458   2.016   0.327   2.117
16015TIP3   OH269459   0.859   1.412  16.198
16015TIP3    H169460   0.832   1.321  16.192
16015TIP3    H269461   0.804   1.458  16.134
16016TIP3   OH269462   3.704   5.636  11.149
16016TIP3    H169463   3.675   5.603  11.064
16016TIP3    H269464   3.624   5.656  11.196
16017TIP3   OH269465   4.147   3.587  13.820
16017TIP3    H169466   4.215   3.555  13.760
16017TIP3    H269467   4.193   3.602  13.902
16018TIP3   OH269468   0.719   0.363   1.824
16018TIP3    H169469   0.676   0.330   1.745
16018TIP3    H269470   0.694   0.455   1.829
16019TIP3   OH269471   3.779   0.121  12.073
16019TIP3    H169472   3.796   0.106  11.980
16019TIP3    H269473   3.857   0.087  12.117
16020TIP3   OH269474   5.294   3.285   4.747
16020TIP3    H169475   5.303   3.307   4.839
16020TIP3    H269476   5.383   3.275   4.715
16021TIP3   OH269477   1.743   2.868   2.086
16021TIP3    H169478   1.658   2.838   2.119
16021TIP3    H269479   1.747   2.960   2.110
16022TIP3   OH269480   4.193   1.546  13.046
16022TIP3    H169481   4.148   1.467  13.015
16022TIP3    H269482   4.227   1.587  12.966
16023TIP3   OH269483   0.614   1.317  15.248
16023TIP3    H169484   0.613   1.225  15.276
16023TIP3    H269485   0.588   1.314  15.155
16024TIP3   OH269486   5.203   4.975   2.470
16024TIP3    H169487   5.256   5.005   2.397
16024TIP3    H269488   5.123   5.027   2.467
16025TIP3   OH269489   0.605   3.559   6.287
16025TIP3    H169490   0.620   3.477   6.239
16025TIP3    H269491   0.540   3.535   6.354
16026TIP3   OH269492   3.723   0.015  16.127
16026TIP3    H169493   3.658  -0.049  16.156
16026TIP3    H269494   3.738  -0.006  16.035
16027TIP3   OH269495   0.888   3.798  16.593
16027TIP3    H169496   0.894   3.859  16.667
16027TIP3    H269497   0.961   3.821  16.536
16028TIP3   OH269498   6.316   5.852   3.394
16028TIP3    H169499   6.268   5.875   3.473
16028TIP3    H269500   6.348   5.936   3.360
16029TIP3   OH269501   3.822   2.025   1.087
16029TIP3    H169502   3.805   2.025   1.182
16029TIP3    H269503   3.885   1.954   1.074
16030TIP3   OH269504   2.562   2.508   4.830
16030TIP3    H169505   2.639   2.492   4.776
16030TIP3    H269506   2.581   2.588   4.877
16031TIP3   OH269507   5.324   5.754  16.678
16031TIP3    H169508   5.256   5.716  16.624
16031TIP3    H269509   5.405   5.737  16.630
16032TIP3   OH269510   1.938   6.191   1.817
16032TIP3    H169511   1.848   6.162   1.832
16032TIP3    H269512   1.937   6.285   1.836
16033TIP3   OH269513   0.298   6.260  17.228
16033TIP3    H169514   0.269   6.350  17.242
16033TIP3    H269515   0.222   6.207  17.249
16034TIP3   OH269516   2.062   5.398   4.825
16034TIP3    H169517   1.974   5.373   4.796
16034TIP3    H269518   2.047   5.474   4.882
16035TIP3   OH269519   4.519   5.263  15.235
16035TIP3    H169520   4.560   5.349  15.222
16035TIP3    H269521   4.518   5.251  15.329
16036TIP3   OH269522   5.853   3.493  10.725
16036TIP3    H169523   5.920   3.558  10.746
16036TIP3    H269524   5.799   3.534  10.657
16037TIP3   OH269525   4.080   0.451  12.189
16037TIP3    H169526   4.148   0.386  12.210
16037TIP3    H269527   4.088   0.464  12.095
16038TIP3   OH269528   1.451   5.016   2.211
16038TIP3    H169529   1.385   4.948   2.195
16038TIP3    H269530   1.464   5.057   2.126
16039TIP3   OH269531   0.225   1.057   2.193
16039TIP3    H169532   0.158   1.075   2.127
16039TIP3    H269533   0.300   1.110   2.167
16040TIP3   OH269534   3.953   5.557   5.703
16040TIP3    H169535   4.004   5.498   5.759
16040TIP3    H269536   3.891   5.500   5.657
16041TIP3   OH269537   4.607   1.555  12.477
16041TIP3    H169538   4.702   1.549  12.481
16041TIP3    H269539   4.580   1.483  12.421
16042TIP3   OH269540   1.991   5.659   2.852
16042TIP3    H169541   1.983   5.635   2.760
16042TIP3    H269542   2.057   5.599   2.887
16043TIP3   OH269543   2.327   1.861  15.562
16043TIP3    H169544   2.276   1.834  15.639
16043TIP3    H269545   2.314   1.956  15.557
16044TIP3   OH269546   5.641   3.528   1.196
16044TIP3    H169547   5.729   3.553   1.165
16044TIP3    H269548   5.633   3.436   1.174
16045TIP3   OH269549   0.364   2.768  17.086
16045TIP3    H169550   0.371   2.811  17.171
16045TIP3    H269551   0.438   2.707  17.083
16046TIP3   OH269552   0.186   2.377   5.126
16046TIP3    H169553   0.258   2.334   5.171
16046TIP3    H269554   0.220   2.464   5.103
16047TIP3   OH269555   0.042   1.503  16.226
16047TIP3    H169556   0.018   1.484  16.136
16047TIP3    H269557  -0.040   1.533  16.267
16048TIP3   OH269558   6.591   2.972  17.100
16048TIP3    H169559   6.685   2.964  17.087
16048TIP3    H269560   6.558   2.883  17.088
16049TIP3   OH269561   2.671   5.451  14.615
16049TIP3    H169562   2.660   5.522  14.552
16049TIP3    H269563   2.759   5.418  14.599
16050TIP3   OH269564   1.179   0.175  16.367
16050TIP3    H169565   1.218   0.121  16.435
16050TIP3    H269566   1.086   0.153  16.369
16051TIP3   OH269567   4.121   0.701  16.241
16051TIP3    H169568   4.102   0.633  16.306
16051TIP3    H269569   4.180   0.660  16.179
16052TIP3   OH269570   2.343   0.553   0.752
16052TIP3    H169571   2.275   0.485   0.751
16052TIP3    H269572   2.362   0.569   0.659
16053TIP3   OH269573   4.833   0.394  15.874
16053TIP3    H169574   4.790   0.414  15.958
16053TIP3    H269575   4.764   0.357  15.820
16054TIP3   OH269576   6.634   0.853  13.048
16054TIP3    H169577   6.572   0.866  12.976
16054TIP3    H269578   6.663   0.941  13.071
16055TIP3   OH269579   0.754   5.088  13.855
16055TIP3    H169580   0.755   5.012  13.913
16055TIP3    H269581   0.746   5.163  13.914
16056TIP3   OH269582   1.174   1.954  17.201
16056TIP3    H169583   1.213   1.894  17.138
16056TIP3    H269584   1.111   2.005  17.150
16057TIP3   OH269585   2.045   6.755   2.565
16057TIP3    H169586   1.968   6.794   2.605
16057TIP3    H269587   2.087   6.706   2.636
16058TIP3   OH269588   5.604   4.964   3.824
16058TIP3    H169589   5.624   4.923   3.908
16058TIP3    H269590   5.687   5.003   3.796
16059TIP3   OH269591   2.393   0.595  15.521
16059TIP3    H169592   2.460   0.528  15.506
16059TIP3    H269593   2.326   0.551  15.573
16060TIP3   OH269594   3.982   0.148  14.465
16060TIP3    H169595   3.992   0.055  14.443
16060TIP3    H269596   3.892   0.169  14.438
16061TIP3   OH269597   2.223   6.440   1.948
16061TIP3    H169598   2.240   6.439   2.042
16061TIP3    H269599   2.266   6.360   1.916
16062TIP3   OH269600   2.149   4.302   1.068
16062TIP3    H169601   2.237   4.265   1.055
16062TIP3    H269602   2.115   4.256   1.144
16063TIP3   OH269603   3.825   1.931  16.899
16063TIP3    H169604   3.866   2.003  16.947
16063TIP3    H269605   3.837   1.854  16.955
16064TIP3   OH269606   4.142   1.346   3.643
16064TIP3    H169607   4.113   1.296   3.720
16064TIP3    H269608   4.109   1.434   3.657
16065TIP3   OH269609   1.242   3.503  13.677
16065TIP3    H169610   1.197   3.559  13.740
16065TIP3    H269611   1.273   3.429  13.729
16066TIP3   OH269612   0.916   4.774   3.312
16066TIP3    H169613   0.835   4.825   3.306
16066TIP3    H269614   0.982   4.838   3.338
16067TIP3   OH269615   1.598   6.368  10.408
16067TIP3    H169616   1.637   6.289  10.446
16067TIP3    H269617   1.515   6.378  10.456
16068TIP3   OH269618   1.323   3.785  15.076
16068TIP3    H169619   1.292   3.794  15.166
16068TIP3    H269620   1.394   3.721  15.081
16069TIP3   OH269621   3.896   6.287  15.397
16069TIP3    H169622   3.914   6.331  15.481
16069TIP3    H269623   3.982   6.264  15.363
16070TIP3   OH269624   1.901   0.069   4.491
16070TIP3    H169625   1.872  -0.019   4.515
16070TIP3    H269626   1.846   0.093   4.416
16071TIP3   OH269627   3.091   1.612  11.035
16071TIP3    H169628   3.167   1.639  11.087
16071TIP3    H269629   3.016   1.637  11.089
16072TIP3   OH269630   0.406   3.075  14.401
16072TIP3    H169631   0.447   3.130  14.334
16072TIP3    H269632   0.479   3.034  14.447
16073TIP3   OH269633   2.291   5.032   2.883
16073TIP3    H169634   2.331   5.049   2.797
16073TIP3    H269635   2.295   4.937   2.892
16074TIP3   OH269636   2.567   5.697  11.233
16074TIP3    H169637   2.584   5.721  11.142
16074TIP3    H269638   2.482   5.653  11.231
16075TIP3   OH269639   6.649   0.328  14.408
16075TIP3    H169640   6.699   0.268  14.352
16075TIP3    H269641   6.683   0.312  14.496
16076TIP3   OH269642   5.206   4.413   0.014
16076TIP3    H169643   5.159   4.484  -0.029
16076TIP3    H269644   5.253   4.369  -0.057
16077TIP3   OH269645   3.589   4.378  13.264
16077TIP3    H169646   3.497   4.352  13.266
16077TIP3    H269647   3.610   4.401  13.354
16078TIP3   OH269648   5.095   2.045   5.031
16078TIP3    H169649   5.155   2.105   5.075
16078TIP3    H269650   5.133   1.958   5.047
16079TIP3   OH269651   5.517   1.426   4.768
16079TIP3    H169652   5.532   1.352   4.709
16079TIP3    H269653   5.550   1.502   4.721
16080TIP3   OH269654   2.418   4.997   3.396
16080TIP3    H169655   2.503   5.042   3.398
16080TIP3    H269656   2.370   5.039   3.325
16081TIP3   OH269657   0.558   5.846   0.722
16081TIP3    H169658   0.589   5.821   0.635
16081TIP3    H269659   0.529   5.763   0.762
16082TIP3   OH269660   1.412   3.831  16.220
16082TIP3    H169661   1.493   3.866  16.257
16082TIP3    H269662   1.429   3.829  16.125
16083TIP3   OH269663   6.195   2.287  15.697
16083TIP3    H169664   6.252   2.325  15.763
16083TIP3    H269665   6.255   2.244  15.636
16084TIP3   OH269666   0.504   0.884  16.701
16084TIP3    H169667   0.581   0.896  16.645
16084TIP3    H269668   0.536   0.832  16.774
16085TIP3   OH269669   3.262   0.706   5.352
16085TIP3    H169670   3.278   0.714   5.257
16085TIP3    H269671   3.168   0.722   5.362
16086TIP3   OH269672   1.822   5.418  13.659
16086TIP3    H169673   1.845   5.460  13.576
16086TIP3    H269674   1.779   5.488  13.710
16087TIP3   OH269675   3.757   2.116   3.202
16087TIP3    H169676   3.744   2.031   3.161
16087TIP3    H269677   3.796   2.096   3.287
16088TIP3   OH269678   2.357   5.578  12.102
16088TIP3    H169679   2.395   5.574  12.190
16088TIP3    H269680   2.420   5.629  12.051
16089TIP3   OH269681   5.578   4.550  16.537
16089TIP3    H169682   5.612   4.607  16.468
16089TIP3    H269683   5.643   4.556  16.607
16090TIP3   OH269684   5.845   3.751  17.108
16090TIP3    H169685   5.939   3.739  17.095
16090TIP3    H269686   5.805   3.705  17.034
16091TIP3   OH269687   4.575   5.044  14.954
16091TIP3    H169688   4.514   5.117  14.948
16091TIP3    H269689   4.630   5.064  15.030
16092TIP3   OH269690   0.445   2.392  16.870
16092TIP3    H169691   0.483   2.466  16.823
16092TIP3    H269692   0.506   2.375  16.942
16093TIP3   OH269693   5.734   6.053  15.425
16093TIP3    H169694   5.772   5.993  15.361
16093TIP3    H269695   5.774   6.026  15.508
16094TIP3   OH269696   0.566   0.405   1.555
16094TIP3    H169697   0.493   0.461   1.530
16094TIP3    H269698   0.643   0.447   1.516
16095TIP3   OH269699   3.891   5.744  11.577
16095TIP3    H169700   3.807   5.766  11.536
16095TIP3    H269701   3.879   5.765  11.669
16096TIP3   OH269702   6.674   2.555  11.472
16096TIP3    H169703   6.619   2.539  11.396
16096TIP3    H269704   6.661   2.648  11.492
16097TIP3   OH269705   0.509   4.200  14.082
16097TIP3    H169706   0.563   4.213  14.160
16097TIP3    H269707   0.456   4.279  14.075
16098TIP3   OH269708   4.637   1.376   2.043
16098TIP3    H169709   4.603   1.363   1.954
16098TIP3    H269710   4.704   1.308   2.053
16099TIP3   OH269711   2.200   6.191   2.262
16099TIP3    H169712   2.152   6.274   2.259
16099TIP3    H269713   2.147   6.131   2.210
16100TIP3   OH269714   6.722   2.638  15.632
16100TIP3    H169715   6.683   2.723  15.613
16100TIP3    H269716   6.807   2.641  15.588
16101TIP3   OH269717   0.214   5.780   4.355
16101TIP3    H169718   0.230   5.694   4.316
16101TIP3    H269719   0.294   5.829   4.338
16102TIP3   OH269720   5.878   0.352   1.829
16102TIP3    H169721   5.947   0.315   1.884
16102TIP3    H269722   5.801   0.298   1.846
16103TIP3   OH269723   0.876   3.818  15.527
16103TIP3    H169724   0.792   3.863  15.530
16103TIP3    H269725   0.935   3.873  15.578
16104TIP3   OH269726   3.447   4.929  10.805
16104TIP3    H169727   3.459   4.953  10.713
16104TIP3    H269728   3.536   4.912  10.837
16105TIP3   OH269729   5.955   5.991  15.654
16105TIP3    H169730   5.987   6.064  15.708
16105TIP3    H269731   5.922   5.928  15.718
16106TIP3   OH269732   3.258   6.694  16.293
16106TIP3    H169733   3.228   6.693  16.202
16106TIP3    H269734   3.178   6.709  16.345
16107TIP3   OH269735   4.678   2.074   5.773
16107TIP3    H169736   4.702   2.161   5.741
16107TIP3    H269737   4.751   2.048   5.829
16108TIP3   OH269738   6.677   6.361   4.964
16108TIP3    H169739   6.724   6.277   4.975
16108TIP3    H269740   6.585   6.336   4.958
16109TIP3   OH269741   1.342   5.573   0.446
16109TIP3    H169742   1.254   5.535   0.450
16109TIP3    H269743   1.354   5.594   0.353
16110TIP3   OH269744   1.660   0.000  13.882
16110TIP3    H169745   1.702  -0.078  13.847
16110TIP3    H269746   1.621   0.043  13.805
16111TIP3   OH269747   5.202   2.375   3.543
16111TIP3    H169748   5.181   2.348   3.633
16111TIP3    H269749   5.231   2.294   3.501
16112TIP3   OH269750   3.558   0.168  13.223
16112TIP3    H169751   3.531   0.179  13.132
16112TIP3    H269752   3.477   0.158  13.272
16113TIP3   OH269753   3.868   0.942  13.666
16113TIP3    H169754   3.811   0.878  13.622
16113TIP3    H269755   3.831   0.949  13.754
16114TIP3   OH269756   5.422   3.380   5.718
16114TIP3    H169757   5.496   3.439   5.699
16114TIP3    H269758   5.463   3.299   5.748
16115TIP3   OH269759   0.304   4.168  12.002
16115TIP3    H169760   0.225   4.207  12.040
16115TIP3    H269761   0.361   4.151  12.077
16116TIP3   OH269762   4.414   1.330   1.265
16116TIP3    H169763   4.494   1.319   1.214
16116TIP3    H269764   4.393   1.241   1.295
16117TIP3   OH269765   3.109   0.424   0.896
16117TIP3    H169766   3.157   0.407   0.815
16117TIP3    H269767   3.033   0.475   0.868
16118TIP3   OH269768   2.111   0.636   1.772
16118TIP3    H169769   2.075   0.564   1.720
16118TIP3    H269770   2.115   0.601   1.861
16119TIP3   OH269771   6.715   4.603   4.949
16119TIP3    H169772   6.661   4.567   5.020
16119TIP3    H269773   6.684   4.693   4.939
16120TIP3   OH269774   4.459   6.320  16.037
16120TIP3    H169775   4.532   6.306  16.097
16120TIP3    H269776   4.416   6.399  16.068
16121TIP3   OH269777   3.601   0.517  13.002
16121TIP3    H169778   3.677   0.475  12.962
16121TIP3    H269779   3.634   0.556  13.083
16122TIP3   OH269780   4.587   4.208   0.917
16122TIP3    H169781   4.677   4.229   0.941
16122TIP3    H269782   4.574   4.118   0.947
16123TIP3   OH269783   6.255   4.598  11.362
16123TIP3    H169784   6.333   4.551  11.331
16123TIP3    H269785   6.264   4.686  11.327
16124TIP3   OH269786   4.048   1.625   0.021
16124TIP3    H169787   4.076   1.577   0.098
16124TIP3    H269788   4.009   1.560  -0.036
16125TIP3   OH269789   0.824   1.422   0.559
16125TIP3    H169790   0.822   1.331   0.588
16125TIP3    H269791   0.858   1.471   0.634
16126TIP3   OH269792   3.416   1.679  16.535
16126TIP3    H169793   3.371   1.615  16.480
16126TIP3    H269794   3.346   1.737  16.566
16127TIP3   OH269795   3.966   1.697  13.659
16127TIP3    H169796   3.947   1.697  13.753
16127TIP3    H269797   3.881   1.706  13.617
16128TIP3   OH269798   4.592   5.268  13.730
16128TIP3    H169799   4.583   5.221  13.647
16128TIP3    H269800   4.661   5.332  13.715
16129TIP3   OH269801   0.579   0.831  14.465
16129TIP3    H169802   0.596   0.924  14.452
16129TIP3    H269803   0.535   0.802  14.385
16130TIP3   OH269804   3.607   4.641   1.397
16130TIP3    H169805   3.691   4.601   1.416
16130TIP3    H269806   3.542   4.577   1.428
16131TIP3   OH269807   2.992   3.609   2.517
16131TIP3    H169808   3.037   3.657   2.448
16131TIP3    H269809   2.950   3.535   2.471
16132TIP3   OH269810   0.341   3.865  10.888
16132TIP3    H169811   0.385   3.950  10.881
16132TIP3    H269812   0.401   3.804  10.845
16133TIP3   OH269813   3.460   2.624   4.238
16133TIP3    H169814   3.409   2.632   4.319
16133TIP3    H269815   3.400   2.653   4.169
16134TIP3   OH269816   5.332   3.672   6.063
16134TIP3    H169817   5.272   3.606   6.099
16134TIP3    H269818   5.411   3.623   6.041
16135TIP3   OH269819   6.285   6.187   0.643
16135TIP3    H169820   6.275   6.273   0.602
16135TIP3    H269821   6.225   6.189   0.717
16136TIP3   OH269822   1.902   1.060  12.180
16136TIP3    H169823   1.946   1.135  12.139
16136TIP3    H269824   1.853   1.098  12.253
16137TIP3   OH269825   6.306   3.263   5.851
16137TIP3    H169826   6.305   3.178   5.895
16137TIP3    H269827   6.228   3.261   5.795
16138TIP3   OH269828   1.227   4.101   1.489
16138TIP3    H169829   1.263   4.021   1.527
16138TIP3    H269830   1.273   4.172   1.535
16139TIP3   OH269831   0.302   6.578  12.641
16139TIP3    H169832   0.288   6.589  12.735
16139TIP3    H269833   0.227   6.526  12.612
16140TIP3   OH269834   2.908   6.640   0.336
16140TIP3    H169835   2.841   6.702   0.305
16140TIP3    H269836   2.897   6.563   0.280
16141TIP3   OH269837   0.923   5.194  13.158
16141TIP3    H169838   0.894   5.252  13.228
16141TIP3    H269839   0.860   5.207  13.087
16142TIP3   OH269840   1.934   6.096  12.452
16142TIP3    H169841   1.877   6.161  12.411
16142TIP3    H269842   1.981   6.056  12.379
16143TIP3   OH269843   0.987   5.403   1.623
16143TIP3    H169844   1.027   5.389   1.537
16143TIP3    H269845   0.935   5.483   1.613
16144TIP3   OH269846   3.635   3.809   1.673
16144TIP3    H169847   3.631   3.796   1.767
16144TIP3    H269848   3.572   3.746   1.638
16145TIP3   OH269849   4.555   0.761  14.920
16145TIP3    H169850   4.557   0.751  14.825
16145TIP3    H269851   4.464   0.784  14.940
16146TIP3   OH269852   2.234   3.013  16.273
16146TIP3    H169853   2.214   3.042  16.184
16146TIP3    H269854   2.175   2.939  16.287
16147TIP3   OH269855   4.921   0.158  12.178
16147TIP3    H169856   4.908   0.233  12.235
16147TIP3    H269857   4.973   0.192  12.105
16148TIP3   OH269858   5.793   0.930   2.356
16148TIP3    H169859   5.778   1.024   2.342
16148TIP3    H269860   5.740   0.887   2.289
16149TIP3   OH269861   5.204   4.404  15.069
16149TIP3    H169862   5.117   4.366  15.059
16149TIP3    H269863   5.264   4.330  15.066
16150TIP3   OH269864   5.241   1.408   0.635
16150TIP3    H169865   5.302   1.457   0.579
16150TIP3    H269866   5.167   1.468   0.646
16151TIP3   OH269867   1.461   4.248  12.230
16151TIP3    H169868   1.501   4.165  12.205
16151TIP3    H269869   1.412   4.276  12.153
16152TIP3   OH269870   4.630   1.912   0.505
16152TIP3    H169871   4.606   1.994   0.462
16152TIP3    H269872   4.558   1.853   0.487
16153TIP3   OH269873   2.161   0.727   5.447
16153TIP3    H169874   2.240   0.779   5.457
16153TIP3    H269875   2.117   0.733   5.532
16154TIP3   OH269876   1.393   3.660  12.886
16154TIP3    H169877   1.395   3.565  12.901
16154TIP3    H269878   1.407   3.699  12.972
16155TIP3   OH269879   2.444   4.714   3.342
16155TIP3    H169880   2.357   4.698   3.305
16155TIP3    H269881   2.441   4.805   3.372
16156TIP3   OH269882   6.554   2.923   2.519
16156TIP3    H169883   6.495   2.982   2.567
16156TIP3    H269884   6.615   2.892   2.586
16157TIP3   OH269885   6.472   2.651   1.648
16157TIP3    H169886   6.385   2.623   1.678
16157TIP3    H269887   6.463   2.659   1.553
16158TIP3   OH269888   0.597   6.384  14.353
16158TIP3    H169889   0.501   6.380  14.356
16158TIP3    H269890   0.622   6.417  14.439
16159TIP3   OH269891   2.438   0.988   2.222
16159TIP3    H169892   2.450   0.939   2.140
16159TIP3    H269893   2.343   0.987   2.236
16160TIP3   OH269894   3.550   1.662  14.451
16160TIP3    H169895   3.635   1.673  14.494
16160TIP3    H269896   3.560   1.582  14.399
16161TIP3   OH269897   5.952   3.913  11.492
16161TIP3    H169898   6.003   3.858  11.551
16161TIP3    H269899   6.007   3.923  11.415
16162TIP3   OH269900   2.397   2.232  15.790
16162TIP3    H169901   2.388   2.160  15.852
16162TIP3    H269902   2.355   2.307  15.834
16163TIP3   OH269903   4.618   4.478  11.721
16163TIP3    H169904   4.550   4.439  11.776
16163TIP3    H269905   4.694   4.485  11.779
16164TIP3   OH269906   6.019   2.998   2.388
16164TIP3    H169907   5.937   2.950   2.401
16164TIP3    H269908   6.074   2.939   2.335
16165TIP3   OH269909   4.160   1.019  14.588
16165TIP3    H169910   4.254   1.003  14.595
16165TIP3    H269911   4.120   0.959  14.650
16166TIP3   OH269912   2.529   6.715   2.975
16166TIP3    H169913   2.486   6.788   2.931
16166TIP3    H269914   2.552   6.655   2.905
16167TIP3   OH269915   0.318   3.200  10.818
16167TIP3    H169916   0.286   3.115  10.790
16167TIP3    H269917   0.255   3.262  10.781
16168TIP3   OH269918   2.376   3.344  14.964
16168TIP3    H169919   2.351   3.388  14.883
16168TIP3    H269920   2.296   3.297  14.991
16169TIP3   OH269921   0.516   5.291  16.153
16169TIP3    H169922   0.432   5.292  16.199
16169TIP3    H269923   0.558   5.209  16.180
16170TIP3   OH269924   5.332   1.727   4.494
16170TIP3    H169925   5.265   1.794   4.498
16170TIP3    H269926   5.355   1.710   4.586
16171TIP3   OH269927   3.530   2.228  11.795
16171TIP3    H169928   3.510   2.248  11.887
16171TIP3    H269929   3.449   2.248  11.748
16172TIP3   OH269930   1.218   6.496  15.114
16172TIP3    H169931   1.259   6.581  15.130
16172TIP3    H269932   1.271   6.435  15.165
16173TIP3   OH269933   3.473   6.323  17.078
16173TIP3    H169934   3.555   6.292  17.037
16173TIP3    H269935   3.406   6.264  17.045
16174TIP3   OH269936   5.842   3.416  12.432
16174TIP3    H169937   5.822   3.509  12.440
16174TIP3    H269938   5.771   3.372  12.480
16175TIP3   OH269939   0.004   3.401  14.708
16175TIP3    H169940   0.099   3.405  14.715
16175TIP3    H269941  -0.025   3.492  14.714
16176TIP3   OH269942   1.998   4.772  13.672
16176TIP3    H169943   1.951   4.824  13.607
16176TIP3    H269944   2.066   4.831  13.705
16177TIP3   OH269945   6.037   0.774   1.278
16177TIP3    H169946   6.093   0.819   1.341
16177TIP3    H269947   5.967   0.735   1.330
16178TIP3   OH269948   4.632   4.262  16.301
16178TIP3    H169949   4.539   4.255  16.280
16178TIP3    H269950   4.649   4.188  16.361
16179TIP3   OH269951   0.233   5.729   1.529
16179TIP3    H169952   0.182   5.780   1.467
16179TIP3    H269953   0.170   5.697   1.593
16180TIP3   OH269954   5.988   3.959   4.499
16180TIP3    H169955   5.945   4.026   4.552
16180TIP3    H269956   5.950   3.877   4.529
16181TIP3   OH269957   2.798   6.643  16.571
16181TIP3    H169958   2.765   6.576  16.631
16181TIP3    H269959   2.726   6.659  16.510
16182TIP3   OH269960   6.209   4.814  15.896
16182TIP3    H169961   6.231   4.742  15.838
16182TIP3    H269962   6.265   4.801  15.973
16183TIP3   OH269963   2.349   2.786   6.518
16183TIP3    H169964   2.340   2.835   6.436
16183TIP3    H269965   2.434   2.812   6.553
16184TIP3   OH269966   5.552   6.253   0.571
16184TIP3    H169967   5.546   6.172   0.622
16184TIP3    H269968   5.525   6.322   0.632
16185TIP3   OH269969   4.386   1.239   0.940
16185TIP3    H169970   4.319   1.179   0.972
16185TIP3    H269971   4.469   1.200   0.967
16186TIP3   OH269972   5.582   2.474  14.097
16186TIP3    H169973   5.615   2.386  14.111
16186TIP3    H269974   5.635   2.529  14.156
16187TIP3   OH269975   3.761   6.497  12.793
16187TIP3    H169976   3.734   6.406  12.782
16187TIP3    H269977   3.774   6.529  12.704
16188TIP3   OH269978   1.012   0.884  16.241
16188TIP3    H169979   1.055   0.928  16.314
16188TIP3    H269980   1.081   0.832  16.201
16189TIP3   OH269981   2.346   1.416   1.442
16189TIP3    H169982   2.358   1.502   1.483
16189TIP3    H269983   2.271   1.378   1.488
16190TIP3   OH269984   6.445   4.046  11.714
16190TIP3    H169985   6.438   3.953  11.690
16190TIP3    H269986   6.517   4.079  11.660
16191TIP3   OH269987   5.865   5.751  15.811
16191TIP3    H169988   5.814   5.709  15.741
16191TIP3    H269989   5.800   5.778  15.875
16192TIP3   OH269990   5.018   3.720  15.708
16192TIP3    H169991   4.976   3.646  15.663
16192TIP3    H269992   5.111   3.710  15.687
16193TIP3   OH269993   6.575   2.341   1.511
16193TIP3    H169994   6.544   2.387   1.590
16193TIP3    H269995   6.506   2.355   1.447
16194TIP3   OH269996   4.468   0.146  13.311
16194TIP3    H169997   4.390   0.114  13.355
16194TIP3    H269998   4.435   0.204  13.242
16195TIP3   OH269999   2.561   5.115   0.885
16195TIP3    H170000   2.631   5.085   0.825
16195TIP3    H270001   2.565   5.054   0.958
16196TIP3   OH270002   6.073   3.549  13.078
16196TIP3    H170003   6.063   3.478  13.141
16196TIP3    H270004   6.155   3.591  13.102
16197TIP3   OH270005   6.771   1.176   4.378
16197TIP3    H170006   6.837   1.109   4.359
16197TIP3    H270007   6.752   1.165   4.471
16198TIP3   OH270008   4.311   3.355   0.647
16198TIP3    H170009   4.378   3.413   0.684
16198TIP3    H270010   4.353   3.314   0.572
16199TIP3   OH270011   3.565   0.888  14.326
16199TIP3    H170012   3.624   0.903  14.253
16199TIP3    H270013   3.508   0.817  14.298
16200TIP3   OH270014   3.784   3.320   5.486
16200TIP3    H170015   3.807   3.231   5.515
16200TIP3    H270016   3.849   3.376   5.527
16201TIP3   OH270017   6.158   6.663  16.253
16201TIP3    H170018   6.217   6.592  16.279
16201TIP3    H270019   6.070   6.627  16.265
16202TIP3   OH270020   6.399   6.141   3.769
16202TIP3    H170021   6.435   6.054   3.782
16202TIP3    H270022   6.311   6.126   3.732
16203TIP3   OH270023   6.689   1.967  13.594
16203TIP3    H170024   6.682   1.952  13.500
16203TIP3    H270025   6.599   1.982  13.623
16204TIP3   OH270026   6.098   3.198  14.310
16204TIP3    H170027   6.025   3.137  14.311
16204TIP3    H270028   6.157   3.163  14.243
16205TIP3   OH270029   3.269   2.265   6.274
16205TIP3    H170030   3.333   2.335   6.287
16205TIP3    H270031   3.292   2.199   6.340
16206TIP3   OH270032   1.990   6.225   4.352
16206TIP3    H170033   1.955   6.245   4.265
16206TIP3    H270034   2.053   6.295   4.369
16207TIP3   OH270035   3.998   0.345   3.018
16207TIP3    H170036   4.082   0.332   2.974
16207TIP3    H270037   3.946   0.269   2.993
16208TIP3   OH270038   0.454   6.307   2.031
16208TIP3    H170039   0.408   6.346   1.956
16208TIP3    H270040   0.468   6.216   2.006
16209TIP3   OH270041   6.363   2.159   2.617
16209TIP3    H170042   6.305   2.234   2.633
16209TIP3    H270043   6.450   2.191   2.641
16210TIP3   OH270044   6.550   6.508   3.338
16210TIP3    H170045   6.457   6.487   3.341
16210TIP3    H270046   6.553   6.600   3.312
16211TIP3   OH270047   3.628   2.013   3.550
16211TIP3    H170048   3.608   1.920   3.535
16211TIP3    H270049   3.592   2.058   3.474
16212TIP3   OH270050   6.096   2.477   4.413
16212TIP3    H170051   6.093   2.405   4.349
16212TIP3    H270052   6.117   2.554   4.361
16213TIP3   OH270053   1.905   4.947  13.438
16213TIP3    H170054   1.936   5.023  13.487
16213TIP3    H270055   1.985   4.909  13.400
16214TIP3   OH270056   2.298   2.475  13.027
16214TIP3    H170057   2.364   2.538  13.056
16214TIP3    H270058   2.245   2.457  13.105
16215TIP3   OH270059   3.952   2.414  12.170
16215TIP3    H170060   3.870   2.419  12.120
16215TIP3    H270061   3.930   2.364  12.248
16216TIP3   OH270062   3.142   0.267  11.727
16216TIP3    H170063   3.063   0.267  11.673
16216TIP3    H270064   3.126   0.333  11.793
16217TIP3   OH270065   5.907   1.349  12.983
16217TIP3    H170066   5.854   1.306  13.049
16217TIP3    H270067   5.910   1.286  12.910
16218TIP3   OH270068   0.769   3.837   0.666
16218TIP3    H170069   0.783   3.910   0.606
16218TIP3    H270070   0.855   3.821   0.706
16219TIP3   OH270071   5.026   2.566  12.441
16219TIP3    H170072   5.110   2.558  12.396
16219TIP3    H270073   5.011   2.660  12.448
16220TIP3   OH270074   1.208   4.302   5.101
16220TIP3    H170075   1.153   4.229   5.072
16220TIP3    H270076   1.157   4.347   5.168
16221TIP3   OH270077   2.317   0.464   3.965
16221TIP3    H170078   2.305   0.534   4.030
16221TIP3    H270079   2.231   0.454   3.925
16222TIP3   OH270080   0.272   4.990  12.768
16222TIP3    H170081   0.342   5.039  12.724
16222TIP3    H270082   0.279   5.017  12.860
16223TIP3   OH270083   6.726   4.476   4.341
16223TIP3    H170084   6.685   4.528   4.272
16223TIP3    H270085   6.656   4.462   4.405
16224TIP3   OH270086   3.085   2.633  13.592
16224TIP3    H170087   3.023   2.706  13.604
16224TIP3    H270088   3.033   2.565  13.550
16225TIP3   OH270089   1.571   4.192   1.791
16225TIP3    H170090   1.569   4.185   1.695
16225TIP3    H270091   1.585   4.286   1.807
16226TIP3   OH270092   1.641   3.483   1.265
16226TIP3    H170093   1.638   3.544   1.340
16226TIP3    H270094   1.670   3.400   1.303
16227TIP3   OH270095   5.695   2.650   4.450
16227TIP3    H170096   5.694   2.698   4.533
16227TIP3    H270097   5.757   2.579   4.463
16228TIP3   OH270098   5.351   3.820  16.194
16228TIP3    H170099   5.374   3.727  16.198
16228TIP3    H270100   5.255   3.820  16.186
16229TIP3   OH270101   1.087   6.438   1.453
16229TIP3    H170102   1.111   6.348   1.428
16229TIP3    H270103   1.125   6.449   1.540
16230TIP3   OH270104   6.387   2.647   5.788
16230TIP3    H170105   6.317   2.596   5.829
16230TIP3    H270106   6.348   2.732   5.771
16231TIP3   OH270107   1.036   1.094   5.102
16231TIP3    H170108   0.998   1.072   5.017
16231TIP3    H270109   1.125   1.060   5.098
16232TIP3   OH270110   4.426   5.541  13.485
16232TIP3    H170111   4.508   5.490  13.477
16232TIP3    H270112   4.395   5.549  13.395
16233TIP3   OH270113   4.179   0.534  10.528
16233TIP3    H170114   4.237   0.458  10.528
16233TIP3    H270115   4.144   0.536  10.438
16234TIP3   OH270116   4.069   2.933   4.498
16234TIP3    H170117   4.054   2.922   4.592
16234TIP3    H270118   3.981   2.936   4.460
16235TIP3   OH270119   6.453   3.719  13.977
16235TIP3    H170120   6.379   3.738  13.919
16235TIP3    H270121   6.527   3.765  13.938
16236TIP3   OH270122   3.389   1.201  16.312
16236TIP3    H170123   3.313   1.177  16.365
16236TIP3    H270124   3.414   1.120  16.268
16237TIP3   OH270125   2.737   5.459  16.388
16237TIP3    H170126   2.655   5.484  16.346
16237TIP3    H270127   2.745   5.365  16.373
16238TIP3   OH270128   5.136   4.638  14.118
16238TIP3    H170129   5.040   4.632  14.115
16238TIP3    H270130   5.154   4.732  14.110
16239TIP3   OH270131   3.166   4.206   5.764
16239TIP3    H170132   3.246   4.163   5.795
16239TIP3    H270133   3.182   4.299   5.776
16240TIP3   OH270134   5.074   1.548  11.939
16240TIP3    H170135   5.166   1.557  11.916
16240TIP3    H270136   5.037   1.636  11.926
16241TIP3   OH270137   4.792   3.401   3.258
16241TIP3    H170138   4.882   3.396   3.225
16241TIP3    H270139   4.751   3.471   3.207
16242TIP3   OH270140   5.036   0.059  16.489
16242TIP3    H170141   4.984   0.138  16.508
16242TIP3    H270142   4.988  -0.012  16.532
16243TIP3   OH270143   3.983   3.511   2.826
16243TIP3    H170144   3.933   3.592   2.822
16243TIP3    H270145   4.028   3.506   2.742
16244TIP3   OH270146   5.116   2.092   2.775
16244TIP3    H170147   5.030   2.071   2.811
16244TIP3    H270148   5.130   2.184   2.795
16245TIP3   OH270149   0.139   3.539  16.835
16245TIP3    H170150   0.078   3.486  16.886
16245TIP3    H270151   0.225   3.516  16.870
16246TIP3   OH270152   6.736   5.472  12.379
16246TIP3    H170153   6.764   5.416  12.306
16246TIP3    H270154   6.812   5.527  12.397
16247TIP3   OH270155   2.755   6.459  16.759
16247TIP3    H170156   2.711   6.374  16.764
16247TIP3    H270157   2.800   6.468  16.843
16248TIP3   OH270158   0.336   4.582   3.848
16248TIP3    H170159   0.305   4.632   3.772
16248TIP3    H270160   0.373   4.648   3.907
16249TIP3   OH270161   6.741   0.765   2.569
16249TIP3    H170162   6.758   0.727   2.483
16249TIP3    H270163   6.655   0.807   2.560
16250TIP3   OH270164   5.520   1.094   0.068
16250TIP3    H170165   5.556   1.074  -0.018
16250TIP3    H270166   5.588   1.067   0.130
16251TIP3   OH270167   5.688   2.274   0.183
16251TIP3    H170168   5.695   2.180   0.170
16251TIP3    H270169   5.616   2.302   0.126
16252TIP3   OH270170   1.928   0.292   1.119
16252TIP3    H170171   1.984   0.255   1.188
16252TIP3    H270172   1.842   0.255   1.136
16253TIP3   OH270173   0.566   6.044  11.550
16253TIP3    H170174   0.650   5.997  11.548
16253TIP3    H270175   0.553   6.066  11.642
16254TIP3   OH270176   4.236   2.025  12.421
16254TIP3    H170177   4.164   2.088  12.426
16254TIP3    H270178   4.240   2.001  12.329
16255TIP3   OH270179   2.253   2.393   0.934
16255TIP3    H170180   2.226   2.304   0.913
16255TIP3    H270181   2.175   2.435   0.972
16256TIP3   OH270182   1.599   4.314  16.731
16256TIP3    H170183   1.621   4.355  16.815
16256TIP3    H270184   1.627   4.378  16.665
16257TIP3   OH270185   6.124   0.300  13.219
16257TIP3    H170186   6.156   0.211  13.224
16257TIP3    H270187   6.033   0.295  13.250
16258TIP3   OH270188   6.535   2.512   0.791
16258TIP3    H170189   6.450   2.548   0.819
16258TIP3    H270190   6.599   2.573   0.827
16259TIP3   OH270191   3.949   4.015  16.132
16259TIP3    H170192   4.018   4.046  16.074
16259TIP3    H270193   3.876   3.994  16.073
16260TIP3   OH270194   4.916   0.321  14.145
16260TIP3    H170195   4.920   0.258  14.074
16260TIP3    H270196   4.858   0.280  14.210
16261TIP3   OH270197   0.339   4.003   4.425
16261TIP3    H170198   0.270   4.047   4.376
16261TIP3    H270199   0.293   3.957   4.495
16262TIP3   OH270200   2.988   4.481  16.210
16262TIP3    H170201   3.018   4.463  16.299
16262TIP3    H270202   2.942   4.565  16.216
16263TIP3   OH270203   4.725   4.173  13.354
16263TIP3    H170204   4.718   4.166  13.259
16263TIP3    H270205   4.647   4.221  13.381
16264TIP3   OH270206   5.342   1.537   1.075
16264TIP3    H170207   5.399   1.497   1.141
16264TIP3    H270208   5.254   1.509   1.099
16265TIP3   OH270209   3.590   3.489  14.429
16265TIP3    H170210   3.614   3.408  14.474
16265TIP3    H270211   3.523   3.463  14.366
16266TIP3   OH270212   2.712   5.391   0.999
16266TIP3    H170213   2.770   5.349   1.063
16266TIP3    H270214   2.651   5.442   1.052
16267TIP3   OH270215   3.689   0.066  15.597
16267TIP3    H170216   3.687   0.149  15.644
16267TIP3    H270217   3.701   0.090  15.505
16268TIP3   OH270218   1.644   4.498   2.115
16268TIP3    H170219   1.579   4.472   2.180
16268TIP3    H270220   1.637   4.593   2.111
16269TIP3   OH270221   4.287   3.787  16.376
16269TIP3    H170222   4.337   3.852  16.327
16269TIP3    H270223   4.196   3.802  16.350
16270TIP3   OH270224   0.297   1.438  15.409
16270TIP3    H170225   0.319   1.479  15.326
16270TIP3    H270226   0.242   1.502  15.454
16271TIP3   OH270227   1.990   3.753   2.573
16271TIP3    H170228   1.949   3.776   2.490
16271TIP3    H270229   2.015   3.837   2.612
16272TIP3   OH270230   2.245   2.482  15.916
16272TIP3    H170231   2.216   2.552  15.974
16272TIP3    H270232   2.213   2.401  15.958
16273TIP3   OH270233   0.269   4.878   4.204
16273TIP3    H170234   0.196   4.906   4.149
16273TIP3    H270235   0.251   4.786   4.223
16274TIP3   OH270236   5.424   2.338  14.464
16274TIP3    H170237   5.506   2.294  14.487
16274TIP3    H270238   5.373   2.272  14.416
16275TIP3   OH270239   1.675   5.958  14.298
16275TIP3    H170240   1.750   5.905  14.270
16275TIP3    H270241   1.628   5.978  14.217
16276TIP3   OH270242   3.546   2.741   3.953
16276TIP3    H170243   3.526   2.681   3.881
16276TIP3    H270244   3.611   2.694   4.006
16277TIP3   OH270245   0.541   5.278  11.487
16277TIP3    H170246   0.602   5.351  11.491
16277TIP3    H270247   0.577   5.214  11.549
16278TIP3   OH270248   2.456   6.172  13.410
16278TIP3    H170249   2.384   6.135  13.461
16278TIP3    H270250   2.421   6.253  13.373
16279TIP3   OH270251   5.624   0.100   3.572
16279TIP3    H170252   5.695   0.050   3.612
16279TIP3    H270253   5.546   0.047   3.585
16280TIP3   OH270254   0.863   0.262  11.730
16280TIP3    H170255   0.951   0.300  11.725
16280TIP3    H270256   0.877   0.167  11.723
16281TIP3   OH270257   3.789   3.547   6.972
16281TIP3    H170258   3.713   3.555   6.914
16281TIP3    H270259   3.832   3.633   6.966
16282TIP3   OH270260   4.628   4.483   6.082
16282TIP3    H170261   4.630   4.432   6.162
16282TIP3    H270262   4.680   4.433   6.019
16283TIP3   OH270263   0.272   5.407   1.736
16283TIP3    H170264   0.245   5.337   1.676
16283TIP3    H270265   0.212   5.479   1.717
16284TIP3   OH270266   0.928   3.893  13.949
16284TIP3    H170267   0.854   3.833  13.934
16284TIP3    H270268   0.902   3.944  14.026
16285TIP3   OH270269   4.849   6.419   4.213
16285TIP3    H170270   4.864   6.348   4.150
16285TIP3    H270271   4.890   6.496   4.174
16286TIP3   OH270272   1.318   2.028  15.270
16286TIP3    H170273   1.326   1.933  15.278
16286TIP3    H270274   1.369   2.050  15.192
16287TIP3   OH270275   0.864   2.519  12.476
16287TIP3    H170276   0.787   2.469  12.450
16287TIP3    H270277   0.847   2.543  12.567
16288TIP3   OH270278   5.830   4.978   5.386
16288TIP3    H170279   5.813   5.072   5.384
16288TIP3    H270280   5.920   4.969   5.355
16289TIP3   OH270281   4.385   4.655   5.506
16289TIP3    H170282   4.376   4.641   5.412
16289TIP3    H270283   4.371   4.568   5.544
16290TIP3   OH270284   5.414   3.231   6.066
16290TIP3    H170285   5.353   3.257   6.136
16290TIP3    H270286   5.483   3.298   6.070
16291TIP3   OH270287   6.289   3.648  15.806
16291TIP3    H170288   6.207   3.696  15.817
16291TIP3    H270289   6.271   3.562  15.844
16292TIP3   OH270290   3.120   5.942   0.534
16292TIP3    H170291   3.160   5.998   0.467
16292TIP3    H270292   3.032   5.925   0.501
16293TIP3   OH270293   6.124   1.850  11.482
16293TIP3    H170294   6.212   1.882  11.461
16293TIP3    H270295   6.127   1.828  11.575
16294TIP3   OH270296   4.312   5.987  13.584
16294TIP3    H170297   4.335   6.074  13.618
16294TIP3    H270298   4.321   5.995  13.489
16295TIP3   OH270299   2.149   0.282  13.339
16295TIP3    H170300   2.211   0.355  13.336
16295TIP3    H270301   2.183   0.219  13.276
16296TIP3   OH270302   0.025   2.873  14.779
16296TIP3    H170303  -0.071   2.876  14.779
16296TIP3    H270304   0.049   2.880  14.872
16297TIP3   OH270305   3.173   6.087   6.219
16297TIP3    H170306   3.217   6.033   6.284
16297TIP3    H270307   3.085   6.101   6.255
16298TIP3   OH270308   6.224   4.272   0.056
16298TIP3    H170309   6.201   4.206  -0.009
16298TIP3    H270310   6.237   4.352   0.005
16299TIP3   OH270311   1.994   6.082   3.638
16299TIP3    H170312   1.910   6.074   3.593
16299TIP3    H270313   1.973   6.131   3.718
16300TIP3   OH270314   1.345   3.963   3.286
16300TIP3    H170315   1.276   3.967   3.219
16300TIP3    H270316   1.413   4.022   3.254
16301TIP3   OH270317   5.909   5.284  15.890
16301TIP3    H170318   5.814   5.282  15.902
16301TIP3    H270319   5.937   5.366  15.929
16302TIP3   OH270320   1.263   5.524   1.116
16302TIP3    H170321   1.317   5.570   1.180
16302TIP3    H270322   1.303   5.437   1.109
16303TIP3   OH270323   1.525   1.720   1.901
16303TIP3    H170324   1.480   1.772   1.835
16303TIP3    H270325   1.490   1.751   1.985
16304TIP3   OH270326   5.777   5.695  11.197
16304TIP3    H170327   5.761   5.706  11.291
16304TIP3    H270328   5.787   5.785  11.165
16305TIP3   OH270329   6.720   6.653   0.511
16305TIP3    H170330   6.637   6.606   0.518
16305TIP3    H270331   6.763   6.614   0.436
16306TIP3   OH270332   3.182   2.666  12.562
16306TIP3    H170333   3.090   2.669  12.538
16306TIP3    H270334   3.214   2.754  12.545
16307TIP3   OH270335   5.982   2.336   0.469
16307TIP3    H170336   5.894   2.325   0.503
16307TIP3    H270337   5.970   2.361   0.377
16308TIP3   OH270338   0.247   3.729  13.849
16308TIP3    H170339   0.323   3.744  13.905
16308TIP3    H270340   0.190   3.804  13.866
16309TIP3   OH270341   5.827   4.673   5.647
16309TIP3    H170342   5.777   4.598   5.680
16309TIP3    H270343   5.853   4.647   5.559
16310TIP3   OH270344   6.223   5.398   2.363
16310TIP3    H170345   6.214   5.303   2.359
16310TIP3    H270346   6.217   5.419   2.457
16311TIP3   OH270347   6.684   5.396   1.152
16311TIP3    H170348   6.640   5.480   1.168
16311TIP3    H270349   6.717   5.370   1.238
16312TIP3   OH270350   0.701   4.182  14.505
16312TIP3    H170351   0.762   4.117  14.539
16312TIP3    H270352   0.633   4.131  14.461
16313TIP3   OH270353   5.635   5.677  11.958
16313TIP3    H170354   5.640   5.680  11.863
16313TIP3    H270355   5.703   5.738  11.988
16314TIP3   OH270356   5.152   4.537   1.228
16314TIP3    H170357   5.217   4.580   1.173
16314TIP3    H270358   5.073   4.533   1.173
16315TIP3   OH270359   1.896   1.551  15.058
16315TIP3    H170360   1.829   1.482  15.058
16315TIP3    H270361   1.901   1.580  15.149
16316TIP3   OH270362   2.919   4.822   1.305
16316TIP3    H170363   2.832   4.815   1.344
16316TIP3    H270364   2.965   4.743   1.334
16317TIP3   OH270365   4.175   4.484   1.946
16317TIP3    H170366   4.251   4.492   2.004
16317TIP3    H270367   4.195   4.411   1.888
16318TIP3   OH270368   5.201   4.286   4.903
16318TIP3    H170369   5.135   4.355   4.911
16318TIP3    H270370   5.174   4.237   4.825
16319TIP3   OH270371   5.783   2.207  16.545
16319TIP3    H170372   5.731   2.129  16.524
16319TIP3    H270373   5.846   2.214  16.473
16320TIP3   OH270374   1.999   6.704  16.812
16320TIP3    H170375   1.982   6.625  16.863
16320TIP3    H270376   1.941   6.696  16.736
16321TIP3   OH270377   1.448   0.949  12.415
16321TIP3    H170378   1.497   0.974  12.493
16321TIP3    H270379   1.409   1.030  12.383
16322TIP3   OH270380   1.774   3.153  15.861
16322TIP3    H170381   1.841   3.216  15.835
16322TIP3    H270382   1.693   3.204  15.864
16323TIP3   OH270383   1.936   6.456   2.599
16323TIP3    H170384   1.950   6.526   2.663
16323TIP3    H270385   1.854   6.480   2.556
16324TIP3   OH270386   1.129   2.046   4.445
16324TIP3    H170387   1.119   2.055   4.350
16324TIP3    H270388   1.083   1.964   4.466
16325TIP3   OH270389   6.287   2.012  14.362
16325TIP3    H170390   6.233   2.074  14.411
16325TIP3    H270391   6.368   2.060  14.344
16326TIP3   OH270392   3.047   1.548   6.097
16326TIP3    H170393   2.979   1.597   6.143
16326TIP3    H270394   3.093   1.499   6.165
16327TIP3   OH270395   0.781   3.747  16.058
16327TIP3    H170396   0.703   3.777  16.011
16327TIP3    H270397   0.853   3.760  15.996
16328TIP3   OH270398   3.403   2.369   6.823
16328TIP3    H170399   3.401   2.417   6.906
16328TIP3    H270400   3.423   2.435   6.757
16329TIP3   OH270401   2.261   4.052   3.695
16329TIP3    H170402   2.304   4.122   3.646
16329TIP3    H270403   2.226   4.095   3.773
16330TIP3   OH270404   2.675   0.896  12.997
16330TIP3    H170405   2.633   0.952  13.061
16330TIP3    H270406   2.603   0.844  12.959
16331TIP3   OH270407   2.393   1.525  10.785
16331TIP3    H170408   2.333   1.465  10.741
16331TIP3    H270409   2.337   1.596  10.816
16332TIP3   OH270410   3.570   3.615   0.382
16332TIP3    H170411   3.596   3.707   0.389
16332TIP3    H270412   3.620   3.582   0.307
16333TIP3   OH270413   1.801   5.023   4.507
16333TIP3    H170414   1.800   5.014   4.412
16333TIP3    H270415   1.725   5.077   4.527
16334TIP3   OH270416   1.974   1.120  16.045
16334TIP3    H170417   2.041   1.182  16.017
16334TIP3    H270418   1.898   1.142  15.990
16335TIP3   OH270419   1.509   3.275   5.225
16335TIP3    H170420   1.429   3.226   5.245
16335TIP3    H270421   1.546   3.296   5.311
16336TIP3   OH270422   1.053   6.550   4.968
16336TIP3    H170423   1.146   6.533   4.984
16336TIP3    H270424   1.009   6.519   5.047
16337TIP3   OH270425   1.125   6.687   0.189
16337TIP3    H170426   1.115   6.699   0.095
16337TIP3    H270427   1.049   6.731   0.227
16338TIP3   OH270428   2.198   3.583   3.537
16338TIP3    H170429   2.159   3.542   3.615
16338TIP3    H270430   2.263   3.643   3.572
16339TIP3   OH270431   6.533   0.966   5.754
16339TIP3    H170432   6.461   0.964   5.692
16339TIP3    H270433   6.498   0.928   5.834
16340TIP3   OH270434   3.515   1.581  11.963
16340TIP3    H170435   3.525   1.517  12.034
16340TIP3    H270436   3.422   1.575  11.939
16341TIP3   OH270437   1.603   5.059   3.872
16341TIP3    H170438   1.530   5.120   3.869
16341TIP3    H270439   1.564   4.973   3.859
16342TIP3   OH270440   5.165   4.417  11.539
16342TIP3    H170441   5.074   4.438  11.522
16342TIP3    H270442   5.186   4.464  11.619
16343TIP3   OH270443   1.420   5.667   2.588
16343TIP3    H170444   1.349   5.626   2.636
16343TIP3    H270445   1.420   5.625   2.503
16344TIP3   OH270446   6.642   5.805  15.682
16344TIP3    H170447   6.661   5.789  15.774
16344TIP3    H270448   6.596   5.889  15.681
16345TIP3   OH270449   2.181   2.779   3.356
16345TIP3    H170450   2.108   2.819   3.310
16345TIP3    H270451   2.176   2.686   3.333
16346TIP3   OH270452   1.659   4.037   2.668
16346TIP3    H170453   1.702   4.032   2.754
16346TIP3    H270454   1.626   4.127   2.664
16347TIP3   OH270455   0.898   0.173  13.243
16347TIP3    H170456   0.851   0.236  13.297
16347TIP3    H270457   0.947   0.227  13.181
16348TIP3   OH270458   5.912   3.974  15.618
16348TIP3    H170459   5.918   3.991  15.524
16348TIP3    H270460   6.002   3.980  15.650
16349TIP3   OH270461   3.004   4.328  14.001
16349TIP3    H170462   3.034   4.412  13.968
16349TIP3    H270463   2.968   4.284  13.923
16350TIP3   OH270464   0.708   4.362  16.530
16350TIP3    H170465   0.665   4.433  16.483
16350TIP3    H270466   0.692   4.285  16.475
16351TIP3   OH270467   2.060   0.475  11.821
16351TIP3    H170468   2.055   0.405  11.887
16351TIP3    H270469   2.132   0.531  11.850
16352TIP3   OH270470   1.053   5.019  13.643
16352TIP3    H170471   1.132   5.041  13.594
16352TIP3    H270472   0.981   5.049  13.588
16353TIP3   OH270473   2.819   3.168  14.879
16353TIP3    H170474   2.886   3.123  14.827
16353TIP3    H270475   2.748   3.186  14.817
16354TIP3   OH270476   1.793   1.184  13.235
16354TIP3    H170477   1.725   1.251  13.238
16354TIP3    H270478   1.874   1.230  13.259
16355TIP3   OH270479   4.159   0.299  10.750
16355TIP3    H170480   4.207   0.310  10.668
16355TIP3    H270481   4.069   0.284  10.723
16356TIP3   OH270482   6.739   1.946   4.454
16356TIP3    H170483   6.716   2.009   4.386
16356TIP3    H270484   6.799   1.885   4.411
16357TIP3   OH270485   4.594   1.221  16.461
16357TIP3    H170486   4.571   1.262  16.378
16357TIP3    H270487   4.683   1.187  16.447
16358TIP3   OH270488   6.358   2.902  15.478
16358TIP3    H170489   6.346   2.997  15.490
16358TIP3    H270490   6.333   2.886  15.387
16359TIP3   OH270491   4.224   6.109   2.512
16359TIP3    H170492   4.166   6.149   2.576
16359TIP3    H270493   4.198   6.147   2.428
16360TIP3   OH270494   2.025   2.821   0.302
16360TIP3    H170495   1.938   2.830   0.339
16360TIP3    H270496   2.066   2.906   0.316
16361TIP3   OH270497   0.217   3.650  13.576
16361TIP3    H170498   0.234   3.641  13.670
16361TIP3    H270499   0.158   3.725  13.570
16362TIP3   OH270500   3.110   6.409  13.048
16362TIP3    H170501   3.089   6.336  12.990
16362TIP3    H270502   3.205   6.404  13.059
16363TIP3   OH270503   3.090   5.969   4.179
16363TIP3    H170504   3.175   5.955   4.219
16363TIP3    H270505   3.046   6.031   4.238
16364TIP3   OH270506   2.332   4.889  12.499
16364TIP3    H170507   2.238   4.890  12.484
16364TIP3    H270508   2.348   4.805  12.543
16365TIP3   OH270509   5.586   3.352  16.778
16365TIP3    H170510   5.525   3.343  16.851
16365TIP3    H270511   5.634   3.433  16.798
16366TIP3   OH270512   5.516   3.700  14.841
16366TIP3    H170513   5.452   3.771  14.838
16366TIP3    H270514   5.485   3.637  14.775
16367TIP3   OH270515   5.243   4.773  16.010
16367TIP3    H170516   5.228   4.716  16.085
16367TIP3    H270517   5.161   4.821  15.999
16368TIP3   OH270518   3.204   6.721   0.230
16368TIP3    H170519   3.114   6.722   0.263
16368TIP3    H270520   3.209   6.796   0.172
16369TIP3   OH270521   6.360   2.028   5.322
16369TIP3    H170522   6.293   1.961   5.309
16369TIP3    H270523   6.313   2.111   5.321
16370TIP3   OH270524   5.998   0.630  15.981
16370TIP3    H170525   5.971   0.699  15.920
16370TIP3    H270526   6.093   0.640  15.987
16371TIP3   OH270527   6.256   2.011  14.863
16371TIP3    H170528   6.289   1.968  14.784
16371TIP3    H270529   6.276   1.949  14.933
16372TIP3   OH270530   2.992   3.581   1.472
16372TIP3    H170531   3.025   3.670   1.460
16372TIP3    H270532   2.984   3.571   1.567
16373TIP3   OH270533   4.476   6.293  15.455
16373TIP3    H170534   4.560   6.318  15.494
16373TIP3    H270535   4.430   6.375  15.444
16374TIP3   OH270536   2.139   5.429  17.140
16374TIP3    H170537   2.182   5.491  17.082
16374TIP3    H270538   2.046   5.452  17.136
16375TIP3   OH270539   5.062   5.777   1.240
16375TIP3    H170540   5.102   5.690   1.242
16375TIP3    H270541   5.127   5.835   1.279
16376TIP3   OH270542   5.323   0.029  16.549
16376TIP3    H170543   5.383  -0.007  16.484
16376TIP3    H270544   5.236   0.014  16.513
16377TIP3   OH270545   0.926   3.805   3.372
16377TIP3    H170546   0.905   3.892   3.407
16377TIP3    H270547   0.958   3.823   3.284
16378TIP3   OH270548   5.427   3.945   0.198
16378TIP3    H170549   5.473   4.013   0.150
16378TIP3    H270550   5.348   3.989   0.231
16379TIP3   OH270551   1.923   0.426   5.231
16379TIP3    H170552   1.976   0.375   5.170
16379TIP3    H270553   1.909   0.367   5.305
16380TIP3   OH270554   4.185   3.617  15.946
16380TIP3    H170555   4.107   3.666  15.922
16380TIP3    H270556   4.169   3.588  16.036
16381TIP3   OH270557   2.842   1.230   5.330
16381TIP3    H170558   2.818   1.294   5.264
16381TIP3    H270559   2.761   1.214   5.379
16382TIP3   OH270560   1.757   4.443  16.252
16382TIP3    H170561   1.698   4.379  16.213
16382TIP3    H270562   1.842   4.428  16.209
16383TIP3   OH270563   2.923   2.859  13.630
16383TIP3    H170564   2.856   2.830  13.692
16383TIP3    H270565   2.978   2.919  13.680
16384TIP3   OH270566   4.478   2.786  15.177
16384TIP3    H170567   4.547   2.851  15.161
16384TIP3    H270568   4.525   2.710  15.212
16385TIP3   OH270569   5.637   1.261   1.171
16385TIP3    H170570   5.670   1.253   1.081
16385TIP3    H270571   5.709   1.302   1.219
16386TIP3   OH270572   6.421   1.013  13.303
16386TIP3    H170573   6.500   1.047  13.261
16386TIP3    H270574   6.387   0.947  13.242
16387TIP3   OH270575   0.207   0.564  13.263
16387TIP3    H170576   0.209   0.558  13.358
16387TIP3    H270577   0.118   0.539  13.239
16388TIP3   OH270578   3.126   5.467  16.882
16388TIP3    H170579   3.180   5.478  16.961
16388TIP3    H270580   3.067   5.394  16.903
16389TIP3   OH270581   1.703   2.229  10.850
16389TIP3    H170582   1.683   2.316  10.815
16389TIP3    H270583   1.755   2.187  10.782
16390TIP3   OH270584   4.937   4.879   0.003
16390TIP3    H170585   4.973   4.905  -0.082
16390TIP3    H270586   4.847   4.910   0.001
16391TIP3   OH270587   3.368   3.785   5.510
16391TIP3    H170588   3.361   3.794   5.605
16391TIP3    H270589   3.395   3.694   5.496
16392TIP3   OH270590   1.078   6.411   5.428
16392TIP3    H170591   1.081   6.475   5.357
16392TIP3    H270592   1.011   6.443   5.487
16393TIP3   OH270593   4.605   4.970  11.886
16393TIP3    H170594   4.562   4.885  11.882
16393TIP3    H270595   4.666   4.970  11.812
16394TIP3   OH270596   2.120   1.187  14.882
16394TIP3    H170597   2.053   1.124  14.909
16394TIP3    H270598   2.071   1.269  14.869
16395TIP3   OH270599   2.736   4.268  12.215
16395TIP3    H170600   2.665   4.249  12.276
16395TIP3    H270601   2.751   4.185  12.170
16396TIP3   OH270602   2.526   1.320  16.502
16396TIP3    H170603   2.492   1.372  16.574
16396TIP3    H270604   2.452   1.310  16.442
16397TIP3   OH270605   5.879   4.127  10.680
16397TIP3    H170606   5.832   4.192  10.732
16397TIP3    H270607   5.819   4.105  10.609
16398TIP3   OH270608   4.621   4.157  14.571
16398TIP3    H170609   4.678   4.081  14.582
16398TIP3    H270610   4.601   4.185  14.661
16399TIP3   OH270611   6.064   5.548  15.351
16399TIP3    H170612   6.002   5.529  15.422
16399TIP3    H270613   6.150   5.535  15.390
16400TIP3   OH270614   2.730   5.565  11.576
16400TIP3    H170615   2.755   5.529  11.490
16400TIP3    H270616   2.638   5.540  11.586
16401TIP3   OH270617   1.092   1.800  12.970
16401TIP3    H170618   1.002   1.802  13.001
16401TIP3    H270619   1.094   1.728  12.906
16402TIP3   OH270620   1.256   4.295   4.815
16402TIP3    H170621   1.171   4.335   4.835
16402TIP3    H270622   1.307   4.304   4.895
16403TIP3   OH270623   3.011   4.610  15.425
16403TIP3    H170624   2.957   4.608  15.504
16403TIP3    H270625   3.082   4.548  15.442
16404TIP3   OH270626   1.075   6.174   1.005
16404TIP3    H170627   1.030   6.236   1.062
16404TIP3    H270628   1.017   6.165   0.930
16405TIP3   OH270629   4.739   3.100   4.082
16405TIP3    H170630   4.727   3.110   4.176
16405TIP3    H270631   4.805   3.166   4.058
16406TIP3   OH270632   2.233   4.178   4.936
16406TIP3    H170633   2.161   4.238   4.957
16406TIP3    H270634   2.226   4.109   5.001
16407TIP3   OH270635   4.655   3.068  11.653
16407TIP3    H170636   4.721   3.019  11.604
16407TIP3    H270637   4.691   3.157  11.659
16408TIP3   OH270638   1.865   1.542   3.796
16408TIP3    H170639   1.938   1.496   3.756
16408TIP3    H270640   1.836   1.485   3.867
16409TIP3   OH270641   0.066   1.924   3.216
16409TIP3    H170642   0.042   1.831   3.216
16409TIP3    H270643   0.025   1.959   3.137
16410TIP3   OH270644   4.187   2.475   6.111
16410TIP3    H170645   4.119   2.411   6.131
16410TIP3    H270646   4.261   2.450   6.165
16411TIP3   OH270647   1.401   4.337  11.596
16411TIP3    H170648   1.437   4.250  11.578
16411TIP3    H270649   1.476   4.396  11.584
16412TIP3   OH270650   1.412   6.400  15.535
16412TIP3    H170651   1.400   6.495  15.537
16412TIP3    H270652   1.506   6.388  15.524
16413TIP3   OH270653   1.490   3.437  11.234
16413TIP3    H170654   1.445   3.519  11.255
16413TIP3    H270655   1.575   3.444  11.277
16414TIP3   OH270656   4.994   3.823   6.656
16414TIP3    H170657   4.942   3.743   6.661
16414TIP3    H270658   4.944   3.888   6.705
16415TIP3   OH270659   5.301   5.741  15.576
16415TIP3    H170660   5.337   5.803  15.640
16415TIP3    H270661   5.377   5.715  15.524
16416TIP3   OH270662   0.151   3.687   4.428
16416TIP3    H170663   0.063   3.678   4.392
16416TIP3    H270664   0.146   3.765   4.484
16417TIP3   OH270665   4.144   2.031   4.081
16417TIP3    H170666   4.157   1.946   4.124
16417TIP3    H270667   4.232   2.061   4.060
16418TIP3   OH270668   2.705   5.211  10.571
16418TIP3    H170669   2.798   5.227  10.586
16418TIP3    H270670   2.678   5.154  10.642
16419TIP3   OH270671   0.858   4.777  15.429
16419TIP3    H170672   0.794   4.725  15.477
16419TIP3    H270673   0.827   4.775  15.338
16420TIP3   OH270674   4.297   1.454  11.204
16420TIP3    H170675   4.338   1.373  11.237
16420TIP3    H270676   4.277   1.435  11.112
16421TIP3   OH270677   5.771   4.696   5.118
16421TIP3    H170678   5.684   4.717   5.153
16421TIP3    H270679   5.769   4.728   5.028
16422TIP3   OH270680   2.342   5.412   0.626
16422TIP3    H170681   2.276   5.462   0.579
16422TIP3    H270682   2.322   5.321   0.607
16423TIP3   OH270683   0.797   3.324   1.914
16423TIP3    H170684   0.743   3.259   1.960
16423TIP3    H270685   0.763   3.408   1.942
16424TIP3   OH270686   5.631   2.994   3.463
16424TIP3    H170687   5.598   2.994   3.552
16424TIP3    H270688   5.658   2.904   3.447
16425TIP3   OH270689   4.474   3.756   4.621
16425TIP3    H170690   4.423   3.817   4.674
16425TIP3    H270691   4.550   3.806   4.592
16426TIP3   OH270692   4.903   1.460   2.313
16426TIP3    H170693   4.944   1.413   2.386
16426TIP3    H270694   4.955   1.436   2.237
16427TIP3   OH270695   2.372   3.043   5.078
16427TIP3    H170696   2.364   3.017   5.169
16427TIP3    H270697   2.358   3.138   5.078
16428TIP3   OH270698   3.659   1.612   6.603
16428TIP3    H170699   3.750   1.596   6.575
16428TIP3    H270700   3.662   1.695   6.650
16429TIP3   OH270701   2.578   3.208  14.384
16429TIP3    H170702   2.541   3.197  14.296
16429TIP3    H270703   2.528   3.281  14.422
16430TIP3   OH270704   1.058   2.495   5.726
16430TIP3    H170705   1.037   2.527   5.639
16430TIP3    H270706   1.093   2.571   5.772
16431TIP3   OH270707   2.906   4.713  13.766
16431TIP3    H170708   2.865   4.628  13.751
16431TIP3    H270709   2.841   4.777  13.736
16432TIP3   OH270710   5.204   6.430   2.851
16432TIP3    H170711   5.129   6.378   2.823
16432TIP3    H270712   5.280   6.381   2.818
16433TIP3   OH270713   0.054   6.014  14.350
16433TIP3    H170714   0.135   5.977  14.315
16433TIP3    H270715   0.066   6.109  14.342
16434TIP3   OH270716   4.540   2.446  12.144
16434TIP3    H170717   4.483   2.502  12.196
16434TIP3    H270718   4.627   2.458  12.182
16435TIP3   OH270719   5.855   6.319   0.697
16435TIP3    H170720   5.814   6.320   0.611
16435TIP3    H270721   5.793   6.364   0.754
16436TIP3   OH270722   1.522   3.113   2.372
16436TIP3    H170723   1.553   3.183   2.315
16436TIP3    H270724   1.594   3.049   2.373
16437TIP3   OH270725   1.896   6.550   5.909
16437TIP3    H170726   1.983   6.585   5.925
16437TIP3    H270727   1.846   6.624   5.876
16438TIP3   OH270728   0.076   3.674  13.097
16438TIP3    H170729   0.054   3.581  13.089
16438TIP3    H270730   0.159   3.683  13.052
16439TIP3   OH270731   6.022   3.139   0.513
16439TIP3    H170732   5.982   3.200   0.575
16439TIP3    H270733   6.039   3.060   0.565
16440TIP3   OH270734   6.609   1.321  15.580
16440TIP3    H170735   6.602   1.297  15.672
16440TIP3    H270736   6.568   1.407  15.574
16441TIP3   OH270737   4.908   2.105   5.351
16441TIP3    H170738   5.001   2.087   5.359
16441TIP3    H270739   4.904   2.190   5.307
16442TIP3   OH270740   6.506   6.485   2.927
16442TIP3    H170741   6.479   6.576   2.942
16442TIP3    H270742   6.424   6.439   2.907
16443TIP3   OH270743   2.750   2.517   1.379
16443TIP3    H170744   2.705   2.543   1.299
16443TIP3    H270745   2.760   2.423   1.372
16444TIP3   OH270746   3.887   0.963  12.114
16444TIP3    H170747   3.900   0.907  12.191
16444TIP3    H270748   3.975   0.987  12.086
16445TIP3   OH270749   3.652   3.861   0.410
16445TIP3    H170750   3.726   3.923   0.408
16445TIP3    H270751   3.611   3.870   0.324
16446TIP3   OH270752   1.002   2.235  16.269
16446TIP3    H170753   1.062   2.305  16.294
16446TIP3    H270754   0.955   2.214  16.349
16447TIP3   OH270755   1.009   4.174   4.610
16447TIP3    H170756   1.076   4.137   4.553
16447TIP3    H270757   1.015   4.122   4.690
16448TIP3   OH270758   2.742   5.804   4.730
16448TIP3    H170759   2.706   5.741   4.792
16448TIP3    H270760   2.708   5.888   4.759
16449TIP3   OH270761   5.373   5.947   2.644
16449TIP3    H170762   5.387   5.865   2.596
16449TIP3    H270763   5.457   5.992   2.640
16450TIP3   OH270764   3.056   6.138  14.735
16450TIP3    H170765   3.083   6.221  14.697
16450TIP3    H270766   3.061   6.152  14.830
16451TIP3   OH270767   3.134   0.687   0.389
16451TIP3    H170768   3.152   0.780   0.371
16451TIP3    H270769   3.200   0.640   0.339
16452TIP3   OH270770   4.576   5.500  17.211
16452TIP3    H170771   4.667   5.497  17.182
16452TIP3    H270772   4.582   5.523  17.304
16453TIP3   OH270773   3.582   1.805  12.790
16453TIP3    H170774   3.648   1.781  12.725
16453TIP3    H270775   3.582   1.732  12.852
16454TIP3   OH270776   1.951   2.419   4.340
16454TIP3    H170777   1.904   2.344   4.302
16454TIP3    H270778   1.911   2.495   4.297
16455TIP3   OH270779   2.509   1.978  10.408
16455TIP3    H170780   2.441   2.035  10.374
16455TIP3    H270781   2.514   1.999  10.502
16456TIP3   OH270782   4.754   4.945  12.646
16456TIP3    H170783   4.765   4.982  12.559
16456TIP3    H270784   4.748   4.851  12.632
16457TIP3   OH270785   3.073   2.434   0.865
16457TIP3    H170786   3.126   2.367   0.823
16457TIP3    H270787   2.989   2.392   0.881
16458TIP3   OH270788   1.588   2.430   1.468
16458TIP3    H170789   1.557   2.497   1.407
16458TIP3    H270790   1.587   2.349   1.416
16459TIP3   OH270791   3.169   5.662   1.595
16459TIP3    H170792   3.186   5.655   1.689
16459TIP3    H270793   3.120   5.744   1.585
16460TIP3   OH270794   5.407   4.473   0.859
16460TIP3    H170795   5.319   4.435   0.865
16460TIP3    H270796   5.425   4.479   0.765
16461TIP3   OH270797   0.922   0.815  13.780
16461TIP3    H170798   0.873   0.865  13.846
16461TIP3    H270799   1.010   0.852  13.783
16462TIP3   OH270800   6.419   3.388  13.390
16462TIP3    H170801   6.384   3.299  13.397
16462TIP3    H270802   6.513   3.375  13.380
16463TIP3   OH270803   5.096   1.630   4.118
16463TIP3    H170804   5.097   1.645   4.023
16463TIP3    H270805   5.030   1.562   4.130
16464TIP3   OH270806   1.899   1.967  13.895
16464TIP3    H170807   1.969   1.993  13.954
16464TIP3    H270808   1.819   1.980  13.946
16465TIP3   OH270809   5.308   4.414  11.822
16465TIP3    H170810   5.292   4.334  11.873
16465TIP3    H270811   5.384   4.393  11.768
16466TIP3   OH270812   5.441   2.561   3.542
16466TIP3    H170813   5.516   2.535   3.488
16466TIP3    H270814   5.382   2.486   3.540
16467TIP3   OH270815   0.314   6.252  12.996
16467TIP3    H170816   0.399   6.232  12.955
16467TIP3    H270817   0.336   6.314  13.066
16468TIP3   OH270818   0.241   5.979  12.180
16468TIP3    H170819   0.303   5.986  12.253
16468TIP3    H270820   0.296   5.975  12.102
16469TIP3   OH270821   5.427   2.024  12.316
16469TIP3    H170822   5.426   2.101  12.260
16469TIP3    H270823   5.336   1.996  12.321
16470TIP3   OH270824   1.012   5.237   4.394
16470TIP3    H170825   0.934   5.287   4.371
16470TIP3    H270826   1.075   5.303   4.424
16471TIP3   OH270827   3.130   5.968   5.099
16471TIP3    H170828   3.116   6.062   5.083
16471TIP3    H270829   3.084   5.925   5.027
16472TIP3   OH270830   0.923   2.350  12.810
16472TIP3    H170831   0.939   2.441  12.784
16472TIP3    H270832   0.827   2.343  12.815
16473TIP3   OH270833   1.413   1.545   0.739
16473TIP3    H170834   1.448   1.587   0.817
16473TIP3    H270835   1.486   1.494   0.704
16474TIP3   OH270836   3.017   3.490  15.472
16474TIP3    H170837   3.085   3.451  15.528
16474TIP3    H270838   2.935   3.470  15.516
16475TIP3   OH270839   5.245   3.964  14.463
16475TIP3    H170840   5.318   4.026  14.465
16475TIP3    H270841   5.180   4.002  14.522
16476TIP3   OH270842   4.491   3.440  15.929
16476TIP3    H170843   4.557   3.394  15.981
16476TIP3    H270844   4.508   3.533  15.944
16477TIP3   OH270845   4.362   5.048   4.956
16477TIP3    H170846   4.321   5.130   4.983
16477TIP3    H270847   4.293   4.983   4.963
16478TIP3   OH270848   3.795   2.865   1.071
16478TIP3    H170849   3.716   2.867   1.017
16478TIP3    H270850   3.865   2.892   1.012
16479TIP3   OH270851   0.082   6.703  14.350
16479TIP3    H170852   0.057   6.614  14.376
16479TIP3    H270853   0.178   6.702  14.351
16480TIP3   OH270854   5.848   0.252  13.079
16480TIP3    H170855   5.760   0.267  13.113
16480TIP3    H270856   5.869   0.162  13.103
16481TIP3   OH270857   5.832   3.686   0.465
16481TIP3    H170858   5.876   3.617   0.415
16481TIP3    H270859   5.902   3.746   0.491
16482TIP3   OH270860   4.607   6.673  13.492
16482TIP3    H170861   4.614   6.760  13.530
16482TIP3    H270862   4.602   6.614  13.567
16483TIP3   OH270863   5.296   3.079  12.349
16483TIP3    H170864   5.312   3.156  12.294
16483TIP3    H270865   5.248   3.112  12.425
16484TIP3   OH270866   2.769   2.304  12.513
16484TIP3    H170867   2.790   2.312  12.420
16484TIP3    H270868   2.683   2.263  12.515
16485TIP3   OH270869   1.975   2.208   1.872
16485TIP3    H170870   1.969   2.176   1.962
16485TIP3    H270871   2.067   2.193   1.847
16486TIP3   OH270872   6.317   1.725  16.435
16486TIP3    H170873   6.332   1.733  16.529
16486TIP3    H270874   6.360   1.802  16.397
16487TIP3   OH270875   5.057   6.413  11.204
16487TIP3    H170876   5.029   6.367  11.283
16487TIP3    H270877   4.977   6.418  11.150
16488TIP3   OH270878   2.202   0.042   2.076
16488TIP3    H170879   2.150   0.118   2.101
16488TIP3    H270880   2.256   0.073   2.003
16489TIP3   OH270881   0.865   2.079  11.443
16489TIP3    H170882   0.950   2.122  11.443
16489TIP3    H270883   0.825   2.103  11.359
16490TIP3   OH270884   2.623   0.110  11.918
16490TIP3    H170885   2.635   0.107  12.013
16490TIP3    H270886   2.712   0.108  11.883
16491TIP3   OH270887   5.020   5.924   0.989
16491TIP3    H170888   5.035   5.877   1.071
16491TIP3    H270889   5.012   5.856   0.922
16492TIP3   OH270890   0.914   0.512   3.109
16492TIP3    H170891   0.915   0.454   3.185
16492TIP3    H270892   0.824   0.508   3.076
16493TIP3   OH270893   2.313   3.872  15.170
16493TIP3    H170894   2.241   3.809  15.162
16493TIP3    H270895   2.347   3.881  15.081
16494TIP3   OH270896   5.721   6.669  16.110
16494TIP3    H170897   5.721   6.672  16.014
16494TIP3    H270898   5.641   6.715  16.135
16495TIP3   OH270899   5.970   6.733   4.497
16495TIP3    H170900   5.921   6.800   4.450
16495TIP3    H270901   6.060   6.741   4.463
16496TIP3   OH270902   5.579   6.248   4.760
16496TIP3    H170903   5.568   6.340   4.782
16496TIP3    H270904   5.506   6.227   4.702
16497TIP3   OH270905   1.045   0.092   1.114
16497TIP3    H170906   1.011   0.153   1.049
16497TIP3    H270907   1.018   0.128   1.198
16498TIP3   OH270908   1.234   2.281   4.743
16498TIP3    H170909   1.291   2.356   4.722
16498TIP3    H270910   1.145   2.317   4.738
16499TIP3   OH270911   6.631   2.377   0.541
16499TIP3    H170912   6.693   2.423   0.484
16499TIP3    H270913   6.628   2.429   0.621
16500TIP3   OH270914   1.551   5.185  14.161
16500TIP3    H170915   1.573   5.153  14.248
16500TIP3    H270916   1.605   5.133  14.102
16501TIP3   OH270917   2.175   4.663  16.057
16501TIP3    H170918   2.211   4.709  16.132
16501TIP3    H270919   2.122   4.729  16.012
16502TIP3   OH270920   1.695   5.864   2.682
16502TIP3    H170921   1.756   5.805   2.637
16502TIP3    H270922   1.626   5.880   2.617
16503TIP3   OH270923   3.416   6.635   3.414
16503TIP3    H170924   3.335   6.685   3.415
16503TIP3    H270925   3.393   6.551   3.374
16504TIP3   OH270926   1.297   2.061   3.375
16504TIP3    H170927   1.279   1.968   3.392
16504TIP3    H270928   1.336   2.063   3.288
16505TIP3   OH270929   4.461   0.170  15.798
16505TIP3    H170930   4.464   0.220  15.880
16505TIP3    H270931   4.538   0.201  15.749
16506TIP3   OH270932   5.393   6.740  15.278
16506TIP3    H170933   5.335   6.726  15.352
16506TIP3    H270934   5.340   6.785  15.213
16507TIP3   OH270935   4.732   0.844  10.869
16507TIP3    H170936   4.765   0.926  10.905
16507TIP3    H270937   4.673   0.871  10.798
16508TIP3   OH270938   4.772   4.534  17.176
16508TIP3    H170939   4.735   4.562  17.259
16508TIP3    H270940   4.777   4.439  17.183
16509TIP3   OH270941   1.772   3.598  15.965
16509TIP3    H170942   1.734   3.514  15.991
16509TIP3    H270943   1.730   3.662  16.024
16510TIP3   OH270944   0.471   0.382  14.481
16510TIP3    H170945   0.404   0.322  14.513
16510TIP3    H270946   0.443   0.403  14.392
16511TIP3   OH270947   4.957   4.293  15.061
16511TIP3    H170948   4.920   4.285  14.974
16511TIP3    H270949   4.905   4.233  15.115
16512TIP3   OH270950   6.092   2.746  15.289
16512TIP3    H170951   6.075   2.749  15.384
16512TIP3    H270952   6.073   2.655  15.265
16513TIP3   OH270953   0.644   1.331   6.117
16513TIP3    H170954   0.715   1.395   6.119
16513TIP3    H270955   0.642   1.299   6.026
16514TIP3   OH270956   0.833   3.489  14.003
16514TIP3    H170957   0.914   3.441  13.989
16514TIP3    H270958   0.842   3.526  14.091
16515TIP3   OH270959   1.699   4.686  12.709
16515TIP3    H170960   1.779   4.641  12.732
16515TIP3    H270961   1.659   4.710  12.793
16516TIP3   OH270962   0.786   1.762   0.448
16516TIP3    H170963   0.866   1.738   0.495
16516TIP3    H270964   0.803   1.739   0.357
16517TIP3   OH270965   2.804   0.129  13.060
16517TIP3    H170966   2.831   0.167  13.143
16517TIP3    H270967   2.793   0.205  13.002
16518TIP3   OH270968   5.326   1.154   3.370
16518TIP3    H170969   5.360   1.174   3.283
16518TIP3    H270970   5.314   1.240   3.412
16519TIP3   OH270971   2.635   2.295  16.088
16519TIP3    H170972   2.636   2.297  15.992
16519TIP3    H270973   2.692   2.221  16.111
16520TIP3   OH270974   1.488   5.940  16.825
16520TIP3    H170975   1.508   5.921  16.733
16520TIP3    H270976   1.564   5.987  16.858
16521TIP3   OH270977   2.468   4.005   4.280
16521TIP3    H170978   2.439   3.920   4.249
16521TIP3    H270979   2.485   4.055   4.200
16522TIP3   OH270980   1.488   5.672  14.558
16522TIP3    H170981   1.466   5.604  14.494
16522TIP3    H270982   1.432   5.746  14.534
16523TIP3   OH270983   1.022   2.084  13.916
16523TIP3    H170984   1.061   2.159  13.871
16523TIP3    H270985   1.097   2.027  13.938
16524TIP3   OH270986   2.198   3.361  16.364
16524TIP3    H170987   2.250   3.335  16.439
16524TIP3    H270988   2.114   3.317  16.377
16525TIP3   OH270989   0.811   5.421  13.578
16525TIP3    H170990   0.721   5.423  13.545
16525TIP3    H270991   0.852   5.498  13.538
16526TIP3   OH270992   4.448   0.341  16.726
16526TIP3    H170993   4.475   0.258  16.688
16526TIP3    H270994   4.435   0.323  16.819
16527TIP3   OH270995   2.608   1.059  16.572
16527TIP3    H170996   2.521   1.026  16.550
16527TIP3    H270997   2.605   1.152  16.551
16528TIP3   OH270998   2.588   4.248   0.933
16528TIP3    H170999   2.614   4.157   0.914
16528TIP3    H271000   2.635   4.300   0.868
16529TIP3   OH271001   2.812   2.661  11.550
16529TIP3    H171002   2.738   2.608  11.582
16529TIP3    H271003   2.792   2.750  11.580
16530TIP3   OH271004   5.141   6.530  16.856
16530TIP3    H171005   5.058   6.543  16.901
16530TIP3    H271006   5.192   6.475  16.915
16531TIP3   OH271007   5.953   2.466  16.682
16531TIP3    H171008   5.980   2.523  16.754
16531TIP3    H271009   5.933   2.526  16.610
16532TIP3   OH271010   6.744   3.454  12.392
16532TIP3    H171011   6.689   3.384  12.357
16532TIP3    H271012   6.791   3.488  12.316
16533TIP3   OH271013   3.542   0.570   4.133
16533TIP3    H171014   3.474   0.529   4.187
16533TIP3    H271015   3.581   0.497   4.085
16534TIP3   OH271016   2.940   4.026  15.482
16534TIP3    H171017   3.011   3.961  15.475
16534TIP3    H271018   2.982   4.104  15.518
16535TIP3   OH271019   6.722   1.975   2.469
16535TIP3    H171020   6.710   2.000   2.377
16535TIP3    H271021   6.634   1.972   2.505
16536TIP3   OH271022   6.234   3.589  16.669
16536TIP3    H171023   6.280   3.507  16.651
16536TIP3    H271024   6.162   3.564  16.726
16537TIP3   OH271025   0.359   0.805   3.639
16537TIP3    H171026   0.343   0.794   3.732
16537TIP3    H271027   0.272   0.799   3.599
16538TIP3   OH271028   5.982   4.030  13.290
16538TIP3    H171029   5.911   4.047  13.352
16538TIP3    H271030   5.942   4.043  13.204
16539TIP3   OH271031   0.779   3.332  13.610
16539TIP3    H171032   0.800   3.425  13.625
16539TIP3    H271033   0.782   3.323  13.514
16540TIP3   OH271034   4.782   4.746   4.260
16540TIP3    H171035   4.832   4.826   4.246
16540TIP3    H271036   4.698   4.762   4.217
16541TIP3   OH271037   6.736   5.785  13.778
16541TIP3    H171038   6.699   5.841  13.846
16541TIP3    H271039   6.785   5.718  13.826
16542TIP3   OH271040   0.146   0.677   2.794
16542TIP3    H171041   0.109   0.718   2.715
16542TIP3    H271042   0.116   0.734   2.865
16543TIP3   OH271043   4.331   4.225  16.392
16543TIP3    H171044   4.371   4.166  16.456
16543TIP3    H271045   4.343   4.313  16.430
16544TIP3   OH271046   2.222   5.047  16.499
16544TIP3    H171047   2.219   4.958  16.465
16544TIP3    H271048   2.312   5.076  16.482
16545TIP3   OH271049   1.611   0.980   4.689
16545TIP3    H171050   1.704   0.980   4.710
16545TIP3    H271051   1.594   0.895   4.648
16546TIP3   OH271052   6.729   4.879   0.085
16546TIP3    H171053   6.678   4.956   0.108
16546TIP3    H271054   6.671   4.805   0.104
16547TIP3   OH271055   0.864   6.364  16.836
16547TIP3    H171056   0.834   6.363  16.745
16547TIP3    H271057   0.800   6.311  16.883
16548TIP3   OH271058   0.469   1.139  13.297
16548TIP3    H171059   0.381   1.102  13.303
16548TIP3    H271060   0.460   1.212  13.236
16549TIP3   OH271061   6.131   0.161  14.181
16549TIP3    H171062   6.147   0.080  14.131
16549TIP3    H271063   6.145   0.136  14.272
16550TIP3   OH271064   1.438   3.212   1.096
16550TIP3    H171065   1.527   3.177   1.105
16550TIP3    H271066   1.443   3.275   1.024
16551TIP3   OH271067   4.701   2.014  11.176
16551TIP3    H171068   4.770   1.960  11.138
16551TIP3    H271069   4.620   1.978  11.141
16552TIP3   OH271070   1.886   3.848   0.783
16552TIP3    H171071   1.890   3.773   0.842
16552TIP3    H271072   1.848   3.815   0.702
16553TIP3   OH271073   0.843   5.350   4.611
16553TIP3    H171074   0.766   5.343   4.667
16553TIP3    H271075   0.809   5.341   4.522
16554TIP3   OH271076   3.205   2.237  17.081
16554TIP3    H171077   3.254   2.251  17.000
16554TIP3    H271078   3.190   2.325  17.115
16555TIP3   OH271079   6.599   5.552  13.643
16555TIP3    H171080   6.655   5.495  13.590
16555TIP3    H271081   6.658   5.619  13.678
16556TIP3   OH271082   2.803   6.683   0.672
16556TIP3    H171083   2.794   6.758   0.613
16556TIP3    H271084   2.882   6.638   0.642
16557TIP3   OH271085   4.283   4.947  13.501
16557TIP3    H171086   4.323   4.862  13.484
16557TIP3    H271087   4.206   4.950  13.446
16558TIP3   OH271088   0.830   0.441  11.478
16558TIP3    H171089   0.841   0.499  11.553
16558TIP3    H271090   0.837   0.500  11.402
16559TIP3   OH271091   1.998   5.364   2.241
16559TIP3    H171092   2.027   5.296   2.301
16559TIP3    H271093   1.949   5.317   2.173
16560TIP3   OH271094   1.479   1.794  12.175
16560TIP3    H171095   1.440   1.871  12.134
16560TIP3    H271096   1.437   1.789  12.260
16561TIP3   OH271097   2.497   1.087   0.796
16561TIP3    H171098   2.439   1.096   0.721
16561TIP3    H271099   2.569   1.148   0.778
16562TIP3   OH271100   3.318   5.222  16.780
16562TIP3    H171101   3.269   5.203  16.860
16562TIP3    H271102   3.366   5.142  16.762
16563TIP3   OH271103   1.993   3.488  11.641
16563TIP3    H171104   2.056   3.441  11.586
16563TIP3    H271105   1.985   3.574  11.599
16564TIP3   OH271106   2.329   1.667  11.336
16564TIP3    H171107   2.346   1.661  11.242
16564TIP3    H271108   2.280   1.588  11.356
16565TIP3   OH271109   0.729   2.083  12.004
16565TIP3    H171110   0.823   2.086  12.021
16565TIP3    H271111   0.716   2.003  11.954
16566TIP3   OH271112   1.686   1.529  15.595
16566TIP3    H171113   1.734   1.454  15.630
16566TIP3    H271114   1.701   1.599  15.659
16567TIP3   OH271115   0.098   6.105   0.712
16567TIP3    H171116   0.079   6.020   0.674
16567TIP3    H271117   0.193   6.113   0.706
16568TIP3   OH271118   0.060   2.516  15.060
16568TIP3    H171119   0.089   2.574  15.131
16568TIP3    H271120   0.036   2.434  15.104
16569TIP3   OH271121   6.367   2.352   1.320
16569TIP3    H171122   6.434   2.367   1.254
16569TIP3    H271123   6.307   2.288   1.279
16570TIP3   OH271124   5.931   5.988  16.185
16570TIP3    H171125   5.882   5.908  16.163
16570TIP3    H271126   5.870   6.041  16.236
16571TIP3   OH271127   5.563   5.773   0.760
16571TIP3    H171128   5.541   5.819   0.680
16571TIP3    H271129   5.650   5.736   0.744
16572TIP3   OH271130   0.417   6.174  11.989
16572TIP3    H171131   0.382   6.237  11.926
16572TIP3    H271132   0.411   6.090  11.945
16573TIP3   OH271133   1.955   2.370   0.411
16573TIP3    H171134   2.012   2.426   0.358
16573TIP3    H271135   2.015   2.311   0.456
16574TIP3   OH271136   4.693   4.596   3.794
16574TIP3    H171137   4.782   4.612   3.765
16574TIP3    H271138   4.686   4.501   3.800
16575TIP3   OH271139   0.578   4.701   4.685
16575TIP3    H171140   0.627   4.667   4.759
16575TIP3    H271141   0.645   4.725   4.621
16576TIP3   OH271142   4.094   2.533  11.448
16576TIP3    H171143   4.081   2.477  11.371
16576TIP3    H271144   4.048   2.614  11.426
16577TIP3   OH271145   0.742   4.895   0.897
16577TIP3    H171146   0.678   4.966   0.907
16577TIP3    H271147   0.739   4.848   0.980
16578TIP3   OH271148   1.568   3.137  11.926
16578TIP3    H171149   1.483   3.119  11.967
16578TIP3    H271150   1.633   3.114  11.992
16579TIP3   OH271151   3.544   2.734  13.022
16579TIP3    H171152   3.471   2.794  13.008
16579TIP3    H271153   3.565   2.701  12.934
16580TIP3   OH271154   2.198   0.906  12.998
16580TIP3    H171155   2.142   0.918  12.921
16580TIP3    H271156   2.139   0.869  13.064
16581TIP3   OH271157   5.919   2.452   4.012
16581TIP3    H171158   5.961   2.376   4.054
16581TIP3    H271159   5.875   2.498   4.084
16582TIP3   OH271160   2.729   2.164   1.986
16582TIP3    H171161   2.649   2.206   2.019
16582TIP3    H271162   2.798   2.194   2.046
16583TIP3   OH271163   3.133   6.564  11.333
16583TIP3    H171164   3.163   6.508  11.405
16583TIP3    H271165   3.154   6.515  11.254
16584TIP3   OH271166   0.690   5.521  16.072
16584TIP3    H171167   0.780   5.495  16.051
16584TIP3    H271168   0.644   5.438  16.085
16585TIP3   OH271169   6.137   5.997   0.292
16585TIP3    H171170   6.136   5.966   0.201
16585TIP3    H271171   6.217   5.960   0.329
16586TIP3   OH271172   0.897   1.953  13.702
16586TIP3    H171173   0.928   2.012  13.771
16586TIP3    H271174   0.921   1.997  13.620
16587TIP3   OH271175   2.911   1.270  12.333
16587TIP3    H171176   2.981   1.214  12.300
16587TIP3    H271177   2.831   1.222  12.312
16588TIP3   OH271178   3.402   5.594  15.107
16588TIP3    H171179   3.314   5.561  15.126
16588TIP3    H271180   3.429   5.547  15.028
16589TIP3   OH271181   5.332   1.402  15.505
16589TIP3    H171182   5.272   1.359  15.443
16589TIP3    H271183   5.275   1.453  15.562
16590TIP3   OH271184   1.553   2.478   0.130
16590TIP3    H171185   1.566   2.474   0.035
16590TIP3    H271186   1.610   2.409   0.165
16591TIP3   OH271187   1.492   6.034  13.654
16591TIP3    H171188   1.418   6.091  13.676
16591TIP3    H271189   1.464   5.989  13.574
16592TIP3   OH271190   5.197   6.104   4.122
16592TIP3    H171191   5.256   6.077   4.052
16592TIP3    H271192   5.112   6.116   4.080
16593TIP3   OH271193   1.578   0.498   0.830
16593TIP3    H171194   1.654   0.442   0.809
16593TIP3    H271195   1.602   0.539   0.913
16594TIP3   OH271196   5.719   2.476  12.386
16594TIP3    H171197   5.625   2.462  12.377
16594TIP3    H271198   5.728   2.537  12.459
16595TIP3   OH271199   5.408   3.532   0.074
16595TIP3    H171200   5.429   3.554   0.165
16595TIP3    H271201   5.357   3.606   0.043
16596TIP3   OH271202   2.742   2.980   2.395
16596TIP3    H171203   2.713   2.920   2.327
16596TIP3    H271204   2.668   3.039   2.409
16597TIP3   OH271205   4.715   0.690  13.790
16597TIP3    H171206   4.651   0.735  13.735
16597TIP3    H271207   4.693   0.716  13.879
16598TIP3   OH271208   2.912   1.500  12.678
16598TIP3    H171209   2.875   1.551  12.751
16598TIP3    H271210   3.000   1.535  12.667
16599TIP3   OH271211   4.302   1.265   4.496
16599TIP3    H171212   4.379   1.291   4.446
16599TIP3    H271213   4.297   1.170   4.484
16600TIP3   OH271214   1.307   2.559  11.092
16600TIP3    H171215   1.387   2.576  11.043
16600TIP3    H271216   1.274   2.646  11.116
16601TIP3   OH271217   2.288   2.392  12.405
16601TIP3    H171218   2.245   2.452  12.345
16601TIP3    H271219   2.232   2.392  12.483
16602TIP3   OH271220   5.305   1.209  12.416
16602TIP3    H171221   5.323   1.167  12.332
16602TIP3    H271222   5.314   1.302  12.398
16603TIP3   OH271223   4.236   5.295  16.428
16603TIP3    H171224   4.291   5.371  16.410
16603TIP3    H271225   4.148   5.322  16.399
16604TIP3   OH271226   1.725   1.659  17.100
16604TIP3    H171227   1.638   1.684  17.130
16604TIP3    H271228   1.759   1.603  17.170
16605TIP3   OH271229   5.386   5.180   4.911
16605TIP3    H171230   5.453   5.171   4.980
16605TIP3    H271231   5.306   5.149   4.952
16606TIP3   OH271232   5.266   0.601   4.824
16606TIP3    H171233   5.259   0.508   4.803
16606TIP3    H271234   5.236   0.645   4.745
16607TIP3   OH271235   2.506   6.624  15.250
16607TIP3    H171236   2.506   6.614  15.345
16607TIP3    H271237   2.416   6.644  15.227
16608TIP3   OH271238   4.789   0.072  16.798
16608TIP3    H171239   4.851   0.145  16.808
16608TIP3    H271240   4.796   0.024  16.881
16609TIP3   OH271241   6.670   1.547   6.384
16609TIP3    H171242   6.762   1.551   6.357
16609TIP3    H271243   6.661   1.616   6.450
16610TIP3   OH271244   4.270   6.646  11.425
16610TIP3    H171245   4.324   6.596  11.364
16610TIP3    H271246   4.282   6.737  11.398
16611TIP3   OH271247   0.928   2.239  12.223
16611TIP3    H171248   0.971   2.187  12.155
16611TIP3    H271249   0.998   2.264  12.282
16612TIP3   OH271250   4.316   6.490  16.905
16612TIP3    H171251   4.239   6.547  16.908
16612TIP3    H271252   4.390   6.551  16.906
16613TIP3   OH271253   6.513   4.273   0.713
16613TIP3    H171254   6.432   4.221   0.720
16613TIP3    H271255   6.553   4.267   0.799
16614TIP3   OH271256   0.787   3.435   2.725
16614TIP3    H171257   0.755   3.383   2.799
16614TIP3    H271258   0.709   3.457   2.675
16615TIP3   OH271259   0.687   2.651  15.016
16615TIP3    H171260   0.616   2.597  15.051
16615TIP3    H271261   0.669   2.657  14.922
16616TIP3   OH271262   0.101   0.186  16.286
16616TIP3    H171263   0.008   0.205  16.287
16616TIP3    H271264   0.143   0.270  16.308
16617TIP3   OH271265   1.040   5.802  15.522
16617TIP3    H171266   0.965   5.854  15.552
16617TIP3    H271267   1.006   5.713  15.516
16618TIP3   OH271268   3.987   2.732   0.243
16618TIP3    H171269   3.914   2.726   0.304
16618TIP3    H271270   3.965   2.807   0.187
16619TIP3   OH271271   5.256   0.720  12.227
16619TIP3    H171272   5.209   0.765  12.297
16619TIP3    H271273   5.227   0.629  12.234
16620TIP3   OH271274   2.020   1.562  16.451
16620TIP3    H171275   2.086   1.580  16.384
16620TIP3    H271276   1.986   1.648  16.475
16621TIP3   OH271277   2.320   5.230   4.178
16621TIP3    H171278   2.318   5.307   4.122
16621TIP3    H271279   2.395   5.244   4.236
16622TIP3   OH271280   4.984   6.673   4.085
16622TIP3    H171281   5.005   6.623   4.006
16622TIP3    H271282   4.923   6.741   4.056
16623TIP3   OH271283   3.375   1.317  12.647
16623TIP3    H171284   3.338   1.402  12.623
16623TIP3    H271285   3.408   1.281  12.565
16624TIP3   OH271286   0.862   0.306  17.098
16624TIP3    H171287   0.891   0.365  17.168
16624TIP3    H271288   0.816   0.364  17.037
16625TIP3   OH271289   2.336   5.597  11.102
16625TIP3    H171290   2.287   5.679  11.111
16625TIP3    H271291   2.370   5.599  11.013
16626TIP3   OH271292   3.642   1.732   6.353
16626TIP3    H171293   3.626   1.710   6.445
16626TIP3    H271294   3.635   1.649   6.306
16627TIP3   OH271295   3.307   0.039  15.594
16627TIP3    H171296   3.307   0.071  15.503
16627TIP3    H271297   3.351   0.108  15.643
16628TIP3   OH271298   5.629   1.854   3.792
16628TIP3    H171299   5.668   1.768   3.777
16628TIP3    H271300   5.535   1.841   3.780
16629TIP3   OH271301   2.600   6.061  14.762
16629TIP3    H171302   2.649   6.141  14.775
16629TIP3    H271303   2.614   6.038  14.670
16630TIP3   OH271304   2.726   4.452  11.537
16630TIP3    H171305   2.786   4.494  11.475
16630TIP3    H271306   2.648   4.434  11.485
16631TIP3   OH271307   6.060   1.192   2.240
16631TIP3    H171308   6.014   1.265   2.281
16631TIP3    H271309   6.029   1.193   2.149
16632TIP3   OH271310   3.110   0.899   1.896
16632TIP3    H171311   3.075   0.815   1.865
16632TIP3    H271312   3.186   0.915   1.840
16633TIP3   OH271313   6.162   0.903   0.536
16633TIP3    H171314   6.166   0.855   0.454
16633TIP3    H271315   6.112   0.846   0.595
16634TIP3   OH271316   0.307   5.156  15.411
16634TIP3    H171317   0.381   5.204  15.448
16634TIP3    H271318   0.338   5.066  15.404
16635TIP3   OH271319   1.984   0.726  15.227
16635TIP3    H171320   1.947   0.783  15.294
16635TIP3    H271321   2.041   0.783  15.175
16636TIP3   OH271322   3.926   4.512  13.978
16636TIP3    H171323   3.881   4.491  13.896
16636TIP3    H271324   3.857   4.549  14.033
16637TIP3   OH271325   3.001   5.705   3.782
16637TIP3    H171326   2.978   5.667   3.867
16637TIP3    H271327   2.987   5.799   3.793
16638TIP3   OH271328   5.915   5.405   0.404
16638TIP3    H171329   5.919   5.474   0.338
16638TIP3    H271330   5.985   5.425   0.465
16639TIP3   OH271331   4.257   0.175   4.318
16639TIP3    H171332   4.276   0.166   4.225
16639TIP3    H271333   4.264   0.087   4.354
16640TIP3   OH271334   5.338   5.064   0.805
16640TIP3    H171335   5.245   5.088   0.812
16640TIP3    H271336   5.353   5.007   0.881
16641TIP3   OH271337   0.348   5.392   4.793
16641TIP3    H171338   0.267   5.419   4.750
16641TIP3    H271339   0.346   5.296   4.790
16642TIP3   OH271340   2.120   4.965   4.192
16642TIP3    H171341   2.111   5.010   4.276
16642TIP3    H271342   2.202   4.916   4.199
16643TIP3   OH271343   5.924   0.245  11.748
16643TIP3    H171344   5.857   0.187  11.712
16643TIP3    H271345   5.963   0.196  11.821
16644TIP3   OH271346   2.793   5.994   5.643
16644TIP3    H171347   2.868   5.970   5.698
16644TIP3    H271348   2.796   6.090   5.641
16645TIP3   OH271349   1.896   3.164   0.974
16645TIP3    H171350   1.937   3.091   1.020
16645TIP3    H271351   1.959   3.191   0.908
16646TIP3   OH271352   4.597   5.241   4.975
16646TIP3    H171353   4.506   5.240   4.944
16646TIP3    H271354   4.594   5.194   5.059
16647TIP3   OH271355   5.095   0.926  13.180
16647TIP3    H171356   5.029   0.870  13.221
16647TIP3    H271357   5.177   0.903  13.224
16648TIP3   OH271358   5.490   2.915  15.335
16648TIP3    H171359   5.498   2.911  15.239
16648TIP3    H271360   5.396   2.925  15.351
16649TIP3   OH271361   5.462   5.799  11.068
16649TIP3    H171362   5.489   5.852  10.993
16649TIP3    H271363   5.455   5.863  11.140
16650TIP3   OH271364   2.360   0.035   1.669
16650TIP3    H171365   2.449   0.041   1.704
16650TIP3    H271366   2.317  -0.031   1.724
16651TIP3   OH271367   5.857   0.860   4.959
16651TIP3    H171368   5.923   0.912   5.005
16651TIP3    H271369   5.876   0.874   4.866
16652TIP3   OH271370   0.391   0.223  15.198
16652TIP3    H171371   0.338   0.205  15.120
16652TIP3    H271372   0.389   0.141  15.247
16653TIP3   OH271373   5.848   2.003  12.205
16653TIP3    H171374   5.835   2.089  12.245
16653TIP3    H271375   5.773   1.951  12.236
16654TIP3   OH271376   1.309   1.284   1.429
16654TIP3    H171377   1.380   1.295   1.366
16654TIP3    H271378   1.310   1.364   1.480
16655TIP3   OH271379   5.895   2.425  14.461
16655TIP3    H171380   5.886   2.429  14.366
16655TIP3    H271381   5.978   2.380  14.476
16656TIP3   OH271382   0.917   0.122   2.825
16656TIP3    H171383   0.891   0.056   2.889
16656TIP3    H271384   0.884   0.205   2.861
16657TIP3   OH271385   2.176   1.873  14.569
16657TIP3    H171386   2.100   1.825  14.602
16657TIP3    H271387   2.142   1.927  14.498
16658TIP3   OH271388   4.924   4.314   5.091
16658TIP3    H171389   4.855   4.375   5.118
16658TIP3    H271390   4.943   4.337   5.000
16659TIP3   OH271391   4.686   3.077  17.041
16659TIP3    H171392   4.698   3.161  16.997
16659TIP3    H271393   4.757   3.074  17.105
16660TIP3   OH271394   2.101   0.225  16.182
16660TIP3    H171395   2.148   0.231  16.265
16660TIP3    H271396   2.085   0.315  16.157
16661TIP3   OH271397   0.372   0.626   5.352
16661TIP3    H171398   0.411   0.539   5.366
16661TIP3    H271399   0.364   0.634   5.257
16662TIP3   OH271400   5.049   3.404   1.580
16662TIP3    H171401   5.005   3.476   1.536
16662TIP3    H271402   5.036   3.329   1.523
16663TIP3   OH271403   3.522   2.559  13.364
16663TIP3    H171404   3.550   2.650  13.357
16663TIP3    H271405   3.534   2.524  13.275
16664TIP3   OH271406   6.356   3.039   1.225
16664TIP3    H171407   6.266   3.069   1.218
16664TIP3    H271408   6.371   3.028   1.319
16665TIP3   OH271409   5.067   2.952   3.284
16665TIP3    H171410   5.104   3.034   3.316
16665TIP3    H271411   4.973   2.970   3.277
16666TIP3   OH271412   2.470   4.606  11.626
16666TIP3    H171413   2.480   4.520  11.667
16666TIP3    H271414   2.553   4.651  11.643
16667TIP3   OH271415   1.875   1.110   3.673
16667TIP3    H171416   1.955   1.151   3.642
16667TIP3    H271417   1.874   1.024   3.631
16668TIP3   OH271418   0.825   2.296  16.064
16668TIP3    H171419   0.889   2.234  16.101
16668TIP3    H271420   0.846   2.379  16.106
16669TIP3   OH271421   1.885   6.690  12.836
16669TIP3    H171422   1.802   6.669  12.880
16669TIP3    H271423   1.868   6.672  12.744
16670TIP3   OH271424   3.236   6.085  14.049
16670TIP3    H171425   3.184   6.111  14.126
16670TIP3    H271426   3.195   6.004  14.019
16671TIP3   OH271427   1.976   5.788   1.741
16671TIP3    H171428   1.957   5.828   1.656
16671TIP3    H271429   1.895   5.797   1.790
16672TIP3   OH271430   6.430   5.673   1.988
16672TIP3    H171431   6.372   5.724   1.930
16672TIP3    H271432   6.371   5.630   2.049
16673TIP3   OH271433   3.013   5.756   3.005
16673TIP3    H171434   2.924   5.792   3.012
16673TIP3    H271435   3.034   5.729   3.094
16674TIP3   OH271436   0.880   1.178  13.485
16674TIP3    H171437   0.966   1.166  13.525
16674TIP3    H271438   0.818   1.136  13.545
16675TIP3   OH271439   6.222   0.958   3.414
16675TIP3    H171440   6.288   0.942   3.346
16675TIP3    H271441   6.265   1.018   3.475
16676TIP3   OH271442   3.137   6.261  15.354
16676TIP3    H171443   3.153   6.180  15.403
16676TIP3    H271444   3.044   6.256  15.330
16677TIP3   OH271445   4.852   6.467  10.987
16677TIP3    H171446   4.881   6.558  10.988
16677TIP3    H271447   4.907   6.426  10.920
16678TIP3   OH271448   4.489   4.117   2.487
16678TIP3    H171449   4.412   4.076   2.525
16678TIP3    H271450   4.539   4.149   2.561
16679TIP3   OH271451   5.126   0.651   2.756
16679TIP3    H171452   5.197   0.715   2.744
16679TIP3    H271453   5.165   0.584   2.812
16680TIP3   OH271454   2.751   1.234  12.002
16680TIP3    H171455   2.772   1.325  12.021
16680TIP3    H271456   2.707   1.237  11.916
16681TIP3   OH271457   3.582   2.496   5.976
16681TIP3    H171458   3.594   2.477   5.883
16681TIP3    H271459   3.642   2.437   6.021
16682TIP3   OH271460   1.396   4.943   1.941
16682TIP3    H171461   1.317   4.943   1.887
16682TIP3    H271462   1.466   4.970   1.881
16683TIP3   OH271463   5.866   0.509  15.600
16683TIP3    H171464   5.802   0.532  15.666
16683TIP3    H271465   5.861   0.580  15.536
16684TIP3   OH271466   6.292   0.038  15.031
16684TIP3    H171467   6.262  -0.053  15.032
16684TIP3    H271468   6.229   0.084  14.977
16685TIP3   OH271469   1.344   2.986  14.652
16685TIP3    H171470   1.381   2.898  14.661
16685TIP3    H271471   1.258   2.979  14.693
16686TIP3   OH271472   0.860   0.661  11.647
16686TIP3    H171473   0.834   0.609  11.723
16686TIP3    H271474   0.807   0.740  11.652
16687TIP3   OH271475   5.813   1.055  11.069
16687TIP3    H171476   5.873   0.982  11.084
16687TIP3    H271477   5.868   1.133  11.075
16688TIP3   OH271478   4.857   2.446   3.535
16688TIP3    H171479   4.882   2.356   3.514
16688TIP3    H271480   4.864   2.494   3.453
16689TIP3   OH271481   1.613   3.368   0.525
16689TIP3    H171482   1.563   3.305   0.472
16689TIP3    H271483   1.618   3.328   0.612
16690TIP3   OH271484   5.946   1.431  15.758
16690TIP3    H171485   5.974   1.357  15.812
16690TIP3    H271486   5.857   1.451  15.788
16691TIP3   OH271487   5.558   2.311   1.858
16691TIP3    H171488   5.521   2.266   1.783
16691TIP3    H271489   5.523   2.265   1.934
16692TIP3   OH271490   4.019   0.096   4.919
16692TIP3    H171491   4.005   0.172   4.976
16692TIP3    H271492   3.976   0.024   4.964
16693TIP3   OH271493   6.618   0.492  15.442
16693TIP3    H171494   6.689   0.553  15.462
16693TIP3    H271495   6.576   0.476  15.527
16694TIP3   OH271496   4.891   4.267  16.180
16694TIP3    H171497   4.876   4.350  16.135
16694TIP3    H271498   4.807   4.247  16.221
16695TIP3   OH271499   3.512   0.066  12.248
16695TIP3    H171500   3.481  -0.005  12.191
16695TIP3    H271501   3.582   0.108  12.198
16696TIP3   OH271502   6.323   2.402   3.875
16696TIP3    H171503   6.353   2.414   3.965
16696TIP3    H271504   6.236   2.441   3.874
16697TIP3   OH271505   6.702   0.624   0.633
16697TIP3    H171506   6.670   0.569   0.561
16697TIP3    H271507   6.792   0.594   0.648
16698TIP3   OH271508   3.215   0.421  16.752
16698TIP3    H171509   3.192   0.415  16.844
16698TIP3    H271510   3.173   0.346  16.711
16699TIP3   OH271511   4.409   4.710  15.617
16699TIP3    H171512   4.474   4.648  15.650
16699TIP3    H271513   4.426   4.715  15.523
16700TIP3   OH271514   5.906   6.668  13.714
16700TIP3    H171515   5.985   6.687  13.664
16700TIP3    H271516   5.913   6.575  13.736
16701TIP3   OH271517   5.235   2.713  11.634
16701TIP3    H171518   5.235   2.688  11.542
16701TIP3    H271519   5.225   2.631  11.681
16702TIP3   OH271520   6.246   3.141   6.702
16702TIP3    H171521   6.192   3.190   6.639
16702TIP3    H271522   6.330   3.186   6.702
16703TIP3   OH271523   4.783   3.175   3.688
16703TIP3    H171524   4.762   3.258   3.645
16703TIP3    H271525   4.855   3.139   3.637
16704TIP3   OH271526   2.952   0.432   0.642
16704TIP3    H171527   2.890   0.499   0.613
16704TIP3    H271528   3.038   0.473   0.634
16705TIP3   OH271529   6.184   0.634  12.653
16705TIP3    H171530   6.107   0.609  12.602
16705TIP3    H271531   6.168   0.598  12.740
16706TIP3   OH271532   3.467   0.827  12.762
16706TIP3    H171533   3.464   0.922  12.767
16706TIP3    H271534   3.424   0.797  12.842
16707TIP3   OH271535   4.401   4.190  11.178
16707TIP3    H171536   4.336   4.187  11.108
16707TIP3    H271537   4.395   4.279  11.212
16708TIP3   OH271538   5.012   4.994  13.054
16708TIP3    H171539   4.975   4.910  13.077
16708TIP3    H271540   5.059   5.022  13.134
16709TIP3   OH271541   4.301   0.415  13.795
16709TIP3    H171542   4.257   0.496  13.822
16709TIP3    H271543   4.260   0.347  13.848
16710TIP3   OH271544   0.666   5.970   2.910
16710TIP3    H171545   0.629   6.040   2.857
16710TIP3    H271546   0.589   5.920   2.940
16711TIP3   OH271547   0.605   2.633  12.259
16711TIP3    H171548   0.674   2.573  12.227
16711TIP3    H271549   0.564   2.585  12.331
16712TIP3   OH271550   4.160   3.955   0.311
16712TIP3    H171551   4.250   3.963   0.281
16712TIP3    H271552   4.166   3.905   0.393
16713TIP3   OH271553   1.859   6.351  11.631
16713TIP3    H171554   1.933   6.347  11.691
16713TIP3    H271555   1.897   6.332  11.545
16714TIP3   OH271556   2.849   6.311   1.250
16714TIP3    H171557   2.831   6.365   1.174
16714TIP3    H271558   2.829   6.222   1.221
16715TIP3   OH271559   1.382   1.284   5.632
16715TIP3    H171560   1.347   1.289   5.721
16715TIP3    H271561   1.463   1.235   5.641
16716TIP3   OH271562   1.593   3.700   4.219
16716TIP3    H171563   1.622   3.747   4.141
16716TIP3    H271564   1.673   3.657   4.252
16717TIP3   OH271565   4.469   0.185   3.443
16717TIP3    H171566   4.424   0.110   3.404
16717TIP3    H271567   4.463   0.170   3.538
16718TIP3   OH271568   1.774   1.509  16.653
16718TIP3    H171569   1.712   1.489  16.723
16718TIP3    H271570   1.798   1.601  16.668
16719TIP3   OH271571   1.561   0.004  11.037
16719TIP3    H171572   1.487  -0.031  10.987
16719TIP3    H271573   1.630   0.016  10.972
16720TIP3   OH271574   2.193   2.165   3.476
16720TIP3    H171575   2.162   2.132   3.560
16720TIP3    H271576   2.288   2.155   3.480
16721TIP3   OH271577   1.036   5.217  12.532
16721TIP3    H171578   0.948   5.210  12.494
16721TIP3    H271579   1.054   5.129  12.566
16722TIP3   OH271580   6.166   4.388  12.952
16722TIP3    H171581   6.119   4.466  12.983
16722TIP3    H271582   6.203   4.414  12.868
16723TIP3   OH271583   1.155   1.731  12.100
16723TIP3    H171584   1.079   1.767  12.054
16723TIP3    H271585   1.209   1.807  12.121
16724TIP3   OH271586   3.084   4.241  11.036
16724TIP3    H171587   3.049   4.327  11.059
16724TIP3    H271588   3.174   4.257  11.010
16725TIP3   OH271589   2.692   3.713  15.078
16725TIP3    H171590   2.660   3.763  15.004
16725TIP3    H271591   2.718   3.778  15.143
16726TIP3   OH271592   5.121   6.029   2.687
16726TIP3    H171593   5.215   6.017   2.673
16726TIP3    H271594   5.092   5.947   2.726
16727TIP3   OH271595   4.231   5.365   1.806
16727TIP3    H171596   4.286   5.425   1.757
16727TIP3    H271597   4.223   5.405   1.893
16728TIP3   OH271598   1.765   5.109  15.196
16728TIP3    H171599   1.801   5.055  15.266
16728TIP3    H271600   1.836   5.168  15.172
16729TIP3   OH271601   0.869   1.586  10.336
16729TIP3    H171602   0.903   1.565  10.423
16729TIP3    H271603   0.931   1.650  10.301
16730TIP3   OH271604   4.934   4.471  13.119
16730TIP3    H171605   4.983   4.472  13.201
16730TIP3    H271606   4.950   4.383  13.083
16731TIP3   OH271607   2.478   4.992  16.684
16731TIP3    H171608   2.574   4.992  16.677
16731TIP3    H271609   2.455   5.080  16.714
16732TIP3   OH271610   6.781   3.380   2.917
16732TIP3    H171611   6.789   3.435   2.839
16732TIP3    H271612   6.862   3.328   2.919
16733TIP3   OH271613   3.146   6.517  15.173
16733TIP3    H171614   3.065   6.566  15.182
16733TIP3    H271615   3.126   6.449  15.109
16734TIP3   OH271616   1.809   1.833  11.549
16734TIP3    H171617   1.871   1.765  11.525
16734TIP3    H271618   1.794   1.820  11.643
16735TIP3   OH271619   1.000   4.848   0.106
16735TIP3    H171620   0.999   4.755   0.126
16735TIP3    H271621   1.052   4.887   0.176
16736TIP3   OH271622   4.380   3.026  11.650
16736TIP3    H171623   4.333   3.100  11.688
16736TIP3    H271624   4.473   3.051  11.656
16737TIP3   OH271625   4.704   6.555  11.347
16737TIP3    H171626   4.634   6.569  11.283
16737TIP3    H271627   4.742   6.642  11.359
16738TIP3   OH271628   2.032   2.220   5.238
16738TIP3    H171629   2.018   2.274   5.160
16738TIP3    H271630   2.111   2.255   5.278
16739TIP3   OH271631   0.337   4.685  16.614
16739TIP3    H171632   0.345   4.624  16.687
16739TIP3    H271633   0.360   4.633  16.537
16740TIP3   OH271634   3.987   1.030   0.981
16740TIP3    H171635   3.923   1.087   1.024
16740TIP3    H271636   3.939   0.949   0.964
16741TIP3   OH271637   3.643   6.555   0.785
16741TIP3    H171638   3.619   6.482   0.729
16741TIP3    H271639   3.562   6.604   0.797
16742TIP3   OH271640   2.270   2.505  12.741
16742TIP3    H171641   2.254   2.479  12.832
16742TIP3    H271642   2.187   2.545  12.714
16743TIP3   OH271643   6.557   2.455   1.105
16743TIP3    H171644   6.650   2.435   1.101
16743TIP3    H271645   6.553   2.543   1.143
16744TIP3   OH271646   0.357   6.478  16.218
16744TIP3    H171647   0.294   6.441  16.156
16744TIP3    H271648   0.305   6.542  16.268
16745TIP3   OH271649   0.728   2.971   3.243
16745TIP3    H171650   0.636   2.970   3.272
16745TIP3    H271651   0.775   3.011   3.315
16746TIP3   OH271652   0.734   6.680  13.549
16746TIP3    H171653   0.764   6.643  13.466
16746TIP3    H271654   0.638   6.674  13.545
16747TIP3   OH271655   6.568   2.240   3.932
16747TIP3    H171656   6.600   2.196   3.853
16747TIP3    H271657   6.475   2.257   3.914
16748TIP3   OH271658   2.723   5.840   2.604
16748TIP3    H171659   2.782   5.914   2.592
16748TIP3    H271660   2.682   5.855   2.689
16749TIP3   OH271661   0.914   1.406  11.585
16749TIP3    H171662   0.988   1.435  11.532
16749TIP3    H271663   0.939   1.426  11.675
16750TIP3   OH271664   3.080   2.348   5.956
16750TIP3    H171665   3.156   2.404   5.966
16750TIP3    H271666   3.026   2.365   6.034
16751TIP3   OH271667   1.466   6.200   5.643
16751TIP3    H171668   1.386   6.235   5.604
16751TIP3    H271669   1.499   6.137   5.579
16752TIP3   OH271670   5.171   3.128  15.737
16752TIP3    H171671   5.185   3.125  15.832
16752TIP3    H271672   5.232   3.064  15.701
16753TIP3   OH271673   1.640   2.789   2.982
16753TIP3    H171674   1.560   2.841   2.990
16753TIP3    H271675   1.682   2.820   2.902
16754TIP3   OH271676   6.054   1.796  14.685
16754TIP3    H171677   6.025   1.709  14.713
16754TIP3    H271678   6.005   1.856  14.741
16755TIP3   OH271679   0.474   0.049  16.182
16755TIP3    H171680   0.415   0.001  16.124
16755TIP3    H271681   0.553   0.062  16.131
16756TIP3   OH271682   5.556   3.316   3.065
16756TIP3    H171683   5.588   3.236   3.106
16756TIP3    H271684   5.539   3.291   2.974
16757TIP3   OH271685   3.929   0.020   1.686
16757TIP3    H171686   3.884  -0.031   1.620
16757TIP3    H271687   3.951  -0.042   1.755
16758TIP3   OH271688   0.716   3.742   6.472
16758TIP3    H171689   0.637   3.762   6.523
16758TIP3    H271690   0.683   3.698   6.393
16759TIP3   OH271691   5.618   1.013   4.762
16759TIP3    H171692   5.686   0.999   4.697
16759TIP3    H271693   5.553   0.945   4.745
16760TIP3   OH271694   2.449   1.406  14.677
16760TIP3    H171695   2.398   1.329  14.651
16760TIP3    H271696   2.399   1.444  14.750
16761TIP3   OH271697   0.553   2.247  14.325
16761TIP3    H171698   0.596   2.314  14.272
16761TIP3    H271699   0.540   2.289  14.410
16762TIP3   OH271700   0.698   1.159   6.385
16762TIP3    H171701   0.730   1.104   6.456
16762TIP3    H271702   0.685   1.099   6.312
16763TIP3   OH271703   5.958   3.450   0.373
16763TIP3    H171704   6.050   3.439   0.399
16763TIP3    H271705   5.946   3.387   0.302
16764TIP3   OH271706   4.751   1.213  14.863
16764TIP3    H171707   4.692   1.247  14.796
16764TIP3    H271708   4.717   1.248  14.945
16765TIP3   OH271709   1.236   3.933  12.377
16765TIP3    H171710   1.297   3.947  12.450
16765TIP3    H271711   1.181   4.011  12.376
16766TIP3   OH271712   4.176   1.585   3.344
16766TIP3    H171713   4.183   1.490   3.346
16766TIP3    H271714   4.193   1.612   3.434
16767TIP3   OH271715   5.789   5.225  16.460
16767TIP3    H171716   5.812   5.310  16.497
16767TIP3    H271717   5.849   5.164  16.502
16768TIP3   OH271718   2.953   0.176   6.294
16768TIP3    H171719   2.886   0.128   6.246
16768TIP3    H271720   3.036   0.146   6.256
16769TIP3   OH271721   1.796   6.092   2.344
16769TIP3    H171722   1.869   6.110   2.403
16769TIP3    H271723   1.747   6.175   2.340
16770TIP3   OH271724   3.270   0.555  14.728
16770TIP3    H171725   3.189   0.583  14.770
16770TIP3    H271726   3.333   0.549  14.799
16771TIP3   OH271727   6.273   1.079  12.761
16771TIP3    H171728   6.196   1.107  12.710
16771TIP3    H271729   6.247   1.091  12.852
16772TIP3   OH271730   0.368   3.066  16.626
16772TIP3    H171731   0.340   3.145  16.579
16772TIP3    H271732   0.463   3.063  16.610
16773TIP3   OH271733   1.335   5.681  13.536
16773TIP3    H171734   1.294   5.669  13.451
16773TIP3    H271735   1.423   5.711  13.517
16774TIP3   OH271736   2.066   6.273  15.052
16774TIP3    H171737   2.041   6.183  15.074
16774TIP3    H271738   1.986   6.324  15.065
16775TIP3   OH271739   4.824   4.299   1.037
16775TIP3    H171740   4.891   4.245   0.995
16775TIP3    H271741   4.841   4.291   1.130
16776TIP3   OH271742   1.986   6.655   2.231
16776TIP3    H171743   1.945   6.717   2.291
16776TIP3    H271744   2.055   6.705   2.188
16777TIP3   OH271745   1.284   4.250  15.658
16777TIP3    H171746   1.316   4.337  15.679
16777TIP3    H271747   1.298   4.241  15.564
16778TIP3   OH271748   1.027   2.690   4.314
16778TIP3    H171749   1.092   2.705   4.383
16778TIP3    H271750   1.069   2.721   4.234
16779TIP3   OH271751   4.974   5.275   1.929
16779TIP3    H171752   4.895   5.295   1.879
16779TIP3    H271753   5.012   5.361   1.948
16780TIP3   OH271754   2.992   0.704   0.066
16780TIP3    H171755   3.064   0.745   0.113
16780TIP3    H271756   2.915   0.755   0.091
16781TIP3   OH271757   1.068   3.311  13.989
16781TIP3    H171758   1.149   3.344  14.028
16781TIP3    H271759   1.047   3.232  14.040
16782TIP3   OH271760   3.180   5.928  12.310
16782TIP3    H171761   3.167   5.959  12.220
16782TIP3    H271762   3.166   6.005  12.365
16783TIP3   OH271763   4.394   0.538   4.634
16783TIP3    H171764   4.431   0.542   4.722
16783TIP3    H271765   4.302   0.514   4.647
16784TIP3   OH271766   1.328   3.797   0.602
16784TIP3    H171767   1.405   3.743   0.618
16784TIP3    H271768   1.281   3.799   0.685
16785TIP3   OH271769   5.584   5.255   0.746
16785TIP3    H171770   5.658   5.264   0.687
16785TIP3    H271771   5.509   5.243   0.689
16786TIP3   OH271772   2.578   4.976  13.291
16786TIP3    H171773   2.665   5.010  13.270
16786TIP3    H271774   2.595   4.901  13.348
16787TIP3   OH271775   5.180   0.564  14.808
16787TIP3    H171776   5.126   0.607  14.874
16787TIP3    H271777   5.270   0.590  14.830
16788TIP3   OH271778   2.948   6.421  12.647
16788TIP3    H171779   2.911   6.346  12.693
16788TIP3    H271780   2.950   6.394  12.555
16789TIP3   OH271781   4.097   5.353   1.224
16789TIP3    H171782   4.005   5.371   1.208
16789TIP3    H271783   4.113   5.269   1.182
16790TIP3   OH271784   1.121   0.065   6.239
16790TIP3    H171785   1.149  -0.004   6.299
16790TIP3    H271786   1.028   0.048   6.225
16791TIP3   OH271787   2.105   1.466   0.418
16791TIP3    H171788   2.168   1.471   0.346
16791TIP3    H271789   2.113   1.376   0.450
16792TIP3   OH271790   1.917   5.177  12.333
16792TIP3    H171791   1.957   5.139  12.254
16792TIP3    H271792   1.827   5.197  12.306
16793TIP3   OH271793   2.056   4.127   2.150
16793TIP3    H171794   2.061   4.142   2.245
16793TIP3    H271795   1.989   4.188   2.120
16794TIP3   OH271796   4.932   3.511  15.504
16794TIP3    H171797   4.892   3.578  15.448
16794TIP3    H271798   4.908   3.428  15.462
16795TIP3   OH271799   5.822   4.280  11.425
16795TIP3    H171800   5.880   4.355  11.419
16795TIP3    H271801   5.864   4.222  11.488
16796TIP3   OH271802   4.936   1.057  12.985
16796TIP3    H171803   5.001   1.111  12.941
16796TIP3    H271804   4.984   1.011  13.054
16797TIP3   OH271805   1.190   6.650  12.470
16797TIP3    H171806   1.171   6.651  12.564
16797TIP3    H271807   1.115   6.694  12.430
16798TIP3   OH271808   4.859   3.444  16.149
16798TIP3    H171809   4.944   3.439  16.192
16798TIP3    H271810   4.870   3.512  16.082
16799TIP3   OH271811   5.883   0.210  12.666
16799TIP3    H171812   5.791   0.228  12.685
16799TIP3    H271813   5.930   0.246  12.741
16800TIP3   OH271814   6.759   5.373   0.275
16800TIP3    H171815   6.829   5.420   0.230
16800TIP3    H271816   6.801   5.293   0.307
16801TIP3   OH271817   3.630   6.072  16.549
16801TIP3    H171818   3.690   6.111  16.485
16801TIP3    H271819   3.546   6.117  16.533
16802TIP3   OH271820   5.727   4.189   3.621
16802TIP3    H171821   5.701   4.172   3.712
16802TIP3    H271822   5.725   4.104   3.579
16803TIP3   OH271823   0.947   3.560  16.964
16803TIP3    H171824   0.937   3.475  17.008
16803TIP3    H271825   0.992   3.540  16.882
16804TIP3   OH271826   4.086   2.864   5.579
16804TIP3    H171827   4.053   2.833   5.495
16804TIP3    H271828   4.178   2.882   5.563
16805TIP3   OH271829   1.352   1.886  14.881
16805TIP3    H171830   1.400   1.958  14.921
16805TIP3    H271831   1.413   1.812  14.884
16806TIP3   OH271832   2.071   4.354  14.737
16806TIP3    H171833   2.163   4.332  14.722
16806TIP3    H271834   2.073   4.446  14.764
16807TIP3   OH271835   3.291   3.407   5.587
16807TIP3    H171836   3.282   3.409   5.682
16807TIP3    H271837   3.382   3.431   5.571
16808TIP3   OH271838   2.372   3.827   0.838
16808TIP3    H171839   2.361   3.739   0.802
16808TIP3    H271840   2.436   3.868   0.780
16809TIP3   OH271841   2.561   1.609  14.556
16809TIP3    H171842   2.525   1.525  14.585
16809TIP3    H271843   2.485   1.656  14.522
16810TIP3   OH271844   4.098   5.687   2.300
16810TIP3    H171845   4.129   5.752   2.237
16810TIP3    H271846   4.058   5.618   2.245
16811TIP3   OH271847   2.037   5.836   3.964
16811TIP3    H171848   2.107   5.900   3.953
16811TIP3    H271849   2.082   5.755   3.987
16812TIP3   OH271850   6.596   0.298   3.396
16812TIP3    H171851   6.550   0.343   3.467
16812TIP3    H271852   6.528   0.245   3.354
16813TIP3   OH271853   5.712   1.191  14.404
16813TIP3    H171854   5.687   1.272  14.449
16813TIP3    H271855   5.698   1.210  14.311
16814TIP3   OH271856   6.620   6.569  15.806
16814TIP3    H171857   6.662   6.627  15.869
16814TIP3    H271858   6.643   6.606  15.720
16815TIP3   OH271859   5.393   3.297   0.643
16815TIP3    H171860   5.417   3.307   0.551
16815TIP3    H271861   5.371   3.386   0.671
16816TIP3   OH271862   0.212   6.651   2.529
16816TIP3    H171863   0.211   6.559   2.502
16816TIP3    H271864   0.250   6.697   2.454
16817TIP3   OH271865   0.894   1.532   0.817
16817TIP3    H171866   0.943   1.590   0.876
16817TIP3    H271867   0.818   1.504   0.869
16818TIP3   OH271868   1.086   4.095   2.450
16818TIP3    H171869   1.178   4.100   2.423
16818TIP3    H271870   1.047   4.177   2.420
16819TIP3   OH271871   0.927   5.624   4.157
16819TIP3    H171872   0.897   5.703   4.200
16819TIP3    H271873   0.861   5.604   4.091
16820TIP3   OH271874   5.962   1.149  14.785
16820TIP3    H171875   5.891   1.094  14.817
16820TIP3    H271876   6.027   1.087  14.751
16821TIP3   OH271877   3.798   2.184  12.322
16821TIP3    H171878   3.722   2.185  12.380
16821TIP3    H271879   3.767   2.136  12.245
16822TIP3   OH271880   6.290   2.256   3.665
16822TIP3    H171881   6.347   2.302   3.603
16822TIP3    H271882   6.300   2.304   3.747
16823TIP3   OH271883   2.102   4.430   2.062
16823TIP3    H171884   2.096   4.468   2.150
16823TIP3    H271885   2.020   4.382   2.052
16824TIP3   OH271886   5.863   3.838   5.429
16824TIP3    H171887   5.901   3.831   5.517
16824TIP3    H271888   5.937   3.865   5.374
16825TIP3   OH271889   5.100   2.012   3.567
16825TIP3    H171890   5.164   2.065   3.520
16825TIP3    H271891   5.066   1.951   3.501
16826TIP3   OH271892   1.747   0.252  12.795
16826TIP3    H171893   1.829   0.213  12.764
16826TIP3    H271894   1.691   0.177  12.814
16827TIP3   OH271895   5.388   6.366  12.740
16827TIP3    H171896   5.445   6.321  12.803
16827TIP3    H271897   5.319   6.303  12.721
16828TIP3   OH271898   2.463   4.224   4.070
16828TIP3    H171899   2.476   4.306   4.023
16828TIP3    H271900   2.486   4.156   4.005
16829TIP3   OH271901   1.936   4.992  13.036
16829TIP3    H171902   1.877   4.969  13.107
16829TIP3    H271903   1.963   5.082  13.056
16830TIP3   OH271904   2.019   4.929   2.030
16830TIP3    H171905   2.077   4.863   1.991
16830TIP3    H271906   2.072   4.968   2.100
16831TIP3   OH271907   4.435   0.202   4.537
16831TIP3    H171908   4.497   0.267   4.504
16831TIP3    H271909   4.364   0.203   4.473
16832TIP3   OH271910   1.295   3.130  16.373
16832TIP3    H171911   1.321   3.114  16.464
16832TIP3    H271912   1.265   3.221  16.372
16833TIP3   OH271913   4.748   5.465  16.032
16833TIP3    H171914   4.737   5.432  15.943
16833TIP3    H271915   4.786   5.552  16.021
16834TIP3   OH271916   6.340   5.969   3.042
16834TIP3    H171917   6.428   5.934   3.049
16834TIP3    H271918   6.335   6.035   3.112
16835TIP3   OH271919   3.047   0.971   0.418
16835TIP3    H171920   2.989   1.034   0.376
16835TIP3    H271921   2.993   0.932   0.487
16836TIP3   OH271922   3.175   5.053   3.498
16836TIP3    H171923   3.215   5.062   3.411
16836TIP3    H271924   3.249   5.060   3.559
16837TIP3   OH271925   4.132   4.504   6.691
16837TIP3    H171926   4.049   4.474   6.655
16837TIP3    H271927   4.128   4.600   6.684
16838TIP3   OH271928   0.231   4.344  14.524
16838TIP3    H171929   0.255   4.335  14.432
16838TIP3    H271930   0.273   4.270  14.568
16839TIP3   OH271931   4.452   5.164  13.523
16839TIP3    H171932   4.378   5.220  13.545
16839TIP3    H271933   4.414   5.077  13.513
16840TIP3   OH271934   5.992   6.174  16.677
16840TIP3    H171935   6.074   6.188  16.631
16840TIP3    H271936   5.967   6.262  16.708
16841TIP3   OH271937   4.966   3.870   6.298
16841TIP3    H171938   5.006   3.796   6.344
16841TIP3    H271939   5.040   3.928   6.277
16842TIP3   OH271940   3.829   1.503   2.805
16842TIP3    H171941   3.891   1.554   2.856
16842TIP3    H271942   3.882   1.438   2.760
16843TIP3   OH271943   3.395   2.136   5.370
16843TIP3    H171944   3.405   2.224   5.406
16843TIP3    H271945   3.314   2.103   5.410
16844TIP3   OH271946   3.009   6.639   1.078
16844TIP3    H171947   3.018   6.577   1.005
16844TIP3    H271948   2.939   6.698   1.051
16845TIP3   OH271949   2.391   1.629  11.829
16845TIP3    H171950   2.375   1.538  11.804
16845TIP3    H271951   2.310   1.675  11.808
16846TIP3   OH271952   2.690   5.136  16.547
16846TIP3    H171953   2.693   5.074  16.473
16846TIP3    H271954   2.781   5.146  16.573
16847TIP3   OH271955   2.723   0.266   1.273
16847TIP3    H171956   2.721   0.194   1.210
16847TIP3    H271957   2.816   0.287   1.282
16848TIP3   OH271958   4.520   0.073   6.241
16848TIP3    H171959   4.593   0.069   6.179
16848TIP3    H271960   4.517   0.165   6.269
16849TIP3   OH271961   3.434   1.089  12.772
16849TIP3    H171962   3.477   1.100  12.857
16849TIP3    H271963   3.421   1.178  12.740
16850TIP3   OH271964   1.071   5.609  15.805
16850TIP3    H171965   1.033   5.690  15.771
16850TIP3    H271966   1.038   5.603  15.895
16851TIP3   OH271967   6.525   6.201   4.075
16851TIP3    H171968   6.487   6.113   4.083
16851TIP3    H271969   6.502   6.244   4.157
16852TIP3   OH271970   5.023   4.927  14.598
16852TIP3    H171971   5.105   4.940  14.550
16852TIP3    H271972   4.965   4.883  14.535
16853TIP3   OH271973   1.789   0.091  16.543
16853TIP3    H171974   1.864   0.071  16.488
16853TIP3    H271975   1.757   0.005  16.572
16854TIP3   OH271976   4.432   2.027  13.403
16854TIP3    H171977   4.419   2.104  13.347
16854TIP3    H271978   4.441   2.062  13.491
16855TIP3   OH271979   4.364   2.146  10.702
16855TIP3    H171980   4.329   2.218  10.650
16855TIP3    H271981   4.428   2.104  10.644
16856TIP3   OH271982   0.722   3.586   1.590
16856TIP3    H171983   0.774   3.626   1.519
16856TIP3    H271984   0.636   3.628   1.583
16857TIP3   OH271985   6.109   0.836  13.924
16857TIP3    H171986   6.080   0.809  14.012
16857TIP3    H271987   6.183   0.895  13.940
16858TIP3   OH271988   6.620   3.705  15.472
16858TIP3    H171989   6.638   3.694  15.378
16858TIP3    H271990   6.531   3.740  15.475
16859TIP3   OH271991   4.295   2.655  10.604
16859TIP3    H171992   4.359   2.718  10.637
16859TIP3    H271993   4.222   2.709  10.573
16860TIP3   OH271994   4.749   1.735  13.728
16860TIP3    H171995   4.692   1.659  13.741
16860TIP3    H271996   4.707   1.805  13.779
16861TIP3   OH271997   0.487   0.414  13.225
16861TIP3    H171998   0.541   0.344  13.188
16861TIP3    H271999   0.402   0.404  13.183
16862TIP3   OH272000   3.177   2.786   0.350
16862TIP3    H172001   3.122   2.826   0.282
16862TIP3    H272002   3.226   2.717   0.305
16863TIP3   OH272003   1.114   0.702   3.965
16863TIP3    H172004   1.076   0.659   3.889
16863TIP3    H272005   1.043   0.708   4.028
16864TIP3   OH272006   3.178   0.158  12.071
16864TIP3    H172007   3.172   0.197  12.158
16864TIP3    H272008   3.197   0.066  12.087
16865TIP3   OH272009   3.998   2.563   0.550
16865TIP3    H172010   3.993   2.486   0.495
16865TIP3    H272011   4.092   2.581   0.557
16866TIP3   OH272012   0.449   6.216  15.444
16866TIP3    H172013   0.487   6.245  15.361
16866TIP3    H272014   0.371   6.270  15.455
16867TIP3   OH272015   4.011   3.614  13.221
16867TIP3    H172016   4.045   3.699  13.248
16867TIP3    H272017   4.043   3.553  13.287
16868TIP3   OH272018   5.516   5.494  10.290
16868TIP3    H172019   5.492   5.403  10.304
16868TIP3    H272020   5.476   5.516  10.206
16869TIP3   OH272021   2.815   1.105  17.214
16869TIP3    H172022   2.892   1.153  17.245
16869TIP3    H272023   2.745   1.170  17.215
16870TIP3   OH272024   2.448   5.467  11.593
16870TIP3    H172025   2.427   5.426  11.509
16870TIP3    H272026   2.432   5.399  11.658
16871TIP3   OH272027   2.258   6.732  14.454
16871TIP3    H172028   2.193   6.673  14.416
16871TIP3    H272029   2.213   6.774  14.527
16872TIP3   OH272030   1.696   2.199  16.754
16872TIP3    H172031   1.668   2.168  16.840
16872TIP3    H272032   1.771   2.143  16.731
16873TIP3   OH272033   2.428   4.028  14.525
16873TIP3    H172034   2.420   4.059  14.434
16873TIP3    H272035   2.357   3.966  14.536
16874TIP3   OH272036   3.786   1.473  14.646
16874TIP3    H172037   3.834   1.426  14.715
16874TIP3    H272038   3.768   1.559  14.685
16875TIP3   OH272039   6.005   1.584  13.073
16875TIP3    H172040   5.950   1.510  13.047
16875TIP3    H272041   5.995   1.648  13.002
16876TIP3   OH272042   3.513   0.801  13.625
16876TIP3    H172043   3.517   0.777  13.717
16876TIP3    H272044   3.425   0.836  13.612
16877TIP3   OH272045   0.707   3.814   1.788
16877TIP3    H172046   0.722   3.905   1.765
16877TIP3    H272047   0.629   3.789   1.737
16878TIP3   OH272048   6.196   0.601  13.217
16878TIP3    H172049   6.105   0.616  13.190
16878TIP3    H272050   6.219   0.517  13.176
16879TIP3   OH272051   2.618   6.516   5.782
16879TIP3    H172052   2.626   6.603   5.742
16879TIP3    H272053   2.699   6.506   5.832
16880TIP3   OH272054   1.302   6.566   4.564
16880TIP3    H172055   1.350   6.564   4.646
16880TIP3    H272056   1.282   6.659   4.550
16881TIP3   OH272057   2.907   1.061   1.811
16881TIP3    H172058   2.978   1.003   1.840
16881TIP3    H272059   2.895   1.038   1.718
16882TIP3   OH272060   3.245   3.748   2.807
16882TIP3    H172061   3.257   3.768   2.900
16882TIP3    H272062   3.153   3.769   2.789
16883TIP3   OH272063   1.441   3.626  10.879
16883TIP3    H172064   1.528   3.664  10.894
16883TIP3    H272065   1.458   3.543  10.835
16884TIP3   OH272066   1.207   3.289  15.783
16884TIP3    H172067   1.194   3.384  15.780
16884TIP3    H272068   1.123   3.254  15.815
16885TIP3   OH272069   0.481   1.314  16.246
16885TIP3    H172070   0.510   1.402  16.271
16885TIP3    H272071   0.500   1.260  16.323
16886TIP3   OH272072   2.796   5.570   1.656
16886TIP3    H172073   2.772   5.630   1.585
16886TIP3    H272074   2.733   5.588   1.725
16887TIP3   OH272075   2.302   3.193  13.415
16887TIP3    H172076   2.321   3.276  13.371
16887TIP3    H272077   2.342   3.127  13.359
16888TIP3   OH272078   1.917   2.397  16.780
16888TIP3    H172079   1.842   2.346  16.812
16888TIP3    H272080   1.940   2.454  16.853
16889TIP3   OH272081   4.590   6.225  12.799
16889TIP3    H172082   4.670   6.178  12.823
16889TIP3    H272083   4.588   6.222  12.703
16890TIP3   OH272084   6.516   1.301   2.496
16890TIP3    H172085   6.426   1.331   2.485
16890TIP3    H272086   6.547   1.281   2.408
16891TIP3   OH272087   1.085   3.468   2.936
16891TIP3    H172088   1.123   3.494   3.020
16891TIP3    H272089   1.140   3.395   2.907
16892TIP3   OH272090   6.179   5.694   3.181
16892TIP3    H172091   6.123   5.624   3.216
16892TIP3    H272092   6.208   5.742   3.259
16893TIP3   OH272093   1.370   4.557  15.071
16893TIP3    H172094   1.442   4.494  15.078
16893TIP3    H272095   1.307   4.515  15.012
16894TIP3   OH272096   6.564   1.446  12.038
16894TIP3    H172097   6.549   1.353  12.025
16894TIP3    H272098   6.643   1.451  12.091
16895TIP3   OH272099   5.751   4.855  14.127
16895TIP3    H172100   5.691   4.785  14.100
16895TIP3    H272101   5.791   4.885  14.046
16896TIP3   OH272102   4.959   3.784  14.766
16896TIP3    H172103   5.054   3.768  14.768
16896TIP3    H272104   4.931   3.768  14.856
16897TIP3   OH272105   6.662   1.945   1.115
16897TIP3    H172106   6.621   1.903   1.190
16897TIP3    H272107   6.731   1.885   1.087
16898TIP3   OH272108   2.158   2.045  15.238
16898TIP3    H172109   2.212   2.077  15.166
16898TIP3    H272110   2.170   1.950  15.236
16899TIP3   OH272111   4.801   6.294   3.446
16899TIP3    H172112   4.820   6.215   3.496
16899TIP3    H272113   4.861   6.290   3.371
16900TIP3   OH272114   1.569   0.107  17.117
16900TIP3    H172115   1.589   0.028  17.167
16900TIP3    H272116   1.622   0.176  17.157
16901TIP3   OH272117   0.663   5.275  16.655
16901TIP3    H172118   0.738   5.274  16.714
16901TIP3    H272119   0.595   5.324  16.703
16902TIP3   OH272120   0.835   2.079   3.978
16902TIP3    H172121   0.800   2.137   3.910
16902TIP3    H272122   0.906   2.032   3.934
16903TIP3   OH272123   3.892   3.202   4.638
16903TIP3    H172124   3.861   3.240   4.555
16903TIP3    H272125   3.813   3.191   4.690
16904TIP3   OH272126   4.824   6.502  13.669
16904TIP3    H172127   4.897   6.563  13.659
16904TIP3    H272128   4.835   6.465  13.756
16905TIP3   OH272129   4.963   3.944  15.345
16905TIP3    H172130   4.943   4.013  15.408
16905TIP3    H272131   4.991   3.870  15.398
16906TIP3   OH272132   2.906   0.705   1.467
16906TIP3    H172133   2.860   0.783   1.498
16906TIP3    H272134   2.871   0.633   1.519
16907TIP3   OH272135   4.044   5.245  11.394
16907TIP3    H172136   4.009   5.218  11.479
16907TIP3    H272137   4.015   5.336  11.384
16908TIP3   OH272138   5.215   0.933  14.449
16908TIP3    H172139   5.276   0.943  14.376
16908TIP3    H272140   5.245   0.856  14.496
16909TIP3   OH272141   3.435   3.662  12.990
16909TIP3    H172142   3.355   3.611  12.980
16909TIP3    H272143   3.446   3.673  13.084
16910TIP3   OH272144   3.896   4.066  15.396
16910TIP3    H172145   3.926   4.006  15.328
16910TIP3    H272146   3.938   4.149  15.375
16911TIP3   OH272147   0.652   4.623   3.045
16911TIP3    H172148   0.661   4.651   2.954
16911TIP3    H272149   0.558   4.616   3.059
16912TIP3   OH272150   3.560   4.664  15.616
16912TIP3    H172151   3.549   4.654  15.522
16912TIP3    H272152   3.475   4.698  15.647
16913TIP3   OH272153   3.561   2.609   1.832
16913TIP3    H172154   3.553   2.627   1.739
16913TIP3    H272155   3.472   2.614   1.866
16914TIP3   OH272156   6.344   5.242   4.134
16914TIP3    H172157   6.415   5.177   4.135
16914TIP3    H272158   6.371   5.304   4.066
16915TIP3   OH272159   5.952   3.520  13.793
16915TIP3    H172160   5.986   3.458  13.857
16915TIP3    H272161   5.966   3.606  13.834
16916TIP3   OH272162   4.611   0.308  15.617
16916TIP3    H172163   4.698   0.321  15.579
16916TIP3    H272164   4.565   0.253  15.554
16917TIP3   OH272165   6.519   6.554   1.087
16917TIP3    H172166   6.597   6.500   1.080
16917TIP3    H272167   6.492   6.547   1.178
16918TIP3   OH272168   1.255   0.460   5.236
16918TIP3    H172169   1.172   0.426   5.200
16918TIP3    H272170   1.243   0.554   5.238
16919TIP3   OH272171   4.845   0.143   1.855
16919TIP3    H172172   4.774   0.175   1.911
16919TIP3    H272173   4.840   0.048   1.861
16920TIP3   OH272174   0.681   2.398   4.138
16920TIP3    H172175   0.721   2.409   4.224
16920TIP3    H272176   0.666   2.304   4.129
16921TIP3   OH272177   4.076   5.386  12.517
16921TIP3    H172178   4.170   5.398  12.533
16921TIP3    H272179   4.034   5.455  12.570
16922TIP3   OH272180   0.511   2.194  14.808
16922TIP3    H172181   0.583   2.132  14.790
16922TIP3    H272182   0.540   2.241  14.886
16923TIP3   OH272183   5.930   1.741   3.818
16923TIP3    H172184   5.884   1.715   3.898
16923TIP3    H272185   5.926   1.663   3.762
16924TIP3   OH272186   1.444   5.122  12.813
16924TIP3    H172187   1.379   5.166  12.867
16924TIP3    H272188   1.422   5.029  12.819
16925TIP3   OH272189   1.235   2.177   1.464
16925TIP3    H172190   1.243   2.178   1.369
16925TIP3    H272191   1.228   2.084   1.486
16926TIP3   OH272192   1.127   6.063  14.480
16926TIP3    H172193   1.061   5.994  14.491
16926TIP3    H272194   1.140   6.070  14.386
16927TIP3   OH272195   4.957   5.982  14.547
16927TIP3    H172196   4.866   5.953  14.546
16927TIP3    H272197   4.967   6.024  14.632
16928TIP3   OH272198   1.341   2.838  15.393
16928TIP3    H172199   1.387   2.917  15.363
16928TIP3    H272200   1.357   2.835  15.487
16929TIP3   OH272201   2.072   0.185  15.148
16929TIP3    H172202   2.106   0.252  15.089
16929TIP3    H272203   2.145   0.165  15.206
16930TIP3   OH272204   5.648   0.531  16.327
16930TIP3    H172205   5.601   0.605  16.289
16930TIP3    H272206   5.616   0.455  16.279
16931TIP3   OH272207   3.239   0.427   4.195
16931TIP3    H172208   3.206   0.480   4.122
16931TIP3    H272209   3.192   0.344   4.188
16932TIP3   OH272210   4.231   0.967   4.567
16932TIP3    H172211   4.171   0.918   4.511
16932TIP3    H272212   4.176   1.001   4.638
16933TIP3   OH272213   2.474   5.397  13.025
16933TIP3    H172214   2.393   5.361  13.062
16933TIP3    H272215   2.492   5.475  13.078
16934TIP3   OH272216   6.786   5.891   4.238
16934TIP3    H172217   6.716   5.826   4.238
16934TIP3    H272218   6.854   5.854   4.293
16935TIP3   OH272219   0.878   2.610  12.731
16935TIP3    H172220   0.859   2.702  12.751
16935TIP3    H272221   0.974   2.606  12.730
16936TIP3   OH272222   5.886   3.430   3.857
16936TIP3    H172223   5.871   3.499   3.922
16936TIP3    H272224   5.799   3.405   3.828
16937TIP3   OH272225   5.053   6.783  14.064
16937TIP3    H172226   5.055   6.690  14.042
16937TIP3    H272227   4.992   6.821  14.001
16938TIP3   OH272228   3.200   5.491   2.588
16938TIP3    H172229   3.111   5.478   2.621
16938TIP3    H272230   3.254   5.430   2.639
16939TIP3   OH272231   5.514   0.906   3.837
16939TIP3    H172232   5.424   0.892   3.864
16939TIP3    H272233   5.507   0.940   3.747
16940TIP3   OH272234   3.492   6.683   4.468
16940TIP3    H172235   3.534   6.648   4.547
16940TIP3    H272236   3.565   6.717   4.416
16941TIP3   OH272237   6.363   3.396  11.814
16941TIP3    H172238   6.323   3.354  11.891
16941TIP3    H272239   6.312   3.363  11.740
16942TIP3   OH272240   2.142   4.388  11.892
16942TIP3    H172241   2.162   4.294  11.896
16942TIP3    H272242   2.054   4.393  11.856
16943TIP3   OH272243   2.238   4.514  11.538
16943TIP3    H172244   2.329   4.543  11.546
16943TIP3    H272245   2.193   4.588  11.497
16944TIP3   OH272246   5.252   1.666  11.296
16944TIP3    H172247   5.330   1.661  11.240
16944TIP3    H272248   5.237   1.575  11.324
16945TIP3   OH272249   4.439   1.487   2.679
16945TIP3    H172250   4.413   1.465   2.768
16945TIP3    H272251   4.522   1.440   2.666
16946TIP3   OH272252   0.952   6.566  12.898
16946TIP3    H172253   0.857   6.578  12.899
16946TIP3    H272254   0.970   6.510  12.974
16947TIP3   OH272255   2.120   5.870   4.269
16947TIP3    H172256   2.111   5.829   4.355
16947TIP3    H272257   2.070   5.814   4.211
16948TIP3   OH272258   1.120   4.499   0.743
16948TIP3    H172259   1.196   4.505   0.800
16948TIP3    H272260   1.144   4.549   0.665
16949TIP3   OH272261   4.327   3.782   1.261
16949TIP3    H172262   4.389   3.743   1.199
16949TIP3    H272263   4.347   3.875   1.260
16950TIP3   OH272264   2.868   2.751   4.935
16950TIP3    H172265   2.937   2.696   4.972
16950TIP3    H272266   2.786   2.708   4.960
16951TIP3   OH272267   1.466   0.804  15.078
16951TIP3    H172268   1.428   0.718  15.098
16951TIP3    H272269   1.521   0.824  15.154
16952TIP3   OH272270   4.752   6.195   4.445
16952TIP3    H172271   4.776   6.287   4.445
16952TIP3    H272272   4.816   6.153   4.502
16953TIP3   OH272273   2.948   4.341  16.776
16953TIP3    H172274   3.012   4.275  16.801
16953TIP3    H272275   2.940   4.398  16.852
16954TIP3   OH272276   6.754   4.392  11.585
16954TIP3    H172277   6.777   4.449  11.511
16954TIP3    H272278   6.837   4.378  11.630
16955TIP3   OH272279   6.501   3.425   0.696
16955TIP3    H172280   6.465   3.506   0.660
16955TIP3    H272281   6.424   3.371   0.715
16956TIP3   OH272282   4.455   6.268  14.638
16956TIP3    H172283   4.508   6.218  14.700
16956TIP3    H272284   4.423   6.203  14.575
16957TIP3   OH272285   6.324   5.716   5.326
16957TIP3    H172286   6.315   5.809   5.347
16957TIP3    H272287   6.327   5.714   5.230
16958TIP3   OH272288   2.958   2.159   0.314
16958TIP3    H172289   3.047   2.133   0.292
16958TIP3    H272290   2.930   2.214   0.240
16959TIP3   OH272291   2.950   4.493   3.796
16959TIP3    H172292   2.965   4.427   3.728
16959TIP3    H272293   2.943   4.443   3.877
16960TIP3   OH272294   4.004   2.607   2.019
16960TIP3    H172295   4.017   2.697   1.990
16960TIP3    H272296   4.025   2.608   2.112
16961TIP3   OH272297   6.650   2.346  17.055
16961TIP3    H172298   6.731   2.315  17.014
16961TIP3    H272299   6.586   2.347  16.983
16962TIP3   OH272300   1.813   2.918  12.314
16962TIP3    H172301   1.854   2.927  12.400
16962TIP3    H272302   1.828   2.827  12.289
16963TIP3   OH272303   5.023   0.731   4.351
16963TIP3    H172304   4.999   0.758   4.440
16963TIP3    H272305   4.941   0.735   4.301
16964TIP3   OH272306   1.845   3.406   2.533
16964TIP3    H172307   1.809   3.439   2.615
16964TIP3    H272308   1.933   3.375   2.557
16965TIP3   OH272309   1.096   6.688   0.853
16965TIP3    H172310   1.116   6.776   0.820
16965TIP3    H272311   1.004   6.674   0.829
16966TIP3   OH272312   5.072   3.887  16.402
16966TIP3    H172313   5.104   3.834  16.475
16966TIP3    H272314   5.121   3.969  16.409
16967TIP3   OH272315   5.193   4.797   4.254
16967TIP3    H172316   5.160   4.814   4.342
16967TIP3    H272317   5.173   4.705   4.238
16968TIP3   OH272318   4.174   3.488  13.413
16968TIP3    H172319   4.231   3.528  13.478
16968TIP3    H272320   4.228   3.422  13.370
16969TIP3   OH272321   5.455   5.024   1.267
16969TIP3    H172322   5.497   4.984   1.343
16969TIP3    H272323   5.499   4.983   1.192
16970TIP3   OH272324   3.314   5.373   3.038
16970TIP3    H172325   3.341   5.444   3.097
16970TIP3    H272326   3.384   5.308   3.045
16971TIP3   OH272327   2.879   6.194  14.533
16971TIP3    H172328   2.928   6.165  14.610
16971TIP3    H272329   2.945   6.198  14.463
16972TIP3   OH272330   2.698   5.742  15.363
16972TIP3    H172331   2.666   5.726  15.274
16972TIP3    H272332   2.618   5.754  15.415
16973TIP3   OH272333   6.785   5.246   2.750
16973TIP3    H172334   6.834   5.321   2.719
16973TIP3    H272335   6.766   5.265   2.842
16974TIP3   OH272336   0.455   2.382  14.566
16974TIP3    H172337   0.448   2.400  14.659
16974TIP3    H272338   0.367   2.393  14.532
16975TIP3   OH272339   0.055   2.769   4.107
16975TIP3    H172340   0.122   2.708   4.139
16975TIP3    H272341  -0.011   2.770   4.176
16976TIP3   OH272342   1.813   1.513  12.325
16976TIP3    H172343   1.760   1.519  12.405
16976TIP3    H272344   1.758   1.552  12.257
16977TIP3   OH272345   6.126   0.415   2.736
16977TIP3    H172346   6.132   0.354   2.663
16977TIP3    H272347   6.180   0.490   2.709
16978TIP3   OH272348   3.453   1.806   0.099
16978TIP3    H172349   3.503   1.824   0.019
16978TIP3    H272350   3.361   1.815   0.072
16979TIP3   OH272351   3.622   5.898  14.065
16979TIP3    H172352   3.552   5.915  14.002
16979TIP3    H272353   3.579   5.848  14.135
16980TIP3   OH272354   6.719   0.475  16.801
16980TIP3    H172355   6.657   0.540  16.768
16980TIP3    H272356   6.687   0.452  16.888
16981TIP3   OH272357   1.776   2.027   1.498
16981TIP3    H172358   1.728   1.945   1.494
16981TIP3    H272359   1.868   2.002   1.493
16982TIP3   OH272360   1.940   6.653  14.090
16982TIP3    H172361   1.975   6.615  14.010
16982TIP3    H272362   1.874   6.590  14.120
16983TIP3   OH272363   1.300   6.115  11.436
16983TIP3    H172364   1.349   6.033  11.439
16983TIP3    H272365   1.300   6.139  11.343
16984TIP3   OH272366   0.083   5.381  16.215
16984TIP3    H172367   0.111   5.388  16.124
16984TIP3    H272368   0.006   5.438  16.221
16985TIP3   OH272369   6.212   4.347  16.571
16985TIP3    H172370   6.205   4.408  16.645
16985TIP3    H272371   6.283   4.288  16.595
16986TIP3   OH272372   6.299   1.896   3.244
16986TIP3    H172373   6.245   1.818   3.258
16986TIP3    H272374   6.373   1.886   3.305
16987TIP3   OH272375   6.135   2.687  13.763
16987TIP3    H172376   6.077   2.615  13.786
16987TIP3    H272377   6.222   2.656  13.787
16988TIP3   OH272378   1.415   3.768  11.910
16988TIP3    H172379   1.472   3.693  11.927
16988TIP3    H272380   1.466   3.826  11.855
16989TIP3   OH272381   3.844   3.604   3.636
16989TIP3    H172382   3.854   3.578   3.544
16989TIP3    H272383   3.811   3.694   3.631
16990TIP3   OH272384   6.449   5.195   6.362
16990TIP3    H172385   6.521   5.230   6.416
16990TIP3    H272386   6.389   5.269   6.353
16991TIP3   OH272387   1.474   5.025   0.385
16991TIP3    H172388   1.395   5.080   0.387
16991TIP3    H272389   1.466   4.969   0.462
16992TIP3   OH272390   5.867   2.375   1.506
16992TIP3    H172391   5.907   2.365   1.419
16992TIP3    H272392   5.774   2.386   1.487
16993TIP3   OH272393   0.230   3.916   4.849
16993TIP3    H172394   0.244   4.010   4.836
16993TIP3    H272395   0.263   3.876   4.768
16994TIP3   OH272396   5.914   1.289   0.579
16994TIP3    H172397   5.902   1.194   0.587
16994TIP3    H272398   5.887   1.324   0.663
16995TIP3   OH272399   2.515   6.572  11.217
16995TIP3    H172400   2.507   6.655  11.170
16995TIP3    H272401   2.435   6.525  11.196
16996TIP3   OH272402   5.952   0.656   2.415
16996TIP3    H172403   5.955   0.642   2.509
16996TIP3    H272404   5.954   0.751   2.404
16997TIP3   OH272405   5.871   2.910   5.234
16997TIP3    H172406   5.911   2.838   5.283
16997TIP3    H272407   5.830   2.965   5.300
16998TIP3   OH272408   1.627   3.397   6.417
16998TIP3    H172409   1.640   3.313   6.374
16998TIP3    H272410   1.701   3.405   6.477
16999TIP3   OH272411   2.523   0.808   5.881
16999TIP3    H172412   2.483   0.722   5.868
16999TIP3    H272413   2.491   0.836   5.967
17000TIP3   OH272414   3.588   2.758   5.403
17000TIP3    H172415   3.540   2.749   5.486
17000TIP3    H272416   3.573   2.849   5.377
17001TIP3   OH272417   0.257   1.381   6.214
17001TIP3    H172418   0.218   1.336   6.139
17001TIP3    H272419   0.203   1.354   6.288
17002TIP3   OH272420   1.502   4.345   3.880
17002TIP3    H172421   1.575   4.378   3.932
17002TIP3    H272422   1.518   4.251   3.874
17003TIP3   OH272423   2.025   3.609  16.162
17003TIP3    H172424   2.095   3.669  16.134
17003TIP3    H272425   1.956   3.623  16.098
17004TIP3   OH272426   3.661   6.539  14.030
17004TIP3    H172427   3.750   6.565  14.007
17004TIP3    H272428   3.616   6.531  13.946
17005TIP3   OH272429   0.345   2.490  13.251
17005TIP3    H172430   0.317   2.450  13.334
17005TIP3    H272431   0.421   2.440  13.224
17006TIP3   OH272432   2.711   1.249   1.590
17006TIP3    H172433   2.701   1.319   1.653
17006TIP3    H272434   2.795   1.267   1.547
17007TIP3   OH272435   6.663   6.336  11.752
17007TIP3    H172436   6.680   6.409  11.693
17007TIP3    H272437   6.640   6.376  11.836
17008TIP3   OH272438   5.079   2.663   2.997
17008TIP3    H172439   4.994   2.671   2.955
17008TIP3    H272440   5.121   2.748   2.986
17009TIP3   OH272441   3.883   2.882  16.233
17009TIP3    H172442   3.808   2.933  16.263
17009TIP3    H272443   3.926   2.938  16.168
17010TIP3   OH272444   3.616   1.789  15.296
17010TIP3    H172445   3.691   1.819  15.245
17010TIP3    H272446   3.542   1.795  15.236
17011TIP3   OH272447   1.007   2.649   0.831
17011TIP3    H172448   1.069   2.612   0.768
17011TIP3    H272449   1.057   2.718   0.875
17012TIP3   OH272450   1.938   4.271   6.509
17012TIP3    H172451   1.890   4.353   6.498
17012TIP3    H272452   2.025   4.288   6.471
17013TIP3   OH272453   3.871   4.578   3.332
17013TIP3    H172454   3.959   4.573   3.369
17013TIP3    H272455   3.875   4.522   3.254
17014TIP3   OH272456   4.058   2.514   3.169
17014TIP3    H172457   3.973   2.519   3.213
17014TIP3    H272458   4.038   2.521   3.076
17015TIP3   OH272459   5.160   2.794   5.005
17015TIP3    H172460   5.197   2.813   4.918
17015TIP3    H272461   5.184   2.703   5.021
17016TIP3   OH272462   2.450   1.676   4.524
17016TIP3    H172463   2.432   1.588   4.491
17016TIP3    H272464   2.368   1.704   4.564
17017TIP3   OH272465   4.903   1.495  11.369
17017TIP3    H172466   4.965   1.562  11.341
17017TIP3    H272467   4.949   1.412  11.354
17018TIP3   OH272468   4.271   4.131   2.210
17018TIP3    H172469   4.290   4.129   2.303
17018TIP3    H272470   4.178   4.151   2.204
17019TIP3   OH272471   3.437   0.658  14.260
17019TIP3    H172472   3.393   0.579  14.229
17019TIP3    H272473   3.411   0.666  14.351
17020TIP3   OH272474   6.077   4.018  14.394
17020TIP3    H172475   6.141   3.979  14.454
17020TIP3    H272476   6.121   4.097  14.362
17021TIP3   OH272477   3.967   3.881  12.520
17021TIP3    H172478   4.018   3.852  12.595
17021TIP3    H272479   3.996   3.825  12.448
17022TIP3   OH272480   5.431   6.753  12.049
17022TIP3    H172481   5.430   6.667  12.091
17022TIP3    H272482   5.499   6.801  12.097
17023TIP3   OH272483   4.599   5.738   6.086
17023TIP3    H172484   4.655   5.815   6.077
17023TIP3    H272485   4.522   5.770   6.133
17024TIP3   OH272486   1.737   3.534  16.559
17024TIP3    H172487   1.760   3.508  16.470
17024TIP3    H272488   1.750   3.455  16.612
17025TIP3   OH272489   0.308   3.858  14.742
17025TIP3    H172490   0.220   3.852  14.780
17025TIP3    H272491   0.354   3.781  14.775
17026TIP3   OH272492   0.624   4.396   4.758
17026TIP3    H172493   0.709   4.430   4.727
17026TIP3    H272494   0.579   4.368   4.679
17027TIP3   OH272495   4.297   1.513  13.528
17027TIP3    H172496   4.230   1.510  13.460
17027TIP3    H272497   4.364   1.450  13.498
17028TIP3   OH272498   6.429   0.612   1.079
17028TIP3    H172499   6.488   0.686   1.093
17028TIP3    H272500   6.341   0.651   1.080
17029TIP3   OH272501   5.448   4.338   3.055
17029TIP3    H172502   5.423   4.360   2.965
17029TIP3    H272503   5.534   4.378   3.066
17030TIP3   OH272504   2.830   4.633  14.261
17030TIP3    H172505   2.813   4.646  14.354
17030TIP3    H272506   2.790   4.709  14.219
17031TIP3   OH272507   0.212   6.701  14.719
17031TIP3    H172508   0.259   6.686  14.800
17031TIP3    H272509   0.201   6.614  14.680
17032TIP3   OH272510   2.685   1.215  14.536
17032TIP3    H172511   2.736   1.239  14.459
17032TIP3    H272512   2.616   1.281  14.541
17033TIP3   OH272513   4.016   5.389  11.873
17033TIP3    H172514   3.960   5.427  11.941
17033TIP3    H272515   4.065   5.464  11.839
17034TIP3   OH272516   1.994   6.468  14.855
17034TIP3    H172517   1.907   6.499  14.831
17034TIP3    H272518   1.983   6.427  14.940
17035TIP3   OH272519   6.132   4.435  13.513
17035TIP3    H172520   6.116   4.461  13.604
17035TIP3    H272521   6.222   4.401  13.513
17036TIP3   OH272522   3.214   3.847   6.257
17036TIP3    H172523   3.252   3.788   6.322
17036TIP3    H272524   3.147   3.896   6.304
17037TIP3   OH272525   0.040   6.698   5.907
17037TIP3    H172526   0.072   6.627   5.963
17037TIP3    H272527  -0.051   6.676   5.889
17038TIP3   OH272528   5.747   3.556  14.165
17038TIP3    H172529   5.707   3.584  14.082
17038TIP3    H272530   5.801   3.630  14.192
17039TIP3   OH272531   5.021   1.340  11.740
17039TIP3    H172532   5.055   1.393  11.812
17039TIP3    H272533   4.995   1.403  11.673
17040TIP3   OH272534   4.868   0.393   2.211
17040TIP3    H172535   4.794   0.343   2.245
17040TIP3    H272536   4.830   0.476   2.183
17041TIP3   OH272537   5.413   1.089   2.239
17041TIP3    H172538   5.443   1.032   2.310
17041TIP3    H272539   5.443   1.177   2.264
17042TIP3   OH272540   1.593   2.747  15.853
17042TIP3    H172541   1.569   2.808  15.922
17042TIP3    H272542   1.662   2.792  15.804
17043TIP3   OH272543   3.304   3.675   6.476
17043TIP3    H172544   3.233   3.616   6.502
17043TIP3    H272545   3.378   3.648   6.530
17044TIP3   OH272546   6.742   4.844  16.263
17044TIP3    H172547   6.753   4.824  16.170
17044TIP3    H272548   6.731   4.939  16.266
17045TIP3   OH272549   2.953   2.380   1.552
17045TIP3    H172550   2.984   2.317   1.487
17045TIP3    H272551   2.986   2.346   1.635
17046TIP3   OH272552   3.879   1.496   3.203
17046TIP3    H172553   3.899   1.500   3.297
17046TIP3    H272554   3.961   1.467   3.163
17047TIP3   OH272555   3.298   2.064   4.975
17047TIP3    H172556   3.349   1.996   5.021
17047TIP3    H272557   3.336   2.146   5.006
17048TIP3   OH272558   5.622   4.250   0.379
17048TIP3    H172559   5.601   4.170   0.331
17048TIP3    H272560   5.700   4.284   0.336
17049TIP3   OH272561   3.501   4.488   5.132
17049TIP3    H172562   3.543   4.542   5.065
17049TIP3    H272563   3.561   4.491   5.206
17050TIP3   OH272564   6.663   5.736  10.467
17050TIP3    H172565   6.609   5.674  10.418
17050TIP3    H272566   6.603   5.805  10.493
17051TIP3   OH272567   5.432   2.718  16.516
17051TIP3    H172568   5.360   2.693  16.458
17051TIP3    H272569   5.398   2.703  16.604
17052TIP3   OH272570   5.829   2.932   1.260
17052TIP3    H172571   5.830   2.851   1.209
17052TIP3    H272572   5.751   2.978   1.229
17053TIP3   OH272573   0.034   1.869   0.291
17053TIP3    H172574   0.103   1.917   0.244
17053TIP3    H272575   0.066   1.865   0.381
17054TIP3   OH272576   3.373   3.093  11.368
17054TIP3    H172577   3.391   3.168  11.424
17054TIP3    H272578   3.448   3.035  11.380
17055TIP3   OH272579   0.862   1.681  12.620
17055TIP3    H172580   0.848   1.590  12.643
17055TIP3    H272581   0.890   1.679  12.528
17056TIP3   OH272582   0.424   0.259   6.290
17056TIP3    H172583   0.388   0.238   6.203
17056TIP3    H272584   0.493   0.194   6.304
17057TIP3   OH272585   0.820   3.911   3.087
17057TIP3    H172586   0.879   3.852   3.040
17057TIP3    H272587   0.734   3.870   3.079
17058TIP3   OH272588   3.201   6.400  11.104
17058TIP3    H172589   3.151   6.330  11.062
17058TIP3    H272590   3.287   6.361  11.122
17059TIP3   OH272591   5.037   1.319   2.534
17059TIP3    H172592   5.036   1.360   2.621
17059TIP3    H272593   4.992   1.235   2.547
17060TIP3   OH272594   1.200   6.554  16.351
17060TIP3    H172595   1.263   6.482  16.355
17060TIP3    H272596   1.133   6.532  16.416
17061TIP3   OH272597   2.962   6.705   1.669
17061TIP3    H172598   2.920   6.676   1.750
17061TIP3    H272599   2.901   6.768   1.630
17062TIP3   OH272600   3.551   4.350   3.168
17062TIP3    H172601   3.622   4.290   3.146
17062TIP3    H272602   3.503   4.306   3.238
17063TIP3   OH272603   3.609   6.192  15.727
17063TIP3    H172604   3.646   6.260  15.782
17063TIP3    H272605   3.683   6.134  15.707
17064TIP3   OH272606   3.362   5.783  15.960
17064TIP3    H172607   3.430   5.812  15.900
17064TIP3    H272608   3.311   5.720  15.909
17065TIP3   OH272609   2.620   2.875   4.094
17065TIP3    H172610   2.554   2.846   4.156
17065TIP3    H272611   2.633   2.800   4.036
17066TIP3   OH272612   3.233   2.404  16.682
17066TIP3    H172613   3.271   2.488  16.706
17066TIP3    H272614   3.258   2.391  16.591
17067TIP3   OH272615   4.129   4.856   4.203
17067TIP3    H172616   4.171   4.919   4.261
17067TIP3    H272617   4.090   4.791   4.261
17068TIP3   OH272618   2.276   5.818  11.297
17068TIP3    H172619   2.291   5.825  11.203
17068TIP3    H272620   2.290   5.907  11.330
17069TIP3   OH272621   2.076   3.011  14.389
17069TIP3    H172622   2.033   3.007  14.474
17069TIP3    H272623   2.170   3.013  14.410
17070TIP3   OH272624   4.622   6.435  16.804
17070TIP3    H172625   4.598   6.520  16.766
17070TIP3    H272626   4.568   6.371  16.757
17071TIP3   OH272627   2.752   4.735  15.053
17071TIP3    H172628   2.814   4.796  15.014
17071TIP3    H272629   2.739   4.768  15.142
17072TIP3   OH272630   1.045   0.801  13.228
17072TIP3    H172631   0.949   0.807  13.232
17072TIP3    H272632   1.063   0.707  13.231
17073TIP3   OH272633   5.920   4.854   6.047
17073TIP3    H172634   5.894   4.771   6.087
17073TIP3    H272635   5.848   4.913   6.066
17074TIP3   OH272636   3.979   1.935  12.053
17074TIP3    H172637   3.939   1.882  11.985
17074TIP3    H272638   4.020   1.871  12.112
17075TIP3   OH272639   2.578   0.413   0.259
17075TIP3    H172640   2.606   0.369   0.339
17075TIP3    H272641   2.642   0.387   0.193
17076TIP3   OH272642   0.545   0.163   5.834
17076TIP3    H172643   0.550   0.127   5.745
17076TIP3    H272644   0.490   0.101   5.882
17077TIP3   OH272645   5.755   5.164   2.517
17077TIP3    H172646   5.767   5.082   2.565
17077TIP3    H272647   5.660   5.173   2.508
17078TIP3   OH272648   1.531   4.132   3.259
17078TIP3    H172649   1.526   4.213   3.209
17078TIP3    H272650   1.610   4.139   3.311
17079TIP3   OH272651   4.365   5.555  16.438
17079TIP3    H172652   4.328   5.608  16.508
17079TIP3    H272653   4.444   5.517  16.475
17080TIP3   OH272654   5.126   1.704  12.186
17080TIP3    H172655   5.080   1.692  12.102
17080TIP3    H272656   5.107   1.624  12.235
17081TIP3   OH272657   6.360   1.546  12.215
17081TIP3    H172658   6.402   1.463  12.192
17081TIP3    H272659   6.409   1.611  12.165
17082TIP3   OH272660   4.521   2.900  15.919
17082TIP3    H172661   4.565   2.847  15.853
17082TIP3    H272662   4.432   2.911  15.886
17083TIP3   OH272663   0.255   6.039   1.121
17083TIP3    H172664   0.309   6.114   1.096
17083TIP3    H272665   0.300   6.002   1.197
17084TIP3   OH272666   4.729   1.440   0.853
17084TIP3    H172667   4.759   1.459   0.764
17084TIP3    H272668   4.793   1.377   0.886
17085TIP3   OH272669   1.299   5.205   5.159
17085TIP3    H172670   1.256   5.157   5.230
17085TIP3    H272671   1.227   5.229   5.100
17086TIP3   OH272672   2.509   4.217   5.948
17086TIP3    H172673   2.418   4.233   5.925
17086TIP3    H272674   2.546   4.174   5.871
17087TIP3   OH272675   5.565   3.114  12.510
17087TIP3    H172676   5.589   3.092  12.600
17087TIP3    H272677   5.500   3.184  12.519
17088TIP3   OH272678   4.156   1.607   2.158
17088TIP3    H172679   4.148   1.569   2.245
17088TIP3    H272680   4.071   1.593   2.117
17089TIP3   OH272681   2.671   3.841   5.048
17089TIP3    H172682   2.585   3.858   5.009
17089TIP3    H272683   2.732   3.882   4.987
17090TIP3   OH272684   0.291   2.253   1.300
17090TIP3    H172685   0.322   2.172   1.341
17090TIP3    H272686   0.201   2.233   1.274
17091TIP3   OH272687   4.531   4.139   4.758
17091TIP3    H172688   4.473   4.063   4.755
17091TIP3    H272689   4.536   4.162   4.851
17092TIP3   OH272690   6.750   3.246   2.507
17092TIP3    H172691   6.682   3.299   2.549
17092TIP3    H272692   6.702   3.176   2.463
17093TIP3   OH272693   2.370   0.689   1.000
17093TIP3    H172694   2.343   0.621   0.938
17093TIP3    H272695   2.458   0.663   1.027
17094TIP3   OH272696   5.516   5.688  15.409
17094TIP3    H172697   5.568   5.620  15.367
17094TIP3    H272698   5.504   5.754  15.340
17095TIP3   OH272699   4.974   3.381  13.554
17095TIP3    H172700   5.046   3.404  13.613
17095TIP3    H272701   5.002   3.413  13.468
17096TIP3   OH272702   6.203   2.493   6.126
17096TIP3    H172703   6.175   2.553   6.195
17096TIP3    H272704   6.217   2.410   6.172
17097TIP3   OH272705   4.325   5.504  16.085
17097TIP3    H172706   4.332   5.492  15.990
17097TIP3    H272707   4.247   5.558  16.096
17098TIP3   OH272708   3.968   5.772  10.397
17098TIP3    H172709   3.996   5.859  10.425
17098TIP3    H272710   4.044   5.716  10.415
17099TIP3   OH272711   0.570   0.159  13.545
17099TIP3    H172712   0.618   0.096  13.599
17099TIP3    H272713   0.638   0.213  13.505
17100TIP3   OH272714   1.221   1.093   4.778
17100TIP3    H172715   1.192   1.004   4.800
17100TIP3    H272716   1.287   1.080   4.710
17101TIP3   OH272717   2.701   0.698  12.212
17101TIP3    H172718   2.684   0.789  12.189
17101TIP3    H272719   2.615   0.656  12.214
17102TIP3   OH272720   6.156   5.440  15.088
17102TIP3    H172721   6.154   5.453  15.182
17102TIP3    H272722   6.072   5.475  15.058
17103TIP3   OH272723   5.670   3.158  16.570
17103TIP3    H172724   5.746   3.196  16.525
17103TIP3    H272725   5.637   3.230  16.624
17104TIP3   OH272726   5.634   6.338  16.902
17104TIP3    H172727   5.650   6.278  16.975
17104TIP3    H272728   5.721   6.364  16.873
17105TIP3   OH272729   5.850   3.815  14.238
17105TIP3    H172730   5.941   3.835  14.257
17105TIP3    H272731   5.818   3.889  14.187
17106TIP3   OH272732   5.202   4.886   1.228
17106TIP3    H172733   5.293   4.903   1.252
17106TIP3    H272734   5.151   4.922   1.301
17107TIP3   OH272735   0.843   3.567  12.350
17107TIP3    H172736   0.916   3.610  12.394
17107TIP3    H272737   0.843   3.605  12.261
17108TIP3   OH272738   4.817   6.772   1.129
17108TIP3    H172739   4.834   6.823   1.208
17108TIP3    H272740   4.758   6.703   1.157
17109TIP3   OH272741   4.147   4.160   1.322
17109TIP3    H172742   4.223   4.177   1.377
17109TIP3    H272743   4.073   4.196   1.371
17110TIP3   OH272744   4.284   4.813  15.209
17110TIP3    H172745   4.303   4.814  15.115
17110TIP3    H272746   4.208   4.755  15.217
17111TIP3   OH272747   4.424   1.707  11.503
17111TIP3    H172748   4.397   1.619  11.531
17111TIP3    H272749   4.445   1.753  11.584
17112TIP3   OH272750   0.213   6.093  15.548
17112TIP3    H172751   0.191   6.003  15.524
17112TIP3    H272752   0.285   6.117  15.489
17113TIP3   OH272753   5.033   6.752   6.126
17113TIP3    H172754   5.002   6.815   6.192
17113TIP3    H272755   4.955   6.727   6.078
17114TIP3   OH272756   6.118   0.935  16.680
17114TIP3    H172757   6.108   0.973  16.593
17114TIP3    H272758   6.139   1.009  16.737
17115TIP3   OH272759   5.321   0.115   4.521
17115TIP3    H172760   5.265   0.072   4.456
17115TIP3    H272761   5.295   0.206   4.520
17116TIP3   OH272762   0.487   2.206   2.933
17116TIP3    H172763   0.578   2.227   2.912
17116TIP3    H272764   0.490   2.117   2.966
17117TIP3   OH272765   5.275   3.738  17.217
17117TIP3    H172766   5.307   3.787  17.142
17117TIP3    H272767   5.242   3.804  17.277
17118TIP3   OH272768   4.136   4.864   1.200
17118TIP3    H172769   4.124   4.791   1.260
17118TIP3    H272770   4.168   4.936   1.254
17119TIP3   OH272771   4.722   6.678   3.384
17119TIP3    H172772   4.642   6.685   3.333
17119TIP3    H272773   4.698   6.707   3.472
17120TIP3   OH272774   2.368   3.920   2.861
17120TIP3    H172775   2.375   3.897   2.768
17120TIP3    H272776   2.338   3.839   2.903
17121TIP3   OH272777   5.290   4.126   5.654
17121TIP3    H172778   5.194   4.126   5.653
17121TIP3    H272779   5.315   4.123   5.562
17122TIP3   OH272780   3.107   1.807  12.410
17122TIP3    H172781   3.086   1.714  12.412
17122TIP3    H272782   3.023   1.852  12.405
17123TIP3   OH272783   4.567   5.569   4.165
17123TIP3    H172784   4.612   5.541   4.245
17123TIP3    H272785   4.582   5.664   4.161
17124TIP3   OH272786   0.912   4.068  17.237
17124TIP3    H172787   0.911   4.159  17.266
17124TIP3    H272788   0.997   4.034  17.266
17125TIP3   OH272789   5.306   0.239   3.719
17125TIP3    H172790   5.247   0.166   3.700
17125TIP3    H272791   5.252   0.317   3.702
17126TIP3   OH272792   4.564   5.911   4.859
17126TIP3    H172793   4.499   5.964   4.812
17126TIP3    H272794   4.531   5.909   4.949
17127TIP3   OH272795   4.198   0.695   5.492
17127TIP3    H172796   4.216   0.716   5.584
17127TIP3    H272797   4.212   0.778   5.446
17128TIP3   OH272798   4.299   0.486   2.873
17128TIP3    H172799   4.391   0.513   2.873
17128TIP3    H272800   4.293   0.421   2.803
17129TIP3   OH272801   3.748   4.331  17.209
17129TIP3    H172802   3.738   4.241  17.241
17129TIP3    H272803   3.822   4.327  17.149
17130TIP3   OH272804   6.561   5.903  16.719
17130TIP3    H172805   6.550   5.848  16.642
17130TIP3    H272806   6.473   5.935  16.739
17131TIP3   OH272807   3.107   6.096   3.657
17131TIP3    H172808   3.086   6.030   3.723
17131TIP3    H272809   3.168   6.053   3.598
17132TIP3   OH272810   3.233   1.757  16.307
17132TIP3    H172811   3.250   1.663  16.294
17132TIP3    H272812   3.313   1.799  16.277
17133TIP3   OH272813   1.732   6.018  12.972
17133TIP3    H172814   1.715   5.925  12.954
17133TIP3    H272815   1.717   6.062  12.888
17134TIP3   OH272816   0.123   2.394   0.421
17134TIP3    H172817   0.205   2.374   0.465
17134TIP3    H272818   0.091   2.309   0.391
17135TIP3   OH272819   0.300   1.917  14.462
17135TIP3    H172820   0.295   1.873  14.547
17135TIP3    H272821   0.255   2.000  14.476
17136TIP3   OH272822   4.693   1.605  11.756
17136TIP3    H172823   4.723   1.696  11.756
17136TIP3    H272824   4.690   1.580  11.664
17137TIP3   OH272825   5.884   1.797   1.724
17137TIP3    H172826   5.869   1.766   1.634
17137TIP3    H272827   5.978   1.791   1.736
17138TIP3   OH272828   6.680   6.219   5.753
17138TIP3    H172829   6.643   6.195   5.669
17138TIP3    H272830   6.666   6.143   5.808
17139TIP3   OH272831   2.528   1.780  12.578
17139TIP3    H172832   2.550   1.847  12.513
17139TIP3    H272833   2.446   1.742  12.546
17140TIP3   OH272834   4.628   0.565  10.321
17140TIP3    H172835   4.717   0.542  10.294
17140TIP3    H272836   4.640   0.625  10.394
17141TIP3   OH272837   6.403   3.681  10.902
17141TIP3    H172838   6.345   3.614  10.866
17141TIP3    H272839   6.451   3.636  10.973
17142TIP3   OH272840   2.091   5.223  14.584
17142TIP3    H172841   2.148   5.185  14.651
17142TIP3    H272842   2.037   5.150  14.554
17143TIP3   OH272843   3.894   6.588  11.278
17143TIP3    H172844   3.912   6.495  11.272
17143TIP3    H272845   3.866   6.613  11.190
17144TIP3   OH272846   0.987   3.615   0.941
17144TIP3    H172847   0.982   3.573   0.855
17144TIP3    H272848   0.987   3.542   1.003
17145TIP3   OH272849   1.505   0.492  11.537
17145TIP3    H172850   1.475   0.524  11.452
17145TIP3    H272851   1.534   0.570  11.584
17146TIP3   OH272852   4.384   3.135   4.654
17146TIP3    H172853   4.314   3.199   4.637
17146TIP3    H272854   4.441   3.142   4.577
17147TIP3   OH272855   3.332   3.251   2.681
17147TIP3    H172856   3.375   3.336   2.693
17147TIP3    H272857   3.301   3.227   2.769
17148TIP3   OH272858   1.181   0.626   6.248
17148TIP3    H172859   1.221   0.539   6.256
17148TIP3    H272860   1.247   0.686   6.282
17149TIP3   OH272861   4.958   6.332  17.098
17149TIP3    H172862   4.908   6.250  17.095
17149TIP3    H272863   5.048   6.306  17.078
17150TIP3   OH272864   6.149   5.497  17.200
17150TIP3    H172865   6.057   5.511  17.176
17150TIP3    H272866   6.183   5.584  17.218
17151TIP3   OH272867   4.076   0.212  12.591
17151TIP3    H172868   4.088   0.133  12.539
17151TIP3    H272869   4.023   0.270  12.537
17152TIP3   OH272870   5.942   4.352  16.408
17152TIP3    H172871   5.918   4.324  16.319
17152TIP3    H272872   6.037   4.336  16.413
17153TIP3   OH272873   2.594   4.738  13.443
17153TIP3    H172874   2.512   4.702  13.477
17153TIP3    H272875   2.629   4.668  13.387
17154TIP3   OH272876   4.865   3.756  12.986
17154TIP3    H172877   4.949   3.789  13.016
17154TIP3    H272878   4.820   3.730  13.066
17155TIP3   OH272879   3.707   5.942   6.090
17155TIP3    H172880   3.619   5.952   6.126
17155TIP3    H272881   3.696   5.954   5.996
17156TIP3   OH272882   6.292   4.189   1.565
17156TIP3    H172883   6.313   4.271   1.519
17156TIP3    H272884   6.296   4.211   1.658
17157TIP3   OH272885   3.237   3.374   6.336
17157TIP3    H172886   3.197   3.454   6.299
17157TIP3    H272887   3.162   3.316   6.352
17158TIP3   OH272888   0.989   5.328   6.144
17158TIP3    H172889   0.915   5.273   6.171
17158TIP3    H272890   1.044   5.334   6.222
17159TIP3   OH272891   0.667   3.450   0.831
17159TIP3    H172892   0.652   3.460   0.737
17159TIP3    H272893   0.628   3.529   0.870
17160TIP3   OH272894   5.467   3.289   4.512
17160TIP3    H172895   5.495   3.318   4.425
17160TIP3    H272896   5.384   3.242   4.496
17161TIP3   OH272897   2.694   4.762   3.013
17161TIP3    H172898   2.784   4.735   3.035
17161TIP3    H272899   2.705   4.838   2.957
17162TIP3   OH272900   4.409   1.757  16.084
17162TIP3    H172901   4.416   1.775  15.990
17162TIP3    H272902   4.315   1.747  16.099
17163TIP3   OH272903   1.239   3.489  14.178
17163TIP3    H172904   1.182   3.566  14.184
17163TIP3    H272905   1.241   3.453  14.266
17164TIP3   OH272906   2.279   5.743   5.383
17164TIP3    H172907   2.258   5.735   5.290
17164TIP3    H272908   2.217   5.809   5.415
17165TIP3   OH272909   2.058   1.194   1.875
17165TIP3    H172910   2.105   1.264   1.920
17165TIP3    H272911   1.966   1.209   1.898
17166TIP3   OH272912   2.037   6.530  13.807
17166TIP3    H172913   2.126   6.504  13.784
17166TIP3    H272914   2.025   6.614  13.763
17167TIP3   OH272915   4.827   5.092   5.031
17167TIP3    H172916   4.762   5.123   4.968
17167TIP3    H272917   4.856   5.007   4.995
17168TIP3   OH272918   2.041   2.986  13.082
17168TIP3    H172919   2.084   3.071  13.077
17168TIP3    H272920   2.074   2.946  13.163
17169TIP3   OH272921   4.225   0.143  15.664
17169TIP3    H172922   4.306   0.134  15.716
17169TIP3    H272923   4.192   0.230  15.686
17170TIP3   OH272924   5.988   6.114  15.271
17170TIP3    H172925   5.992   6.138  15.178
17170TIP3    H272926   5.965   6.021  15.270
17171TIP3   OH272927   5.333   5.527   2.020
17171TIP3    H172928   5.382   5.608   2.006
17171TIP3    H272929   5.247   5.544   1.981
17172TIP3   OH272930   0.022   2.422  16.204
17172TIP3    H172931   0.049   2.447  16.116
17172TIP3    H272932  -0.073   2.417  16.201
17173TIP3   OH272933   6.158   6.138  13.125
17173TIP3    H172934   6.141   6.156  13.217
17173TIP3    H272935   6.245   6.174  13.109
17174TIP3   OH272936   1.549   5.986  15.133
17174TIP3    H172937   1.596   6.032  15.063
17174TIP3    H272938   1.617   5.956  15.193
17175TIP3   OH272939   3.887   6.158   3.035
17175TIP3    H172940   3.892   6.219   3.109
17175TIP3    H272941   3.802   6.176   2.994
17176TIP3   OH272942   2.039   1.011  11.195
17176TIP3    H172943   1.978   1.081  11.171
17176TIP3    H272944   2.099   1.005  11.120
17177TIP3   OH272945   1.980   4.036  15.549
17177TIP3    H172946   1.925   3.986  15.489
17177TIP3    H272947   2.060   3.983  15.557
17178TIP3   OH272948   4.509   6.764   2.796
17178TIP3    H172949   4.565   6.691   2.773
17178TIP3    H272950   4.508   6.764   2.892
17179TIP3   OH272951   3.574   4.143   1.198
17179TIP3    H172952   3.484   4.169   1.181
17179TIP3    H272953   3.582   4.055   1.163
17180TIP3   OH272954   2.978   5.812   4.933
17180TIP3    H172955   2.933   5.767   5.005
17180TIP3    H272956   2.934   5.780   4.854
17181TIP3   OH272957   1.121   1.287  13.385
17181TIP3    H172958   1.102   1.235  13.463
17181TIP3    H272959   1.121   1.223  13.314
17182TIP3   OH272960   5.972   4.686  13.576
17182TIP3    H172961   5.988   4.666  13.484
17182TIP3    H272962   5.931   4.773  13.575
17183TIP3   OH272963   4.582   1.183  12.370
17183TIP3    H172964   4.538   1.098  12.379
17183TIP3    H272965   4.635   1.191  12.449
17184TIP3   OH272966   0.284   2.100   0.680
17184TIP3    H172967   0.244   2.186   0.667
17184TIP3    H272968   0.377   2.119   0.690
17185TIP3   OH272969   0.449   1.316   2.780
17185TIP3    H172970   0.526   1.298   2.835
17185TIP3    H272971   0.486   1.347   2.697
17186TIP3   OH272972   2.698   6.767  16.820
17186TIP3    H172973   2.738   6.732  16.741
17186TIP3    H272974   2.748   6.729  16.892
17187TIP3   OH272975   1.720   6.203   0.481
17187TIP3    H172976   1.781   6.155   0.538
17187TIP3    H272977   1.646   6.224   0.537
17188TIP3   OH272978   6.174   2.475   0.102
17188TIP3    H172979   6.083   2.486   0.131
17188TIP3    H272980   6.179   2.523   0.020
17189TIP3   OH272981   2.584   4.501   1.751
17189TIP3    H172982   2.564   4.577   1.806
17189TIP3    H272983   2.590   4.428   1.813
17190TIP3   OH272984   6.351   2.026   3.561
17190TIP3    H172985   6.309   2.101   3.604
17190TIP3    H272986   6.286   1.956   3.568
17191TIP3   OH272987   0.504   1.484   4.513
17191TIP3    H172988   0.441   1.520   4.576
17191TIP3    H272989   0.453   1.468   4.434
17192TIP3   OH272990   6.104   2.848  17.022
17192TIP3    H172991   6.118   2.891  17.106
17192TIP3    H272992   6.070   2.916  16.964
17193TIP3   OH272993   3.070   5.208  13.409
17193TIP3    H172994   3.158   5.171  13.415
17193TIP3    H272995   3.069   5.278  13.474
17194TIP3   OH272996   6.707   4.771   6.214
17194TIP3    H172997   6.651   4.694   6.220
17194TIP3    H272998   6.661   4.837   6.266
17195TIP3   OH272999   1.266   0.779  12.515
17195TIP3    H173000   1.331   0.710  12.531
17195TIP3    H273001   1.316   0.850  12.476
17196TIP3   OH273002   6.778   3.450   1.305
17196TIP3    H173003   6.850   3.431   1.244
17196TIP3    H273004   6.703   3.403   1.268
17197TIP3   OH273005   2.328   6.029  14.198
17197TIP3    H173006   2.419   6.055  14.204
17197TIP3    H273007   2.283   6.107  14.166
17198TIP3   OH273008   3.299   2.502   1.938
17198TIP3    H173009   3.227   2.439   1.930
17198TIP3    H273010   3.360   2.461   2.000
17199TIP3   OH273011   3.791   4.398   5.120
17199TIP3    H173012   3.791   4.492   5.105
17199TIP3    H273013   3.779   4.388   5.214
17200TIP3   OH273014   4.142   4.936   1.696
17200TIP3    H173015   4.160   4.997   1.768
17200TIP3    H273016   4.208   4.956   1.630
17201TIP3   OH273017   1.355   0.748   2.531
17201TIP3    H173018   1.375   0.738   2.624
17201TIP3    H273019   1.272   0.795   2.529
17202TIP3   OH273020   4.086   2.356  16.816
17202TIP3    H173021   4.169   2.324  16.783
17202TIP3    H273022   4.103   2.377  16.908
17203TIP3   OH273023   0.449   2.570   5.283
17203TIP3    H173024   0.542   2.573   5.306
17203TIP3    H273025   0.425   2.478   5.293
17204TIP3   OH273026   0.007   2.479   5.325
17204TIP3    H173027   0.003   2.384   5.337
17204TIP3    H273028   0.047   2.491   5.239
17205TIP3   OH273029   5.831   6.106  14.725
17205TIP3    H173030   5.920   6.073  14.733
17205TIP3    H273031   5.841   6.201  14.721
17206TIP3   OH273032   0.708   3.437  14.901
17206TIP3    H173033   0.779   3.500  14.888
17206TIP3    H273034   0.687   3.443  14.994
17207TIP3   OH273035   4.074   3.049  15.357
17207TIP3    H173036   4.020   3.128  15.358
17207TIP3    H273037   4.078   3.022  15.449
17208TIP3   OH273038   3.440   3.401   4.985
17208TIP3    H173039   3.386   3.323   4.969
17208TIP3    H273040   3.423   3.424   5.076
17209TIP3   OH273041   0.533   0.563   0.707
17209TIP3    H173042   0.523   0.491   0.645
17209TIP3    H273043   0.627   0.580   0.711
17210TIP3   OH273044   1.991   2.194  14.901
17210TIP3    H173045   2.065   2.249  14.875
17210TIP3    H273046   1.925   2.256  14.932
17211TIP3   OH273047   1.261   0.312  17.228
17211TIP3    H173048   1.235   0.295  17.138
17211TIP3    H273049   1.297   0.230  17.259
17212TIP3   OH273050   4.470   4.380   4.019
17212TIP3    H173051   4.507   4.356   3.934
17212TIP3    H273052   4.413   4.306   4.041
17213TIP3   OH273053   5.447   3.706   5.345
17213TIP3    H173054   5.390   3.631   5.361
17213TIP3    H273055   5.387   3.779   5.331
17214TIP3   OH273056   2.740   4.993  12.953
17214TIP3    H173057   2.816   4.935  12.953
17214TIP3    H273058   2.689   4.965  13.029
17215TIP3   OH273059   3.635   0.232  11.359
17215TIP3    H173060   3.631   0.155  11.302
17215TIP3    H273061   3.647   0.306  11.299
17216TIP3   OH273062   3.800   0.537   6.143
17216TIP3    H173063   3.786   0.445   6.169
17216TIP3    H273064   3.840   0.531   6.056
17217TIP3   OH273065   4.894   1.178  16.392
17217TIP3    H173066   4.855   1.142  16.312
17217TIP3    H273067   4.973   1.222  16.362
17218TIP3   OH273068   2.991   3.132  13.724
17218TIP3    H173069   3.020   3.222  13.711
17218TIP3    H273070   2.958   3.105  13.639
17219TIP3   OH273071   2.547   2.570  16.327
17219TIP3    H173072   2.626   2.517  16.322
17219TIP3    H273073   2.489   2.522  16.385
17220TIP3   OH273074   5.817   4.321   5.220
17220TIP3    H173075   5.734   4.367   5.212
17220TIP3    H273076   5.795   4.239   5.265
17221TIP3   OH273077   2.685   3.974   0.972
17221TIP3    H173078   2.659   3.944   1.059
17221TIP3    H273079   2.778   3.993   0.980
17222TIP3   OH273080   3.906   1.705   4.499
17222TIP3    H173081   3.867   1.651   4.430
17222TIP3    H273082   3.971   1.759   4.453
17223TIP3   OH273083   6.373   6.073  12.813
17223TIP3    H173084   6.416   6.145  12.861
17223TIP3    H273085   6.331   6.021  12.881
17224TIP3   OH273086   4.730   3.588   4.155
17224TIP3    H173087   4.766   3.619   4.072
17224TIP3    H273088   4.704   3.667   4.201
17225TIP3   OH273089   3.614   2.218   2.529
17225TIP3    H173090   3.684   2.236   2.466
17225TIP3    H273091   3.658   2.175   2.602
17226TIP3   OH273092   3.154   1.215  11.345
17226TIP3    H173093   3.138   1.122  11.331
17226TIP3    H273094   3.229   1.235  11.290
17227TIP3   OH273095   3.787   5.527   2.555
17227TIP3    H173096   3.806   5.577   2.476
17227TIP3    H273097   3.821   5.581   2.626
17228TIP3   OH273098   0.143   4.804   2.544
17228TIP3    H173099   0.068   4.758   2.505
17228TIP3    H273100   0.105   4.885   2.579
17229TIP3   OH273101   2.635   0.098   5.133
17229TIP3    H173102   2.599   0.167   5.078
17229TIP3    H273103   2.560   0.060   5.178
17230TIP3   OH273104   5.683   3.960  14.723
17230TIP3    H173105   5.720   3.968  14.635
17230TIP3    H273106   5.680   4.049  14.756
17231TIP3   OH273107   5.438   1.238  13.196
17231TIP3    H173108   5.447   1.332  13.180
17231TIP3    H273109   5.364   1.211  13.141
17232TIP3   OH273110   0.926   4.203  11.499
17232TIP3    H173111   1.005   4.223  11.448
17232TIP3    H273112   0.905   4.285  11.543
17233TIP3   OH273113   1.291   1.906   1.082
17233TIP3    H173114   1.299   1.996   1.115
17233TIP3    H273115   1.382   1.875   1.076
17234TIP3   OH273116   2.705   4.886  11.961
17234TIP3    H173117   2.733   4.960  11.907
17234TIP3    H273118   2.786   4.848  11.994
17235TIP3   OH273119   3.036   5.238   5.578
17235TIP3    H173120   3.055   5.265   5.668
17235TIP3    H273121   3.112   5.187   5.551
17236TIP3   OH273122   1.207   6.047   4.174
17236TIP3    H173123   1.151   5.970   4.165
17236TIP3    H273124   1.153   6.111   4.220
17237TIP3   OH273125   2.480   5.863  13.599
17237TIP3    H173126   2.389   5.834  13.594
17237TIP3    H273127   2.485   5.913  13.681
17238TIP3   OH273128   1.563   0.986  10.843
17238TIP3    H173129   1.537   1.076  10.859
17238TIP3    H273130   1.654   0.991  10.816
17239TIP3   OH273131   4.013   3.356   1.789
17239TIP3    H173132   4.004   3.383   1.698
17239TIP3    H273133   4.100   3.387   1.815
17240TIP3   OH273134   5.267   1.490   3.068
17240TIP3    H173135   5.201   1.457   3.007
17240TIP3    H273136   5.314   1.412   3.096
17241TIP3   OH273137   0.729   0.938  16.535
17241TIP3    H173138   0.754   0.976  16.451
17241TIP3    H273139   0.795   0.970  16.596
17242TIP3   OH273140   6.506   4.214  12.389
17242TIP3    H173141   6.542   4.208  12.477
17242TIP3    H273142   6.573   4.260  12.339
17243TIP3   OH273143   2.196   3.573   5.523
17243TIP3    H173144   2.254   3.570   5.598
17243TIP3    H273145   2.121   3.519   5.548
17244TIP3   OH273146   1.152   0.883  15.877
17244TIP3    H173147   1.148   0.974  15.907
17244TIP3    H273148   1.067   0.868  15.834
17245TIP3   OH273149   0.792   3.009   2.301
17245TIP3    H173150   0.830   3.086   2.343
17245TIP3    H273151   0.784   2.944   2.371
17246TIP3   OH273152   4.752   0.002  11.759
17246TIP3    H173153   4.765  -0.012  11.852
17246TIP3    H273154   4.657   0.009  11.749
17247TIP3   OH273155   5.337   1.186   5.292
17247TIP3    H173156   5.314   1.236   5.214
17247TIP3    H273157   5.377   1.106   5.259
17248TIP3   OH273158   4.022   1.649  15.528
17248TIP3    H173159   4.113   1.640  15.556
17248TIP3    H273160   4.027   1.662  15.434
17249TIP3   OH273161   6.630   0.220  16.287
17249TIP3    H173162   6.613   0.243  16.196
17249TIP3    H273163   6.564   0.269  16.337
17250TIP3   OH273164   1.376   6.243  16.764
17250TIP3    H173165   1.325   6.178  16.716
17250TIP3    H273166   1.448   6.193  16.802
17251TIP3   OH273167   6.417   1.777   1.900
17251TIP3    H173168   6.509   1.799   1.884
17251TIP3    H273169   6.396   1.820   1.983
17252TIP3   OH273170   6.535   4.810   2.070
17252TIP3    H173171   6.534   4.900   2.037
17252TIP3    H273172   6.545   4.756   1.992
17253TIP3   OH273173   1.686   1.646  12.072
17253TIP3    H173174   1.619   1.701  12.112
17253TIP3    H273175   1.637   1.571  12.036
17254TIP3   OH273176   2.862   3.598  11.150
17254TIP3    H173177   2.783   3.600  11.095
17254TIP3    H273178   2.934   3.590  11.087
17255TIP3   OH273179   0.864   0.599  12.485
17255TIP3    H173180   0.849   0.541  12.411
17255TIP3    H273181   0.793   0.664  12.479
17256TIP3   OH273182   1.200   0.558  12.282
17256TIP3    H173183   1.231   0.641  12.248
17256TIP3    H273184   1.138   0.526  12.216
17257TIP3   OH273185   6.285   4.010   6.043
17257TIP3    H173186   6.244   4.061   6.113
17257TIP3    H273187   6.357   3.963   6.086
17258TIP3   OH273188   1.523   0.850  12.699
17258TIP3    H173189   1.581   0.787  12.654
17258TIP3    H273190   1.443   0.800  12.715
17259TIP3   OH273191   0.571   5.719  11.395
17259TIP3    H173192   0.525   5.730  11.312
17259TIP3    H273193   0.538   5.636  11.430
17260TIP3   OH273194   2.706   5.824  16.862
17260TIP3    H173195   2.774   5.757  16.855
17260TIP3    H273196   2.749   5.905  16.838
17261TIP3   OH273197   2.156   6.665   3.624
17261TIP3    H173198   2.115   6.636   3.705
17261TIP3    H273199   2.240   6.702   3.652
17262TIP3   OH273200   0.474   1.130  16.799
17262TIP3    H173201   0.491   1.042  16.764
17262TIP3    H273202   0.540   1.141  16.867
17263TIP3   OH273203   0.385   4.684  15.601
17263TIP3    H173204   0.416   4.616  15.542
17263TIP3    H273205   0.437   4.672  15.680
17264TIP3   OH273206   3.403   0.663  10.421
17264TIP3    H173207   3.451   0.738  10.455
17264TIP3    H273208   3.324   0.700  10.383
17265TIP3   OH273209   0.905   1.791  15.361
17265TIP3    H173210   0.899   1.860  15.426
17265TIP3    H273211   0.966   1.825  15.296
17266TIP3   OH273212   3.881   4.813   0.034
17266TIP3    H173213   3.793   4.847   0.053
17266TIP3    H273214   3.865   4.729  -0.009
17267TIP3   OH273215   4.005   3.537  15.173
17267TIP3    H173216   3.922   3.492  15.154
17267TIP3    H273217   3.982   3.630  15.173
17268TIP3   OH273218   4.000   6.114   1.884
17268TIP3    H173219   3.939   6.061   1.834
17268TIP3    H273220   4.059   6.051   1.925
17269TIP3   OH273221   4.830   3.939  14.591
17269TIP3    H173222   4.760   3.875  14.579
17269TIP3    H273223   4.905   3.887  14.621
17270TIP3   OH273224   4.418   5.098   4.219
17270TIP3    H173225   4.416   5.105   4.315
17270TIP3    H273226   4.330   5.122   4.192
17271TIP3   OH273227   1.917   6.153   6.149
17271TIP3    H173228   1.848   6.151   6.215
17271TIP3    H273229   1.995   6.184   6.196
17272TIP3   OH273230   3.308   5.956  11.672
17272TIP3    H173231   3.257   5.939  11.593
17272TIP3    H273232   3.323   5.870  11.710
17273TIP3   OH273233   0.578   5.464  12.385
17273TIP3    H173234   0.616   5.541  12.428
17273TIP3    H273235   0.495   5.450  12.430
17274TIP3   OH273236   3.327   0.625  15.824
17274TIP3    H173237   3.292   0.700  15.775
17274TIP3    H273238   3.253   0.566  15.833
17275TIP3   OH273239   0.159   5.711  11.955
17275TIP3    H173240   0.149   5.619  11.932
17275TIP3    H273241   0.090   5.727  12.021
17276TIP3   OH273242   3.313   3.867  11.870
17276TIP3    H173243   3.339   3.943  11.923
17276TIP3    H273244   3.395   3.825  11.846
17277TIP3   OH273245   5.548   0.358   3.624
17277TIP3    H173246   5.558   0.265   3.605
17277TIP3    H273247   5.483   0.361   3.694
17278TIP3   OH273248   1.550   2.617   0.700
17278TIP3    H173249   1.540   2.712   0.689
17278TIP3    H273250   1.493   2.595   0.773
17279TIP3   OH273251   3.076   0.328   3.037
17279TIP3    H173252   3.152   0.281   3.073
17279TIP3    H273253   3.088   0.418   3.065
17280TIP3   OH273254   4.859   0.768  12.964
17280TIP3    H173255   4.817   0.766  13.049
17280TIP3    H273256   4.832   0.852  12.926
17281TIP3   OH273257   1.538   1.044  13.131
17281TIP3    H173258   1.573   0.966  13.087
17281TIP3    H273259   1.616   1.092  13.158
17282TIP3   OH273260   2.218   4.571   3.947
17282TIP3    H173261   2.166   4.620   3.884
17282TIP3    H273262   2.156   4.511   3.988
17283TIP3   OH273263   4.067   0.983  15.393
17283TIP3    H173264   4.080   1.052  15.458
17283TIP3    H273265   4.015   1.024  15.324
17284TIP3   OH273266   6.737   5.675  11.470
17284TIP3    H173267   6.704   5.659  11.559
17284TIP3    H273268   6.772   5.590  11.442
17285TIP3   OH273269   6.184   3.951  16.742
17285TIP3    H173270   6.258   3.891  16.738
17285TIP3    H273271   6.224   4.036  16.762
17286TIP3   OH273272   5.361   5.830   0.962
17286TIP3    H173273   5.373   5.760   1.025
17286TIP3    H273274   5.438   5.826   0.906
17287TIP3   OH273275   5.462   4.552   4.368
17287TIP3    H173276   5.424   4.466   4.346
17287TIP3    H273277   5.465   4.598   4.284
17288TIP3   OH273278   0.929   2.551  16.190
17288TIP3    H173279   0.901   2.610  16.120
17288TIP3    H273280   0.858   2.554  16.254
17289TIP3   OH273281   5.245   1.735  14.423
17289TIP3    H173282   5.198   1.653  14.433
17289TIP3    H273283   5.183   1.794  14.381
17290TIP3   OH273284   3.319   2.923  16.865
17290TIP3    H173285   3.316   2.992  16.931
17290TIP3    H273286   3.228   2.911  16.839
17291TIP3   OH273287   1.840   4.503  17.014
17291TIP3    H173288   1.857   4.486  17.107
17291TIP3    H273289   1.765   4.448  16.993
17292TIP3   OH273290   5.466   3.978   4.718
17292TIP3    H173291   5.558   3.956   4.706
17292TIP3    H273292   5.442   4.025   4.638
17293TIP3   OH273293   5.639   0.715   2.698
17293TIP3    H173294   5.672   0.787   2.752
17293TIP3    H273295   5.574   0.671   2.753
17294TIP3   OH273296   4.822   5.202   0.265
17294TIP3    H173297   4.806   5.123   0.317
17294TIP3    H273298   4.791   5.274   0.319
17295TIP3   OH273299   0.386   4.793   3.360
17295TIP3    H173300   0.300   4.812   3.397
17295TIP3    H273301   0.369   4.773   3.268
17296TIP3   OH273302   4.096   1.138  15.617
17296TIP3    H173303   4.050   1.210  15.574
17296TIP3    H273304   4.167   1.181  15.665
17297TIP3   OH273305   2.312   1.685  14.421
17297TIP3    H173306   2.272   1.748  14.481
17297TIP3    H273307   2.324   1.733  14.340
17298TIP3   OH273308   5.789   5.201   3.185
17298TIP3    H173309   5.769   5.289   3.153
17298TIP3    H273310   5.759   5.143   3.115
17299TIP3   OH273311   4.935   4.709  15.190
17299TIP3    H173312   5.001   4.739  15.127
17299TIP3    H273313   4.986   4.680  15.266
17300TIP3   OH273314   5.767   4.300  15.344
17300TIP3    H173315   5.850   4.274  15.383
17300TIP3    H273316   5.717   4.338  15.417
17301TIP3   OH273317   5.017   4.674   4.891
17301TIP3    H173318   4.997   4.616   4.817
17301TIP3    H273319   5.048   4.616   4.960
17302TIP3   OH273320   6.382   5.799   4.021
17302TIP3    H173321   6.369   5.865   4.089
17302TIP3    H273322   6.306   5.808   3.964
17303TIP3   OH273323   4.548   3.501   5.048
17303TIP3    H173324   4.553   3.553   4.968
17303TIP3    H273325   4.540   3.410   5.018
17304TIP3   OH273326   3.285   4.573  16.597
17304TIP3    H173327   3.302   4.479  16.599
17304TIP3    H273328   3.192   4.582  16.614
17305TIP3   OH273329   1.165   0.737  15.228
17305TIP3    H173330   1.126   0.666  15.279
17305TIP3    H273331   1.138   0.721  15.138
17306TIP3   OH273332   3.175   6.231  15.841
17306TIP3    H173333   3.239   6.275  15.786
17306TIP3    H273334   3.120   6.183  15.780
17307TIP3   OH273335   0.718   0.892   4.401
17307TIP3    H173336   0.674   0.948   4.337
17307TIP3    H273337   0.671   0.809   4.398
17308TIP3   OH273338   0.010   6.467  14.462
17308TIP3    H173339   0.074   6.462  14.533
17308TIP3    H273340  -0.068   6.425  14.497
17309TIP3   OH273341   1.512   1.187   3.952
17309TIP3    H173342   1.567   1.151   3.883
17309TIP3    H273343   1.474   1.111   3.996
17310TIP3   OH273344   2.478   4.836  15.222
17310TIP3    H173345   2.530   4.916  15.213
17310TIP3    H273346   2.392   4.859  15.188
17311TIP3   OH273347   3.125   1.241   4.289
17311TIP3    H173348   3.074   1.191   4.354
17311TIP3    H273349   3.112   1.332   4.314
17312TIP3   OH273350   4.080   4.073   6.751
17312TIP3    H173351   4.093   4.163   6.781
17312TIP3    H273352   4.169   4.039   6.738
17313TIP3   OH273353   0.263   2.203   5.849
17313TIP3    H173354   0.297   2.257   5.921
17313TIP3    H273355   0.208   2.138   5.893
17314TIP3   OH273356   6.377   0.143   0.201
17314TIP3    H173357   6.301   0.117   0.149
17314TIP3    H273358   6.340   0.179   0.282
17315TIP3   OH273359   1.613   3.523  16.858
17315TIP3    H173360   1.564   3.571  16.792
17315TIP3    H273361   1.644   3.590  16.919
17316TIP3   OH273362   2.706   1.228   3.973
17316TIP3    H173363   2.710   1.250   4.066
17316TIP3    H273364   2.798   1.221   3.946
17317TIP3   OH273365   0.425   3.383   6.496
17317TIP3    H173366   0.463   3.333   6.568
17317TIP3    H273367   0.396   3.316   6.434
17318TIP3   OH273368   0.628   0.198  13.109
17318TIP3    H173369   0.713   0.194  13.152
17318TIP3    H273370   0.644   0.240  13.025
17319TIP3   OH273371   2.635   3.936   1.258
17319TIP3    H173372   2.729   3.918   1.264
17319TIP3    H273373   2.620   4.003   1.325
17320TIP3   OH273374   5.483   1.089  12.912
17320TIP3    H173375   5.557   1.150  12.910
17320TIP3    H273376   5.446   1.093  12.824
17321TIP3   OH273377   0.199   3.043   4.623
17321TIP3    H173378   0.269   2.979   4.633
17321TIP3    H273379   0.243   3.124   4.600
17322TIP3   OH273380   1.641   2.589  13.701
17322TIP3    H173381   1.668   2.634  13.621
17322TIP3    H273382   1.608   2.659  13.758
17323TIP3   OH273383   1.113   6.357  15.489
17323TIP3    H173384   1.201   6.374  15.521
17323TIP3    H273385   1.113   6.264  15.466
17324TIP3   OH273386   6.254   3.682  13.219
17324TIP3    H173387   6.349   3.673  13.214
17324TIP3    H273388   6.238   3.775  13.206
17325TIP3   OH273389   0.764   2.593  16.397
17325TIP3    H173390   0.800   2.554  16.476
17325TIP3    H273391   0.672   2.609  16.417
17326TIP3   OH273392   6.676   5.672  14.449
17326TIP3    H173393   6.755   5.726  14.451
17326TIP3    H273394   6.691   5.609  14.379
17327TIP3   OH273395   4.128   0.871   0.092
17327TIP3    H173396   4.074   0.950   0.100
17327TIP3    H273397   4.066   0.803   0.066
17328TIP3   OH273398   4.871   4.274   5.444
17328TIP3    H173399   4.892   4.357   5.401
17328TIP3    H273400   4.780   4.285   5.472
17329TIP3   OH273401   5.644   0.328  10.552
17329TIP3    H173402   5.612   0.238  10.554
17329TIP3    H273403   5.568   0.381  10.529
17330TIP3   OH273404   0.758   1.712   4.155
17330TIP3    H173405   0.809   1.644   4.110
17330TIP3    H273406   0.721   1.668   4.231
17331TIP3   OH273407   6.397   5.672  15.245
17331TIP3    H173408   6.468   5.677  15.310
17331TIP3    H273409   6.338   5.743  15.270
17332TIP3   OH273410   0.543   3.561  11.176
17332TIP3    H173411   0.609   3.625  11.150
17332TIP3    H273412   0.467   3.613  11.203
17333TIP3   OH273413   3.403   2.741  15.196
17333TIP3    H173414   3.321   2.770  15.156
17333TIP3    H273415   3.430   2.815  15.251
17334TIP3   OH273416   3.480   1.982  17.097
17334TIP3    H173417   3.533   2.061  17.099
17334TIP3    H273418   3.392   2.012  17.075
17335TIP3   OH273419   1.916   5.281  10.831
17335TIP3    H173420   1.975   5.351  10.858
17335TIP3    H273421   1.964   5.234  10.763
17336TIP3   OH273422   5.767   2.755   3.405
17336TIP3    H173423   5.770   2.659   3.401
17336TIP3    H273424   5.851   2.779   3.446
17337TIP3   OH273425   6.435   0.700   3.665
17337TIP3    H173426   6.450   0.782   3.712
17337TIP3    H273427   6.519   0.654   3.668
17338TIP3   OH273428   6.651   4.768   2.782
17338TIP3    H173429   6.583   4.788   2.719
17338TIP3    H273430   6.725   4.824   2.758
17339TIP3   OH273431   3.409   5.173   3.645
17339TIP3    H173432   3.494   5.178   3.689
17339TIP3    H273433   3.428   5.132   3.561
17340TIP3   OH273434   0.766   6.244   1.768
17340TIP3    H173435   0.685   6.196   1.749
17340TIP3    H273436   0.827   6.216   1.701
17341TIP3   OH273437   5.972   3.784  11.944
17341TIP3    H173438   5.932   3.860  11.986
17341TIP3    H273439   5.907   3.756  11.879
17342TIP3   OH273440   2.425   6.523   5.391
17342TIP3    H173441   2.354   6.466   5.422
17342TIP3    H273442   2.504   6.470   5.400
17343TIP3   OH273443   0.055   3.839  14.317
17343TIP3    H173444   0.074   3.817  14.408
17343TIP3    H273445  -0.039   3.821  14.307
17344TIP3   OH273446   5.940   6.718  15.784
17344TIP3    H173447   5.852   6.712  15.821
17344TIP3    H273448   5.959   6.629  15.755
17345TIP3   OH273449   2.532   5.194   2.723
17345TIP3    H173450   2.463   5.250   2.688
17345TIP3    H273451   2.612   5.244   2.711
17346TIP3   OH273452   5.006   4.408  16.394
17346TIP3    H173453   4.932   4.429  16.451
17346TIP3    H273454   4.968   4.359  16.321
17347TIP3   OH273455   1.374   4.309  13.232
17347TIP3    H173456   1.373   4.405  13.234
17347TIP3    H273457   1.330   4.283  13.313
17348TIP3   OH273458   2.923   3.126   3.323
17348TIP3    H173459   2.843   3.157   3.366
17348TIP3    H273460   2.994   3.156   3.380
17349TIP3   OH273461   0.315   3.403   3.756
17349TIP3    H173462   0.222   3.400   3.781
17349TIP3    H273463   0.338   3.496   3.764
17350TIP3   OH273464   3.033   1.535  16.233
17350TIP3    H173465   2.957   1.574  16.275
17350TIP3    H273466   3.054   1.458  16.287
17351TIP3   OH273467   5.232   2.616  13.576
17351TIP3    H173468   5.165   2.550  13.557
17351TIP3    H273469   5.218   2.684  13.510
17352TIP3   OH273470   6.525   3.225   5.151
17352TIP3    H173471   6.479   3.145   5.129
17352TIP3    H273472   6.480   3.293   5.102
17353TIP3   OH273473   5.676   2.786  15.517
17353TIP3    H173474   5.622   2.860  15.491
17353TIP3    H273475   5.673   2.726  15.442
17354TIP3   OH273476   5.813   2.149   3.796
17354TIP3    H173477   5.752   2.076   3.783
17354TIP3    H273478   5.792   2.181   3.884
17355TIP3   OH273479   5.959   2.559   3.345
17355TIP3    H173480   5.997   2.474   3.368
17355TIP3    H273481   5.959   2.608   3.427
17356TIP3   OH273482   2.390   3.507  14.698
17356TIP3    H173483   2.481   3.536  14.704
17356TIP3    H273484   2.391   3.437  14.633
17357TIP3   OH273485   1.928   4.091  12.484
17357TIP3    H173486   1.837   4.120  12.487
17357TIP3    H273487   1.976   4.156  12.535
17358TIP3   OH273488   0.894   6.076   1.291
17358TIP3    H173489   0.974   6.026   1.272
17358TIP3    H273490   0.905   6.158   1.242
17359TIP3   OH273491   6.123   3.726   2.952
17359TIP3    H173492   6.150   3.717   2.861
17359TIP3    H273493   6.108   3.819   2.964
17360TIP3   OH273494   5.581   6.529   4.743
17360TIP3    H173495   5.556   6.620   4.763
17360TIP3    H273496   5.623   6.534   4.657
17361TIP3   OH273497   0.840   4.316   4.131
17361TIP3    H173498   0.841   4.363   4.215
17361TIP3    H273499   0.748   4.319   4.104
17362TIP3   OH273500   5.168   6.460   0.029
17362TIP3    H173501   5.130   6.431   0.112
17362TIP3    H273502   5.108   6.427  -0.038
17363TIP3   OH273503   1.308   3.598   2.617
17363TIP3    H173504   1.332   3.507   2.598
17363TIP3    H273505   1.220   3.592   2.653
17364TIP3   OH273506   3.320   2.472  14.985
17364TIP3    H173507   3.355   2.384  14.969
17364TIP3    H273508   3.259   2.487  14.913
17365TIP3   OH273509   1.002   4.710  15.133
17365TIP3    H173510   1.073   4.763  15.169
17365TIP3    H273511   0.964   4.765  15.064
17366TIP3   OH273512   5.794   1.634   5.936
17366TIP3    H173513   5.733   1.643   5.863
17366TIP3    H273514   5.868   1.585   5.900
17367TIP3   OH273515   1.976   3.622   0.963
17367TIP3    H173516   1.920   3.551   0.995
17367TIP3    H273517   2.013   3.661   1.043
17368TIP3   OH273518   3.124   1.394  16.995
17368TIP3    H173519   3.052   1.442  17.037
17368TIP3    H273520   3.202   1.421  17.044
17369TIP3   OH273521   2.765   3.777   4.377
17369TIP3    H173522   2.792   3.749   4.464
17369TIP3    H273523   2.769   3.873   4.380
17370TIP3   OH273524   0.394   4.227   6.216
17370TIP3    H173525   0.336   4.169   6.265
17370TIP3    H273526   0.443   4.168   6.157
17371TIP3   OH273527   6.245   5.409   3.787
17371TIP3    H173528   6.322   5.417   3.844
17371TIP3    H273529   6.177   5.461   3.830
17372TIP3   OH273530   5.816   6.354  11.976
17372TIP3    H173531   5.826   6.359  12.071
17372TIP3    H273532   5.905   6.335  11.944
17373TIP3   OH273533   2.421   5.204  15.015
17373TIP3    H173534   2.467   5.280  14.981
17373TIP3    H273535   2.375   5.236  15.093
17374TIP3   OH273536   5.746   1.203  13.616
17374TIP3    H173537   5.678   1.170  13.676
17374TIP3    H273538   5.816   1.138  13.621
17375TIP3   OH273539   3.242   3.016  13.550
17375TIP3    H173540   3.218   3.022  13.458
17375TIP3    H273541   3.260   2.923  13.564
17376TIP3   OH273542   0.899   4.581  10.647
17376TIP3    H173543   0.847   4.504  10.624
17376TIP3    H273544   0.990   4.551  10.644
17377TIP3   OH273545   0.104   1.518  12.679
17377TIP3    H173546   0.157   1.508  12.601
17377TIP3    H273547   0.157   1.481  12.750
17378TIP3   OH273548   0.438   3.681   0.272
17378TIP3    H173549   0.401   3.680   0.184
17378TIP3    H273550   0.461   3.772   0.288
17379TIP3   OH273551   2.595   6.075  11.774
17379TIP3    H173552   2.600   5.992  11.727
17379TIP3    H273553   2.554   6.135  11.712
17380TIP3   OH273554   6.221   3.434   2.418
17380TIP3    H173555   6.262   3.397   2.340
17380TIP3    H273556   6.127   3.423   2.404
17381TIP3   OH273557   0.172   5.772  12.928
17381TIP3    H173558   0.168   5.799  13.019
17381TIP3    H273559   0.247   5.820  12.892
17382TIP3   OH273560   3.688   1.573   5.601
17382TIP3    H173561   3.606   1.528   5.578
17382TIP3    H273562   3.668   1.617   5.684
17383TIP3   OH273563   3.243   5.834  11.083
17383TIP3    H173564   3.212   5.745  11.097
17383TIP3    H273565   3.253   5.841  10.987
17384TIP3   OH273566   4.300   4.547   6.371
17384TIP3    H173567   4.353   4.614   6.414
17384TIP3    H273568   4.242   4.514   6.439
17385TIP3   OH273569   0.150   1.647  12.347
17385TIP3    H173570   0.069   1.667  12.392
17385TIP3    H273571   0.200   1.728  12.348
17386TIP3   OH273572   0.473   0.911   1.944
17386TIP3    H173573   0.502   0.867   2.024
17386TIP3    H273574   0.554   0.937   1.900
17387TIP3   OH273575   1.224   3.458   3.878
17387TIP3    H173576   1.149   3.452   3.937
17387TIP3    H273577   1.299   3.470   3.936
17388TIP3   OH273578   6.134   1.785  12.189
17388TIP3    H173579   6.146   1.876  12.215
17388TIP3    H273580   6.131   1.737  12.272
17389TIP3   OH273581   5.501   6.171  16.586
17389TIP3    H173582   5.432   6.230  16.615
17389TIP3    H273583   5.546   6.219  16.517
17390TIP3   OH273584   5.957   2.998   1.578
17390TIP3    H173585   5.892   3.003   1.649
17390TIP3    H273586   6.013   2.925   1.602
17391TIP3   OH273587   5.155   6.423  13.425
17391TIP3    H173588   5.136   6.474  13.503
17391TIP3    H273589   5.074   6.378  13.405
17392TIP3   OH273590   3.003   3.458  12.696
17392TIP3    H173591   2.938   3.506  12.645
17392TIP3    H273592   2.985   3.483  12.787
17393TIP3   OH273593   5.594   5.681  15.048
17393TIP3    H173594   5.543   5.762  15.044
17393TIP3    H273595   5.528   5.613  15.061
17394TIP3   OH273596   1.202   1.352   4.742
17394TIP3    H173597   1.223   1.261   4.764
17394TIP3    H273598   1.271   1.379   4.681
17395TIP3   OH273599   0.112   1.370   4.147
17395TIP3    H173600   0.068   1.285   4.141
17395TIP3    H273601   0.199   1.350   4.181
17396TIP3   OH273602   3.428   5.672   1.703
17396TIP3    H173603   3.518   5.665   1.736
17396TIP3    H273604   3.394   5.583   1.707
17397TIP3   OH273605   6.715   3.656   5.030
17397TIP3    H173606   6.636   3.638   5.081
17397TIP3    H273607   6.693   3.734   4.979
17398TIP3   OH273608   5.841   4.427  11.118
17398TIP3    H173609   5.787   4.395  11.189
17398TIP3    H273610   5.885   4.505  11.153
17399TIP3   OH273611   2.037   5.308   1.678
17399TIP3    H173612   2.007   5.346   1.595
17399TIP3    H273613   2.032   5.380   1.740
17400TIP3   OH273614   3.405   3.260  14.310
17400TIP3    H173615   3.332   3.297  14.359
17400TIP3    H273616   3.438   3.190  14.365
17401TIP3   OH273617   4.923   4.529  10.826
17401TIP3    H173618   4.987   4.599  10.814
17401TIP3    H273619   4.970   4.449  10.803
17402TIP3   OH273620   6.064   5.646  11.188
17402TIP3    H173621   6.098   5.733  11.165
17402TIP3    H273622   5.969   5.656  11.184
17403TIP3   OH273623   0.714   5.617   1.222
17403TIP3    H173624   0.784   5.679   1.200
17403TIP3    H273625   0.736   5.538   1.172
17404TIP3   OH273626   3.624   0.987   5.827
17404TIP3    H173627   3.541   0.942   5.843
17404TIP3    H273628   3.686   0.917   5.804
17405TIP3   OH273629   3.996   2.459  16.321
17405TIP3    H173630   4.035   2.445  16.235
17405TIP3    H273631   4.067   2.499  16.373
17406TIP3   OH273632   5.357   2.477   2.385
17406TIP3    H173633   5.371   2.396   2.434
17406TIP3    H273634   5.436   2.530   2.403
17407TIP3   OH273635   6.016   2.716  11.318
17407TIP3    H173636   6.044   2.714  11.410
17407TIP3    H273637   5.923   2.694  11.321
17408TIP3   OH273638   5.356   6.258  15.883
17408TIP3    H173639   5.420   6.315  15.926
17408TIP3    H273640   5.394   6.241  15.797
17409TIP3   OH273641   4.593   4.585   0.566
17409TIP3    H173642   4.645   4.653   0.524
17409TIP3    H273643   4.656   4.532   0.614
17410TIP3   OH273644   2.609   1.972   4.728
17410TIP3    H173645   2.677   1.969   4.795
17410TIP3    H273646   2.611   1.884   4.689
17411TIP3   OH273647   4.899   0.367   1.207
17411TIP3    H173648   4.907   0.351   1.302
17411TIP3    H273649   4.988   0.355   1.174
17412TIP3   OH273650   4.819   2.522   3.790
17412TIP3    H173651   4.796   2.605   3.748
17412TIP3    H273652   4.841   2.463   3.718
17413TIP3   OH273653   4.576   1.717  14.654
17413TIP3    H173654   4.578   1.670  14.571
17413TIP3    H273655   4.606   1.652  14.718
17414TIP3   OH273656   4.785   4.184  12.925
17414TIP3    H173657   4.825   4.209  12.842
17414TIP3    H273658   4.711   4.245  12.936
17415TIP3   OH273659   4.658   3.259  14.561
17415TIP3    H173660   4.661   3.226  14.471
17415TIP3    H273661   4.740   3.229  14.601
17416TIP3   OH273662   1.478   5.845   4.888
17416TIP3    H173663   1.545   5.834   4.955
17416TIP3    H273664   1.473   5.940   4.874
17417TIP3   OH273665   2.516   1.970   4.360
17417TIP3    H173666   2.580   1.936   4.297
17417TIP3    H273667   2.511   1.902   4.427
17418TIP3   OH273668   3.444   1.617   0.925
17418TIP3    H173669   3.529   1.642   0.962
17418TIP3    H273670   3.389   1.695   0.937
17419TIP3   OH273671   0.599   0.264   0.660
17419TIP3    H173672   0.561   0.234   0.742
17419TIP3    H273673   0.613   0.183   0.610
17420TIP3   OH273674   3.793   4.916   2.725
17420TIP3    H173675   3.818   4.916   2.633
17420TIP3    H273676   3.782   4.824   2.748
17421TIP3   OH273677   2.196   5.553   0.415
17421TIP3    H173678   2.226   5.506   0.337
17421TIP3    H273679   2.154   5.632   0.380
17422TIP3   OH273680   2.736   4.607  16.138
17422TIP3    H173681   2.723   4.525  16.091
17422TIP3    H273682   2.706   4.590  16.227
17423TIP3   OH273683   2.027   0.910  13.961
17423TIP3    H173684   2.011   1.003  13.947
17423TIP3    H273685   2.006   0.896  14.054
17424TIP3   OH273686   5.849   3.732  13.169
17424TIP3    H173687   5.884   3.746  13.257
17424TIP3    H273688   5.913   3.675  13.127
17425TIP3   OH273689   4.168   5.103   2.371
17425TIP3    H173690   4.234   5.035   2.381
17425TIP3    H273691   4.101   5.081   2.436
17426TIP3   OH273692   1.624   0.205   1.174
17426TIP3    H173693   1.538   0.229   1.140
17426TIP3    H273694   1.658   0.141   1.111
17427TIP3   OH273695   3.152   0.129   5.915
17427TIP3    H173696   3.237   0.119   5.873
17427TIP3    H273697   3.173   0.151   6.006
17428TIP3   OH273698   5.420   0.420   2.293
17428TIP3    H173699   5.357   0.473   2.341
17428TIP3    H273700   5.502   0.428   2.342
17429TIP3   OH273701   2.108   6.775   3.336
17429TIP3    H173702   2.075   6.688   3.362
17429TIP3    H273703   2.200   6.760   3.316
17430TIP3   OH273704   3.490   1.775   3.516
17430TIP3    H173705   3.472   1.720   3.440
17430TIP3    H273706   3.482   1.717   3.591
17431TIP3   OH273707   5.404   0.844   5.772
17431TIP3    H173708   5.420   0.751   5.786
17431TIP3    H273709   5.381   0.877   5.859
17432TIP3   OH273710   0.060   4.056   1.935
17432TIP3    H173711   0.135   4.019   1.889
17432TIP3    H273712   0.072   4.151   1.928
17433TIP3   OH273713   0.137   4.114  15.686
17433TIP3    H173714   0.200   4.164  15.633
17433TIP3    H273715   0.093   4.181  15.739
17434TIP3   OH273716   0.917   3.597  13.647
17434TIP3    H173717   0.997   3.604  13.699
17434TIP3    H273718   0.848   3.626  13.705
17435TIP3   OH273719   6.137   0.420   1.746
17435TIP3    H173720   6.129   0.359   1.818
17435TIP3    H273721   6.067   0.484   1.759
17436TIP3   OH273722   5.396   1.981  13.717
17436TIP3    H173723   5.463   1.996  13.649
17436TIP3    H273724   5.328   1.931  13.672
17437TIP3   OH273725   2.888   5.632  14.162
17437TIP3    H173726   2.942   5.593  14.231
17437TIP3    H273727   2.819   5.568  14.147
17438TIP3   OH273728   2.181   3.660  14.793
17438TIP3    H173729   2.247   3.596  14.765
17438TIP3    H273730   2.129   3.676  14.715
17439TIP3   OH273731   3.345   1.355   1.026
17439TIP3    H173732   3.306   1.390   1.107
17439TIP3    H273733   3.377   1.432   0.980
17440TIP3   OH273734   3.139   0.524  12.280
17440TIP3    H173735   3.203   0.593  12.294
17440TIP3    H273736   3.183   0.444  12.307
17441TIP3   OH273737   2.351   2.791  12.043
17441TIP3    H173738   2.273   2.821  11.997
17441TIP3    H273739   2.370   2.705  12.005
17442TIP3   OH273740   1.600   4.331  15.871
17442TIP3    H173741   1.509   4.318  15.899
17442TIP3    H273742   1.616   4.424  15.888
17443TIP3   OH273743   1.276   4.646   2.985
17443TIP3    H173744   1.223   4.611   2.913
17443TIP3    H273745   1.222   4.633   3.063
17444TIP3   OH273746   1.675   2.971  16.575
17444TIP3    H173747   1.697   2.943  16.664
17444TIP3    H273748   1.685   2.892  16.522
17445TIP3   OH273749   6.358   4.125   3.947
17445TIP3    H173750   6.286   4.185   3.929
17445TIP3    H273751   6.330   4.076   4.024
17446TIP3   OH273752   2.216   0.452  12.688
17446TIP3    H173753   2.266   0.394  12.745
17446TIP3    H273754   2.179   0.518  12.746
17447TIP3   OH273755   0.149   0.450   2.570
17447TIP3    H173756   0.240   0.471   2.551
17447TIP3    H273757   0.099   0.491   2.499
17448TIP3   OH273758   6.312   3.748  10.473
17448TIP3    H173759   6.385   3.803  10.501
17448TIP3    H273760   6.234   3.802  10.489
17449TIP3   OH273761   6.567   6.720  11.709
17449TIP3    H173762   6.633   6.683  11.649
17449TIP3    H273763   6.599   6.697  11.796
17450TIP3   OH273764   4.971   2.180  14.589
17450TIP3    H173765   4.921   2.157  14.511
17450TIP3    H273766   4.913   2.237  14.639
17451TIP3   OH273767   6.640   6.752   1.399
17451TIP3    H173768   6.594   6.823   1.354
17451TIP3    H273769   6.722   6.792   1.429
17452TIP3   OH273770   0.180   2.919  11.537
17452TIP3    H173771   0.210   2.838  11.495
17452TIP3    H273772   0.257   2.952  11.582
17453TIP3   OH273773   5.115   2.399   1.921
17453TIP3    H173774   5.185   2.413   1.857
17453TIP3    H273775   5.142   2.320   1.969
17454TIP3   OH273776   4.288   0.286   0.101
17454TIP3    H173777   4.259   0.323   0.018
17454TIP3    H273778   4.321   0.361   0.151
17455TIP3   OH273779   3.272   4.791   0.685
17455TIP3    H173780   3.204   4.824   0.744
17455TIP3    H273781   3.333   4.745   0.742
17456TIP3   OH273782   0.055   1.535  11.378
17456TIP3    H173783   0.022   1.624  11.391
17456TIP3    H273784   0.105   1.539  11.296
17457TIP3   OH273785   1.950   1.413   3.424
17457TIP3    H173786   1.993   1.336   3.386
17457TIP3    H273787   1.999   1.487   3.389
17458TIP3   OH273788   1.160   5.257  10.919
17458TIP3    H173789   1.121   5.325  10.974
17458TIP3    H273790   1.152   5.291  10.830
17459TIP3   OH273791   2.573   4.887   2.507
17459TIP3    H173792   2.617   4.839   2.577
17459TIP3    H273793   2.490   4.915   2.546
17460TIP3   OH273794   6.165   3.325  11.984
17460TIP3    H173795   6.105   3.387  12.025
17460TIP3    H273796   6.108   3.255  11.951
17461TIP3   OH273797   0.204   1.776  13.921
17461TIP3    H173798   0.237   1.686  13.925
17461TIP3    H273799   0.111   1.768  13.937
17462TIP3   OH273800   0.942   0.805  14.344
17462TIP3    H173801   0.874   0.825  14.280
17462TIP3    H273802   0.934   0.711  14.359
17463TIP3   OH273803   4.247   1.315   3.390
17463TIP3    H173804   4.301   1.237   3.402
17463TIP3    H273805   4.202   1.327   3.474
17464TIP3   OH273806   1.447   2.826  13.553
17464TIP3    H173807   1.414   2.736  13.546
17464TIP3    H273808   1.369   2.881  13.553
17465TIP3   OH273809   4.556   1.402   5.601
17465TIP3    H173810   4.577   1.490   5.571
17465TIP3    H273811   4.600   1.344   5.538
17466TIP3   OH273812   0.856   2.016   3.003
17466TIP3    H173813   0.815   2.085   2.951
17466TIP3    H273814   0.786   1.982   3.059
17467TIP3   OH273815   0.906   4.715   2.725
17467TIP3    H173816   0.916   4.726   2.820
17467TIP3    H273817   0.891   4.804   2.692
17468TIP3   OH273818   4.975   4.131   0.143
17468TIP3    H173819   5.011   4.194   0.205
17468TIP3    H273820   4.908   4.083   0.193
17469TIP3   OH273821   6.700   0.428   6.036
17469TIP3    H173822   6.661   0.344   6.011
17469TIP3    H273823   6.794   0.415   6.023
17470TIP3   OH273824   2.524   3.326  16.766
17470TIP3    H173825   2.503   3.397  16.827
17470TIP3    H273826   2.620   3.328  16.759
17471TIP3   OH273827   3.646   5.663   2.069
17471TIP3    H173828   3.651   5.571   2.041
17471TIP3    H273829   3.702   5.710   2.007
17472TIP3   OH273830   3.848   5.778  11.846
17472TIP3    H173831   3.752   5.775  11.841
17472TIP3    H273832   3.867   5.774  11.940
17473TIP3   OH273833   0.078   5.095  13.462
17473TIP3    H173834   0.044   5.020  13.510
17473TIP3    H273835   0.035   5.090  13.377
17474TIP3   OH273836   5.483   1.349   2.284
17474TIP3    H173837   5.421   1.412   2.319
17474TIP3    H273838   5.558   1.402   2.256
17475TIP3   OH273839   2.247   2.328  14.770
17475TIP3    H173840   2.297   2.247  14.759
17475TIP3    H273841   2.289   2.372  14.844
17476TIP3   OH273842   1.982   0.488  16.144
17476TIP3    H173843   1.948   0.516  16.058
17476TIP3    H273844   2.056   0.547  16.161
17477TIP3   OH273845   2.324   1.686   5.594
17477TIP3    H173846   2.300   1.743   5.521
17477TIP3    H273847   2.293   1.733   5.672
17478TIP3   OH273848   4.244   6.594  16.291
17478TIP3    H173849   4.191   6.625  16.365
17478TIP3    H273850   4.320   6.652  16.289
17479TIP3   OH273851   6.064   2.453  15.295
17479TIP3    H173852   6.151   2.437  15.332
17479TIP3    H273853   6.004   2.421  15.363
17480TIP3   OH273854   0.280   1.321  12.122
17480TIP3    H173855   0.302   1.302  12.213
17480TIP3    H273856   0.359   1.360  12.086
17481TIP3   OH273857   0.914   3.141   2.724
17481TIP3    H173858   0.836   3.171   2.771
17481TIP3    H273859   0.987   3.185   2.768
17482TIP3   OH273860   4.951   1.082   2.659
17482TIP3    H173861   5.003   1.010   2.624
17482TIP3    H273862   4.994   1.106   2.740
17483TIP3   OH273863   0.529   0.884  16.003
17483TIP3    H173864   0.465   0.914  15.938
17483TIP3    H273865   0.613   0.916  15.971
17484TIP3   OH273866   5.907   2.240  13.955
17484TIP3    H173867   5.950   2.159  13.983
17484TIP3    H273868   5.827   2.211  13.912
17485TIP3   OH273869   0.811   6.103   0.310
17485TIP3    H173870   0.819   6.046   0.233
17485TIP3    H273871   0.859   6.058   0.379
17486TIP3   OH273872   3.179   4.795   3.223
17486TIP3    H173873   3.144   4.763   3.306
17486TIP3    H273874   3.232   4.871   3.246
17487TIP3   OH273875   0.414   0.766  11.527
17487TIP3    H173876   0.347   0.822  11.566
17487TIP3    H273877   0.427   0.696  11.591
17488TIP3   OH273878   3.566   5.112   2.553
17488TIP3    H173879   3.529   5.183   2.502
17488TIP3    H273880   3.607   5.156   2.628
17489TIP3   OH273881   0.406   5.706   3.483
17489TIP3    H173882   0.442   5.741   3.402
17489TIP3    H273883   0.372   5.620   3.460
17490TIP3   OH273884   4.999   5.961  11.757
17490TIP3    H173885   5.018   6.035  11.698
17490TIP3    H273886   5.057   5.891  11.726
17491TIP3   OH273887   6.406   4.680   4.848
17491TIP3    H173888   6.475   4.631   4.804
17491TIP3    H273889   6.345   4.613   4.880
17492TIP3   OH273890   3.725   0.126  14.401
17492TIP3    H173891   3.695   0.046  14.358
17492TIP3    H273892   3.646   0.166  14.436
17493TIP3   OH273893   3.069   1.519   2.284
17493TIP3    H173894   2.992   1.530   2.340
17493TIP3    H273895   3.143   1.545   2.339
17494TIP3   OH273896   0.111   4.333   1.888
17494TIP3    H173897   0.176   4.399   1.863
17494TIP3    H273898   0.031   4.360   1.842
17495TIP3   OH273899   6.006   3.649  10.926
17495TIP3    H173900   5.988   3.634  11.019
17495TIP3    H273901   6.080   3.592  10.906
17496TIP3   OH273902   2.617   5.411  14.879
17496TIP3    H173903   2.683   5.358  14.922
17496TIP3    H273904   2.638   5.405  14.786
17497TIP3   OH273905   6.362   3.834  17.017
17497TIP3    H173906   6.299   3.904  16.998
17497TIP3    H273907   6.308   3.755  17.023
17498TIP3   OH273908   3.402   0.731  15.086
17498TIP3    H173909   3.333   0.699  15.144
17498TIP3    H273910   3.429   0.654  15.037
17499TIP3   OH273911   5.360   5.632  13.134
17499TIP3    H173912   5.284   5.666  13.087
17499TIP3    H273913   5.431   5.635  13.068
17500TIP3   OH273914   1.137   3.863  13.009
17500TIP3    H173915   1.049   3.859  13.045
17500TIP3    H273916   1.185   3.794  13.055
17501TIP3   OH273917   4.724   1.879   3.030
17501TIP3    H173918   4.733   1.876   3.125
17501TIP3    H273919   4.654   1.817   3.011
17502TIP3   OH273920   5.567   1.714  13.617
17502TIP3    H173921   5.538   1.737  13.705
17502TIP3    H273922   5.616   1.633  13.628
17503TIP3   OH273923   6.313   6.413   0.182
17503TIP3    H173924   6.245   6.467   0.143
17503TIP3    H273925   6.269   6.364   0.252
17504TIP3   OH273926   1.272   4.896   3.323
17504TIP3    H173927   1.226   4.885   3.406
17504TIP3    H273928   1.282   4.807   3.289
17505TIP3   OH273929   0.229   3.722  15.547
17505TIP3    H173930   0.270   3.694  15.465
17505TIP3    H273931   0.159   3.658  15.561
17506TIP3   OH273932   3.392   0.446   2.144
17506TIP3    H173933   3.429   0.466   2.058
17506TIP3    H273934   3.318   0.506   2.152
17507TIP3   OH273935   1.347   3.234   6.288
17507TIP3    H173936   1.440   3.221   6.306
17507TIP3    H273937   1.305   3.233   6.374
17508TIP3   OH273938   6.000   4.105   3.454
17508TIP3    H173939   6.051   4.024   3.450
17508TIP3    H273940   5.936   4.096   3.384
17509TIP3   OH273941   0.966   1.122   3.569
17509TIP3    H173942   0.928   1.034   3.571
17509TIP3    H273943   1.013   1.130   3.652
17510TIP3   OH273944   0.090   4.069   3.247
17510TIP3    H173945   0.063   4.159   3.230
17510TIP3    H273946   0.090   4.062   3.343
17511TIP3   OH273947   4.485   2.802  14.719
17511TIP3    H173948   4.462   2.892  14.699
17511TIP3    H273949   4.565   2.809  14.772
17512TIP3   OH273950   6.570   0.028  10.909
17512TIP3    H173951   6.487  -0.012  10.886
17512TIP3    H273952   6.580   0.010  11.003
17513TIP3   OH273953   1.287   4.401  14.139
17513TIP3    H173954   1.381   4.381  14.133
17513TIP3    H273955   1.282   4.496  14.132
17514TIP3   OH273956   5.249   3.688   0.937
17514TIP3    H173957   5.170   3.741   0.947
17514TIP3    H273958   5.302   3.708   1.015
17515TIP3   OH273959   2.099   3.607   4.039
17515TIP3    H173960   2.022   3.561   4.072
17515TIP3    H273961   2.063   3.685   3.996
17516TIP3   OH273962   5.352   4.915  16.958
17516TIP3    H173963   5.309   4.831  16.939
17516TIP3    H273964   5.356   4.959  16.873
17517TIP3   OH273965   2.688   0.731   4.531
17517TIP3    H173966   2.657   0.785   4.603
17517TIP3    H273967   2.774   0.700   4.559
17518TIP3   OH273968   1.900   3.228  16.179
17518TIP3    H173969   1.825   3.232  16.120
17518TIP3    H273970   1.877   3.160  16.243
17519TIP3   OH273971   5.119   0.838  10.450
17519TIP3    H173972   5.195   0.807  10.498
17519TIP3    H273973   5.142   0.826  10.358
17520TIP3   OH273974   5.566   2.482   4.759
17520TIP3    H173975   5.475   2.490   4.730
17520TIP3    H273976   5.607   2.565   4.735
17521TIP3   OH273977   6.672   5.271  13.268
17521TIP3    H173978   6.670   5.231  13.181
17521TIP3    H273979   6.761   5.306  13.277
17522TIP3   OH273980   1.152   0.953  13.852
17522TIP3    H173981   1.130   0.987  13.939
17522TIP3    H273982   1.237   0.991  13.832
17523TIP3   OH273983   3.154   0.686  10.594
17523TIP3    H173984   3.079   0.627  10.603
17523TIP3    H273985   3.229   0.628  10.588
17524TIP3   OH273986   3.499   3.630   4.845
17524TIP3    H173987   3.431   3.690   4.874
17524TIP3    H273988   3.472   3.545   4.880
17525TIP3   OH273989   4.269   0.198   5.016
17525TIP3    H173990   4.363   0.198   5.035
17525TIP3    H273991   4.264   0.179   4.923
17526TIP3   OH273992   3.142   6.666  16.056
17526TIP3    H173993   3.052   6.635  16.056
17526TIP3    H273994   3.168   6.664  15.963
17527TIP3   OH273995   4.832   3.977   0.317
17527TIP3    H173996   4.783   3.967   0.235
17527TIP3    H273997   4.832   3.889   0.355
17528TIP3   OH273998   0.132   1.603  15.925
17528TIP3    H173999   0.102   1.689  15.954
17528TIP3    H274000   0.207   1.583  15.981
17529TIP3   OH274001   5.405   4.247   4.172
17529TIP3    H174002   5.463   4.216   4.241
17529TIP3    H274003   5.398   4.174   4.111
17530TIP3   OH274004   2.983   3.628   4.939
17530TIP3    H174005   2.991   3.654   5.031
17530TIP3    H274006   3.003   3.708   4.891
17531TIP3   OH274007   4.406   3.302  11.938
17531TIP3    H174008   4.349   3.379  11.925
17531TIP3    H274009   4.464   3.327  12.009
17532TIP3   OH274010   4.645   2.393  12.609
17532TIP3    H174011   4.566   2.343  12.628
17532TIP3    H274012   4.613   2.481  12.590
17533TIP3   OH274013   1.191   3.872  12.044
17533TIP3    H174014   1.260   3.830  11.993
17533TIP3    H274015   1.235   3.906  12.122
17534TIP3   OH274016   6.133   0.760   0.280
17534TIP3    H174017   6.100   0.670   0.279
17534TIP3    H274018   6.228   0.751   0.275
17535TIP3   OH274019   2.298   4.605   1.660
17535TIP3    H174020   2.377   4.577   1.707
17535TIP3    H274021   2.331   4.639   1.577
17536TIP3   OH274022   5.275   5.788   3.950
17536TIP3    H174023   5.270   5.808   4.043
17536TIP3    H274024   5.367   5.766   3.936
17537TIP3   OH274025   1.345   5.023  12.569
17537TIP3    H174026   1.261   5.026  12.615
17537TIP3    H274027   1.398   5.091  12.611
17538TIP3   OH274028   0.045   3.122   4.838
17538TIP3    H174029   0.095   3.071   4.775
17538TIP3    H274030  -0.008   3.057   4.885
17539TIP3   OH274031   4.766   3.665   5.171
17539TIP3    H174032   4.716   3.741   5.203
17539TIP3    H274033   4.699   3.606   5.136
17540TIP3   OH274034   2.768   1.156   2.286
17540TIP3    H174035   2.724   1.176   2.368
17540TIP3    H274036   2.721   1.080   2.251
17541TIP3   OH274037   1.738   4.118  15.310
17541TIP3    H174038   1.694   4.148  15.230
17541TIP3    H274039   1.815   4.174  15.317
17542TIP3   OH274040   0.804   5.309  12.353
17542TIP3    H174041   0.743   5.379  12.377
17542TIP3    H274042   0.866   5.351  12.294
17543TIP3   OH274043   5.778   6.757   3.887
17543TIP3    H174044   5.856   6.775   3.834
17543TIP3    H274045   5.754   6.667   3.865
17544TIP3   OH274046   5.096   1.134  17.047
17544TIP3    H174047   5.072   1.055  16.997
17544TIP3    H274048   5.013   1.168  17.080
17545TIP3   OH274049   5.047   4.613  17.150
17545TIP3    H174050   4.960   4.573  17.145
17545TIP3    H274051   5.039   4.683  17.214
17546TIP3   OH274052   6.101   2.423  13.857
17546TIP3    H174053   6.034   2.419  13.926
17546TIP3    H274054   6.170   2.364  13.887
17547TIP3   OH274055   5.108   2.413   3.127
17547TIP3    H174056   5.116   2.490   3.071
17547TIP3    H274057   5.078   2.447   3.211
17548TIP3   OH274058   4.697   1.234   6.385
17548TIP3    H174059   4.734   1.315   6.351
17548TIP3    H274060   4.761   1.204   6.450
17549TIP3   OH274061   5.587   5.217   1.411
17549TIP3    H174062   5.539   5.191   1.332
17549TIP3    H274063   5.647   5.144   1.428
17550TIP3   OH274064   6.329   1.393   5.193
17550TIP3    H174065   6.290   1.475   5.224
17550TIP3    H274066   6.379   1.418   5.115
17551TIP3   OH274067   2.860   4.415  13.624
17551TIP3    H174068   2.806   4.466  13.685
17551TIP3    H274069   2.873   4.473  13.549
17552TIP3   OH274070   3.058   4.348   1.973
17552TIP3    H174071   3.035   4.290   2.046
17552TIP3    H274072   3.096   4.425   2.016
17553TIP3   OH274073   4.884   6.471   3.228
17553TIP3    H174074   4.802   6.469   3.179
17553TIP3    H274075   4.879   6.552   3.279
17554TIP3   OH274076   1.742   0.650   2.903
17554TIP3    H174077   1.803   0.679   2.836
17554TIP3    H274078   1.668   0.710   2.896
17555TIP3   OH274079   3.321   5.447  13.242
17555TIP3    H174080   3.333   5.518  13.180
17555TIP3    H274081   3.226   5.434  13.246
17556TIP3   OH274082   2.394   2.474   3.670
17556TIP3    H174083   2.426   2.386   3.650
17556TIP3    H274084   2.464   2.514   3.722
17557TIP3   OH274085   1.690   5.169  10.963
17557TIP3    H174086   1.709   5.087  10.916
17557TIP3    H274087   1.740   5.235  10.916
17558TIP3   OH274088   1.275   2.653  11.415
17558TIP3    H174089   1.222   2.730  11.435
17558TIP3    H274090   1.324   2.677  11.336
17559TIP3   OH274091   4.331   0.396   1.379
17559TIP3    H174092   4.354   0.309   1.410
17559TIP3    H274093   4.407   0.424   1.327
17560TIP3   OH274094   1.902   3.605  12.972
17560TIP3    H174095   1.911   3.678  13.033
17560TIP3    H274096   1.885   3.646  12.887
17561TIP3   OH274097   0.636   3.365   3.807
17561TIP3    H174098   0.646   3.431   3.876
17561TIP3    H274099   0.570   3.403   3.748
17562TIP3   OH274100   5.159   0.977  11.008
17562TIP3    H174101   5.205   0.944  10.931
17562TIP3    H274102   5.206   0.938  11.082
17563TIP3   OH274103   6.424   2.156  14.610
17563TIP3    H174104   6.436   2.177  14.517
17563TIP3    H274105   6.331   2.175  14.626
17564TIP3   OH274106   0.887   2.274   6.473
17564TIP3    H174107   0.973   2.313   6.460
17564TIP3    H274108   0.905   2.181   6.491
17565TIP3   OH274109   5.937   0.001   1.850
17565TIP3    H174110   5.982   0.086   1.843
17565TIP3    H274111   5.981  -0.043   1.924
17566TIP3   OH274112   0.631   0.690  14.075
17566TIP3    H174113   0.552   0.702  14.127
17566TIP3    H274114   0.663   0.603  14.102
17567TIP3   OH274115   0.120   5.784  16.676
17567TIP3    H174116   0.084   5.752  16.759
17567TIP3    H274117   0.064   5.744  16.609
17568TIP3   OH274118   2.213   0.740   0.371
17568TIP3    H174119   2.247   0.670   0.316
17568TIP3    H274120   2.208   0.816   0.313
17569TIP3   OH274121   0.692   1.395  10.553
17569TIP3    H174122   0.788   1.390  10.559
17569TIP3    H274123   0.661   1.357  10.636
17570TIP3   OH274124   6.433   0.354   3.020
17570TIP3    H174125   6.517   0.315   2.999
17570TIP3    H274126   6.383   0.350   2.938
17571TIP3   OH274127   5.833   1.340   0.129
17571TIP3    H174128   5.845   1.245   0.124
17571TIP3    H274129   5.919   1.374   0.153
17572TIP3   OH274130   2.064   4.167   1.272
17572TIP3    H174131   2.001   4.100   1.244
17572TIP3    H274132   2.117   4.123   1.339
17573TIP3   OH274133   5.168   4.050  14.999
17573TIP3    H174134   5.206   3.968  14.965
17573TIP3    H274135   5.238   4.089  15.051
17574TIP3   OH274136   4.559   2.611   3.986
17574TIP3    H174137   4.525   2.574   3.905
17574TIP3    H274138   4.529   2.702   3.986
17575TIP3   OH274139   0.074   3.544  16.522
17575TIP3    H174140   0.073   3.570  16.614
17575TIP3    H274141   0.166   3.540  16.499
17576TIP3   OH274142   2.678   2.365  14.650
17576TIP3    H174143   2.742   2.435  14.636
17576TIP3    H274144   2.658   2.369  14.743
17577TIP3   OH274145   1.036   4.915   0.855
17577TIP3    H174146   1.053   4.853   0.926
17577TIP3    H274147   0.944   4.939   0.865
17578TIP3   OH274148   1.523   2.400   1.064
17578TIP3    H174149   1.551   2.341   1.134
17578TIP3    H274150   1.599   2.404   1.005
17579TIP3   OH274151   5.602   4.300   1.175
17579TIP3    H174152   5.651   4.370   1.132
17579TIP3    H274153   5.622   4.222   1.124
17580TIP3   OH274154   2.108   5.196  11.631
17580TIP3    H174155   2.109   5.245  11.549
17580TIP3    H274156   2.037   5.235  11.681
17581TIP3   OH274157   6.747   3.738  12.695
17581TIP3    H174158   6.737   3.723  12.601
17581TIP3    H274159   6.814   3.805  12.702
17582TIP3   OH274160   6.426   0.594  13.850
17582TIP3    H174161   6.361   0.547  13.902
17582TIP3    H274162   6.439   0.540  13.772
17583TIP3   OH274163   3.013   0.606  11.588
17583TIP3    H174164   3.079   0.561  11.535
17583TIP3    H274165   2.964   0.536  11.630
17584TIP3   OH274166   0.145   2.641  12.667
17584TIP3    H174167   0.092   2.719  12.651
17584TIP3    H274168   0.100   2.595  12.738
17585TIP3   OH274169   4.718   0.165  15.276
17585TIP3    H174170   4.626   0.147  15.295
17585TIP3    H274171   4.764   0.084  15.299
17586TIP3   OH274172   1.119   3.648  12.416
17586TIP3    H174173   1.138   3.738  12.392
17586TIP3    H274174   1.172   3.631  12.494
17587TIP3   OH274175   1.852   6.469  13.374
17587TIP3    H174176   1.776   6.517  13.407
17587TIP3    H274177   1.905   6.535  13.328
17588TIP3   OH274178   1.828   6.573   1.677
17588TIP3    H174179   1.793   6.595   1.592
17588TIP3    H274180   1.751   6.558   1.732
17589TIP3   OH274181   2.401   0.106  16.450
17589TIP3    H174182   2.425   0.150  16.532
17589TIP3    H274183   2.385   0.015  16.476
17590TIP3   OH274184   1.284   3.045   0.837
17590TIP3    H174185   1.282   3.135   0.804
17590TIP3    H274186   1.377   3.021   0.836
17591TIP3   OH274187   6.151   4.386   3.968
17591TIP3    H174188   6.079   4.434   4.008
17591TIP3    H274189   6.193   4.341   4.041
17592TIP3   OH274190   2.488   0.095   4.369
17592TIP3    H174191   2.563   0.154   4.365
17592TIP3    H274192   2.474   0.069   4.278
17593TIP3   OH274193   5.565   6.075   0.915
17593TIP3    H174194   5.525   6.124   0.987
17593TIP3    H274195   5.493   6.053   0.857
17594TIP3   OH274196   0.173   1.594   4.418
17594TIP3    H174197   0.180   1.654   4.344
17594TIP3    H274198   0.177   1.650   4.495
17595TIP3   OH274199   1.415   0.260  16.774
17595TIP3    H174200   1.397   0.169  16.749
17595TIP3    H274201   1.506   0.259  16.804
17596TIP3   OH274202   6.732   4.234  11.080
17596TIP3    H174203   6.653   4.191  11.045
17596TIP3    H274204   6.797   4.223  11.011
17597TIP3   OH274205   2.770   6.347   3.570
17597TIP3    H174206   2.702   6.395   3.617
17597TIP3    H274207   2.722   6.296   3.505
17598TIP3   OH274208   4.374   3.996   3.377
17598TIP3    H174209   4.320   3.917   3.373
17598TIP3    H274210   4.447   3.972   3.434
17599TIP3   OH274211   0.152   0.450  12.988
17599TIP3    H174212   0.088   0.510  13.028
17599TIP3    H274213   0.224   0.506  12.961
17600TIP3   OH274214   3.404   4.792  11.067
17600TIP3    H174215   3.395   4.697  11.067
17600TIP3    H274216   3.423   4.814  10.975
17601TIP3   OH274217   1.618   4.096   5.896
17601TIP3    H174218   1.608   4.189   5.877
17601TIP3    H274219   1.602   4.089   5.990
17602TIP3   OH274220   0.826   2.867  12.856
17602TIP3    H174221   0.763   2.898  12.921
17602TIP3    H274222   0.833   2.940  12.794
17603TIP3   OH274223   3.381   3.728  15.606
17603TIP3    H174224   3.475   3.730  15.587
17603TIP3    H274225   3.367   3.641  15.644
17604TIP3   OH274226   5.437   1.600  14.630
17604TIP3    H174227   5.372   1.623  14.563
17604TIP3    H274228   5.385   1.566  14.703
17605TIP3   OH274229   0.412   2.297   5.282
17605TIP3    H174230   0.352   2.259   5.346
17605TIP3    H274231   0.486   2.236   5.281
17606TIP3   OH274232   1.869   5.462  14.815
17606TIP3    H174233   1.952   5.470  14.769
17606TIP3    H274234   1.809   5.518  14.767
17607TIP3   OH274235   3.803   5.339  16.628
17607TIP3    H174236   3.735   5.319  16.564
17607TIP3    H274237   3.777   5.290  16.706
17608TIP3   OH274238   3.201   2.516  16.152
17608TIP3    H174239   3.181   2.530  16.059
17608TIP3    H274240   3.296   2.510  16.156
17609TIP3   OH274241   0.156   0.137  11.455
17609TIP3    H174242   0.170   0.085  11.534
17609TIP3    H274243   0.134   0.072  11.388
17610TIP3   OH274244   6.142   4.308   2.866
17610TIP3    H174245   6.213   4.250   2.837
17610TIP3    H274246   6.071   4.248   2.890
17611TIP3   OH274247   1.916   2.270   3.856
17611TIP3    H174248   1.955   2.222   3.930
17611TIP3    H274249   1.986   2.328   3.826
17612TIP3   OH274250   4.547   1.220  13.162
17612TIP3    H174251   4.594   1.299  13.188
17612TIP3    H274252   4.578   1.152  13.221
17613TIP3   OH274253   1.602   3.961   1.483
17613TIP3    H174254   1.646   3.923   1.559
17613TIP3    H274255   1.509   3.945   1.498
17614TIP3   OH274256   3.695   6.327   1.702
17614TIP3    H174257   3.624   6.377   1.743
17614TIP3    H274258   3.674   6.329   1.608
17615TIP3   OH274259   3.542   2.069   2.867
17615TIP3    H174260   3.473   2.005   2.850
17615TIP3    H274261   3.515   2.113   2.947
17616TIP3   OH274262   2.995   6.738  15.087
17616TIP3    H174263   2.954   6.693  15.013
17616TIP3    H274264   2.923   6.751  15.150
17617TIP3   OH274265   1.355   4.700  11.830
17617TIP3    H174266   1.288   4.648  11.787
17617TIP3    H274267   1.408   4.736  11.758
17618TIP3   OH274268   0.855   0.480  11.899
17618TIP3    H174269   0.854   0.391  11.864
17618TIP3    H274270   0.926   0.480  11.963
17619TIP3   OH274271   2.734   0.297  16.843
17619TIP3    H174272   2.801   0.241  16.883
17619TIP3    H274273   2.768   0.386  16.852
17620TIP3   OH274274   0.763   4.746   6.386
17620TIP3    H174275   0.806   4.831   6.387
17620TIP3    H274276   0.821   4.690   6.334
17621TIP3   OH274277   5.832   1.504  14.311
17621TIP3    H174278   5.740   1.497  14.338
17621TIP3    H274279   5.881   1.461  14.382
17622TIP3   OH274280   5.426   6.638   3.255
17622TIP3    H174281   5.352   6.582   3.231
17622TIP3    H274282   5.444   6.689   3.176
17623TIP3   OH274283   2.228   5.677  11.617
17623TIP3    H174284   2.294   5.608  11.612
17623TIP3    H274285   2.277   5.758  11.608
17624TIP3   OH274286   4.915   4.937  12.020
17624TIP3    H174287   4.884   4.863  12.072
17624TIP3    H274288   4.910   4.906  11.929
17625TIP3   OH274289   4.156   6.337  14.042
17625TIP3    H174290   4.071   6.375  14.023
17625TIP3    H274291   4.160   6.258  13.988
17626TIP3   OH274292   0.424   3.570   4.500
17626TIP3    H174293   0.489   3.615   4.445
17626TIP3    H274294   0.345   3.568   4.446
17627TIP3   OH274295   5.110   0.419  12.275
17627TIP3    H174296   5.160   0.460  12.346
17627TIP3    H274297   5.143   0.329  12.272
17628TIP3   OH274298   2.697   0.073  11.576
17628TIP3    H174299   2.628   0.129  11.541
17628TIP3    H274300   2.778   0.106  11.536
17629TIP3   OH274301   0.082   4.984  16.055
17629TIP3    H174302   0.066   5.047  16.125
17629TIP3    H274303  -0.004   4.970  16.016
17630TIP3   OH274304   0.687   3.042   1.908
17630TIP3    H174305   0.656   2.952   1.896
17630TIP3    H274306   0.670   3.061   2.001
17631TIP3   OH274307   1.286   5.802   2.118
17631TIP3    H174308   1.298   5.839   2.030
17631TIP3    H274309   1.309   5.710   2.109
17632TIP3   OH274310   0.642   1.722   3.060
17632TIP3    H174311   0.693   1.646   3.033
17632TIP3    H274312   0.552   1.689   3.065
17633TIP3   OH274313   3.665   2.061   1.914
17633TIP3    H174314   3.664   2.025   1.825
17633TIP3    H274315   3.720   2.001   1.964
17634TIP3   OH274316   5.720   2.159  11.815
17634TIP3    H174317   5.672   2.137  11.735
17634TIP3    H274318   5.787   2.090  11.822
17635TIP3   OH274319   3.418   5.909  12.793
17635TIP3    H174320   3.358   5.840  12.821
17635TIP3    H274321   3.499   5.863  12.772
17636TIP3   OH274322   4.200   4.839  14.161
17636TIP3    H174323   4.105   4.846  14.170
17636TIP3    H274324   4.227   4.777  14.230
17637TIP3   OH274325   1.343   4.329   1.630
17637TIP3    H174326   1.363   4.267   1.700
17637TIP3    H274327   1.306   4.405   1.676
17638TIP3   OH274328   2.757   0.808  16.283
17638TIP3    H174329   2.759   0.712  16.282
17638TIP3    H274330   2.753   0.830  16.376
17639TIP3   OH274331   5.720   6.173  13.719
17639TIP3    H174332   5.707   6.202  13.809
17639TIP3    H274333   5.689   6.245  13.665
17640TIP3   OH274334   1.018   6.188   4.339
17640TIP3    H174335   1.064   6.243   4.402
17640TIP3    H274336   1.042   6.098   4.362
17641TIP3   OH274337   1.868   1.975   4.173
17641TIP3    H174338   1.793   1.969   4.113
17641TIP3    H274339   1.875   1.888   4.211
17642TIP3   OH274340   6.455   2.306   0.334
17642TIP3    H174341   6.526   2.300   0.398
17642TIP3    H274342   6.382   2.259   0.375
17643TIP3   OH274343   1.232   5.632   4.308
17643TIP3    H174344   1.170   5.588   4.250
17643TIP3    H274345   1.177   5.672   4.375
17644TIP3   OH274346   0.439   3.627   5.615
17644TIP3    H174347   0.457   3.537   5.588
17644TIP3    H274348   0.345   3.638   5.603
17645TIP3   OH274349   5.186   5.670   3.723
17645TIP3    H174350   5.262   5.661   3.666
17645TIP3    H274351   5.217   5.722   3.797
17646TIP3   OH274352   3.833   6.432  16.187
17646TIP3    H174353   3.876   6.372  16.248
17646TIP3    H274354   3.842   6.518  16.228
17647TIP3   OH274355   6.341   4.982  13.461
17647TIP3    H174356   6.369   5.064  13.419
17647TIP3    H274357   6.279   5.009  13.528
17648TIP3   OH274358   5.822   2.789   3.123
17648TIP3    H174359   5.731   2.811   3.105
17648TIP3    H274360   5.824   2.769   3.217
17649TIP3   OH274361   2.528   6.619  14.533
17649TIP3    H174362   2.437   6.642  14.514
17649TIP3    H274363   2.524   6.571  14.616
17650TIP3   OH274364   2.524   3.830   2.214
17650TIP3    H174365   2.564   3.845   2.300
17650TIP3    H274366   2.448   3.887   2.213
17651TIP3   OH274367   0.176   3.453  15.436
17651TIP3    H174368   0.240   3.405  15.489
17651TIP3    H274369   0.224   3.480  15.358
17652TIP3   OH274370   5.593   4.620   6.388
17652TIP3    H174371   5.608   4.604   6.481
17652TIP3    H274372   5.676   4.657   6.357
17653TIP3   OH274373   4.040   1.108  12.431
17653TIP3    H174374   3.994   1.058  12.499
17653TIP3    H274375   4.058   1.044  12.363
17654TIP3   OH274376   3.294   1.370   5.301
17654TIP3    H174377   3.222   1.432   5.289
17654TIP3    H274378   3.362   1.399   5.240
17655TIP3   OH274379   0.017   0.071   4.785
17655TIP3    H174380  -0.019   0.127   4.854
17655TIP3    H274381   0.112   0.082   4.791
17656TIP3   OH274382   5.931   4.962  10.623
17656TIP3    H174383   5.862   4.995  10.681
17656TIP3    H274384   6.000   4.932  10.682
17657TIP3   OH274385   2.197   1.018  10.961
17657TIP3    H174386   2.257   1.062  10.902
17657TIP3    H274387   2.214   0.924  10.947
17658TIP3   OH274388   0.561   4.506   0.237
17658TIP3    H174389   0.530   4.553   0.159
17658TIP3    H274390   0.614   4.570   0.284
17659TIP3   OH274391   1.305   1.108  13.243
17659TIP3    H174392   1.237   1.056  13.200
17659TIP3    H274393   1.383   1.092  13.191
17660TIP3   OH274394   5.664   5.427  16.141
17660TIP3    H174395   5.750   5.395  16.171
17660TIP3    H274396   5.601   5.369  16.184
17661TIP3   OH274397   0.242   5.526   6.477
17661TIP3    H174398   0.241   5.456   6.412
17661TIP3    H274399   0.321   5.576   6.457
17662TIP3   OH274400   4.306   4.452  11.638
17662TIP3    H174401   4.365   4.508  11.587
17662TIP3    H274402   4.220   4.465  11.597
17663TIP3   OH274403   3.164   2.925  16.436
17663TIP3    H174404   3.165   2.986  16.510
17663TIP3    H274405   3.071   2.906  16.421
17664TIP3   OH274406   6.358   1.883   2.150
17664TIP3    H174407   6.266   1.859   2.145
17664TIP3    H274408   6.362   1.949   2.220
17665TIP3   OH274409   4.937   3.596   0.245
17665TIP3    H174410   4.917   3.655   0.317
17665TIP3    H274411   5.029   3.573   0.258
17666TIP3   OH274412   0.488   6.748  16.502
17666TIP3    H174413   0.456   6.682  16.564
17666TIP3    H274414   0.542   6.806  16.555
17667TIP3   OH274415   4.454   4.413   0.724
17667TIP3    H174416   4.530   4.417   0.783
17667TIP3    H274417   4.481   4.462   0.647
17668TIP3   OH274418   6.667   4.854  15.439
17668TIP3    H174419   6.692   4.808  15.520
17668TIP3    H274420   6.749   4.887  15.404
17669TIP3   OH274421   2.051   0.179  12.810
17669TIP3    H174422   2.115   0.188  12.740
17669TIP3    H274423   2.029   0.086  12.811
17670TIP3   OH274424   5.705   3.201   2.289
17670TIP3    H174425   5.628   3.146   2.271
17670TIP3    H274426   5.776   3.159   2.240
17671TIP3   OH274427   5.366   4.722  12.009
17671TIP3    H174428   5.281   4.682  11.989
17671TIP3    H274429   5.345   4.813  12.030
17672TIP3   OH274430   2.684   2.264  16.684
17672TIP3    H174431   2.662   2.181  16.724
17672TIP3    H274432   2.741   2.241  16.611
17673TIP3   OH274433   4.840   5.277  16.210
17673TIP3    H174434   4.869   5.336  16.280
17673TIP3    H274435   4.802   5.334  16.144
17674TIP3   OH274436   5.081   3.082   0.068
17674TIP3    H174437   5.134   3.006   0.043
17674TIP3    H274438   5.144   3.146   0.102
17675TIP3   OH274439   0.844   6.232   4.633
17675TIP3    H174440   0.937   6.217   4.615
17675TIP3    H274441   0.827   6.320   4.600
17676TIP3   OH274442   5.562   5.976  11.711
17676TIP3    H174443   5.579   6.010  11.623
17676TIP3    H274444   5.492   5.912  11.699
17677TIP3   OH274445   5.019   5.887   4.881
17677TIP3    H174446   4.934   5.843   4.882
17677TIP3    H274447   5.056   5.870   4.968
17678TIP3   OH274448   4.385   6.623   5.663
17678TIP3    H174449   4.356   6.691   5.723
17678TIP3    H274450   4.315   6.558   5.665
17679TIP3   OH274451   2.292   4.331  12.489
17679TIP3    H174452   2.212   4.335  12.542
17679TIP3    H274453   2.261   4.313  12.400
17680TIP3   OH274454   4.556   2.352  14.365
17680TIP3    H174455   4.514   2.360  14.279
17680TIP3    H274456   4.625   2.287  14.352
17681TIP3   OH274457   2.382   5.503   4.110
17681TIP3    H174458   2.464   5.455   4.103
17681TIP3    H274459   2.408   5.595   4.114
17682TIP3   OH274460   5.799   1.210   6.224
17682TIP3    H174461   5.708   1.180   6.226
17682TIP3    H274462   5.793   1.305   6.220
17683TIP3   OH274463   3.381   6.203   3.808
17683TIP3    H174464   3.366   6.109   3.799
17683TIP3    H274465   3.360   6.222   3.900
17684TIP3   OH274466   1.901   4.013  15.838
17684TIP3    H174467   1.930   4.051  15.755
17684TIP3    H274468   1.918   4.080  15.903
17685TIP3   OH274469   3.306   0.567  16.191
17685TIP3    H174470   3.303   0.502  16.262
17685TIP3    H274471   3.373   0.534  16.131
17686TIP3   OH274472   3.126   5.029   1.076
17686TIP3    H174473   3.090   5.117   1.088
17686TIP3    H274474   3.218   5.038   1.101
17687TIP3   OH274475   2.308   2.226   0.611
17687TIP3    H174476   2.340   2.142   0.645
17687TIP3    H274477   2.213   2.219   0.616
17688TIP3   OH274478   4.234   2.733   6.214
17688TIP3    H174479   4.268   2.717   6.302
17688TIP3    H274480   4.198   2.649   6.186
17689TIP3   OH274481   3.452   1.119   3.495
17689TIP3    H174482   3.506   1.067   3.437
17689TIP3    H274483   3.399   1.055   3.543
17690TIP3   OH274484   0.700   1.519   1.833
17690TIP3    H174485   0.746   1.585   1.885
17690TIP3    H274486   0.768   1.456   1.808
17691TIP3   OH274487   0.796   2.452  16.621
17691TIP3    H174488   0.730   2.385  16.609
17691TIP3    H274489   0.870   2.407  16.661
17692TIP3   OH274490   3.210   5.186  11.103
17692TIP3    H174491   3.137   5.190  11.041
17692TIP3    H274492   3.190   5.253  11.169
17693TIP3   OH274493   1.231   0.682  14.290
17693TIP3    H174494   1.200   0.708  14.204
17693TIP3    H274495   1.153   0.647  14.334
17694TIP3   OH274496   5.068   2.747   2.617
17694TIP3    H174497   5.028   2.694   2.548
17694TIP3    H274498   5.004   2.816   2.635
17695TIP3   OH274499   1.300   5.758  12.431
17695TIP3    H174500   1.258   5.808  12.361
17695TIP3    H274501   1.250   5.676  12.434
17696TIP3   OH274502   5.157   2.847  12.289
17696TIP3    H174503   5.200   2.933  12.292
17696TIP3    H274504   5.073   2.860  12.333
17697TIP3   OH274505   1.044   1.000  16.998
17697TIP3    H174506   0.995   0.919  17.015
17697TIP3    H274507   1.095   1.014  17.077
17698TIP3   OH274508   6.328   0.740  14.241
17698TIP3    H174509   6.370   0.824  14.260
17698TIP3    H274510   6.344   0.687  14.320
17699TIP3   OH274511   4.626   1.569   2.267
17699TIP3    H174512   4.587   1.507   2.205
17699TIP3    H274513   4.686   1.516   2.319
17700TIP3   OH274514   6.321   1.006  16.343
17700TIP3    H174515   6.235   1.046  16.327
17700TIP3    H274516   6.364   1.007  16.258
17701TIP3   OH274517   1.334   3.601  15.902
17701TIP3    H174518   1.352   3.553  15.983
17701TIP3    H274519   1.368   3.544  15.832
17702TIP3   OH274520   0.814   5.607   3.160
17702TIP3    H174521   0.862   5.677   3.204
17702TIP3    H274522   0.876   5.569   3.099
17703TIP3   OH274523   6.156   0.451   3.203
17703TIP3    H174524   6.088   0.385   3.213
17703TIP3    H274525   6.182   0.472   3.293
17704TIP3   OH274526   0.337   2.271  15.208
17704TIP3    H174527   0.365   2.189  15.167
17704TIP3    H274528   0.244   2.278  15.187
17705TIP3   OH274529   4.483   1.735   5.782
17705TIP3    H174530   4.570   1.697   5.772
17705TIP3    H274531   4.424   1.669   5.747
17706TIP3   OH274532   4.472   6.633  11.630
17706TIP3    H174533   4.405   6.648  11.563
17706TIP3    H274534   4.422   6.618  11.711
17707TIP3   OH274535   2.721   1.920   4.200
17707TIP3    H174536   2.768   1.880   4.126
17707TIP3    H274537   2.766   1.888   4.278
17708TIP3   OH274538   6.635   1.077   5.195
17708TIP3    H174539   6.637   1.034   5.109
17708TIP3    H274540   6.723   1.114   5.205
17709TIP3   OH274541   2.116   4.825  17.014
17709TIP3    H174542   2.167   4.756  16.972
17709TIP3    H274543   2.085   4.879  16.941
17710TIP3   OH274544   1.918   5.380   3.934
17710TIP3    H174545   1.839   5.326   3.930
17710TIP3    H274546   1.970   5.341   4.004
17711TIP3   OH274547   3.076   2.399  10.831
17711TIP3    H174548   3.172   2.395  10.826
17711TIP3    H274549   3.058   2.483  10.873
17712TIP3   OH274550   1.120   3.741  14.244
17712TIP3    H174551   1.154   3.791  14.319
17712TIP3    H274552   1.139   3.796  14.168
17713TIP3   OH274553   0.212   3.400  15.935
17713TIP3    H174554   0.132   3.395  15.883
17713TIP3    H274555   0.230   3.493  15.944
17714TIP3   OH274556   6.610   6.069   5.545
17714TIP3    H174557   6.593   5.975   5.548
17714TIP3    H274558   6.699   6.076   5.509
17715TIP3   OH274559   3.220   3.156   0.093
17715TIP3    H174560   3.257   3.071   0.070
17715TIP3    H274561   3.288   3.219   0.071
17716TIP3   OH274562   5.858   6.689  10.997
17716TIP3    H174563   5.950   6.704  10.976
17716TIP3    H274564   5.848   6.723  11.085
17717TIP3   OH274565   0.618   5.498   3.481
17717TIP3    H174566   0.551   5.433   3.462
17717TIP3    H274567   0.692   5.473   3.427
17718TIP3   OH274568   1.939   4.246   0.414
17718TIP3    H174569   1.986   4.218   0.335
17718TIP3    H274570   2.003   4.297   0.463
17719TIP3   OH274571   1.827   6.562  14.531
17719TIP3    H174572   1.830   6.581  14.625
17719TIP3    H274573   1.747   6.603  14.500
17720TIP3   OH274574   1.155   6.024   3.239
17720TIP3    H174575   1.233   5.969   3.233
17720TIP3    H274576   1.113   6.018   3.153
17721TIP3   OH274577   4.621   5.347   4.513
17721TIP3    H174578   4.645   5.425   4.462
17721TIP3    H274579   4.526   5.355   4.524
17722TIP3   OH274580   3.059   2.667   4.616
17722TIP3    H174581   3.132   2.716   4.654
17722TIP3    H274582   3.041   2.598   4.680
17723TIP3   OH274583   4.987   2.921   0.519
17723TIP3    H174584   4.970   2.866   0.443
17723TIP3    H274585   4.906   2.920   0.568
17724TIP3   OH274586   5.061   2.272   4.863
17724TIP3    H174587   5.102   2.209   4.923
17724TIP3    H274588   5.095   2.249   4.777
17725TIP3   OH274589   5.255   5.635   2.265
17725TIP3    H174590   5.278   5.574   2.195
17725TIP3    H274591   5.333   5.638   2.321
17726TIP3   OH274592   2.974   4.384   4.052
17726TIP3    H174593   2.980   4.441   4.129
17726TIP3    H274594   3.052   4.329   4.057
17727TIP3   OH274595   4.223   1.204   0.720
17727TIP3    H174596   4.266   1.246   0.794
17727TIP3    H274597   4.282   1.132   0.697
17728TIP3   OH274598   5.714   6.609  11.924
17728TIP3    H174599   5.697   6.626  12.017
17728TIP3    H274600   5.738   6.516  11.921
17729TIP3   OH274601   4.723   2.545   4.703
17729TIP3    H174602   4.658   2.615   4.704
17729TIP3    H274603   4.685   2.476   4.756
17730TIP3   OH274604   6.549   6.736   3.206
17730TIP3    H174605   6.504   6.820   3.216
17730TIP3    H274606   6.553   6.722   3.111
17731TIP3   OH274607   3.504   4.292  12.421
17731TIP3    H174608   3.497   4.326  12.510
17731TIP3    H274609   3.594   4.258  12.417
17732TIP3   OH274610   0.299   0.339   2.853
17732TIP3    H174611   0.372   0.317   2.795
17732TIP3    H274612   0.280   0.258   2.900
17733TIP3   OH274613   5.364   3.623  12.541
17733TIP3    H174614   5.365   3.558  12.611
17733TIP3    H274615   5.364   3.572  12.460
17734TIP3   OH274616   0.466   0.510   6.365
17734TIP3    H174617   0.441   0.418   6.360
17734TIP3    H274618   0.457   0.543   6.276
17735TIP3   OH274619   4.721   6.441  15.090
17735TIP3    H174620   4.713   6.527  15.048
17735TIP3    H274621   4.708   6.459  15.183
17736TIP3   OH274622   6.126   2.738  15.923
17736TIP3    H174623   6.098   2.669  15.983
17736TIP3    H274624   6.047   2.762  15.875
17737TIP3   OH274625   4.504   2.140  12.996
17737TIP3    H174626   4.432   2.104  13.049
17737TIP3    H274627   4.561   2.065  12.981
17738TIP3   OH274628   3.418   4.795  11.413
17738TIP3    H174629   3.448   4.828  11.498
17738TIP3    H274630   3.439   4.702  11.415
17739TIP3   OH274631   4.630   3.450   2.282
17739TIP3    H174632   4.714   3.483   2.312
17739TIP3    H274633   4.651   3.368   2.236
17740TIP3   OH274634   0.748   6.450  15.215
17740TIP3    H174635   0.815   6.517  15.224
17740TIP3    H274636   0.695   6.457  15.294
17741TIP3   OH274637   1.044   3.367   4.105
17741TIP3    H174638   1.037   3.313   4.184
17741TIP3    H274639   1.016   3.454   4.134
17742TIP3   OH274640   0.554   3.059  13.286
17742TIP3    H174641   0.460   3.044  13.281
17742TIP3    H274642   0.569   3.086  13.377
17743TIP3   OH274643   3.857   2.529  15.834
17743TIP3    H174644   3.826   2.539  15.924
17743TIP3    H274645   3.811   2.452  15.801
17744TIP3   OH274646   0.004   0.642   4.397
17744TIP3    H174647  -0.030   0.565   4.352
17744TIP3    H274648  -0.029   0.716   4.346
17745TIP3   OH274649   5.764   4.053  14.125
17745TIP3    H174650   5.669   4.038  14.126
17745TIP3    H274651   5.780   4.096  14.041
17746TIP3   OH274652   3.423   2.481  12.602
17746TIP3    H174653   3.338   2.525  12.607
17746TIP3    H274654   3.403   2.390  12.626
17747TIP3   OH274655   5.713   4.697  11.996
17747TIP3    H174656   5.724   4.791  11.989
17747TIP3    H274657   5.630   4.685  12.042
17748TIP3   OH274658   3.100   4.012   3.007
17748TIP3    H174659   3.065   4.079   3.066
17748TIP3    H274660   3.158   4.060   2.947
17749TIP3   OH274661   1.437   6.290  16.003
17749TIP3    H174662   1.438   6.235  15.925
17749TIP3    H274663   1.485   6.369  15.977
17750TIP3   OH274664   0.867   5.563  14.746
17750TIP3    H174665   0.935   5.593  14.685
17750TIP3    H274666   0.886   5.470  14.760
17751TIP3   OH274667   2.461   2.573   1.832
17751TIP3    H174668   2.384   2.624   1.857
17751TIP3    H274669   2.531   2.608   1.888
17752TIP3   OH274670   2.142   1.562  12.983
17752TIP3    H174671   2.105   1.475  12.996
17752TIP3    H274672   2.216   1.548  12.924
17753TIP3   OH274673   3.133   1.101   0.671
17753TIP3    H174674   3.048   1.067   0.697
17753TIP3    H274675   3.183   1.105   0.753
17754TIP3   OH274676   5.097   5.719  11.701
17754TIP3    H174677   5.018   5.670  11.680
17754TIP3    H274678   5.160   5.653  11.729
17755TIP3   OH274679   0.202   5.839   0.928
17755TIP3    H174680   0.170   5.923   0.896
17755TIP3    H274681   0.246   5.859   1.010
17756TIP3   OH274682   3.716   5.841   1.883
17756TIP3    H174683   3.768   5.806   1.811
17756TIP3    H274684   3.669   5.914   1.845
17757TIP3   OH274685   1.435   1.490   5.161
17757TIP3    H174686   1.453   1.519   5.251
17757TIP3    H274687   1.502   1.533   5.108
17758TIP3   OH274688   5.295   5.475  11.354
17758TIP3    H174689   5.328   5.387  11.370
17758TIP3    H274690   5.202   5.462  11.333
17759TIP3   OH274691   0.844   3.547   3.937
17759TIP3    H174692   0.783   3.618   3.923
17759TIP3    H274693   0.929   3.590   3.947
17760TIP3   OH274694   5.725   1.317   5.922
17760TIP3    H174695   5.709   1.354   6.009
17760TIP3    H274696   5.651   1.347   5.869
17761TIP3   OH274697   1.217   0.090  15.586
17761TIP3    H174698   1.138   0.106  15.638
17761TIP3    H274699   1.184   0.068  15.499
17762TIP3   OH274700   1.728   0.403  15.756
17762TIP3    H174701   1.691   0.393  15.843
17762TIP3    H274702   1.758   0.315  15.733
17763TIP3   OH274703   2.169   3.854  11.164
17763TIP3    H174704   2.107   3.804  11.216
17763TIP3    H274705   2.121   3.877  11.085
17764TIP3   OH274706   6.005   4.078  12.534
17764TIP3    H174707   6.047   4.134  12.470
17764TIP3    H274708   5.989   4.135  12.609
17765TIP3   OH274709   1.021   2.827  12.225
17765TIP3    H174710   0.952   2.886  12.195
17765TIP3    H274711   1.056   2.788  12.145
17766TIP3   OH274712   6.517   3.950  17.196
17766TIP3    H174713   6.509   3.885  17.266
17766TIP3    H274714   6.458   3.918  17.128
17767TIP3   OH274715   5.505   2.945   4.757
17767TIP3    H174716   5.504   3.015   4.691
17767TIP3    H274717   5.542   2.986   4.835
17768TIP3   OH274718   6.210   3.356  11.267
17768TIP3    H174719   6.161   3.339  11.186
17768TIP3    H274720   6.230   3.449  11.264
17769TIP3   OH274721   5.207   2.246   0.115
17769TIP3    H174722   5.181   2.154   0.108
17769TIP3    H274723   5.167   2.288   0.039
17770TIP3   OH274724   5.506   3.651   4.454
17770TIP3    H174725   5.513   3.562   4.421
17770TIP3    H274726   5.454   3.644   4.534
17771TIP3   OH274727   3.952   0.328  16.692
17771TIP3    H174728   4.027   0.378  16.661
17771TIP3    H274729   3.875   0.379  16.665
17772TIP3   OH274730   2.177   5.284   2.864
17772TIP3    H174731   2.094   5.280   2.816
17772TIP3    H274732   2.206   5.193   2.869
17773TIP3   OH274733   6.051   3.219  15.108
17773TIP3    H174734   6.060   3.229  15.203
17773TIP3    H274735   6.140   3.210  15.076
17774TIP3   OH274736   0.998   5.634  13.524
17774TIP3    H174737   1.078   5.632  13.576
17774TIP3    H274738   1.017   5.696  13.453
17775TIP3   OH274739   2.075   2.350  12.540
17775TIP3    H174740   1.984   2.344  12.568
17775TIP3    H274741   2.076   2.305  12.455
17776TIP3   OH274742   5.632   0.269   3.349
17776TIP3    H174743   5.567   0.339   3.348
17776TIP3    H274744   5.623   0.229   3.436
17777TIP3   OH274745   4.775   1.032  13.688
17777TIP3    H174746   4.791   1.123  13.661
17777TIP3    H274747   4.802   1.028  13.779
17778TIP3   OH274748   3.691   0.585   5.484
17778TIP3    H174749   3.643   0.667   5.472
17778TIP3    H274750   3.631   0.518   5.452
17779TIP3   OH274751   2.923   6.032   2.657
17779TIP3    H174752   2.974   5.951   2.657
17779TIP3    H274753   2.986   6.100   2.632
17780TIP3   OH274754   2.997   1.274   2.501
17780TIP3    H174755   3.030   1.343   2.557
17780TIP3    H274756   2.924   1.314   2.453
17781TIP3   OH274757   3.763   5.372   5.654
17781TIP3    H174758   3.716   5.395   5.735
17781TIP3    H274759   3.745   5.278   5.642
17782TIP3   OH274760   1.173   1.905  13.480
17782TIP3    H174761   1.129   1.829  13.518
17782TIP3    H274762   1.186   1.882  13.388
17783TIP3   OH274763   0.862   5.730  16.338
17783TIP3    H174764   0.792   5.676  16.374
17783TIP3    H274765   0.942   5.697  16.380
17784TIP3   OH274766   2.092   0.316   2.987
17784TIP3    H174767   2.121   0.236   3.030
17784TIP3    H274768   2.143   0.385   3.030
17785TIP3   OH274769   6.712   1.832  14.201
17785TIP3    H174770   6.702   1.926  14.186
17785TIP3    H274771   6.805   1.821  14.220
17786TIP3   OH274772   3.242   6.073  11.223
17786TIP3    H174773   3.279   6.157  11.195
17786TIP3    H274774   3.266   6.012  11.153
17787TIP3   OH274775   4.857   0.249  11.754
17787TIP3    H174776   4.836   0.160  11.784
17787TIP3    H274777   4.936   0.272  11.801
17788TIP3   OH274778   5.380   6.020   0.116
17788TIP3    H174779   5.453   5.966   0.143
17788TIP3    H274780   5.344   6.055   0.198
17789TIP3   OH274781   0.368   0.531   3.041
17789TIP3    H174782   0.348   0.462   2.979
17789TIP3    H274783   0.297   0.594   3.032
17790TIP3   OH274784   6.779   4.682   5.594
17790TIP3    H174785   6.829   4.622   5.649
17790TIP3    H274786   6.703   4.707   5.647
17791TIP3   OH274787   0.727   5.017  10.744
17791TIP3    H174788   0.698   5.097  10.701
17791TIP3    H274789   0.808   4.994  10.698
17792TIP3   OH274790   6.109   4.288   2.045
17792TIP3    H174791   6.090   4.202   2.083
17792TIP3    H274792   6.093   4.349   2.117
17793TIP3   OH274793   2.140   1.668  15.436
17793TIP3    H174794   2.206   1.601  15.416
17793TIP3    H274795   2.192   1.745  15.460
17794TIP3   OH274796   2.600   2.884   6.602
17794TIP3    H174797   2.574   2.855   6.690
17794TIP3    H274798   2.662   2.818   6.572
17795TIP3   OH274799   0.425   6.376  11.101
17795TIP3    H174800   0.467   6.369  11.187
17795TIP3    H274801   0.495   6.404  11.043
17796TIP3   OH274802   2.735   3.605   5.286
17796TIP3    H174803   2.686   3.639   5.362
17796TIP3    H274804   2.672   3.607   5.214
17797TIP3   OH274805   1.021   4.588  12.820
17797TIP3    H174806   1.000   4.515  12.763
17797TIP3    H274807   1.070   4.649  12.765
17798TIP3   OH274808   5.749   2.596  12.868
17798TIP3    H174809   5.728   2.690  12.869
17798TIP3    H274810   5.809   2.584  12.941
17799TIP3   OH274811   0.396   5.496   1.490
17799TIP3    H174812   0.447   5.476   1.568
17799TIP3    H274813   0.336   5.565   1.517
17800TIP3   OH274814   4.002   5.907   3.121
17800TIP3    H174815   3.951   5.979   3.083
17800TIP3    H274816   3.946   5.873   3.191
17801TIP3   OH274817   4.306   3.414  12.980
17801TIP3    H174818   4.218   3.376  12.976
17801TIP3    H274819   4.296   3.488  13.040
17802TIP3   OH274820   4.229   4.426   3.826
17802TIP3    H174821   4.189   4.353   3.778
17802TIP3    H274822   4.270   4.384   3.902
17803TIP3   OH274823   3.532   0.344   0.058
17803TIP3    H174824   3.529   0.438   0.075
17803TIP3    H274825   3.569   0.337  -0.030
17804TIP3   OH274826   2.762   2.945  16.695
17804TIP3    H174827   2.750   2.966  16.602
17804TIP3    H274828   2.856   2.948  16.708
17805TIP3   OH274829   3.288   3.348   2.940
17805TIP3    H174830   3.290   3.281   3.009
17805TIP3    H274831   3.299   3.431   2.986
17806TIP3   OH274832   4.581   2.162  12.144
17806TIP3    H174833   4.570   2.249  12.105
17806TIP3    H274834   4.500   2.117  12.125
17807TIP3   OH274835   3.957   5.833   5.004
17807TIP3    H174836   4.023   5.902   5.010
17807TIP3    H274837   3.888   5.861   5.063
17808TIP3   OH274838   2.409   6.538  11.656
17808TIP3    H174839   2.401   6.586  11.738
17808TIP3    H274840   2.485   6.577  11.613
17809TIP3   OH274841   5.451   2.711  12.981
17809TIP3    H174842   5.432   2.803  12.962
17809TIP3    H274843   5.375   2.681  13.032
17810TIP3   OH274844   0.357   3.220   0.931
17810TIP3    H174845   0.295   3.203   0.860
17810TIP3    H274846   0.374   3.314   0.925
17811TIP3   OH274847   2.433   5.959   0.369
17811TIP3    H174848   2.506   6.009   0.332
17811TIP3    H274849   2.419   5.888   0.306
17812TIP3   OH274850   1.341   2.842   6.371
17812TIP3    H174851   1.293   2.760   6.363
17812TIP3    H274852   1.279   2.902   6.413
17813TIP3   OH274853   6.628   3.202  13.126
17813TIP3    H174854   6.632   3.204  13.222
17813TIP3    H274855   6.705   3.251  13.098
17814TIP3   OH274856   2.557   0.281   3.899
17814TIP3    H174857   2.519   0.297   3.813
17814TIP3    H274858   2.498   0.326   3.960
17815TIP3   OH274859   4.565   5.021   0.845
17815TIP3    H174860   4.478   4.992   0.816
17815TIP3    H274861   4.609   4.940   0.871
17816TIP3   OH274862   6.487   2.403  16.186
17816TIP3    H174863   6.397   2.436  16.190
17816TIP3    H274864   6.524   2.426  16.272
17817TIP3   OH274865   3.899   3.075   3.651
17817TIP3    H174866   3.984   3.054   3.692
17817TIP3    H274867   3.865   2.990   3.623
17818TIP3   OH274868   4.677   3.601  15.682
17818TIP3    H174869   4.601   3.646  15.646
17818TIP3    H274870   4.673   3.513  15.646
17819TIP3   OH274871   6.760   1.442  16.581
17819TIP3    H174872   6.777   1.391  16.660
17819TIP3    H274873   6.678   1.488  16.599
17820TIP3   OH274874   5.377   6.029   0.661
17820TIP3    H174875   5.408   5.998   0.576
17820TIP3    H274876   5.291   6.066   0.642
17821TIP3   OH274877   3.908   3.814   4.470
17821TIP3    H174878   3.847   3.869   4.519
17821TIP3    H274879   3.857   3.784   4.394
17822TIP3   OH274880   3.555   3.281   4.573
17822TIP3    H174881   3.555   3.376   4.563
17822TIP3    H274882   3.498   3.249   4.503
17823TIP3   OH274883   4.918   4.305   4.515
17823TIP3    H174884   4.833   4.307   4.559
17823TIP3    H274885   4.916   4.380   4.455
17824TIP3   OH274886   2.495   2.701   6.091
17824TIP3    H174887   2.536   2.782   6.062
17824TIP3    H274888   2.546   2.674   6.167
17825TIP3   OH274889   5.670   4.991  11.248
17825TIP3    H174890   5.732   4.953  11.186
17825TIP3    H274891   5.584   4.969  11.212
17826TIP3   OH274892   3.416   1.721   4.950
17826TIP3    H174893   3.356   1.707   5.024
17826TIP3    H274894   3.497   1.753   4.990
17827TIP3   OH274895   1.394   0.546  17.031
17827TIP3    H174896   1.360   0.468  16.989
17827TIP3    H274897   1.451   0.513  17.100
17828TIP3   OH274898   6.427   5.004   3.563
17828TIP3    H174899   6.444   4.911   3.547
17828TIP3    H274900   6.334   5.015   3.543
17829TIP3   OH274901   0.707   2.526   5.848
17829TIP3    H174902   0.644   2.455   5.853
17829TIP3    H274903   0.776   2.501   5.909
17830TIP3   OH274904   5.964   4.219   1.073
17830TIP3    H174905   5.978   4.156   1.002
17830TIP3    H274906   5.916   4.291   1.032
17831TIP3   OH274907   4.536   5.835  14.156
17831TIP3    H174908   4.524   5.853  14.249
17831TIP3    H274909   4.586   5.910  14.123
17832TIP3   OH274910   4.722   2.243   0.197
17832TIP3    H174911   4.679   2.297   0.263
17832TIP3    H274912   4.808   2.225   0.234
17833TIP3   OH274913   1.077   6.399  16.638
17833TIP3    H174914   1.007   6.368  16.580
17833TIP3    H274915   1.043   6.384  16.727
17834TIP3   OH274916   2.830   3.409   4.020
17834TIP3    H174917   2.818   3.459   4.100
17834TIP3    H274918   2.853   3.321   4.050
17835TIP3   OH274919   1.826   3.965   1.230
17835TIP3    H174920   1.823   3.904   1.304
17835TIP3    H274921   1.742   3.952   1.185
17836TIP3   OH274922   3.495   4.665  14.811
17836TIP3    H174923   3.459   4.586  14.851
17836TIP3    H274924   3.579   4.637  14.775
17837TIP3   OH274925   1.726   4.787  15.324
17837TIP3    H174926   1.678   4.775  15.405
17837TIP3    H274927   1.798   4.723  15.329
17838TIP3   OH274928   2.410   0.756   2.990
17838TIP3    H174929   2.401   0.663   3.011
17838TIP3    H274930   2.329   0.779   2.946
17839TIP3   OH274931   6.207   4.741   3.052
17839TIP3    H174932   6.285   4.779   3.012
17839TIP3    H274933   6.215   4.647   3.038
17840TIP3   OH274934   3.695   0.432   2.015
17840TIP3    H174935   3.721   0.486   2.090
17840TIP3    H274936   3.660   0.495   1.952
17841TIP3   OH274937   2.719   1.392   2.145
17841TIP3    H174938   2.690   1.309   2.107
17841TIP3    H274939   2.752   1.369   2.232
17842TIP3   OH274940   1.659   2.019  13.744
17842TIP3    H174941   1.752   1.998  13.747
17842TIP3    H274942   1.651   2.082  13.673
17843TIP3   OH274943   5.857   1.512  15.485
17843TIP3    H174944   5.904   1.448  15.538
17843TIP3    H274945   5.765   1.496  15.504
17844TIP3   OH274946   1.665   2.909   0.333
17844TIP3    H174947   1.679   2.817   0.312
17844TIP3    H274948   1.686   2.956   0.253
17845TIP3   OH274949   2.782   4.702   5.451
17845TIP3    H174950   2.726   4.777   5.431
17845TIP3    H274951   2.789   4.703   5.547
17846TIP3   OH274952   6.092   1.028  15.421
17846TIP3    H174953   6.163   1.091  15.422
17846TIP3    H274954   6.099   0.986  15.335
17847TIP3   OH274955   6.264   5.466   1.270
17847TIP3    H174956   6.188   5.434   1.221
17847TIP3    H274957   6.232   5.481   1.358
17848TIP3   OH274958   5.382   4.555   5.869
17848TIP3    H174959   5.466   4.596   5.886
17848TIP3    H274960   5.346   4.602   5.794
17849TIP3   OH274961   2.486   3.630   0.007
17849TIP3    H174962   2.432   3.580  -0.054
17849TIP3    H274963   2.424   3.676   0.063
17850TIP3   OH274964   2.490   5.223   1.636
17850TIP3    H174965   2.463   5.293   1.577
17850TIP3    H274966   2.408   5.191   1.675
17851TIP3   OH274967   3.314   6.770   5.238
17851TIP3    H174968   3.337   6.682   5.269
17851TIP3    H274969   3.383   6.826   5.273
17852TIP3   OH274970   6.768   3.744  12.425
17852TIP3    H174971   6.786   3.678  12.358
17852TIP3    H274972   6.804   3.825  12.390
17853TIP3   OH274973   2.263   5.727  13.415
17853TIP3    H174974   2.245   5.808  13.369
17853TIP3    H274975   2.177   5.689  13.431
17854TIP3   OH274976   4.618   3.111   1.555
17854TIP3    H174977   4.642   3.175   1.622
17854TIP3    H274978   4.571   3.043   1.603
17855TIP3   OH274979   5.682   0.777   5.196
17855TIP3    H174980   5.730   0.827   5.129
17855TIP3    H274981   5.736   0.700   5.212
17856TIP3   OH274982   5.502   2.773   5.231
17856TIP3    H174983   5.480   2.680   5.238
17856TIP3    H274984   5.545   2.793   5.314
17857TIP3   OH274985   2.528   6.761  13.577
17857TIP3    H174986   2.560   6.677  13.611
17857TIP3    H274987   2.579   6.827  13.623
17858TIP3   OH274988   0.314   5.170  11.736
17858TIP3    H174989   0.375   5.243  11.749
17858TIP3    H274990   0.293   5.140  11.825
17859TIP3   OH274991   1.940   6.428   0.698
17859TIP3    H174992   1.939   6.342   0.656
17859TIP3    H274993   1.946   6.490   0.625
17860TIP3   OH274994   1.382   1.291  16.041
17860TIP3    H174995   1.350   1.369  15.996
17860TIP3    H274996   1.319   1.223  16.018
17861TIP3   OH274997   2.406   0.653   4.181
17861TIP3    H174998   2.460   0.733   4.181
17861TIP3    H274999   2.377   0.645   4.272
17862TIP3   OH275000   1.219   2.321   2.338
17862TIP3    H175001   1.156   2.251   2.355
17862TIP3    H275002   1.173   2.380   2.277
17863TIP3   OH275003   5.113   5.565  15.489
17863TIP3    H175004   5.095   5.510  15.565
17863TIP3    H275005   5.175   5.631  15.521
17864TIP3   OH275006   0.394   2.965   3.911
17864TIP3    H175007   0.428   2.902   3.847
17864TIP3    H275008   0.362   3.038   3.858
17865TIP3   OH275009   2.129   1.082   6.421
17865TIP3    H175010   2.134   1.056   6.513
17865TIP3    H275011   2.204   1.039   6.380
17866TIP3   OH275012   2.265   5.477   0.173
17866TIP3    H175013   2.195   5.475   0.108
17866TIP3    H275014   2.345   5.458   0.122
17867TIP3   OH275015   5.641   0.614  17.084
17867TIP3    H175016   5.685   0.586  17.004
17867TIP3    H275017   5.552   0.635  17.057
17868TIP3   OH275018   0.404   4.025   3.431
17868TIP3    H175019   0.487   3.979   3.442
17868TIP3    H275020   0.392   4.032   3.336
17869TIP3   OH275021   4.981   6.131   4.985
17869TIP3    H175022   5.061   6.161   4.941
17869TIP3    H275023   4.982   6.036   4.974
17870TIP3   OH275024   4.835   1.961   4.128
17870TIP3    H175025   4.851   2.054   4.145
17870TIP3    H275026   4.866   1.917   4.207
17871TIP3   OH275027   5.887   6.725  10.643
17871TIP3    H175028   5.901   6.639  10.604
17871TIP3    H275029   5.858   6.707  10.732
17872TIP3   OH275030   0.042   4.828  11.961
17872TIP3    H175031   0.046   4.763  11.891
17872TIP3    H275032  -0.016   4.896  11.927
17873TIP3   OH275033   3.781   3.408  15.054
17873TIP3    H175034   3.702   3.462  15.049
17873TIP3    H275035   3.801   3.387  14.962
17874TIP3   OH275036   3.321   4.750  15.665
17874TIP3    H175037   3.264   4.826  15.674
17874TIP3    H275038   3.325   4.712  15.753
17875TIP3   OH275039   1.124   5.211  11.859
17875TIP3    H175040   1.148   5.285  11.804
17875TIP3    H275041   1.193   5.207  11.926
17876TIP3   OH275042   0.371   2.672  14.703
17876TIP3    H175043   0.391   2.722  14.623
17876TIP3    H275044   0.284   2.636  14.687
17877TIP3   OH275045   1.319   1.996  12.019
17877TIP3    H175046   1.351   2.022  11.932
17877TIP3    H275047   1.249   2.058  12.038
17878TIP3   OH275048   3.870   4.992  12.251
17878TIP3    H175049   3.850   4.917  12.195
17878TIP3    H275050   3.958   4.973  12.286
17879TIP3   OH275051   3.479   2.629   5.172
17879TIP3    H175052   3.512   2.674   5.249
17879TIP3    H275053   3.536   2.553   5.162
17880TIP3   OH275054   1.851   2.150  17.125
17880TIP3    H175055   1.931   2.202  17.115
17880TIP3    H275056   1.843   2.137  17.219
17881TIP3   OH275057   3.658   5.662  14.829
17881TIP3    H175058   3.737   5.612  14.807
17881TIP3    H275059   3.586   5.605  14.803
17882TIP3   OH275060   3.572   3.602  12.333
17882TIP3    H175061   3.569   3.506  12.331
17882TIP3    H275062   3.660   3.623  12.300
17883TIP3   OH275063   1.401   6.376  13.536
17883TIP3    H175064   1.413   6.364  13.630
17883TIP3    H275065   1.307   6.389  13.525
17884TIP3   OH275066   3.517   2.256   0.358
17884TIP3    H175067   3.588   2.254   0.422
17884TIP3    H275068   3.506   2.164   0.332
17885TIP3   OH275069   0.787   0.699  16.296
17885TIP3    H175070   0.847   0.727  16.227
17885TIP3    H275071   0.734   0.777  16.315
17886TIP3   OH275072   0.705   1.620   4.992
17886TIP3    H175073   0.738   1.707   4.973
17886TIP3    H275074   0.750   1.593   5.073
17887TIP3   OH275075   5.813   1.998   2.488
17887TIP3    H175076   5.781   2.065   2.428
17887TIP3    H275077   5.764   2.013   2.569
17888TIP3   OH275078   6.529   5.622  13.314
17888TIP3    H175079   6.556   5.550  13.257
17888TIP3    H275080   6.610   5.663  13.342
17889TIP3   OH275081   1.438   5.280   3.877
17889TIP3    H175082   1.423   5.351   3.939
17889TIP3    H275083   1.351   5.254   3.848
17890TIP3   OH275084   5.405   5.008   0.422
17890TIP3    H175085   5.326   4.957   0.440
17890TIP3    H275086   5.400   5.027   0.328
17891TIP3   OH275087   6.218   2.316   5.408
17891TIP3    H175088   6.212   2.251   5.478
17891TIP3    H275089   6.295   2.368   5.431
17892TIP3   OH275090   6.252   1.204  15.860
17892TIP3    H175091   6.266   1.136  15.795
17892TIP3    H275092   6.322   1.267  15.843
17893TIP3   OH275093   5.798   6.345   3.241
17893TIP3    H175094   5.886   6.321   3.212
17893TIP3    H275095   5.790   6.304   3.327
17894TIP3   OH275096   3.681   0.326  11.097
17894TIP3    H175097   3.658   0.262  11.030
17894TIP3    H275098   3.709   0.403  11.049
17895TIP3   OH275099   2.911   3.673  12.262
17895TIP3    H175100   2.934   3.581  12.277
17895TIP3    H275101   2.868   3.673  12.176
17896TIP3   OH275102   2.829   2.668  11.240
17896TIP3    H175103   2.916   2.698  11.217
17896TIP3    H275104   2.835   2.646  11.333
17897TIP3   OH275105   6.608   3.940   4.487
17897TIP3    H175106   6.533   3.881   4.482
17897TIP3    H275107   6.573   4.025   4.460
17898TIP3   OH275108   3.835   5.419   1.380
17898TIP3    H175109   3.806   5.392   1.294
17898TIP3    H275110   3.789   5.361   1.441
17899TIP3   OH275111   4.844   0.741  16.747
17899TIP3    H175112   4.901   0.680  16.794
17899TIP3    H275113   4.806   0.688  16.677
17900TIP3   OH275114   2.311   0.964  16.778
17900TIP3    H175115   2.309   1.015  16.697
17900TIP3    H275116   2.219   0.960  16.806
17901TIP3   OH275117   3.437   3.423   2.408
17901TIP3    H175118   3.424   3.358   2.339
17901TIP3    H275119   3.464   3.502   2.363
17902TIP3   OH275120   0.340   1.844  12.253
17902TIP3    H175121   0.379   1.925  12.287
17902TIP3    H275122   0.345   1.854  12.158
17903TIP3   OH275123   1.003   4.006   3.896
17903TIP3    H175124   1.026   4.098   3.881
17903TIP3    H275125   0.910   4.009   3.921
17904TIP3   OH275126   4.707   1.729   4.788
17904TIP3    H175127   4.785   1.692   4.745
17904TIP3    H275128   4.688   1.669   4.860
17905TIP3   OH275129   2.402   1.890   0.559
17905TIP3    H175130   2.366   1.862   0.474
17905TIP3    H275131   2.381   1.818   0.618
17906TIP3   OH275132   6.437   2.169  15.575
17906TIP3    H175133   6.483   2.104  15.627
17906TIP3    H275134   6.490   2.248  15.583
17907TIP3   OH275135   6.169   6.298  14.819
17907TIP3    H175136   6.228   6.247  14.763
17907TIP3    H275137   6.172   6.386  14.783
17908TIP3   OH275138   5.138   0.919  15.340
17908TIP3    H175139   5.091   0.877  15.412
17908TIP3    H275140   5.219   0.869  15.333
17909TIP3   OH275141   3.539   0.280   6.006
17909TIP3    H175142   3.528   0.371   5.980
17909TIP3    H275143   3.606   0.282   6.075
17910TIP3   OH275144   4.337   5.925   0.125
17910TIP3    H175145   4.428   5.947   0.143
17910TIP3    H275146   4.328   5.835   0.155
17911TIP3   OH275147   3.789   4.666  14.698
17911TIP3    H175148   3.838   4.699  14.623
17911TIP3    H275149   3.790   4.571  14.689
17912TIP3   OH275150   3.417   4.703   2.982
17912TIP3    H175151   3.362   4.772   3.020
17912TIP3    H275152   3.361   4.661   2.918
17913TIP3   OH275153   5.569   0.866  14.447
17913TIP3    H175154   5.498   0.834  14.391
17913TIP3    H275155   5.644   0.873  14.388
17914TIP3   OH275156   6.367   0.485  11.873
17914TIP3    H175157   6.399   0.396  11.888
17914TIP3    H275158   6.313   0.477  11.795
17915TIP3   OH275159   1.516   1.793   4.699
17915TIP3    H175160   1.430   1.751   4.694
17915TIP3    H275161   1.543   1.802   4.607
17916TIP3   OH275162   5.993   3.871   2.543
17916TIP3    H175163   5.923   3.867   2.478
17916TIP3    H275164   6.071   3.842   2.497
17917TIP3   OH275165   1.184   0.346   4.767
17917TIP3    H175166   1.242   0.390   4.705
17917TIP3    H275167   1.242   0.305   4.830
17918TIP3   OH275168   3.426   1.374   2.978
17918TIP3    H175169   3.491   1.386   3.047
17918TIP3    H275170   3.350   1.337   3.022
17919TIP3   OH275171   4.001   3.099   1.869
17919TIP3    H175172   3.994   3.192   1.847
17919TIP3    H275173   3.914   3.076   1.902
17920TIP3   OH275174   0.162   5.371   1.357
17920TIP3    H175175   0.133   5.449   1.404
17920TIP3    H275176   0.235   5.337   1.409
17921TIP3   OH275177   2.499   0.666  14.201
17921TIP3    H175178   2.518   0.588  14.149
17921TIP3    H275179   2.474   0.732  14.136
17922TIP3   OH275180   1.710   3.842  13.475
17922TIP3    H175181   1.692   3.748  13.474
17922TIP3    H275182   1.644   3.878  13.534
17923TIP3   OH275183   3.750   1.880   4.865
17923TIP3    H175184   3.796   1.880   4.949
17923TIP3    H275185   3.790   1.951   4.815
17924TIP3   OH275186   2.011   2.096  14.113
17924TIP3    H175187   1.959   2.176  14.105
17924TIP3    H275188   2.087   2.110  14.057
17925TIP3   OH275189   1.754   1.546  12.882
17925TIP3    H175190   1.833   1.596  12.861
17925TIP3    H275191   1.697   1.610  12.926
17926TIP3   OH275192   4.680   3.787  10.835
17926TIP3    H175193   4.590   3.811  10.858
17926TIP3    H275194   4.683   3.692  10.845
17927TIP3   OH275195   3.432   0.046   1.327
17927TIP3    H175196   3.414  -0.027   1.386
17927TIP3    H275197   3.509   0.089   1.364
17928TIP3   OH275198   5.973   6.571   2.780
17928TIP3    H175199   5.947   6.615   2.860
17928TIP3    H275200   5.954   6.478   2.796
17929TIP3   OH275201   0.916   6.352   0.321
17929TIP3    H175202   0.894   6.265   0.355
17929TIP3    H275203   0.948   6.336   0.232
17930TIP3   OH275204   6.149   2.312  14.497
17930TIP3    H175205   6.193   2.390  14.463
17930TIP3    H275206   6.180   2.305  14.587
17931TIP3   OH275207   3.551   2.782  11.230
17931TIP3    H175208   3.478   2.724  11.208
17931TIP3    H275209   3.582   2.815  11.146
17932TIP3   OH275210   1.979   1.294  12.049
17932TIP3    H175211   1.968   1.359  11.980
17932TIP3    H275212   1.986   1.346  12.129
17933TIP3   OH275213   6.316   4.839  15.149
17933TIP3    H175214   6.276   4.784  15.216
17933TIP3    H275215   6.387   4.786  15.113
17934TIP3   OH275216   6.099   0.824  17.202
17934TIP3    H175217   6.183   0.856  17.233
17934TIP3    H275218   6.046   0.814  17.281
17935TIP3   OH275219   2.869   6.359   4.239
17935TIP3    H175220   2.788   6.336   4.194
17935TIP3    H275221   2.878   6.453   4.227
17936TIP3   OH275222   1.913   4.661  10.784
17936TIP3    H175223   1.979   4.609  10.828
17936TIP3    H275224   1.839   4.601  10.771
17937TIP3   OH275225   3.961   0.767  17.090
17937TIP3    H175226   3.950   0.679  17.055
17937TIP3    H275227   3.986   0.820  17.015
17938TIP3   OH275228   6.697   1.025  13.899
17938TIP3    H175229   6.780   1.068  13.920
17938TIP3    H275230   6.708   0.935  13.930
17939TIP3   OH275231   4.010   1.466   0.241
17939TIP3    H175232   4.084   1.405   0.245
17939TIP3    H275233   3.938   1.419   0.284
17940TIP3   OH275234   6.425   3.655  13.471
17940TIP3    H175235   6.481   3.702  13.410
17940TIP3    H275236   6.440   3.562  13.451
17941TIP3   OH275237   3.912   4.277   1.421
17941TIP3    H175238   3.817   4.290   1.411
17941TIP3    H275239   3.933   4.315   1.506
17942TIP3   OH275240   3.474   1.879   1.401
17942TIP3    H175241   3.526   1.809   1.440
17942TIP3    H275242   3.412   1.835   1.344
17943TIP3   OH275243   0.271   4.323   5.587
17943TIP3    H175244   0.284   4.350   5.496
17943TIP3    H275245   0.357   4.333   5.627
17944TIP3   OH275246   1.984   6.090  13.093
17944TIP3    H175247   1.894   6.113  13.070
17944TIP3    H275248   2.026   6.174  13.110
17945TIP3   OH275249   3.487   0.318  16.718
17945TIP3    H175250   3.409   0.351  16.763
17945TIP3    H275251   3.527   0.395  16.678
17946TIP3   OH275252   5.347   2.109  13.057
17946TIP3    H175253   5.262   2.129  13.018
17946TIP3    H275254   5.365   2.019  13.030
17947TIP3   OH275255   5.768   0.277   4.723
17947TIP3    H175256   5.755   0.191   4.763
17947TIP3    H275257   5.683   0.298   4.683
17948TIP3   OH275258   6.215   1.799  15.029
17948TIP3    H175259   6.141   1.852  15.059
17948TIP3    H275260   6.233   1.740  15.102
17949TIP3   OH275261   1.952   0.633   5.902
17949TIP3    H175262   1.967   0.554   5.954
17949TIP3    H275263   1.905   0.693   5.961
17950TIP3   OH275264   6.765   1.816  11.914
17950TIP3    H175265   6.774   1.909  11.934
17950TIP3    H275266   6.854   1.785  11.901
17951TIP3   OH275267   0.572   3.401  12.797
17951TIP3    H175268   0.583   3.434  12.708
17951TIP3    H275269   0.549   3.309  12.787
17952TIP3   OH275270   4.180   4.177  14.604
17952TIP3    H175271   4.121   4.249  14.584
17952TIP3    H275272   4.266   4.207  14.574
17953TIP3   OH275273   3.472   2.542   0.872
17953TIP3    H175274   3.412   2.567   0.942
17953TIP3    H275275   3.559   2.562   0.906
17954TIP3   OH275276   6.134   4.282   1.270
17954TIP3    H175277   6.109   4.211   1.329
17954TIP3    H275278   6.079   4.270   1.193
17955TIP3   OH275279   1.469   2.950   2.575
17955TIP3    H175280   1.439   3.000   2.499
17955TIP3    H275281   1.397   2.890   2.595
17956TIP3   OH275282   3.858   0.331   1.085
17956TIP3    H175283   3.899   0.264   1.139
17956TIP3    H275284   3.811   0.387   1.147
17957TIP3   OH275285   1.280   0.223   3.131
17957TIP3    H175286   1.224   0.174   3.071
17957TIP3    H275287   1.324   0.156   3.183
17958TIP3   OH275288   0.891   4.654   5.232
17958TIP3    H175289   0.982   4.640   5.205
17958TIP3    H275290   0.844   4.576   5.201
17959TIP3   OH275291   6.738   3.727  15.713
17959TIP3    H175292   6.723   3.737  15.619
17959TIP3    H275293   6.658   3.762  15.753
17960TIP3   OH275294   6.554   4.171  16.137
17960TIP3    H175295   6.636   4.220  16.128
17960TIP3    H275296   6.573   4.105  16.203
17961TIP3   OH275297   0.324   5.089  15.854
17961TIP3    H175298   0.307   5.004  15.814
17961TIP3    H275299   0.247   5.105  15.909
17962TIP3   OH275300   2.530   4.240  11.521
17962TIP3    H175301   2.619   4.213  11.545
17962TIP3    H275302   2.527   4.227  11.426
17963TIP3   OH275303   4.683   1.836  14.369
17963TIP3    H175304   4.706   1.929  14.361
17963TIP3    H275305   4.741   1.802  14.437
17964TIP3   OH275306   2.594   5.601  13.610
17964TIP3    H175307   2.565   5.690  13.634
17964TIP3    H275308   2.652   5.614  13.535
17965TIP3   OH275309   2.385   2.884  14.596
17965TIP3    H175310   2.305   2.848  14.634
17965TIP3    H275311   2.451   2.816  14.612
17966TIP3   OH275312   5.509   6.718  16.394
17966TIP3    H175313   5.572   6.655  16.428
17966TIP3    H275314   5.554   6.803  16.399
17967TIP3   OH275315   6.381   3.331  16.657
17967TIP3    H175316   6.432   3.312  16.736
17967TIP3    H275317   6.326   3.254  16.645
17968TIP3   OH275318   1.972   6.669   3.100
17968TIP3    H175319   2.057   6.628   3.116
17968TIP3    H275320   1.914   6.629   3.164
17969TIP3   OH275321   0.920   3.680   2.985
17969TIP3    H175322   0.983   3.616   2.952
17969TIP3    H275323   0.903   3.738   2.910
17970TIP3   OH275324   0.175   5.201  15.179
17970TIP3    H175325   0.082   5.211  15.200
17970TIP3    H275326   0.221   5.245  15.250
17971TIP3   OH275327   5.599   0.249  11.583
17971TIP3    H175328   5.508   0.278  11.579
17971TIP3    H275329   5.594   0.154  11.578
17972TIP3   OH275330   2.171   1.790  15.171
17972TIP3    H175331   2.166   1.732  15.247
17972TIP3    H275332   2.203   1.735  15.100
17973TIP3   OH275333   2.521   0.901   1.950
17973TIP3    H175334   2.552   0.810   1.953
17973TIP3    H275335   2.431   0.894   1.919
17974TIP3   OH275336   5.663   0.024   2.129
17974TIP3    H175337   5.723  -0.038   2.171
17974TIP3    H275338   5.653  -0.009   2.040
17975TIP3   OH275339   3.120   4.405   6.114
17975TIP3    H175340   3.151   4.332   6.169
17975TIP3    H275341   3.102   4.475   6.176
17976TIP3   OH275342   2.875   5.047   4.618
17976TIP3    H175343   2.908   5.032   4.706
17976TIP3    H275344   2.781   5.062   4.630
17977TIP3   OH275345   6.292   6.402   2.526
17977TIP3    H175346   6.364   6.352   2.565
17977TIP3    H275347   6.314   6.407   2.433
17978TIP3   OH275348   5.921   6.239  14.280
17978TIP3    H175349   5.875   6.290  14.214
17978TIP3    H275350   5.971   6.304  14.330
17979TIP3   OH275351   6.384   6.433   4.263
17979TIP3    H175352   6.326   6.483   4.320
17979TIP3    H275353   6.405   6.493   4.192
17980TIP3   OH275354   1.691   4.466   4.016
17980TIP3    H175355   1.668   4.455   4.108
17980TIP3    H275356   1.698   4.560   4.003
17981TIP3   OH275357   1.854   2.192  10.618
17981TIP3    H175358   1.837   2.138  10.541
17981TIP3    H275359   1.949   2.186  10.630
17982TIP3   OH275360   5.245   1.033   5.671
17982TIP3    H175361   5.317   1.096   5.661
17982TIP3    H275362   5.288   0.950   5.693
17983TIP3   OH275363   0.729   3.781   3.792
17983TIP3    H175364   0.658   3.824   3.745
17983TIP3    H275365   0.758   3.847   3.856
17984TIP3   OH275366   2.254   1.293   3.343
17984TIP3    H175367   2.286   1.382   3.359
17984TIP3    H275368   2.321   1.253   3.288
17985TIP3   OH275369   5.639   2.832   0.251
17985TIP3    H175370   5.612   2.907   0.303
17985TIP3    H275371   5.707   2.790   0.303
17986TIP3   OH275372   5.196   6.537  13.846
17986TIP3    H175373   5.139   6.510  13.917
17986TIP3    H275374   5.274   6.572  13.889
17987TIP3   OH275375   0.589   2.311  13.285
17987TIP3    H175376   0.601   2.329  13.192
17987TIP3    H275377   0.654   2.366  13.329
17988TIP3   OH275378   1.052   2.511  11.451
17988TIP3    H175379   1.039   2.439  11.389
17988TIP3    H275380   1.086   2.583  11.398
17989TIP3   OH275381   0.533   5.758   0.449
17989TIP3    H175382   0.485   5.677   0.468
17989TIP3    H275383   0.533   5.765   0.354
17990TIP3   OH275384   4.415   6.092   2.736
17990TIP3    H175385   4.322   6.086   2.761
17990TIP3    H275386   4.419   6.050   2.651
17991TIP3   OH275387   5.225   2.723   2.270
17991TIP3    H175388   5.134   2.718   2.238
17991TIP3    H275389   5.256   2.633   2.268
17992TIP3   OH275390   5.309   5.505  11.831
17992TIP3    H175391   5.229   5.453  11.841
17992TIP3    H275392   5.347   5.477  11.748
17993TIP3   OH275393   1.856   3.552   3.411
17993TIP3    H175394   1.841   3.601   3.492
17993TIP3    H275395   1.921   3.486   3.434
17994TIP3   OH275396   0.508   4.840   5.521
17994TIP3    H175397   0.461   4.798   5.593
17994TIP3    H275398   0.529   4.769   5.460
17995TIP3   OH275399   0.687   6.581  12.216
17995TIP3    H175400   0.781   6.565  12.214
17995TIP3    H275401   0.661   6.559  12.305
17996TIP3   OH275402   3.295   3.944   6.568
17996TIP3    H175403   3.207   3.964   6.536
17996TIP3    H275404   3.314   3.857   6.534
17997TIP3   OH275405   5.158   6.519   3.178
17997TIP3    H175406   5.067   6.505   3.204
17997TIP3    H275407   5.152   6.576   3.101
17998TIP3   OH275408   5.896   4.448   5.829
17998TIP3    H175409   5.988   4.456   5.854
17998TIP3    H275410   5.880   4.354   5.830
17999TIP3   OH275411   3.675   3.279  11.425
17999TIP3    H175412   3.630   3.196  11.412
17999TIP3    H275413   3.657   3.330  11.346
18000TIP3   OH275414   5.408   6.724   5.040
18000TIP3    H175415   5.393   6.738   5.133
18000TIP3    H275416   5.502   6.710   5.032
18001TIP3   OH275417   5.670   3.165   0.705
18001TIP3    H175418   5.576   3.176   0.718
18001TIP3    H275419   5.702   3.254   0.687
18002TIP3   OH275420   0.421   5.871  11.980
18002TIP3    H175421   0.341   5.825  12.004
18002TIP3    H275422   0.452   5.827  11.901
18003TIP3   OH275423   5.784   3.093  11.172
18003TIP3    H175424   5.798   3.007  11.131
18003TIP3    H275425   5.722   3.076  11.243
18004TIP3   OH275426   5.050   6.151   0.343
18004TIP3    H175427   5.010   6.079   0.293
18004TIP3    H275428   5.142   6.148   0.319
18005TIP3   OH275429   3.451   5.937   4.604
18005TIP3    H175430   3.358   5.941   4.582
18005TIP3    H275431   3.496   5.959   4.522
18006TIP3   OH275432   0.995   1.564   4.336
18006TIP3    H175433   1.025   1.546   4.247
18006TIP3    H275434   0.905   1.532   4.339
18007TIP3   OH275435   2.481   4.184   5.355
18007TIP3    H175436   2.540   4.259   5.351
18007TIP3    H275437   2.537   4.108   5.337
18008TIP3   OH275438   0.033   4.693   0.729
18008TIP3    H175439  -0.036   4.719   0.790
18008TIP3    H275440   0.112   4.737   0.762
18009TIP3   OH275441   4.577   1.658   4.332
18009TIP3    H175442   4.547   1.744   4.300
18009TIP3    H275443   4.498   1.605   4.336
18010TIP3   OH275444   1.277   6.503  16.875
18010TIP3    H175445   1.241   6.524  16.788
18010TIP3    H275446   1.324   6.421  16.862
18011TIP3   OH275447   3.500   2.248   3.079
18011TIP3    H175448   3.537   2.245   3.167
18011TIP3    H275449   3.445   2.326   3.078
18012TIP3   OH275450   4.401   1.905  12.818
18012TIP3    H175451   4.465   1.931  12.884
18012TIP3    H275452   4.433   1.942  12.736
18013TIP3   OH275453   2.339   2.545  15.522
18013TIP3    H175454   2.422   2.509  15.552
18013TIP3    H275455   2.359   2.582  15.436
18014TIP3   OH275456   1.486   3.578   0.637
18014TIP3    H175457   1.529   3.505   0.592
18014TIP3    H275458   1.552   3.611   0.698
18015TIP3   OH275459   3.543   5.555   2.327
18015TIP3    H175460   3.616   5.611   2.354
18015TIP3    H275461   3.517   5.589   2.241
18016TIP3   OH275462   1.884   2.218   5.471
18016TIP3    H175463   1.926   2.255   5.393
18016TIP3    H275464   1.862   2.294   5.524
18017TIP3   OH275465   6.332   4.632   5.971
18017TIP3    H175466   6.306   4.615   5.880
18017TIP3    H275467   6.272   4.579   6.023
18018TIP3   OH275468   5.123   0.582   2.199
18018TIP3    H175469   5.169   0.589   2.283
18018TIP3    H275470   5.101   0.672   2.176
18019TIP3   OH275471   4.732   4.034  14.008
18019TIP3    H175472   4.777   4.100  13.955
18019TIP3    H275473   4.678   4.085  14.069
18020TIP3   OH275474   5.866   1.962   5.799
18020TIP3    H175475   5.784   1.942   5.754
18020TIP3    H275476   5.929   1.980   5.729
18021TIP3   OH275477   4.024   3.855  16.384
18021TIP3    H175478   3.967   3.861  16.307
18021TIP3    H275479   3.964   3.839  16.457
18022TIP3   OH275480   1.338   1.719  11.337
18022TIP3    H175481   1.387   1.698  11.417
18022TIP3    H275482   1.367   1.653  11.273
18023TIP3   OH275483   0.246   4.325  11.429
18023TIP3    H175484   0.165   4.342  11.382
18023TIP3    H275485   0.312   4.316  11.360
18024TIP3   OH275486   1.170   2.877  12.712
18024TIP3    H175487   1.205   2.788  12.703
18024TIP3    H275488   1.153   2.905  12.622
18025TIP3   OH275489   0.424   6.746  12.269
18025TIP3    H175490   0.460   6.727  12.356
18025TIP3    H275491   0.399   6.661  12.235
18026TIP3   OH275492   1.105   4.958  17.097
18026TIP3    H175493   1.075   4.932  17.183
18026TIP3    H275494   1.200   4.967  17.106
18027TIP3   OH275495   6.368   5.708   0.876
18027TIP3    H175496   6.415   5.653   0.813
18027TIP3    H275497   6.295   5.745   0.826
18028TIP3   OH275498   0.395   3.194  17.197
18028TIP3    H175499   0.303   3.209  17.176
18028TIP3    H275500   0.434   3.165  17.114
18029TIP3   OH275501   3.816   0.266  16.229
18029TIP3    H175502   3.833   0.184  16.183
18029TIP3    H275503   3.721   0.273  16.231
18030TIP3   OH275504   3.657   3.032   6.569
18030TIP3    H175505   3.610   2.950   6.579
18030TIP3    H275506   3.633   3.064   6.482
18031TIP3   OH275507   1.488   4.812   1.225
18031TIP3    H175508   1.566   4.854   1.263
18031TIP3    H275509   1.415   4.860   1.263
18032TIP3   OH275510   0.891   4.223   0.652
18032TIP3    H175511   0.910   4.192   0.740
18032TIP3    H275512   0.972   4.264   0.622
18033TIP3   OH275513   6.090   2.804   4.489
18033TIP3    H175514   6.028   2.876   4.478
18033TIP3    H275515   6.073   2.770   4.577
18034TIP3   OH275516   4.437   3.488  16.252
18034TIP3    H175517   4.434   3.546  16.176
18034TIP3    H275518   4.503   3.423  16.229
18035TIP3   OH275519   0.490   0.795   0.381
18035TIP3    H175520   0.560   0.859   0.391
18035TIP3    H275521   0.417   0.844   0.342
18036TIP3   OH275522   5.956   1.024   5.844
18036TIP3    H175523   5.879   0.985   5.885
18036TIP3    H275524   5.982   1.095   5.904
18037TIP3   OH275525   3.592   3.437  11.711
18037TIP3    H175526   3.634   3.392  11.638
18037TIP3    H275527   3.628   3.395  11.789
18038TIP3   OH275528   1.550   0.758  11.420
18038TIP3    H175529   1.565   0.814  11.343
18038TIP3    H275530   1.635   0.716  11.436
18039TIP3   OH275531   3.971   5.756  15.624
18039TIP3    H175532   4.031   5.810  15.572
18039TIP3    H275533   4.020   5.676  15.642
18040TIP3   OH275534   0.297   0.854  15.405
18040TIP3    H175535   0.317   0.761  15.398
18040TIP3    H275536   0.243   0.873  15.328
18041TIP3   OH275537   1.712   0.487  15.373
18041TIP3    H175538   1.625   0.479  15.333
18041TIP3    H275539   1.695   0.493  15.467
18042TIP3   OH275540   0.380   4.492   6.639
18042TIP3    H175541   0.339   4.407   6.621
18042TIP3    H275542   0.461   4.470   6.685
18043TIP3   OH275543   2.323   1.537   2.585
18043TIP3    H175544   2.313   1.467   2.520
18043TIP3    H275545   2.242   1.587   2.578
18044TIP3   OH275546   5.127   3.051   4.664
18044TIP3    H175547   5.147   3.115   4.733
18044TIP3    H275548   5.043   3.014   4.689
18045TIP3   OH275549   2.681   5.855   3.629
18045TIP3    H175550   2.588   5.839   3.611
18045TIP3    H275551   2.723   5.850   3.544
18046TIP3   OH275552   0.362   4.782  10.449
18046TIP3    H175553   0.317   4.860  10.483
18046TIP3    H275554   0.309   4.755  10.374
18047TIP3   OH275555   0.855   5.318   5.111
18047TIP3    H175556   0.905   5.330   5.191
18047TIP3    H275557   0.807   5.400   5.100
18048TIP3   OH275558   5.288   3.708  15.640
18048TIP3    H175559   5.340   3.788  15.631
18048TIP3    H275560   5.352   3.637  15.643
18049TIP3   OH275561   1.051   3.371  13.247
18049TIP3    H175562   1.100   3.318  13.185
18049TIP3    H275563   0.982   3.412  13.195
18050TIP3   OH275564   1.243   1.853  13.200
18050TIP3    H175565   1.188   1.813  13.132
18050TIP3    H275566   1.301   1.781  13.228
18051TIP3   OH275567   3.114   1.162  14.057
18051TIP3    H175568   3.147   1.075  14.080
18051TIP3    H275569   3.019   1.152  14.057
18052TIP3   OH275570   4.169   4.844   5.688
18052TIP3    H175571   4.175   4.934   5.654
18052TIP3    H275572   4.255   4.828   5.727
18053TIP3   OH275573   3.099   3.590  13.200
18053TIP3    H175574   3.182   3.568  13.241
18053TIP3    H275575   3.106   3.556  13.111
18054TIP3   OH275576   1.621   2.308   0.663
18054TIP3    H175577   1.535   2.293   0.702
18054TIP3    H275578   1.605   2.367   0.590
18055TIP3   OH275579   5.033   1.291   2.985
18055TIP3    H175580   5.059   1.206   2.949
18055TIP3    H275581   5.046   1.282   3.080
18056TIP3   OH275582   5.672   3.523   3.543
18056TIP3    H175583   5.593   3.468   3.550
18056TIP3    H275584   5.638   3.612   3.539
18057TIP3   OH275585   4.515   5.242  13.041
18057TIP3    H175586   4.542   5.329  13.012
18057TIP3    H275587   4.595   5.201  13.074
18058TIP3   OH275588   5.160   6.267  14.253
18058TIP3    H175589   5.174   6.295  14.344
18058TIP3    H275590   5.235   6.303  14.205
18059TIP3   OH275591   5.966   1.712   3.401
18059TIP3    H175592   5.923   1.651   3.341
18059TIP3    H275593   5.902   1.781   3.416
18060TIP3   OH275594   5.084   6.435  14.820
18060TIP3    H175595   5.099   6.353  14.774
18060TIP3    H275596   5.040   6.410  14.901
18061TIP3   OH275597   1.711   3.557   0.800
18061TIP3    H175598   1.794   3.572   0.755
18061TIP3    H275599   1.736   3.505   0.877
18062TIP3   OH275600   0.075   0.462   0.040
18062TIP3    H175601   0.129   0.510  -0.023
18062TIP3    H275602   0.119   0.474   0.124
18063TIP3   OH275603   2.485   1.074   0.198
18063TIP3    H175604   2.453   1.103   0.284
18063TIP3    H275605   2.427   1.003   0.174
18064TIP3   OH275606   4.342   1.696  13.309
18064TIP3    H175607   4.300   1.734  13.386
18064TIP3    H275608   4.315   1.604  13.309
18065TIP3   OH275609   2.982   1.177   4.054
18065TIP3    H175610   3.007   1.084   4.060
18065TIP3    H275611   3.025   1.218   4.129
18066TIP3   OH275612   4.974   4.049   1.679
18066TIP3    H175613   5.000   4.017   1.765
18066TIP3    H275614   4.911   4.119   1.697
18067TIP3   OH275615   0.381   0.870  12.747
18067TIP3    H175616   0.325   0.885  12.823
18067TIP3    H275617   0.384   0.954  12.701
18068TIP3   OH275618   5.989   6.497   4.818
18068TIP3    H175619   6.064   6.448   4.783
18068TIP3    H275620   5.989   6.476   4.911
18069TIP3   OH275621   2.182   0.065   3.072
18069TIP3    H175622   2.133  -0.013   3.098
18069TIP3    H275623   2.261   0.062   3.126
18070TIP3   OH275624   0.690   4.712   0.375
18070TIP3    H175625   0.718   4.784   0.318
18070TIP3    H275626   0.755   4.710   0.445
18071TIP3   OH275627   5.440   5.784   5.181
18071TIP3    H175628   5.452   5.697   5.221
18071TIP3    H275629   5.432   5.766   5.087
18072TIP3   OH275630   0.564   1.707  13.259
18072TIP3    H175631   0.524   1.706  13.346
18072TIP3    H275632   0.658   1.694  13.276
18073TIP3   OH275633   0.325   0.914  13.920
18073TIP3    H175634   0.325   0.818  13.928
18073TIP3    H275635   0.384   0.943  13.990
18074TIP3   OH275636   3.128   6.756  12.318
18074TIP3    H175637   3.165   6.681  12.272
18074TIP3    H275638   3.122   6.727  12.409
18075TIP3   OH275639   1.187   5.112   4.229
18075TIP3    H175640   1.105   5.146   4.264
18075TIP3    H275641   1.243   5.189   4.222
18076TIP3   OH275642   2.568   5.651   2.471
18076TIP3    H175643   2.635   5.714   2.501
18076TIP3    H275644   2.617   5.570   2.456
18077TIP3   OH275645   0.518   0.368   3.846
18077TIP3    H175646   0.442   0.424   3.833
18077TIP3    H275647   0.506   0.331   3.934
18078TIP3   OH275648   1.640   5.004  16.178
18078TIP3    H175649   1.621   4.913  16.201
18078TIP3    H275650   1.686   4.999  16.095
18079TIP3   OH275651   0.409   0.179   3.171
18079TIP3    H175652   0.343   0.158   3.105
18079TIP3    H275653   0.364   0.238   3.232
18080TIP3   OH275654   3.171   4.965  16.810
18080TIP3    H175655   3.177   5.019  16.889
18080TIP3    H275656   3.109   4.895  16.833
18081TIP3   OH275657   2.681   4.422  12.947
18081TIP3    H175658   2.604   4.440  13.000
18081TIP3    H275659   2.654   4.443  12.857
18082TIP3   OH275660   0.900   5.082  11.420
18082TIP3    H175661   0.864   5.169  11.403
18082TIP3    H275662   0.892   5.036  11.336
18083TIP3   OH275663   6.263   4.065   1.138
18083TIP3    H175664   6.225   4.008   1.205
18083TIP3    H275665   6.239   4.154   1.166
18084TIP3   OH275666   6.153   4.657   0.302
18084TIP3    H175667   6.138   4.731   0.243
18084TIP3    H275668   6.070   4.610   0.305
18085TIP3   OH275669   6.083   1.820   4.203
18085TIP3    H175670   6.146   1.830   4.274
18085TIP3    H275671   6.013   1.767   4.240
18086TIP3   OH275672   1.226   0.053   4.680
18086TIP3    H175673   1.293   0.009   4.733
18086TIP3    H275674   1.215   0.139   4.722
18087TIP3   OH275675   3.363   6.301   4.089
18087TIP3    H175676   3.362   6.389   4.125
18087TIP3    H275677   3.270   6.279   4.077
18088TIP3   OH275678   5.803   3.021   6.509
18088TIP3    H175679   5.763   2.972   6.437
18088TIP3    H275680   5.890   2.984   6.518
18089TIP3   OH275681   3.462   0.978  14.042
18089TIP3    H175682   3.434   1.064  14.011
18089TIP3    H275683   3.394   0.953  14.105
18090TIP3   OH275684   5.234   2.854  11.902
18090TIP3    H175685   5.143   2.837  11.879
18090TIP3    H275686   5.284   2.824  11.825
18091TIP3   OH275687   6.744   1.879  14.698
18091TIP3    H175688   6.750   1.788  14.729
18091TIP3    H275689   6.771   1.875  14.607
18092TIP3   OH275690   3.612   1.350   1.963
18092TIP3    H175691   3.653   1.348   1.876
18092TIP3    H275692   3.528   1.395   1.949
18093TIP3   OH275693   0.703   0.464   3.391
18093TIP3    H175694   0.768   0.535   3.390
18093TIP3    H275695   0.635   0.495   3.451
18094TIP3   OH275696   1.440   5.254   3.212
18094TIP3    H175697   1.470   5.172   3.252
18094TIP3    H275698   1.515   5.284   3.161
18095TIP3   OH275699   5.096   3.360  17.032
18095TIP3    H175700   5.067   3.423  17.098
18095TIP3    H275701   5.050   3.279  17.054
18096TIP3   OH275702   0.385   3.702  17.024
18096TIP3    H175703   0.452   3.767  17.005
18096TIP3    H275704   0.304   3.740  16.991
18097TIP3   OH275705   0.443   4.403  14.953
18097TIP3    H175706   0.362   4.389  14.903
18097TIP3    H275707   0.507   4.345  14.911
18098TIP3   OH275708   6.589   0.803  11.033
18098TIP3    H175709   6.595   0.897  11.014
18098TIP3    H275710   6.573   0.762  10.948
18099TIP3   OH275711   2.435   0.816  12.880
18099TIP3    H175712   2.352   0.820  12.929
18099TIP3    H275713   2.408   0.809  12.789
18100TIP3   OH275714   1.542   1.453   2.506
18100TIP3    H175715   1.528   1.425   2.416
18100TIP3    H275716   1.455   1.462   2.543
18101TIP3   OH275717   1.604   5.547   5.179
18101TIP3    H175718   1.558   5.556   5.096
18101TIP3    H275719   1.653   5.465   5.170
18102TIP3   OH275720   1.946   3.011  12.797
18102TIP3    H175721   2.022   2.956  12.778
18102TIP3    H275722   1.955   3.032  12.890
18103TIP3   OH275723   3.309   3.137  12.420
18103TIP3    H175724   3.378   3.201  12.435
18103TIP3    H275725   3.268   3.164  12.338
18104TIP3   OH275726   2.768   5.256   1.604
18104TIP3    H175727   2.697   5.299   1.652
18104TIP3    H275728   2.725   5.220   1.526
18105TIP3   OH275729   0.231   2.859   2.569
18105TIP3    H175730   0.244   2.780   2.621
18105TIP3    H275731   0.187   2.920   2.628
18106TIP3   OH275732   5.321   0.881  13.355
18106TIP3    H175733   5.376   0.812  13.390
18106TIP3    H275734   5.359   0.962  13.387
18107TIP3   OH275735   2.099   5.492   5.667
18107TIP3    H175736   2.006   5.475   5.684
18107TIP3    H275737   2.109   5.474   5.573
18108TIP3   OH275738   5.750   4.733  14.740
18108TIP3    H175739   5.702   4.666  14.690
18108TIP3    H275740   5.841   4.721  14.714
18109TIP3   OH275741   3.689   3.953  12.575
18109TIP3    H175742   3.679   3.875  12.629
18109TIP3    H275743   3.780   3.951  12.546
18110TIP3   OH275744   5.658   5.308  15.577
18110TIP3    H175745   5.583   5.265  15.536
18110TIP3    H275746   5.718   5.326  15.506
18111TIP3   OH275747   4.527   1.267  15.966
18111TIP3    H175748   4.452   1.247  15.910
18111TIP3    H275749   4.598   1.211  15.934
18112TIP3   OH275750   5.765   2.007  15.590
18112TIP3    H175751   5.773   1.948  15.516
18112TIP3    H275752   5.842   2.064  15.584
18113TIP3   OH275753   5.986   4.329  14.732
18113TIP3    H175754   6.035   4.284  14.801
18113TIP3    H275755   6.022   4.418  14.731
18114TIP3   OH275756   0.158   1.274  16.464
18114TIP3    H175757   0.126   1.348  16.514
18114TIP3    H275758   0.247   1.300  16.437
18115TIP3   OH275759   0.079   1.656  10.870
18115TIP3    H175760  -0.011   1.624  10.871
18115TIP3    H275761   0.127   1.589  10.822
18116TIP3   OH275762   0.846   5.112   0.532
18116TIP3    H175763   0.904   5.040   0.553
18116TIP3    H275764   0.761   5.071   0.518
18117TIP3   OH275765   6.058   0.933   4.094
18117TIP3    H175766   5.987   0.946   4.031
18117TIP3    H275767   6.026   0.864   4.151
18118TIP3   OH275768   6.117   4.813   4.804
18118TIP3    H175769   6.185   4.838   4.867
18118TIP3    H275770   6.153   4.834   4.718
18119TIP3   OH275771   1.212   5.864   0.459
18119TIP3    H175772   1.185   5.773   0.470
18119TIP3    H275773   1.221   5.875   0.364
18120TIP3   OH275774   2.532   0.363  12.197
18120TIP3    H175775   2.589   0.286  12.191
18120TIP3    H275776   2.444   0.329  12.177
18121TIP3   OH275777   3.943   1.856  13.925
18121TIP3    H175778   3.902   1.791  13.982
18121TIP3    H275779   3.974   1.924  13.985
18122TIP3   OH275780   1.632   3.454   2.732
18122TIP3    H175781   1.690   3.454   2.809
18122TIP3    H275782   1.550   3.490   2.764
18123TIP3   OH275783   6.474   0.526  17.116
18123TIP3    H175784   6.403   0.501  17.175
18123TIP3    H275785   6.499   0.614  17.144
18124TIP3   OH275786   6.364   2.569  11.541
18124TIP3    H175787   6.330   2.657  11.556
18124TIP3    H275788   6.445   2.565  11.592
18125TIP3   OH275789   6.741   3.104  11.176
18125TIP3    H175790   6.761   3.141  11.090
18125TIP3    H275791   6.821   3.059  11.202
18126TIP3   OH275792   2.570   6.033  12.506
18126TIP3    H175793   2.492   6.048  12.560
18126TIP3    H275794   2.545   5.963  12.447
18127TIP3   OH275795   4.431   4.214  15.418
18127TIP3    H175796   4.463   4.126  15.436
18127TIP3    H275797   4.491   4.249  15.353
18128TIP3   OH275798   4.585   2.435   3.322
18128TIP3    H175799   4.615   2.493   3.252
18128TIP3    H275800   4.581   2.491   3.400
18129TIP3   OH275801   5.966   0.155  15.963
18129TIP3    H175802   5.954   0.091  15.893
18129TIP3    H275803   5.959   0.240  15.919
18130TIP3   OH275804   3.043   4.124  10.557
18130TIP3    H175805   2.964   4.073  10.576
18130TIP3    H275806   3.097   4.067  10.503
18131TIP3   OH275807   0.223   3.287  13.734
18131TIP3    H175808   0.234   3.228  13.660
18131TIP3    H275809   0.311   3.315  13.756
18132TIP3   OH275810   1.191   1.827   0.545
18132TIP3    H175811   1.140   1.750   0.518
18132TIP3    H275812   1.279   1.792   0.561
18133TIP3   OH275813   1.726   4.501  16.547
18133TIP3    H175814   1.749   4.465  16.462
18133TIP3    H275815   1.793   4.566  16.566
18134TIP3   OH275816   0.332   5.814   4.617
18134TIP3    H175817   0.371   5.749   4.676
18134TIP3    H275818   0.279   5.762   4.557
18135TIP3   OH275819   4.554   5.129   5.221
18135TIP3    H175820   4.503   5.200   5.259
18135TIP3    H275821   4.520   5.049   5.262
18136TIP3   OH275822   0.509   1.844   4.471
18136TIP3    H175823   0.590   1.819   4.515
18136TIP3    H275824   0.496   1.936   4.494
18137TIP3   OH275825   6.390   4.947   0.358
18137TIP3    H175826   6.463   4.955   0.296
18137TIP3    H275827   6.357   5.036   0.369
18138TIP3   OH275828   2.472   6.079  16.244
18138TIP3    H175829   2.553   6.086  16.294
18138TIP3    H275830   2.490   6.126  16.163
18139TIP3   OH275831   2.412   5.875   3.604
18139TIP3    H175832   2.435   5.927   3.526
18139TIP3    H275833   2.320   5.854   3.592
18140TIP3   OH275834   1.038   2.224   0.090
18140TIP3    H175835   1.075   2.165   0.155
18140TIP3    H275836   0.946   2.232   0.116
18141TIP3   OH275837   6.137   3.179   5.208
18141TIP3    H175838   6.184   3.220   5.136
18141TIP3    H275839   6.078   3.116   5.166
18142TIP3   OH275840   6.725   0.535  16.064
18142TIP3    H175841   6.785   0.477  16.016
18142TIP3    H275842   6.754   0.623  16.041
18143TIP3   OH275843   2.966   0.118  14.776
18143TIP3    H175844   2.988   0.204  14.740
18143TIP3    H275845   2.890   0.133  14.831
18144TIP3   OH275846   2.505   5.293  14.265
18144TIP3    H175847   2.435   5.355  14.284
18144TIP3    H275848   2.462   5.224  14.214
18145TIP3   OH275849   1.944   0.879   5.334
18145TIP3    H175850   2.013   0.813   5.344
18145TIP3    H275851   1.888   0.867   5.411
18146TIP3   OH275852   4.145   6.422   4.903
18146TIP3    H175853   4.082   6.354   4.880
18146TIP3    H275854   4.211   6.377   4.955
18147TIP3   OH275855   0.534   5.724   3.241
18147TIP3    H175856   0.567   5.813   3.236
18147TIP3    H275857   0.610   5.669   3.221
18148TIP3   OH275858   6.547   5.458  14.967
18148TIP3    H175859   6.546   5.519  14.893
18148TIP3    H275860   6.548   5.371  14.928
18149TIP3   OH275861   0.516   1.334  17.066
18149TIP3    H175862   0.575   1.372  17.131
18149TIP3    H275863   0.429   1.348  17.103
18150TIP3   OH275864   4.005   1.355   4.356
18150TIP3    H175865   3.919   1.394   4.371
18150TIP3    H275866   4.057   1.380   4.433
18151TIP3   OH275867   4.553   3.086  13.789
18151TIP3    H175868   4.489   3.016  13.801
18151TIP3    H275869   4.562   3.125  13.876
18152TIP3   OH275870   1.989   1.420  14.830
18152TIP3    H175871   1.970   1.463  14.914
18152TIP3    H275872   1.916   1.445  14.773
18153TIP3   OH275873   4.230   3.369   0.002
18153TIP3    H175874   4.292   3.306   0.040
18153TIP3    H275875   4.230   3.442   0.063
18154TIP3   OH275876   2.398   4.984   2.054
18154TIP3    H175877   2.317   4.979   2.105
18154TIP3    H275878   2.438   4.898   2.064
18155TIP3   OH275879   6.149   0.661   4.728
18155TIP3    H175880   6.180   0.580   4.688
18155TIP3    H275881   6.103   0.632   4.807
18156TIP3   OH275882   5.476   0.076   0.167
18156TIP3    H175883   5.403   0.036   0.120
18156TIP3    H275884   5.509   0.006   0.224
18157TIP3   OH275885   6.260   0.123   1.334
18157TIP3    H175886   6.231   0.213   1.352
18157TIP3    H275887   6.354   0.125   1.353
18158TIP3   OH275888   0.655   0.548  15.415
18158TIP3    H175889   0.621   0.549  15.326
18158TIP3    H275890   0.721   0.479  15.415
18159TIP3   OH275891   2.782   1.438   2.435
18159TIP3    H175892   2.715   1.378   2.468
18159TIP3    H275893   2.737   1.522   2.424
18160TIP3   OH275894   2.808   6.262   5.691
18160TIP3    H175895   2.784   6.252   5.783
18160TIP3    H275896   2.768   6.345   5.665
18161TIP3   OH275897   2.353   2.084  14.767
18161TIP3    H175898   2.409   2.074  14.690
18161TIP3    H275899   2.318   1.997  14.783
18162TIP3   OH275900   0.572   1.173   5.367
18162TIP3    H175901   0.664   1.153   5.380
18162TIP3    H275902   0.534   1.173   5.455
18163TIP3   OH275903   5.047   1.371   1.609
18163TIP3    H175904   4.972   1.355   1.665
18163TIP3    H275905   5.114   1.309   1.640
18164TIP3   OH275906   4.176   1.105  13.760
18164TIP3    H175907   4.110   1.107  13.829
18164TIP3    H275908   4.206   1.196  13.753
18165TIP3   OH275909   4.516   1.139   0.388
18165TIP3    H175910   4.492   1.232   0.379
18165TIP3    H275911   4.584   1.139   0.456
18166TIP3   OH275912   5.923   3.645   1.922
18166TIP3    H175913   5.962   3.675   1.839
18166TIP3    H275914   5.910   3.551   1.910
18167TIP3   OH275915   4.283   4.936   4.649
18167TIP3    H175916   4.373   4.932   4.617
18167TIP3    H275917   4.265   4.848   4.682
18168TIP3   OH275918   4.644   1.821  13.381
18168TIP3    H175919   4.684   1.881  13.444
18168TIP3    H275920   4.553   1.851  13.374
18169TIP3   OH275921   5.600   5.262   1.893
18169TIP3    H175922   5.618   5.305   1.809
18169TIP3    H275923   5.652   5.310   1.957
18170TIP3   OH275924   6.158   3.846   3.498
18170TIP3    H175925   6.117   3.771   3.456
18170TIP3    H275926   6.169   3.820   3.589
18171TIP3   OH275927   1.386   4.023  12.601
18171TIP3    H175928   1.321   4.075  12.648
18171TIP3    H275929   1.422   3.964  12.668
18172TIP3   OH275930   2.819   5.025   1.143
18172TIP3    H175931   2.881   5.097   1.135
18172TIP3    H275932   2.873   4.949   1.164
18173TIP3   OH275933   6.619   3.906   3.907
18173TIP3    H175934   6.590   3.821   3.940
18173TIP3    H275935   6.689   3.933   3.966
18174TIP3   OH275936   6.755   5.200   0.719
18174TIP3    H175937   6.800   5.216   0.636
18174TIP3    H275938   6.781   5.273   0.775
18175TIP3   OH275939   2.893   0.441  12.069
18175TIP3    H175940   2.829   0.428  12.140
18175TIP3    H275941   2.909   0.353  12.035
18176TIP3   OH275942   6.363   5.539   5.533
18176TIP3    H175943   6.431   5.493   5.483
18176TIP3    H275944   6.341   5.614   5.478
18177TIP3   OH275945   4.648   2.519  16.987
18177TIP3    H175946   4.574   2.510  17.048
18177TIP3    H275947   4.650   2.435  16.940
18178TIP3   OH275948   2.576   6.719   1.379
18178TIP3    H175949   2.599   6.756   1.294
18178TIP3    H275950   2.481   6.709   1.375
18179TIP3   OH275951   2.903   6.638  16.979
18179TIP3    H175952   2.994   6.616  16.962
18179TIP3    H275953   2.871   6.569  17.037
18180TIP3   OH275954   5.359   1.472  16.878
18180TIP3    H175955   5.343   1.415  16.953
18180TIP3    H275956   5.452   1.495  16.884
18181TIP3   OH275957   0.917   5.389  12.727
18181TIP3    H175958   0.967   5.347  12.657
18181TIP3    H275959   0.978   5.451  12.767
18182TIP3   OH275960   1.871   2.311  14.007
18182TIP3    H175961   1.842   2.297  13.916
18182TIP3    H275962   1.901   2.402  14.008
18183TIP3   OH275963   0.188   1.323   1.091
18183TIP3    H175964   0.170   1.255   1.157
18183TIP3    H275965   0.127   1.304   1.021
18184TIP3   OH275966   3.753   4.107   5.675
18184TIP3    H175967   3.725   4.111   5.767
18184TIP3    H275968   3.695   4.168   5.630
18185TIP3   OH275969   5.025   2.334   6.004
18185TIP3    H175970   5.035   2.413   6.057
18185TIP3    H275971   4.958   2.283   6.049
18186TIP3   OH275972   6.259   2.895   3.743
18186TIP3    H175973   6.189   2.932   3.689
18186TIP3    H275974   6.305   2.971   3.778
18187TIP3   OH275975   5.815   2.660   0.403
18187TIP3    H175976   5.754   2.602   0.447
18187TIP3    H275977   5.855   2.711   0.473
18188TIP3   OH275978   2.072   2.130  11.469
18188TIP3    H175979   2.167   2.120  11.474
18188TIP3    H275980   2.053   2.211  11.516
18189TIP3   OH275981   6.397   2.190   4.674
18189TIP3    H175982   6.371   2.282   4.674
18189TIP3    H275983   6.403   2.166   4.582
18190TIP3   OH275984   0.913   6.275  12.215
18190TIP3    H175985   0.919   6.352  12.272
18190TIP3    H275986   0.866   6.210  12.267
18191TIP3   OH275987   3.395   1.773  16.859
18191TIP3    H175988   3.350   1.793  16.777
18191TIP3    H275989   3.453   1.700  16.838
18192TIP3   OH275990   6.361   5.943  16.299
18192TIP3    H175991   6.281   5.993  16.284
18192TIP3    H275992   6.418   6.003  16.346
18193TIP3   OH275993   4.125   2.723  14.509
18193TIP3    H175994   4.098   2.814  14.508
18193TIP3    H275995   4.163   2.708  14.422
18194TIP3   OH275996   6.462   2.949  13.227
18194TIP3    H175997   6.537   2.988  13.184
18194TIP3    H275998   6.499   2.886  13.289
18195TIP3   OH275999   1.081   1.131  15.680
18195TIP3    H176000   1.117   1.065  15.621
18195TIP3    H276001   0.991   1.103  15.696
18196TIP3   OH276002   0.124   2.601   5.544
18196TIP3    H176003   0.117   2.530   5.609
18196TIP3    H276004   0.080   2.566   5.467
18197TIP3   OH276005   6.191   3.524   3.481
18197TIP3    H176006   6.132   3.466   3.528
18197TIP3    H276007   6.152   3.533   3.394
18198TIP3   OH276008   4.465   2.836  16.835
18198TIP3    H176009   4.552   2.855  16.869
18198TIP3    H276010   4.467   2.742  16.815
18199TIP3   OH276011   3.255   1.123   0.916
18199TIP3    H176012   3.210   1.085   0.992
18199TIP3    H276013   3.302   1.199   0.951
18200TIP3   OH276014   3.863   2.822   5.015
18200TIP3    H176015   3.838   2.735   5.046
18200TIP3    H276016   3.833   2.882   5.084
18201TIP3   OH276017   5.349   1.531  13.223
18201TIP3    H176018   5.259   1.562  13.236
18201TIP3    H276019   5.375   1.496  13.308
18202TIP3   OH276020   0.092   1.971  16.774
18202TIP3    H176021   0.084   1.905  16.843
18202TIP3    H276022   0.050   2.049  16.810
18203TIP3   OH276023   5.150   4.181   1.514
18203TIP3    H176024   5.237   4.159   1.547
18203TIP3    H276025   5.089   4.148   1.580
18204TIP3   OH276026   6.468   5.022  14.823
18204TIP3    H176027   6.465   5.062  14.910
18204TIP3    H276028   6.421   4.939  14.833
18205TIP3   OH276029   2.797   2.489   5.379
18205TIP3    H176030   2.802   2.432   5.302
18205TIP3    H276031   2.885   2.524   5.389
18206TIP3   OH276032   4.011   1.484  10.862
18206TIP3    H176033   4.012   1.512  10.770
18206TIP3    H276034   4.029   1.390  10.858
18207TIP3   OH276035   0.274   1.586   1.082
18207TIP3    H176036   0.249   1.499   1.116
18207TIP3    H276037   0.320   1.567   1.000
18208TIP3   OH276038   0.456   1.172   1.488
18208TIP3    H176039   0.433   1.249   1.436
18208TIP3    H276040   0.372   1.139   1.520
18209TIP3   OH276041   0.138   1.160   1.315
18209TIP3    H176042   0.149   1.128   1.404
18209TIP3    H276043   0.105   1.084   1.266
18210TIP3   OH276044   2.717   6.294  12.208
18210TIP3    H176045   2.653   6.257  12.268
18210TIP3    H276046   2.672   6.298  12.124
18211TIP3   OH276047   0.275   1.806   1.230
18211TIP3    H176048   0.289   1.716   1.200
18211TIP3    H276049   0.283   1.802   1.325
18212TIP3   OH276050   4.326   4.070   5.551
18212TIP3    H176051   4.232   4.085   5.567
18212TIP3    H276052   4.368   4.096   5.633
18213TIP3   OH276053   3.931   3.492  12.435
18213TIP3    H176054   4.021   3.524  12.445
18213TIP3    H276055   3.929   3.409  12.483
18214TIP3   OH276056   4.979   4.765  16.550
18214TIP3    H176057   5.055   4.735  16.601
18214TIP3    H276058   4.919   4.691  16.551
18215TIP3   OH276059   4.664   6.080   2.843
18215TIP3    H176060   4.729   6.049   2.780
18215TIP3    H276061   4.581   6.043   2.813
18216TIP3   OH276062   3.970   4.147  11.741
18216TIP3    H176063   4.003   4.209  11.676
18216TIP3    H276064   4.047   4.124  11.793
18217TIP3   OH276065   2.111   3.662   1.190
18217TIP3    H176066   2.174   3.593   1.208
18217TIP3    H276067   2.163   3.742   1.183
18218TIP3   OH276068   6.625   3.217   6.355
18218TIP3    H176069   6.671   3.232   6.438
18218TIP3    H276070   6.551   3.277   6.356
18219TIP3   OH276071   5.429   5.208  10.351
18219TIP3    H176072   5.437   5.140  10.284
18219TIP3    H276073   5.352   5.182  10.402
18220TIP3   OH276074   3.407   5.293  10.843
18220TIP3    H176075   3.494   5.271  10.810
18220TIP3    H276076   3.373   5.211  10.878
18221TIP3   OH276077   2.305   5.651   5.081
18221TIP3    H176078   2.223   5.700   5.080
18221TIP3    H276079   2.278   5.559   5.079
18222TIP3   OH276080   6.693   3.119   1.562
18222TIP3    H176081   6.623   3.054   1.554
18222TIP3    H276082   6.774   3.070   1.547
18223TIP3   OH276083   5.150   5.263   0.949
18223TIP3    H176084   5.238   5.300   0.942
18223TIP3    H276085   5.136   5.250   1.043
18224TIP3   OH276086   4.708   1.446   0.561
18224TIP3    H176087   4.794   1.449   0.519
18224TIP3    H276088   4.713   1.371   0.619
18225TIP3   OH276089   0.089   3.754   2.916
18225TIP3    H176090   0.022   3.782   2.979
18225TIP3    H276091   0.104   3.832   2.862
18226TIP3   OH276092   1.644   0.596   4.078
18226TIP3    H176093   1.686   0.632   4.156
18226TIP3    H276094   1.551   0.613   4.090
18227TIP3   OH276095   0.168   4.212  10.904
18227TIP3    H176096   0.185   4.226  10.810
18227TIP3    H276097   0.155   4.118  10.912
18228TIP3   OH276098   4.594   1.526  14.445
18228TIP3    H176099   4.575   1.553  14.355
18228TIP3    H276100   4.668   1.465  14.436
18229TIP3   OH276101   3.595   6.512   5.754
18229TIP3    H176102   3.558   6.592   5.792
18229TIP3    H276103   3.605   6.453   5.828
18230TIP3   OH276104   0.129   2.965  15.913
18230TIP3    H176105   0.186   3.039  15.893
18230TIP3    H276106   0.044   3.005  15.932
18231TIP3   OH276107   2.588   1.663  14.862
18231TIP3    H176108   2.498   1.631  14.873
18231TIP3    H276109   2.603   1.661  14.768
18232TIP3   OH276110   0.931   2.751  16.946
18232TIP3    H176111   0.892   2.818  17.002
18232TIP3    H276112   1.014   2.729  16.989
18233TIP3   OH276113   1.683   1.481   4.341
18233TIP3    H176114   1.727   1.409   4.386
18233TIP3    H276115   1.621   1.438   4.281
18234TIP3   OH276116   4.014   4.376   3.177
18234TIP3    H176117   4.005   4.283   3.155
18234TIP3    H276118   4.103   4.399   3.150
18235TIP3   OH276119   1.815   1.697   1.244
18235TIP3    H176120   1.890   1.754   1.230
18235TIP3    H276121   1.805   1.649   1.162
18236TIP3   OH276122   6.348   2.259  15.114
18236TIP3    H176123   6.336   2.292  15.203
18236TIP3    H276124   6.293   2.181  15.111
18237TIP3   OH276125   1.969   6.648  11.482
18237TIP3    H176126   2.041   6.684  11.430
18237TIP3    H276127   1.975   6.693  11.566
18238TIP3   OH276128   5.341   2.146   4.085
18238TIP3    H176129   5.349   2.105   4.171
18238TIP3    H276130   5.252   2.124   4.056
18239TIP3   OH276131   2.940   6.135   0.011
18239TIP3    H176132   2.868   6.164  -0.046
18239TIP3    H276133   3.015   6.189  -0.015
18240TIP3   OH276134   4.732   6.732  14.493
18240TIP3    H176135   4.763   6.658  14.545
18240TIP3    H276136   4.686   6.787  14.556
18241TIP3   OH276137   2.439   6.736   3.577
18241TIP3    H176138   2.523   6.717   3.536
18241TIP3    H276139   2.393   6.791   3.514
18242TIP3   OH276140   3.891   0.489   5.895
18242TIP3    H176141   3.827   0.423   5.870
18242TIP3    H276142   3.976   0.449   5.875
18243TIP3   OH276143   5.937   0.604   1.737
18243TIP3    H176144   5.844   0.623   1.724
18243TIP3    H276145   5.941   0.564   1.824
18244TIP3   OH276146   3.587   0.634   1.569
18244TIP3    H176147   3.536   0.654   1.491
18244TIP3    H276148   3.609   0.719   1.607
18245TIP3   OH276149   2.065   4.081   6.219
18245TIP3    H176150   2.124   4.115   6.286
18245TIP3    H276151   2.106   4.000   6.189
18246TIP3   OH276152   5.445   5.943  15.726
18246TIP3    H176153   5.440   6.031  15.689
18246TIP3    H276154   5.501   5.953  15.803
18247TIP3   OH276155   6.414   4.009   0.915
18247TIP3    H176156   6.500   4.041   0.944
18247TIP3    H276157   6.363   4.000   0.995
18248TIP3   OH276158   0.203   2.145  16.138
18248TIP3    H176159   0.233   2.235  16.123
18248TIP3    H276160   0.279   2.091  16.117
18249TIP3   OH276161   6.320   2.806  10.626
18249TIP3    H176162   6.253   2.874  10.626
18249TIP3    H276163   6.399   2.850  10.657
18250TIP3   OH276164   2.046   0.101   0.934
18250TIP3    H176165   1.989   0.174   0.957
18250TIP3    H276166   2.006   0.026   0.978
18251TIP3   OH276167   0.492   0.365  17.060
18251TIP3    H176168   0.547   0.419  17.116
18251TIP3    H276169   0.530   0.373  16.973
18252TIP3   OH276170   6.696   0.386  12.527
18252TIP3    H176171   6.790   0.400  12.539
18252TIP3    H276172   6.671   0.448  12.458
18253TIP3   OH276173   6.723   2.028   4.151
18253TIP3    H176174   6.810   2.057   4.124
18253TIP3    H276175   6.664   2.060   4.083
18254TIP3   OH276176   4.141   2.648  12.167
18254TIP3    H176177   4.076   2.577  12.158
18254TIP3    H276178   4.141   2.690  12.081
18255TIP3   OH276179   0.773   0.913   3.579
18255TIP3    H176180   0.777   0.854   3.504
18255TIP3    H276181   0.680   0.915   3.603
18256TIP3   OH276182   1.590   6.722  11.630
18256TIP3    H176183   1.572   6.753  11.541
18256TIP3    H276184   1.575   6.628  11.626
18257TIP3   OH276185   6.615   1.262  16.828
18257TIP3    H176186   6.543   1.303  16.781
18257TIP3    H276187   6.665   1.336  16.864
18258TIP3   OH276188   5.315   5.580  13.406
18258TIP3    H176189   5.300   5.673  13.423
18258TIP3    H276190   5.325   5.574  13.311
18259TIP3   OH276191   1.912   3.020   1.884
18259TIP3    H176192   1.905   3.080   1.810
18259TIP3    H276193   1.844   3.050   1.945
18260TIP3   OH276194   2.489   5.040  15.565
18260TIP3    H176195   2.399   5.020  15.541
18260TIP3    H276196   2.498   5.134  15.549
18261TIP3   OH276197   5.530   0.791   1.135
18261TIP3    H176198   5.577   0.847   1.197
18261TIP3    H276199   5.549   0.828   1.049
18262TIP3   OH276200   3.313   0.265   0.736
18262TIP3    H176201   3.370   0.277   0.812
18262TIP3    H276202   3.256   0.192   0.760
18263TIP3   OH276203   4.563   5.718   4.683
18263TIP3    H176204   4.631   5.740   4.619
18263TIP3    H276205   4.575   5.784   4.752
18264TIP3   OH276206   6.055   0.303   0.231
18264TIP3    H176207   6.019   0.391   0.216
18264TIP3    H276208   5.981   0.252   0.263
18265TIP3   OH276209   0.282   5.349  12.456
18265TIP3    H176210   0.230   5.270  12.471
18265TIP3    H276211   0.247   5.387  12.375
18266TIP3   OH276212   0.422   1.301   1.251
18266TIP3    H176213   0.340   1.298   1.201
18266TIP3    H276214   0.481   1.243   1.204
18267TIP3   OH276215   4.570   5.995  13.455
18267TIP3    H176216   4.641   6.055  13.433
18267TIP3    H276217   4.519   5.987  13.375
18268TIP3   OH276218   5.313   4.440  14.075
18268TIP3    H176219   5.293   4.426  13.982
18268TIP3    H276220   5.257   4.513  14.100
18269TIP3   OH276221   2.259   0.193   4.455
18269TIP3    H176222   2.349   0.168   4.436
18269TIP3    H276223   2.223   0.221   4.371
18270TIP3   OH276224   3.731   4.826  16.371
18270TIP3    H176225   3.637   4.836  16.360
18270TIP3    H276226   3.744   4.732  16.382
18271TIP3   OH276227   3.037   4.296  11.921
18271TIP3    H176228   3.121   4.328  11.956
18271TIP3    H276229   3.020   4.216  11.970
18272TIP3   OH276230   3.891   4.275  15.635
18272TIP3    H176231   3.855   4.363  15.648
18272TIP3    H276232   3.959   4.286  15.569
18273TIP3   OH276233   6.267   1.795  12.946
18273TIP3    H176234   6.188   1.825  12.900
18273TIP3    H276235   6.257   1.700  12.952
18274TIP3   OH276236   2.866   4.168  12.701
18274TIP3    H176237   2.888   4.086  12.745
18274TIP3    H276238   2.951   4.207  12.679
18275TIP3   OH276239   6.640   0.170  13.794
18275TIP3    H176240   6.662   0.231  13.864
18275TIP3    H276241   6.565   0.121  13.828
18276TIP3   OH276242   3.458   4.864  16.308
18276TIP3    H176243   3.395   4.806  16.351
18276TIP3    H276244   3.437   4.951  16.341
18277TIP3   OH276245   3.527   1.452  14.826
18277TIP3    H176246   3.570   1.469  14.742
18277TIP3    H276247   3.433   1.458  14.806
18278TIP3   OH276248   1.357   6.783  16.880
18278TIP3    H176249   1.414   6.786  16.956
18278TIP3    H276250   1.286   6.724  16.905
18279TIP3   OH276251   6.473   2.856  13.736
18279TIP3    H176252   6.398   2.911  13.759
18279TIP3    H276253   6.436   2.768  13.730
18280TIP3   OH276254   2.822   2.681   1.574
18280TIP3    H176255   2.793   2.611   1.516
18280TIP3    H276256   2.803   2.761   1.525
18281TIP3   OH276257   6.454   3.181  16.889
18281TIP3    H176258   6.506   3.146  16.961
18281TIP3    H276259   6.366   3.190  16.926
18282TIP3   OH276260   1.942   5.083   0.188
18282TIP3    H176261   1.927   4.993   0.157
18282TIP3    H276262   1.938   5.137   0.109
18283TIP3   OH276263   1.713   1.238  13.858
18283TIP3    H176264   1.714   1.160  13.804
18283TIP3    H276265   1.743   1.208  13.944
18284TIP3   OH276266   3.171   1.103   2.697
18284TIP3    H176267   3.133   1.186   2.667
18284TIP3    H276268   3.098   1.058   2.740
18285TIP3   OH276269   5.118   0.721   3.412
18285TIP3    H176270   5.032   0.681   3.400
18285TIP3    H276271   5.126   0.783   3.339
18286TIP3   OH276272   4.541   5.213  15.504
18286TIP3    H176273   4.628   5.193  15.538
18286TIP3    H276274   4.489   5.135  15.522
18287TIP3   OH276275   4.241   2.714  13.607
18287TIP3    H176276   4.169   2.675  13.658
18287TIP3    H276277   4.198   2.775  13.548
18288TIP3   OH276278   2.980   6.056   3.284
18288TIP3    H176279   2.980   6.126   3.350
18288TIP3    H276280   3.041   6.087   3.217
18289TIP3   OH276281   2.779   4.804   2.112
18289TIP3    H176282   2.683   4.802   2.105
18289TIP3    H276283   2.806   4.720   2.075
18290TIP3   OH276284   6.321   6.634   2.170
18290TIP3    H176285   6.302   6.550   2.128
18290TIP3    H276286   6.280   6.699   2.113
18291TIP3   OH276287   1.830   3.247   1.717
18291TIP3    H176288   1.747   3.255   1.669
18291TIP3    H276289   1.896   3.280   1.656
18292TIP3   OH276290   4.632   3.208   4.822
18292TIP3    H176291   4.536   3.203   4.823
18292TIP3    H276292   4.654   3.236   4.733
18293TIP3   OH276293   3.987   0.246  14.099
18293TIP3    H176294   4.030   0.269  14.016
18293TIP3    H276295   4.051   0.272  14.166
18294TIP3   OH276296   4.325   3.483   6.230
18294TIP3    H176297   4.272   3.485   6.151
18294TIP3    H276298   4.322   3.392   6.259
18295TIP3   OH276299   4.328   5.832   6.265
18295TIP3    H176300   4.311   5.904   6.204
18295TIP3    H276301   4.284   5.858   6.346
18296TIP3   OH276302   0.333   1.347  13.822
18296TIP3    H176303   0.243   1.371  13.797
18296TIP3    H276304   0.386   1.372  13.747
18297TIP3   OH276305   0.601   0.416   2.421
18297TIP3    H176306   0.635   0.458   2.342
18297TIP3    H276307   0.664   0.438   2.489
18298TIP3   OH276308   1.971   0.882  15.685
18298TIP3    H176309   1.911   0.808  15.677
18298TIP3    H276310   2.019   0.865  15.766
18299TIP3   OH276311   4.002   6.681  14.290
18299TIP3    H176312   3.982   6.588  14.301
18299TIP3    H276313   3.982   6.699  14.198
18300TIP3   OH276314   6.067   5.421  13.944
18300TIP3    H176315   5.988   5.462  13.908
18300TIP3    H276316   6.118   5.494  13.979
18301TIP3   OH276317   6.752   0.228  16.607
18301TIP3    H176318   6.768   0.319  16.629
18301TIP3    H276319   6.714   0.230  16.519
18302TIP3   OH276320   6.091   3.605   5.556
18302TIP3    H176321   6.101   3.699   5.575
18302TIP3    H276322   6.000   3.587   5.577
18303TIP3   OH276323   0.404   6.465   5.736
18303TIP3    H176324   0.312   6.489   5.744
18303TIP3    H276325   0.408   6.405   5.662
18304TIP3   OH276326   0.282   5.731   3.160
18304TIP3    H176327   0.306   5.754   3.071
18304TIP3    H276328   0.365   5.721   3.206
18305TIP3   OH276329   6.713   6.317   0.813
18305TIP3    H176330   6.729   6.321   0.907
18305TIP3    H276331   6.760   6.238   0.784
18306TIP3   OH276332   5.825   0.224  14.040
18306TIP3    H176333   5.898   0.278  14.070
18306TIP3    H276334   5.858   0.134  14.045
18307TIP3   OH276335   4.060   6.644   2.604
18307TIP3    H176336   4.129   6.676   2.662
18307TIP3    H276337   4.065   6.701   2.528
18308TIP3   OH276338   5.026   0.274  14.853
18308TIP3    H176339   5.119   0.276  14.827
18308TIP3    H276340   4.985   0.217  14.789
18309TIP3   OH276341   3.375   2.481   4.824
18309TIP3    H176342   3.407   2.413   4.883
18309TIP3    H276343   3.396   2.563   4.868
18310TIP3   OH276344   1.769   6.391  12.114
18310TIP3    H176345   1.737   6.301  12.117
18310TIP3    H276346   1.740   6.425  12.029
18311TIP3   OH276347   6.737   0.235   4.462
18311TIP3    H176348   6.728   0.273   4.375
18311TIP3    H276349   6.652   0.248   4.504
18312TIP3   OH276350   1.969   5.038   5.570
18312TIP3    H176351   1.942   4.946   5.570
18312TIP3    H276352   1.921   5.077   5.496
18313TIP3   OH276353   3.865   5.656  14.186
18313TIP3    H176354   3.929   5.609  14.239
18313TIP3    H276355   3.869   5.747  14.216
18314TIP3   OH276356   2.429   5.260   4.811
18314TIP3    H176357   2.520   5.232   4.818
18314TIP3    H276358   2.407   5.293   4.898
18315TIP3   OH276359   3.922   6.742  14.048
18315TIP3    H176360   3.949   6.758  13.957
18315TIP3    H276361   3.918   6.830  14.087
18316TIP3   OH276362   6.117   2.726   5.564
18316TIP3    H176363   6.203   2.733   5.523
18316TIP3    H276364   6.080   2.815   5.558
18317TIP3   OH276365   3.048   4.861  16.494
18317TIP3    H176366   3.091   4.946  16.504
18317TIP3    H276367   3.096   4.818  16.423
18318TIP3   OH276368   5.063   0.757  11.285
18318TIP3    H176369   5.051   0.699  11.209
18318TIP3    H276370   4.975   0.791  11.303
18319TIP3   OH276371   4.515   3.665   3.680
18319TIP3    H176372   4.435   3.613   3.672
18319TIP3    H276373   4.507   3.710   3.764
18320TIP3   OH276374   3.010   4.877   2.659
18320TIP3    H176375   3.075   4.936   2.622
18320TIP3    H276376   2.956   4.851   2.585
18321TIP3   OH276377   0.253   3.788  16.525
18321TIP3    H176378   0.175   3.789  16.469
18321TIP3    H276379   0.326   3.801  16.464
18322TIP3   OH276380   6.059   5.603   5.379
18322TIP3    H176381   6.140   5.637   5.342
18322TIP3    H276382   6.030   5.670   5.441
18323TIP3   OH276383   3.789   4.753  12.062
18323TIP3    H176384   3.784   4.675  12.118
18323TIP3    H276385   3.698   4.777  12.046
18324TIP3   OH276386   0.172   1.870  13.222
18324TIP3    H176387   0.095   1.913  13.259
18324TIP3    H276388   0.140   1.784  13.195
18325TIP3   OH276389   3.375   4.706  13.538
18325TIP3    H176390   3.347   4.622  13.500
18325TIP3    H276391   3.293   4.753  13.556
18326TIP3   OH276392   4.569   3.728   2.206
18326TIP3    H176393   4.589   3.634   2.195
18326TIP3    H276394   4.601   3.768   2.125
18327TIP3   OH276395   6.028   3.160  14.675
18327TIP3    H176396   6.049   3.102  14.748
18327TIP3    H276397   6.012   3.101  14.601
18328TIP3   OH276398   4.802   5.797   4.576
18328TIP3    H176399   4.869   5.769   4.637
18328TIP3    H276400   4.849   5.854   4.514
18329TIP3   OH276401   6.685   3.838  16.049
18329TIP3    H176402   6.614   3.832  15.985
18329TIP3    H276403   6.758   3.875  15.999
18330TIP3   OH276404   2.819   5.118  12.687
18330TIP3    H176405   2.767   5.158  12.756
18330TIP3    H276406   2.898   5.172  12.682
18331TIP3   OH276407   0.171   0.197   5.730
18331TIP3    H176408   0.160   0.292   5.721
18331TIP3    H276409   0.134   0.160   5.650
18332TIP3   OH276410   4.817   5.204   4.656
18332TIP3    H176411   4.764   5.269   4.609
18332TIP3    H276412   4.757   5.131   4.671
18333TIP3   OH276413   6.595   0.257   1.071
18333TIP3    H176414   6.577   0.279   0.980
18333TIP3    H276415   6.657   0.184   1.067
18334TIP3   OH276416   2.392   4.206  15.901
18334TIP3    H176417   2.331   4.269  15.940
18334TIP3    H276418   2.395   4.134  15.964
18335TIP3   OH276419   3.870   0.733  16.139
18335TIP3    H176420   3.883   0.644  16.108
18335TIP3    H276421   3.954   0.758  16.178
18336TIP3   OH276422   0.236   5.677   0.035
18336TIP3    H176423   0.186   5.604   0.072
18336TIP3    H276424   0.231   5.664  -0.060
18337TIP3   OH276425   6.013   2.858  11.644
18337TIP3    H176426   5.964   2.778  11.666
18337TIP3    H276427   5.958   2.902  11.580
18338TIP3   OH276428   4.248   3.212  12.445
18338TIP3    H176429   4.310   3.271  12.401
18338TIP3    H276430   4.267   3.126  12.410
18339TIP3   OH276431   6.500   2.847  11.181
18339TIP3    H176432   6.478   2.935  11.212
18339TIP3    H276433   6.426   2.793  11.208
18340TIP3   OH276434   3.880   1.029   4.463
18340TIP3    H176435   3.825   1.053   4.388
18340TIP3    H276436   3.865   1.099   4.526
18341TIP3   OH276437   1.188   4.867   2.182
18341TIP3    H176438   1.162   4.850   2.273
18341TIP3    H276439   1.135   4.942   2.156
18342TIP3   OH276440   6.156   4.480   0.843
18342TIP3    H176441   6.069   4.514   0.822
18342TIP3    H276442   6.170   4.409   0.781
18343TIP3   OH276443   1.892   2.980   3.135
18343TIP3    H176444   1.888   2.904   3.078
18343TIP3    H276445   1.985   3.004   3.137
18344TIP3   OH276446   3.258   5.696   3.738
18344TIP3    H176447   3.177   5.710   3.786
18344TIP3    H276448   3.259   5.602   3.719
18345TIP3   OH276449   0.879   2.553  14.341
18345TIP3    H176450   0.922   2.502  14.273
18345TIP3    H276451   0.893   2.503  14.422
18346TIP3   OH276452   4.946   1.658   2.112
18346TIP3    H176453   5.005   1.723   2.150
18346TIP3    H276454   4.927   1.599   2.185
18347TIP3   OH276455   1.305   1.519  16.857
18347TIP3    H176456   1.232   1.458  16.848
18347TIP3    H276457   1.287   1.567  16.938
18348TIP3   OH276458   4.184   4.577  13.077
18348TIP3    H176459   4.150   4.608  13.161
18348TIP3    H276460   4.279   4.580  13.087
18349TIP3   OH276461   5.623   1.340   3.620
18349TIP3    H176462   5.702   1.292   3.595
18349TIP3    H276463   5.648   1.432   3.615
18350TIP3   OH276464   6.342   6.009  14.734
18350TIP3    H176465   6.400   6.064  14.787
18350TIP3    H276466   6.400   5.967  14.670
18351TIP3   OH276467   6.321   5.736  14.454
18351TIP3    H176468   6.277   5.774  14.378
18351TIP3    H276469   6.361   5.811  14.498
18352TIP3   OH276470   1.461   6.131  11.744
18352TIP3    H176471   1.390   6.182  11.704
18352TIP3    H276472   1.537   6.151  11.690
18353TIP3   OH276473   1.190   2.684  10.648
18353TIP3    H176474   1.129   2.727  10.708
18353TIP3    H276475   1.205   2.749  10.579
18354TIP3   OH276476   2.719   4.878  13.673
18354TIP3    H176477   2.670   4.838  13.602
18354TIP3    H276478   2.757   4.957  13.635
18355TIP3   OH276479   4.726   4.557   5.453
18355TIP3    H176480   4.678   4.482   5.489
18355TIP3    H276481   4.688   4.633   5.498
18356TIP3   OH276482   2.393   2.788  16.775
18356TIP3    H176483   2.332   2.843  16.823
18356TIP3    H276484   2.397   2.707  16.825
18357TIP3   OH276485   1.764   1.356   2.192
18357TIP3    H176486   1.764   1.452   2.187
18357TIP3    H276487   1.674   1.333   2.213
18358TIP3   OH276488   1.228   5.717   1.731
18358TIP3    H176489   1.187   5.729   1.646
18358TIP3    H276490   1.258   5.805   1.756
18359TIP3   OH276491   1.286   5.162   6.084
18359TIP3    H176492   1.294   5.130   6.174
18359TIP3    H276493   1.316   5.252   6.088
18360TIP3   OH276494   1.708   1.199  12.320
18360TIP3    H176495   1.634   1.237  12.271
18360TIP3    H276496   1.668   1.133  12.376
18361TIP3   OH276497   3.116   1.521   4.258
18361TIP3    H176498   3.074   1.556   4.179
18361TIP3    H276499   3.185   1.583   4.278
18362TIP3   OH276500   3.547   0.088   0.576
18362TIP3    H176501   3.525   0.019   0.637
18362TIP3    H276502   3.509   0.059   0.493
18363TIP3   OH276503   2.538   3.211   4.244
18363TIP3    H176504   2.468   3.198   4.180
18363TIP3    H276505   2.575   3.124   4.257
18364TIP3   OH276506   4.460   4.982  12.624
18364TIP3    H176507   4.436   4.996  12.716
18364TIP3    H276508   4.556   4.988  12.623
18365TIP3   OH276509   4.341   0.283   2.362
18365TIP3    H176510   4.276   0.282   2.292
18365TIP3    H276511   4.318   0.359   2.415
18366TIP3   OH276512   2.081   4.642  13.189
18366TIP3    H176513   2.128   4.561  13.206
18366TIP3    H276514   2.031   4.625  13.110
18367TIP3   OH276515   3.176   4.631  14.810
18367TIP3    H176516   3.114   4.563  14.782
18367TIP3    H276517   3.235   4.586  14.871
18368TIP3   OH276518   4.693   1.552   6.571
18368TIP3    H176519   4.745   1.479   6.537
18368TIP3    H276520   4.756   1.622   6.583
18369TIP3   OH276521   1.745   2.062   5.264
18369TIP3    H176522   1.749   2.132   5.199
18369TIP3    H276523   1.790   2.098   5.341
18370TIP3   OH276524   1.338   6.453  16.588
18370TIP3    H176525   1.376   6.380  16.636
18370TIP3    H276526   1.243   6.437  16.590
18371TIP3   OH276527   1.435   1.212  15.375
18371TIP3    H176528   1.444   1.273  15.302
18371TIP3    H276529   1.463   1.128  15.340
18372TIP3   OH276530   0.194   4.353  14.830
18372TIP3    H176531   0.170   4.264  14.856
18372TIP3    H276532   0.218   4.345  14.737
18373TIP3   OH276533   0.610   5.411  10.807
18373TIP3    H176534   0.600   5.359  10.727
18373TIP3    H276535   0.583   5.499  10.782
18374TIP3   OH276536   3.295   5.832  15.261
18374TIP3    H176537   3.232   5.827  15.189
18374TIP3    H276538   3.357   5.761  15.243
18375TIP3   OH276539   5.319   6.247  16.230
18375TIP3    H176540   5.344   6.338  16.247
18375TIP3    H276541   5.227   6.243  16.257
18376TIP3   OH276542   6.420   2.710   3.018
18376TIP3    H176543   6.344   2.656   2.995
18376TIP3    H276544   6.495   2.655   2.997
18377TIP3   OH276545   2.761   6.139  12.674
18377TIP3    H176546   2.842   6.111  12.630
18377TIP3    H276547   2.691   6.105  12.617
18378TIP3   OH276548   1.671   4.644  14.653
18378TIP3    H176549   1.691   4.560  14.613
18378TIP3    H276550   1.724   4.645  14.733
18379TIP3   OH276551   5.648   4.945   3.492
18379TIP3    H176552   5.720   4.934   3.429
18379TIP3    H276553   5.670   4.886   3.564
18380TIP3   OH276554   5.718   5.267   5.401
18380TIP3    H176555   5.672   5.290   5.482
18380TIP3    H276556   5.709   5.345   5.346
18381TIP3   OH276557   2.761   1.484  15.409
18381TIP3    H176558   2.724   1.563  15.449
18381TIP3    H276559   2.690   1.420  15.414
18382TIP3   OH276560   0.665   6.319  11.845
18382TIP3    H176561   0.749   6.365  11.845
18382TIP3    H276562   0.670   6.261  11.921
18383TIP3   OH276563   0.201   2.050  13.954
18383TIP3    H176564   0.108   2.072  13.944
18383TIP3    H276565   0.201   1.955  13.968
18384TIP3   OH276566   5.215   4.481  10.672
18384TIP3    H176567   5.191   4.390  10.690
18384TIP3    H276568   5.310   4.483  10.681
18385TIP3   OH276569   3.193   2.941   5.505
18385TIP3    H176570   3.261   3.009   5.507
18385TIP3    H276571   3.197   2.901   5.592
18386TIP3   OH276572   0.214   2.034   3.408
18386TIP3    H176573   0.178   1.993   3.329
18386TIP3    H276574   0.138   2.071   3.453
18387TIP3   OH276575   6.546   1.221  13.671
18387TIP3    H176576   6.612   1.188  13.732
18387TIP3    H276577   6.502   1.291  13.719
18388TIP3   OH276578   1.336   0.554   2.962
18388TIP3    H176579   1.352   0.534   2.870
18388TIP3    H276580   1.375   0.480   3.009
18389TIP3   OH276581   4.366   5.833  15.930
18389TIP3    H176582   4.297   5.788  15.979
18389TIP3    H276583   4.444   5.779  15.941
18390TIP3   OH276584   0.303   4.176  16.463
18390TIP3    H176585   0.252   4.146  16.538
18390TIP3    H276586   0.249   4.157  16.387
18391TIP3   OH276587   0.255   2.482  12.293
18391TIP3    H176588   0.344   2.503  12.322
18391TIP3    H276589   0.216   2.434  12.365
18392TIP3   OH276590   1.752   3.111  14.630
18392TIP3    H176591   1.658   3.129  14.636
18392TIP3    H276592   1.794   3.196  14.642
18393TIP3   OH276593   2.929   5.587  11.751
18393TIP3    H176594   2.852   5.568  11.697
18393TIP3    H276595   2.934   5.683  11.750
18394TIP3   OH276596   3.572   2.840  12.445
18394TIP3    H176597   3.565   2.750  12.414
18394TIP3    H276598   3.493   2.855  12.496
18395TIP3   OH276599   2.077   6.462   4.481
18395TIP3    H176600   2.104   6.535   4.537
18395TIP3    H276601   2.032   6.503   4.407
18396TIP3   OH276602   0.475   2.417  11.747
18396TIP3    H176603   0.452   2.443  11.658
18396TIP3    H276604   0.541   2.349  11.736
18397TIP3   OH276605   0.917   0.955  14.884
18397TIP3    H176606   0.859   0.956  14.808
18397TIP3    H276607   0.883   1.023  14.941
18398TIP3   OH276608   6.088   6.551   1.185
18398TIP3    H176609   6.103   6.561   1.279
18398TIP3    H276610   6.170   6.517   1.151
18399TIP3   OH276611   3.910   3.128   6.523
18399TIP3    H176612   3.916   3.088   6.436
18399TIP3    H276613   3.818   3.118   6.547
18400TIP3   OH276614   5.986   1.945  10.917
18400TIP3    H176615   5.966   2.004  10.845
18400TIP3    H276616   6.056   1.888  10.884
18401TIP3   OH276617   5.434   6.225  14.947
18401TIP3    H176618   5.387   6.198  15.026
18401TIP3    H276619   5.514   6.172  14.948
18402TIP3   OH276620   1.935   2.017   3.731
18402TIP3    H176621   1.905   2.090   3.785
18402TIP3    H276622   1.899   2.035   3.644
18403TIP3   OH276623   2.246   2.140   1.819
18403TIP3    H176624   2.289   2.065   1.861
18403TIP3    H276625   2.304   2.214   1.837
18404TIP3   OH276626   3.689   3.202   2.132
18404TIP3    H176627   3.622   3.262   2.165
18404TIP3    H276628   3.731   3.249   2.060
18405TIP3   OH276629   3.710   2.500  11.899
18405TIP3    H176630   3.800   2.483  11.870
18405TIP3    H276631   3.656   2.456  11.834
18406TIP3   OH276632   1.252   0.410   1.261
18406TIP3    H176633   1.277   0.374   1.346
18406TIP3    H276634   1.296   0.354   1.197
18407TIP3   OH276635   2.763   2.914  11.629
18407TIP3    H176636   2.688   2.936  11.684
18407TIP3    H276637   2.761   2.979  11.559
18408TIP3   OH276638   0.226   6.763  15.441
18408TIP3    H176639   0.191   6.802  15.521
18408TIP3    H276640   0.164   6.694  15.418
18409TIP3   OH276641   5.608   4.960  17.096
18409TIP3    H176642   5.669   4.919  17.034
18409TIP3    H276643   5.522   4.950  17.055
18410TIP3   OH276644   5.817   5.865  12.063
18410TIP3    H176645   5.801   5.960  12.066
18410TIP3    H276646   5.814   5.838  12.155
18411TIP3   OH276647   6.085   4.094   2.217
18411TIP3    H176648   6.132   4.122   2.296
18411TIP3    H276649   6.050   4.008   2.240
18412TIP3   OH276650   5.664   1.019  12.691
18412TIP3    H176651   5.616   0.955  12.742
18412TIP3    H276652   5.610   1.098  12.693
18413TIP3   OH276653   2.640   3.045   1.460
18413TIP3    H176654   2.675   2.969   1.413
18413TIP3    H276655   2.624   3.110   1.392
18414TIP3   OH276656   0.611   3.790  14.723
18414TIP3    H176657   0.556   3.746  14.787
18414TIP3    H276658   0.584   3.753  14.639
18415TIP3   OH276659   4.403   3.575  17.103
18415TIP3    H176660   4.340   3.616  17.045
18415TIP3    H276661   4.369   3.486  17.118
18416TIP3   OH276662   3.948   2.288   0.219
18416TIP3    H176663   3.973   2.380   0.218
18416TIP3    H276664   3.875   2.283   0.157
18417TIP3   OH276665   5.624   5.234  14.240
18417TIP3    H176666   5.588   5.279  14.316
18417TIP3    H276667   5.556   5.243  14.172
18418TIP3   OH276668   4.856   6.063  10.913
18418TIP3    H176669   4.888   6.149  10.883
18418TIP3    H276670   4.881   6.003  10.843
18419TIP3   OH276671   2.097   2.295   5.894
18419TIP3    H176672   2.100   2.220   5.954
18419TIP3    H276673   2.060   2.366   5.945
18420TIP3   OH276674   5.736   2.177   3.312
18420TIP3    H176675   5.752   2.118   3.386
18420TIP3    H276676   5.801   2.152   3.247
18421TIP3   OH276677   2.980   5.248  12.103
18421TIP3    H176678   2.884   5.257  12.102
18421TIP3    H276679   3.011   5.326  12.056
18422TIP3   OH276680   2.391   2.497  11.105
18422TIP3    H176681   2.424   2.445  11.031
18422TIP3    H276682   2.370   2.433  11.173
18423TIP3   OH276683   0.423   6.721  11.331
18423TIP3    H176684   0.459   6.713  11.243
18423TIP3    H276685   0.401   6.813  11.340
18424TIP3   OH276686   6.767   2.061   4.702
18424TIP3    H176687   6.764   1.983   4.757
18424TIP3    H276688   6.753   2.029   4.613
18425TIP3   OH276689   1.821   2.569  16.056
18425TIP3    H176690   1.828   2.663  16.068
18425TIP3    H276691   1.866   2.552  15.973
18426TIP3   OH276692   4.697   6.114   2.292
18426TIP3    H176693   4.641   6.192   2.288
18426TIP3    H276694   4.756   6.129   2.366
18427TIP3   OH276695   1.917   4.132   4.476
18427TIP3    H176696   1.845   4.084   4.435
18427TIP3    H276697   1.877   4.176   4.551
18428TIP3   OH276698   4.714   0.239   2.809
18428TIP3    H176699   4.695   0.150   2.839
18428TIP3    H276700   4.746   0.228   2.719
18429TIP3   OH276701   4.097   0.186   1.531
18429TIP3    H176702   4.045   0.267   1.523
18429TIP3    H276703   4.051   0.135   1.598
18430TIP3   OH276704   6.100   1.152   1.928
18430TIP3    H176705   6.187   1.117   1.908
18430TIP3    H276706   6.108   1.246   1.912
18431TIP3   OH276707   2.666   4.717  14.754
18431TIP3    H176708   2.626   4.633  14.731
18431TIP3    H276709   2.692   4.707  14.846
18432TIP3   OH276710   1.488   6.201  13.071
18432TIP3    H176711   1.514   6.287  13.039
18432TIP3    H276712   1.495   6.144  12.994
18433TIP3   OH276713   2.475   3.851  12.730
18433TIP3    H176714   2.419   3.928  12.721
18433TIP3    H276715   2.525   3.866  12.810
18434TIP3   OH276716   3.930   2.703   1.606
18434TIP3    H176717   3.950   2.739   1.692
18434TIP3    H276718   3.955   2.771   1.544
18435TIP3   OH276719   2.511   4.801   1.796
18435TIP3    H176720   2.461   4.836   1.722
18435TIP3    H276721   2.573   4.870   1.818
18436TIP3   OH276722   3.053   4.251  14.720
18436TIP3    H176723   3.140   4.241  14.757
18436TIP3    H276724   3.020   4.333  14.758
18437TIP3   OH276725   6.041   5.054  11.671
18437TIP3    H176726   6.092   5.025  11.595
18437TIP3    H276727   6.097   5.037  11.746
18438TIP3   OH276728   0.473   1.199  15.526
18438TIP3    H176729   0.391   1.178  15.481
18438TIP3    H276730   0.506   1.276  15.480
18439TIP3   OH276731   1.632   5.874   3.090
18439TIP3    H176732   1.616   5.964   3.062
18439TIP3    H276733   1.575   5.862   3.166
18440TIP3   OH276734   4.888   0.168  13.907
18440TIP3    H176735   4.961   0.179  13.846
18440TIP3    H276736   4.818   0.221  13.871
18441TIP3   OH276737   0.195   5.565  15.324
18441TIP3    H176738   0.149   5.562  15.408
18441TIP3    H276739   0.129   5.541  15.259
18442TIP3   OH276740   4.828   0.876  14.461
18442TIP3    H176741   4.744   0.919  14.443
18442TIP3    H276742   4.879   0.943  14.508
18443TIP3   OH276743   5.299   3.664  14.302
18443TIP3    H176744   5.339   3.739  14.257
18443TIP3    H276745   5.311   3.682  14.395
18444TIP3   OH276746   5.655   1.608   3.669
18444TIP3    H176747   5.577   1.594   3.723
18444TIP3    H276748   5.625   1.661   3.596
18445TIP3   OH276749   2.317   2.270   2.882
18445TIP3    H176750   2.411   2.277   2.900
18445TIP3    H276751   2.299   2.176   2.883
18446TIP3   OH276752   5.272   0.390   2.867
18446TIP3    H176753   5.358   0.379   2.826
18446TIP3    H276754   5.262   0.313   2.923
18447TIP3   OH276755   2.515   6.500   3.310
18447TIP3    H176756   2.434   6.508   3.361
18447TIP3    H276757   2.507   6.416   3.266
18448TIP3   OH276758   4.091   4.409  13.616
18448TIP3    H176759   4.141   4.471  13.563
18448TIP3    H276760   4.154   4.376  13.680
18449TIP3   OH276761   2.979   3.935  13.923
18449TIP3    H176762   2.966   4.006  13.986
18449TIP3    H276763   3.069   3.907  13.936
18450TIP3   OH276764   5.009   0.425  10.535
18450TIP3    H176765   5.008   0.516  10.564
18450TIP3    H276766   4.927   0.413  10.488
18451TIP3   OH276767   3.920   5.051   0.929
18451TIP3    H176768   3.853   5.103   0.886
18451TIP3    H276769   3.876   4.971   0.957
18452TIP3   OH276770   0.151   6.179  13.941
18452TIP3    H176771   0.085   6.247  13.928
18452TIP3    H276772   0.232   6.227  13.961
18453TIP3   OH276773   0.360   3.486   2.957
18453TIP3    H176774   0.420   3.560   2.950
18453TIP3    H276775   0.299   3.511   3.026
18454TIP3   OH276776   6.440   1.164   4.056
18454TIP3    H176777   6.441   1.243   4.109
18454TIP3    H276778   6.347   1.151   4.034
18455TIP3   OH276779   6.749   3.404   2.262
18455TIP3    H176780   6.668   3.377   2.220
18455TIP3    H276781   6.771   3.331   2.321
18456TIP3   OH276782   0.450   3.266  16.285
18456TIP3    H176783   0.512   3.309  16.345
18456TIP3    H276784   0.364   3.300  16.313
18457TIP3   OH276785   0.141   2.317  12.940
18457TIP3    H176786   0.208   2.381  12.917
18457TIP3    H276787   0.079   2.319  12.868
18458TIP3   OH276788   6.163   5.020  13.656
18458TIP3    H176789   6.097   5.036  13.723
18458TIP3    H276790   6.227   4.962  13.699
18459TIP3   OH276791   4.988   6.172  14.032
18459TIP3    H176792   5.029   6.112  13.970
18459TIP3    H276793   5.054   6.188  14.099
18460TIP3   OH276794   1.505   0.741   4.588
18460TIP3    H176795   1.478   0.670   4.646
18460TIP3    H276796   1.423   0.778   4.556
18461TIP3   OH276797   1.846   3.576   0.005
18461TIP3    H176798   1.886   3.549  -0.078
18461TIP3    H276799   1.758   3.539   0.002
18462TIP3   OH276800   1.370   5.436   0.842
18462TIP3    H176801   1.444   5.437   0.902
18462TIP3    H276802   1.397   5.376   0.772
18463TIP3   OH276803   4.878   3.139  16.700
18463TIP3    H176804   4.813   3.200  16.735
18463TIP3    H276805   4.962   3.178  16.723
18464TIP3   OH276806   5.301   2.234  13.325
18464TIP3    H176807   5.295   2.260  13.233
18464TIP3    H276808   5.376   2.284  13.359
18465TIP3   OH276809   4.471   0.365  11.941
18465TIP3    H176810   4.410   0.365  12.015
18465TIP3    H276811   4.547   0.413  11.974
18466TIP3   OH276812   2.400   0.777  13.821
18466TIP3    H176813   2.481   0.783  13.771
18466TIP3    H276814   2.424   0.813  13.907
18467TIP3   OH276815   4.929   6.663   1.603
18467TIP3    H176816   4.868   6.630   1.668
18467TIP3    H276817   5.008   6.684   1.653
18468TIP3   OH276818   0.357   3.799   3.595
18468TIP3    H176819   0.360   3.849   3.514
18468TIP3    H276820   0.296   3.727   3.577
18469TIP3   OH276821   1.808   0.093   2.628
18469TIP3    H176822   1.726   0.044   2.637
18469TIP3    H276823   1.833   0.115   2.718
18470TIP3   OH276824   2.930   3.972  13.114
18470TIP3    H176825   2.884   4.014  13.041
18470TIP3    H276826   3.023   3.988  13.096
18471TIP3   OH276827   6.714   4.811   2.331
18471TIP3    H176828   6.730   4.774   2.244
18471TIP3    H276829   6.633   4.862   2.321
18472TIP3   OH276830   1.292   2.345   1.659
18472TIP3    H176831   1.209   2.392   1.648
18472TIP3    H276832   1.300   2.290   1.582
18473TIP3   OH276833   4.968   4.825   2.754
18473TIP3    H176834   5.041   4.801   2.811
18473TIP3    H276835   4.973   4.920   2.748
18474TIP3   OH276836   2.353   4.939   1.277
18474TIP3    H176837   2.415   4.933   1.204
18474TIP3    H276838   2.296   5.012   1.253
18475TIP3   OH276839   6.625   0.726   6.622
18475TIP3    H176840   6.627   0.747   6.715
18475TIP3    H276841   6.698   0.665   6.609
18476TIP3   OH276842   4.773   0.663  14.272
18476TIP3    H176843   4.778   0.732  14.338
18476TIP3    H276844   4.860   0.622  14.273
18477TIP3   OH276845   6.316   6.037  16.821
18477TIP3    H176846   6.236   6.049  16.872
18477TIP3    H276847   6.331   6.122  16.779
18478TIP3   OH276848   3.387   6.525   5.358
18478TIP3    H176849   3.476   6.489   5.356
18478TIP3    H276850   3.358   6.512   5.448
18479TIP3   OH276851   0.577   3.164   2.546
18479TIP3    H176852   0.610   3.153   2.635
18479TIP3    H276853   0.582   3.077   2.507
18480TIP3   OH276854   2.542   5.590  16.177
18480TIP3    H176855   2.463   5.634  16.209
18480TIP3    H276856   2.596   5.661  16.143
18481TIP3   OH276857   6.409   2.945  12.565
18481TIP3    H176858   6.319   2.956  12.535
18481TIP3    H276859   6.401   2.886  12.641
18482TIP3   OH276860   5.372   4.140   4.537
18482TIP3    H176861   5.413   4.195   4.604
18482TIP3    H276862   5.432   4.143   4.462
18483TIP3   OH276863   4.865   4.719  13.371
18483TIP3    H176864   4.788   4.673  13.403
18483TIP3    H276865   4.856   4.808  13.404
18484TIP3   OH276866   4.033   0.228   5.597
18484TIP3    H176867   4.054   0.307   5.646
18484TIP3    H276868   4.110   0.172   5.609
18485TIP3   OH276869   1.383   1.097   4.543
18485TIP3    H176870   1.478   1.082   4.544
18485TIP3    H276871   1.373   1.184   4.505
18486TIP3   OH276872   2.947   0.821   3.238
18486TIP3    H176873   3.007   0.802   3.310
18486TIP3    H276874   2.892   0.892   3.271
18487TIP3   OH276875   3.705   6.539  12.096
18487TIP3    H176876   3.637   6.475  12.117
18487TIP3    H276877   3.664   6.596  12.031
18488TIP3   OH276878   1.726   0.077   0.911
18488TIP3    H176879   1.781   0.024   0.969
18488TIP3    H276880   1.675   0.012   0.861
18489TIP3   OH276881   1.784   0.341  16.704
18489TIP3    H176882   1.821   0.262  16.664
18489TIP3    H276883   1.723   0.308  16.770
18490TIP3   OH276884   3.367   1.477  15.178
18490TIP3    H176885   3.447   1.502  15.133
18490TIP3    H276886   3.353   1.545  15.244
18491TIP3   OH276887   5.408   5.654   5.595
18491TIP3    H176888   5.334   5.697   5.637
18491TIP3    H276889   5.427   5.579   5.652
18492TIP3   OH276890   4.361   1.540  17.039
18492TIP3    H176891   4.353   1.595  17.117
18492TIP3    H276892   4.429   1.582  16.987
18493TIP3   OH276893   6.579   2.074  15.789
18493TIP3    H176894   6.597   2.154  15.839
18493TIP3    H276895   6.665   2.046  15.757
18494TIP3   OH276896   6.591   5.340   5.475
18494TIP3    H176897   6.681   5.371   5.461
18494TIP3    H276898   6.573   5.283   5.400
18495TIP3   OH276899   3.534   6.210   4.635
18495TIP3    H176900   3.471   6.139   4.648
18495TIP3    H276901   3.503   6.256   4.557
18496TIP3   OH276902   5.767   1.990  14.512
18496TIP3    H176903   5.679   1.952  14.513
18496TIP3    H276904   5.821   1.923  14.471
18497TIP3   OH276905   6.295   2.674   3.286
18497TIP3    H176906   6.338   2.695   3.203
18497TIP3    H276907   6.277   2.580   3.280
18498TIP3   OH276908   1.037   2.691   2.787
18498TIP3    H176909   1.096   2.728   2.721
18498TIP3    H276910   1.082   2.705   2.870
18499TIP3   OH276911   5.743   5.315  12.179
18499TIP3    H176912   5.716   5.379  12.244
18499TIP3    H276913   5.720   5.354  12.095
18500TIP3   OH276914   6.720   4.347  13.605
18500TIP3    H176915   6.642   4.306  13.567
18500TIP3    H276916   6.689   4.383  13.688
18501TIP3   OH276917   5.487   1.348   5.750
18501TIP3    H176918   5.412   1.300   5.784
18501TIP3    H276919   5.507   1.305   5.667
18502TIP3   OH276920   5.950   1.550   2.045
18502TIP3    H176921   6.014   1.526   1.978
18502TIP3    H276922   5.885   1.603   1.999
18503TIP3   OH276923   2.539   1.881  12.852
18503TIP3    H176924   2.577   1.949  12.797
18503TIP3    H276925   2.457   1.857  12.807
18504TIP3   OH276926   2.585   4.301   4.699
18504TIP3    H176927   2.526   4.348   4.757
18504TIP3    H276928   2.672   4.314   4.737
18505TIP3   OH276929   3.098   2.702  11.221
18505TIP3    H176930   3.103   2.707  11.317
18505TIP3    H276931   3.188   2.684  11.193
18506TIP3   OH276932   6.664   1.744   4.688
18506TIP3    H176933   6.700   1.809   4.626
18506TIP3    H276934   6.647   1.667   4.634
18507TIP3   OH276935   0.353   3.183  15.867
18507TIP3    H176936   0.371   3.174  15.773
18507TIP3    H276937   0.323   3.273  15.877
18508TIP3   OH276938   5.663   5.421  13.543
18508TIP3    H176939   5.641   5.494  13.486
18508TIP3    H276940   5.613   5.347  13.508
18509TIP3   OH276941   4.437   0.106  12.439
18509TIP3    H176942   4.437   0.152  12.355
18509TIP3    H276943   4.513   0.141  12.486
18510TIP3   OH276944   6.316   3.934   0.653
18510TIP3    H176945   6.332   3.950   0.746
18510TIP3    H276946   6.227   3.966   0.638
18511TIP3   OH276947   4.950   6.396   0.266
18511TIP3    H176948   4.910   6.449   0.335
18511TIP3    H276949   4.978   6.316   0.310
18512TIP3   OH276950   0.801   0.202  12.012
18512TIP3    H176951   0.819   0.110  11.992
18512TIP3    H276952   0.738   0.199  12.084
18513TIP3   OH276953   1.005   6.336  12.677
18513TIP3    H176954   1.025   6.423  12.713
18513TIP3    H276955   0.954   6.293  12.746
18514TIP3   OH276956   3.150   5.836   2.060
18514TIP3    H176957   3.137   5.844   1.966
18514TIP3    H276958   3.145   5.925   2.094
18515TIP3   OH276959   3.186   5.580  15.903
18515TIP3    H176960   3.161   5.531  15.826
18515TIP3    H276961   3.153   5.529  15.977
18516TIP3   OH276962   3.271   4.923  15.408
18516TIP3    H176963   3.292   4.850  15.466
18516TIP3    H276964   3.347   4.930  15.351
18517TIP3   OH276965   6.201   0.217  16.087
18517TIP3    H176966   6.260   0.241  16.016
18517TIP3    H276967   6.129   0.171  16.044
18518TIP3   OH276968   1.165   6.443  13.870
18518TIP3    H176969   1.245   6.485  13.902
18518TIP3    H276970   1.113   6.514  13.835
18519TIP3   OH276971   0.685   2.092   4.438
18519TIP3    H176972   0.691   2.058   4.349
18519TIP3    H276973   0.660   2.017   4.491
18520TIP3   OH276974   6.729   2.339   2.268
18520TIP3    H176975   6.815   2.307   2.295
18520TIP3    H276976   6.708   2.291   2.188
18521TIP3   OH276977   4.092   0.239   0.890
18521TIP3    H176978   4.031   0.241   0.963
18521TIP3    H276979   4.060   0.306   0.830
18522TIP3   OH276980   1.522   0.974   5.941
18522TIP3    H176981   1.546   1.061   5.910
18522TIP3    H276982   1.554   0.971   6.032
18523TIP3   OH276983   4.966   6.555  15.937
18523TIP3    H176984   5.052   6.548  15.894
18523TIP3    H276985   4.986   6.551  16.030
18524TIP3   OH276986   3.221   6.200  16.999
18524TIP3    H176987   3.169   6.278  17.015
18524TIP3    H276988   3.248   6.207  16.908
18525TIP3   OH276989   2.472   6.386   1.237
18525TIP3    H176990   2.431   6.395   1.323
18525TIP3    H276991   2.423   6.446   1.181
18526TIP3   OH276992   1.991   1.171   5.998
18526TIP3    H176993   2.075   1.202   6.032
18526TIP3    H276994   1.965   1.102   6.058
18527TIP3   OH276995   1.382   0.863   4.296
18527TIP3    H176996   1.336   0.878   4.379
18527TIP3    H276997   1.397   0.951   4.261
18528TIP3   OH276998   3.515   4.450  12.806
18528TIP3    H176999   3.608   4.447  12.785
18528TIP3    H277000   3.502   4.378  12.868
18529TIP3   OH277001   5.636   4.946  12.760
18529TIP3    H177002   5.710   4.935  12.700
18529TIP3    H277003   5.586   4.864  12.751
18530TIP3   OH277004   3.325   5.020   0.530
18530TIP3    H177005   3.308   4.928   0.550
18530TIP3    H277006   3.281   5.068   0.600
18531TIP3   OH277007   5.557   1.773   5.502
18531TIP3    H177008   5.651   1.787   5.485
18531TIP3    H277009   5.546   1.678   5.498
18532TIP3   OH277010   0.996   6.270   0.068
18532TIP3    H177011   1.028   6.347   0.023
18532TIP3    H277012   1.043   6.197   0.028
18533TIP3   OH277013   5.477   1.725  12.099
18533TIP3    H177014   5.447   1.812  12.074
18533TIP3    H277015   5.555   1.741  12.152
18534TIP3   OH277016   4.984   6.382  12.760
18534TIP3    H177017   4.910   6.401  12.817
18534TIP3    H277018   4.977   6.446  12.689
18535TIP3   OH277019   6.388   4.383   4.188
18535TIP3    H177020   6.439   4.363   4.110
18535TIP3    H277021   6.327   4.310   4.197
18536TIP3   OH277022   0.301   6.719  14.974
18536TIP3    H177023   0.294   6.633  15.016
18536TIP3    H277024   0.234   6.772  15.017
18537TIP3   OH277025   0.855   6.463   5.553
18537TIP3    H177026   0.813   6.387   5.594
18537TIP3    H277027   0.837   6.536   5.614
18538TIP3   OH277028   1.484   0.642   3.724
18538TIP3    H177029   1.575   0.634   3.752
18538TIP3    H277030   1.437   0.577   3.776
18539TIP3   OH277031   6.337   6.384  11.773
18539TIP3    H177032   6.315   6.427  11.690
18539TIP3    H277033   6.325   6.452  11.839
18540TIP3   OH277034   0.844   3.098   1.199
18540TIP3    H177035   0.903   3.121   1.127
18540TIP3    H277036   0.766   3.062   1.157
18541TIP3   OH277037   2.459   6.629  14.206
18541TIP3    H177038   2.395   6.567  14.239
18541TIP3    H277039   2.428   6.714  14.237
18542TIP3   OH277040   4.028   3.222   3.236
18542TIP3    H177041   3.934   3.201   3.240
18542TIP3    H277042   4.053   3.235   3.327
18543TIP3   OH277043   5.121   5.721   6.235
18543TIP3    H177044   5.095   5.683   6.319
18543TIP3    H277045   5.152   5.809   6.257
18544TIP3   OH277046   2.940   1.194  13.544
18544TIP3    H177047   2.878   1.265  13.528
18544TIP3    H277048   2.889   1.127  13.589
18545TIP3   OH277049   3.941   2.521   5.123
18545TIP3    H177050   4.008   2.588   5.115
18545TIP3    H277051   3.986   2.439   5.102
18546TIP3   OH277052   4.496   2.481   1.368
18546TIP3    H177053   4.499   2.385   1.371
18546TIP3    H277054   4.420   2.501   1.313
18547TIP3   OH277055   4.982   6.008  12.678
18547TIP3    H177056   4.994   5.929  12.626
18547TIP3    H277057   4.894   6.000  12.715
18548TIP3   OH277058   0.673   4.099   5.572
18548TIP3    H177059   0.592   4.105   5.623
18548TIP3    H277060   0.660   4.023   5.515
18549TIP3   OH277061   3.010   1.322   1.548
18549TIP3    H177062   3.100   1.347   1.526
18549TIP3    H277063   2.990   1.373   1.627
18550TIP3   OH277064   0.721   3.320   4.107
18550TIP3    H177065   0.752   3.406   4.079
18550TIP3    H277066   0.751   3.260   4.038
18551TIP3   OH277067   2.838   2.997  12.010
18551TIP3    H177068   2.907   2.956  12.062
18551TIP3    H277069   2.756   2.967  12.049
18552TIP3   OH277070   2.467   5.004  11.969
18552TIP3    H177071   2.559   4.981  11.952
18552TIP3    H277072   2.424   4.993  11.884
18553TIP3   OH277073   6.253   5.239  17.027
18553TIP3    H177074   6.190   5.301  17.064
18553TIP3    H277075   6.323   5.295  16.993
18554TIP3   OH277076   3.786   0.731   3.326
18554TIP3    H177077   3.848   0.674   3.281
18554TIP3    H277078   3.736   0.673   3.382
18555TIP3   OH277079   4.994   5.695   3.230
18555TIP3    H177080   5.050   5.766   3.262
18555TIP3    H277081   4.931   5.680   3.300
18556TIP3   OH277082   6.058   0.840  14.207
18556TIP3    H177083   6.073   0.933  14.189
18556TIP3    H277084   6.145   0.800  14.199
18557TIP3   OH277085   1.605   4.405   3.148
18557TIP3    H177086   1.559   4.436   3.069
18557TIP3    H277087   1.689   4.372   3.115
18558TIP3   OH277088   3.480   1.399   5.565
18558TIP3    H177089   3.386   1.390   5.551
18558TIP3    H277090   3.513   1.310   5.572
18559TIP3   OH277091   4.324   6.316   1.789
18559TIP3    H177092   4.262   6.389   1.781
18559TIP3    H277093   4.276   6.240   1.757
18560TIP3   OH277094   1.204   6.351  16.082
18560TIP3    H177095   1.292   6.361  16.044
18560TIP3    H277096   1.179   6.261  16.061
18561TIP3   OH277097   6.377   4.422   1.043
18561TIP3    H177098   6.425   4.484   0.990
18561TIP3    H277099   6.285   4.437   1.021
18562TIP3   OH277100   2.962   2.188   1.359
18562TIP3    H177101   2.984   2.098   1.384
18562TIP3    H277102   3.045   2.224   1.326
18563TIP3   OH277103   4.368   0.674  12.152
18563TIP3    H177104   4.414   0.729  12.089
18563TIP3    H277105   4.356   0.730  12.229
18564TIP3   OH277106   4.461   5.821  12.891
18564TIP3    H177107   4.463   5.915  12.907
18564TIP3    H277108   4.384   5.791  12.940
18565TIP3   OH277109   1.699   2.129  11.116
18565TIP3    H177110   1.734   2.160  11.033
18565TIP3    H277111   1.696   2.207  11.172
18566TIP3   OH277112   0.199   3.966  12.368
18566TIP3    H177113   0.182   4.053  12.333
18566TIP3    H277114   0.255   3.981  12.444
18567TIP3   OH277115   1.933   0.101   1.346
18567TIP3    H177116   2.000   0.086   1.413
18567TIP3    H277117   1.897   0.014   1.328
18568TIP3   OH277118   1.004   0.018   2.397
18568TIP3    H177119   1.094   0.010   2.427
18568TIP3    H277120   0.963  -0.066   2.419
18569TIP3   OH277121   6.185   0.346   4.215
18569TIP3    H177122   6.125   0.303   4.277
18569TIP3    H277123   6.197   0.282   4.145
18570TIP3   OH277124   4.550   4.297  12.368
18570TIP3    H177125   4.479   4.248  12.410
18570TIP3    H277126   4.571   4.366  12.431
18571TIP3   OH277127   4.904   2.381  11.543
18571TIP3    H177128   4.838   2.311  11.549
18571TIP3    H277129   4.965   2.350  11.476
18572TIP3   OH277130   0.055   2.407   1.115
18572TIP3    H177131   0.073   2.412   1.208
18572TIP3    H277132   0.140   2.388   1.075
18573TIP3   OH277133   3.052   5.568  11.423
18573TIP3    H177134   3.041   5.518  11.504
18573TIP3    H277135   3.116   5.518  11.373
18574TIP3   OH277136   2.291   5.850   4.637
18574TIP3    H177137   2.230   5.792   4.591
18574TIP3    H277138   2.342   5.792   4.693
18575TIP3   OH277139   2.261   3.727  16.004
18575TIP3    H177140   2.300   3.650  16.046
18575TIP3    H277141   2.239   3.697  15.915
18576TIP3   OH277142   1.612   0.369   5.122
18576TIP3    H177143   1.682   0.430   5.096
18576TIP3    H277144   1.647   0.282   5.103
18577TIP3   OH277145   2.057   4.960   2.561
18577TIP3    H177146   2.010   4.952   2.478
18577TIP3    H277147   2.002   4.912   2.624
18578TIP3   OH277148   1.485   0.271   5.715
18578TIP3    H177149   1.431   0.320   5.653
18578TIP3    H277150   1.426   0.251   5.788
18579TIP3   OH277151   4.906   4.495   2.148
18579TIP3    H177152   4.920   4.569   2.089
18579TIP3    H277153   4.845   4.438   2.102
18580TIP3   OH277154   5.214   6.090  11.281
18580TIP3    H177155   5.218   6.012  11.336
18580TIP3    H277156   5.121   6.104  11.264
18581TIP3   OH277157   1.605   5.114   4.161
18581TIP3    H177158   1.606   5.084   4.070
18581TIP3    H277159   1.553   5.048   4.207
18582TIP3   OH277160   2.660   5.517   1.928
18582TIP3    H177161   2.753   5.495   1.919
18582TIP3    H277162   2.625   5.451   1.988
18583TIP3   OH277163   4.605   5.846   4.219
18583TIP3    H177164   4.611   5.938   4.196
18583TIP3    H277165   4.544   5.843   4.293
18584TIP3   OH277166   0.490   3.155  13.934
18584TIP3    H177167   0.517   3.185  14.021
18584TIP3    H277168   0.491   3.233  13.880
18585TIP3   OH277169   0.623   3.018   4.050
18585TIP3    H177170   0.576   3.079   4.106
18585TIP3    H277171   0.555   2.972   4.001
18586TIP3   OH277172   5.916   0.882  13.513
18586TIP3    H177173   6.006   0.897  13.485
18586TIP3    H277174   5.914   0.913  13.603
18587TIP3   OH277175   6.383   3.802  16.654
18587TIP3    H177176   6.462   3.774  16.700
18587TIP3    H277177   6.325   3.726  16.658
18588TIP3   OH277178   4.371   3.141  15.168
18588TIP3    H177179   4.315   3.218  15.170
18588TIP3    H277180   4.453   3.170  15.208
18589TIP3   OH277181   0.767   6.382   3.411
18589TIP3    H177182   0.814   6.456   3.373
18589TIP3    H277183   0.832   6.313   3.417
18590TIP3   OH277184   2.469   6.607  17.191
18590TIP3    H177185   2.496   6.697  17.212
18590TIP3    H277186   2.403   6.586  17.256
18591TIP3   OH277187   2.077   3.408   3.140
18591TIP3    H177188   2.142   3.385   3.074
18591TIP3    H277189   2.063   3.502   3.129
18592TIP3   OH277190   1.318   1.200  14.763
18592TIP3    H177191   1.298   1.111  14.792
18592TIP3    H277192   1.257   1.256  14.811
18593TIP3   OH277193   5.427   1.497   0.429
18593TIP3    H177194   5.504   1.527   0.477
18593TIP3    H277195   5.457   1.419   0.382
18594TIP3   OH277196   6.751   4.302  15.786
18594TIP3    H177197   6.702   4.291  15.867
18594TIP3    H277198   6.802   4.382  15.799
18595TIP3   OH277199   1.983   5.427  16.457
18595TIP3    H177200   1.998   5.489  16.386
18595TIP3    H277201   1.967   5.344  16.412
18596TIP3   OH277202   4.868   1.487  14.676
18596TIP3    H177203   4.832   1.490  14.765
18596TIP3    H277204   4.869   1.394  14.653
18597TIP3   OH277205   6.026   6.135   4.854
18597TIP3    H177206   6.078   6.190   4.796
18597TIP3    H277207   5.947   6.116   4.804
18598TIP3   OH277208   5.686   0.191   1.184
18598TIP3    H177209   5.746   0.244   1.132
18598TIP3    H277210   5.694   0.103   1.147
18599TIP3   OH277211   0.177   5.198   0.521
18599TIP3    H177212   0.248   5.204   0.458
18599TIP3    H277213   0.163   5.104   0.534
18600TIP3   OH277214   5.911   2.989   4.638
18600TIP3    H177215   5.925   2.917   4.700
18600TIP3    H277216   5.817   3.006   4.643
18601TIP3   OH277217   2.443   3.011  13.948
18601TIP3    H177218   2.449   2.979  14.038
18601TIP3    H277219   2.498   3.089  13.947
18602TIP3   OH277220   4.663   1.706  12.761
18602TIP3    H177221   4.603   1.646  12.805
18602TIP3    H277222   4.644   1.696  12.668
18603TIP3   OH277223   6.102   4.696  11.816
18603TIP3    H177224   6.061   4.638  11.752
18603TIP3    H277225   6.194   4.670  11.816
18604TIP3   OH277226   2.499   5.228   3.690
18604TIP3    H177227   2.484   5.135   3.704
18604TIP3    H277228   2.531   5.261   3.774
18605TIP3   OH277229   3.569   2.561  13.829
18605TIP3    H177230   3.629   2.551  13.755
18605TIP3    H277231   3.531   2.648  13.818
18606TIP3   OH277232   4.631   6.412  13.082
18606TIP3    H177233   4.554   6.460  13.113
18606TIP3    H277234   4.620   6.324  13.119
18607TIP3   OH277235   4.737   1.982  13.566
18607TIP3    H177236   4.686   2.060  13.588
18607TIP3    H277237   4.790   1.965  13.644
18608TIP3   OH277238   1.383   4.059  13.093
18608TIP3    H177239   1.394   4.140  13.142
18608TIP3    H277240   1.338   4.085  13.013
18609TIP3   OH277241   4.365   2.776   4.278
18609TIP3    H177242   4.433   2.713   4.301
18609TIP3    H277243   4.305   2.774   4.352
18610TIP3   OH277244   0.736   5.314   1.910
18610TIP3    H177245   0.737   5.363   1.992
18610TIP3    H277246   0.674   5.360   1.855
18611TIP3   OH277247   6.064   1.514   0.152
18611TIP3    H177248   6.083   1.488   0.242
18611TIP3    H277249   6.044   1.607   0.158
18612TIP3   OH277250   4.687   4.692  16.293
18612TIP3    H177251   4.667   4.602  16.320
18612TIP3    H277252   4.782   4.693  16.281
18613TIP3   OH277253   3.606   6.489   1.391
18613TIP3    H177254   3.515   6.473   1.415
18613TIP3    H277255   3.601   6.536   1.307
18614TIP3   OH277256   2.529   4.376  17.208
18614TIP3    H177257   2.622   4.400  17.202
18614TIP3    H277258   2.529   4.296  17.261
18615TIP3   OH277259   2.403   6.089   4.718
18615TIP3    H177260   2.340   6.149   4.679
18615TIP3    H277261   2.357   6.005   4.723
18616TIP3   OH277262   4.100   4.614  16.351
18616TIP3    H177263   4.105   4.681  16.282
18616TIP3    H277264   4.029   4.556  16.323
18617TIP3   OH277265   5.443   1.944  11.052
18617TIP3    H177266   5.458   1.851  11.066
18617TIP3    H277267   5.393   1.948  10.971
18618TIP3   OH277268   4.053   5.969  14.821
18618TIP3    H177269   4.047   5.916  14.900
18618TIP3    H277270   4.066   6.059  14.854
18619TIP3   OH277271   6.689   4.848   1.691
18619TIP3    H177272   6.670   4.777   1.752
18619TIP3    H277273   6.719   4.803   1.611
18620TIP3   OH277274   6.605   4.890  11.156
18620TIP3    H177275   6.696   4.905  11.130
18620TIP3    H277276   6.574   4.975  11.188
18621TIP3   OH277277   1.612   1.217  11.490
18621TIP3    H177278   1.560   1.276  11.435
18621TIP3    H277279   1.661   1.163  11.427
18622TIP3   OH277280   4.469   0.956  16.134
18622TIP3    H177281   4.448   0.863  16.132
18622TIP3    H277282   4.542   0.965  16.072
18623TIP3   OH277283   4.917   4.448  16.794
18623TIP3    H177284   4.932   4.406  16.709
18623TIP3    H277285   4.970   4.527  16.792
18624TIP3   OH277286   2.761   1.101   0.264
18624TIP3    H177287   2.742   1.011   0.291
18624TIP3    H277288   2.679   1.132   0.226
18625TIP3   OH277289   0.830   3.509  16.620
18625TIP3    H177290   0.919   3.512  16.655
18625TIP3    H277291   0.803   3.600  16.613
18626TIP3   OH277292   1.505   3.161  14.542
18626TIP3    H177293   1.451   3.208  14.478
18626TIP3    H277294   1.443   3.107  14.591
18627TIP3   OH277295   4.571   2.266   0.608
18627TIP3    H177296   4.512   2.213   0.554
18627TIP3    H277297   4.659   2.236   0.583
18628TIP3   OH277298   2.155   0.370   2.721
18628TIP3    H177299   2.123   0.350   2.809
18628TIP3    H277300   2.078   0.402   2.674
18629TIP3   OH277301   5.556   6.491  13.646
18629TIP3    H177302   5.593   6.528  13.726
18629TIP3    H277303   5.478   6.544  13.629
18630TIP3   OH277304   4.840   4.053  14.844
18630TIP3    H177305   4.849   4.025  14.753
18630TIP3    H277306   4.929   4.069  14.874
18631TIP3   OH277307   4.356   2.532  16.313
18631TIP3    H177308   4.372   2.593  16.241
18631TIP3    H277309   4.379   2.582  16.392
18632TIP3   OH277310   5.127   5.125  13.694
18632TIP3    H177311   5.221   5.136  13.680
18632TIP3    H277312   5.118   5.115  13.788
18633TIP3   OH277313   2.979   4.771  16.886
18633TIP3    H177314   2.960   4.687  16.928
18633TIP3    H277315   2.932   4.768  16.803
18634TIP3   OH277316   5.175   2.679  14.398
18634TIP3    H177317   5.242   2.747  14.396
18634TIP3    H277318   5.216   2.603  14.357
18635TIP3   OH277319   0.760   0.960  15.921
18635TIP3    H177320   0.759   0.996  15.833
18635TIP3    H277321   0.799   0.874  15.912
18636TIP3   OH277322   6.667   2.720   6.157
18636TIP3    H177323   6.636   2.666   6.230
18636TIP3    H277324   6.589   2.737   6.105
18637TIP3   OH277325   2.762   0.229  15.674
18637TIP3    H177326   2.766   0.295  15.604
18637TIP3    H277327   2.854   0.213  15.696
18638TIP3   OH277328   1.202   3.987   0.030
18638TIP3    H177329   1.203   4.038  -0.051
18638TIP3    H277330   1.257   3.911   0.012
18639TIP3   OH277331   6.321   2.513  14.438
18639TIP3    H177332   6.393   2.543  14.493
18639TIP3    H277333   6.268   2.592  14.424
18640TIP3   OH277334   4.654   6.188   0.711
18640TIP3    H177335   4.660   6.177   0.806
18640TIP3    H277336   4.743   6.212   0.684
18641TIP3   OH277337   1.317   0.449   4.540
18641TIP3    H177338   1.293   0.412   4.455
18641TIP3    H277339   1.249   0.514   4.558
18642TIP3   OH277340   3.895   4.678   2.482
18642TIP3    H177341   3.985   4.672   2.448
18642TIP3    H277342   3.860   4.590   2.471
18643TIP3   OH277343   0.332   3.965   3.170
18643TIP3    H177344   0.321   3.872   3.192
18643TIP3    H277345   0.248   4.005   3.193
18644TIP3   OH277346   3.366   1.507  16.318
18644TIP3    H177347   3.458   1.503  16.344
18644TIP3    H277348   3.342   1.416  16.301
18645TIP3   OH277349   4.995   2.022   0.710
18645TIP3    H177350   5.050   1.973   0.648
18645TIP3    H277351   5.020   1.990   0.796
18646TIP3   OH277352   2.713   4.337   5.436
18646TIP3    H177353   2.779   4.402   5.412
18646TIP3    H277354   2.763   4.255   5.447
18647TIP3   OH277355   3.882   5.055   2.953
18647TIP3    H177356   3.977   5.044   2.945
18647TIP3    H277357   3.845   4.988   2.895
18648TIP3   OH277358   5.894   4.662  12.920
18648TIP3    H177359   5.982   4.654  12.958
18648TIP3    H277360   5.882   4.756  12.908
18649TIP3   OH277361   2.836   1.169   4.968
18649TIP3    H177362   2.802   1.236   5.028
18649TIP3    H277363   2.899   1.119   5.021
18650TIP3   OH277364   0.650   0.763   6.111
18650TIP3    H177365   0.665   0.822   6.186
18650TIP3    H277366   0.726   0.777   6.055
18651TIP3   OH277367   5.749   5.584   0.761
18651TIP3    H177368   5.829   5.559   0.714
18651TIP3    H277369   5.709   5.500   0.786
18652TIP3   OH277370   2.525   1.272   3.276
18652TIP3    H177371   2.565   1.307   3.356
18652TIP3    H277372   2.576   1.311   3.205
18653TIP3   OH277373   2.650   6.455  12.517
18653TIP3    H177374   2.709   6.389  12.554
18653TIP3    H277375   2.578   6.404  12.480
18654TIP3   OH277376   5.646   2.988   1.499
18654TIP3    H177377   5.660   2.955   1.588
18654TIP3    H277378   5.717   2.949   1.447
18655TIP3   OH277379   4.062   4.753   6.515
18655TIP3    H177380   4.129   4.812   6.481
18655TIP3    H277381   4.040   4.697   6.440
18656TIP3   OH277382   4.552   0.339  14.406
18656TIP3    H177383   4.552   0.395  14.484
18656TIP3    H277384   4.645   0.323  14.388
18657TIP3   OH277385   2.081   2.685  14.912
18657TIP3    H177386   2.147   2.709  14.977
18657TIP3    H277387   2.000   2.726  14.944
18658TIP3   OH277388   2.420   6.158   5.549
18658TIP3    H177389   2.512   6.183   5.540
18658TIP3    H277390   2.387   6.153   5.459
18659TIP3   OH277391   0.539   3.937   2.981
18659TIP3    H177392   0.473   3.943   3.051
18659TIP3    H277393   0.581   4.023   2.981
18660TIP3   OH277394   0.523   4.751  15.006
18660TIP3    H177395   0.510   4.692  15.080
18660TIP3    H277396   0.472   4.712  14.935
18661TIP3   OH277397   1.356   5.352   4.160
18661TIP3    H177398   1.329   5.431   4.113
18661TIP3    H277399   1.447   5.369   4.185
18662TIP3   OH277400   1.789   5.446   1.161
18662TIP3    H177401   1.707   5.398   1.153
18662TIP3    H277402   1.785   5.487   1.247
18663TIP3   OH277403   4.809   3.759  16.205
18663TIP3    H177404   4.879   3.738  16.143
18663TIP3    H277405   4.732   3.774  16.151
18664TIP3   OH277406   2.173   0.966   5.809
18664TIP3    H177407   2.206   1.011   5.887
18664TIP3    H277408   2.140   1.037   5.753
18665TIP3   OH277409   6.733   3.007   6.101
18665TIP3    H177410   6.716   2.919   6.134
18665TIP3    H277411   6.795   3.044   6.163
18666TIP3   OH277412   0.369   0.606   1.522
18666TIP3    H177413   0.310   0.637   1.590
18666TIP3    H277414   0.313   0.594   1.445
18667TIP3   OH277415   0.250   6.044  13.183
18667TIP3    H177416   0.238   6.112  13.117
18667TIP3    H277417   0.344   6.041  13.200
18668TIP3   OH277418   4.306   3.887   6.438
18668TIP3    H177419   4.373   3.918   6.377
18668TIP3    H277420   4.324   3.793   6.448
18669TIP3   OH277421   4.637   3.066  14.938
18669TIP3    H177422   4.725   3.079  14.974
18669TIP3    H277423   4.603   3.155  14.926
18670TIP3   OH277424   4.312   2.492   4.057
18670TIP3    H177425   4.383   2.550   4.029
18670TIP3    H277426   4.338   2.464   4.145
18671TIP3   OH277427   5.550   6.644   1.575
18671TIP3    H177428   5.618   6.581   1.552
18671TIP3    H277429   5.468   6.596   1.567
18672TIP3   OH277430   2.347   1.263   6.613
18672TIP3    H177431   2.263   1.264   6.567
18672TIP3    H277432   2.359   1.172   6.640
18673TIP3   OH277433   3.438   1.505   3.892
18673TIP3    H177434   3.532   1.502   3.873
18673TIP3    H277435   3.413   1.595   3.870
18674TIP3   OH277436   4.443   2.445   0.747
18674TIP3    H177437   4.508   2.499   0.794
18674TIP3    H277438   4.496   2.387   0.692
18675TIP3   OH277439   3.779   3.219   4.377
18675TIP3    H177440   3.801   3.188   4.289
18675TIP3    H277441   3.687   3.246   4.371
18676TIP3   OH277442   5.909   3.782  13.457
18676TIP3    H177443   5.897   3.836  13.535
18676TIP3    H277444   5.993   3.810  13.421
18677TIP3   OH277445   4.932   0.251  13.501
18677TIP3    H177446   4.985   0.249  13.581
18677TIP3    H277447   4.988   0.294  13.436
18678TIP3   OH277448   6.264   6.782   0.999
18678TIP3    H177449   6.295   6.760   1.087
18678TIP3    H277450   6.339   6.764   0.942
18679TIP3   OH277451   4.542   0.360  16.370
18679TIP3    H177452   4.540   0.365  16.274
18679TIP3    H277453   4.460   0.402  16.398
18680TIP3   OH277454   4.974   0.783   1.345
18680TIP3    H177455   5.062   0.771   1.380
18680TIP3    H277456   4.981   0.759   1.253
18681TIP3   OH277457   2.008   4.437  16.138
18681TIP3    H177458   2.059   4.449  16.218
18681TIP3    H277459   2.014   4.521  16.092
18682TIP3   OH277460   3.438   4.385   4.669
18682TIP3    H177461   3.369   4.334   4.710
18682TIP3    H277462   3.512   4.380   4.730
18683TIP3   OH277463   6.253   4.594   3.765
18683TIP3    H177464   6.195   4.600   3.689
18683TIP3    H277465   6.208   4.534   3.825
18684TIP3   OH277466   0.701   1.365   0.008
18684TIP3    H177467   0.709   1.298   0.075
18684TIP3    H277468   0.761   1.434   0.035
18685TIP3   OH277469   2.038   5.539   1.847
18685TIP3    H177470   2.012   5.626   1.815
18685TIP3    H277471   2.034   5.547   1.943
18686TIP3   OH277472   3.771   3.089  15.460
18686TIP3    H177473   3.816   3.024  15.405
18686TIP3    H277474   3.745   3.041  15.538
18687TIP3   OH277475   2.487   0.302  14.577
18687TIP3    H177476   2.515   0.315  14.486
18687TIP3    H277477   2.544   0.361  14.628
18688TIP3   OH277478   0.572   2.912   5.374
18688TIP3    H177479   0.478   2.896   5.367
18688TIP3    H277480   0.587   2.929   5.467
18689TIP3   OH277481   0.989   0.687  14.974
18689TIP3    H177482   0.996   0.782  14.964
18689TIP3    H277483   0.898   0.671  14.995
18690TIP3   OH277484   1.816   4.806   5.858
18690TIP3    H177485   1.760   4.767   5.925
18690TIP3    H277486   1.884   4.852   5.907
18691TIP3   OH277487   0.483   4.762   3.982
18691TIP3    H177488   0.454   4.769   4.073
18691TIP3    H277489   0.482   4.852   3.949
18692TIP3   OH277490   3.908   1.154  15.255
18692TIP3    H177491   3.938   1.226  15.200
18692TIP3    H277492   3.816   1.141  15.231
18693TIP3   OH277493   5.004   4.401  11.138
18693TIP3    H177494   5.076   4.463  11.127
18693TIP3    H277495   5.044   4.315  11.120
18694TIP3   OH277496   3.557   0.374   3.144
18694TIP3    H177497   3.538   0.467   3.155
18694TIP3    H277498   3.564   0.362   3.050
18695TIP3   OH277499   2.988   5.284   1.069
18695TIP3    H177500   3.037   5.337   1.131
18695TIP3    H277501   2.992   5.332   0.987
18696TIP3   OH277502   0.330   1.009  11.651
18696TIP3    H177503   0.387   0.995  11.727
18696TIP3    H277504   0.361   1.091  11.612
18697TIP3   OH277505   0.457   2.920  13.781
18697TIP3    H177506   0.493   2.988  13.839
18697TIP3    H277507   0.476   2.838  13.826
18698TIP3   OH277508   1.700   1.928  15.514
18698TIP3    H177509   1.717   1.846  15.561
18698TIP3    H277510   1.628   1.908  15.455
18699TIP3   OH277511   3.394   6.730  11.847
18699TIP3    H177512   3.470   6.735  11.790
18699TIP3    H277513   3.364   6.821  11.855
18700TIP3   OH277514   3.312   6.617  14.399
18700TIP3    H177515   3.303   6.616  14.494
18700TIP3    H277516   3.236   6.665  14.368
18701TIP3   OH277517   2.381   4.398   5.596
18701TIP3    H177518   2.405   4.469   5.657
18701TIP3    H277519   2.399   4.318   5.645
18702TIP3   OH277520   4.773   5.052  15.323
18702TIP3    H177521   4.792   5.064  15.416
18702TIP3    H277522   4.720   5.129  15.299
18703TIP3   OH277523   2.847   6.295  15.702
18703TIP3    H177524   2.896   6.213  15.696
18703TIP3    H277525   2.843   6.328  15.612
18704TIP3   OH277526   1.398   2.512  10.591
18704TIP3    H177527   1.437   2.578  10.533
18704TIP3    H277528   1.316   2.551  10.620
18705TIP3   OH277529   4.449   1.487   0.851
18705TIP3    H177530   4.544   1.491   0.836
18705TIP3    H277531   4.437   1.408   0.904
18706TIP3   OH277532   1.474   3.322  14.121
18706TIP3    H177533   1.467   3.227  14.131
18706TIP3    H277534   1.492   3.354  14.210
18707TIP3   OH277535   5.054   5.144   4.434
18707TIP3    H177536   5.008   5.061   4.426
18707TIP3    H277537   5.068   5.155   4.528
18708TIP3   OH277538   2.383   0.944  16.462
18708TIP3    H177539   2.441   0.881  16.419
18708TIP3    H277540   2.295   0.914  16.439
18709TIP3   OH277541   3.889   4.913  11.520
18709TIP3    H177542   3.826   4.957  11.463
18709TIP3    H277543   3.839   4.893  11.600
18710TIP3   OH277544   0.491   6.053  15.149
18710TIP3    H177545   0.570   6.009  15.119
18710TIP3    H277546   0.440   5.984  15.193
18711TIP3   OH277547   1.798   2.750  11.071
18711TIP3    H177548   1.717   2.704  11.049
18711TIP3    H277549   1.815   2.725  11.162
18712TIP3   OH277550   1.823   5.664   2.573
18712TIP3    H177551   1.771   5.586   2.552
18712TIP3    H277552   1.874   5.680   2.494
18713TIP3   OH277553   3.087   6.154  11.947
18713TIP3    H177554   3.093   6.060  11.962
18713TIP3    H277555   3.164   6.175  11.895
18714TIP3   OH277556   4.716   3.431   3.603
18714TIP3    H177557   4.648   3.463   3.662
18714TIP3    H277558   4.742   3.508   3.552
18715TIP3   OH277559   2.713   5.295   4.905
18715TIP3    H177560   2.730   5.284   4.999
18715TIP3    H277561   2.788   5.252   4.863
18716TIP3   OH277562   2.733   4.370  12.593
18716TIP3    H177563   2.791   4.314  12.645
18716TIP3    H277564   2.791   4.410  12.528
18717TIP3   OH277565   4.508   5.106  12.208
18717TIP3    H177566   4.427   5.087  12.255
18717TIP3    H277567   4.573   5.120  12.276
18718TIP3   OH277568   3.068   5.434  15.690
18718TIP3    H177569   3.052   5.521  15.653
18718TIP3    H277570   2.984   5.388  15.681
18719TIP3   OH277571   2.130   0.607   3.626
18719TIP3    H177572   2.053   0.654   3.595
18719TIP3    H277573   2.202   0.668   3.615
18720TIP3   OH277574   4.049   0.705  16.828
18720TIP3    H177575   4.137   0.740  16.838
18720TIP3    H277576   4.002   0.774  16.779
18721TIP3   OH277577   1.090   2.595   3.626
18721TIP3    H177578   1.052   2.512   3.597
18721TIP3    H277579   1.144   2.572   3.701
18722TIP3   OH277580   0.758   6.428  13.675
18722TIP3    H177581   0.785   6.513  13.640
18722TIP3    H277582   0.674   6.445  13.718
18723TIP3   OH277583   5.553   2.828  16.281
18723TIP3    H177584   5.460   2.804  16.284
18723TIP3    H277585   5.597   2.757  16.329
18724TIP3   OH277586   2.232   3.269   2.977
18724TIP3    H177587   2.309   3.223   3.012
18724TIP3    H277588   2.268   3.328   2.911
18725TIP3   OH277589   5.696   6.710   5.046
18725TIP3    H177590   5.724   6.620   5.062
18725TIP3    H277591   5.736   6.761   5.117
18726TIP3   OH277592   2.145   3.805  12.802
18726TIP3    H177593   2.160   3.786  12.709
18726TIP3    H277594   2.050   3.794  12.813
18727TIP3   OH277595   1.556   0.973  15.332
18727TIP3    H177596   1.529   0.896  15.383
18727TIP3    H277597   1.652   0.966  15.330
18728TIP3   OH277598   4.132   5.659  14.784
18728TIP3    H177599   4.057   5.600  14.775
18728TIP3    H277600   4.119   5.701  14.869
18729TIP3   OH277601   2.667   2.717   2.004
18729TIP3    H177602   2.756   2.686   1.992
18729TIP3    H277603   2.676   2.811   2.018
18730TIP3   OH277604   1.139   3.641  10.373
18730TIP3    H177605   1.158   3.558  10.327
18730TIP3    H277606   1.062   3.622  10.426
18731TIP3   OH277607   3.187   4.530  11.250
18731TIP3    H177608   3.258   4.558  11.306
18731TIP3    H277609   3.227   4.517  11.164
18732TIP3   OH277610   1.220   5.073  11.218
18732TIP3    H177611   1.264   5.070  11.133
18732TIP3    H277612   1.140   5.122  11.201
18733TIP3   OH277613   0.839   2.950  13.566
18733TIP3    H177614   0.924   2.939  13.609
18733TIP3    H277615   0.856   3.009  13.493
18734TIP3   OH277616   0.864   5.001  11.167
18734TIP3    H177617   0.817   5.059  11.107
18734TIP3    H277618   0.941   4.973  11.117
18735TIP3   OH277619   3.090   0.880  11.645
18735TIP3    H177620   3.083   0.815  11.576
18735TIP3    H277621   3.173   0.860  11.688
18736TIP3   OH277622   5.086   4.084   2.385
18736TIP3    H177623   5.109   4.144   2.455
18736TIP3    H277624   5.127   4.001   2.410
18737TIP3   OH277625   2.658   5.328  12.019
18737TIP3    H177626   2.649   5.419  12.046
18737TIP3    H277627   2.579   5.286  12.052
18738TIP3   OH277628   1.922   2.820   2.763
18738TIP3    H177629   2.010   2.856   2.769
18738TIP3    H277630   1.930   2.746   2.702
18739TIP3   OH277631   5.617   3.015   2.584
18739TIP3    H177632   5.600   2.947   2.650
18739TIP3    H277633   5.678   2.974   2.523
18740TIP3   OH277634   4.023   2.932  15.628
18740TIP3    H177635   3.950   2.990  15.647
18740TIP3    H277636   3.984   2.845  15.621
18741TIP3   OH277637   3.347   6.003  14.928
18741TIP3    H177638   3.275   5.953  14.965
18741TIP3    H277639   3.352   6.082  14.982
18742TIP3   OH277640   3.421   3.834   6.100
18742TIP3    H177641   3.335   3.862   6.131
18742TIP3    H277642   3.482   3.899   6.135
18743TIP3   OH277643   1.814   5.701   5.756
18743TIP3    H177644   1.894   5.744   5.786
18743TIP3    H277645   1.843   5.614   5.728
18744TIP3   OH277646   2.806   5.773   6.038
18744TIP3    H177647   2.862   5.812   6.105
18744TIP3    H277648   2.725   5.824   6.042
18745TIP3   OH277649   6.776   4.333   2.354
18745TIP3    H177650   6.753   4.248   2.390
18745TIP3    H277651   6.868   4.323   2.326
18746TIP3   OH277652   1.425   4.572  12.301
18746TIP3    H177653   1.448   4.593  12.391
18746TIP3    H277654   1.443   4.478  12.292
18747TIP3   OH277655   5.936   0.306  15.070
18747TIP3    H177656   5.886   0.349  15.140
18747TIP3    H277657   5.873   0.294  14.999
18748TIP3   OH277658   5.560   6.543  10.826
18748TIP3    H177659   5.521   6.589  10.752
18748TIP3    H277660   5.590   6.460  10.790
18749TIP3   OH277661   2.608   4.488  15.439
18749TIP3    H177662   2.573   4.420  15.381
18749TIP3    H277663   2.588   4.455  15.527
18750TIP3   OH277664   0.464   5.013  13.220
18750TIP3    H177665   0.375   4.980  13.220
18750TIP3    H277666   0.502   4.982  13.138
18751TIP3   OH277667   5.525   2.398  13.328
18751TIP3    H177668   5.462   2.440  13.270
18751TIP3    H277669   5.595   2.369  13.271
18752TIP3   OH277670   1.311   0.190   5.962
18752TIP3    H177671   1.396   0.208   6.002
18752TIP3    H277672   1.314   0.098   5.939
18753TIP3   OH277673   6.524   3.589  13.176
18753TIP3    H177674   6.586   3.656  13.204
18753TIP3    H277675   6.550   3.510  13.224
18754TIP3   OH277676   4.357   3.160   0.132
18754TIP3    H177677   4.434   3.114   0.099
18754TIP3    H277678   4.387   3.201   0.213
18755TIP3   OH277679   0.690   1.649  14.224
18755TIP3    H177680   0.739   1.567  14.234
18755TIP3    H277681   0.757   1.717  14.218
18756TIP3   OH277682   6.145   3.597  13.467
18756TIP3    H177683   6.122   3.504  13.462
18756TIP3    H277684   6.184   3.617  13.382
18757TIP3   OH277685   1.547   4.674   1.006
18757TIP3    H177686   1.569   4.764   0.982
18757TIP3    H277687   1.519   4.680   1.098
18758TIP3   OH277688   0.453   1.498   0.859
18758TIP3    H177689   0.514   1.424   0.857
18758TIP3    H277690   0.509   1.575   0.863
18759TIP3   OH277691   1.703   3.346  13.273
18759TIP3    H177692   1.619   3.389  13.291
18759TIP3    H277693   1.769   3.406  13.307
18760TIP3   OH277694   1.635   3.607  11.825
18760TIP3    H177695   1.616   3.640  11.737
18760TIP3    H277696   1.660   3.515  11.812
18761TIP3   OH277697   1.857   6.332  15.359
18761TIP3    H177698   1.842   6.401  15.424
18761TIP3    H277699   1.945   6.300  15.378
18762TIP3   OH277700   0.883   1.195  11.367
18762TIP3    H177701   0.799   1.152  11.380
18762TIP3    H277702   0.905   1.232  11.452
18763TIP3   OH277703   3.915   5.233  14.743
18763TIP3    H177704   3.928   5.185  14.661
18763TIP3    H277705   3.863   5.173  14.797
18764TIP3   OH277706   3.337   6.650  17.192
18764TIP3    H177707   3.387   6.582  17.236
18764TIP3    H277708   3.297   6.700  17.263
18765TIP3   OH277709   1.665   6.183  14.956
18765TIP3    H177710   1.588   6.207  14.905
18765TIP3    H277711   1.733   6.168  14.890
18766TIP3   OH277712   0.934   4.181  15.298
18766TIP3    H177713   0.857   4.125  15.287
18766TIP3    H277714   0.899   4.270  15.300
18767TIP3   OH277715   3.313   5.734   6.296
18767TIP3    H177716   3.300   5.683   6.216
18767TIP3    H277717   3.382   5.797   6.272
18768TIP3   OH277718   5.166   2.638  15.443
18768TIP3    H177719   5.236   2.579  15.470
18768TIP3    H277720   5.140   2.607  15.357
18769TIP3   OH277721   2.306   5.500   0.981
18769TIP3    H177722   2.213   5.479   0.969
18769TIP3    H277723   2.307   5.592   1.007
18770TIP3   OH277724   6.493   0.493  13.585
18770TIP3    H177725   6.466   0.570  13.535
18770TIP3    H277726   6.456   0.419  13.537
18771TIP3   OH277727   3.701   0.292  13.881
18771TIP3    H177728   3.681   0.369  13.933
18771TIP3    H277729   3.662   0.219  13.930
18772TIP3   OH277730   1.363   5.881  11.670
18772TIP3    H177731   1.404   5.951  11.719
18772TIP3    H277732   1.404   5.884  11.584
18773TIP3   OH277733   6.586   4.248  10.728
18773TIP3    H177734   6.613   4.233  10.637
18773TIP3    H277735   6.603   4.342  10.742
18774TIP3   OH277736   1.347   5.913  14.619
18774TIP3    H177737   1.338   5.868  14.703
18774TIP3    H277738   1.265   5.962  14.609
18775TIP3   OH277739   5.095   0.738   3.721
18775TIP3    H177740   5.188   0.716   3.723
18775TIP3    H277741   5.063   0.698   3.640
18776TIP3   OH277742   1.832   4.908  10.893
18776TIP3    H177743   1.861   4.823  10.859
18776TIP3    H277744   1.773   4.886  10.965
18777TIP3   OH277745   3.937   5.329   3.018
18777TIP3    H177746   3.892   5.244   3.017
18777TIP3    H277747   3.998   5.325   2.945
18778TIP3   OH277748   5.017   5.403  11.299
18778TIP3    H177749   4.938   5.411  11.352
18778TIP3    H277750   5.020   5.311  11.274
18779TIP3   OH277751   0.435   5.976   4.896
18779TIP3    H177752   0.501   6.032   4.854
18779TIP3    H277753   0.376   5.950   4.825
18780TIP3   OH277754   0.995   4.242   3.617
18780TIP3    H177755   1.084   4.209   3.602
18780TIP3    H277756   0.999   4.333   3.586
18781TIP3   OH277757   1.273   6.362  12.631
18781TIP3    H177758   1.307   6.333  12.546
18781TIP3    H277759   1.180   6.376  12.617
18782TIP3   OH277760   4.806   1.523  11.102
18782TIP3    H177761   4.792   1.503  11.194
18782TIP3    H277762   4.728   1.489  11.058
18783TIP3   OH277763   0.626   2.354  12.824
18783TIP3    H177764   0.595   2.303  12.898
18783TIP3    H277765   0.590   2.310  12.747
18784TIP3   OH277766   3.716   1.629   2.220
18784TIP3    H177767   3.669   1.563   2.270
18784TIP3    H277768   3.785   1.660   2.279
18785TIP3   OH277769   5.992   1.609   4.712
18785TIP3    H177770   5.956   1.697   4.723
18785TIP3    H277771   6.027   1.587   4.799
18786TIP3   OH277772   0.904   2.474   3.971
18786TIP3    H177773   0.814   2.443   3.987
18786TIP3    H277774   0.950   2.397   3.937
18787TIP3   OH277775   6.236   2.815  13.056
18787TIP3    H177776   6.184   2.738  13.082
18787TIP3    H277777   6.296   2.829  13.129
18788TIP3   OH277778   1.593   5.780  14.796
18788TIP3    H177779   1.547   5.721  14.736
18788TIP3    H277780   1.524   5.835  14.832
18789TIP3   OH277781   1.333   4.964   0.947
18789TIP3    H177782   1.426   4.979   0.929
18789TIP3    H277783   1.289   4.979   0.864
18790TIP3   OH277784   2.089   3.978   5.420
18790TIP3    H177785   2.081   4.072   5.406
18790TIP3    H277786   2.067   3.966   5.513
18791TIP3   OH277787   2.876   5.449   6.085
18791TIP3    H177788   2.895   5.543   6.079
18791TIP3    H277789   2.916   5.421   6.167
18792TIP3   OH277790   6.603   0.886   4.997
18792TIP3    H177791   6.600   0.793   4.978
18792TIP3    H277792   6.526   0.901   5.052
18793TIP3   OH277793   2.367   1.681   1.575
18793TIP3    H177794   2.361   1.679   1.670
18793TIP3    H277795   2.321   1.761   1.550
18794TIP3   OH277796   3.504   1.464   3.521
18794TIP3    H177797   3.541   1.441   3.607
18794TIP3    H277798   3.578   1.499   3.471
18795TIP3   OH277799   3.607   0.875   6.299
18795TIP3    H177800   3.561   0.953   6.271
18795TIP3    H277801   3.654   0.845   6.220
18796TIP3   OH277802   4.947   6.260  16.023
18796TIP3    H177803   4.965   6.341  15.976
18796TIP3    H277804   4.863   6.230  15.988
18797TIP3   OH277805   0.220   1.392   2.940
18797TIP3    H177806   0.255   1.377   3.027
18797TIP3    H277807   0.291   1.367   2.881
18798TIP3   OH277808   5.748   1.922  15.315
18798TIP3    H177809   5.674   1.960  15.267
18798TIP3    H277810   5.820   1.925  15.253
18799TIP3   OH277811   5.889   1.083   0.106
18799TIP3    H177812   5.858   1.037   0.028
18799TIP3    H277813   5.985   1.074   0.102
18800TIP3   OH277814   6.455   1.241   1.774
18800TIP3    H177815   6.407   1.161   1.798
18800TIP3    H277816   6.523   1.211   1.714
18801TIP3   OH277817   3.259   5.135  13.118
18801TIP3    H177818   3.239   5.135  13.212
18801TIP3    H277819   3.181   5.098  13.077
18802TIP3   OH277820   5.626   1.181  12.027
18802TIP3    H177821   5.544   1.229  12.042
18802TIP3    H277822   5.658   1.215  11.943
18803TIP3   OH277823   6.334   2.095   0.409
18803TIP3    H177824   6.296   2.008   0.403
18803TIP3    H277825   6.379   2.096   0.493
18804TIP3   OH277826   1.420   1.423   2.833
18804TIP3    H177827   1.470   1.503   2.846
18804TIP3    H277828   1.482   1.352   2.853
18805TIP3   OH277829   1.861   0.200  15.967
18805TIP3    H177830   1.788   0.244  16.011
18805TIP3    H277831   1.883   0.126  16.023
18806TIP3   OH277832   0.123   2.495  14.801
18806TIP3    H177833   0.164   2.410  14.785
18806TIP3    H277834   0.107   2.497  14.896
18807TIP3   OH277835   3.362   2.999   1.664
18807TIP3    H177836   3.298   3.034   1.727
18807TIP3    H277837   3.310   2.952   1.600
18808TIP3   OH277838   0.428   0.323  13.857
18808TIP3    H177839   0.495   0.386  13.831
18808TIP3    H277840   0.402   0.350  13.946
18809TIP3   OH277841   2.135   5.027  16.771
18809TIP3    H177842   2.041   5.024  16.753
18809TIP3    H277843   2.174   5.061  16.690
18810TIP3   OH277844   5.412   4.340  13.407
18810TIP3    H177845   5.430   4.340  13.313
18810TIP3    H277846   5.472   4.405  13.444
18811TIP3   OH277847   6.562   3.895   3.629
18811TIP3    H177848   6.531   3.806   3.648
18811TIP3    H277849   6.655   3.894   3.652
18812TIP3   OH277850   6.175   5.935  15.501
18812TIP3    H177851   6.178   5.843  15.475
18812TIP3    H277852   6.099   5.941  15.558
18813TIP3   OH277853   5.595   5.960  16.714
18813TIP3    H177854   5.554   6.036  16.673
18813TIP3    H277855   5.605   5.897  16.643
18814TIP3   OH277856   5.044   5.648   4.602
18814TIP3    H177857   5.006   5.580   4.658
18814TIP3    H277858   5.136   5.623   4.592
18815TIP3   OH277859   2.589   0.568  11.285
18815TIP3    H177860   2.564   0.511  11.213
18815TIP3    H277861   2.566   0.519  11.364
18816TIP3   OH277862   1.218   3.534  14.661
18816TIP3    H177863   1.287   3.556  14.599
18816TIP3    H277864   1.217   3.607  14.723
18817TIP3   OH277865   4.457   1.666   0.264
18817TIP3    H177866   4.395   1.684   0.194
18817TIP3    H277867   4.541   1.699   0.232
18818TIP3   OH277868   0.829   3.140   0.053
18818TIP3    H177869   0.739   3.119   0.079
18818TIP3    H277870   0.858   3.064   0.003
18819TIP3   OH277871   2.496   5.971   5.754
18819TIP3    H177872   2.464   6.036   5.692
18819TIP3    H277873   2.573   5.933   5.711
18820TIP3   OH277874   5.475   6.345  11.406
18820TIP3    H177875   5.414   6.408  11.445
18820TIP3    H277876   5.549   6.399  11.378
18821TIP3   OH277877   1.424   3.025   3.324
18821TIP3    H177878   1.384   3.090   3.266
18821TIP3    H277879   1.465   2.962   3.264
18822TIP3   OH277880   3.435   4.098   2.635
18822TIP3    H177881   3.400   4.104   2.724
18822TIP3    H277882   3.501   4.168   2.631
18823TIP3   OH277883   1.639   6.168  13.325
18823TIP3    H177884   1.668   6.197  13.412
18823TIP3    H277885   1.552   6.130  13.341
18824TIP3   OH277886   5.014   6.700  12.265
18824TIP3    H177887   5.010   6.783  12.217
18824TIP3    H277888   5.076   6.646  12.216
18825TIP3   OH277889   4.576   6.072  11.076
18825TIP3    H177890   4.657   6.058  11.028
18825TIP3    H277891   4.584   6.160  11.113
18826TIP3   OH277892   2.708   5.596   2.900
18826TIP3    H177893   2.742   5.508   2.919
18826TIP3    H277894   2.625   5.580   2.855
18827TIP3   OH277895   1.814   4.597  13.351
18827TIP3    H177896   1.907   4.618  13.362
18827TIP3    H277897   1.786   4.569  13.438
18828TIP3   OH277898   1.860   4.223  11.934
18828TIP3    H177899   1.870   4.296  11.872
18828TIP3    H277900   1.882   4.260  12.019
18829TIP3   OH277901   4.355   5.095  16.263
18829TIP3    H177902   4.301   5.151  16.319
18829TIP3    H277903   4.426   5.152  16.234
18830TIP3   OH277904   2.283   0.539  13.881
18830TIP3    H177905   2.333   0.615  13.851
18830TIP3    H277906   2.192   0.568  13.880
18831TIP3   OH277907   0.670   1.839   5.678
18831TIP3    H177908   0.606   1.782   5.637
18831TIP3    H277909   0.734   1.779   5.718
18832TIP3   OH277910   0.261   6.526   0.005
18832TIP3    H177911   0.278   6.608   0.052
18832TIP3    H277912   0.175   6.538  -0.034
18833TIP3   OH277913   1.426   4.216  11.249
18833TIP3    H177914   1.428   4.301  11.205
18833TIP3    H277915   1.476   4.231  11.330
18834TIP3   OH277916   3.315   4.102  15.084
18834TIP3    H177917   3.278   4.140  15.164
18834TIP3    H277918   3.276   4.014  15.080
18835TIP3   OH277919   3.716   4.040  17.133
18835TIP3    H177920   3.757   3.992  17.204
18835TIP3    H277921   3.785   4.049  17.067
18836TIP3   OH277922   6.626   3.719   2.053
18836TIP3    H177923   6.590   3.767   2.127
18836TIP3    H277924   6.717   3.701   2.078
18837TIP3   OH277925   3.385   6.292  15.016
18837TIP3    H177926   3.409   6.306  15.108
18837TIP3    H277927   3.419   6.368  14.970
18838TIP3   OH277928   2.606   2.456   5.559
18838TIP3    H177929   2.611   2.534   5.615
18838TIP3    H277930   2.673   2.470   5.492
18839TIP3   OH277931   0.504   0.884   0.007
18839TIP3    H177932   0.599   0.896   0.012
18839TIP3    H277933   0.473   0.906   0.095
18840TIP3   OH277934   3.859   0.359  11.495
18840TIP3    H177935   3.786   0.315  11.452
18840TIP3    H277936   3.819   0.430  11.544
18841TIP3   OH277937   3.152   5.447  15.200
18841TIP3    H177938   3.098   5.403  15.265
18841TIP3    H277939   3.091   5.475  15.132
18842TIP3   OH277940   4.565   5.223  10.273
18842TIP3    H177941   4.480   5.218  10.229
18842TIP3    H277942   4.552   5.174  10.354
18843TIP3   OH277943   1.351   3.693   0.199
18843TIP3    H177944   1.433   3.713   0.154
18843TIP3    H277945   1.360   3.602   0.227
18844TIP3   OH277946   4.774   3.742   5.986
18844TIP3    H177947   4.869   3.735   5.982
18844TIP3    H277948   4.744   3.704   5.903
18845TIP3   OH277949   2.941   0.250  11.238
18845TIP3    H177950   2.866   0.206  11.199
18845TIP3    H277951   2.914   0.269  11.328
18846TIP3   OH277952   5.270   6.435   2.389
18846TIP3    H177953   5.342   6.372   2.390
18846TIP3    H277954   5.285   6.487   2.310
18847TIP3   OH277955   6.611   3.081   0.127
18847TIP3    H177956   6.689   3.062   0.076
18847TIP3    H277957   6.543   3.097   0.062
18848TIP3   OH277958   6.123   0.181  11.549
18848TIP3    H177959   6.133   0.106  11.608
18848TIP3    H277960   6.036   0.217  11.569
18849TIP3   OH277961   1.080   3.599  16.192
18849TIP3    H177962   1.083   3.694  16.195
18849TIP3    H277963   1.001   3.576  16.240
18850TIP3   OH277964   5.155   0.497  15.568
18850TIP3    H177965   5.133   0.476  15.477
18850TIP3    H277966   5.231   0.442  15.587
18851TIP3   OH277967   5.674   3.110   4.930
18851TIP3    H177968   5.661   3.195   4.887
18851TIP3    H277969   5.714   3.132   5.014
18852TIP3   OH277970   0.431   3.369   2.493
18852TIP3    H177971   0.490   3.295   2.507
18852TIP3    H277972   0.345   3.336   2.518
18853TIP3   OH277973   0.331   3.606  15.286
18853TIP3    H177974   0.273   3.597  15.210
18853TIP3    H277975   0.419   3.599  15.250
18854TIP3   OH277976   4.707   6.545  11.673
18854TIP3    H177977   4.722   6.631  11.711
18854TIP3    H277978   4.632   6.556  11.615
18855TIP3   OH277979   6.678   3.363  13.349
18855TIP3    H177980   6.696   3.337  13.440
18855TIP3    H277981   6.764   3.365  13.308
18856TIP3   OH277982   1.260   0.297  14.446
18856TIP3    H177983   1.269   0.323  14.354
18856TIP3    H277984   1.167   0.276  14.456
18857TIP3   OH277985   3.590   5.810  16.654
18857TIP3    H177986   3.601   5.836  16.746
18857TIP3    H277987   3.607   5.890  16.605
18858TIP3   OH277988   5.552   3.186  13.305
18858TIP3    H177989   5.614   3.251  13.338
18858TIP3    H277990   5.506   3.155  13.383
18859TIP3   OH277991   6.394   5.556   6.446
18859TIP3    H177992   6.332   5.485   6.433
18859TIP3    H277993   6.438   5.535   6.529
18860TIP3   OH277994   2.101   3.659  13.657
18860TIP3    H177995   2.064   3.587  13.708
18860TIP3    H277996   2.026   3.711  13.630
18861TIP3   OH277997   3.241   3.302   4.665
18861TIP3    H177998   3.285   3.274   4.745
18861TIP3    H277999   3.157   3.338   4.695
18862TIP3   OH278000   0.960   3.579   4.269
18862TIP3    H178001   0.928   3.639   4.202
18862TIP3    H278002   1.000   3.635   4.335
18863TIP3   OH278003   1.286   3.491   4.323
18863TIP3    H178004   1.284   3.466   4.416
18863TIP3    H278005   1.198   3.469   4.291
18864TIP3   OH278006   5.130   1.043   2.852
18864TIP3    H178007   5.165   0.986   2.783
18864TIP3    H278008   5.207   1.090   2.886
18865TIP3   OH278009   1.144   4.986   1.813
18865TIP3    H178010   1.120   5.075   1.835
18865TIP3    H278011   1.125   4.978   1.719
18866TIP3   OH278012   3.265   2.617   5.399
18866TIP3    H178013   3.184   2.566   5.393
18866TIP3    H278014   3.250   2.693   5.342
18867TIP3   OH278015   2.443   3.746   4.899
18867TIP3    H178016   2.411   3.713   4.983
18867TIP3    H278017   2.386   3.821   4.880
18868TIP3   OH278018   6.617   4.485  14.709
18868TIP3    H178019   6.651   4.456  14.794
18868TIP3    H278020   6.670   4.562  14.687
18869TIP3   OH278021   1.458   2.140   6.168
18869TIP3    H178022   1.365   2.150   6.188
18869TIP3    H278023   1.495   2.097   6.245
18870TIP3   OH278024   5.484   4.483  15.806
18870TIP3    H178025   5.521   4.405  15.847
18870TIP3    H278026   5.394   4.459  15.786
18871TIP3   OH278027   0.889   1.715   1.633
18871TIP3    H178028   0.819   1.729   1.568
18871TIP3    H278029   0.877   1.624   1.660
18872TIP3   OH278030   5.532   5.600   1.775
18872TIP3    H178031   5.558   5.514   1.742
18872TIP3    H278032   5.520   5.587   1.869
18873TIP3   OH278033   0.555   5.765   1.408
18873TIP3    H178034   0.499   5.697   1.446
18873TIP3    H278035   0.606   5.718   1.341
18874TIP3   OH278036   4.301   1.735   0.050
18874TIP3    H178037   4.327   1.818   0.010
18874TIP3    H278038   4.205   1.737   0.047
18875TIP3   OH278039   3.335   2.738  13.557
18875TIP3    H178040   3.254   2.687  13.564
18875TIP3    H278041   3.362   2.727  13.466
18876TIP3   OH278042   1.670   3.363  15.303
18876TIP3    H178043   1.726   3.324  15.235
18876TIP3    H278044   1.607   3.295  15.324
18877TIP3   OH278045   0.930   5.051   5.960
18877TIP3    H178046   0.912   5.117   6.027
18877TIP3    H278047   0.878   4.975   5.987
18878TIP3   OH278048   4.668   0.177  17.162
18878TIP3    H178049   4.652   0.266  17.194
18878TIP3    H278050   4.756   0.181  17.124
18879TIP3   OH278051   2.882   5.908   2.265
18879TIP3    H178052   2.881   5.824   2.312
18879TIP3    H278053   2.851   5.971   2.330
18880TIP3   OH278054   3.955   1.805  11.570
18880TIP3    H178055   3.908   1.884  11.595
18880TIP3    H278056   3.980   1.820  11.479
18881TIP3   OH278057   4.225   0.863   2.758
18881TIP3    H178058   4.199   0.810   2.834
18881TIP3    H278059   4.217   0.953   2.788
18882TIP3   OH278060   1.228   6.464   1.159
18882TIP3    H178061   1.235   6.556   1.130
18882TIP3    H278062   1.143   6.459   1.203
18883TIP3   OH278063   5.081   3.731  11.145
18883TIP3    H178064   5.110   3.764  11.230
18883TIP3    H278065   5.124   3.646  11.136
18884TIP3   OH278066   2.229   1.641   0.599
18884TIP3    H178067   2.177   1.593   0.664
18884TIP3    H278068   2.210   1.598   0.516
18885TIP3   OH278069   2.810   3.100  15.142
18885TIP3    H178070   2.787   3.160  15.212
18885TIP3    H278071   2.797   3.150  15.062
18886TIP3   OH278072   1.691   3.966  14.866
18886TIP3    H178073   1.609   4.013  14.886
18886TIP3    H278074   1.757   4.008  14.922
18887TIP3   OH278075   6.507   5.093   0.754
18887TIP3    H178076   6.503   5.041   0.673
18887TIP3    H278077   6.598   5.123   0.759
18888TIP3   OH278078   6.593   4.028   2.650
18888TIP3    H178079   6.579   3.935   2.633
18888TIP3    H278080   6.568   4.071   2.569
18889TIP3   OH278081   5.000   4.953  16.975
18889TIP3    H178082   4.932   5.020  16.968
18889TIP3    H278083   5.000   4.911  16.889
18890TIP3   OH278084   6.097   5.922   5.017
18890TIP3    H178085   6.056   5.997   4.976
18890TIP3    H278086   6.087   5.937   5.111
18891TIP3   OH278087   0.840   6.132  12.006
18891TIP3    H178088   0.798   6.046  11.994
18891TIP3    H278089   0.888   6.124  12.088
18892TIP3   OH278090   6.425   3.425  14.381
18892TIP3    H178091   6.396   3.349  14.433
18892TIP3    H278092   6.503   3.394  14.336
18893TIP3   OH278093   5.869   6.428   4.134
18893TIP3    H178094   5.860   6.395   4.224
18893TIP3    H278095   5.957   6.466   4.131
18894TIP3   OH278096   2.221   1.951  16.185
18894TIP3    H178097   2.247   2.021  16.246
18894TIP3    H278098   2.125   1.950  16.190
18895TIP3   OH278099   3.490   3.697  14.736
18895TIP3    H178100   3.401   3.691  14.702
18895TIP3    H278101   3.484   3.757  14.811
18896TIP3   OH278102   1.683   6.470   3.515
18896TIP3    H178103   1.714   6.486   3.604
18896TIP3    H278104   1.589   6.453   3.525
18897TIP3   OH278105   5.552   4.479  16.216
18897TIP3    H178106   5.638   4.457  16.180
18897TIP3    H278107   5.547   4.574  16.211
18898TIP3   OH278108   1.678   4.643   4.938
18898TIP3    H178109   1.666   4.738   4.946
18898TIP3    H278110   1.605   4.605   4.988
18899TIP3   OH278111   4.209   2.016   0.517
18899TIP3    H178112   4.133   1.973   0.477
18899TIP3    H278113   4.280   1.952   0.507
18900TIP3   OH278114   4.375   3.956  13.306
18900TIP3    H178115   4.422   3.919  13.380
18900TIP3    H278116   4.298   3.900  13.297
18901TIP3   OH278117   6.110   0.647   3.020
18901TIP3    H178118   6.108   0.583   3.091
18901TIP3    H278119   6.038   0.620   2.962
18902TIP3   OH278120   5.974   3.752  16.786
18902TIP3    H178121   6.042   3.810  16.753
18902TIP3    H278122   6.016   3.702  16.855
18903TIP3   OH278123   2.536   2.950  15.899
18903TIP3    H178124   2.532   2.858  15.874
18903TIP3    H278125   2.464   2.991  15.851
18904TIP3   OH278126   4.537   6.444   4.736
18904TIP3    H178127   4.516   6.351   4.741
18904TIP3    H278128   4.525   6.476   4.826
18905TIP3   OH278129   4.138   4.788   3.097
18905TIP3    H178130   4.173   4.740   3.172
18905TIP3    H278131   4.067   4.841   3.133
18906TIP3   OH278132   4.072   6.442  13.416
18906TIP3    H178133   4.116   6.514  13.371
18906TIP3    H278134   4.023   6.484  13.487
18907TIP3   OH278135   0.168   5.804  12.597
18907TIP3    H178136   0.208   5.763  12.674
18907TIP3    H278137   0.130   5.885  12.629
18908TIP3   OH278138   4.389   4.359  11.881
18908TIP3    H178139   4.337   4.404  11.947
18908TIP3    H278140   4.351   4.386  11.798
18909TIP3   OH278141   1.589   0.124   5.506
18909TIP3    H178142   1.535   0.164   5.574
18909TIP3    H278143   1.542   0.143   5.424
18910TIP3   OH278144   1.636   6.561   4.814
18910TIP3    H178145   1.661   6.595   4.900
18910TIP3    H278146   1.712   6.578   4.759
18911TIP3   OH278147   1.101   3.562   4.916
18911TIP3    H178148   1.176   3.600   4.961
18911TIP3    H278149   1.068   3.632   4.860
18912TIP3   OH278150   6.225   2.930  14.262
18912TIP3    H178151   6.280   2.854  14.278
18912TIP3    H278152   6.282   2.993  14.218
18913TIP3   OH278153   1.315   0.111  10.646
18913TIP3    H178154   1.302   0.110  10.551
18913TIP3    H278155   1.407   0.137  10.657
18914TIP3   OH278156   1.801   5.448  15.518
18914TIP3    H178157   1.774   5.400  15.440
18914TIP3    H278158   1.896   5.447  15.516
18915TIP3   OH278159   6.405   0.621   3.158
18915TIP3    H178160   6.424   0.530   3.135
18915TIP3    H278161   6.310   0.623   3.169
18916TIP3   OH278162   0.987   6.581  14.768
18916TIP3    H178163   0.907   6.537  14.794
18916TIP3    H278164   0.958   6.665  14.731
18917TIP3   OH278165   1.095   1.814  14.881
18917TIP3    H178166   1.088   1.766  14.799
18917TIP3    H278167   1.180   1.858  14.876
18918TIP3   OH278168   6.581   0.128  15.063
18918TIP3    H178169   6.492   0.096  15.049
18918TIP3    H278170   6.575   0.223  15.048
18919TIP3   OH278171   0.517   3.182  16.929
18919TIP3    H178172   0.475   3.264  16.907
18919TIP3    H278173   0.595   3.179  16.874
18920TIP3   OH278174   2.095   6.620  13.301
18920TIP3    H178175   2.062   6.693  13.354
18920TIP3    H278176   2.190   6.632  13.300
18921TIP3   OH278177   2.884   0.020   0.896
18921TIP3    H178178   2.835   0.092   0.857
18921TIP3    H278179   2.872  -0.053   0.834
18922TIP3   OH278180   4.176   3.283   4.098
18922TIP3    H178181   4.158   3.376   4.110
18922TIP3    H278182   4.231   3.279   4.019
18923TIP3   OH278183   1.921   6.037  15.110
18923TIP3    H178184   1.867   6.029  15.188
18923TIP3    H278185   1.873   5.989  15.043
18924TIP3   OH278186   5.064   1.754  10.660
18924TIP3    H178187   5.026   1.801  10.735
18924TIP3    H278188   4.999   1.763  10.591
18925TIP3   OH278189   1.677   5.248   1.870
18925TIP3    H178190   1.676   5.164   1.824
18925TIP3    H278191   1.590   5.284   1.857
18926TIP3   OH278192   6.409   4.552  13.161
18926TIP3    H178193   6.439   4.617  13.098
18926TIP3    H278194   6.314   4.568  13.167
18927TIP3   OH278195   2.882   4.073  17.082
18927TIP3    H178196   2.893   3.995  17.137
18927TIP3    H278197   2.888   4.146  17.143
18928TIP3   OH278198   6.248   2.730  16.644
18928TIP3    H178199   6.298   2.785  16.703
18928TIP3    H278200   6.159   2.733  16.679
18929TIP3   OH278201   4.280   3.897  17.175
18929TIP3    H178202   4.267   3.981  17.219
18929TIP3    H278203   4.237   3.908  17.090
18930TIP3   OH278204   5.537   4.589  11.725
18930TIP3    H178205   5.554   4.497  11.706
18930TIP3    H278206   5.474   4.587  11.797
18931TIP3   OH278207   3.298   1.723   3.789
18931TIP3    H178208   3.333   1.808   3.815
18931TIP3    H278209   3.229   1.705   3.852
18932TIP3   OH278210   4.026   0.946   2.967
18932TIP3    H178211   4.052   0.857   2.941
18932TIP3    H278212   3.980   0.933   3.050
18933TIP3   OH278213   4.788   2.044   1.067
18933TIP3    H178214   4.839   2.126   1.066
18933TIP3    H278215   4.844   1.982   1.113
18934TIP3   OH278216   6.109   4.057   0.856
18934TIP3    H178217   6.174   4.058   0.926
18934TIP3    H278218   6.056   3.979   0.873
18935TIP3   OH278219   4.423   2.160  13.945
18935TIP3    H178220   4.375   2.096  13.997
18935TIP3    H278221   4.515   2.148  13.971
18936TIP3   OH278222   0.384   6.566   1.544
18936TIP3    H178223   0.431   6.593   1.465
18936TIP3    H278224   0.394   6.471   1.546
18937TIP3   OH278225   0.477   2.603   4.733
18937TIP3    H178226   0.382   2.597   4.725
18937TIP3    H278227   0.491   2.648   4.817
18938TIP3   OH278228   6.188   5.895   6.068
18938TIP3    H178229   6.214   5.841   6.143
18938TIP3    H278230   6.093   5.883   6.063
18939TIP3   OH278231   4.825   3.298  12.346
18939TIP3    H178232   4.743   3.291  12.395
18939TIP3    H278233   4.852   3.389  12.360
18940TIP3   OH278234   0.735   4.160  16.975
18940TIP3    H178235   0.754   4.252  16.993
18940TIP3    H278236   0.743   4.117  17.060
18941TIP3   OH278237   5.709   2.479   3.561
18941TIP3    H178238   5.712   2.526   3.645
18941TIP3    H278239   5.749   2.394   3.580
18942TIP3   OH278240   2.720   6.272   2.110
18942TIP3    H178241   2.793   6.241   2.055
18942TIP3    H278242   2.752   6.353   2.149
18943TIP3   OH278243   2.771   0.846   0.078
18943TIP3    H178244   2.781   0.912   0.010
18943TIP3    H278245   2.751   0.896   0.158
18944TIP3   OH278246   4.838   2.377  17.210
18944TIP3    H178247   4.780   2.433  17.158
18944TIP3    H278248   4.780   2.335  17.273
18945TIP3   OH278249   3.811   3.801   1.263
18945TIP3    H178250   3.871   3.800   1.338
18945TIP3    H278251   3.826   3.887   1.222
18946TIP3   OH278252   0.329   5.371   6.694
18946TIP3    H178253   0.303   5.437   6.630
18946TIP3    H278254   0.291   5.289   6.662
18947TIP3   OH278255   3.016   2.896  13.285
18947TIP3    H178256   2.930   2.927  13.314
18947TIP3    H278257   3.071   2.975  13.286
18948TIP3   OH278258   2.179   1.051   2.301
18948TIP3    H178259   2.096   1.094   2.278
18948TIP3    H278260   2.159   1.003   2.381
18949TIP3   OH278261   2.322   1.376  11.773
18949TIP3    H178262   2.384   1.317  11.730
18949TIP3    H278263   2.263   1.317  11.821
18950TIP3   OH278264   0.315   6.436  11.888
18950TIP3    H178265   0.258   6.445  11.812
18950TIP3    H278266   0.255   6.433  11.963
18951TIP3   OH278267   2.408   2.594  15.233
18951TIP3    H178268   2.398   2.688  15.217
18951TIP3    H278269   2.498   2.585  15.266
18952TIP3   OH278270   5.796   1.535   4.545
18952TIP3    H178271   5.840   1.571   4.622
18952TIP3    H278272   5.706   1.567   4.552
18953TIP3   OH278273   0.478   1.045   3.146
18953TIP3    H178274   0.574   1.042   3.147
18953TIP3    H278275   0.452   0.966   3.099
18954TIP3   OH278276   0.055   6.332   2.627
18954TIP3    H178277  -0.006   6.405   2.643
18954TIP3    H278278   0.119   6.367   2.565
18955TIP3   OH278279   4.592   6.006  16.517
18955TIP3    H178280   4.628   6.055  16.590
18955TIP3    H278281   4.617   5.915  16.534
18956TIP3   OH278282   5.041   1.108   3.895
18956TIP3    H178283   5.044   1.203   3.903
18956TIP3    H278284   4.950   1.086   3.912
18957TIP3   OH278285   4.424   6.540  14.617
18957TIP3    H178286   4.471   6.462  14.645
18957TIP3    H278287   4.492   6.604  14.597
18958TIP3   OH278288   0.858   3.398   4.655
18958TIP3    H178289   0.845   3.411   4.561
18958TIP3    H278290   0.794   3.457   4.696
18959TIP3   OH278291   5.185   4.350  15.343
18959TIP3    H178292   5.195   4.367  15.250
18959TIP3    H278293   5.196   4.255  15.352
18960TIP3   OH278294   1.448   1.933   2.856
18960TIP3    H178295   1.420   2.009   2.805
18960TIP3    H278296   1.379   1.921   2.921
18961TIP3   OH278297   5.886   3.964   3.186
18961TIP3    H178298   5.922   3.878   3.205
18961TIP3    H278299   5.844   3.955   3.101
18962TIP3   OH278300   5.672   6.077   3.006
18962TIP3    H178301   5.716   6.048   3.086
18962TIP3    H278302   5.637   6.164   3.028
18963TIP3   OH278303   5.099   3.296   2.018
18963TIP3    H178304   5.154   3.358   2.067
18963TIP3    H278305   5.105   3.326   1.927
18964TIP3   OH278306   5.958   5.222  12.342
18964TIP3    H178307   5.977   5.312  12.368
18964TIP3    H278308   5.913   5.230  12.258
18965TIP3   OH278309   5.396   0.973  11.670
18965TIP3    H178310   5.486   0.943  11.655
18965TIP3    H278311   5.348   0.945  11.591
18966TIP3   OH278312   3.223   1.129  16.982
18966TIP3    H178313   3.210   1.132  17.077
18966TIP3    H278314   3.182   1.208  16.949
18967TIP3   OH278315   4.810   0.250  14.610
18967TIP3    H178316   4.809   0.302  14.530
18967TIP3    H278317   4.795   0.314  14.680
18968TIP3   OH278318   3.470   1.044   1.947
18968TIP3    H178319   3.517   0.997   1.878
18968TIP3    H278320   3.457   1.132   1.911
18969TIP3   OH278321   3.875   2.750  12.065
18969TIP3    H178322   3.885   2.834  12.109
18969TIP3    H278323   3.788   2.720  12.090
18970TIP3   OH278324   2.979   4.412  16.498
18970TIP3    H178325   3.064   4.368  16.497
18970TIP3    H278326   2.954   4.416  16.590
18971TIP3   OH278327   6.575   5.885  13.541
18971TIP3    H178328   6.600   5.960  13.487
18971TIP3    H278329   6.577   5.810  13.482
18972TIP3   OH278330   6.531   2.144   4.913
18972TIP3    H178331   6.516   2.162   4.820
18972TIP3    H278332   6.504   2.053   4.924
18973TIP3   OH278333   2.929   2.106  11.920
18973TIP3    H178334   2.867   2.033  11.925
18973TIP3    H278335   2.925   2.135  11.829
18974TIP3   OH278336   1.234   4.092   5.943
18974TIP3    H178337   1.293   4.033   5.990
18974TIP3    H278338   1.149   4.049   5.948
18975TIP3   OH278339   4.686   0.092   5.519
18975TIP3    H178340   4.651   0.034   5.451
18975TIP3    H278341   4.693   0.037   5.597
18976TIP3   OH278342   0.522   6.232   2.968
18976TIP3    H178343   0.446   6.235   2.910
18976TIP3    H278344   0.490   6.188   3.047
18977TIP3   OH278345   5.042   3.293  11.522
18977TIP3    H178346   5.063   3.213  11.473
18977TIP3    H278347   5.108   3.357  11.494
18978TIP3   OH278348   6.499   1.193  13.988
18978TIP3    H178349   6.535   1.279  13.965
18978TIP3    H278350   6.565   1.131  13.959
18979TIP3   OH278351   3.793   3.257  13.331
18979TIP3    H178352   3.735   3.253  13.407
18979TIP3    H278353   3.837   3.172  13.329
18980TIP3   OH278354   0.625   0.299   2.120
18980TIP3    H178355   0.655   0.389   2.109
18980TIP3    H278356   0.700   0.254   2.160
18981TIP3   OH278357   5.598   2.116  12.538
18981TIP3    H178358   5.556   2.088  12.620
18981TIP3    H278359   5.529   2.110  12.472
18982TIP3   OH278360   1.354   4.080   2.351
18982TIP3    H178361   1.303   4.147   2.306
18982TIP3    H278362   1.392   4.028   2.280
18983TIP3   OH278363   6.219   3.005   5.521
18983TIP3    H178364   6.168   3.059   5.582
18983TIP3    H278365   6.173   3.014   5.437
18984TIP3   OH278366   6.177   1.506   4.528
18984TIP3    H178367   6.202   1.438   4.591
18984TIP3    H278368   6.097   1.544   4.565
18985TIP3   OH278369   3.335   1.796   4.708
18985TIP3    H178370   3.416   1.772   4.662
18985TIP3    H278371   3.353   1.778   4.800
18986TIP3   OH278372   1.491   3.617  16.625
18986TIP3    H178373   1.580   3.599  16.595
18986TIP3    H278374   1.448   3.656  16.550
18987TIP3   OH278375   2.282   6.500   1.083
18987TIP3    H178376   2.255   6.558   1.154
18987TIP3    H278377   2.200   6.461   1.051
18988TIP3   OH278378   3.699   1.031   2.744
18988TIP3    H178379   3.691   0.994   2.656
18988TIP3    H278380   3.610   1.054   2.769
18989TIP3   OH278381   1.946   3.685   1.840
18989TIP3    H178382   1.978   3.759   1.891
18989TIP3    H278383   2.025   3.642   1.807
18990TIP3   OH278384   3.650   1.077  13.829
18990TIP3    H178385   3.712   1.145  13.853
18990TIP3    H278386   3.596   1.065  13.907
18991TIP3   OH278387   6.669   1.112  14.894
18991TIP3    H178388   6.649   1.182  14.831
18991TIP3    H278389   6.764   1.106  14.893
18992TIP3   OH278390   0.917   3.276  15.164
18992TIP3    H178391   0.832   3.273  15.208
18992TIP3    H278392   0.896   3.275  15.070
18993TIP3   OH278393   3.249   2.779   2.283
18993TIP3    H178394   3.295   2.757   2.364
18993TIP3    H278395   3.319   2.791   2.219
18994TIP3   OH278396   5.929   6.067  12.971
18994TIP3    H178397   5.902   6.157  12.957
18994TIP3    H278398   6.002   6.073  13.032
18995TIP3   OH278399   2.496   1.197  12.186
18995TIP3    H178400   2.513   1.268  12.248
18995TIP3    H278401   2.580   1.182  12.143
18996TIP3   OH278402   5.262   3.275   3.043
18996TIP3    H178403   5.357   3.268   3.042
18996TIP3    H278404   5.234   3.232   2.962
18997TIP3   OH278405   2.915   4.572   0.119
18997TIP3    H178406   3.006   4.558   0.144
18997TIP3    H278407   2.865   4.515   0.178
18998TIP3   OH278408   4.772   0.464  14.808
18998TIP3    H178409   4.817   0.531  14.755
18998TIP3    H278410   4.679   0.486  14.800
18999TIP3   OH278411   0.568   2.437   0.331
18999TIP3    H178412   0.660   2.464   0.327
18999TIP3    H278413   0.520   2.518   0.347
19000TIP3   OH278414   5.218   6.659  11.188
19000TIP3    H178415   5.174   6.588  11.236
19000TIP3    H278416   5.157   6.682  11.118
19001TIP3   OH278417   4.229   3.829  13.635
19001TIP3    H178418   4.141   3.827  13.670
19001TIP3    H278419   4.275   3.895  13.687
19002TIP3   OH278420   5.838   4.128  13.076
19002TIP3    H178421   5.789   4.176  13.144
19002TIP3    H278422   5.786   4.140  12.997
19003TIP3   OH278423   6.552   4.877   3.253
19003TIP3    H178424   6.556   4.968   3.282
19003TIP3    H278425   6.603   4.875   3.172
19004TIP3   OH278426   0.569   4.936   4.282
19004TIP3    H178427   0.634   4.936   4.352
19004TIP3    H278428   0.622   4.929   4.202
19005TIP3   OH278429   0.937   1.375   4.796
19005TIP3    H178430   0.890   1.413   4.870
19005TIP3    H278431   1.030   1.387   4.818
19006TIP3   OH278432   4.361   6.687   5.148
19006TIP3    H178433   4.301   6.708   5.076
19006TIP3    H278434   4.306   6.644   5.214
19007TIP3   OH278435   0.974   2.307  15.492
19007TIP3    H178436   1.002   2.340  15.577
19007TIP3    H278437   1.031   2.232  15.475
19008TIP3   OH278438   4.383   2.733  16.492
19008TIP3    H178439   4.464   2.783  16.504
19008TIP3    H278440   4.323   2.796  16.452
19009TIP3   OH278441   2.595   6.319   4.752
19009TIP3    H178442   2.535   6.269   4.696
19009TIP3    H278443   2.542   6.393   4.783
19010TIP3   OH278444   2.915   4.667  12.680
19010TIP3    H178445   2.976   4.606  12.639
19010TIP3    H278446   2.837   4.664  12.625
19011TIP3   OH278447   3.571   5.905  15.792
19011TIP3    H178448   3.586   5.999  15.780
19011TIP3    H278449   3.651   5.864  15.759
19012TIP3   OH278450   4.007   5.150   1.467
19012TIP3    H178451   4.097   5.159   1.500
19012TIP3    H278452   3.955   5.204   1.526
19013TIP3   OH278453   0.686   3.207  12.060
19013TIP3    H178454   0.667   3.135  12.000
19013TIP3    H278455   0.704   3.282  12.003
19014TIP3   OH278456   5.726   1.652   1.895
19014TIP3    H178457   5.716   1.729   1.951
19014TIP3    H278458   5.790   1.678   1.829
19015TIP3   OH278459   2.909   4.093  16.644
19015TIP3    H178460   2.942   4.183  16.643
19015TIP3    H278461   2.910   4.066  16.552
19016TIP3   OH278462   2.671   1.644  16.923
19016TIP3    H178463   2.636   1.609  17.005
19016TIP3    H278464   2.707   1.568  16.878
19017TIP3   OH278465   3.654   3.092  15.156
19017TIP3    H178466   3.735   3.067  15.112
19017TIP3    H278467   3.660   3.052  15.243
19018TIP3   OH278468   6.531   1.878   5.461
19018TIP3    H178469   6.470   1.934   5.413
19018TIP3    H278470   6.596   1.939   5.497
19019TIP3   OH278471   0.937   5.718   0.585
19019TIP3    H178472   0.849   5.699   0.618
19019TIP3    H278473   0.977   5.773   0.652
19020TIP3   OH278474   0.729   4.539  17.213
19020TIP3    H178475   0.749   4.619  17.166
19020TIP3    H278476   0.634   4.543  17.228
19021TIP3   OH278477   3.101   0.910   4.477
19021TIP3    H178478   3.086   0.838   4.537
19021TIP3    H278479   3.176   0.883   4.425
19022TIP3   OH278480   2.887   2.763   6.107
19022TIP3    H178481   2.834   2.833   6.146
19022TIP3    H278482   2.919   2.801   6.025
19023TIP3   OH278483   3.209   6.526   3.616
19023TIP3    H178484   3.204   6.588   3.689
19023TIP3    H278485   3.133   6.469   3.628
19024TIP3   OH278486   6.642   2.206  16.677
19024TIP3    H178487   6.659   2.143  16.747
19024TIP3    H278488   6.572   2.261  16.710
19025TIP3   OH278489   5.184   6.180  14.713
19025TIP3    H178490   5.216   6.200  14.625
19025TIP3    H278491   5.244   6.113  14.745
19026TIP3   OH278492   6.198   5.179  15.779
19026TIP3    H178493   6.203   5.210  15.869
19026TIP3    H278494   6.169   5.088  15.785
19027TIP3   OH278495   0.275   0.565   4.365
19027TIP3    H178496   0.185   0.595   4.382
19027TIP3    H278497   0.281   0.481   4.410
19028TIP3   OH278498   3.123   0.885  15.852
19028TIP3    H178499   3.130   0.841  15.937
19028TIP3    H278500   3.194   0.948  15.851
19029TIP3   OH278501   5.016   0.654  15.050
19029TIP3    H178502   4.945   0.717  15.040
19029TIP3    H278503   4.973   0.575  15.084
19030TIP3   OH278504   4.359   1.253   5.290
19030TIP3    H178505   4.341   1.347   5.285
19030TIP3    H278506   4.376   1.237   5.383
19031TIP3   OH278507   2.010   3.999   0.988
19031TIP3    H178508   1.949   4.035   1.053
19031TIP3    H278509   1.955   3.944   0.932
19032TIP3   OH278510   4.387   1.765  12.322
19032TIP3    H178511   4.472   1.768  12.277
19032TIP3    H278512   4.408   1.737  12.411
19033TIP3   OH278513   2.424   1.151  11.673
19033TIP3    H178514   2.413   1.138  11.579
19033TIP3    H278515   2.359   1.093  11.713
19034TIP3   OH278516   6.408   4.946   5.904
19034TIP3    H178517   6.421   4.975   5.995
19034TIP3    H278518   6.488   4.897   5.883
19035TIP3   OH278519   4.894   2.583  13.640
19035TIP3    H178520   4.893   2.652  13.574
19035TIP3    H278521   4.943   2.512  13.599
19036TIP3   OH278522   1.354   4.464  12.734
19036TIP3    H178523   1.431   4.406  12.733
19036TIP3    H278524   1.290   4.419  12.788
19037TIP3   OH278525   5.813   5.744   4.450
19037TIP3    H178526   5.892   5.754   4.503
19037TIP3    H278527   5.821   5.657   4.412
19038TIP3   OH278528   4.153   5.618  11.814
19038TIP3    H178529   4.084   5.684  11.819
19038TIP3    H278530   4.212   5.639  11.886
19039TIP3   OH278531   0.089   3.504  13.836
19039TIP3    H178532   0.149   3.432  13.814
19039TIP3    H278533   0.147   3.574  13.866
19040TIP3   OH278534   2.382   5.932  16.577
19040TIP3    H178535   2.404   5.839  16.571
19040TIP3    H278536   2.395   5.965  16.488
19041TIP3   OH278537   1.235   1.930   3.016
19041TIP3    H178538   1.187   2.011   3.029
19041TIP3    H278539   1.168   1.862   3.014
19042TIP3   OH278540   2.185   5.404   6.777
19042TIP3    H178541   2.140   5.488   6.772
19042TIP3    H278542   2.152   5.354   6.702
19043TIP3   OH278543   0.596   2.226   1.151
19043TIP3    H178544   0.543   2.148   1.168
19043TIP3    H278545   0.612   2.264   1.237
19044TIP3   OH278546   0.210   4.367  13.131
19044TIP3    H178547   0.209   4.280  13.170
19044TIP3    H278548   0.209   4.427  13.206
19045TIP3   OH278549   4.503   0.077  14.243
19045TIP3    H178550   4.447   0.035  14.307
19045TIP3    H278551   4.513   0.166  14.275
19046TIP3   OH278552   3.438   0.138  14.109
19046TIP3    H178553   3.524   0.179  14.111
19046TIP3    H278554   3.454   0.050  14.075
19047TIP3   OH278555   1.448   4.063  15.029
19047TIP3    H178556   1.425   4.002  15.099
19047TIP3    H278557   1.476   4.142  15.074
19048TIP3   OH278558   5.184   0.850  12.470
19048TIP3    H178559   5.111   0.905  12.497
19048TIP3    H278560   5.179   0.772  12.525
19049TIP3   OH278561   4.685   6.252  11.903
19049TIP3    H178562   4.674   6.184  11.969
19049TIP3    H278563   4.599   6.295  11.898
19050TIP3   OH278564   6.594   5.085   4.650
19050TIP3    H178565   6.683   5.119   4.661
19050TIP3    H278566   6.579   5.033   4.729
19051TIP3   OH278567   0.343   1.639   2.982
19051TIP3    H178568   0.292   1.645   3.062
19051TIP3    H278569   0.312   1.558   2.940
19052TIP3   OH278570   1.271   1.080  14.397
19052TIP3    H178571   1.308   0.996  14.426
19052TIP3    H278572   1.337   1.117  14.340
19053TIP3   OH278573   5.168   0.010  17.003
19053TIP3    H178574   5.218   0.020  17.084
19053TIP3    H278575   5.227  -0.037  16.944
19054TIP3   OH278576   5.051   5.241  11.861
19054TIP3    H178577   5.053   5.307  11.792
19054TIP3    H278578   5.058   5.157  11.814
19055TIP3   OH278579   4.113   4.595   0.045
19055TIP3    H178580   4.081   4.678   0.008
19055TIP3    H278581   4.190   4.573  -0.008
19056TIP3   OH278582   2.456   2.908   1.007
19056TIP3    H178583   2.482   2.891   1.097
19056TIP3    H278584   2.405   2.831   0.981
19057TIP3   OH278585   6.485   3.712   5.932
19057TIP3    H178586   6.482   3.689   6.025
19057TIP3    H278587   6.410   3.667   5.894
19058TIP3   OH278588   4.458   0.855   2.949
19058TIP3    H178589   4.529   0.829   2.890
19058TIP3    H278590   4.462   0.791   3.020
19059TIP3   OH278591   6.775   2.504  16.614
19059TIP3    H178592   6.844   2.460  16.664
19059TIP3    H278593   6.822   2.554  16.547
19060TIP3   OH278594   1.404   3.475  12.350
19060TIP3    H178595   1.413   3.386  12.382
19060TIP3    H278596   1.327   3.473  12.294
19061TIP3   OH278597   2.062   3.644  11.321
19061TIP3    H178598   2.115   3.564  11.325
19061TIP3    H278599   2.076   3.686  11.405
19062TIP3   OH278600   4.207   1.192   1.669
19062TIP3    H178601   4.138   1.245   1.706
19062TIP3    H278602   4.254   1.156   1.745
19063TIP3   OH278603   3.950   1.645   5.527
19063TIP3    H178604   3.992   1.560   5.542
19063TIP3    H278605   3.857   1.627   5.535
19064TIP3   OH278606   4.577   1.995   2.399
19064TIP3    H178607   4.621   1.966   2.320
19064TIP3    H278608   4.582   1.921   2.459
19065TIP3   OH278609   2.091   5.868  13.905
19065TIP3    H178610   2.120   5.843  13.818
19065TIP3    H278611   2.113   5.793  13.960
19066TIP3   OH278612   0.824   0.337   0.260
19066TIP3    H178613   0.891   0.354   0.194
19066TIP3    H278614   0.772   0.417   0.263
19067TIP3   OH278615   4.909   2.246   4.169
19067TIP3    H178616   4.996   2.283   4.158
19067TIP3    H278617   4.851   2.308   4.124
19068TIP3   OH278618   3.309   0.971   2.170
19068TIP3    H178619   3.376   1.001   2.108
19068TIP3    H278620   3.227   1.008   2.136
19069TIP3   OH278621   4.665   5.015  16.200
19069TIP3    H178622   4.761   5.004  16.202
19069TIP3    H278623   4.648   5.078  16.270
19070TIP3   OH278624   4.576   3.351   0.937
19070TIP3    H178625   4.618   3.404   1.004
19070TIP3    H278626   4.511   3.299   0.983
19071TIP3   OH278627   1.135   1.183  10.942
19071TIP3    H178628   1.053   1.231  10.934
19071TIP3    H278629   1.119   1.118  11.011
19072TIP3   OH278630   0.579   4.570   5.414
19072TIP3    H178631   0.567   4.507   5.484
19072TIP3    H278632   0.671   4.595   5.418
19073TIP3   OH278633   4.084   2.423   2.859
19073TIP3    H178634   4.165   2.438   2.811
19073TIP3    H278635   4.088   2.331   2.886
19074TIP3   OH278636   6.169   1.180  14.311
19074TIP3    H178637   6.260   1.202  14.288
19074TIP3    H278638   6.131   1.149  14.229
19075TIP3   OH278639   1.914   1.678   4.266
19075TIP3    H178640   1.956   1.682   4.180
19075TIP3    H278641   1.883   1.588   4.274
19076TIP3   OH278642   5.521   0.870  16.669
19076TIP3    H178643   5.517   0.964  16.653
19076TIP3    H278644   5.531   0.862  16.764
19077TIP3   OH278645   1.493   1.240   4.857
19077TIP3    H178646   1.462   1.299   4.787
19077TIP3    H278647   1.503   1.155   4.813
19078TIP3   OH278648   0.083   4.940   5.518
19078TIP3    H178649   0.161   4.935   5.573
19078TIP3    H278650   0.039   4.856   5.532
19079TIP3   OH278651   5.077   1.879   5.663
19079TIP3    H178652   5.041   1.855   5.748
19079TIP3    H278653   5.136   1.952   5.681
19080TIP3   OH278654   4.820   4.590   1.630
19080TIP3    H178655   4.769   4.662   1.593
19080TIP3    H278656   4.853   4.542   1.555
19081TIP3   OH278657   6.563   4.308  12.006
19081TIP3    H178658   6.533   4.343  11.922
19081TIP3    H278659   6.489   4.257  12.039
19082TIP3   OH278660   1.956   3.279   1.236
19082TIP3    H178661   2.024   3.268   1.169
19082TIP3    H278662   1.878   3.238   1.199
19083TIP3   OH278663   1.414   6.721  16.385
19083TIP3    H178664   1.334   6.674  16.360
19083TIP3    H278665   1.384   6.787  16.447
19084TIP3   OH278666   0.830   3.114  14.794
19084TIP3    H178667   0.849   3.202  14.827
19084TIP3    H278668   0.736   3.105  14.805
19085TIP3   OH278669   5.404   4.174  15.095
19085TIP3    H178670   5.456   4.247  15.061
19085TIP3    H278671   5.429   4.168  15.187
19086TIP3   OH278672   3.495   3.585  13.535
19086TIP3    H178673   3.583   3.549  13.519
19086TIP3    H278674   3.436   3.528  13.486
19087TIP3   OH278675   1.250   6.249   1.884
19087TIP3    H178676   1.176   6.232   1.942
19087TIP3    H278677   1.290   6.163   1.870
19088TIP3   OH278678   1.830   2.106   3.504
19088TIP3    H178679   1.744   2.068   3.519
19088TIP3    H278680   1.818   2.199   3.519
19089TIP3   OH278681   4.632   3.845  11.306
19089TIP3    H178682   4.685   3.815  11.232
19089TIP3    H278683   4.544   3.856  11.270
19090TIP3   OH278684   4.621   0.259  11.592
19090TIP3    H178685   4.623   0.352  11.571
19090TIP3    H278686   4.700   0.243  11.643
19091TIP3   OH278687   2.165   6.682   5.527
19091TIP3    H178688   2.088   6.626   5.514
19091TIP3    H278689   2.189   6.710   5.438
19092TIP3   OH278690   4.531   4.920  10.681
19092TIP3    H178691   4.590   4.882  10.615
19092TIP3    H278692   4.465   4.852  10.696
19093TIP3   OH278693   2.828   3.688  16.910
19093TIP3    H178694   2.874   3.610  16.877
19093TIP3    H278695   2.882   3.762  16.880
19094TIP3   OH278696   1.110   5.279   3.557
19094TIP3    H178697   1.134   5.249   3.645
19094TIP3    H278698   1.162   5.358   3.544
19095TIP3   OH278699   5.179   4.227  14.186
19095TIP3    H178700   5.229   4.300  14.151
19095TIP3    H278701   5.101   4.266  14.225
19096TIP3   OH278702   1.122   5.400   1.374
19096TIP3    H178703   1.213   5.427   1.381
19096TIP3    H278704   1.072   5.481   1.383
19097TIP3   OH278705   1.085   3.464   3.651
19097TIP3    H178706   1.116   3.382   3.613
19097TIP3    H278707   1.132   3.471   3.734
19098TIP3   OH278708   3.818   3.684  14.783
19098TIP3    H178709   3.745   3.668  14.724
19098TIP3    H278710   3.807   3.775  14.810
19099TIP3   OH278711   3.794   6.138   4.678
19099TIP3    H178712   3.706   6.173   4.692
19099TIP3    H278713   3.780   6.044   4.663
19100TIP3   OH278714   6.592   6.561  13.128
19100TIP3    H178715   6.636   6.492  13.178
19100TIP3    H278716   6.650   6.577  13.053
19101TIP3   OH278717   2.951   2.698   0.871
19101TIP3    H178718   2.941   2.716   0.777
19101TIP3    H278719   3.014   2.625   0.874
19102TIP3   OH278720   6.465   4.680  14.974
19102TIP3    H178721   6.503   4.597  15.002
19102TIP3    H278722   6.400   4.656  14.907
19103TIP3   OH278723   5.080   4.736  10.759
19103TIP3    H178724   5.134   4.667  10.722
19103TIP3    H278725   5.125   4.817  10.736
19104TIP3   OH278726   4.729   3.490  13.674
19104TIP3    H178727   4.796   3.531  13.729
19104TIP3    H278728   4.777   3.455  13.599
19105TIP3   OH278729   3.829   6.189   5.242
19105TIP3    H178730   3.896   6.150   5.185
19105TIP3    H278731   3.796   6.264   5.192
19106TIP3   OH278732   2.117   1.991  16.477
19106TIP3    H178733   2.057   1.921  16.501
19106TIP3    H278734   2.163   2.013  16.558
19107TIP3   OH278735   3.878   5.790   3.359
19107TIP3    H178736   3.811   5.723   3.345
19107TIP3    H278737   3.961   5.744   3.348
19108TIP3   OH278738   3.779   3.321   1.884
19108TIP3    H178739   3.869   3.353   1.881
19108TIP3    H278740   3.737   3.360   1.808
19109TIP3   OH278741   0.835   1.258   1.837
19109TIP3    H178742   0.871   1.184   1.886
19109TIP3    H278743   0.756   1.223   1.796
19110TIP3   OH278744   4.278   6.013  14.565
19110TIP3    H178745   4.217   5.953  14.607
19110TIP3    H278746   4.222   6.073  14.515
19111TIP3   OH278747   0.687   2.800   5.859
19111TIP3    H178748   0.592   2.790   5.854
19111TIP3    H278749   0.720   2.710   5.864
19112TIP3   OH278750   5.318   4.201   3.576
19112TIP3    H178751   5.341   4.164   3.661
19112TIP3    H278752   5.276   4.128   3.530
19113TIP3   OH278753   6.691   4.420  12.298
19113TIP3    H178754   6.666   4.486  12.233
19113TIP3    H278755   6.655   4.453  12.381
19114TIP3   OH278756   0.136   0.855  12.101
19114TIP3    H178757   0.122   0.791  12.031
19114TIP3    H278758   0.176   0.930  12.057
19115TIP3   OH278759   0.499   6.122  14.691
19115TIP3    H178760   0.589   6.145  14.669
19115TIP3    H278761   0.474   6.182  14.762
19116TIP3   OH278762   0.234   4.095  15.180
19116TIP3    H178763   0.158   4.042  15.203
19116TIP3    H278764   0.292   4.034  15.133
19117TIP3   OH278765   4.260   0.065   2.780
19117TIP3    H178766   4.269   0.155   2.747
19117TIP3    H278767   4.348   0.028   2.769
19118TIP3   OH278768   6.612   3.035  14.335
19118TIP3    H178769   6.553   2.960  14.332
19118TIP3    H278770   6.667   3.020  14.412
19119TIP3   OH278771   5.893   3.385   3.411
19119TIP3    H178772   5.814   3.426   3.448
19119TIP3    H278773   5.915   3.315   3.473
19120TIP3   OH278774   4.018   5.775   0.794
19120TIP3    H178775   4.113   5.768   0.786
19120TIP3    H278776   3.998   5.863   0.762
19121TIP3   OH278777   5.590   6.130  13.202
19121TIP3    H178778   5.660   6.161  13.259
19121TIP3    H278779   5.630   6.061  13.150
19122TIP3   OH278780   2.906   3.072  16.994
19122TIP3    H178781   2.923   2.991  16.945
19122TIP3    H278782   2.828   3.109  16.953
19123TIP3   OH278783   2.159   0.897   3.442
19123TIP3    H178784   2.207   0.856   3.514
19123TIP3    H278785   2.220   0.897   3.368
19124TIP3   OH278786   4.249   1.502  15.916
19124TIP3    H178787   4.305   1.579  15.903
19124TIP3    H278788   4.174   1.516  15.858
19125TIP3   OH278789   6.292   3.031   5.985
19125TIP3    H178790   6.278   2.980   5.905
19125TIP3    H278791   6.303   2.966   6.054
19126TIP3   OH278792   2.096   5.767   5.772
19126TIP3    H178793   2.130   5.781   5.860
19126TIP3    H278794   2.133   5.682   5.745
19127TIP3   OH278795   2.507   2.135   3.233
19127TIP3    H178796   2.476   2.216   3.194
19127TIP3    H278797   2.509   2.152   3.327
19128TIP3   OH278798   3.883   5.059  15.659
19128TIP3    H178799   3.974   5.079  15.637
19128TIP3    H278800   3.837   5.143  15.650
19129TIP3   OH278801   5.424   2.799  11.240
19129TIP3    H178802   5.388   2.858  11.173
19129TIP3    H278803   5.503   2.763  11.200
19130TIP3   OH278804   3.972   0.327   5.089
19130TIP3    H178805   3.881   0.357   5.087
19130TIP3    H278806   4.023   0.408   5.086
19131TIP3   OH278807   3.553   4.896  15.296
19131TIP3    H178808   3.636   4.926  15.331
19131TIP3    H278809   3.572   4.873  15.206
19132TIP3   OH278810   3.126   0.521   1.553
19132TIP3    H178811   3.200   0.578   1.534
19132TIP3    H278812   3.122   0.461   1.479
19133TIP3   OH278813   4.078   4.819  15.887
19133TIP3    H178814   4.142   4.831  15.816
19133TIP3    H278815   3.993   4.832  15.845
19134TIP3   OH278816   0.248   2.839  15.692
19134TIP3    H178817   0.208   2.872  15.612
19134TIP3    H278818   0.193   2.873  15.762
19135TIP3   OH278819   0.555   4.123   4.880
19135TIP3    H178820   0.619   4.179   4.835
19135TIP3    H278821   0.471   4.164   4.860
19136TIP3   OH278822   0.482   3.145   2.084
19136TIP3    H178823   0.424   3.082   2.126
19136TIP3    H278824   0.438   3.167   2.002
19137TIP3   OH278825   2.073   0.335  14.271
19137TIP3    H178826   2.048   0.334  14.364
19137TIP3    H278827   2.085   0.243  14.248
19138TIP3   OH278828   0.064   2.854   2.342
19138TIP3    H178829   0.102   2.851   2.430
19138TIP3    H278830   0.013   2.774   2.335
19139TIP3   OH278831   0.396   5.920   2.229
19139TIP3    H178832   0.410   5.921   2.324
19139TIP3    H278833   0.300   5.922   2.219
19140TIP3   OH278834   0.572   4.576  14.658
19140TIP3    H178835   0.591   4.486  14.683
19140TIP3    H278836   0.502   4.603  14.717
19141TIP3   OH278837   1.118   5.399   2.090
19141TIP3    H178838   1.052   5.418   2.156
19141TIP3    H278839   1.085   5.443   2.011
19142TIP3   OH278840   5.229   0.832   5.377
19142TIP3    H178841   5.229   0.885   5.297
19142TIP3    H278842   5.301   0.770   5.364
19143TIP3   OH278843   6.124   6.498   3.649
19143TIP3    H178844   6.063   6.525   3.580
19143TIP3    H278845   6.187   6.570   3.656
19144TIP3   OH278846   5.360   6.146   4.598
19144TIP3    H178847   5.334   6.072   4.652
19144TIP3    H278848   5.279   6.177   4.558
19145TIP3   OH278849   2.392   4.321  13.652
19145TIP3    H178850   2.315   4.370  13.622
19145TIP3    H278851   2.382   4.317  13.747
19146TIP3   OH278852   2.448   2.076  11.879
19146TIP3    H178853   2.407   2.158  11.850
19146TIP3    H278854   2.378   2.026  11.920
19147TIP3   OH278855   5.507   6.462   1.922
19147TIP3    H178856   5.489   6.439   2.013
19147TIP3    H278857   5.435   6.423   1.873
19148TIP3   OH278858   1.226   5.903  13.126
19148TIP3    H178859   1.313   5.867  13.109
19148TIP3    H278860   1.173   5.873  13.051
19149TIP3   OH278861   4.420   4.264   4.986
19149TIP3    H178862   4.343   4.257   5.042
19149TIP3    H278863   4.396   4.330   4.920
19150TIP3   OH278864   5.623   2.317   5.611
19150TIP3    H178865   5.595   2.313   5.519
19150TIP3    H278866   5.542   2.331   5.660
19151TIP3   OH278867   3.958   0.846  14.957
19151TIP3    H178868   4.041   0.892  14.956
19151TIP3    H278869   3.893   0.913  14.936
19152TIP3   OH278870   6.551   4.238  14.567
19152TIP3    H178871   6.557   4.178  14.641
19152TIP3    H278872   6.595   4.318  14.597
19153TIP3   OH278873   3.438   0.260  15.438
19153TIP3    H178874   3.522   0.239  15.398
19153TIP3    H278875   3.453   0.250  15.532
19154TIP3   OH278876   0.992   6.073  11.458
19154TIP3    H178877   1.076   6.099  11.496
19154TIP3    H278878   0.946   6.030  11.531
19155TIP3   OH278879   1.553   3.597  11.538
19155TIP3    H178880   1.626   3.578  11.479
19155TIP3    H278881   1.503   3.665  11.493
19156TIP3   OH278882   5.080   2.636  13.086
19156TIP3    H178883   5.074   2.699  13.158
19156TIP3    H278884   4.989   2.607  13.073
19157TIP3   OH278885   4.665   3.860  11.888
19157TIP3    H178886   4.606   3.784  11.892
19157TIP3    H278887   4.606   3.935  11.884
19158TIP3   OH278888   1.778   4.235   3.377
19158TIP3    H178889   1.858   4.223   3.327
19158TIP3    H278890   1.755   4.327   3.366
19159TIP3   OH278891   4.872   2.505  15.364
19159TIP3    H178892   4.890   2.411  15.371
19159TIP3    H278893   4.940   2.539  15.306
19160TIP3   OH278894   3.628   3.370   5.891
19160TIP3    H178895   3.710   3.405   5.928
19160TIP3    H278896   3.562   3.391   5.957
19161TIP3   OH278897   0.209   4.429   0.852
19161TIP3    H178898   0.115   4.429   0.838
19161TIP3    H278899   0.246   4.390   0.772
19162TIP3   OH278900   2.933   5.300   6.571
19162TIP3    H178901   2.980   5.375   6.609
19162TIP3    H278902   2.884   5.263   6.644
19163TIP3   OH278903   0.201   3.215  16.850
19163TIP3    H178904   0.146   3.221  16.772
19163TIP3    H278905   0.248   3.133  16.840
19164TIP3   OH278906   5.615   0.124   1.594
19164TIP3    H178907   5.621   0.029   1.592
19164TIP3    H278908   5.532   0.144   1.550
19165TIP3   OH278909   3.049   5.405   6.299
19165TIP3    H178910   3.068   5.335   6.361
19165TIP3    H278911   2.987   5.462   6.346
19166TIP3   OH278912   0.163   4.496  13.844
19166TIP3    H178913   0.068   4.489  13.853
19166TIP3    H278914   0.187   4.422  13.788
19167TIP3   OH278915   4.260   4.454   4.775
19167TIP3    H178916   4.256   4.447   4.679
19167TIP3    H278917   4.302   4.539   4.790
19168TIP3   OH278918   2.836   0.446   0.163
19168TIP3    H178919   2.820   0.493   0.082
19168TIP3    H278920   2.920   0.481   0.194
19169TIP3   OH278921   0.957   4.775  16.564
19169TIP3    H178922   0.984   4.751  16.476
19169TIP3    H278923   0.947   4.870  16.561
19170TIP3   OH278924   3.601   6.708   2.516
19170TIP3    H178925   3.558   6.726   2.433
19170TIP3    H278926   3.614   6.794   2.556
19171TIP3   OH278927   1.198   4.245  15.210
19171TIP3    H178928   1.114   4.211  15.242
19171TIP3    H278929   1.202   4.217  15.119
19172TIP3   OH278930   3.138   1.875  10.888
19172TIP3    H178931   3.144   1.860  10.983
19172TIP3    H278932   3.228   1.887  10.860
19173TIP3   OH278933   4.846   6.337   2.010
19173TIP3    H178934   4.750   6.340   2.017
19173TIP3    H278935   4.876   6.312   2.097
19174TIP3   OH278936   2.627   3.938  14.212
19174TIP3    H178937   2.646   3.996  14.138
19174TIP3    H278938   2.708   3.935  14.262
19175TIP3   OH278939   4.369   6.106   3.754
19175TIP3    H178940   4.459   6.117   3.785
19175TIP3    H278941   4.369   6.142   3.666
19176TIP3   OH278942   4.353   0.638  14.549
19176TIP3    H178943   4.403   0.559  14.571
19176TIP3    H278944   4.267   0.605  14.521
19177TIP3   OH278945   4.050   4.089   0.614
19177TIP3    H178946   4.014   4.135   0.690
19177TIP3    H278947   4.123   4.144   0.586
19178TIP3   OH278948   2.368   6.107   0.583
19178TIP3    H178949   2.317   6.060   0.650
19178TIP3    H278950   2.379   6.042   0.513
19179TIP3   OH278951   5.084   6.083   5.483
19179TIP3    H178952   5.095   6.165   5.530
19179TIP3    H278953   5.080   6.108   5.391
19180TIP3   OH278954   0.597   3.583  11.822
19180TIP3    H178955   0.590   3.666  11.774
19180TIP3    H278956   0.605   3.609  11.914
19181TIP3   OH278957   5.535   1.180  15.619
19181TIP3    H178958   5.542   1.166  15.714
19181TIP3    H278959   5.473   1.253  15.610
19182TIP3   OH278960   4.885   5.606  15.304
19182TIP3    H178961   4.861   5.678  15.362
19182TIP3    H278962   4.980   5.596  15.318
19183TIP3   OH278963   6.154   1.093   0.101
19183TIP3    H178964   6.194   1.147   0.169
19183TIP3    H278965   6.157   1.147   0.022
19184TIP3   OH278966   5.801   2.633  15.038
19184TIP3    H178967   5.737   2.650  14.969
19184TIP3    H278968   5.840   2.548  15.015
19185TIP3   OH278969   3.830   0.748   1.295
19185TIP3    H178970   3.905   0.758   1.354
19185TIP3    H278971   3.800   0.838   1.279
19186TIP3   OH278972   6.083   2.836  12.284
19186TIP3    H178973   6.053   2.883  12.207
19186TIP3    H278974   6.043   2.750  12.277
19187TIP3   OH278975   0.681   6.191  16.145
19187TIP3    H178976   0.765   6.206  16.102
19187TIP3    H278977   0.684   6.099  16.171
19188TIP3   OH278978   0.615   2.165  15.956
19188TIP3    H178979   0.692   2.219  15.967
19188TIP3    H278980   0.584   2.182  15.867
19189TIP3   OH278981   2.103   2.557  13.736
19189TIP3    H178982   2.023   2.608  13.741
19189TIP3    H278983   2.115   2.521  13.823
19190TIP3   OH278984   4.735   5.204  14.158
19190TIP3    H178985   4.650   5.165  14.180
19190TIP3    H278986   4.736   5.286  14.206
19191TIP3   OH278987   3.918   0.438  13.528
19191TIP3    H178988   3.848   0.462  13.588
19191TIP3    H278989   3.885   0.363  13.480
19192TIP3   OH278990   4.904   0.951  15.882
19192TIP3    H178991   4.995   0.982  15.885
19192TIP3    H278992   4.911   0.860  15.854
19193TIP3   OH278993   6.180   3.986   3.103
19193TIP3    H178994   6.263   3.955   3.068
19193TIP3    H278995   6.195   3.996   3.197
19194TIP3   OH278996   1.244   0.054  16.602
19194TIP3    H178997   1.159   0.057  16.646
19194TIP3    H278998   1.304   0.021  16.668
19195TIP3   OH278999   6.143   1.905   0.574
19195TIP3    H179000   6.169   1.855   0.496
19195TIP3    H279001   6.099   1.982   0.539
19196TIP3   OH279002   0.016   4.750   1.466
19196TIP3    H179003  -0.029   4.765   1.383
19196TIP3    H279004   0.092   4.808   1.463
19197TIP3   OH279005   1.571   6.687   3.328
19197TIP3    H179006   1.597   6.779   3.334
19197TIP3    H279007   1.602   6.648   3.409
19198TIP3   OH279008   2.677   0.539  17.147
19198TIP3    H179009   2.651   0.459  17.101
19198TIP3    H279010   2.744   0.578  17.092
19199TIP3   OH279011   1.952   4.766   4.159
19199TIP3    H179012   1.992   4.695   4.209
19199TIP3    H279013   2.014   4.838   4.164
19200TIP3   OH279014   5.005   6.183   2.495
19200TIP3    H179015   5.062   6.131   2.551
19200TIP3    H279016   4.967   6.249   2.553
19201TIP3   OH279017   3.573   3.664   3.255
19201TIP3    H179018   3.582   3.630   3.167
19201TIP3    H279019   3.492   3.624   3.288
19202TIP3   OH279020   1.563   5.188  15.032
19202TIP3    H179021   1.626   5.145  15.089
19202TIP3    H279022   1.593   5.279  15.027
19203TIP3   OH279023   0.051   3.550   2.714
19203TIP3    H179024   0.086   3.618   2.773
19203TIP3    H279025  -0.036   3.582   2.691
19204TIP3   OH279026   0.220   1.187  12.950
19204TIP3    H179027   0.163   1.137  12.892
19204TIP3    H279028   0.266   1.248  12.892
19205TIP3   OH279029   4.228   5.104   5.685
19205TIP3    H179030   4.218   5.191   5.647
19205TIP3    H279031   4.322   5.087   5.680
19206TIP3   OH279032   5.189   0.718  16.419
19206TIP3    H179033   5.153   0.804  16.439
19206TIP3    H279034   5.195   0.673  16.504
19207TIP3   OH279035   1.043   4.351   5.343
19207TIP3    H179036   1.007   4.412   5.407
19207TIP3    H279037   0.977   4.282   5.336
19208TIP3   OH279038   5.998   5.580   3.491
19208TIP3    H179039   5.966   5.493   3.516
19208TIP3    H279040   6.076   5.594   3.545
19209TIP3   OH279041   0.413   2.866   2.824
19209TIP3    H179042   0.423   2.908   2.909
19209TIP3    H279043   0.484   2.901   2.771
19210TIP3   OH279044   5.759   0.341  17.186
19210TIP3    H179045   5.671   0.348  17.221
19210TIP3    H279046   5.799   0.268  17.233
19211TIP3   OH279047   1.324   4.173   0.563
19211TIP3    H179048   1.279   4.255   0.542
19211TIP3    H279049   1.342   4.133   0.478
19212TIP3   OH279050   0.834   4.259   4.997
19212TIP3    H179051   0.896   4.194   5.031
19212TIP3    H279052   0.748   4.218   5.005
19213TIP3   OH279053   5.877   6.193   3.994
19213TIP3    H179054   5.883   6.276   4.042
19213TIP3    H279055   5.862   6.127   4.062
19214TIP3   OH279056   6.750   2.636   0.886
19214TIP3    H179057   6.764   2.591   0.970
19214TIP3    H279058   6.793   2.721   0.897
19215TIP3   OH279059   2.910   5.390  14.526
19215TIP3    H179060   2.889   5.335  14.451
19215TIP3    H279061   2.984   5.443  14.498
19216TIP3   OH279062   2.902   2.898   4.141
19216TIP3    H179063   2.809   2.882   4.123
19216TIP3    H279064   2.912   2.881   4.235
19217TIP3   OH279065   4.994   0.109   1.403
19217TIP3    H179066   4.981   0.017   1.428
19217TIP3    H279067   5.037   0.105   1.318
19218TIP3   OH279068   4.665   0.493  16.729
19218TIP3    H179069   4.600   0.423  16.723
19218TIP3    H279070   4.645   0.538  16.811
19219TIP3   OH279071   2.600   1.505  17.137
19219TIP3    H179072   2.558   1.420  17.125
19219TIP3    H279073   2.576   1.532  17.225
19220TIP3   OH279074   2.097   1.149   1.403
19220TIP3    H179075   2.149   1.071   1.391
19220TIP3    H279076   2.006   1.118   1.404
19221TIP3   OH279077   5.659   3.084   3.196
19221TIP3    H179078   5.634   3.046   3.280
19221TIP3    H279079   5.637   3.016   3.131
19222TIP3   OH279080   5.155   1.178  15.423
19222TIP3    H179081   5.138   1.090  15.391
19222TIP3    H279082   5.141   1.173  15.518
19223TIP3   OH279083   0.790   5.823   4.318
19223TIP3    H179084   0.719   5.785   4.369
19223TIP3    H279085   0.776   5.917   4.324
19224TIP3   OH279086   3.748   4.620  17.140
19224TIP3    H179087   3.657   4.637  17.114
19224TIP3    H279088   3.753   4.525  17.151
19225TIP3   OH279089   3.645   3.751  15.521
19225TIP3    H179090   3.713   3.685  15.534
19225TIP3    H279091   3.688   3.834  15.545
19226TIP3   OH279092   2.420   4.851  14.852
19226TIP3    H179093   2.357   4.855  14.780
19226TIP3    H279094   2.492   4.799  14.818
19227TIP3   OH279095   2.856   3.976   4.884
19227TIP3    H179096   2.864   4.006   4.793
19227TIP3    H279097   2.946   3.963   4.913
19228TIP3   OH279098   2.857   3.281  11.834
19228TIP3    H179099   2.950   3.258  11.832
19228TIP3    H279100   2.815   3.203  11.870
19229TIP3   OH279101   3.987   3.132   5.506
19229TIP3    H179102   4.048   3.064   5.535
19229TIP3    H279103   4.034   3.214   5.520
19230TIP3   OH279104   2.490   4.224  13.094
19230TIP3    H179105   2.556   4.187  13.153
19230TIP3    H279106   2.412   4.169  13.108
19231TIP3   OH279107   2.619   0.639   1.975
19231TIP3    H179108   2.657   0.641   2.063
19231TIP3    H279109   2.631   0.549   1.947
19232TIP3   OH279110   1.618   4.300  15.098
19232TIP3    H179111   1.602   4.321  15.189
19232TIP3    H279112   1.708   4.329  15.081
19233TIP3   OH279113   3.962   1.365  12.406
19233TIP3    H179114   3.979   1.271  12.410
19233TIP3    H279115   3.981   1.397  12.494
19234TIP3   OH279116   6.378   3.443   3.186
19234TIP3    H179117   6.444   3.508   3.205
19234TIP3    H279118   6.413   3.394   3.112
19235TIP3   OH279119   0.365   4.493   2.943
19235TIP3    H179120   0.382   4.504   2.850
19235TIP3    H279121   0.393   4.403   2.962
19236TIP3   OH279122   1.355   2.201  10.576
19236TIP3    H179123   1.403   2.147  10.513
19236TIP3    H279124   1.384   2.291  10.557
19237TIP3   OH279125   5.259   0.950  14.035
19237TIP3    H179126   5.197   0.999  14.089
19237TIP3    H279127   5.206   0.915  13.964
19238TIP3   OH279128   3.699   6.473  15.320
19238TIP3    H179129   3.613   6.435  15.299
19238TIP3    H279130   3.753   6.398  15.343
19239TIP3   OH279131   4.830   5.112   3.491
19239TIP3    H179132   4.812   5.076   3.579
19239TIP3    H279133   4.925   5.109   3.483
19240TIP3   OH279134   3.840   6.668  16.766
19240TIP3    H179135   3.776   6.597  16.768
19240TIP3    H279136   3.840   6.699  16.676
19241TIP3   OH279137   4.291   4.309   1.516
19241TIP3    H179138   4.372   4.356   1.497
19241TIP3    H279139   4.294   4.294   1.611
19242TIP3   OH279140   2.853   1.967  12.367
19242TIP3    H179141   2.850   1.923  12.282
19242TIP3    H279142   2.830   2.058  12.347
19243TIP3   OH279143   6.267   0.279  11.331
19243TIP3    H179144   6.203   0.243  11.393
19243TIP3    H279145   6.321   0.203  11.307
19244TIP3   OH279146   3.073   3.730  11.880
19244TIP3    H179147   3.006   3.790  11.848
19244TIP3    H279148   3.146   3.787  11.905
19245TIP3   OH279149   0.188   4.593   4.268
19245TIP3    H179150   0.208   4.560   4.180
19245TIP3    H279151   0.098   4.567   4.284
19246TIP3   OH279152   4.435   6.048  11.412
19246TIP3    H179153   4.382   5.991  11.468
19246TIP3    H279154   4.397   6.039  11.325
19247TIP3   OH279155   6.616   5.966  15.373
19247TIP3    H179156   6.642   5.890  15.424
19247TIP3    H279157   6.537   5.939  15.326
19248TIP3   OH279158   6.322   4.392   5.285
19248TIP3    H179159   6.252   4.396   5.350
19248TIP3    H279160   6.306   4.310   5.238
19249TIP3   OH279161   0.779   6.243   4.164
19249TIP3    H179162   0.777   6.253   4.068
19249TIP3    H279163   0.868   6.267   4.189
19250TIP3   OH279164   2.001   4.454   4.049
19250TIP3    H179165   2.027   4.364   4.064
19250TIP3    H279166   1.906   4.449   4.034
19251TIP3   OH279167   3.488   4.248  15.895
19251TIP3    H179168   3.509   4.267  15.986
19251TIP3    H279169   3.515   4.157  15.882
19252TIP3   OH279170   2.630   3.356  17.053
19252TIP3    H179171   2.707   3.408  17.078
19252TIP3    H279172   2.565   3.422  17.026
19253TIP3   OH279173   5.374   5.775   4.349
19253TIP3    H179174   5.382   5.682   4.367
19253TIP3    H279175   5.299   5.782   4.290
19254TIP3   OH279176   2.386   3.147   1.318
19254TIP3    H179177   2.384   3.239   1.289
19254TIP3    H279178   2.308   3.108   1.280
19255TIP3   OH279179   4.478   4.531  13.684
19255TIP3    H179180   4.448   4.445  13.656
19255TIP3    H279181   4.496   4.521  13.778
19256TIP3   OH279182   4.001   6.220   0.959
19256TIP3    H179183   3.937   6.234   0.889
19256TIP3    H279184   3.956   6.248   1.039
19257TIP3   OH279185   2.139   1.352  14.436
19257TIP3    H179186   2.190   1.430  14.415
19257TIP3    H279187   2.193   1.305  14.499
19258TIP3   OH279188   1.282   0.043   5.056
19258TIP3    H179189   1.189   0.036   5.033
19258TIP3    H279190   1.317   0.106   4.993
19259TIP3   OH279191   6.159   1.827   3.577
19259TIP3    H179192   6.096   1.786   3.517
19259TIP3    H279193   6.105   1.871   3.642
19260TIP3   OH279194   1.973   1.406   5.738
19260TIP3    H179195   1.959   1.457   5.658
19260TIP3    H279196   1.894   1.352   5.746
19261TIP3   OH279197   1.114   4.548   1.727
19261TIP3    H179198   1.155   4.577   1.646
19261TIP3    H279199   1.139   4.614   1.792
19262TIP3   OH279200   2.663   3.624   3.618
19262TIP3    H179201   2.682   3.557   3.685
19262TIP3    H279202   2.568   3.619   3.607
19263TIP3   OH279203   5.406   1.894  12.873
19263TIP3    H179204   5.478   1.831  12.879
19263TIP3    H279205   5.350   1.860  12.803
19264TIP3   OH279206   5.031   3.034   1.750
19264TIP3    H179207   5.039   2.946   1.714
19264TIP3    H279208   5.106   3.082   1.715
19265TIP3   OH279209   4.469   0.838  13.676
19265TIP3    H179210   4.531   0.911  13.668
19265TIP3    H279211   4.384   0.881  13.685
19266TIP3   OH279212   5.368   5.518  12.710
19266TIP3    H179213   5.298   5.540  12.772
19266TIP3    H279214   5.340   5.435  12.672
19267TIP3   OH279215   4.815   6.285   5.371
19267TIP3    H179216   4.799   6.334   5.290
19267TIP3    H279217   4.872   6.342   5.423
19268TIP3   OH279218   3.099   5.256  14.067
19268TIP3    H179219   3.127   5.232  14.156
19268TIP3    H279220   3.040   5.185  14.041
19269TIP3   OH279221   5.972   3.512  16.551
19269TIP3    H179222   6.011   3.509  16.639
19269TIP3    H279223   5.970   3.606  16.530
19270TIP3   OH279224   4.744   3.667   3.453
19270TIP3    H179225   4.691   3.724   3.508
19270TIP3    H279226   4.702   3.668   3.367
19271TIP3   OH279227   4.166   6.603  15.002
19271TIP3    H179228   4.212   6.617  15.085
19271TIP3    H279229   4.201   6.671  14.944
19272TIP3   OH279230   5.598   0.550  15.521
19272TIP3    H179231   5.578   0.554  15.615
19272TIP3    H279232   5.624   0.639  15.498
19273TIP3   OH279233   3.892   5.162  16.431
19273TIP3    H179234   3.889   5.256  16.451
19273TIP3    H279235   3.843   5.154  16.349
19274TIP3   OH279236   3.364   3.137   5.639
19274TIP3    H179237   3.329   3.224   5.623
19274TIP3    H279238   3.440   3.151   5.695
19275TIP3   OH279239   1.564   3.491   0.274
19275TIP3    H179240   1.591   3.582   0.259
19275TIP3    H279241   1.576   3.477   0.368
19276TIP3   OH279242   0.550   2.676  12.729
19276TIP3    H179243   0.604   2.611  12.775
19276TIP3    H279244   0.537   2.745  12.793
19277TIP3   OH279245   5.076   3.029   2.374
19277TIP3    H179246   5.034   3.090   2.313
19277TIP3    H279247   5.158   3.006   2.332
19278TIP3   OH279248   0.341   6.435  16.964
19278TIP3    H179249   0.326   6.422  17.057
19278TIP3    H279250   0.274   6.498  16.937
19279TIP3   OH279251   0.919   5.707   2.268
19279TIP3    H179252   0.906   5.800   2.283
19279TIP3    H279253   1.004   5.687   2.306
19280TIP3   OH279254   5.993   5.887  16.501
19280TIP3    H179255   6.082   5.872  16.531
19280TIP3    H279256   5.983   5.982  16.502
19281TIP3   OH279257   2.050   2.512   6.044
19281TIP3    H179258   2.056   2.591   6.096
19281TIP3    H279259   1.984   2.459   6.088
19282TIP3   OH279260   6.347   4.402  12.675
19282TIP3    H179261   6.433   4.432  12.703
19282TIP3    H279262   6.350   4.307  12.684
19283TIP3   OH279263   5.222   1.623  15.186
19283TIP3    H179264   5.297   1.683  15.185
19283TIP3    H279265   5.171   1.647  15.109
19284TIP3   OH279266   4.128   2.114  11.107
19284TIP3    H179267   4.082   2.058  11.044
19284TIP3    H279268   4.219   2.114  11.077
19285TIP3   OH279269   2.191   0.819  11.381
19285TIP3    H179270   2.127   0.882  11.348
19285TIP3    H279271   2.255   0.810  11.311
19286TIP3   OH279272   1.884   4.482   3.636
19286TIP3    H179273   1.818   4.430   3.682
19286TIP3    H279274   1.854   4.484   3.545
19287TIP3   OH279275   0.851   4.059   1.443
19287TIP3    H179276   0.883   3.969   1.445
19287TIP3    H279277   0.848   4.085   1.535
19288TIP3   OH279278   1.519   3.895  12.255
19288TIP3    H179279   1.425   3.908  12.266
19288TIP3    H279280   1.528   3.804  12.228
19289TIP3   OH279281   3.542   0.612   4.669
19289TIP3    H179282   3.570   0.548   4.603
19289TIP3    H279283   3.461   0.576   4.704
19290TIP3   OH279284   6.736   5.922  14.931
19290TIP3    H179285   6.761   5.830  14.940
19290TIP3    H279286   6.746   5.958  15.020
19291TIP3   OH279287   0.632   4.264   6.486
19291TIP3    H179288   0.668   4.178   6.465
19291TIP3    H279289   0.546   4.245   6.524
19292TIP3   OH279290   2.603   1.453  13.246
19292TIP3    H179291   2.669   1.493  13.190
19292TIP3    H279292   2.531   1.432  13.187
19293TIP3   OH279293   4.860   2.174   6.136
19293TIP3    H179294   4.896   2.086   6.140
19293TIP3    H279295   4.803   2.181   6.213
19294TIP3   OH279296   0.291   1.808  14.725
19294TIP3    H179297   0.238   1.731  14.748
19294TIP3    H279298   0.243   1.882  14.761
19295TIP3   OH279299   2.843   0.246   5.859
19295TIP3    H179300   2.903   0.206   5.796
19295TIP3    H279301   2.827   0.176   5.923
19296TIP3   OH279302   6.414   6.320   1.739
19296TIP3    H179303   6.507   6.341   1.727
19296TIP3    H279304   6.381   6.311   1.649
19297TIP3   OH279305   0.211   1.082  13.228
19297TIP3    H179306   0.179   1.104  13.141
19297TIP3    H279307   0.180   0.992  13.243
19298TIP3   OH279308   0.379   5.508  11.443
19298TIP3    H179309   0.409   5.420  11.423
19298TIP3    H279310   0.338   5.501  11.529
19299TIP3   OH279311   0.915   4.916   5.273
19299TIP3    H179312   0.837   4.943   5.322
19299TIP3    H279313   0.899   4.823   5.254
19300TIP3   OH279314   0.421   1.551   6.602
19300TIP3    H179315   0.495   1.608   6.623
19300TIP3    H279316   0.457   1.486   6.542
19301TIP3   OH279317   0.057   5.578   5.635
19301TIP3    H179318   0.121   5.534   5.579
19301TIP3    H279319  -0.006   5.616   5.573
19302TIP3   OH279320   5.494   2.029  15.732
19302TIP3    H179321   5.509   2.111  15.778
19302TIP3    H279322   5.581   1.998  15.707
19303TIP3   OH279323   2.712   5.453   3.566
19303TIP3    H179324   2.719   5.548   3.554
19303TIP3    H279325   2.803   5.423   3.573
19304TIP3   OH279326   4.786   5.041  13.895
19304TIP3    H179327   4.728   5.098  13.945
19304TIP3    H279328   4.873   5.055  13.933
19305TIP3   OH279329   2.675   5.799  16.043
19305TIP3    H179330   2.760   5.812  16.086
19305TIP3    H279331   2.662   5.879  15.992
19306TIP3   OH279332   6.497   5.171   5.292
19306TIP3    H179333   6.475   5.079   5.302
19306TIP3    H279334   6.450   5.198   5.213
19307TIP3   OH279335   2.807   0.461   1.650
19307TIP3    H179336   2.844   0.395   1.592
19307TIP3    H279337   2.766   0.410   1.721
19308TIP3   OH279338   3.083   0.238  13.513
19308TIP3    H179339   3.160   0.292  13.528
19308TIP3    H279340   3.069   0.192  13.596
19309TIP3   OH279341   5.310   1.460  16.605
19309TIP3    H179342   5.281   1.372  16.630
19309TIP3    H279343   5.297   1.513  16.684
19310TIP3   OH279344   4.284   6.687   1.517
19310TIP3    H179345   4.236   6.770   1.525
19310TIP3    H279346   4.285   6.652   1.606
19311TIP3   OH279347   5.844   4.279   0.253
19311TIP3    H179348   5.855   4.282   0.158
19311TIP3    H279349   5.898   4.206   0.281
19312TIP3   OH279350   1.231   2.379  11.642
19312TIP3    H179351   1.300   2.445  11.646
19312TIP3    H279352   1.193   2.390  11.555
19313TIP3   OH279353   1.352   5.128   1.560
19313TIP3    H179354   1.389   5.204   1.516
19313TIP3    H279355   1.318   5.074   1.490
19314TIP3   OH279356   2.792   3.470  15.627
19314TIP3    H179357   2.752   3.506  15.548
19314TIP3    H279358   2.719   3.428  15.674
19315TIP3   OH279359   4.105   4.701  13.308
19315TIP3    H179360   4.130   4.792  13.291
19315TIP3    H279361   4.045   4.707  13.382
19316TIP3   OH279362   1.028   5.100  12.812
19316TIP3    H179363   0.958   5.096  12.878
19316TIP3    H279364   0.999   5.041  12.742
19317TIP3   OH279365   2.422   4.025   0.568
19317TIP3    H179366   2.396   3.946   0.519
19317TIP3    H279367   2.505   4.051   0.530
19318TIP3   OH279368   1.423   3.238   5.532
19318TIP3    H179369   1.421   3.164   5.593
19318TIP3    H279370   1.363   3.213   5.462
19319TIP3   OH279371   2.337   0.916   1.657
19319TIP3    H179372   2.251   0.949   1.684
19319TIP3    H279373   2.382   0.992   1.619
19320TIP3   OH279374   4.146   0.083   6.317
19320TIP3    H179375   4.073   0.093   6.256
19320TIP3    H279376   4.129   0.148   6.386
19321TIP3   OH279377   4.519   5.659   3.434
19321TIP3    H179378   4.595   5.602   3.442
19321TIP3    H279379   4.450   5.603   3.399
19322TIP3   OH279380   4.829   2.823   1.364
19322TIP3    H179381   4.780   2.770   1.301
19322TIP3    H279382   4.907   2.852   1.316
19323TIP3   OH279383   3.171   2.327   2.745
19323TIP3    H179384   3.249   2.368   2.709
19323TIP3    H279385   3.125   2.292   2.669
19324TIP3   OH279386   4.715   6.400  15.558
19324TIP3    H179387   4.802   6.363  15.567
19324TIP3    H279388   4.691   6.430  15.645
19325TIP3   OH279389   6.241   1.613  15.258
19325TIP3    H179390   6.328   1.590  15.290
19325TIP3    H279391   6.186   1.539  15.284
19326TIP3   OH279392   0.401   0.432  12.408
19326TIP3    H179393   0.379   0.427  12.315
19326TIP3    H279394   0.477   0.490  12.411
19327TIP3   OH279395   0.094   1.133  15.641
19327TIP3    H179396   0.162   1.187  15.680
19327TIP3    H279397   0.071   1.177  15.559
19328TIP3   OH279398   5.149   1.827  15.000
19328TIP3    H179399   5.068   1.869  14.970
19328TIP3    H279400   5.155   1.747  14.948
19329TIP3   OH279401   3.636   6.674   4.098
19329TIP3    H179402   3.546   6.642   4.102
19329TIP3    H279403   3.666   6.651   4.010
19330TIP3   OH279404   2.330   3.112   2.698
19330TIP3    H179405   2.339   3.205   2.718
19330TIP3    H279406   2.307   3.071   2.781
19331TIP3   OH279407   2.139   2.463  15.679
19331TIP3    H179408   2.154   2.491  15.769
19331TIP3    H279409   2.213   2.500  15.630
19332TIP3   OH279410   1.362   5.206  14.451
19332TIP3    H179411   1.449   5.166  14.456
19332TIP3    H279412   1.311   5.145  14.397
19333TIP3   OH279413   3.766   2.859  13.124
19333TIP3    H179414   3.689   2.811  13.093
19333TIP3    H279415   3.828   2.853  13.052
19334TIP3   OH279416   1.743   1.438   1.739
19334TIP3    H179417   1.787   1.513   1.777
19334TIP3    H279418   1.781   1.362   1.784
19335TIP3   OH279419   3.743   4.186  11.447
19335TIP3    H179420   3.733   4.229  11.362
19335TIP3    H279421   3.786   4.103  11.427
19336TIP3   OH279422   0.952   6.254  11.777
19336TIP3    H179423   1.015   6.186  11.751
19336TIP3    H279424   0.894   6.211  11.840
19337TIP3   OH279425   1.529   4.190  11.953
19337TIP3    H179426   1.455   4.224  11.901
19337TIP3    H279427   1.605   4.240  11.922
19338TIP3   OH279428   0.351   1.520   3.827
19338TIP3    H179429   0.440   1.495   3.850
19338TIP3    H279430   0.349   1.616   3.836
19339TIP3   OH279431   0.768   5.532  16.801
19339TIP3    H179432   0.725   5.614  16.778
19339TIP3    H279433   0.861   5.550  16.788
19340TIP3   OH279434   6.220   1.036   2.647
19340TIP3    H179435   6.203   1.012   2.556
19340TIP3    H279436   6.310   1.067   2.648
19341TIP3   OH279437   3.458   1.797  13.606
19341TIP3    H179438   3.408   1.756  13.536
19341TIP3    H279439   3.511   1.863  13.562
19342TIP3   OH279440   0.541   2.883   3.693
19342TIP3    H179441   0.630   2.900   3.723
19342TIP3    H279442   0.514   2.964   3.651
19343TIP3   OH279443   1.055   2.116   4.191
19343TIP3    H179444   1.005   2.080   4.116
19343TIP3    H279445   1.018   2.203   4.204
19344TIP3   OH279446   0.505   0.209   4.194
19344TIP3    H179447   0.461   0.125   4.205
19344TIP3    H279448   0.441   0.264   4.148
19345TIP3   OH279449   5.609   3.483   1.802
19345TIP3    H179450   5.606   3.559   1.860
19345TIP3    H279451   5.543   3.502   1.736
19346TIP3   OH279452   4.639   5.398  12.660
19346TIP3    H179453   4.670   5.316  12.699
19346TIP3    H279454   4.575   5.432  12.722
19347TIP3   OH279455   3.541   6.354   5.500
19347TIP3    H179456   3.620   6.392   5.461
19347TIP3    H279457   3.519   6.413   5.572
19348TIP3   OH279458   2.771   0.536  16.369
19348TIP3    H179459   2.714   0.462  16.390
19348TIP3    H279460   2.858   0.506  16.395
19349TIP3   OH279461   5.409   0.995  11.186
19349TIP3    H179462   5.475   0.927  11.180
19349TIP3    H279463   5.437   1.061  11.122
19350TIP3   OH279464   1.500   3.754   2.471
19350TIP3    H179465   1.582   3.723   2.508
19350TIP3    H279466   1.432   3.709   2.522
19351TIP3   OH279467   5.027   6.665  15.081
19351TIP3    H179468   5.104   6.663  15.024
19351TIP3    H279469   4.953   6.659  15.021
19352TIP3   OH279470   3.790   5.966  15.620
19352TIP3    H179471   3.789   6.000  15.531
19352TIP3    H279472   3.855   5.896  15.619
19353TIP3   OH279473   6.605   0.476  10.656
19353TIP3    H179474   6.615   0.439  10.569
19353TIP3    H279475   6.601   0.400  10.714
19354TIP3   OH279476   1.098   1.588  13.396
19354TIP3    H179477   1.110   1.502  13.438
19354TIP3    H279478   1.105   1.651  13.467
19355TIP3   OH279479   4.121   2.522   5.380
19355TIP3    H179480   4.212   2.530   5.410
19355TIP3    H279481   4.118   2.437   5.336
19356TIP3   OH279482   3.422   4.594  12.165
19356TIP3    H179483   3.389   4.672  12.209
19356TIP3    H279484   3.347   4.560  12.116
19357TIP3   OH279485   2.372   6.358   0.639
19357TIP3    H179486   2.428   6.362   0.716
19357TIP3    H279487   2.371   6.266   0.614
19358TIP3   OH279488   4.301   0.053  14.858
19358TIP3    H179489   4.314   0.095  14.773
19358TIP3    H279490   4.377   0.080  14.909
19359TIP3   OH279491   6.662   2.752   1.832
19359TIP3    H179492   6.600   2.733   1.762
19359TIP3    H279493   6.747   2.754   1.788
19360TIP3   OH279494   2.889   5.264  11.405
19360TIP3    H179495   2.848   5.180  11.382
19360TIP3    H279496   2.853   5.326  11.341
19361TIP3   OH279497   4.534   0.227  14.870
19361TIP3    H179498   4.516   0.313  14.909
19361TIP3    H279499   4.620   0.203  14.905
19362TIP3   OH279500   5.007   1.821   2.947
19362TIP3    H179501   4.971   1.814   3.035
19362TIP3    H279502   4.977   1.907   2.916
19363TIP3   OH279503   5.363   3.414   2.690
19363TIP3    H179504   5.438   3.428   2.633
19363TIP3    H279505   5.368   3.486   2.754
19364TIP3   OH279506   5.588   2.191   1.218
19364TIP3    H179507   5.646   2.135   1.269
19364TIP3    H279508   5.644   2.229   1.151
19365TIP3   OH279509   5.138   1.655   3.868
19365TIP3    H179510   5.192   1.589   3.824
19365TIP3    H279511   5.055   1.654   3.819
19366TIP3   OH279512   4.015   0.821   1.469
19366TIP3    H179513   4.107   0.826   1.494
19366TIP3    H279514   3.971   0.886   1.524
19367TIP3   OH279515   5.814   5.640  14.908
19367TIP3    H179516   5.730   5.651  14.952
19367TIP3    H279517   5.879   5.647  14.978
19368TIP3   OH279518   5.977   4.451  13.774
19368TIP3    H179519   5.992   4.546  13.777
19368TIP3    H279520   5.882   4.442  13.774
19369TIP3   OH279521   4.687   5.177  12.792
19369TIP3    H179522   4.699   5.177  12.887
19369TIP3    H279523   4.735   5.099  12.762
19370TIP3   OH279524   4.144   2.153  17.040
19370TIP3    H179525   4.107   2.239  17.056
19370TIP3    H279526   4.132   2.138  16.946
19371TIP3   OH279527   1.024   6.560   4.692
19371TIP3    H179528   1.111   6.530   4.667
19371TIP3    H279529   1.024   6.556   4.788
19372TIP3   OH279530   5.172   2.514  15.816
19372TIP3    H179531   5.215   2.550  15.739
19372TIP3    H279532   5.078   2.524  15.798
19373TIP3   OH279533   5.634   4.051  10.526
19373TIP3    H179534   5.594   3.966  10.543
19373TIP3    H279535   5.583   4.112  10.579
19374TIP3   OH279536   5.691   0.755   4.110
19374TIP3    H179537   5.655   0.842   4.127
19374TIP3    H279538   5.625   0.695   4.145
19375TIP3   OH279539   2.421   0.391   2.197
19375TIP3    H179540   2.346   0.386   2.256
19375TIP3    H279541   2.445   0.484   2.196
19376TIP3   OH279542   3.394   2.129   6.011
19376TIP3    H179543   3.446   2.178   5.947
19376TIP3    H279544   3.448   2.054   6.035
19377TIP3   OH279545   0.130   4.943  15.341
19377TIP3    H179546   0.180   4.919  15.263
19377TIP3    H279547   0.162   5.031  15.364
19378TIP3   OH279548   6.086   3.604   2.138
19378TIP3    H179549   6.022   3.630   2.072
19378TIP3    H279550   6.160   3.568   2.087
19379TIP3   OH279551   6.368   1.577  11.888
19379TIP3    H179552   6.447   1.537  11.923
19379TIP3    H279553   6.296   1.522  11.919
19380TIP3   OH279554   4.333   4.247   1.796
19380TIP3    H179555   4.428   4.235   1.787
19380TIP3    H279556   4.300   4.161   1.821
19381TIP3   OH279557   4.106   0.614  12.675
19381TIP3    H179558   4.182   0.556  12.684
19381TIP3    H279559   4.114   0.650  12.587
19382TIP3   OH279560   0.966   6.568   1.996
19382TIP3    H179561   0.886   6.518   2.015
19382TIP3    H279562   0.994   6.537   1.910
19383TIP3   OH279563   6.724   0.764  14.006
19383TIP3    H179564   6.763   0.780  14.091
19383TIP3    H279565   6.709   0.669  14.004
19384TIP3   OH279566   0.139   0.040   1.211
19384TIP3    H179567   0.093   0.121   1.235
19384TIP3    H279568   0.231   0.067   1.205
19385TIP3   OH279569   3.469   0.479  11.187
19385TIP3    H179570   3.474   0.455  11.280
19385TIP3    H279571   3.525   0.414  11.143
19386TIP3   OH279572   2.512   5.652  16.864
19386TIP3    H179573   2.573   5.719  16.833
19386TIP3    H279574   2.521   5.654  16.960
19387TIP3   OH279575   2.393   3.451   2.025
19387TIP3    H179576   2.356   3.434   2.112
19387TIP3    H279577   2.456   3.381   2.011
19388TIP3   OH279578   1.550   1.541   5.670
19388TIP3    H179579   1.483   1.475   5.685
19388TIP3    H279580   1.609   1.533   5.744
19389TIP3   OH279581   0.041   3.348   3.811
19389TIP3    H179582   0.024   3.285   3.741
19389TIP3    H279583  -0.045   3.382   3.834
19390TIP3   OH279584   2.513   2.752   2.523
19390TIP3    H179585   2.505   2.818   2.454
19390TIP3    H279586   2.595   2.707   2.504
19391TIP3   OH279587   4.898   0.593  15.565
19391TIP3    H179588   4.866   0.507  15.536
19391TIP3    H279589   4.990   0.579  15.586
19392TIP3   OH279590   2.915   0.938   1.249
19392TIP3    H179591   2.918   0.843   1.251
19392TIP3    H279592   2.848   0.959   1.184
19393TIP3   OH279593   2.458   2.425   5.158
19393TIP3    H179594   2.481   2.359   5.224
19393TIP3    H279595   2.531   2.423   5.097
19394TIP3   OH279596   1.128   2.195   3.042
19394TIP3    H179597   1.069   2.228   2.974
19394TIP3    H279598   1.194   2.263   3.052
19395TIP3   OH279599   4.281   5.799   3.491
19395TIP3    H179600   4.369   5.783   3.457
19395TIP3    H279601   4.228   5.730   3.451
19396TIP3   OH279602   3.261   2.387  14.130
19396TIP3    H179603   3.287   2.301  14.164
19396TIP3    H279604   3.343   2.431  14.108
19397TIP3   OH279605   5.049   3.566  17.206
19397TIP3    H179606   5.014   3.576  17.294
19397TIP3    H279607   5.125   3.624  17.203
19398TIP3   OH279608   6.244   6.522   2.796
19398TIP3    H179609   6.230   6.485   2.709
19398TIP3    H279610   6.158   6.554   2.823
19399TIP3   OH279611   6.653   5.562  16.192
19399TIP3    H179612   6.594   5.529  16.260
19399TIP3    H279613   6.615   5.645  16.165
19400TIP3   OH279614   5.681   2.915  13.213
19400TIP3    H179615   5.624   2.850  13.172
19400TIP3    H279616   5.623   2.966  13.269
19401TIP3   OH279617   3.605   3.750   3.806
19401TIP3    H179618   3.590   3.843   3.790
19401TIP3    H279619   3.679   3.749   3.867
19402TIP3   OH279620   5.987   5.071  16.067
19402TIP3    H179621   5.943   5.132  16.009
19402TIP3    H279622   6.080   5.087  16.052
19403TIP3   OH279623   0.674   5.034  12.058
19403TIP3    H179624   0.659   5.128  12.051
19403TIP3    H279625   0.696   5.020  12.150
19404TIP3   OH279626   3.820   3.963  14.785
19404TIP3    H179627   3.839   4.049  14.822
19404TIP3    H279628   3.764   3.982  14.709
19405TIP3   OH279629   5.197   4.392  13.790
19405TIP3    H179630   5.112   4.350  13.773
19405TIP3    H279631   5.192   4.475  13.743
19406TIP3   OH279632   1.215   6.059  13.662
19406TIP3    H179633   1.204   5.986  13.722
19406TIP3    H279634   1.134   6.110  13.671
19407TIP3   OH279635   3.244   4.966  13.794
19407TIP3    H179636   3.219   4.922  13.875
19407TIP3    H279637   3.312   4.910  13.756
19408TIP3   OH279638   0.686   1.794   2.735
19408TIP3    H179639   0.758   1.738   2.765
19408TIP3    H279640   0.726   1.856   2.674
19409TIP3   OH279641   0.733   5.609   1.598
19409TIP3    H179642   0.670   5.673   1.630
19409TIP3    H279643   0.692   5.524   1.613
19410TIP3   OH279644   0.251   4.118  13.233
19410TIP3    H179645   0.345   4.101  13.243
19410TIP3    H279646   0.210   4.068  13.304
19411TIP3   OH279647   1.685   5.026  13.957
19411TIP3    H179648   1.643   5.035  13.872
19411TIP3    H279649   1.771   5.068  13.946
19412TIP3   OH279650   1.235   6.504  11.697
19412TIP3    H179651   1.236   6.459  11.781
19412TIP3    H279652   1.304   6.462  11.646
19413TIP3   OH279653   2.194   3.869  13.377
19413TIP3    H179654   2.232   3.911  13.453
19413TIP3    H279655   2.104   3.849  13.402
19414TIP3   OH279656   2.701   1.825   0.735
19414TIP3    H179657   2.622   1.774   0.718
19414TIP3    H279658   2.672   1.898   0.790
19415TIP3   OH279659   6.371   5.657  12.457
19415TIP3    H179660   6.331   5.670  12.371
19415TIP3    H279661   6.313   5.702  12.518
19416TIP3   OH279662   0.398   5.601  14.106
19416TIP3    H179663   0.343   5.623  14.031
19416TIP3    H279664   0.336   5.586  14.177
19417TIP3   OH279665   5.563   0.262  13.990
19417TIP3    H179666   5.656   0.241  13.997
19417TIP3    H279667   5.554   0.305  13.905
19418TIP3   OH279668   5.301   0.917   6.019
19418TIP3    H179669   5.217   0.872   6.013
19418TIP3    H279670   5.328   0.904   6.110
19419TIP3   OH279671   3.884   5.091   4.479
19419TIP3    H179672   3.854   5.181   4.466
19419TIP3    H279673   3.963   5.083   4.426
19420TIP3   OH279674   3.609   4.408  14.879
19420TIP3    H179675   3.571   4.355  14.948
19420TIP3    H279676   3.682   4.453  14.922
19421TIP3   OH279677   0.596   3.876   5.378
19421TIP3    H179678   0.519   3.820   5.365
19421TIP3    H279679   0.658   3.846   5.312
19422TIP3   OH279680   0.857   5.801   0.312
19422TIP3    H179681   0.921   5.823   0.380
19422TIP3    H279682   0.774   5.794   0.360
19423TIP3   OH279683   0.481   6.202   4.053
19423TIP3    H179684   0.564   6.220   4.096
19423TIP3    H279685   0.501   6.201   3.959
19424TIP3   OH279686   3.465   5.398  14.884
19424TIP3    H179687   3.429   5.401  14.796
19424TIP3    H279688   3.449   5.308  14.913
19425TIP3   OH279689   4.289   3.017  14.239
19425TIP3    H179690   4.384   3.001  14.240
19425TIP3    H279691   4.276   3.089  14.300
19426TIP3   OH279692   3.096   2.817   5.233
19426TIP3    H179693   3.040   2.816   5.311
19426TIP3    H279694   3.129   2.906   5.228
19427TIP3   OH279695   2.606   6.014   5.353
19427TIP3    H179696   2.609   5.940   5.414
19427TIP3    H279697   2.654   5.983   5.276
19428TIP3   OH279698   3.499   5.604  14.073
19428TIP3    H179699   3.446   5.679  14.101
19428TIP3    H279700   3.436   5.532  14.067
19429TIP3   OH279701   1.149   5.569   3.423
19429TIP3    H179702   1.237   5.558   3.458
19429TIP3    H279703   1.137   5.664   3.417
19430TIP3   OH279704   4.615   5.851  15.770
19430TIP3    H179705   4.611   5.939  15.809
19430TIP3    H279706   4.524   5.828  15.754
19431TIP3   OH279707   5.630   4.047   1.050
19431TIP3    H179708   5.630   4.033   1.145
19431TIP3    H279709   5.718   4.022   1.022
19432TIP3   OH279710   4.178   1.380   0.518
19432TIP3    H179711   4.090   1.350   0.496
19432TIP3    H279712   4.211   1.314   0.580
19433TIP3   OH279713   2.944   5.367   4.272
19433TIP3    H179714   2.915   5.280   4.243
19433TIP3    H279715   2.937   5.363   4.368
19434TIP3   OH279716   1.457   6.143   4.964
19434TIP3    H179717   1.364   6.153   4.945
19434TIP3    H279718   1.501   6.188   4.892
19435TIP3   OH279719   5.581   6.755  17.113
19435TIP3    H179720   5.657   6.697  17.122
19435TIP3    H279721   5.506   6.695  17.105
19436TIP3   OH279722   4.087   2.408   2.255
19436TIP3    H179723   4.101   2.474   2.324
19436TIP3    H279724   4.019   2.351   2.291
19437TIP3   OH279725   4.175   3.435  11.685
19437TIP3    H179726   4.117   3.426  11.610
19437TIP3    H279727   4.201   3.527  11.685
19438TIP3   OH279728   0.268   4.803   2.105
19438TIP3    H179729   0.184   4.759   2.117
19438TIP3    H279730   0.250   4.871   2.039
19439TIP3   OH279731   4.681   0.208   0.715
19439TIP3    H179732   4.730   0.158   0.781
19439TIP3    H279733   4.688   0.156   0.635
19440TIP3   OH279734   2.732   6.622   4.178
19440TIP3    H179735   2.647   6.586   4.151
19440TIP3    H279736   2.731   6.615   4.274
19441TIP3   OH279737   2.132   2.234  16.340
19441TIP3    H179738   2.218   2.273  16.347
19441TIP3    H279739   2.139   2.152  16.389
19442TIP3   OH279740   6.561   3.262   2.140
19442TIP3    H179741   6.472   3.240   2.113
19442TIP3    H279742   6.591   3.183   2.186
19443TIP3   OH279743   6.585   0.473   4.847
19443TIP3    H179744   6.512   0.412   4.846
19443TIP3    H279745   6.662   0.420   4.825
19444TIP3   OH279746   1.698   3.023   5.451
19444TIP3    H179747   1.612   3.012   5.490
19444TIP3    H279748   1.717   2.938   5.411
19445TIP3   OH279749   6.536   0.872   1.482
19445TIP3    H179750   6.590   0.836   1.552
19445TIP3    H279751   6.479   0.935   1.525
19446TIP3   OH279752   5.766   3.507  15.130
19446TIP3    H179753   5.834   3.439  15.130
19446TIP3    H279754   5.806   3.581  15.174
19447TIP3   OH279755   3.328   6.065  14.631
19447TIP3    H179756   3.370   6.105  14.708
19447TIP3    H279757   3.235   6.063  14.653
19448TIP3   OH279758   4.347   2.486   4.543
19448TIP3    H179759   4.289   2.551   4.503
19448TIP3    H279760   4.294   2.446   4.612
19449TIP3   OH279761   4.467   6.745  16.328
19449TIP3    H179762   4.560   6.769  16.335
19449TIP3    H279763   4.445   6.759  16.236
19450TIP3   OH279764   0.429   0.946  13.037
19450TIP3    H179765   0.336   0.952  13.014
19450TIP3    H279766   0.437   0.861  13.081
19451TIP3   OH279767   3.669   1.207  14.937
19451TIP3    H179768   3.600   1.265  14.905
19451TIP3    H279769   3.675   1.226  15.030
19452TIP3   OH279770   3.436   6.534   3.146
19452TIP3    H179771   3.503   6.595   3.176
19452TIP3    H279772   3.469   6.447   3.171
19453TIP3   OH279773   0.006   0.095  14.543
19453TIP3    H179774  -0.076   0.069  14.585
19453TIP3    H279775   0.018   0.033  14.472
19454TIP3   OH279776   1.164   1.531  11.498
19454TIP3    H179777   1.134   1.622  11.501
19454TIP3    H279778   1.203   1.521  11.412
19455TIP3   OH279779   1.103   2.795  14.966
19455TIP3    H179780   1.136   2.714  15.005
19455TIP3    H279781   1.115   2.861  15.034
19456TIP3   OH279782   3.211   4.267   0.436
19456TIP3    H179783   3.227   4.361   0.427
19456TIP3    H279784   3.223   4.250   0.529
19457TIP3   OH279785   2.848   6.296   0.837
19457TIP3    H179786   2.808   6.209   0.837
19457TIP3    H279787   2.803   6.343   0.907
19458TIP3   OH279788   2.697   2.299   1.627
19458TIP3    H179789   2.774   2.349   1.601
19458TIP3    H279790   2.654   2.276   1.544
19459TIP3   OH279791   1.647   2.684  10.560
19459TIP3    H179792   1.685   2.772  10.556
19459TIP3    H279793   1.718   2.626  10.534
19460TIP3   OH279794   4.507   4.924   1.265
19460TIP3    H179795   4.518   4.846   1.210
19460TIP3    H279796   4.511   4.997   1.203
19461TIP3   OH279797   0.139   2.931  15.434
19461TIP3    H179798   0.192   3.006  15.408
19461TIP3    H279799   0.052   2.967  15.451
19462TIP3   OH279800   6.388   2.289   0.701
19462TIP3    H179801   6.321   2.351   0.671
19462TIP3    H279802   6.468   2.341   0.705
19463TIP3   OH279803   5.282   3.558   2.437
19463TIP3    H179804   5.339   3.617   2.485
19463TIP3    H279805   5.201   3.556   2.487
19464TIP3   OH279806   0.253   0.423  15.337
19464TIP3    H179807   0.316   0.361  15.301
19464TIP3    H279808   0.232   0.481  15.263
19465TIP3   OH279809   3.658   4.781  11.274
19465TIP3    H179810   3.574   4.821  11.295
19465TIP3    H279811   3.646   4.744  11.187
19466TIP3   OH279812   3.811   0.664   0.738
19466TIP3    H179813   3.804   0.757   0.759
19466TIP3    H279814   3.722   0.630   0.749
19467TIP3   OH279815   2.034   3.618  10.904
19467TIP3    H179816   2.127   3.603  10.885
19467TIP3    H279817   1.988   3.591  10.825
19468TIP3   OH279818   0.021   5.654   4.736
19468TIP3    H179819   0.047   5.598   4.662
19468TIP3    H279820   0.027   5.596   4.812
19469TIP3   OH279821   4.598   4.627   2.821
19469TIP3    H179822   4.522   4.576   2.792
19469TIP3    H279823   4.652   4.637   2.743
19470TIP3   OH279824   5.952   1.761  13.308
19470TIP3    H179825   5.937   1.667  13.294
19470TIP3    H279826   6.026   1.783  13.252
19471TIP3   OH279827   4.553   3.031  13.209
19471TIP3    H179828   4.617   2.960  13.208
19471TIP3    H279829   4.587   3.095  13.147
19472TIP3   OH279830   5.186   1.401   3.674
19472TIP3    H179831   5.142   1.343   3.613
19472TIP3    H279832   5.171   1.362   3.760
19473TIP3   OH279833   2.202   5.780   1.029
19473TIP3    H179834   2.141   5.848   1.058
19473TIP3    H279835   2.270   5.779   1.095
19474TIP3   OH279836   2.897   1.505  10.678
19474TIP3    H179837   2.947   1.511  10.597
19474TIP3    H279838   2.863   1.416  10.679
19475TIP3   OH279839   3.064   4.261  15.650
19475TIP3    H179840   3.021   4.345  15.634
19475TIP3    H279841   3.151   4.285  15.683
19476TIP3   OH279842   3.317   1.659  15.442
19476TIP3    H179843   3.387   1.722  15.457
19476TIP3    H279844   3.251   1.679  15.509
19477TIP3   OH279845   4.435   3.779   4.943
19477TIP3    H179846   4.469   3.762   5.031
19477TIP3    H279847   4.510   3.817   4.896
19478TIP3   OH279848   6.695   1.171   4.659
19478TIP3    H179849   6.784   1.159   4.691
19478TIP3    H279850   6.651   1.223   4.727
19479TIP3   OH279851   5.430   3.599  12.262
19479TIP3    H179852   5.354   3.626  12.210
19479TIP3    H279853   5.465   3.681  12.297
19480TIP3   OH279854   4.045   6.019  10.524
19480TIP3    H179855   4.140   6.005  10.522
19480TIP3    H279856   4.034   6.097  10.578
19481TIP3   OH279857   5.108   4.259   2.621
19481TIP3    H179858   5.132   4.174   2.660
19481TIP3    H279859   5.040   4.293   2.679
19482TIP3   OH279860   2.510   5.237  11.759
19482TIP3    H179861   2.458   5.244  11.840
19482TIP3    H279862   2.593   5.199  11.788
19483TIP3   OH279863   6.724   1.981   2.970
19483TIP3    H179864   6.688   1.970   2.882
19483TIP3    H279865   6.688   2.065   2.999
19484TIP3   OH279866   4.045   3.754  12.802
19484TIP3    H179867   3.967   3.809  12.810
19484TIP3    H279868   4.110   3.796  12.858
19485TIP3   OH279869   6.103   4.499   6.060
19485TIP3    H179870   6.020   4.544   6.043
19485TIP3    H279871   6.109   4.493   6.155
19486TIP3   OH279872   0.234   4.597  17.111
19486TIP3    H179873   0.226   4.692  17.124
19486TIP3    H279874   0.175   4.559  17.176
19487TIP3   OH279875   6.307   1.874   4.367
19487TIP3    H179876   6.291   1.796   4.420
19487TIP3    H279877   6.382   1.851   4.313
19488TIP3   OH279878   6.426   1.015   5.353
19488TIP3    H179879   6.499   1.044   5.298
19488TIP3    H279880   6.348   1.034   5.302
19489TIP3   OH279881   0.765   3.309   4.385
19489TIP3    H179882   0.745   3.325   4.293
19489TIP3    H279883   0.682   3.283   4.424
19490TIP3   OH279884   4.741   4.786  14.513
19490TIP3    H179885   4.677   4.801  14.444
19490TIP3    H279886   4.717   4.849  14.581
19491TIP3   OH279887   5.658   5.198  14.935
19491TIP3    H179888   5.754   5.200  14.927
19491TIP3    H279889   5.639   5.109  14.966
19492TIP3   OH279890   5.257   1.441   4.449
19492TIP3    H179891   5.331   1.389   4.418
19492TIP3    H279892   5.280   1.531   4.427
19493TIP3   OH279893   0.741   1.464   4.354
19493TIP3    H179894   0.680   1.428   4.289
19493TIP3    H279895   0.694   1.458   4.437
19494TIP3   OH279896   1.321   2.232   3.594
19494TIP3    H179897   1.308   2.206   3.503
19494TIP3    H279898   1.382   2.305   3.590
19495TIP3   OH279899   2.941   0.474  15.288
19495TIP3    H179900   2.877   0.465  15.218
19495TIP3    H279901   2.989   0.391  15.287
19496TIP3   OH279902   1.293   6.417   2.098
19496TIP3    H179903   1.307   6.402   2.005
19496TIP3    H279904   1.308   6.331   2.138
19497TIP3   OH279905   4.271   0.837   1.522
19497TIP3    H179906   4.257   0.866   1.612
19497TIP3    H279907   4.362   0.807   1.520
19498TIP3   OH279908   0.711   4.887  12.989
19498TIP3    H179909   0.698   4.940  12.911
19498TIP3    H279910   0.666   4.805  12.970
19499TIP3   OH279911   2.194   4.093  16.910
19499TIP3    H179912   2.248   4.024  16.949
19499TIP3    H279913   2.251   4.135  16.846
19500TIP3   OH279914   5.418   1.999  17.000
19500TIP3    H179915   5.486   1.933  16.989
19500TIP3    H279916   5.465   2.080  17.021
19501TIP3   OH279917   4.903   3.769   0.507
19501TIP3    H179918   4.970   3.730   0.563
19501TIP3    H279919   4.827   3.780   0.564
19502TIP3   OH279920   5.709   4.207  16.999
19502TIP3    H179921   5.780   4.143  16.995
19502TIP3    H279922   5.692   4.230  16.908
19503TIP3   OH279923   3.289   1.778  11.455
19503TIP3    H179924   3.276   1.689  11.423
19503TIP3    H279925   3.331   1.825  11.383
19504TIP3   OH279926   4.466   5.371   5.806
19504TIP3    H179927   4.544   5.408   5.849
19504TIP3    H279928   4.393   5.417   5.847
19505TIP3   OH279929   1.516   5.014   3.345
19505TIP3    H179930   1.446   4.950   3.333
19505TIP3    H279931   1.561   4.985   3.425
19506TIP3   OH279932   0.700   2.569   4.981
19506TIP3    H179933   0.745   2.555   5.065
19506TIP3    H279934   0.650   2.650   4.995
19507TIP3   OH279935   1.278   5.224  16.664
19507TIP3    H179936   1.190   5.262  16.667
19507TIP3    H279937   1.287   5.181  16.749
19508TIP3   OH279938   6.668   6.713  16.042
19508TIP3    H179939   6.688   6.790  15.987
19508TIP3    H279940   6.589   6.739  16.090
19509TIP3   OH279941   5.202   2.540   5.052
19509TIP3    H179942   5.117   2.496   5.043
19509TIP3    H279943   5.263   2.469   5.071
19510TIP3   OH279944   2.392   4.772   2.789
19510TIP3    H179945   2.423   4.791   2.878
19510TIP3    H279946   2.363   4.681   2.792
19511TIP3   OH279947   3.958   5.152  12.629
19511TIP3    H179948   4.016   5.085  12.667
19511TIP3    H279949   4.016   5.207  12.577
19512TIP3   OH279950   0.580   5.628   4.613
19512TIP3    H179951   0.593   5.709   4.564
19512TIP3    H279952   0.556   5.564   4.546
19513TIP3   OH279953   6.135   0.350  17.013
19513TIP3    H179954   6.158   0.260  17.034
19513TIP3    H279955   6.135   0.353  16.917
19514TIP3   OH279956   1.411   3.683  14.484
19514TIP3    H179957   1.347   3.748  14.454
19514TIP3    H279958   1.496   3.722  14.462
19515TIP3   OH279959   5.647   6.518   1.146
19515TIP3    H179960   5.698   6.518   1.227
19515TIP3    H279961   5.578   6.582   1.162
19516TIP3   OH279962   2.737   1.956   3.335
19516TIP3    H179963   2.699   2.036   3.299
19516TIP3    H279964   2.701   1.950   3.424
19517TIP3   OH279965   2.259   4.952   4.870
19517TIP3    H179966   2.327   4.965   4.936
19517TIP3    H279967   2.245   5.039   4.833
19518TIP3   OH279968   3.751   2.318   2.959
19518TIP3    H179969   3.663   2.356   2.951
19518TIP3    H279970   3.756   2.287   3.049
19519TIP3   OH279971   0.366   4.970  16.160
19519TIP3    H179972   0.448   4.957  16.113
19519TIP3    H279973   0.299   4.967  16.092
19520TIP3   OH279974   2.443   2.445   1.393
19520TIP3    H179975   2.362   2.436   1.444
19520TIP3    H279976   2.481   2.528   1.424
19521TIP3   OH279977   2.429   5.741  11.870
19521TIP3    H179978   2.478   5.718  11.790
19521TIP3    H279979   2.363   5.805  11.840
19522TIP3   OH279980   6.439   0.330   3.647
19522TIP3    H179981   6.455   0.238   3.668
19522TIP3    H279982   6.398   0.366   3.725
19523TIP3   OH279983   5.161   2.020   5.350
19523TIP3    H179984   5.237   1.970   5.318
19523TIP3    H279985   5.186   2.048   5.438
19524TIP3   OH279986   4.146   0.183  15.973
19524TIP3    H179987   4.073   0.194  15.913
19524TIP3    H279988   4.170   0.272  16.000
19525TIP3   OH279989   2.083   3.491   4.526
19525TIP3    H179990   2.151   3.424   4.532
19525TIP3    H279991   2.025   3.460   4.456
19526TIP3   OH279992   4.728   6.227  16.612
19526TIP3    H179993   4.784   6.194  16.542
19526TIP3    H279994   4.704   6.316  16.584
19527TIP3   OH279995   1.996   1.510  16.991
19527TIP3    H179996   1.901   1.521  16.988
19527TIP3    H279997   2.008   1.426  17.035
19528TIP3   OH279998   2.880   4.695   4.389
19528TIP3    H179999   2.835   4.772   4.354
19528TIP3    H280000   2.811   4.642   4.428
19529TIP3   OH280001   0.015   5.309  16.636
19529TIP3    H180002  -0.059   5.257  16.604
19529TIP3    H280003   0.092   5.259  16.611
19530TIP3   OH280004   2.212   0.248  13.994
19530TIP3    H180005   2.126   0.217  13.965
19530TIP3    H280006   2.227   0.328  13.943
19531TIP3   OH280007   2.844   3.138   0.885
19531TIP3    H180008   2.852   3.151   0.980
19531TIP3    H280009   2.774   3.073   0.876
19532TIP3   OH280010   4.788   2.244  16.912
19532TIP3    H180011   4.858   2.309  16.918
19532TIP3    H280012   4.832   2.163  16.886
19533TIP3   OH280013   0.733   5.923   2.390
19533TIP3    H180014   0.794   5.991   2.418
19533TIP3    H280015   0.738   5.856   2.459
19534TIP3   OH280016   2.417   1.816  16.858
19534TIP3    H180017   2.464   1.736  16.882
19534TIP3    H280018   2.478   1.887  16.879
19535TIP3   OH280019   5.306   6.251  14.488
19535TIP3    H180020   5.375   6.186  14.502
19535TIP3    H280021   5.352   6.326  14.448
19536TIP3   OH280022   5.700   5.819   4.932
19536TIP3    H180023   5.716   5.902   4.978
19536TIP3    H280024   5.764   5.818   4.861
19537TIP3   OH280025   4.296   2.785   3.664
19537TIP3    H180026   4.354   2.710   3.666
19537TIP3    H280027   4.344   2.855   3.707
19538TIP3   OH280028   1.149   4.262  11.343
19538TIP3    H180029   1.161   4.353  11.370
19538TIP3    H280030   1.236   4.232  11.318
19539TIP3   OH280031   4.903   0.559  10.308
19539TIP3    H180032   4.890   0.643  10.351
19539TIP3    H280033   4.984   0.569  10.257
19540TIP3   OH280034   3.780   5.723  13.375
19540TIP3    H180035   3.869   5.701  13.346
19540TIP3    H280036   3.724   5.660  13.330
19541TIP3   OH280037   2.337   5.738   0.609
19541TIP3    H180038   2.277   5.717   0.537
19541TIP3    H280039   2.410   5.677   0.599
19542TIP3   OH280040   3.887   1.099   3.765
19542TIP3    H180041   3.891   1.017   3.814
19542TIP3    H280042   3.964   1.148   3.794
19543TIP3   OH280043   4.993   4.088  15.999
19543TIP3    H180044   4.921   4.093  15.936
19543TIP3    H280045   4.965   4.144  16.071
19544TIP3   OH280046   3.357   2.314   4.593
19544TIP3    H180047   3.370   2.243   4.656
19544TIP3    H280048   3.393   2.392   4.637
19545TIP3   OH280049   0.523   6.782  11.056
19545TIP3    H180050   0.504   6.875  11.063
19545TIP3    H280051   0.612   6.778  11.021
19546TIP3   OH280052   0.352   1.904  16.686
19546TIP3    H180053   0.371   1.950  16.768
19546TIP3    H280054   0.258   1.915  16.673
19547TIP3   OH280055   1.868   5.773  14.141
19547TIP3    H180056   1.820   5.708  14.090
19547TIP3    H280057   1.898   5.724  14.218
19548TIP3   OH280058   0.800   3.902  13.679
19548TIP3    H180059   0.855   3.868  13.750
19548TIP3    H280060   0.719   3.929  13.723
19549TIP3   OH280061   2.713   2.912   6.261
19549TIP3    H180062   2.706   2.869   6.346
19549TIP3    H280063   2.631   2.960   6.251
19550TIP3   OH280064   3.144   5.726   0.708
19550TIP3    H180065   3.099   5.795   0.659
19550TIP3    H280066   3.229   5.718   0.666
19551TIP3   OH280067   0.636   2.882   2.554
19551TIP3    H180068   0.587   2.801   2.541
19551TIP3    H280069   0.668   2.876   2.644
19552TIP3   OH280070   6.596   3.300  14.217
19552TIP3    H180071   6.614   3.300  14.123
19552TIP3    H280072   6.625   3.214  14.247
19553TIP3   OH280073   5.096   1.545   1.199
19553TIP3    H180074   5.010   1.520   1.166
19553TIP3    H280075   5.083   1.561   1.292
19554TIP3   OH280076   3.073   2.126  10.773
19554TIP3    H180077   3.047   2.205  10.821
19554TIP3    H280078   3.157   2.147  10.734
19555TIP3   OH280079   4.286   3.221  14.408
19555TIP3    H180080   4.209   3.273  14.428
19555TIP3    H280081   4.358   3.284  14.409
19556TIP3   OH280082   2.533   6.588  15.521
19556TIP3    H180083   2.463   6.546  15.571
19556TIP3    H280084   2.577   6.644  15.584
19557TIP3   OH280085   6.365   1.037  13.637
19557TIP3    H180086   6.413   1.120  13.640
19557TIP3    H280087   6.433   0.970  13.641
19558TIP3   OH280088   4.168   5.083   2.935
19558TIP3    H180089   4.212   5.164   2.959
19558TIP3    H280090   4.217   5.015   2.981
19559TIP3   OH280091   5.211   3.481  11.325
19559TIP3    H180092   5.242   3.507  11.238
19559TIP3    H280093   5.231   3.556  11.381
19560TIP3   OH280094   3.708   2.567  10.870
19560TIP3    H180095   3.698   2.531  10.782
19560TIP3    H280096   3.687   2.495  10.928
19561TIP3   OH280097   5.185   0.553  11.441
19561TIP3    H180098   5.095   0.526  11.458
19561TIP3    H280099   5.179   0.617  11.371
19562TIP3   OH280100   5.124   1.230   5.454
19562TIP3    H180101   5.092   1.300   5.396
19562TIP3    H280102   5.211   1.209   5.420
19563TIP3   OH280103   4.552   1.560   5.131
19563TIP3    H180104   4.632   1.516   5.103
19563TIP3    H280105   4.504   1.575   5.049
19564TIP3   OH280106   3.426   3.402   0.473
19564TIP3    H180107   3.453   3.380   0.563
19564TIP3    H280108   3.470   3.484   0.454
19565TIP3   OH280109   3.424   3.351   6.057
19565TIP3    H180110   3.416   3.257   6.044
19565TIP3    H280111   3.365   3.371   6.129
19566TIP3   OH280112   4.884   1.058  13.983
19566TIP3    H180113   4.904   0.970  13.952
19566TIP3    H280114   4.964   1.108  13.967
19567TIP3   OH280115   0.550   4.456  16.772
19567TIP3    H180116   0.589   4.410  16.697
19567TIP3    H280117   0.606   4.533  16.784
19568TIP3   OH280118   6.287   1.219  13.455
19568TIP3    H180119   6.357   1.153  13.449
19568TIP3    H280120   6.227   1.198  13.384
19569TIP3   OH280121   0.760   4.585  15.592
19569TIP3    H180122   0.737   4.623  15.677
19569TIP3    H280123   0.748   4.491  15.604
19570TIP3   OH280124   5.208   5.112  17.175
19570TIP3    H180125   5.121   5.135  17.208
19570TIP3    H280126   5.191   5.058  17.098
19571TIP3   OH280127   3.699   4.168   5.271
19571TIP3    H180128   3.619   4.162   5.323
19571TIP3    H280129   3.760   4.108   5.314
19572TIP3   OH280130   3.394   1.875  14.784
19572TIP3    H180131   3.337   1.805  14.752
19572TIP3    H280132   3.334   1.937  14.825
19573TIP3   OH280133   1.571   4.702   0.356
19573TIP3    H180134   1.501   4.763   0.334
19573TIP3    H280135   1.538   4.653   0.431
19574TIP3   OH280136   1.979   1.364   4.738
19574TIP3    H180137   1.909   1.429   4.745
19574TIP3    H280138   1.978   1.317   4.821
19575TIP3   OH280139   0.408   3.473  13.003
19575TIP3    H180140   0.451   3.451  12.921
19575TIP3    H280141   0.462   3.430  13.070
19576TIP3   OH280142   3.779   6.285   3.689
19576TIP3    H180143   3.862   6.270   3.734
19576TIP3    H280144   3.761   6.202   3.644
19577TIP3   OH280145   4.994   5.487  12.542
19577TIP3    H180146   5.002   5.439  12.460
19577TIP3    H280147   5.059   5.447  12.600
19578TIP3   OH280148   0.251   5.368   3.591
19578TIP3    H180149   0.205   5.447   3.619
19578TIP3    H280150   0.292   5.335   3.672
19579TIP3   OH280151   6.354   3.188  15.489
19579TIP3    H180152   6.414   3.253  15.451
19579TIP3    H280153   6.270   3.208  15.449
19580TIP3   OH280154   2.850   1.524  11.113
19580TIP3    H180155   2.756   1.526  11.098
19580TIP3    H280156   2.887   1.491  11.031
19581TIP3   OH280157   3.393   0.731   3.355
19581TIP3    H180158   3.452   0.706   3.284
19581TIP3    H280159   3.430   0.690   3.433
19582TIP3   OH280160   5.962   4.751   4.052
19582TIP3    H180161   5.957   4.825   4.112
19582TIP3    H280162   6.055   4.743   4.031
19583TIP3   OH280163   2.695   1.169  11.739
19583TIP3    H180164   2.740   1.085  11.730
19583TIP3    H280165   2.603   1.149  11.727
19584TIP3   OH280166   1.645   3.125  13.083
19584TIP3    H180167   1.644   3.148  12.991
19584TIP3    H280168   1.682   3.202  13.127
19585TIP3   OH280169   5.904   1.921  15.084
19585TIP3    H180170   5.887   1.953  14.995
19585TIP3    H280171   5.952   1.993  15.126
19586TIP3   OH280172   2.574   0.484   4.815
19586TIP3    H180173   2.600   0.573   4.837
19586TIP3    H280174   2.582   0.435   4.896
19587TIP3   OH280175   2.854   2.161   2.936
19587TIP3    H180176   2.774   2.117   2.908
19587TIP3    H280177   2.831   2.254   2.934
19588TIP3   OH280178   6.434   2.738  15.867
19588TIP3    H180179   6.359   2.798  15.865
19588TIP3    H280180   6.479   2.755  15.784
19589TIP3   OH280181   5.373   1.160  15.893
19589TIP3    H180182   5.396   1.153  15.986
19589TIP3    H280183   5.395   1.074  15.857
19590TIP3   OH280184   0.803   3.024  12.638
19590TIP3    H180185   0.812   2.965  12.562
19590TIP3    H280186   0.809   3.112  12.600
19591TIP3   OH280187   3.262   3.456  12.652
19591TIP3    H180188   3.167   3.447  12.658
19591TIP3    H280189   3.275   3.531  12.594
19592TIP3   OH280190   0.953   4.487   5.558
19592TIP3    H180191   0.885   4.554   5.570
19592TIP3    H280192   0.921   4.412   5.607
19593TIP3   OH280193   3.799   2.954   5.507
19593TIP3    H180194   3.823   3.039   5.543
19593TIP3    H280195   3.777   2.901   5.583
19594TIP3   OH280196   3.186   6.287   1.889
19594TIP3    H180197   3.160   6.292   1.797
19594TIP3    H280198   3.147   6.364   1.930
19595TIP3   OH280199   1.120   3.605  15.666
19595TIP3    H180200   1.215   3.620  15.664
19595TIP3    H280201   1.086   3.677  15.720
19596TIP3   OH280202   6.099   5.580   3.966
19596TIP3    H180203   6.075   5.534   4.046
19596TIP3    H280204   6.061   5.667   3.975
19597TIP3   OH280205   0.726   2.864  11.295
19597TIP3    H180206   0.768   2.922  11.359
19597TIP3    H280207   0.770   2.780  11.306
19598TIP3   OH280208   2.885   3.411   5.677
19598TIP3    H180209   2.913   3.368   5.596
19598TIP3    H280210   2.806   3.459   5.652
19599TIP3   OH280211   0.386   2.514   1.324
19599TIP3    H180212   0.305   2.562   1.339
19599TIP3    H280213   0.372   2.429   1.366
19600TIP3   OH280214   2.437   6.655   6.002
19600TIP3    H180215   2.515   6.688   5.957
19600TIP3    H280216   2.472   6.602   6.074
19601TIP3   OH280217   6.045   5.556   4.269
19601TIP3    H180218   6.114   5.521   4.325
19601TIP3    H280219   5.963   5.536   4.314
19602TIP3   OH280220   1.112   4.639  16.946
19602TIP3    H180221   1.118   4.723  16.900
19602TIP3    H280222   1.200   4.602  16.941
19603TIP3   OH280223   5.426   3.686  16.727
19603TIP3    H180224   5.408   3.774  16.761
19603TIP3    H280225   5.476   3.643  16.796
19604TIP3   OH280226   4.480   3.822   5.493
19604TIP3    H180227   4.526   3.866   5.564
19604TIP3    H280228   4.433   3.892   5.448
19605TIP3   OH280229   3.845   6.359   1.125
19605TIP3    H180230   3.893   6.365   1.207
19605TIP3    H280231   3.768   6.415   1.138
19606TIP3   OH280232   5.305   4.384   1.403
19606TIP3    H180233   5.260   4.423   1.329
19606TIP3    H280234   5.245   4.316   1.435
19607TIP3   OH280235   5.121   5.284  15.676
19607TIP3    H180236   5.142   5.251  15.588
19607TIP3    H280237   5.182   5.238  15.734
19608TIP3   OH280238   0.136   0.249  15.505
19608TIP3    H180239   0.159   0.325  15.451
19608TIP3    H280240   0.172   0.269  15.591
19609TIP3   OH280241   4.494   1.915   2.750
19609TIP3    H180242   4.508   1.855   2.823
19609TIP3    H280243   4.483   1.858   2.674
19610TIP3   OH280244   1.693   6.462  15.595
19610TIP3    H180245   1.670   6.521  15.668
19610TIP3    H280246   1.684   6.516  15.517
19611TIP3   OH280247   4.063   0.670   4.150
19611TIP3    H180248   4.060   0.576   4.168
19611TIP3    H280249   4.032   0.710   4.232
19612TIP3   OH280250   2.269   5.697  17.013
19612TIP3    H180251   2.337   5.736  17.068
19612TIP3    H280252   2.315   5.669  16.934
19613TIP3   OH280253   3.172   2.017   4.540
19613TIP3    H180254   3.206   2.056   4.459
19613TIP3    H280255   3.202   1.926   4.537
19614TIP3   OH280256   2.382   4.662  14.235
19614TIP3    H180257   2.396   4.753  14.209
19614TIP3    H280258   2.312   4.667  14.300
19615TIP3   OH280259   4.381   6.593   3.384
19615TIP3    H180260   4.341   6.545   3.312
19615TIP3    H280261   4.458   6.542   3.408
19616TIP3   OH280262   1.368   1.194  12.274
19616TIP3    H180263   1.401   1.280  12.298
19616TIP3    H280264   1.343   1.202  12.182
19617TIP3   OH280265   4.647   6.762   1.437
19617TIP3    H180266   4.605   6.720   1.512
19617TIP3    H280267   4.626   6.705   1.363
19618TIP3   OH280268   5.376   2.414  15.546
19618TIP3    H180269   5.415   2.331  15.519
19618TIP3    H280270   5.430   2.444  15.618
19619TIP3   OH280271   1.007   1.995   0.655
19619TIP3    H180272   1.041   1.988   0.744
19619TIP3    H280273   1.059   1.932   0.605
19620TIP3   OH280274   2.170   4.592   2.881
19620TIP3    H180275   2.105   4.601   2.951
19620TIP3    H280276   2.248   4.558   2.925
19621TIP3   OH280277   4.927   2.612   2.438
19621TIP3    H180278   4.835   2.588   2.449
19621TIP3    H280279   4.947   2.590   2.347
19622TIP3   OH280280   0.610   4.156  16.401
19622TIP3    H180281   0.516   4.147  16.420
19622TIP3    H280282   0.621   4.110  16.318
19623TIP3   OH280283   1.170   3.190  12.131
19623TIP3    H180284   1.117   3.215  12.207
19623TIP3    H280285   1.132   3.238  12.058
19624TIP3   OH280286   5.622   1.581   5.714
19624TIP3    H180287   5.639   1.575   5.620
19624TIP3    H280288   5.580   1.497   5.736
19625TIP3   OH280289   0.478   2.970  15.152
19625TIP3    H180290   0.556   3.025  15.164
19625TIP3    H280291   0.500   2.912  15.079
19626TIP3   OH280292   5.121   1.622  13.361
19626TIP3    H180293   5.095   1.705  13.322
19626TIP3    H280294   5.053   1.603  13.426
19627TIP3   OH280295   3.221   3.502  14.410
19627TIP3    H180296   3.138   3.516  14.363
19627TIP3    H280297   3.288   3.529  14.347
19628TIP3   OH280298   0.603   2.391  12.430
19628TIP3    H180299   0.583   2.324  12.495
19628TIP3    H280300   0.606   2.345  12.347
19629TIP3   OH280301   5.675   4.946   0.829
19629TIP3    H180302   5.594   4.985   0.796
19629TIP3    H280303   5.710   4.896   0.755
19630TIP3   OH280304   5.667   6.597  13.915
19630TIP3    H180305   5.753   6.620  13.950
19630TIP3    H280306   5.655   6.505  13.939
19631TIP3   OH280307   1.834   6.536   3.297
19631TIP3    H180308   1.785   6.520   3.378
19631TIP3    H280309   1.837   6.450   3.254
19632TIP3   OH280310   0.369   2.803   0.119
19632TIP3    H180311   0.304   2.740   0.148
19632TIP3    H280312   0.437   2.801   0.187
19633TIP3   OH280313   0.819   1.075  16.334
19633TIP3    H180314   0.882   1.017  16.291
19633TIP3    H280315   0.752   1.092  16.268
19634TIP3   OH280316   0.704   2.509   3.608
19634TIP3    H180317   0.736   2.576   3.548
19634TIP3    H280318   0.690   2.432   3.553
19635TIP3   OH280319   2.351   3.734   3.872
19635TIP3    H180320   2.415   3.663   3.879
19635TIP3    H280321   2.336   3.744   3.778
19636TIP3   OH280322   1.138   1.210   0.571
19636TIP3    H180323   1.129   1.302   0.595
19636TIP3    H280324   1.232   1.192   0.581
19637TIP3   OH280325   6.218   1.202  12.359
19637TIP3    H180326   6.288   1.143  12.331
19637TIP3    H280327   6.156   1.145  12.405
19638TIP3   OH280328   2.232   4.953   5.598
19638TIP3    H180329   2.216   4.943   5.692
19638TIP3    H280330   2.167   5.017   5.569
19639TIP3   OH280331   1.358   3.397   3.458
19639TIP3    H180332   1.298   3.327   3.432
19639TIP3    H280333   1.443   3.354   3.468
19640TIP3   OH280334   6.639   4.834   0.866
19640TIP3    H180335   6.640   4.914   0.919
19640TIP3    H280336   6.588   4.857   0.788
19641TIP3   OH280337   3.409   5.241   1.500
19641TIP3    H180338   3.345   5.189   1.451
19641TIP3    H280339   3.390   5.222   1.592
19642TIP3   OH280340   4.223   1.057   6.243
19642TIP3    H180341   4.139   1.015   6.221
19642TIP3    H280342   4.211   1.149   6.220
19643TIP3   OH280343   1.555   5.661  12.297
19643TIP3    H180344   1.463   5.678  12.312
19643TIP3    H280345   1.601   5.719  12.358
19644TIP3   OH280346   1.347   3.045  13.172
19644TIP3    H180347   1.283   3.036  13.102
19644TIP3    H280348   1.428   3.069  13.128
19645TIP3   OH280349   6.411   0.997  15.709
19645TIP3    H180350   6.396   0.914  15.664
19645TIP3    H280351   6.475   0.976  15.777
19646TIP3   OH280352   5.189   5.886   0.353
19646TIP3    H180353   5.240   5.812   0.319
19646TIP3    H280354   5.144   5.921   0.276
19647TIP3   OH280355   6.452   2.794  16.458
19647TIP3    H180356   6.430   2.771  16.368
19647TIP3    H280357   6.370   2.789  16.506
19648TIP3   OH280358   5.061   0.241  11.936
19648TIP3    H180359   5.146   0.199  11.953
19648TIP3    H280360   5.084   0.329  11.906
19649TIP3   OH280361   5.233   4.922  11.375
19649TIP3    H180362   5.282   4.981  11.318
19649TIP3    H280363   5.301   4.871  11.421
19650TIP3   OH280364   3.433   3.051   5.375
19650TIP3    H180365   3.503   3.088   5.322
19650TIP3    H280366   3.457   3.073   5.465
19651TIP3   OH280367   0.796   5.122   1.555
19651TIP3    H180368   0.835   5.070   1.625
19651TIP3    H280369   0.717   5.159   1.593
19652TIP3   OH280370   0.976   5.902  15.794
19652TIP3    H180371   0.928   5.920  15.875
19652TIP3    H280372   0.914   5.921  15.724
19653TIP3   OH280373   3.677   1.969   1.645
19653TIP3    H180374   3.644   2.055   1.621
19653TIP3    H280375   3.680   1.920   1.563
19654TIP3   OH280376   0.529   2.937  12.610
19654TIP3    H180377   0.559   2.847  12.621
19654TIP3    H280378   0.603   2.983  12.571
19655TIP3   OH280379   3.423   2.961   4.085
19655TIP3    H180380   3.356   2.916   4.137
19655TIP3    H280381   3.456   2.894   4.025
19656TIP3   OH280382   4.738   0.483   2.929
19656TIP3    H180383   4.744   0.391   2.904
19656TIP3    H280384   4.656   0.514   2.891
19657TIP3   OH280385   3.859   3.004  13.359
19657TIP3    H180386   3.845   2.928  13.415
19657TIP3    H280387   3.820   2.981  13.275
19658TIP3   OH280388   1.659   4.578  14.054
19658TIP3    H180389   1.699   4.628  13.982
19658TIP3    H280390   1.588   4.530  14.012
19659TIP3   OH280391   5.564   5.024  14.499
19659TIP3    H180392   5.583   4.948  14.445
19659TIP3    H280393   5.605   5.097  14.453
19660TIP3   OH280394   6.098   4.919   3.776
19660TIP3    H180395   6.159   4.879   3.838
19660TIP3    H280396   6.108   5.013   3.790
19661TIP3   OH280397   0.670   1.612  12.131
19661TIP3    H180398   0.610   1.538  12.128
19661TIP3    H280399   0.698   1.618  12.222
19662TIP3   OH280400   0.809   6.224   3.888
19662TIP3    H180401   0.754   6.271   3.825
19662TIP3    H280402   0.881   6.189   3.835
19663TIP3   OH280403   6.568   3.741  14.270
19663TIP3    H180404   6.508   3.677  14.308
19663TIP3    H280405   6.519   3.779  14.197
19664TIP3   OH280406   3.059   6.064   2.999
19664TIP3    H180407   3.081   6.026   2.914
19664TIP3    H280408   3.134   6.121   3.020
19665TIP3   OH280409   6.570   1.699  11.745
19665TIP3    H180410   6.510   1.676  11.816
19665TIP3    H280411   6.638   1.751  11.787
19666TIP3   OH280412   3.179   5.180   0.154
19666TIP3    H180413   3.236   5.118   0.108
19666TIP3    H280414   3.158   5.246   0.088
19667TIP3   OH280415   0.564   6.579   1.341
19667TIP3    H180416   0.629   6.511   1.361
19667TIP3    H280417   0.553   6.574   1.246
19668TIP3   OH280418   5.739   3.753  12.273
19668TIP3    H180419   5.779   3.840  12.280
19668TIP3    H280420   5.707   3.734  12.361
19669TIP3   OH280421   0.046   0.215   1.886
19669TIP3    H180422   0.087   0.159   1.820
19669TIP3    H280423   0.046   0.302   1.846
19670TIP3   OH280424   1.710   2.790  12.040
19670TIP3    H180425   1.633   2.804  12.094
19670TIP3    H280426   1.721   2.695  12.038
19671TIP3   OH280427   2.626   5.603   4.894
19671TIP3    H180428   2.617   5.508   4.895
19671TIP3    H280429   2.586   5.632   4.976
19672TIP3   OH280430   3.201   1.111   5.042
19672TIP3    H180431   3.213   1.202   5.069
19672TIP3    H280432   3.287   1.085   5.008
19673TIP3   OH280433   3.319   0.503   1.060
19673TIP3    H180434   3.247   0.480   1.002
19673TIP3    H280435   3.305   0.595   1.081
19674TIP3   OH280436   2.461   6.343   0.886
19674TIP3    H180437   2.389   6.353   0.949
19674TIP3    H280438   2.510   6.267   0.918
19675TIP3   OH280439   3.673   2.817  14.363
19675TIP3    H180440   3.658   2.811  14.457
19675TIP3    H280441   3.594   2.782  14.323
19676TIP3   OH280442   1.198   3.701   1.721
19676TIP3    H180443   1.119   3.659   1.754
19676TIP3    H280444   1.269   3.641   1.744
19677TIP3   OH280445   0.089   3.590   2.080
19677TIP3    H180446   0.155   3.553   2.021
19677TIP3    H280447   0.082   3.526   2.151
19678TIP3   OH280448   5.682   4.266  14.515
19678TIP3    H180449   5.730   4.184  14.511
19678TIP3    H280450   5.667   4.281  14.609
19679TIP3   OH280451   5.846   6.632  12.810
19679TIP3    H180452   5.773   6.660  12.754
19679TIP3    H280453   5.831   6.677  12.893
19680TIP3   OH280454   3.879   4.514  12.644
19680TIP3    H180455   3.949   4.528  12.708
19680TIP3    H280456   3.866   4.600  12.603
19681TIP3   OH280457   3.239   2.139   1.620
19681TIP3    H180458   3.304   2.078   1.584
19681TIP3    H280459   3.223   2.202   1.550
19682TIP3   OH280460   5.196   4.047   6.218
19682TIP3    H180461   5.263   3.991   6.259
19682TIP3    H280462   5.215   4.135   6.251
19683TIP3   OH280463   0.291   6.369   4.309
19683TIP3    H180464   0.343   6.312   4.366
19683TIP3    H280465   0.271   6.314   4.233
19684TIP3   OH280466   6.433   6.325   5.369
19684TIP3    H180467   6.458   6.238   5.401
19684TIP3    H280468   6.508   6.352   5.316
19685TIP3   OH280469   6.643   1.885   5.801
19685TIP3    H180470   6.676   1.802   5.768
19685TIP3    H280471   6.579   1.861   5.868
19686TIP3   OH280472   3.284   2.767   0.968
19686TIP3    H180473   3.216   2.723   1.019
19686TIP3    H280474   3.343   2.804   1.034
19687TIP3   OH280475   1.243   0.945  15.567
19687TIP3    H180476   1.301   1.004  15.616
19687TIP3    H280477   1.292   0.862  15.562
19688TIP3   OH280478   4.766   4.144  11.207
19688TIP3    H180479   4.813   4.131  11.125
19688TIP3    H280480   4.722   4.061  11.223
19689TIP3   OH280481   3.865   6.269  14.678
19689TIP3    H180482   3.955   6.239  14.665
19689TIP3    H280483   3.873   6.362  14.697
19690TIP3   OH280484   2.795   0.938  15.860
19690TIP3    H180485   2.769   1.029  15.848
19690TIP3    H280486   2.891   0.940  15.858
19691TIP3   OH280487   3.659   3.309   2.531
19691TIP3    H180488   3.658   3.334   2.623
19691TIP3    H280489   3.582   3.350   2.493
19692TIP3   OH280490   3.971   5.190   0.143
19692TIP3    H180491   3.888   5.236   0.143
19692TIP3    H280492   4.030   5.247   0.093
19693TIP3   OH280493   2.571   0.671   0.096
19693TIP3    H180494   2.608   0.607   0.035
19693TIP3    H280495   2.631   0.745   0.091
19694TIP3   OH280496   6.395   4.709   2.299
19694TIP3    H180497   6.408   4.614   2.298
19694TIP3    H280498   6.460   4.742   2.237
19695TIP3   OH280499   0.605   1.386   4.792
19695TIP3    H180500   0.590   1.433   4.873
19695TIP3    H280501   0.633   1.453   4.729
19696TIP3   OH280502   4.285   3.481  15.439
19696TIP3    H180503   4.282   3.438  15.353
19696TIP3    H280504   4.369   3.455  15.476
19697TIP3   OH280505   1.698   0.636   1.536
19697TIP3    H180506   1.615   0.680   1.515
19697TIP3    H280507   1.765   0.691   1.495
19698TIP3   OH280508   3.981   5.698  12.433
19698TIP3    H180509   4.004   5.716  12.525
19698TIP3    H280510   3.889   5.672  12.436
19699TIP3   OH280511   6.263   3.315  11.547
19699TIP3    H180512   6.206   3.385  11.579
19699TIP3    H280513   6.240   3.306  11.454
19700TIP3   OH280514   3.365   3.785  12.322
19700TIP3    H180515   3.440   3.728  12.336
19700TIP3    H280516   3.365   3.844  12.398
19701TIP3   OH280517   0.608   4.609  16.456
19701TIP3    H180518   0.626   4.701  16.474
19701TIP3    H280519   0.513   4.604  16.451
19702TIP3   OH280520   3.814   5.667   6.151
19702TIP3    H180521   3.909   5.665   6.137
19702TIP3    H280522   3.787   5.754   6.121
19703TIP3   OH280523   4.920   2.516   6.789
19703TIP3    H180524   4.839   2.556   6.820
19703TIP3    H280525   4.952   2.575   6.721
19704TIP3   OH280526   5.801   5.234   0.580
19704TIP3    H180527   5.824   5.280   0.499
19704TIP3    H280528   5.885   5.206   0.617
19705TIP3   OH280529   4.613   5.878  14.968
19705TIP3    H180530   4.591   5.847  15.056
19705TIP3    H280531   4.553   5.831  14.910
19706TIP3   OH280532   2.879   0.965   3.698
19706TIP3    H180533   2.871   0.901   3.769
19706TIP3    H280534   2.838   0.923   3.623
19707TIP3   OH280535   2.803   1.609   2.001
19707TIP3    H180536   2.793   1.539   2.066
19707TIP3    H280537   2.897   1.619   1.991
19708TIP3   OH280538   4.330   2.347   3.025
19708TIP3    H180539   4.384   2.268   3.014
19708TIP3    H280540   4.240   2.313   3.033
19709TIP3   OH280541   0.211   6.638  14.061
19709TIP3    H180542   0.252   6.723  14.046
19709TIP3    H280543   0.121   6.648  14.032
19710TIP3   OH280544   3.594   1.520  12.885
19710TIP3    H180545   3.645   1.441  12.869
19710TIP3    H280546   3.509   1.487  12.916
19711TIP3   OH280547   2.030   1.101   0.997
19711TIP3    H180548   2.111   1.056   1.022
19711TIP3    H280549   1.969   1.030   0.977
19712TIP3   OH280550   0.159   2.400   1.647
19712TIP3    H180551   0.206   2.317   1.649
19712TIP3    H280552   0.210   2.458   1.704
19713TIP3   OH280553   1.076   4.852  13.850
19713TIP3    H180554   1.066   4.901  13.932
19713TIP3    H280555   1.071   4.918  13.781
19714TIP3   OH280556   3.623   2.519  16.999
19714TIP3    H180557   3.640   2.586  16.933
19714TIP3    H280558   3.612   2.438  16.949
19715TIP3   OH280559   4.383   1.959  13.145
19715TIP3    H180560   4.382   1.969  13.240
19715TIP3    H280561   4.405   1.867  13.131
19716TIP3   OH280562   3.244   5.883  13.067
19716TIP3    H180563   3.151   5.902  13.074
19716TIP3    H280564   3.279   5.954  13.013
19717TIP3   OH280565   6.356   0.810   3.998
19717TIP3    H180566   6.353   0.899   4.032
19717TIP3    H280567   6.287   0.806   3.932
19718TIP3   OH280568   1.757   0.361   1.587
19718TIP3    H180569   1.745   0.341   1.679
19718TIP3    H280570   1.727   0.452   1.578
19719TIP3   OH280571   4.436   0.226  17.001
19719TIP3    H180572   4.483   0.193  17.078
19719TIP3    H280573   4.344   0.205  17.017
19720TIP3   OH280574   1.395   1.081  16.289
19720TIP3    H180575   1.467   1.101  16.349
19720TIP3    H280576   1.357   1.166  16.267
19721TIP3   OH280577   4.456   6.404   1.505
19721TIP3    H180578   4.487   6.341   1.570
19721TIP3    H280579   4.490   6.488   1.535
19722TIP3   OH280580   4.398   5.093  10.455
19722TIP3    H180581   4.335   5.047  10.400
19722TIP3    H280582   4.425   5.029  10.521
19723TIP3   OH280583   4.377   4.004  15.803
19723TIP3    H180584   4.284   4.014  15.781
19723TIP3    H280585   4.398   4.083  15.853
19724TIP3   OH280586   5.009   1.914  15.838
19724TIP3    H180587   5.099   1.882  15.829
19724TIP3    H280588   5.018   2.005  15.865
19725TIP3   OH280589   2.917   4.001   3.379
19725TIP3    H180590   2.887   4.011   3.469
19725TIP3    H280591   2.840   4.018   3.325
19726TIP3   OH280592   6.624   0.382  15.204
19726TIP3    H180593   6.623   0.436  15.283
19726TIP3    H280594   6.700   0.413  15.154
19727TIP3   OH280595   5.039   6.024   4.332
19727TIP3    H180596   4.974   5.974   4.282
19727TIP3    H280597   5.113   6.032   4.273
19728TIP3   OH280598   0.920   1.880   2.592
19728TIP3    H180599   0.993   1.829   2.627
19728TIP3    H280600   0.950   1.971   2.595
19729TIP3   OH280601   4.753   2.157  11.405
19729TIP3    H180602   4.755   2.106  11.324
19729TIP3    H280603   4.663   2.188  11.412
19730TIP3   OH280604   5.312   3.838  12.704
19730TIP3    H180605   5.396   3.884  12.706
19730TIP3    H280606   5.320   3.778  12.629
19731TIP3   OH280607   0.471   4.206   2.485
19731TIP3    H180608   0.405   4.147   2.523
19731TIP3    H280609   0.426   4.290   2.476
19732TIP3   OH280610   0.368   1.800   3.885
19732TIP3    H180611   0.331   1.853   3.956
19732TIP3    H280612   0.438   1.854   3.849
19733TIP3   OH280613   5.301   2.764   3.435
19733TIP3    H180614   5.351   2.695   3.480
19733TIP3    H280615   5.352   2.782   3.355
19734TIP3   OH280616   0.174   5.784  13.203
19734TIP3    H180617   0.190   5.877  13.187
19734TIP3    H280618   0.199   5.771  13.294
19735TIP3   OH280619   1.433   4.579   5.371
19735TIP3    H180620   1.436   4.492   5.412
19735TIP3    H280621   1.429   4.561   5.277
19736TIP3   OH280622   4.877   3.020  12.037
19736TIP3    H180623   4.937   3.059  11.974
19736TIP3    H280624   4.790   3.043  12.005
19737TIP3   OH280625   5.410   5.948   4.944
19737TIP3    H180626   5.369   5.877   4.894
19737TIP3    H280627   5.491   5.910   4.978
19738TIP3   OH280628   6.768   6.104  11.634
19738TIP3    H180629   6.695   6.047  11.610
19738TIP3    H280630   6.729   6.191  11.641
19739TIP3   OH280631   2.662   2.548  12.682
19739TIP3    H180632   2.586   2.580  12.633
19739TIP3    H280633   2.626   2.488  12.747
19740TIP3   OH280634   5.137   3.374  12.490
19740TIP3    H180635   5.090   3.429  12.428
19740TIP3    H280636   5.073   3.307  12.516
19741TIP3   OH280637   2.523   2.881  13.684
19741TIP3    H180638   2.504   2.913  13.772
19741TIP3    H280639   2.480   2.796  13.680
19742TIP3   OH280640   5.237   4.095  15.352
19742TIP3    H180641   5.194   4.027  15.403
19742TIP3    H280642   5.271   4.049  15.275
19743TIP3   OH280643   6.624   5.225  12.724
19743TIP3    H180644   6.648   5.317  12.718
19743TIP3    H280645   6.544   5.225  12.777
19744TIP3   OH280646   2.785   2.247   5.933
19744TIP3    H180647   2.705   2.272   5.886
19744TIP3    H280648   2.820   2.329   5.966
19745TIP3   OH280649   3.645   3.299  14.629
19745TIP3    H180650   3.677   3.219  14.672
19745TIP3    H280651   3.692   3.370  14.673
19746TIP3   OH280652   2.830   0.927   4.152
19746TIP3    H180653   2.792   0.889   4.231
19746TIP3    H280654   2.799   1.018   4.151
19747TIP3   OH280655   0.917   2.344   2.523
19747TIP3    H180656   0.861   2.317   2.449
19747TIP3    H280657   0.894   2.435   2.538
19748TIP3   OH280658   5.202   3.103  13.337
19748TIP3    H180659   5.236   3.192  13.348
19748TIP3    H280660   5.134   3.111  13.271
19749TIP3   OH280661   4.648   2.857  16.515
19749TIP3    H180662   4.690   2.933  16.475
19749TIP3    H280663   4.688   2.781  16.472
19750TIP3   OH280664   1.836   6.378  15.861
19750TIP3    H180665   1.769   6.384  15.794
19750TIP3    H280666   1.918   6.392  15.814
19751TIP3   OH280667   6.548   3.025   3.883
19751TIP3    H180668   6.491   3.011   3.959
19751TIP3    H280669   6.629   2.980   3.906
19752TIP3   OH280670   5.718   4.122   6.458
19752TIP3    H180671   5.644   4.064   6.477
19752TIP3    H280672   5.693   4.206   6.496
19753TIP3   OH280673   4.430   6.582   2.007
19753TIP3    H180674   4.502   6.572   2.069
19753TIP3    H280675   4.433   6.674   1.981
19754TIP3   OH280676   0.155   1.131  13.979
19754TIP3    H180677   0.225   1.066  13.972
19754TIP3    H280678   0.193   1.210  13.939
19755TIP3   OH280679   5.290   5.682   2.997
19755TIP3    H180680   5.272   5.759   3.050
19755TIP3    H280681   5.256   5.609   3.049
19756TIP3   OH280682   3.281   0.163   4.749
19756TIP3    H180683   3.313   0.116   4.826
19756TIP3    H280684   3.284   0.098   4.679
19757TIP3   OH280685   5.419   3.294  11.142
19757TIP3    H180686   5.416   3.384  11.109
19757TIP3    H280687   5.407   3.239  11.065
19758TIP3   OH280688   1.172   2.761   2.449
19758TIP3    H180689   1.192   2.823   2.380
19758TIP3    H280690   1.095   2.797   2.494
19759TIP3   OH280691   3.544   4.593   2.641
19759TIP3    H180692   3.581   4.586   2.553
19759TIP3    H280693   3.619   4.612   2.697
19760TIP3   OH280694   5.818   2.476   4.897
19760TIP3    H180695   5.727   2.459   4.875
19760TIP3    H280696   5.817   2.561   4.940
19761TIP3   OH280697   1.173   4.226  14.669
19761TIP3    H180698   1.262   4.257  14.648
19761TIP3    H280699   1.116   4.276  14.612
19762TIP3   OH280700   2.363   5.213   2.292
19762TIP3    H180701   2.342   5.125   2.258
19762TIP3    H280702   2.315   5.218   2.375
19763TIP3   OH280703   6.767   2.314   3.425
19763TIP3    H180704   6.740   2.399   3.390
19763TIP3    H280705   6.696   2.254   3.400
19764TIP3   OH280706   6.490   0.677   5.596
19764TIP3    H180707   6.469   0.677   5.689
19764TIP3    H280708   6.452   0.596   5.563
19765TIP3   OH280709   4.456   4.939  13.241
19765TIP3    H180710   4.404   5.017  13.258
19765TIP3    H280711   4.425   4.875  13.305
19766TIP3   OH280712   0.923   1.982   2.054
19766TIP3    H180713   0.998   1.931   2.023
19766TIP3    H280714   0.853   1.961   1.993
19767TIP3   OH280715   5.913   3.520  12.013
19767TIP3    H180716   5.927   3.518  12.108
19767TIP3    H280717   5.939   3.609  11.987
19768TIP3   OH280718   4.454   1.849  11.767
19768TIP3    H180719   4.413   1.769  11.799
19768TIP3    H280720   4.545   1.843  11.797
19769TIP3   OH280721   4.519   3.467   5.927
19769TIP3    H180722   4.574   3.501   5.856
19769TIP3    H280723   4.436   3.513   5.918
19770TIP3   OH280724   2.641   3.557   5.618
19770TIP3    H180725   2.686   3.637   5.644
19770TIP3    H280726   2.568   3.549   5.679
19771TIP3   OH280727   3.466   5.689   0.052
19771TIP3    H180728   3.437   5.708  -0.037
19771TIP3    H280729   3.545   5.741   0.064
19772TIP3   OH280730   3.117   2.412  12.462
19772TIP3    H180731   3.081   2.490  12.503
19772TIP3    H280732   3.140   2.440  12.373
19773TIP3   OH280733   3.820   0.285  12.436
19773TIP3    H180734   3.787   0.218  12.496
19773TIP3    H280735   3.825   0.364  12.489
19774TIP3   OH280736   4.909   6.392   1.158
19774TIP3    H180737   4.966   6.315   1.149
19774TIP3    H280738   4.847   6.368   1.226
19775TIP3   OH280739   4.817   3.773   0.961
19775TIP3    H180740   4.812   3.682   0.931
19775TIP3    H280741   4.904   3.781   1.000
19776TIP3   OH280742   6.670   4.504  13.859
19776TIP3    H180743   6.589   4.552  13.842
19776TIP3    H280744   6.659   4.467  13.946
19777TIP3   OH280745   4.852   4.766   4.547
19777TIP3    H180746   4.802   4.723   4.617
19777TIP3    H280747   4.812   4.734   4.466
19778TIP3   OH280748   6.049   1.681  16.483
19778TIP3    H180749   6.145   1.680  16.482
19778TIP3    H280750   6.025   1.623  16.556
19779TIP3   OH280751   2.231   5.442  16.786
19779TIP3    H180752   2.236   5.445  16.690
19779TIP3    H280753   2.320   5.419  16.813
19780TIP3   OH280754   4.309   5.211   6.635
19780TIP3    H180755   4.234   5.155   6.654
19780TIP3    H280756   4.385   5.153   6.644
19781TIP3   OH280757   0.451   0.729  15.113
19781TIP3    H180758   0.543   0.751  15.128
19781TIP3    H280759   0.453   0.656  15.051
19782TIP3   OH280760   5.666   6.414   5.011
19782TIP3    H180761   5.600   6.425   5.080
19782TIP3    H280762   5.628   6.456   4.934
19783TIP3   OH280763   0.218   1.774  15.445
19783TIP3    H180764   0.219   1.829  15.524
19783TIP3    H280765   0.131   1.789  15.407
19784TIP3   OH280766   3.440   0.228  15.766
19784TIP3    H180767   3.525   0.219  15.809
19784TIP3    H280768   3.411   0.316  15.790
19785TIP3   OH280769   6.235   4.299   5.936
19785TIP3    H180770   6.238   4.225   5.996
19785TIP3    H280771   6.181   4.364   5.980
19786TIP3   OH280772   1.877   0.043   3.719
19786TIP3    H180773   1.949  -0.014   3.744
19786TIP3    H280774   1.889   0.122   3.773
19787TIP3   OH280775   4.927   6.036  10.602
19787TIP3    H180776   4.953   5.976  10.532
19787TIP3    H280777   5.009   6.062  10.643
19788TIP3   OH280778   5.508   0.705  11.037
19788TIP3    H180779   5.530   0.751  10.956
19788TIP3    H280780   5.438   0.644  11.012
19789TIP3   OH280781   6.712   0.853   4.223
19789TIP3    H180782   6.712   0.931   4.166
19789TIP3    H280783   6.659   0.878   4.298
19790TIP3   OH280784   3.151   4.641  17.133
19790TIP3    H180785   3.097   4.720  17.134
19790TIP3    H280786   3.176   4.631  17.041
19791TIP3   OH280787   3.321   3.870   3.331
19791TIP3    H180788   3.239   3.858   3.378
19791TIP3    H280789   3.389   3.850   3.395
19792TIP3   OH280790   3.042   6.298   1.645
19792TIP3    H180791   3.030   6.213   1.602
19792TIP3    H280792   3.064   6.357   1.574
19793TIP3   OH280793   3.243   0.226  10.532
19793TIP3    H180794   3.288   0.259  10.454
19793TIP3    H280795   3.213   0.305  10.577
19794TIP3   OH280796   6.414   5.766   4.450
19794TIP3    H180797   6.445   5.731   4.366
19794TIP3    H280798   6.491   5.806   4.489
19795TIP3   OH280799   4.734   2.656   1.548
19795TIP3    H180800   4.765   2.733   1.499
19795TIP3    H280801   4.661   2.690   1.600
19796TIP3   OH280802   4.337   6.083  16.467
19796TIP3    H180803   4.431   6.087  16.488
19796TIP3    H280804   4.324   6.152  16.402
19797TIP3   OH280805   3.320   5.988  17.169
19797TIP3    H180806   3.295   6.064  17.115
19797TIP3    H280807   3.408   5.966  17.139
19798TIP3   OH280808   5.531   1.633   6.278
19798TIP3    H180809   5.446   1.596   6.301
19798TIP3    H280810   5.538   1.713   6.329
19799TIP3   OH280811   6.207   4.309   1.790
19799TIP3    H180812   6.155   4.282   1.866
19799TIP3    H280813   6.154   4.377   1.748
19800TIP3   OH280814   4.532   0.874   0.361
19800TIP3    H180815   4.540   0.968   0.347
19800TIP3    H280816   4.622   0.841   0.355
19801TIP3   OH280817   4.188   2.573   2.461
19801TIP3    H180818   4.156   2.658   2.488
19801TIP3    H280819   4.224   2.534   2.541
19802TIP3   OH280820   5.665   2.438   3.294
19802TIP3    H180821   5.684   2.459   3.385
19802TIP3    H280822   5.684   2.344   3.286
19803TIP3   OH280823   5.887   3.891   1.983
19803TIP3    H180824   5.922   3.927   1.901
19803TIP3    H280825   5.886   3.796   1.968
19804TIP3   OH280826   4.365   3.859  12.589
19804TIP3    H180827   4.412   3.822  12.664
19804TIP3    H280828   4.326   3.940  12.622
19805TIP3   OH280829   5.755   5.836   4.051
19805TIP3    H180830   5.845   5.813   4.074
19805TIP3    H280831   5.714   5.861   4.134
19806TIP3   OH280832   0.221   1.846   5.557
19806TIP3    H180833   0.142   1.796   5.579
19806TIP3    H280834   0.262   1.795   5.487
19807TIP3   OH280835   3.171   0.881   5.677
19807TIP3    H180836   3.120   0.885   5.597
19807TIP3    H280837   3.217   0.965   5.681
19808TIP3   OH280838   5.641   6.441   2.938
19808TIP3    H180839   5.714   6.501   2.954
19808TIP3    H280840   5.570   6.497   2.906
19809TIP3   OH280841   6.129   6.732   5.631
19809TIP3    H180842   6.052   6.724   5.687
19809TIP3    H280843   6.146   6.643   5.600
19810TIP3   OH280844   4.586   1.034  14.383
19810TIP3    H180845   4.502   1.003  14.347
19810TIP3    H280846   4.633   1.068  14.306
19811TIP3   OH280847   0.871   0.200   2.224
19811TIP3    H180848   0.927   0.135   2.265
19811TIP3    H280849   0.859   0.267   2.291
19812TIP3   OH280850   0.889   0.173  16.173
19812TIP3    H180851   0.797   0.169  16.149
19812TIP3    H280852   0.898   0.256  16.220
19813TIP3   OH280853   3.266   1.347  11.736
19813TIP3    H180854   3.328   1.420  11.733
19813TIP3    H280855   3.190   1.381  11.783
19814TIP3   OH280856   5.562   4.234  15.946
19814TIP3    H180857   5.638   4.207  15.895
19814TIP3    H280858   5.505   4.158  15.947
19815TIP3   OH280859   2.133   5.605  15.622
19815TIP3    H180860   2.169   5.688  15.654
19815TIP3    H280861   2.097   5.626  15.536
19816TIP3   OH280862   4.055   2.978  16.560
19816TIP3    H180863   4.132   2.977  16.617
19816TIP3    H280864   3.981   2.965  16.619
19817TIP3   OH280865   5.697   3.631  11.310
19817TIP3    H180866   5.676   3.571  11.382
19817TIP3    H280867   5.683   3.579  11.231
19818TIP3   OH280868   1.957   3.541   2.755
19818TIP3    H180869   2.007   3.468   2.719
19818TIP3    H280870   1.968   3.612   2.692
19819TIP3   OH280871   1.837   2.596   1.634
19819TIP3    H180872   1.873   2.680   1.664
19819TIP3    H280873   1.913   2.548   1.602
19820TIP3   OH280874   2.802   1.252  12.603
19820TIP3    H180875   2.825   1.341  12.630
19820TIP3    H280876   2.833   1.246  12.512
19821TIP3   OH280877   3.337   5.882   4.234
19821TIP3    H180878   3.403   5.941   4.196
19821TIP3    H280879   3.388   5.807   4.264
19822TIP3   OH280880   2.371   4.422   1.338
19822TIP3    H180881   2.406   4.505   1.373
19822TIP3    H280882   2.381   4.430   1.243
19823TIP3   OH280883   5.562   3.989  16.266
19823TIP3    H180884   5.613   4.018  16.190
19823TIP3    H280885   5.498   3.928  16.230
19824TIP3   OH280886   1.590   5.771  13.438
19824TIP3    H180887   1.645   5.842  13.405
19824TIP3    H280888   1.595   5.703  13.371
19825TIP3   OH280889   3.661   3.434   6.277
19825TIP3    H180890   3.738   3.470   6.320
19825TIP3    H280891   3.640   3.497   6.208
19826TIP3   OH280892   4.496   3.733  12.804
19826TIP3    H180893   4.563   3.674  12.839
19826TIP3    H280894   4.518   3.819  12.840
19827TIP3   OH280895   5.207   5.927  12.915
19827TIP3    H180896   5.160   6.011  12.912
19827TIP3    H280897   5.281   5.939  12.856
19828TIP3   OH280898   1.082   3.562  12.901
19828TIP3    H180899   0.987   3.569  12.904
19828TIP3    H280900   1.113   3.625  12.966
19829TIP3   OH280901   2.367   5.998  12.727
19829TIP3    H180902   2.279   5.973  12.757
19829TIP3    H280903   2.423   5.925  12.754
19830TIP3   OH280904   6.222   2.581   2.545
19830TIP3    H180905   6.195   2.665   2.583
19830TIP3    H280906   6.307   2.600   2.504
19831TIP3   OH280907   1.387   3.668   5.349
19831TIP3    H180908   1.325   3.598   5.371
19831TIP3    H280909   1.430   3.688   5.432
19832TIP3   OH280910   3.957   3.460   1.542
19832TIP3    H180911   3.885   3.517   1.516
19832TIP3    H280912   4.035   3.516   1.537
19833TIP3   OH280913   1.249   0.706   1.246
19833TIP3    H180914   1.278   0.718   1.337
19833TIP3    H280915   1.296   0.628   1.216
19834TIP3   OH280916   6.083   1.561  14.023
19834TIP3    H180917   6.041   1.645  14.004
19834TIP3    H280918   6.059   1.505  13.950
19835TIP3   OH280919   5.759   5.988   6.347
19835TIP3    H180920   5.738   6.049   6.276
19835TIP3    H280921   5.817   5.924   6.308
19836TIP3   OH280922   5.169   5.002  14.368
19836TIP3    H180923   5.092   5.053  14.346
19836TIP3    H280924   5.182   4.943  14.294
19837TIP3   OH280925   6.467   0.576   4.068
19837TIP3    H180926   6.453   0.573   4.162
19837TIP3    H280927   6.428   0.658   4.039
19838TIP3   OH280928   6.206   0.221   6.131
19838TIP3    H180929   6.214   0.156   6.202
19838TIP3    H280930   6.292   0.221   6.090
19839TIP3   OH280931   0.461   4.676   1.574
19839TIP3    H180932   0.489   4.707   1.660
19839TIP3    H280933   0.507   4.734   1.512
19840TIP3   OH280934   0.502   3.617   3.738
19840TIP3    H180935   0.571   3.672   3.775
19840TIP3    H280936   0.465   3.669   3.667
19841TIP3   OH280937   4.789   2.657  16.393
19841TIP3    H180938   4.880   2.629  16.398
19841TIP3    H280939   4.770   2.662  16.299
19842TIP3   OH280940   3.463   1.351   4.555
19842TIP3    H180941   3.530   1.367   4.621
19842TIP3    H280942   3.486   1.265   4.518
19843TIP3   OH280943   2.317   6.545   2.800
19843TIP3    H180944   2.356   6.572   2.717
19843TIP3    H280945   2.231   6.587   2.801
19844TIP3   OH280946   5.326   5.051  14.646
19844TIP3    H180947   5.282   5.129  14.613
19844TIP3    H280948   5.381   5.022  14.574
19845TIP3   OH280949   3.291   3.840   3.070
19845TIP3    H180950   3.333   3.873   3.150
19845TIP3    H280951   3.210   3.890   3.062
19846TIP3   OH280952   4.813   3.312  11.993
19846TIP3    H180953   4.842   3.266  11.914
19846TIP3    H280954   4.893   3.338  12.038
19847TIP3   OH280955   4.079   2.132  15.270
19847TIP3    H180956   4.170   2.104  15.281
19847TIP3    H280957   4.076   2.170  15.182
19848TIP3   OH280958   5.977   0.044  13.276
19848TIP3    H180959   5.999  -0.004  13.357
19848TIP3    H280960   6.010  -0.013  13.206
19849TIP3   OH280961   5.500   6.087  14.566
19849TIP3    H180962   5.465   6.001  14.589
19849TIP3    H280963   5.587   6.089  14.606
19850TIP3   OH280964   6.387   1.693   0.671
19850TIP3    H180965   6.475   1.658   0.653
19850TIP3    H280966   6.386   1.778   0.626
19851TIP3   OH280967   0.053   5.658   2.931
19851TIP3    H180968   0.062   5.751   2.952
19851TIP3    H280969  -0.041   5.644   2.923
19852TIP3   OH280970   5.400   5.220  11.401
19852TIP3    H180971   5.444   5.158  11.460
19852TIP3    H280972   5.399   5.176  11.316
19853TIP3   OH280973   0.665   3.938   2.597
19853TIP3    H180974   0.581   3.913   2.637
19853TIP3    H280975   0.664   4.034   2.597
19854TIP3   OH280976   6.052   4.469  11.684
19854TIP3    H180977   5.960   4.456  11.710
19854TIP3    H280978   6.102   4.419  11.749
19855TIP3   OH280979   1.628   4.267  11.449
19855TIP3    H180980   1.683   4.199  11.488
19855TIP3    H280981   1.677   4.348  11.462
19856TIP3   OH280982   3.144   3.529   4.514
19856TIP3    H180983   3.204   3.477   4.568
19856TIP3    H280984   3.193   3.607   4.491
19857TIP3   OH280985   6.115   4.870  10.808
19857TIP3    H180986   6.193   4.837  10.763
19857TIP3    H280987   6.119   4.831  10.895
19858TIP3   OH280988   4.725   4.439  15.379
19858TIP3    H180989   4.803   4.466  15.428
19858TIP3    H280990   4.747   4.353  15.344
19859TIP3   OH280991   2.764   5.865   1.858
19859TIP3    H180992   2.733   5.886   1.770
19859TIP3    H280993   2.717   5.925   1.915
19860TIP3   OH280994   4.283   5.376  13.622
19860TIP3    H180995   4.336   5.445  13.581
19860TIP3    H280996   4.305   5.381  13.715
19861TIP3   OH280997   1.259   0.862   4.550
19861TIP3    H180998   1.169   0.892   4.542
19861TIP3    H280999   1.307   0.938   4.581
19862TIP3   OH281000   3.589   1.272   0.830
19862TIP3    H181001   3.648   1.345   0.812
19862TIP3    H281002   3.501   1.310   0.826
19863TIP3   OH281003   1.098   1.807  15.163
19863TIP3    H181004   1.087   1.789  15.070
19863TIP3    H281005   1.186   1.776  15.184
19864TIP3   OH281006   6.354   3.559  15.554
19864TIP3    H181007   6.377   3.623  15.621
19864TIP3    H281008   6.287   3.601  15.501
19865TIP3   OH281009   5.772   3.401   0.614
19865TIP3    H181010   5.851   3.410   0.667
19865TIP3    H281011   5.757   3.488   0.578
19866TIP3   OH281012   2.258   3.720  11.964
19866TIP3    H181013   2.192   3.749  12.026
19866TIP3    H281014   2.212   3.662  11.904
19867TIP3   OH281015   6.038   6.255  11.630
19867TIP3    H181016   5.963   6.270  11.572
19867TIP3    H281017   6.048   6.159  11.632
19868TIP3   OH281018   1.569   3.889   3.436
19868TIP3    H181019   1.623   3.904   3.358
19868TIP3    H281020   1.479   3.891   3.402
19869TIP3   OH281021   5.311   3.855  15.219
19869TIP3    H181022   5.381   3.803  15.179
19869TIP3    H281023   5.254   3.790  15.260
19870TIP3   OH281024   3.127   3.459  10.683
19870TIP3    H181025   3.167   3.536  10.725
19870TIP3    H281026   3.174   3.450  10.600
19871TIP3   OH281027   0.531   0.902  12.150
19871TIP3    H181028   0.612   0.916  12.198
19871TIP3    H281029   0.464   0.947  12.201
19872TIP3   OH281030   1.250   6.711   4.040
19872TIP3    H181031   1.175   6.737   3.987
19872TIP3    H281032   1.242   6.616   4.048
19873TIP3   OH281033   3.516   0.245   4.245
19873TIP3    H181034   3.591   0.186   4.252
19873TIP3    H281035   3.496   0.248   4.151
19874TIP3   OH281036   4.540   6.672   0.162
19874TIP3    H181037   4.485   6.693   0.237
19874TIP3    H281038   4.502   6.591   0.126
19875TIP3   OH281039   0.403   6.652   0.324
19875TIP3    H181040   0.458   6.574   0.328
19875TIP3    H281041   0.422   6.692   0.239
19876TIP3   OH281042   5.449   1.162  16.161
19876TIP3    H181043   5.503   1.091  16.193
19876TIP3    H281044   5.454   1.230  16.229
19877TIP3   OH281045   2.351   5.480  12.655
19877TIP3    H181046   2.408   5.411  12.688
19877TIP3    H281047   2.316   5.522  12.734
19878TIP3   OH281048   1.545   6.560  14.201
19878TIP3    H181049   1.626   6.519  14.231
19878TIP3    H281050   1.506   6.597  14.280
19879TIP3   OH281051   2.226   1.890   5.746
19879TIP3    H181052   2.298   1.952   5.750
19879TIP3    H281053   2.149   1.942   5.723
19880TIP3   OH281054   1.659   4.096   4.873
19880TIP3    H181055   1.743   4.070   4.909
19880TIP3    H281056   1.656   4.058   4.785
19881TIP3   OH281057   3.814   1.936   5.648
19881TIP3    H181058   3.823   2.030   5.662
19881TIP3    H281059   3.794   1.901   5.735
19882TIP3   OH281060   3.988   2.851   6.747
19882TIP3    H181061   3.895   2.842   6.727
19882TIP3    H281062   3.992   2.926   6.808
19883TIP3   OH281063   6.304   5.983   5.810
19883TIP3    H181064   6.295   6.078   5.803
19883TIP3    H281065   6.257   5.960   5.890
19884TIP3   OH281066   5.270   3.818   2.241
19884TIP3    H181067   5.234   3.882   2.180
19884TIP3    H281068   5.194   3.781   2.285
19885TIP3   OH281069   1.097   6.422  15.799
19885TIP3    H181070   1.174   6.478  15.808
19885TIP3    H281071   1.034   6.475  15.750
19886TIP3   OH281072   3.251   3.796  11.606
19886TIP3    H181073   3.279   3.868  11.662
19886TIP3    H281074   3.332   3.752  11.581
19887TIP3   OH281075   5.378   1.136   2.818
19887TIP3    H181076   5.433   1.144   2.896
19887TIP3    H281077   5.434   1.092   2.753
19888TIP3   OH281078   4.185   2.113   0.792
19888TIP3    H181079   4.090   2.110   0.796
19888TIP3    H281080   4.205   2.113   0.698
19889TIP3   OH281081   4.122   5.011  12.994
19889TIP3    H181082   4.137   4.986  13.085
19889TIP3    H281083   4.126   5.107  12.995
19890TIP3   OH281084   5.893   6.698  16.327
19890TIP3    H181085   5.883   6.793  16.332
19890TIP3    H281086   5.844   6.673  16.248
19891TIP3   OH281087   1.654   3.829   5.155
19891TIP3    H181088   1.635   3.870   5.239
19891TIP3    H281089   1.746   3.803   5.161
19892TIP3   OH281090   4.644   1.556  14.902
19892TIP3    H181091   4.588   1.541  14.978
19892TIP3    H281092   4.719   1.605  14.936
19893TIP3   OH281093   6.397   3.389  13.038
19893TIP3    H181094   6.431   3.470  13.076
19893TIP3    H281095   6.475   3.338  13.015
19894TIP3   OH281096   0.296   0.632   1.266
19894TIP3    H181097   0.230   0.671   1.208
19894TIP3    H281098   0.302   0.541   1.238
19895TIP3   OH281099   5.567   4.408   0.063
19895TIP3    H181100   5.600   4.497   0.073
19895TIP3    H281101   5.512   4.410  -0.015
19896TIP3   OH281102   0.448   5.520  15.568
19896TIP3    H181103   0.405   5.475  15.640
19896TIP3    H281104   0.483   5.600  15.607
19897TIP3   OH281105   5.059   0.081  15.503
19897TIP3    H181106   5.099   0.139  15.438
19897TIP3    H281107   5.021   0.140  15.568
19898TIP3   OH281108   2.754   6.216   5.948
19898TIP3    H181109   2.753   6.283   6.017
19898TIP3    H281110   2.668   6.175   5.954
19899TIP3   OH281111   3.611   1.378   3.157
19899TIP3    H181112   3.638   1.344   3.243
19899TIP3    H281113   3.693   1.392   3.110
19900TIP3   OH281114   0.098   0.193   2.531
19900TIP3    H181115   0.156   0.172   2.458
19900TIP3    H281116   0.116   0.285   2.549
19901TIP3   OH281117   2.242   1.819  13.743
19901TIP3    H181118   2.303   1.858  13.807
19901TIP3    H281119   2.211   1.739  13.786
19902TIP3   OH281120   0.830   6.523   4.483
19902TIP3    H181121   0.895   6.544   4.551
19902TIP3    H281122   0.873   6.545   4.401
19903TIP3   OH281123   0.878   0.304   3.589
19903TIP3    H181124   0.857   0.364   3.517
19903TIP3    H281125   0.920   0.360   3.654
19904TIP3   OH281126   2.968   1.104  15.082
19904TIP3    H181127   3.034   1.164  15.047
19904TIP3    H281128   2.884   1.144  15.059
19905TIP3   OH281129   1.265   2.177  13.618
19905TIP3    H181130   1.360   2.186  13.622
19905TIP3    H281131   1.250   2.087  13.590
19906TIP3   OH281132   0.674   0.173   3.725
19906TIP3    H181133   0.741   0.240   3.715
19906TIP3    H281134   0.597   0.220   3.757
19907TIP3   OH281135   6.023   2.737   4.750
19907TIP3    H181136   6.092   2.742   4.817
19907TIP3    H281137   5.982   2.652   4.764
19908TIP3   OH281138   6.390   5.556  10.625
19908TIP3    H181139   6.358   5.472  10.593
19908TIP3    H281140   6.372   5.555  10.719
19909TIP3   OH281141   0.598   1.601  15.262
19909TIP3    H181142   0.666   1.545  15.226
19909TIP3    H281143   0.614   1.601  15.357
19910TIP3   OH281144   1.934   5.249   1.380
19910TIP3    H181145   1.955   5.318   1.317
19910TIP3    H281146   1.958   5.168   1.336
19911TIP3   OH281147   3.649   5.224   3.791
19911TIP3    H181148   3.735   5.197   3.824
19911TIP3    H281149   3.642   5.316   3.814
19912TIP3   OH281150   2.477   5.045   0.096
19912TIP3    H181151   2.484   4.960   0.054
19912TIP3    H281152   2.397   5.083   0.060
19913TIP3   OH281153   6.346   3.304  12.449
19913TIP3    H181154   6.368   3.221  12.408
19913TIP3    H281155   6.380   3.371  12.391
19914TIP3   OH281156   1.453   0.657   2.044
19914TIP3    H181157   1.357   0.657   2.042
19914TIP3    H281158   1.476   0.731   2.100
19915TIP3   OH281159   1.976   0.791   0.192
19915TIP3    H181160   1.993   0.876   0.234
19915TIP3    H281161   1.920   0.812   0.118
19916TIP3   OH281162   0.452   4.137  12.883
19916TIP3    H181163   0.433   4.228  12.905
19916TIP3    H281164   0.389   4.086  12.935
19917TIP3   OH281165   1.890   2.035  16.867
19917TIP3    H181166   1.871   2.085  16.947
19917TIP3    H281167   1.967   1.983  16.889
19918TIP3   OH281168   4.181   4.059  11.885
19918TIP3    H181169   4.165   3.967  11.903
19918TIP3    H281170   4.258   4.081  11.938
19919TIP3   OH281171   5.082   4.604   5.340
19919TIP3    H181172   5.003   4.649   5.370
19919TIP3    H281173   5.152   4.668   5.351
19920TIP3   OH281174   0.435   5.902  10.415
19920TIP3    H181175   0.359   5.950  10.448
19920TIP3    H281176   0.403   5.812  10.404
19921TIP3   OH281177   0.050   2.469  14.271
19921TIP3    H181178   0.105   2.533  14.225
19921TIP3    H281179   0.031   2.402  14.206
19922TIP3   OH281180   2.825   0.279   5.232
19922TIP3    H181181   2.769   0.202   5.223
19922TIP3    H281182   2.891   0.269   5.163
19923TIP3   OH281183   4.417   2.489  17.210
19923TIP3    H181184   4.391   2.421  17.148
19923TIP3    H281185   4.341   2.547  17.216
19924TIP3   OH281186   0.961   1.943  12.125
19924TIP3    H181187   1.024   1.944  12.197
19924TIP3    H281188   0.880   1.912  12.165
19925TIP3   OH281189   3.633   2.779  16.902
19925TIP3    H181190   3.729   2.776  16.899
19925TIP3    H281191   3.613   2.872  16.912
19926TIP3   OH281192   1.794   3.422   1.004
19926TIP3    H181193   1.813   3.328   1.005
19926TIP3    H281194   1.729   3.434   1.073
19927TIP3   OH281195   0.376   6.486   1.792
19927TIP3    H181196   0.351   6.531   1.711
19927TIP3    H281197   0.419   6.553   1.844
19928TIP3   OH281198   6.733   5.963   3.365
19928TIP3    H181199   6.670   5.989   3.432
19928TIP3    H281200   6.818   5.987   3.402
19929TIP3   OH281201   2.397   5.746   5.878
19929TIP3    H181202   2.434   5.784   5.958
19929TIP3    H281203   2.411   5.813   5.811
19930TIP3   OH281204   6.584   3.748   5.433
19930TIP3    H181205   6.548   3.724   5.348
19930TIP3    H281206   6.591   3.666   5.481
19931TIP3   OH281207   6.022   4.580   4.735
19931TIP3    H181208   5.928   4.588   4.749
19931TIP3    H281209   6.057   4.667   4.755
19932TIP3   OH281210   0.744   4.671  16.761
19932TIP3    H181211   0.809   4.708  16.701
19932TIP3    H281212   0.682   4.742  16.775
19933TIP3   OH281213   6.701   6.346  13.982
19933TIP3    H181214   6.652   6.333  14.064
19933TIP3    H281215   6.647   6.303  13.916
19934TIP3   OH281216   4.426   2.156  13.681
19934TIP3    H181217   4.417   2.153  13.776
19934TIP3    H281218   4.498   2.217  13.665
19935TIP3   OH281219   2.425   4.649   5.834
19935TIP3    H181220   2.486   4.626   5.904
19935TIP3    H281221   2.468   4.722   5.788
19936TIP3   OH281222   5.291   2.777   5.745
19936TIP3    H181223   5.350   2.707   5.716
19936TIP3    H281224   5.229   2.787   5.672
19937TIP3   OH281225   1.424   3.172  11.314
19937TIP3    H181226   1.440   3.259  11.277
19937TIP3    H281227   1.330   3.169  11.331
19938TIP3   OH281228   4.734   1.328   5.906
19938TIP3    H181229   4.732   1.418   5.873
19938TIP3    H281230   4.795   1.330   5.979
19939TIP3   OH281231   2.243   1.994  12.044
19939TIP3    H181232   2.209   2.076  12.007
19939TIP3    H281233   2.253   2.013  12.138
19940TIP3   OH281234   5.322   1.887   3.727
19940TIP3    H181235   5.286   1.810   3.683
19940TIP3    H281236   5.245   1.931   3.765
19941TIP3   OH281237   0.061   2.001   3.645
19941TIP3    H181238   0.063   2.076   3.704
19941TIP3    H281239  -0.032   1.981   3.634
19942TIP3   OH281240   0.896   0.886   2.207
19942TIP3    H181241   0.916   0.821   2.275
19942TIP3    H281242   0.924   0.969   2.244
19943TIP3   OH281243   4.419   6.688   2.533
19943TIP3    H181244   4.470   6.719   2.608
19943TIP3    H281245   4.404   6.595   2.551
19944TIP3   OH281246   4.967   4.930   0.729
19944TIP3    H181247   5.028   4.936   0.656
19944TIP3    H281248   4.928   5.017   0.735
19945TIP3   OH281249   4.256   1.346   0.196
19945TIP3    H181250   4.268   1.355   0.290
19945TIP3    H281251   4.339   1.308   0.165
19946TIP3   OH281252   4.006   5.253   0.678
19946TIP3    H181253   3.970   5.207   0.753
19946TIP3    H281254   3.971   5.206   0.602
19947TIP3   OH281255   4.208   2.199   4.574
19947TIP3    H181256   4.187   2.232   4.487
19947TIP3    H281257   4.128   2.212   4.625
19948TIP3   OH281258   2.943   1.937  13.027
19948TIP3    H181259   2.962   1.870  12.960
19948TIP3    H281260   2.960   2.020  12.982
19949TIP3   OH281261   3.390   0.798   0.796
19949TIP3    H181262   3.362   0.766   0.882
19949TIP3    H281263   3.440   0.725   0.759
19950TIP3   OH281264   2.037   6.415   0.970
19950TIP3    H181265   2.022   6.435   0.877
19950TIP3    H281266   2.062   6.323   0.971
19951LIG      S81267   3.606   3.450  16.682
19951LIG     O181268   3.208   3.397  16.864
19951LIG     O281269   3.561   3.322  17.159
19951LIG    OXT81270   3.531   3.146  17.021
19951LIG     O381271   3.292   3.652  16.262
19951LIG     O481272   3.329   3.275  15.963
19951LIG     O581273   3.346   3.098  15.824
19951LIG     N181274   3.437   3.334  16.820
19951LIG     N281275   3.293   3.498  16.584
19951LIG     C181276   3.471   3.330  16.681
19951LIG     C281277   3.663   3.403  16.849
19951LIG    CA181278   3.530   3.373  16.921
19951LIG    CA281279   3.327   3.364  16.642
19951LIG     C381280   3.305   3.366  16.795
19951LIG     C481281   3.757   3.281  16.839
19951LIG     C581282   3.741   3.516  16.917
19951LIG     C681283   3.540   3.267  17.032
19951LIG     C781284   3.334   3.532  16.450
19951LIG     C881285   3.300   3.654  16.400
19951LIG     C981286   3.328   3.439  16.341
19951LIG    C1081287   3.285   3.794  16.459
19951LIG    C1181288   3.311   3.521  16.227
19951LIG    C1281289   3.336   3.300  16.328
19951LIG    C1381290   3.311   3.467  16.100
19951LIG    C1481291   3.150   3.862  16.426
19951LIG    C1581292   3.402   3.888  16.420
19951LIG    C1681293   3.335   3.247  16.198
19951LIG    C1781294   3.324   3.330  16.088
19951LIG    C1881295   3.350   3.112  16.180
19951LIG    C1981296   3.354   3.054  16.054
19951LIG    C2081297   3.343   3.138  15.940
19951LIG     H181298   3.505   3.230  16.647
19951LIG    HA181299   3.494   3.464  16.970
19951LIG    HA281300   3.264   3.282  16.603
19951LIG     H281301   3.846   3.307  16.778
19951LIG     H381302   3.705   3.196  16.790
19951LIG     H481303   3.791   3.248  16.939
19951LIG     H581304   3.677   3.607  16.924
19951LIG     H681305   3.831   3.543  16.858
19951LIG     H781306   3.772   3.487  17.019
19951LIG     H881307   3.309   3.569  16.656
19951LIG     H981308   3.289   3.783  16.570
19951LIG    H1081309   3.559   3.252  17.224
19951LIG    H1181310   3.349   3.236  16.413
19951LIG    H1281311   3.303   3.528  16.012
19951LIG    H1381312   3.065   3.801  16.463
19951LIG    H1481313   3.138   3.875  16.316
19951LIG    H1581314   3.144   3.962  16.473
19951LIG    H1681315   3.406   3.903  16.310
19951LIG    H1781316   3.499   3.847  16.454
19951LIG    H1881317   3.388   3.988  16.468
19951LIG    H1981318   3.358   3.047  16.267
19951LIG    H2081319   3.365   2.947  16.040
   6.78697   6.78697  17.23950
